Protein in INSANE! Membrane UpperLeaflet>POPC=1.0 LowerLeaflet>POPC=1.0
248799
    1AU     AUC    1  41.919  20.835   7.535
    1AU     AUC    2  42.171  20.840   7.369
    1AU     AUC    3  42.160  20.827   7.699
    1AU     AUC    4  41.649  20.843   7.380
    1AU     AUC    5  41.675  20.872   7.705
    1AU     AUC    6  41.758  21.088   7.513
    1AU     AUC    7  42.105  21.100   7.516
    1AU     AUC    8  41.740  20.581   7.543
    1AU     AUC    9  42.071  20.559   7.545
    1AU     AUC   10  41.913  20.675   7.798
    1AU     AUC   11  41.932  21.015   7.779
    1AU     AUC   12  41.906  20.662   7.287
    1AU     AUC   13  41.926  20.968   7.271
    1AU     AUC   14  42.474  20.831   7.204
    1AU     AUC   15  42.482  20.811   7.545
    1AU     AUC   16  42.440  20.798   7.899
    1AU     AUC   17  41.347  20.817   7.228
    1AU     AUC   18  41.346  20.876   7.556
    1AU     AUC   19  41.375  20.915   7.888
    1AU     AUC   20  41.593  21.401   7.474
    1AU     AUC   21  41.953  21.375   7.457
    1AU     AUC   22  42.319  21.363   7.487
    1AU     AUC   23  41.536  20.292   7.548
    1AU     AUC   24  41.887  20.268   7.529
    1AU     AUC   25  42.243  20.257   7.546
    1AU     AUC   26  41.872  20.509   8.101
    1AU     AUC   27  41.909  20.851   8.101
    1AU     AUC   28  41.966  21.215   8.062
    1AU     AUC   29  41.937  20.472   6.997
    1AU     AUC   30  41.885  20.813   6.973
    1AU     AUC   31  41.882  21.136   6.957
    1AU     AUC   32  42.154  20.613   8.012
    1AU     AUC   33  42.210  20.989   7.987
    1AU     AUC   34  42.209  20.675   7.072
    1AU     AUC   35  42.174  20.987   7.079
    1AU     AUC   36  41.620  20.733   8.000
    1AU     AUC   37  41.667  21.083   7.971
    1AU     AUC   38  41.631  20.632   7.103
    1AU     AUC   39  41.585  20.960   7.083
    1AU     AUC   40  42.412  21.103   7.346
    1AU     AUC   41  42.378  21.100   7.705
    1AU     AUC   42  41.453  21.115   7.383
    1AU     AUC   43  41.498  21.181   7.713
    1AU     AUC   44  42.375  20.552   7.407
    1AU     AUC   45  42.323  20.506   7.739
    1AU     AUC   46  41.454  20.529   7.373
    1AU     AUC   47  41.480  20.603   7.716
    1AU     AUC   48  41.818  21.333   7.782
    1AU     AUC   49  42.157  21.288   7.793
    1AU     AUC   50  41.705  20.400   7.817
    1AU     AUC   51  42.023  20.347   7.809
    1AU     AUC   52  41.728  21.266   7.215
    1AU     AUC   53  42.093  21.282   7.226
    1AU     AUC   54  41.759  20.368   7.258
    1AU     AUC   55  42.119  20.413   7.274
    1AU    AUSL   56  42.418  20.703   8.316
    1AU    AUSL   57  42.168  20.330   8.222
    1AU     AUL   58  42.475  20.331   8.389
    1AU    AUSL   59  42.003  20.645   8.460
    1AU    AUSL   60  41.765  21.054   8.451
    1AU     AUL   61  42.001  20.929   8.710
    1AU    AUSL   62  42.102  21.002   8.204
    1AU    AUSL   63  42.553  21.061   8.126
    1AU     AUL   64  42.371  21.026   8.435
    1AU    AUSL   65  42.326  20.863   6.840
    1AU    AUSL   66  42.187  21.259   6.981
    1AU     AUL   67  42.401  21.191   6.681
    1AU    AUSL   68  42.138  20.541   6.612
    1AU    AUSL   69  42.645  20.611   6.982
    1AU     AUL   70  42.513  20.685   6.665
    1AU    AUSL   71  41.970  21.045   6.670
    1AU    AUSL   72  41.792  20.659   6.829
    1AU     AUL   73  41.923  20.738   6.524
    1AU    AUSL   74  41.381  21.016   8.243
    1AU    AUSL   75  41.744  21.325   8.111
    1AU     AUL   76  41.581  21.293   8.412
    1AU    AUSL   77  41.682  20.703   8.191
    1AU    AUSL   78  41.233  20.626   8.105
    1AU     AUL   79  41.290  20.715   8.341
    1AU    AUSL   80  41.356  20.641   6.795
    1AU    AUSL   81  41.605  20.291   6.947
    1AU     AUL   82  41.629  20.377   6.641
    1AU    AUSL   83  41.542  21.009   6.675
    1AU    AUSL   84  41.262  20.990   7.050
    1AU     AUL   85  41.145  20.871   6.776
    1AU    AUSL   86  42.710  21.298   7.476
    1AU    AUSL   87  42.585  21.088   7.096
    1AU     AUL   88  42.880  21.293   7.128
    1AU    AUSL   89  42.875  20.902   7.367
    1AU    AUSL   90  42.824  20.604   7.768
    1AU     AUL   91  43.086  20.688   7.571
    1AU    AUSL   92  42.597  20.957   7.718
    1AU    AUSL   93  42.555  21.401   7.853
    1AU     AUL   94  42.803  21.141   7.878
    1AU    AUSL   95  41.344  21.478   7.522
    1AU    AUSL   96  41.381  21.230   7.878
    1AU     AUL   97  41.072  21.475   7.745
    1AU    AUSL   98  41.143  21.099   7.444
    1AU    AUSL   99  41.296  21.415   7.106
    1AU     AUL  100  41.060  21.340   7.263
    1AU    AUSL  101  41.016  21.021   7.888
    1AU    AUSL  102  40.983  20.715   7.349
    1AU     AUL  103  40.861  21.032   7.590
    1AU    AUSL  104  42.602  20.255   7.615
    1AU    AUSL  105  42.428  20.538   7.925
    1AU     AUL  106  42.735  20.444   8.001
    1AU    AUSL  107  42.560  20.625   7.397
    1AU    AUSL  108  42.550  20.223   7.188
    1AU     AUL  109  42.794  20.433   7.250
    1AU    AUSL  110  41.136  20.336   7.553
    1AU    AUSL  111  41.347  20.546   7.205
    1AU     AUL  112  40.997  20.439   7.213
    1AU    AUSL  113  41.253  20.737   7.694
    1AU    AUSL  114  41.443  20.353   7.849
    1AU     AUL  115  41.062  20.506   7.848
    1AU    AUSL  116  41.985  21.661   7.966
    1AU    AUSL  117  41.530  21.640   7.878
    1AU     AUL  118  41.752  21.685   8.194
    1AU    AUSL  119  41.817  21.516   7.591
    1AU    AUSL  120  42.068  21.649   7.247
    1AU     AUL  121  41.837  21.856   7.554
    1AU    AUSL  122  42.255  21.592   7.623
    1AU    AUSL  123  42.249  21.391   8.153
    1AU     AUL  124  42.368  21.681   7.941
    1AU    AUSL  125  41.843  20.195   7.970
    1AU    AUSL  126  42.267  20.136   7.849
    1AU     AUL  127  42.028  20.074   8.223
    1AU    AUSL  128  41.535  19.973   7.699
    1AU    AUSL  129  41.563  20.310   8.274
    1AU     AUL  130  41.571  20.012   8.050
    1AU    AUSL  131  41.967  19.898   7.667
    1AU    AUSL  132  41.760  20.143   7.362
    1AU     AUL  133  41.643  19.798   7.487
    1AU    AUSL  134  41.895  21.534   6.843
    1AU    AUSL  135  42.467  21.512   7.199
    1AU     AUL  136  42.211  21.622   6.936
    1AU    AUSL  137  41.646  21.628   7.210
    1AU    AUSL  138  41.669  21.217   7.014
    1AU     AUL  139  41.576  21.523   6.856
    1AU    AUSL  140  41.985  20.091   6.981
    1AU    AUSL  141  41.352  20.105   7.258
    1AU     AUL  142  41.648  19.957   7.043
    1AU    AUSL  143  42.192  20.115   7.381
    1AU    AUSL  144  42.215  20.448   7.018
    1AU     AUL  145  42.309  20.075   7.050
    1AU       S  146  42.440  19.880   8.227
    1AU     LIG  147  42.487  19.646   8.352
    1AU     LIG  148  42.609  19.486   8.479
    1AU     LIG  149  42.767  19.309   8.590
    1AU       S  150  42.474  20.670   8.719
    1AU     LIG  151  42.637  20.728   8.921
    1AU     LIG  152  42.727  20.784   9.146
    1AU     LIG  153  42.833  20.751   9.383
    1AU       S  154  42.152  20.477   8.725
    1AU     LIG  155  42.208  20.383   9.005
    1AU     LIG  156  42.374  20.399   9.203
    1AU     LIG  157  42.508  20.354   9.419
    1AU       S  158  41.527  20.967   8.757
    1AU     LIG  159  41.490  20.991   9.059
    1AU     LIG  160  41.372  20.976   9.261
    1AU     LIG  161  41.224  20.953   9.479
    1AU       S  162  42.052  21.401   8.566
    1AU     LIG  163  42.169  21.538   8.771
    1AU     LIG  164  42.382  21.458   8.933
    1AU     LIG  165  42.605  21.332   8.947
    1AU       S  166  42.744  21.293   8.334
    1AU     LIG  167  42.927  21.333   8.555
    1AU     LIG  168  43.067  21.490   8.669
    1AU     LIG  169  43.243  21.666   8.744
    1AU       S  170  42.345  20.922   6.306
    1AU     LIG  171  42.560  20.977   6.093
    1AU     LIG  172  42.694  20.811   5.955
    1AU     LIG  173  42.754  20.620   5.795
    1AU       S  174  42.560  21.622   6.652
    1AU     LIG  175  42.606  21.815   6.462
    1AU     LIG  176  42.769  21.905   6.288
    1AU     LIG  177  42.934  21.996   6.123
    1AU       S  178  42.820  20.333   6.768
    1AU     LIG  179  42.982  20.246   6.527
    1AU     LIG  180  42.996  20.027   6.388
    1AU     LIG  181  43.012  19.772   6.348
    1AU       S  182  42.266  20.627   6.240
    1AU     LIG  183  42.288  20.503   6.011
    1AU     LIG  184  42.275  20.430   5.771
    1AU     LIG  185  42.346  20.410   5.521
    1AU       S  186  41.532  20.687   6.303
    1AU     LIG  187  41.587  20.654   6.024
    1AU     LIG  188  41.593  20.600   5.795
    1AU     LIG  189  41.517  20.559   5.540
    1AU       S  190  42.102  21.068   6.264
    1AU     LIG  191  42.003  21.002   5.973
    1AU     LIG  192  42.145  20.927   5.780
    1AU     LIG  193  42.338  20.919   5.607
    1AU       S  194  41.251  21.055   8.643
    1AU     LIG  195  41.040  21.030   8.819
    1AU     LIG  196  40.986  20.814   8.977
    1AU     LIG  197  40.916  20.682   9.166
    1AU       S  198  41.282  21.613   8.268
    1AU     LIG  199  41.196  21.768   8.501
    1AU     LIG  200  41.055  21.779   8.694
    1AU     LIG  201  40.886  21.868   8.877
    1AU       S  202  41.005  20.347   8.284
    1AU     LIG  203  40.759  20.278   8.381
    1AU     LIG  204  40.614  20.086   8.457
    1AU     LIG  205  40.487  19.904   8.575
    1AU       S  206  41.576  20.675   8.684
    1AU     LIG  207  41.499  20.499   8.887
    1AU     LIG  208  41.386  20.479   9.105
    1AU     LIG  209  41.341  20.465   9.361
    1AU       S  210  41.270  20.599   6.418
    1AU     LIG  211  41.091  20.529   6.208
    1AU     LIG  212  41.080  20.600   5.957
    1AU     LIG  213  41.068  20.710   5.737
    1AU       S  214  41.304  20.051   6.745
    1AU     LIG  215  41.230  19.864   6.540
    1AU     LIG  216  41.072  19.822   6.354
    1AU     LIG  217  40.888  19.773   6.184
    1AU       S  218  40.934  21.277   6.798
    1AU     LIG  219  40.727  21.446   6.744
    1AU     LIG  220  40.675  21.645   6.588
    1AU     LIG  221  40.651  21.768   6.367
    1AU       S  222  41.432  20.955   6.393
    1AU     LIG  223  41.265  21.056   6.139
    1AU     LIG  224  41.348  21.093   5.913
    1AU     LIG  225  41.456  21.073   5.679
    1AU       S  226  42.791  21.436   6.708
    1AU     LIG  227  43.006  21.482   6.537
    1AU     LIG  228  43.163  21.594   6.389
    1AU     LIG  229  43.344  21.713   6.245
    1AU       S  230  43.043  21.412   7.556
    1AU     LIG  231  43.256  21.616   7.540
    1AU     LIG  232  43.500  21.660   7.511
    1AU     LIG  233  43.753  21.723   7.532
    1AU       S  234  43.219  21.113   7.388
    1AU     LIG  235  43.488  21.184   7.293
    1AU     LIG  236  43.728  21.250   7.306
    1AU     LIG  237  43.950  21.364   7.226
    1AU       S  238  43.083  20.234   7.790
    1AU     LIG  239  43.318  20.132   7.920
    1AU     LIG  240  43.571  20.127   7.859
    1AU     LIG  241  43.820  20.095   7.780
    1AU       S  242  42.780  21.541   8.127
    1AU     LIG  243  42.975  21.718   8.210
    1AU     LIG  244  43.020  21.917   8.357
    1AU     LIG  245  43.039  22.096   8.540
    1AU       S  246  43.190  21.145   7.663
    1AU     LIG  247  43.428  21.216   7.814
    1AU     LIG  248  43.665  21.283   7.811
    1AU     LIG  249  43.895  21.373   7.878
    1AU       S  250  41.116  21.390   8.203
    1AU     LIG  251  40.877  21.382   8.380
    1AU     LIG  252  40.691  21.521   8.444
    1AU     LIG  253  40.515  21.640   8.594
    1AU       S  254  41.283  21.814   7.463
    1AU     LIG  255  41.123  22.022   7.335
    1AU     LIG  256  40.877  22.002   7.239
    1AU     LIG  257  40.689  21.845   7.123
    1AU       S  258  40.719  21.033   7.139
    1AU     LIG  259  40.481  21.038   7.071
    1AU     LIG  260  40.226  21.114   7.141
    1AU     LIG  261  40.081  21.327   7.163
    1AU       S  262  41.149  21.687   6.929
    1AU     LIG  263  41.076  21.895   6.787
    1AU     LIG  264  40.934  22.074   6.702
    1AU     LIG  265  40.803  22.229   6.537
    1AU       S  266  40.630  20.629   7.449
    1AU     LIG  267  40.353  20.619   7.337
    1AU     LIG  268  40.110  20.601   7.332
    1AU     LIG  269  39.876  20.480   7.284
    1AU       S  270  40.821  20.948   8.097
    1AU     LIG  271  40.508  21.052   8.182
    1AU     LIG  272  40.391  21.264   8.094
    1AU     LIG  273  40.211  21.411   7.968
    1AU       S  274  42.813  20.064   7.606
    1AU     LIG  275  42.947  19.762   7.622
    1AU     LIG  276  43.175  19.696   7.697
    1AU     LIG  277  43.446  19.682   7.655
    1AU       S  278  42.657  20.003   8.066
    1AU     LIG  279  42.904  19.867   8.105
    1AU     LIG  280  43.034  19.779   8.287
    1AU     LIG  281  43.081  19.709   8.537
    1AU       S  282  43.070  20.214   7.519
    1AU     LIG  283  43.293  20.092   7.383
    1AU     LIG  284  43.534  20.093   7.343
    1AU     LIG  285  43.775  20.021   7.280
    1AU       S  286  42.762  20.071   6.925
    1AU     LIG  287  42.827  19.811   6.822
    1AU     LIG  288  42.700  19.588   6.774
    1AU     LIG  289  42.659  19.369   6.659
    1AU       S  290  41.127  20.246   6.817
    1AU     LIG  291  40.894  20.256   6.620
    1AU     LIG  292  40.717  20.139   6.527
    1AU     LIG  293  40.511  19.981   6.465
    1AU       S  294  40.712  20.338   7.583
    1AU     LIG  295  40.495  20.172   7.588
    1AU     LIG  296  40.268  20.124   7.482
    1AU     LIG  297  40.035  20.020   7.441
    1AU       S  298  41.124  20.117   8.082
    1AU     LIG  299  40.948  19.909   8.068
    1AU     LIG  300  40.828  19.723   8.174
    1AU     LIG  301  40.695  19.537   8.287
    1AU       S  302  40.654  20.633   7.713
    1AU     LIG  303  40.420  20.605   7.888
    1AU     LIG  304  40.181  20.513   7.835
    1AU     LIG  305  39.972  20.378   7.809
    1AU       S  306  41.323  21.832   7.989
    1AU     LIG  307  41.088  22.021   8.062
    1AU     LIG  308  40.863  21.984   8.206
    1AU     LIG  309  40.731  22.061   8.412
    1AU       S  310  42.066  22.018   8.053
    1AU     LIG  311  42.177  22.205   8.255
    1AU     LIG  312  42.065  22.395   8.380
    1AU     LIG  313  41.920  22.596   8.444
    1AU       S  314  41.828  22.153   7.925
    1AU     LIG  315  41.739  22.378   7.968
    1AU     LIG  316  41.713  22.637   7.984
    1AU     LIG  317  41.722  22.888   8.012
    1AU       S  318  41.993  21.996   7.131
    1AU     LIG  319  42.059  22.265   7.146
    1AU     LIG  320  42.093  22.497   7.130
    1AU     LIG  321  42.156  22.740   7.042
    1AU       S  322  42.503  21.508   8.364
    1AU     LIG  323  42.578  21.727   8.543
    1AU     LIG  324  42.679  21.808   8.736
    1AU     LIG  325  42.805  21.826   8.967
    1AU       S  326  42.205  22.069   7.734
    1AU     LIG  327  42.237  22.342   7.718
    1AU     LIG  328  42.212  22.552   7.875
    1AU     LIG  329  42.224  22.736   8.040
    1AU       S  330  41.926  19.659   8.062
    1AU     LIG  331  42.045  19.453   8.213
    1AU     LIG  332  42.033  19.246   8.334
    1AU     LIG  333  42.014  19.009   8.434
    1AU       S  334  42.409  19.892   7.902
    1AU     LIG  335  42.513  19.588   7.827
    1AU     LIG  336  42.673  19.454   7.925
    1AU     LIG  337  42.885  19.354   8.057
    1AU       S  338  41.674  19.573   7.896
    1AU     LIG  339  41.625  19.306   7.918
    1AU     LIG  340  41.647  19.088   8.033
    1AU     LIG  341  41.637  18.850   8.129
    1AU       S  342  41.268  20.199   8.386
    1AU     LIG  343  41.141  19.981   8.570
    1AU     LIG  344  41.004  19.807   8.640
    1AU     LIG  345  40.867  19.613   8.762
    1AU       S  346  41.992  19.669   7.221
    1AU     LIG  347  41.931  19.341   7.210
    1AU     LIG  348  41.916  19.145   7.090
    1AU     LIG  349  41.916  18.878   7.027
    1AU       S  350  42.006  19.622   7.758
    1AU     LIG  351  42.106  19.320   7.712
    1AU     LIG  352  42.119  19.123   7.838
    1AU     LIG  353  42.113  18.877   7.941
    1AU       S  354  41.845  21.916   6.835
    1AU     LIG  355  41.851  22.145   6.681
    1AU     LIG  356  41.974  22.361   6.641
    1AU     LIG  357  42.040  22.595   6.564
    1AU       S  358  42.684  21.692   6.958
    1AU     LIG  359  42.882  21.896   6.901
    1AU     LIG  360  43.041  21.970   6.721
    1AU     LIG  361  43.189  22.092   6.558
    1AU       S  362  41.642  21.937   7.112
    1AU     LIG  363  41.530  22.215   7.085
    1AU     LIG  364  41.587  22.441   6.998
    1AU     LIG  365  41.661  22.666   6.907
    1AU       S  366  41.204  21.347   6.654
    1AU     LIG  367  41.144  21.482   6.415
    1AU     LIG  368  41.154  21.712   6.319
    1AU     LIG  369  41.127  21.951   6.239
    1AU       S  370  41.149  20.015   7.029
    1AU     LIG  371  40.892  19.842   6.950
    1AU     LIG  372  40.805  19.700   6.784
    1AU     LIG  373  40.719  19.527   6.606
    1AU       S  374  42.062  19.708   6.941
    1AU     LIG  375  42.179  19.529   6.769
    1AU     LIG  376  42.152  19.319   6.646
    1AU     LIG  377  42.076  19.081   6.582
    1AU       S  378  42.255  19.709   7.324
    1AU     LIG  379  42.419  19.468   7.293
    1AU     LIG  380  42.426  19.262   7.128
    1AU     LIG  381  42.411  19.045   6.984
    1AU       S  382  42.516  20.218   6.673
    1AU     LIG  383  42.502  20.040   6.470
    1AU     LIG  384  42.492  19.812   6.376
    1AU     LIG  385  42.543  19.609   6.221
    2AU     AUC  386  29.288  39.985   7.535
    2AU     AUC  387  29.540  39.990   7.369
    2AU     AUC  388  29.529  39.977   7.699
    2AU     AUC  389  29.018  39.993   7.380
    2AU     AUC  390  29.044  40.022   7.705
    2AU     AUC  391  29.127  40.238   7.513
    2AU     AUC  392  29.474  40.250   7.516
    2AU     AUC  393  29.109  39.731   7.543
    2AU     AUC  394  29.440  39.709   7.545
    2AU     AUC  395  29.282  39.825   7.798
    2AU     AUC  396  29.301  40.165   7.779
    2AU     AUC  397  29.275  39.812   7.287
    2AU     AUC  398  29.295  40.118   7.271
    2AU     AUC  399  29.843  39.981   7.204
    2AU     AUC  400  29.851  39.961   7.545
    2AU     AUC  401  29.809  39.948   7.899
    2AU     AUC  402  28.716  39.967   7.228
    2AU     AUC  403  28.715  40.026   7.556
    2AU     AUC  404  28.744  40.065   7.888
    2AU     AUC  405  28.962  40.551   7.474
    2AU     AUC  406  29.322  40.525   7.457
    2AU     AUC  407  29.688  40.513   7.487
    2AU     AUC  408  28.905  39.442   7.548
    2AU     AUC  409  29.256  39.418   7.529
    2AU     AUC  410  29.612  39.407   7.546
    2AU     AUC  411  29.241  39.659   8.101
    2AU     AUC  412  29.278  40.001   8.101
    2AU     AUC  413  29.335  40.365   8.062
    2AU     AUC  414  29.306  39.622   6.997
    2AU     AUC  415  29.254  39.963   6.973
    2AU     AUC  416  29.251  40.286   6.957
    2AU     AUC  417  29.523  39.763   8.012
    2AU     AUC  418  29.579  40.139   7.987
    2AU     AUC  419  29.578  39.825   7.072
    2AU     AUC  420  29.543  40.137   7.079
    2AU     AUC  421  28.989  39.883   8.000
    2AU     AUC  422  29.036  40.233   7.971
    2AU     AUC  423  29.000  39.782   7.103
    2AU     AUC  424  28.954  40.110   7.083
    2AU     AUC  425  29.781  40.253   7.346
    2AU     AUC  426  29.747  40.250   7.705
    2AU     AUC  427  28.822  40.265   7.383
    2AU     AUC  428  28.867  40.331   7.713
    2AU     AUC  429  29.744  39.702   7.407
    2AU     AUC  430  29.692  39.656   7.739
    2AU     AUC  431  28.823  39.679   7.373
    2AU     AUC  432  28.849  39.753   7.716
    2AU     AUC  433  29.187  40.483   7.782
    2AU     AUC  434  29.526  40.438   7.793
    2AU     AUC  435  29.074  39.550   7.817
    2AU     AUC  436  29.392  39.497   7.809
    2AU     AUC  437  29.097  40.416   7.215
    2AU     AUC  438  29.462  40.432   7.226
    2AU     AUC  439  29.128  39.518   7.258
    2AU     AUC  440  29.488  39.563   7.274
    2AU    AUSL  441  29.787  39.853   8.316
    2AU    AUSL  442  29.537  39.480   8.222
    2AU     AUL  443  29.844  39.481   8.389
    2AU    AUSL  444  29.372  39.795   8.460
    2AU    AUSL  445  29.134  40.204   8.451
    2AU     AUL  446  29.370  40.079   8.710
    2AU    AUSL  447  29.471  40.152   8.204
    2AU    AUSL  448  29.922  40.211   8.126
    2AU     AUL  449  29.740  40.176   8.435
    2AU    AUSL  450  29.695  40.013   6.840
    2AU    AUSL  451  29.556  40.409   6.981
    2AU     AUL  452  29.770  40.341   6.681
    2AU    AUSL  453  29.507  39.691   6.612
    2AU    AUSL  454  30.014  39.761   6.982
    2AU     AUL  455  29.882  39.835   6.665
    2AU    AUSL  456  29.339  40.195   6.670
    2AU    AUSL  457  29.161  39.809   6.829
    2AU     AUL  458  29.292  39.888   6.524
    2AU    AUSL  459  28.750  40.166   8.243
    2AU    AUSL  460  29.113  40.475   8.111
    2AU     AUL  461  28.950  40.443   8.412
    2AU    AUSL  462  29.051  39.853   8.191
    2AU    AUSL  463  28.602  39.776   8.105
    2AU     AUL  464  28.659  39.865   8.341
    2AU    AUSL  465  28.725  39.791   6.795
    2AU    AUSL  466  28.974  39.441   6.947
    2AU     AUL  467  28.998  39.527   6.641
    2AU    AUSL  468  28.911  40.159   6.675
    2AU    AUSL  469  28.631  40.140   7.050
    2AU     AUL  470  28.514  40.021   6.776
    2AU    AUSL  471  30.079  40.448   7.476
    2AU    AUSL  472  29.954  40.238   7.096
    2AU     AUL  473  30.249  40.443   7.128
    2AU    AUSL  474  30.244  40.052   7.367
    2AU    AUSL  475  30.193  39.754   7.768
    2AU     AUL  476  30.455  39.838   7.571
    2AU    AUSL  477  29.966  40.107   7.718
    2AU    AUSL  478  29.924  40.551   7.853
    2AU     AUL  479  30.172  40.291   7.878
    2AU    AUSL  480  28.713  40.628   7.522
    2AU    AUSL  481  28.750  40.380   7.878
    2AU     AUL  482  28.441  40.625   7.745
    2AU    AUSL  483  28.512  40.249   7.444
    2AU    AUSL  484  28.665  40.565   7.106
    2AU     AUL  485  28.429  40.490   7.263
    2AU    AUSL  486  28.385  40.171   7.888
    2AU    AUSL  487  28.352  39.865   7.349
    2AU     AUL  488  28.230  40.182   7.590
    2AU    AUSL  489  29.971  39.405   7.615
    2AU    AUSL  490  29.797  39.688   7.925
    2AU     AUL  491  30.104  39.594   8.001
    2AU    AUSL  492  29.929  39.775   7.397
    2AU    AUSL  493  29.919  39.373   7.188
    2AU     AUL  494  30.163  39.583   7.250
    2AU    AUSL  495  28.505  39.486   7.553
    2AU    AUSL  496  28.716  39.696   7.205
    2AU     AUL  497  28.366  39.589   7.213
    2AU    AUSL  498  28.622  39.887   7.694
    2AU    AUSL  499  28.812  39.503   7.849
    2AU     AUL  500  28.431  39.656   7.848
    2AU    AUSL  501  29.354  40.811   7.966
    2AU    AUSL  502  28.899  40.790   7.878
    2AU     AUL  503  29.121  40.835   8.194
    2AU    AUSL  504  29.186  40.666   7.591
    2AU    AUSL  505  29.437  40.799   7.247
    2AU     AUL  506  29.206  41.006   7.554
    2AU    AUSL  507  29.624  40.742   7.623
    2AU    AUSL  508  29.618  40.541   8.153
    2AU     AUL  509  29.737  40.831   7.941
    2AU    AUSL  510  29.212  39.345   7.970
    2AU    AUSL  511  29.636  39.286   7.849
    2AU     AUL  512  29.397  39.224   8.223
    2AU    AUSL  513  28.904  39.123   7.699
    2AU    AUSL  514  28.932  39.460   8.274
    2AU     AUL  515  28.940  39.162   8.050
    2AU    AUSL  516  29.336  39.048   7.667
    2AU    AUSL  517  29.129  39.293   7.362
    2AU     AUL  518  29.012  38.948   7.487
    2AU    AUSL  519  29.264  40.684   6.843
    2AU    AUSL  520  29.836  40.662   7.199
    2AU     AUL  521  29.580  40.772   6.936
    2AU    AUSL  522  29.015  40.778   7.210
    2AU    AUSL  523  29.038  40.367   7.014
    2AU     AUL  524  28.945  40.673   6.856
    2AU    AUSL  525  29.354  39.241   6.981
    2AU    AUSL  526  28.721  39.255   7.258
    2AU     AUL  527  29.017  39.107   7.043
    2AU    AUSL  528  29.561  39.265   7.381
    2AU    AUSL  529  29.584  39.598   7.018
    2AU     AUL  530  29.678  39.225   7.050
    2AU       S  531  29.809  39.030   8.227
    2AU     LIG  532  29.856  38.796   8.352
    2AU     LIG  533  29.978  38.636   8.479
    2AU     LIG  534  30.136  38.459   8.590
    2AU       S  535  29.843  39.820   8.719
    2AU     LIG  536  30.006  39.878   8.921
    2AU     LIG  537  30.096  39.934   9.146
    2AU     LIG  538  30.202  39.901   9.383
    2AU       S  539  29.521  39.627   8.725
    2AU     LIG  540  29.577  39.533   9.005
    2AU     LIG  541  29.743  39.549   9.203
    2AU     LIG  542  29.877  39.504   9.419
    2AU       S  543  28.896  40.117   8.757
    2AU     LIG  544  28.859  40.141   9.059
    2AU     LIG  545  28.741  40.126   9.261
    2AU     LIG  546  28.593  40.103   9.479
    2AU       S  547  29.421  40.551   8.566
    2AU     LIG  548  29.538  40.688   8.771
    2AU     LIG  549  29.751  40.608   8.933
    2AU     LIG  550  29.974  40.482   8.947
    2AU       S  551  30.113  40.443   8.334
    2AU     LIG  552  30.296  40.483   8.555
    2AU     LIG  553  30.436  40.640   8.669
    2AU     LIG  554  30.612  40.816   8.744
    2AU       S  555  29.714  40.072   6.306
    2AU     LIG  556  29.929  40.127   6.093
    2AU     LIG  557  30.063  39.961   5.955
    2AU     LIG  558  30.123  39.770   5.795
    2AU       S  559  29.929  40.772   6.652
    2AU     LIG  560  29.975  40.965   6.462
    2AU     LIG  561  30.138  41.055   6.288
    2AU     LIG  562  30.303  41.146   6.123
    2AU       S  563  30.189  39.483   6.768
    2AU     LIG  564  30.351  39.396   6.527
    2AU     LIG  565  30.365  39.177   6.388
    2AU     LIG  566  30.381  38.922   6.348
    2AU       S  567  29.635  39.777   6.240
    2AU     LIG  568  29.657  39.653   6.011
    2AU     LIG  569  29.644  39.580   5.771
    2AU     LIG  570  29.715  39.560   5.521
    2AU       S  571  28.901  39.837   6.303
    2AU     LIG  572  28.956  39.804   6.024
    2AU     LIG  573  28.962  39.750   5.795
    2AU     LIG  574  28.886  39.709   5.540
    2AU       S  575  29.471  40.218   6.264
    2AU     LIG  576  29.372  40.152   5.973
    2AU     LIG  577  29.514  40.077   5.780
    2AU     LIG  578  29.707  40.069   5.607
    2AU       S  579  28.620  40.205   8.643
    2AU     LIG  580  28.409  40.180   8.819
    2AU     LIG  581  28.355  39.964   8.977
    2AU     LIG  582  28.285  39.832   9.166
    2AU       S  583  28.651  40.763   8.268
    2AU     LIG  584  28.565  40.918   8.501
    2AU     LIG  585  28.424  40.929   8.694
    2AU     LIG  586  28.255  41.018   8.877
    2AU       S  587  28.374  39.497   8.284
    2AU     LIG  588  28.128  39.428   8.381
    2AU     LIG  589  27.983  39.236   8.457
    2AU     LIG  590  27.856  39.054   8.575
    2AU       S  591  28.945  39.825   8.684
    2AU     LIG  592  28.868  39.649   8.887
    2AU     LIG  593  28.755  39.629   9.105
    2AU     LIG  594  28.710  39.615   9.361
    2AU       S  595  28.639  39.749   6.418
    2AU     LIG  596  28.460  39.679   6.208
    2AU     LIG  597  28.449  39.750   5.957
    2AU     LIG  598  28.437  39.860   5.737
    2AU       S  599  28.673  39.201   6.745
    2AU     LIG  600  28.599  39.014   6.540
    2AU     LIG  601  28.441  38.972   6.354
    2AU     LIG  602  28.257  38.923   6.184
    2AU       S  603  28.303  40.427   6.798
    2AU     LIG  604  28.096  40.596   6.744
    2AU     LIG  605  28.044  40.795   6.588
    2AU     LIG  606  28.020  40.918   6.367
    2AU       S  607  28.801  40.105   6.393
    2AU     LIG  608  28.634  40.206   6.139
    2AU     LIG  609  28.717  40.243   5.913
    2AU     LIG  610  28.825  40.223   5.679
    2AU       S  611  30.160  40.586   6.708
    2AU     LIG  612  30.375  40.632   6.537
    2AU     LIG  613  30.532  40.744   6.389
    2AU     LIG  614  30.713  40.863   6.245
    2AU       S  615  30.412  40.562   7.556
    2AU     LIG  616  30.625  40.766   7.540
    2AU     LIG  617  30.869  40.810   7.511
    2AU     LIG  618  31.122  40.873   7.532
    2AU       S  619  30.588  40.263   7.388
    2AU     LIG  620  30.857  40.334   7.293
    2AU     LIG  621  31.097  40.400   7.306
    2AU     LIG  622  31.319  40.514   7.226
    2AU       S  623  30.452  39.384   7.790
    2AU     LIG  624  30.687  39.282   7.920
    2AU     LIG  625  30.940  39.277   7.859
    2AU     LIG  626  31.189  39.245   7.780
    2AU       S  627  30.149  40.691   8.127
    2AU     LIG  628  30.344  40.868   8.210
    2AU     LIG  629  30.389  41.067   8.357
    2AU     LIG  630  30.408  41.246   8.540
    2AU       S  631  30.559  40.295   7.663
    2AU     LIG  632  30.797  40.366   7.814
    2AU     LIG  633  31.034  40.433   7.811
    2AU     LIG  634  31.264  40.523   7.878
    2AU       S  635  28.485  40.540   8.203
    2AU     LIG  636  28.246  40.532   8.380
    2AU     LIG  637  28.060  40.671   8.444
    2AU     LIG  638  27.884  40.790   8.594
    2AU       S  639  28.652  40.964   7.463
    2AU     LIG  640  28.492  41.172   7.335
    2AU     LIG  641  28.246  41.152   7.239
    2AU     LIG  642  28.058  40.995   7.123
    2AU       S  643  28.088  40.183   7.139
    2AU     LIG  644  27.850  40.188   7.071
    2AU     LIG  645  27.595  40.264   7.141
    2AU     LIG  646  27.450  40.477   7.163
    2AU       S  647  28.518  40.837   6.929
    2AU     LIG  648  28.445  41.045   6.787
    2AU     LIG  649  28.303  41.224   6.702
    2AU     LIG  650  28.172  41.379   6.537
    2AU       S  651  27.999  39.779   7.449
    2AU     LIG  652  27.722  39.769   7.337
    2AU     LIG  653  27.479  39.751   7.332
    2AU     LIG  654  27.245  39.630   7.284
    2AU       S  655  28.190  40.098   8.097
    2AU     LIG  656  27.877  40.202   8.182
    2AU     LIG  657  27.760  40.414   8.094
    2AU     LIG  658  27.580  40.561   7.968
    2AU       S  659  30.182  39.214   7.606
    2AU     LIG  660  30.316  38.912   7.622
    2AU     LIG  661  30.544  38.846   7.697
    2AU     LIG  662  30.815  38.832   7.655
    2AU       S  663  30.026  39.153   8.066
    2AU     LIG  664  30.273  39.017   8.105
    2AU     LIG  665  30.403  38.929   8.287
    2AU     LIG  666  30.450  38.859   8.537
    2AU       S  667  30.439  39.364   7.519
    2AU     LIG  668  30.662  39.242   7.383
    2AU     LIG  669  30.903  39.243   7.343
    2AU     LIG  670  31.144  39.171   7.280
    2AU       S  671  30.131  39.221   6.925
    2AU     LIG  672  30.196  38.961   6.822
    2AU     LIG  673  30.069  38.738   6.774
    2AU     LIG  674  30.028  38.519   6.659
    2AU       S  675  28.496  39.396   6.817
    2AU     LIG  676  28.263  39.406   6.620
    2AU     LIG  677  28.086  39.289   6.527
    2AU     LIG  678  27.880  39.131   6.465
    2AU       S  679  28.081  39.488   7.583
    2AU     LIG  680  27.864  39.322   7.588
    2AU     LIG  681  27.637  39.274   7.482
    2AU     LIG  682  27.404  39.170   7.441
    2AU       S  683  28.493  39.267   8.082
    2AU     LIG  684  28.317  39.059   8.068
    2AU     LIG  685  28.197  38.873   8.174
    2AU     LIG  686  28.064  38.687   8.287
    2AU       S  687  28.023  39.783   7.713
    2AU     LIG  688  27.789  39.755   7.888
    2AU     LIG  689  27.550  39.663   7.835
    2AU     LIG  690  27.341  39.528   7.809
    2AU       S  691  28.692  40.982   7.989
    2AU     LIG  692  28.457  41.171   8.062
    2AU     LIG  693  28.232  41.134   8.206
    2AU     LIG  694  28.100  41.211   8.412
    2AU       S  695  29.435  41.168   8.053
    2AU     LIG  696  29.546  41.355   8.255
    2AU     LIG  697  29.434  41.545   8.380
    2AU     LIG  698  29.289  41.746   8.444
    2AU       S  699  29.197  41.303   7.925
    2AU     LIG  700  29.108  41.528   7.968
    2AU     LIG  701  29.082  41.787   7.984
    2AU     LIG  702  29.091  42.038   8.012
    2AU       S  703  29.362  41.146   7.131
    2AU     LIG  704  29.428  41.415   7.146
    2AU     LIG  705  29.462  41.647   7.130
    2AU     LIG  706  29.525  41.890   7.042
    2AU       S  707  29.872  40.658   8.364
    2AU     LIG  708  29.947  40.877   8.543
    2AU     LIG  709  30.048  40.958   8.736
    2AU     LIG  710  30.174  40.976   8.967
    2AU       S  711  29.574  41.219   7.734
    2AU     LIG  712  29.606  41.492   7.718
    2AU     LIG  713  29.581  41.702   7.875
    2AU     LIG  714  29.593  41.886   8.040
    2AU       S  715  29.295  38.809   8.062
    2AU     LIG  716  29.414  38.603   8.213
    2AU     LIG  717  29.402  38.396   8.334
    2AU     LIG  718  29.383  38.159   8.434
    2AU       S  719  29.778  39.042   7.902
    2AU     LIG  720  29.882  38.738   7.827
    2AU     LIG  721  30.042  38.604   7.925
    2AU     LIG  722  30.254  38.504   8.057
    2AU       S  723  29.043  38.723   7.896
    2AU     LIG  724  28.994  38.456   7.918
    2AU     LIG  725  29.016  38.238   8.033
    2AU     LIG  726  29.006  38.000   8.129
    2AU       S  727  28.637  39.349   8.386
    2AU     LIG  728  28.510  39.131   8.570
    2AU     LIG  729  28.373  38.957   8.640
    2AU     LIG  730  28.236  38.763   8.762
    2AU       S  731  29.361  38.819   7.221
    2AU     LIG  732  29.300  38.491   7.210
    2AU     LIG  733  29.285  38.295   7.090
    2AU     LIG  734  29.285  38.028   7.027
    2AU       S  735  29.375  38.772   7.758
    2AU     LIG  736  29.475  38.470   7.712
    2AU     LIG  737  29.488  38.273   7.838
    2AU     LIG  738  29.482  38.027   7.941
    2AU       S  739  29.214  41.066   6.835
    2AU     LIG  740  29.220  41.295   6.681
    2AU     LIG  741  29.343  41.511   6.641
    2AU     LIG  742  29.409  41.745   6.564
    2AU       S  743  30.053  40.842   6.958
    2AU     LIG  744  30.251  41.046   6.901
    2AU     LIG  745  30.410  41.120   6.721
    2AU     LIG  746  30.558  41.242   6.558
    2AU       S  747  29.011  41.087   7.112
    2AU     LIG  748  28.899  41.365   7.085
    2AU     LIG  749  28.956  41.591   6.998
    2AU     LIG  750  29.030  41.816   6.907
    2AU       S  751  28.573  40.497   6.654
    2AU     LIG  752  28.513  40.632   6.415
    2AU     LIG  753  28.523  40.862   6.319
    2AU     LIG  754  28.496  41.101   6.239
    2AU       S  755  28.518  39.165   7.029
    2AU     LIG  756  28.261  38.992   6.950
    2AU     LIG  757  28.174  38.850   6.784
    2AU     LIG  758  28.088  38.677   6.606
    2AU       S  759  29.431  38.858   6.941
    2AU     LIG  760  29.548  38.679   6.769
    2AU     LIG  761  29.521  38.469   6.646
    2AU     LIG  762  29.445  38.231   6.582
    2AU       S  763  29.624  38.859   7.324
    2AU     LIG  764  29.788  38.618   7.293
    2AU     LIG  765  29.795  38.412   7.128
    2AU     LIG  766  29.780  38.195   6.984
    2AU       S  767  29.885  39.368   6.673
    2AU     LIG  768  29.871  39.190   6.470
    2AU     LIG  769  29.861  38.962   6.376
    2AU     LIG  770  29.912  38.759   6.221
    3AU     AUC  771  16.044  33.432   7.535
    3AU     AUC  772  16.296  33.437   7.369
    3AU     AUC  773  16.285  33.424   7.699
    3AU     AUC  774  15.774  33.440   7.380
    3AU     AUC  775  15.800  33.469   7.705
    3AU     AUC  776  15.883  33.685   7.513
    3AU     AUC  777  16.230  33.697   7.516
    3AU     AUC  778  15.865  33.178   7.543
    3AU     AUC  779  16.196  33.156   7.545
    3AU     AUC  780  16.038  33.272   7.798
    3AU     AUC  781  16.057  33.612   7.779
    3AU     AUC  782  16.031  33.259   7.287
    3AU     AUC  783  16.051  33.565   7.271
    3AU     AUC  784  16.599  33.428   7.204
    3AU     AUC  785  16.607  33.408   7.545
    3AU     AUC  786  16.565  33.395   7.899
    3AU     AUC  787  15.472  33.414   7.228
    3AU     AUC  788  15.471  33.473   7.556
    3AU     AUC  789  15.500  33.512   7.888
    3AU     AUC  790  15.718  33.998   7.474
    3AU     AUC  791  16.078  33.972   7.457
    3AU     AUC  792  16.444  33.960   7.487
    3AU     AUC  793  15.661  32.889   7.548
    3AU     AUC  794  16.012  32.865   7.529
    3AU     AUC  795  16.368  32.854   7.546
    3AU     AUC  796  15.997  33.106   8.101
    3AU     AUC  797  16.034  33.448   8.101
    3AU     AUC  798  16.091  33.812   8.062
    3AU     AUC  799  16.062  33.069   6.997
    3AU     AUC  800  16.010  33.410   6.973
    3AU     AUC  801  16.007  33.733   6.957
    3AU     AUC  802  16.279  33.210   8.012
    3AU     AUC  803  16.335  33.586   7.987
    3AU     AUC  804  16.334  33.272   7.072
    3AU     AUC  805  16.299  33.584   7.079
    3AU     AUC  806  15.745  33.330   8.000
    3AU     AUC  807  15.792  33.680   7.971
    3AU     AUC  808  15.756  33.229   7.103
    3AU     AUC  809  15.710  33.557   7.083
    3AU     AUC  810  16.537  33.700   7.346
    3AU     AUC  811  16.503  33.697   7.705
    3AU     AUC  812  15.578  33.712   7.383
    3AU     AUC  813  15.623  33.778   7.713
    3AU     AUC  814  16.500  33.149   7.407
    3AU     AUC  815  16.448  33.103   7.739
    3AU     AUC  816  15.579  33.126   7.373
    3AU     AUC  817  15.605  33.200   7.716
    3AU     AUC  818  15.943  33.930   7.782
    3AU     AUC  819  16.282  33.885   7.793
    3AU     AUC  820  15.830  32.997   7.817
    3AU     AUC  821  16.148  32.944   7.809
    3AU     AUC  822  15.853  33.863   7.215
    3AU     AUC  823  16.218  33.879   7.226
    3AU     AUC  824  15.884  32.965   7.258
    3AU     AUC  825  16.244  33.010   7.274
    3AU    AUSL  826  16.543  33.300   8.316
    3AU    AUSL  827  16.293  32.927   8.222
    3AU     AUL  828  16.600  32.928   8.389
    3AU    AUSL  829  16.128  33.242   8.460
    3AU    AUSL  830  15.890  33.651   8.451
    3AU     AUL  831  16.126  33.526   8.710
    3AU    AUSL  832  16.227  33.599   8.204
    3AU    AUSL  833  16.678  33.658   8.126
    3AU     AUL  834  16.496  33.623   8.435
    3AU    AUSL  835  16.451  33.460   6.840
    3AU    AUSL  836  16.312  33.856   6.981
    3AU     AUL  837  16.526  33.788   6.681
    3AU    AUSL  838  16.263  33.138   6.612
    3AU    AUSL  839  16.770  33.208   6.982
    3AU     AUL  840  16.638  33.282   6.665
    3AU    AUSL  841  16.095  33.642   6.670
    3AU    AUSL  842  15.917  33.256   6.829
    3AU     AUL  843  16.048  33.335   6.524
    3AU    AUSL  844  15.506  33.613   8.243
    3AU    AUSL  845  15.869  33.922   8.111
    3AU     AUL  846  15.706  33.890   8.412
    3AU    AUSL  847  15.807  33.300   8.191
    3AU    AUSL  848  15.358  33.223   8.105
    3AU     AUL  849  15.415  33.312   8.341
    3AU    AUSL  850  15.481  33.238   6.795
    3AU    AUSL  851  15.730  32.888   6.947
    3AU     AUL  852  15.754  32.974   6.641
    3AU    AUSL  853  15.667  33.606   6.675
    3AU    AUSL  854  15.387  33.587   7.050
    3AU     AUL  855  15.270  33.468   6.776
    3AU    AUSL  856  16.835  33.895   7.476
    3AU    AUSL  857  16.710  33.685   7.096
    3AU     AUL  858  17.005  33.890   7.128
    3AU    AUSL  859  17.000  33.499   7.367
    3AU    AUSL  860  16.949  33.201   7.768
    3AU     AUL  861  17.211  33.285   7.571
    3AU    AUSL  862  16.722  33.554   7.718
    3AU    AUSL  863  16.680  33.998   7.853
    3AU     AUL  864  16.928  33.738   7.878
    3AU    AUSL  865  15.469  34.075   7.522
    3AU    AUSL  866  15.506  33.827   7.878
    3AU     AUL  867  15.197  34.072   7.745
    3AU    AUSL  868  15.268  33.696   7.444
    3AU    AUSL  869  15.421  34.012   7.106
    3AU     AUL  870  15.185  33.937   7.263
    3AU    AUSL  871  15.141  33.618   7.888
    3AU    AUSL  872  15.108  33.312   7.349
    3AU     AUL  873  14.986  33.629   7.590
    3AU    AUSL  874  16.727  32.852   7.615
    3AU    AUSL  875  16.553  33.135   7.925
    3AU     AUL  876  16.860  33.041   8.001
    3AU    AUSL  877  16.685  33.222   7.397
    3AU    AUSL  878  16.675  32.820   7.188
    3AU     AUL  879  16.919  33.030   7.250
    3AU    AUSL  880  15.261  32.933   7.553
    3AU    AUSL  881  15.472  33.143   7.205
    3AU     AUL  882  15.122  33.036   7.213
    3AU    AUSL  883  15.378  33.334   7.694
    3AU    AUSL  884  15.568  32.950   7.849
    3AU     AUL  885  15.187  33.103   7.848
    3AU    AUSL  886  16.110  34.258   7.966
    3AU    AUSL  887  15.655  34.237   7.878
    3AU     AUL  888  15.877  34.282   8.194
    3AU    AUSL  889  15.942  34.113   7.591
    3AU    AUSL  890  16.193  34.246   7.247
    3AU     AUL  891  15.962  34.453   7.554
    3AU    AUSL  892  16.380  34.189   7.623
    3AU    AUSL  893  16.374  33.988   8.153
    3AU     AUL  894  16.493  34.278   7.941
    3AU    AUSL  895  15.968  32.792   7.970
    3AU    AUSL  896  16.392  32.733   7.849
    3AU     AUL  897  16.153  32.671   8.223
    3AU    AUSL  898  15.660  32.570   7.699
    3AU    AUSL  899  15.688  32.907   8.274
    3AU     AUL  900  15.696  32.609   8.050
    3AU    AUSL  901  16.092  32.495   7.667
    3AU    AUSL  902  15.885  32.740   7.362
    3AU     AUL  903  15.768  32.395   7.487
    3AU    AUSL  904  16.020  34.131   6.843
    3AU    AUSL  905  16.592  34.109   7.199
    3AU     AUL  906  16.336  34.219   6.936
    3AU    AUSL  907  15.771  34.225   7.210
    3AU    AUSL  908  15.794  33.814   7.014
    3AU     AUL  909  15.701  34.120   6.856
    3AU    AUSL  910  16.110  32.688   6.981
    3AU    AUSL  911  15.477  32.702   7.258
    3AU     AUL  912  15.773  32.554   7.043
    3AU    AUSL  913  16.317  32.712   7.381
    3AU    AUSL  914  16.340  33.045   7.018
    3AU     AUL  915  16.434  32.672   7.050
    3AU       S  916  16.565  32.477   8.227
    3AU     LIG  917  16.612  32.243   8.352
    3AU     LIG  918  16.734  32.083   8.479
    3AU     LIG  919  16.892  31.906   8.590
    3AU       S  920  16.599  33.267   8.719
    3AU     LIG  921  16.762  33.325   8.921
    3AU     LIG  922  16.852  33.381   9.146
    3AU     LIG  923  16.958  33.348   9.383
    3AU       S  924  16.277  33.074   8.725
    3AU     LIG  925  16.333  32.980   9.005
    3AU     LIG  926  16.499  32.996   9.203
    3AU     LIG  927  16.633  32.951   9.419
    3AU       S  928  15.652  33.564   8.757
    3AU     LIG  929  15.615  33.588   9.059
    3AU     LIG  930  15.497  33.573   9.261
    3AU     LIG  931  15.349  33.550   9.479
    3AU       S  932  16.177  33.998   8.566
    3AU     LIG  933  16.294  34.135   8.771
    3AU     LIG  934  16.507  34.055   8.933
    3AU     LIG  935  16.730  33.929   8.947
    3AU       S  936  16.869  33.890   8.334
    3AU     LIG  937  17.052  33.930   8.555
    3AU     LIG  938  17.192  34.087   8.669
    3AU     LIG  939  17.368  34.263   8.744
    3AU       S  940  16.470  33.519   6.306
    3AU     LIG  941  16.685  33.574   6.093
    3AU     LIG  942  16.819  33.408   5.955
    3AU     LIG  943  16.879  33.217   5.795
    3AU       S  944  16.685  34.219   6.652
    3AU     LIG  945  16.731  34.412   6.462
    3AU     LIG  946  16.894  34.502   6.288
    3AU     LIG  947  17.059  34.593   6.123
    3AU       S  948  16.945  32.930   6.768
    3AU     LIG  949  17.107  32.843   6.527
    3AU     LIG  950  17.121  32.624   6.388
    3AU     LIG  951  17.137  32.369   6.348
    3AU       S  952  16.391  33.224   6.240
    3AU     LIG  953  16.413  33.100   6.011
    3AU     LIG  954  16.400  33.027   5.771
    3AU     LIG  955  16.471  33.007   5.521
    3AU       S  956  15.657  33.284   6.303
    3AU     LIG  957  15.712  33.251   6.024
    3AU     LIG  958  15.718  33.197   5.795
    3AU     LIG  959  15.642  33.156   5.540
    3AU       S  960  16.227  33.665   6.264
    3AU     LIG  961  16.128  33.599   5.973
    3AU     LIG  962  16.270  33.524   5.780
    3AU     LIG  963  16.463  33.516   5.607
    3AU       S  964  15.376  33.652   8.643
    3AU     LIG  965  15.165  33.627   8.819
    3AU     LIG  966  15.111  33.411   8.977
    3AU     LIG  967  15.041  33.279   9.166
    3AU       S  968  15.407  34.210   8.268
    3AU     LIG  969  15.321  34.365   8.501
    3AU     LIG  970  15.180  34.376   8.694
    3AU     LIG  971  15.011  34.465   8.877
    3AU       S  972  15.130  32.944   8.284
    3AU     LIG  973  14.884  32.875   8.381
    3AU     LIG  974  14.739  32.683   8.457
    3AU     LIG  975  14.612  32.501   8.575
    3AU       S  976  15.701  33.272   8.684
    3AU     LIG  977  15.624  33.096   8.887
    3AU     LIG  978  15.511  33.076   9.105
    3AU     LIG  979  15.466  33.062   9.361
    3AU       S  980  15.395  33.196   6.418
    3AU     LIG  981  15.216  33.126   6.208
    3AU     LIG  982  15.205  33.197   5.957
    3AU     LIG  983  15.193  33.307   5.737
    3AU       S  984  15.429  32.648   6.745
    3AU     LIG  985  15.355  32.461   6.540
    3AU     LIG  986  15.197  32.419   6.354
    3AU     LIG  987  15.013  32.370   6.184
    3AU       S  988  15.059  33.874   6.798
    3AU     LIG  989  14.852  34.043   6.744
    3AU     LIG  990  14.800  34.242   6.588
    3AU     LIG  991  14.776  34.365   6.367
    3AU       S  992  15.557  33.552   6.393
    3AU     LIG  993  15.390  33.653   6.139
    3AU     LIG  994  15.473  33.690   5.913
    3AU     LIG  995  15.581  33.670   5.679
    3AU       S  996  16.916  34.033   6.708
    3AU     LIG  997  17.131  34.079   6.537
    3AU     LIG  998  17.288  34.191   6.389
    3AU     LIG  999  17.469  34.310   6.245
    3AU       S 1000  17.168  34.009   7.556
    3AU     LIG 1001  17.381  34.213   7.540
    3AU     LIG 1002  17.625  34.257   7.511
    3AU     LIG 1003  17.878  34.320   7.532
    3AU       S 1004  17.344  33.710   7.388
    3AU     LIG 1005  17.613  33.781   7.293
    3AU     LIG 1006  17.853  33.847   7.306
    3AU     LIG 1007  18.075  33.961   7.226
    3AU       S 1008  17.208  32.831   7.790
    3AU     LIG 1009  17.443  32.729   7.920
    3AU     LIG 1010  17.696  32.724   7.859
    3AU     LIG 1011  17.945  32.692   7.780
    3AU       S 1012  16.905  34.138   8.127
    3AU     LIG 1013  17.100  34.315   8.210
    3AU     LIG 1014  17.145  34.514   8.357
    3AU     LIG 1015  17.164  34.693   8.540
    3AU       S 1016  17.315  33.742   7.663
    3AU     LIG 1017  17.553  33.813   7.814
    3AU     LIG 1018  17.790  33.880   7.811
    3AU     LIG 1019  18.020  33.970   7.878
    3AU       S 1020  15.241  33.987   8.203
    3AU     LIG 1021  15.002  33.979   8.380
    3AU     LIG 1022  14.816  34.118   8.444
    3AU     LIG 1023  14.640  34.237   8.594
    3AU       S 1024  15.408  34.411   7.463
    3AU     LIG 1025  15.248  34.619   7.335
    3AU     LIG 1026  15.002  34.599   7.239
    3AU     LIG 1027  14.814  34.442   7.123
    3AU       S 1028  14.844  33.630   7.139
    3AU     LIG 1029  14.606  33.635   7.071
    3AU     LIG 1030  14.351  33.711   7.141
    3AU     LIG 1031  14.206  33.924   7.163
    3AU       S 1032  15.274  34.284   6.929
    3AU     LIG 1033  15.201  34.492   6.787
    3AU     LIG 1034  15.059  34.671   6.702
    3AU     LIG 1035  14.928  34.826   6.537
    3AU       S 1036  14.755  33.226   7.449
    3AU     LIG 1037  14.478  33.216   7.337
    3AU     LIG 1038  14.235  33.198   7.332
    3AU     LIG 1039  14.001  33.077   7.284
    3AU       S 1040  14.946  33.545   8.097
    3AU     LIG 1041  14.633  33.649   8.182
    3AU     LIG 1042  14.516  33.861   8.094
    3AU     LIG 1043  14.336  34.008   7.968
    3AU       S 1044  16.938  32.661   7.606
    3AU     LIG 1045  17.072  32.359   7.622
    3AU     LIG 1046  17.300  32.293   7.697
    3AU     LIG 1047  17.571  32.279   7.655
    3AU       S 1048  16.782  32.600   8.066
    3AU     LIG 1049  17.029  32.464   8.105
    3AU     LIG 1050  17.159  32.376   8.287
    3AU     LIG 1051  17.206  32.306   8.537
    3AU       S 1052  17.195  32.811   7.519
    3AU     LIG 1053  17.418  32.689   7.383
    3AU     LIG 1054  17.659  32.690   7.343
    3AU     LIG 1055  17.900  32.618   7.280
    3AU       S 1056  16.887  32.668   6.925
    3AU     LIG 1057  16.952  32.408   6.822
    3AU     LIG 1058  16.825  32.185   6.774
    3AU     LIG 1059  16.784  31.966   6.659
    3AU       S 1060  15.252  32.843   6.817
    3AU     LIG 1061  15.019  32.853   6.620
    3AU     LIG 1062  14.842  32.736   6.527
    3AU     LIG 1063  14.636  32.578   6.465
    3AU       S 1064  14.837  32.935   7.583
    3AU     LIG 1065  14.620  32.769   7.588
    3AU     LIG 1066  14.393  32.721   7.482
    3AU     LIG 1067  14.160  32.617   7.441
    3AU       S 1068  15.249  32.714   8.082
    3AU     LIG 1069  15.073  32.506   8.068
    3AU     LIG 1070  14.953  32.320   8.174
    3AU     LIG 1071  14.820  32.134   8.287
    3AU       S 1072  14.779  33.230   7.713
    3AU     LIG 1073  14.545  33.202   7.888
    3AU     LIG 1074  14.306  33.110   7.835
    3AU     LIG 1075  14.097  32.975   7.809
    3AU       S 1076  15.448  34.429   7.989
    3AU     LIG 1077  15.213  34.618   8.062
    3AU     LIG 1078  14.988  34.581   8.206
    3AU     LIG 1079  14.856  34.658   8.412
    3AU       S 1080  16.191  34.615   8.053
    3AU     LIG 1081  16.302  34.802   8.255
    3AU     LIG 1082  16.190  34.992   8.380
    3AU     LIG 1083  16.045  35.193   8.444
    3AU       S 1084  15.953  34.750   7.925
    3AU     LIG 1085  15.864  34.975   7.968
    3AU     LIG 1086  15.838  35.234   7.984
    3AU     LIG 1087  15.847  35.485   8.012
    3AU       S 1088  16.118  34.593   7.131
    3AU     LIG 1089  16.184  34.862   7.146
    3AU     LIG 1090  16.218  35.094   7.130
    3AU     LIG 1091  16.281  35.337   7.042
    3AU       S 1092  16.628  34.105   8.364
    3AU     LIG 1093  16.703  34.324   8.543
    3AU     LIG 1094  16.804  34.405   8.736
    3AU     LIG 1095  16.930  34.423   8.967
    3AU       S 1096  16.330  34.666   7.734
    3AU     LIG 1097  16.362  34.939   7.718
    3AU     LIG 1098  16.337  35.149   7.875
    3AU     LIG 1099  16.349  35.333   8.040
    3AU       S 1100  16.051  32.256   8.062
    3AU     LIG 1101  16.170  32.050   8.213
    3AU     LIG 1102  16.158  31.843   8.334
    3AU     LIG 1103  16.139  31.606   8.434
    3AU       S 1104  16.534  32.489   7.902
    3AU     LIG 1105  16.638  32.185   7.827
    3AU     LIG 1106  16.798  32.051   7.925
    3AU     LIG 1107  17.010  31.951   8.057
    3AU       S 1108  15.799  32.170   7.896
    3AU     LIG 1109  15.750  31.903   7.918
    3AU     LIG 1110  15.772  31.685   8.033
    3AU     LIG 1111  15.762  31.447   8.129
    3AU       S 1112  15.393  32.796   8.386
    3AU     LIG 1113  15.266  32.578   8.570
    3AU     LIG 1114  15.129  32.404   8.640
    3AU     LIG 1115  14.992  32.210   8.762
    3AU       S 1116  16.117  32.266   7.221
    3AU     LIG 1117  16.056  31.938   7.210
    3AU     LIG 1118  16.041  31.742   7.090
    3AU     LIG 1119  16.041  31.475   7.027
    3AU       S 1120  16.131  32.219   7.758
    3AU     LIG 1121  16.231  31.917   7.712
    3AU     LIG 1122  16.244  31.720   7.838
    3AU     LIG 1123  16.238  31.474   7.941
    3AU       S 1124  15.970  34.513   6.835
    3AU     LIG 1125  15.976  34.742   6.681
    3AU     LIG 1126  16.099  34.958   6.641
    3AU     LIG 1127  16.165  35.192   6.564
    3AU       S 1128  16.809  34.289   6.958
    3AU     LIG 1129  17.007  34.493   6.901
    3AU     LIG 1130  17.166  34.567   6.721
    3AU     LIG 1131  17.314  34.689   6.558
    3AU       S 1132  15.767  34.534   7.112
    3AU     LIG 1133  15.655  34.812   7.085
    3AU     LIG 1134  15.712  35.038   6.998
    3AU     LIG 1135  15.786  35.263   6.907
    3AU       S 1136  15.329  33.944   6.654
    3AU     LIG 1137  15.269  34.079   6.415
    3AU     LIG 1138  15.279  34.309   6.319
    3AU     LIG 1139  15.252  34.548   6.239
    3AU       S 1140  15.274  32.612   7.029
    3AU     LIG 1141  15.017  32.439   6.950
    3AU     LIG 1142  14.930  32.297   6.784
    3AU     LIG 1143  14.844  32.124   6.606
    3AU       S 1144  16.187  32.305   6.941
    3AU     LIG 1145  16.304  32.126   6.769
    3AU     LIG 1146  16.277  31.916   6.646
    3AU     LIG 1147  16.201  31.678   6.582
    3AU       S 1148  16.380  32.306   7.324
    3AU     LIG 1149  16.544  32.065   7.293
    3AU     LIG 1150  16.551  31.859   7.128
    3AU     LIG 1151  16.536  31.642   6.984
    3AU       S 1152  16.641  32.815   6.673
    3AU     LIG 1153  16.627  32.637   6.470
    3AU     LIG 1154  16.617  32.409   6.376
    3AU     LIG 1155  16.668  32.206   6.221
    4AU     AUC 1156  22.097  10.632   7.535
    4AU     AUC 1157  22.349  10.637   7.369
    4AU     AUC 1158  22.338  10.624   7.699
    4AU     AUC 1159  21.827  10.640   7.380
    4AU     AUC 1160  21.853  10.669   7.705
    4AU     AUC 1161  21.936  10.885   7.513
    4AU     AUC 1162  22.283  10.897   7.516
    4AU     AUC 1163  21.918  10.378   7.543
    4AU     AUC 1164  22.249  10.356   7.545
    4AU     AUC 1165  22.091  10.472   7.798
    4AU     AUC 1166  22.110  10.812   7.779
    4AU     AUC 1167  22.084  10.459   7.287
    4AU     AUC 1168  22.104  10.765   7.271
    4AU     AUC 1169  22.652  10.628   7.204
    4AU     AUC 1170  22.660  10.608   7.545
    4AU     AUC 1171  22.618  10.595   7.899
    4AU     AUC 1172  21.525  10.614   7.228
    4AU     AUC 1173  21.524  10.673   7.556
    4AU     AUC 1174  21.553  10.712   7.888
    4AU     AUC 1175  21.771  11.198   7.474
    4AU     AUC 1176  22.131  11.172   7.457
    4AU     AUC 1177  22.497  11.160   7.487
    4AU     AUC 1178  21.714  10.089   7.548
    4AU     AUC 1179  22.065  10.065   7.529
    4AU     AUC 1180  22.421  10.054   7.546
    4AU     AUC 1181  22.050  10.306   8.101
    4AU     AUC 1182  22.087  10.648   8.101
    4AU     AUC 1183  22.144  11.012   8.062
    4AU     AUC 1184  22.115  10.269   6.997
    4AU     AUC 1185  22.063  10.610   6.973
    4AU     AUC 1186  22.060  10.933   6.957
    4AU     AUC 1187  22.332  10.410   8.012
    4AU     AUC 1188  22.388  10.786   7.987
    4AU     AUC 1189  22.387  10.472   7.072
    4AU     AUC 1190  22.352  10.784   7.079
    4AU     AUC 1191  21.798  10.530   8.000
    4AU     AUC 1192  21.845  10.880   7.971
    4AU     AUC 1193  21.809  10.429   7.103
    4AU     AUC 1194  21.763  10.757   7.083
    4AU     AUC 1195  22.590  10.900   7.346
    4AU     AUC 1196  22.556  10.897   7.705
    4AU     AUC 1197  21.631  10.912   7.383
    4AU     AUC 1198  21.676  10.978   7.713
    4AU     AUC 1199  22.553  10.349   7.407
    4AU     AUC 1200  22.501  10.303   7.739
    4AU     AUC 1201  21.632  10.326   7.373
    4AU     AUC 1202  21.658  10.400   7.716
    4AU     AUC 1203  21.996  11.130   7.782
    4AU     AUC 1204  22.335  11.085   7.793
    4AU     AUC 1205  21.883  10.197   7.817
    4AU     AUC 1206  22.201  10.144   7.809
    4AU     AUC 1207  21.906  11.063   7.215
    4AU     AUC 1208  22.271  11.079   7.226
    4AU     AUC 1209  21.937  10.165   7.258
    4AU     AUC 1210  22.297  10.210   7.274
    4AU    AUSL 1211  22.596  10.500   8.316
    4AU    AUSL 1212  22.346  10.127   8.222
    4AU     AUL 1213  22.653  10.128   8.389
    4AU    AUSL 1214  22.181  10.442   8.460
    4AU    AUSL 1215  21.943  10.851   8.451
    4AU     AUL 1216  22.179  10.726   8.710
    4AU    AUSL 1217  22.280  10.799   8.204
    4AU    AUSL 1218  22.731  10.858   8.126
    4AU     AUL 1219  22.549  10.823   8.435
    4AU    AUSL 1220  22.504  10.660   6.840
    4AU    AUSL 1221  22.365  11.056   6.981
    4AU     AUL 1222  22.579  10.988   6.681
    4AU    AUSL 1223  22.316  10.338   6.612
    4AU    AUSL 1224  22.823  10.408   6.982
    4AU     AUL 1225  22.691  10.482   6.665
    4AU    AUSL 1226  22.148  10.842   6.670
    4AU    AUSL 1227  21.970  10.456   6.829
    4AU     AUL 1228  22.101  10.535   6.524
    4AU    AUSL 1229  21.559  10.813   8.243
    4AU    AUSL 1230  21.922  11.122   8.111
    4AU     AUL 1231  21.759  11.090   8.412
    4AU    AUSL 1232  21.860  10.500   8.191
    4AU    AUSL 1233  21.411  10.423   8.105
    4AU     AUL 1234  21.468  10.512   8.341
    4AU    AUSL 1235  21.534  10.438   6.795
    4AU    AUSL 1236  21.783  10.088   6.947
    4AU     AUL 1237  21.807  10.174   6.641
    4AU    AUSL 1238  21.720  10.806   6.675
    4AU    AUSL 1239  21.440  10.787   7.050
    4AU     AUL 1240  21.323  10.668   6.776
    4AU    AUSL 1241  22.888  11.095   7.476
    4AU    AUSL 1242  22.763  10.885   7.096
    4AU     AUL 1243  23.058  11.090   7.128
    4AU    AUSL 1244  23.053  10.699   7.367
    4AU    AUSL 1245  23.002  10.401   7.768
    4AU     AUL 1246  23.264  10.485   7.571
    4AU    AUSL 1247  22.775  10.754   7.718
    4AU    AUSL 1248  22.733  11.198   7.853
    4AU     AUL 1249  22.981  10.938   7.878
    4AU    AUSL 1250  21.522  11.275   7.522
    4AU    AUSL 1251  21.559  11.027   7.878
    4AU     AUL 1252  21.250  11.272   7.745
    4AU    AUSL 1253  21.321  10.896   7.444
    4AU    AUSL 1254  21.474  11.212   7.106
    4AU     AUL 1255  21.238  11.137   7.263
    4AU    AUSL 1256  21.194  10.818   7.888
    4AU    AUSL 1257  21.161  10.512   7.349
    4AU     AUL 1258  21.039  10.829   7.590
    4AU    AUSL 1259  22.780  10.052   7.615
    4AU    AUSL 1260  22.606  10.335   7.925
    4AU     AUL 1261  22.913  10.241   8.001
    4AU    AUSL 1262  22.738  10.422   7.397
    4AU    AUSL 1263  22.728  10.020   7.188
    4AU     AUL 1264  22.972  10.230   7.250
    4AU    AUSL 1265  21.314  10.133   7.553
    4AU    AUSL 1266  21.525  10.343   7.205
    4AU     AUL 1267  21.175  10.236   7.213
    4AU    AUSL 1268  21.431  10.534   7.694
    4AU    AUSL 1269  21.621  10.150   7.849
    4AU     AUL 1270  21.240  10.303   7.848
    4AU    AUSL 1271  22.163  11.458   7.966
    4AU    AUSL 1272  21.708  11.437   7.878
    4AU     AUL 1273  21.930  11.482   8.194
    4AU    AUSL 1274  21.995  11.313   7.591
    4AU    AUSL 1275  22.246  11.446   7.247
    4AU     AUL 1276  22.015  11.653   7.554
    4AU    AUSL 1277  22.433  11.389   7.623
    4AU    AUSL 1278  22.427  11.188   8.153
    4AU     AUL 1279  22.546  11.478   7.941
    4AU    AUSL 1280  22.021   9.992   7.970
    4AU    AUSL 1281  22.445   9.933   7.849
    4AU     AUL 1282  22.206   9.871   8.223
    4AU    AUSL 1283  21.713   9.770   7.699
    4AU    AUSL 1284  21.741  10.107   8.274
    4AU     AUL 1285  21.749   9.809   8.050
    4AU    AUSL 1286  22.145   9.695   7.667
    4AU    AUSL 1287  21.938   9.940   7.362
    4AU     AUL 1288  21.821   9.595   7.487
    4AU    AUSL 1289  22.073  11.331   6.843
    4AU    AUSL 1290  22.645  11.309   7.199
    4AU     AUL 1291  22.389  11.419   6.936
    4AU    AUSL 1292  21.824  11.425   7.210
    4AU    AUSL 1293  21.847  11.014   7.014
    4AU     AUL 1294  21.754  11.320   6.856
    4AU    AUSL 1295  22.163   9.888   6.981
    4AU    AUSL 1296  21.530   9.902   7.258
    4AU     AUL 1297  21.826   9.754   7.043
    4AU    AUSL 1298  22.370   9.912   7.381
    4AU    AUSL 1299  22.393  10.245   7.018
    4AU     AUL 1300  22.487   9.872   7.050
    4AU       S 1301  22.618   9.677   8.227
    4AU     LIG 1302  22.665   9.443   8.352
    4AU     LIG 1303  22.787   9.283   8.479
    4AU     LIG 1304  22.945   9.106   8.590
    4AU       S 1305  22.652  10.467   8.719
    4AU     LIG 1306  22.815  10.525   8.921
    4AU     LIG 1307  22.905  10.581   9.146
    4AU     LIG 1308  23.011  10.548   9.383
    4AU       S 1309  22.330  10.274   8.725
    4AU     LIG 1310  22.386  10.180   9.005
    4AU     LIG 1311  22.552  10.196   9.203
    4AU     LIG 1312  22.686  10.151   9.419
    4AU       S 1313  21.705  10.764   8.757
    4AU     LIG 1314  21.668  10.788   9.059
    4AU     LIG 1315  21.550  10.773   9.261
    4AU     LIG 1316  21.402  10.750   9.479
    4AU       S 1317  22.230  11.198   8.566
    4AU     LIG 1318  22.347  11.335   8.771
    4AU     LIG 1319  22.560  11.255   8.933
    4AU     LIG 1320  22.783  11.129   8.947
    4AU       S 1321  22.922  11.090   8.334
    4AU     LIG 1322  23.105  11.130   8.555
    4AU     LIG 1323  23.245  11.287   8.669
    4AU     LIG 1324  23.421  11.463   8.744
    4AU       S 1325  22.523  10.719   6.306
    4AU     LIG 1326  22.738  10.774   6.093
    4AU     LIG 1327  22.872  10.608   5.955
    4AU     LIG 1328  22.932  10.417   5.795
    4AU       S 1329  22.738  11.419   6.652
    4AU     LIG 1330  22.784  11.612   6.462
    4AU     LIG 1331  22.947  11.702   6.288
    4AU     LIG 1332  23.112  11.793   6.123
    4AU       S 1333  22.998  10.130   6.768
    4AU     LIG 1334  23.160  10.043   6.527
    4AU     LIG 1335  23.174   9.824   6.388
    4AU     LIG 1336  23.190   9.569   6.348
    4AU       S 1337  22.444  10.424   6.240
    4AU     LIG 1338  22.466  10.300   6.011
    4AU     LIG 1339  22.453  10.227   5.771
    4AU     LIG 1340  22.524  10.207   5.521
    4AU       S 1341  21.710  10.484   6.303
    4AU     LIG 1342  21.765  10.451   6.024
    4AU     LIG 1343  21.771  10.397   5.795
    4AU     LIG 1344  21.695  10.356   5.540
    4AU       S 1345  22.280  10.865   6.264
    4AU     LIG 1346  22.181  10.799   5.973
    4AU     LIG 1347  22.323  10.724   5.780
    4AU     LIG 1348  22.516  10.716   5.607
    4AU       S 1349  21.429  10.852   8.643
    4AU     LIG 1350  21.218  10.827   8.819
    4AU     LIG 1351  21.164  10.611   8.977
    4AU     LIG 1352  21.094  10.479   9.166
    4AU       S 1353  21.460  11.410   8.268
    4AU     LIG 1354  21.374  11.565   8.501
    4AU     LIG 1355  21.233  11.576   8.694
    4AU     LIG 1356  21.064  11.665   8.877
    4AU       S 1357  21.183  10.144   8.284
    4AU     LIG 1358  20.937  10.075   8.381
    4AU     LIG 1359  20.792   9.883   8.457
    4AU     LIG 1360  20.665   9.701   8.575
    4AU       S 1361  21.754  10.472   8.684
    4AU     LIG 1362  21.677  10.296   8.887
    4AU     LIG 1363  21.564  10.276   9.105
    4AU     LIG 1364  21.519  10.262   9.361
    4AU       S 1365  21.448  10.396   6.418
    4AU     LIG 1366  21.269  10.326   6.208
    4AU     LIG 1367  21.258  10.397   5.957
    4AU     LIG 1368  21.246  10.507   5.737
    4AU       S 1369  21.482   9.848   6.745
    4AU     LIG 1370  21.408   9.661   6.540
    4AU     LIG 1371  21.250   9.619   6.354
    4AU     LIG 1372  21.066   9.570   6.184
    4AU       S 1373  21.112  11.074   6.798
    4AU     LIG 1374  20.905  11.243   6.744
    4AU     LIG 1375  20.853  11.442   6.588
    4AU     LIG 1376  20.829  11.565   6.367
    4AU       S 1377  21.610  10.752   6.393
    4AU     LIG 1378  21.443  10.853   6.139
    4AU     LIG 1379  21.526  10.890   5.913
    4AU     LIG 1380  21.634  10.870   5.679
    4AU       S 1381  22.969  11.233   6.708
    4AU     LIG 1382  23.184  11.279   6.537
    4AU     LIG 1383  23.341  11.391   6.389
    4AU     LIG 1384  23.522  11.510   6.245
    4AU       S 1385  23.221  11.209   7.556
    4AU     LIG 1386  23.434  11.413   7.540
    4AU     LIG 1387  23.678  11.457   7.511
    4AU     LIG 1388  23.931  11.520   7.532
    4AU       S 1389  23.397  10.910   7.388
    4AU     LIG 1390  23.666  10.981   7.293
    4AU     LIG 1391  23.906  11.047   7.306
    4AU     LIG 1392  24.128  11.161   7.226
    4AU       S 1393  23.261  10.031   7.790
    4AU     LIG 1394  23.496   9.929   7.920
    4AU     LIG 1395  23.749   9.924   7.859
    4AU     LIG 1396  23.998   9.892   7.780
    4AU       S 1397  22.958  11.338   8.127
    4AU     LIG 1398  23.153  11.515   8.210
    4AU     LIG 1399  23.198  11.714   8.357
    4AU     LIG 1400  23.217  11.893   8.540
    4AU       S 1401  23.368  10.942   7.663
    4AU     LIG 1402  23.606  11.013   7.814
    4AU     LIG 1403  23.843  11.080   7.811
    4AU     LIG 1404  24.073  11.170   7.878
    4AU       S 1405  21.294  11.187   8.203
    4AU     LIG 1406  21.055  11.179   8.380
    4AU     LIG 1407  20.869  11.318   8.444
    4AU     LIG 1408  20.693  11.437   8.594
    4AU       S 1409  21.461  11.611   7.463
    4AU     LIG 1410  21.301  11.819   7.335
    4AU     LIG 1411  21.055  11.799   7.239
    4AU     LIG 1412  20.867  11.642   7.123
    4AU       S 1413  20.897  10.830   7.139
    4AU     LIG 1414  20.659  10.835   7.071
    4AU     LIG 1415  20.404  10.911   7.141
    4AU     LIG 1416  20.259  11.124   7.163
    4AU       S 1417  21.327  11.484   6.929
    4AU     LIG 1418  21.254  11.692   6.787
    4AU     LIG 1419  21.112  11.871   6.702
    4AU     LIG 1420  20.981  12.026   6.537
    4AU       S 1421  20.808  10.426   7.449
    4AU     LIG 1422  20.531  10.416   7.337
    4AU     LIG 1423  20.288  10.398   7.332
    4AU     LIG 1424  20.054  10.277   7.284
    4AU       S 1425  20.999  10.745   8.097
    4AU     LIG 1426  20.686  10.849   8.182
    4AU     LIG 1427  20.569  11.061   8.094
    4AU     LIG 1428  20.389  11.208   7.968
    4AU       S 1429  22.991   9.861   7.606
    4AU     LIG 1430  23.125   9.559   7.622
    4AU     LIG 1431  23.353   9.493   7.697
    4AU     LIG 1432  23.624   9.479   7.655
    4AU       S 1433  22.835   9.800   8.066
    4AU     LIG 1434  23.082   9.664   8.105
    4AU     LIG 1435  23.212   9.576   8.287
    4AU     LIG 1436  23.259   9.506   8.537
    4AU       S 1437  23.248  10.011   7.519
    4AU     LIG 1438  23.471   9.889   7.383
    4AU     LIG 1439  23.712   9.890   7.343
    4AU     LIG 1440  23.953   9.818   7.280
    4AU       S 1441  22.940   9.868   6.925
    4AU     LIG 1442  23.005   9.608   6.822
    4AU     LIG 1443  22.878   9.385   6.774
    4AU     LIG 1444  22.837   9.166   6.659
    4AU       S 1445  21.305  10.043   6.817
    4AU     LIG 1446  21.072  10.053   6.620
    4AU     LIG 1447  20.895   9.936   6.527
    4AU     LIG 1448  20.689   9.778   6.465
    4AU       S 1449  20.890  10.135   7.583
    4AU     LIG 1450  20.673   9.969   7.588
    4AU     LIG 1451  20.446   9.921   7.482
    4AU     LIG 1452  20.213   9.817   7.441
    4AU       S 1453  21.302   9.914   8.082
    4AU     LIG 1454  21.126   9.706   8.068
    4AU     LIG 1455  21.006   9.520   8.174
    4AU     LIG 1456  20.873   9.334   8.287
    4AU       S 1457  20.832  10.430   7.713
    4AU     LIG 1458  20.598  10.402   7.888
    4AU     LIG 1459  20.359  10.310   7.835
    4AU     LIG 1460  20.150  10.175   7.809
    4AU       S 1461  21.501  11.629   7.989
    4AU     LIG 1462  21.266  11.818   8.062
    4AU     LIG 1463  21.041  11.781   8.206
    4AU     LIG 1464  20.909  11.858   8.412
    4AU       S 1465  22.244  11.815   8.053
    4AU     LIG 1466  22.355  12.002   8.255
    4AU     LIG 1467  22.243  12.192   8.380
    4AU     LIG 1468  22.098  12.393   8.444
    4AU       S 1469  22.006  11.950   7.925
    4AU     LIG 1470  21.917  12.175   7.968
    4AU     LIG 1471  21.891  12.434   7.984
    4AU     LIG 1472  21.900  12.685   8.012
    4AU       S 1473  22.171  11.793   7.131
    4AU     LIG 1474  22.237  12.062   7.146
    4AU     LIG 1475  22.271  12.294   7.130
    4AU     LIG 1476  22.334  12.537   7.042
    4AU       S 1477  22.681  11.305   8.364
    4AU     LIG 1478  22.756  11.524   8.543
    4AU     LIG 1479  22.857  11.605   8.736
    4AU     LIG 1480  22.983  11.623   8.967
    4AU       S 1481  22.383  11.866   7.734
    4AU     LIG 1482  22.415  12.139   7.718
    4AU     LIG 1483  22.390  12.349   7.875
    4AU     LIG 1484  22.402  12.533   8.040
    4AU       S 1485  22.104   9.456   8.062
    4AU     LIG 1486  22.223   9.250   8.213
    4AU     LIG 1487  22.211   9.043   8.334
    4AU     LIG 1488  22.192   8.806   8.434
    4AU       S 1489  22.587   9.689   7.902
    4AU     LIG 1490  22.691   9.385   7.827
    4AU     LIG 1491  22.851   9.251   7.925
    4AU     LIG 1492  23.063   9.151   8.057
    4AU       S 1493  21.852   9.370   7.896
    4AU     LIG 1494  21.803   9.103   7.918
    4AU     LIG 1495  21.825   8.885   8.033
    4AU     LIG 1496  21.815   8.647   8.129
    4AU       S 1497  21.446   9.996   8.386
    4AU     LIG 1498  21.319   9.778   8.570
    4AU     LIG 1499  21.182   9.604   8.640
    4AU     LIG 1500  21.045   9.410   8.762
    4AU       S 1501  22.170   9.466   7.221
    4AU     LIG 1502  22.109   9.138   7.210
    4AU     LIG 1503  22.094   8.942   7.090
    4AU     LIG 1504  22.094   8.675   7.027
    4AU       S 1505  22.184   9.419   7.758
    4AU     LIG 1506  22.284   9.117   7.712
    4AU     LIG 1507  22.297   8.920   7.838
    4AU     LIG 1508  22.291   8.674   7.941
    4AU       S 1509  22.023  11.713   6.835
    4AU     LIG 1510  22.029  11.942   6.681
    4AU     LIG 1511  22.152  12.158   6.641
    4AU     LIG 1512  22.218  12.392   6.564
    4AU       S 1513  22.862  11.489   6.958
    4AU     LIG 1514  23.060  11.693   6.901
    4AU     LIG 1515  23.219  11.767   6.721
    4AU     LIG 1516  23.367  11.889   6.558
    4AU       S 1517  21.820  11.734   7.112
    4AU     LIG 1518  21.708  12.012   7.085
    4AU     LIG 1519  21.765  12.238   6.998
    4AU     LIG 1520  21.839  12.463   6.907
    4AU       S 1521  21.382  11.144   6.654
    4AU     LIG 1522  21.322  11.279   6.415
    4AU     LIG 1523  21.332  11.509   6.319
    4AU     LIG 1524  21.305  11.748   6.239
    4AU       S 1525  21.327   9.812   7.029
    4AU     LIG 1526  21.070   9.639   6.950
    4AU     LIG 1527  20.983   9.497   6.784
    4AU     LIG 1528  20.897   9.324   6.606
    4AU       S 1529  22.240   9.505   6.941
    4AU     LIG 1530  22.357   9.326   6.769
    4AU     LIG 1531  22.330   9.116   6.646
    4AU     LIG 1532  22.254   8.878   6.582
    4AU       S 1533  22.433   9.506   7.324
    4AU     LIG 1534  22.597   9.265   7.293
    4AU     LIG 1535  22.604   9.059   7.128
    4AU     LIG 1536  22.589   8.842   6.984
    4AU       S 1537  22.694  10.015   6.673
    4AU     LIG 1538  22.680   9.837   6.470
    4AU     LIG 1539  22.670   9.609   6.376
    4AU     LIG 1540  22.721   9.406   6.221
    5AU     AUC 1541  13.492   2.711   7.535
    5AU     AUC 1542  13.744   2.716   7.369
    5AU     AUC 1543  13.733   2.703   7.699
    5AU     AUC 1544  13.222   2.719   7.380
    5AU     AUC 1545  13.248   2.748   7.705
    5AU     AUC 1546  13.331   2.964   7.513
    5AU     AUC 1547  13.678   2.976   7.516
    5AU     AUC 1548  13.313   2.457   7.543
    5AU     AUC 1549  13.644   2.435   7.545
    5AU     AUC 1550  13.486   2.551   7.798
    5AU     AUC 1551  13.505   2.891   7.779
    5AU     AUC 1552  13.479   2.538   7.287
    5AU     AUC 1553  13.499   2.844   7.271
    5AU     AUC 1554  14.047   2.707   7.204
    5AU     AUC 1555  14.055   2.687   7.545
    5AU     AUC 1556  14.013   2.674   7.899
    5AU     AUC 1557  12.920   2.693   7.228
    5AU     AUC 1558  12.919   2.752   7.556
    5AU     AUC 1559  12.948   2.791   7.888
    5AU     AUC 1560  13.166   3.277   7.474
    5AU     AUC 1561  13.526   3.251   7.457
    5AU     AUC 1562  13.892   3.239   7.487
    5AU     AUC 1563  13.109   2.168   7.548
    5AU     AUC 1564  13.460   2.144   7.529
    5AU     AUC 1565  13.816   2.133   7.546
    5AU     AUC 1566  13.445   2.385   8.101
    5AU     AUC 1567  13.482   2.727   8.101
    5AU     AUC 1568  13.539   3.091   8.062
    5AU     AUC 1569  13.510   2.348   6.997
    5AU     AUC 1570  13.458   2.689   6.973
    5AU     AUC 1571  13.455   3.012   6.957
    5AU     AUC 1572  13.727   2.489   8.012
    5AU     AUC 1573  13.783   2.865   7.987
    5AU     AUC 1574  13.782   2.551   7.072
    5AU     AUC 1575  13.747   2.863   7.079
    5AU     AUC 1576  13.193   2.609   8.000
    5AU     AUC 1577  13.240   2.959   7.971
    5AU     AUC 1578  13.204   2.508   7.103
    5AU     AUC 1579  13.158   2.836   7.083
    5AU     AUC 1580  13.985   2.979   7.346
    5AU     AUC 1581  13.951   2.976   7.705
    5AU     AUC 1582  13.026   2.991   7.383
    5AU     AUC 1583  13.071   3.057   7.713
    5AU     AUC 1584  13.948   2.428   7.407
    5AU     AUC 1585  13.896   2.382   7.739
    5AU     AUC 1586  13.027   2.405   7.373
    5AU     AUC 1587  13.053   2.479   7.716
    5AU     AUC 1588  13.391   3.209   7.782
    5AU     AUC 1589  13.730   3.164   7.793
    5AU     AUC 1590  13.278   2.276   7.817
    5AU     AUC 1591  13.596   2.223   7.809
    5AU     AUC 1592  13.301   3.142   7.215
    5AU     AUC 1593  13.666   3.158   7.226
    5AU     AUC 1594  13.332   2.244   7.258
    5AU     AUC 1595  13.692   2.289   7.274
    5AU    AUSL 1596  13.991   2.579   8.316
    5AU    AUSL 1597  13.741   2.206   8.222
    5AU     AUL 1598  14.048   2.207   8.389
    5AU    AUSL 1599  13.576   2.521   8.460
    5AU    AUSL 1600  13.338   2.930   8.451
    5AU     AUL 1601  13.574   2.805   8.710
    5AU    AUSL 1602  13.675   2.878   8.204
    5AU    AUSL 1603  14.126   2.937   8.126
    5AU     AUL 1604  13.944   2.902   8.435
    5AU    AUSL 1605  13.899   2.739   6.840
    5AU    AUSL 1606  13.760   3.135   6.981
    5AU     AUL 1607  13.974   3.067   6.681
    5AU    AUSL 1608  13.711   2.417   6.612
    5AU    AUSL 1609  14.218   2.487   6.982
    5AU     AUL 1610  14.086   2.561   6.665
    5AU    AUSL 1611  13.543   2.921   6.670
    5AU    AUSL 1612  13.365   2.535   6.829
    5AU     AUL 1613  13.496   2.614   6.524
    5AU    AUSL 1614  12.954   2.892   8.243
    5AU    AUSL 1615  13.317   3.201   8.111
    5AU     AUL 1616  13.154   3.169   8.412
    5AU    AUSL 1617  13.255   2.579   8.191
    5AU    AUSL 1618  12.806   2.502   8.105
    5AU     AUL 1619  12.863   2.591   8.341
    5AU    AUSL 1620  12.929   2.517   6.795
    5AU    AUSL 1621  13.178   2.167   6.947
    5AU     AUL 1622  13.202   2.253   6.641
    5AU    AUSL 1623  13.115   2.885   6.675
    5AU    AUSL 1624  12.835   2.866   7.050
    5AU     AUL 1625  12.718   2.747   6.776
    5AU    AUSL 1626  14.283   3.174   7.476
    5AU    AUSL 1627  14.158   2.964   7.096
    5AU     AUL 1628  14.453   3.169   7.128
    5AU    AUSL 1629  14.448   2.778   7.367
    5AU    AUSL 1630  14.397   2.480   7.768
    5AU     AUL 1631  14.659   2.564   7.571
    5AU    AUSL 1632  14.170   2.833   7.718
    5AU    AUSL 1633  14.128   3.277   7.853
    5AU     AUL 1634  14.376   3.017   7.878
    5AU    AUSL 1635  12.917   3.354   7.522
    5AU    AUSL 1636  12.954   3.106   7.878
    5AU     AUL 1637  12.645   3.351   7.745
    5AU    AUSL 1638  12.716   2.975   7.444
    5AU    AUSL 1639  12.869   3.291   7.106
    5AU     AUL 1640  12.633   3.216   7.263
    5AU    AUSL 1641  12.589   2.897   7.888
    5AU    AUSL 1642  12.556   2.591   7.349
    5AU     AUL 1643  12.434   2.908   7.590
    5AU    AUSL 1644  14.175   2.131   7.615
    5AU    AUSL 1645  14.001   2.414   7.925
    5AU     AUL 1646  14.308   2.320   8.001
    5AU    AUSL 1647  14.133   2.501   7.397
    5AU    AUSL 1648  14.123   2.099   7.188
    5AU     AUL 1649  14.367   2.309   7.250
    5AU    AUSL 1650  12.709   2.212   7.553
    5AU    AUSL 1651  12.920   2.422   7.205
    5AU     AUL 1652  12.570   2.315   7.213
    5AU    AUSL 1653  12.826   2.613   7.694
    5AU    AUSL 1654  13.016   2.229   7.849
    5AU     AUL 1655  12.635   2.382   7.848
    5AU    AUSL 1656  13.558   3.537   7.966
    5AU    AUSL 1657  13.103   3.516   7.878
    5AU     AUL 1658  13.325   3.561   8.194
    5AU    AUSL 1659  13.390   3.392   7.591
    5AU    AUSL 1660  13.641   3.525   7.247
    5AU     AUL 1661  13.410   3.732   7.554
    5AU    AUSL 1662  13.828   3.468   7.623
    5AU    AUSL 1663  13.822   3.267   8.153
    5AU     AUL 1664  13.941   3.557   7.941
    5AU    AUSL 1665  13.416   2.071   7.970
    5AU    AUSL 1666  13.840   2.012   7.849
    5AU     AUL 1667  13.601   1.950   8.223
    5AU    AUSL 1668  13.108   1.849   7.699
    5AU    AUSL 1669  13.136   2.186   8.274
    5AU     AUL 1670  13.144   1.888   8.050
    5AU    AUSL 1671  13.540   1.774   7.667
    5AU    AUSL 1672  13.333   2.019   7.362
    5AU     AUL 1673  13.216   1.674   7.487
    5AU    AUSL 1674  13.468   3.410   6.843
    5AU    AUSL 1675  14.040   3.388   7.199
    5AU     AUL 1676  13.784   3.498   6.936
    5AU    AUSL 1677  13.219   3.504   7.210
    5AU    AUSL 1678  13.242   3.093   7.014
    5AU     AUL 1679  13.149   3.399   6.856
    5AU    AUSL 1680  13.558   1.967   6.981
    5AU    AUSL 1681  12.925   1.981   7.258
    5AU     AUL 1682  13.221   1.833   7.043
    5AU    AUSL 1683  13.765   1.991   7.381
    5AU    AUSL 1684  13.788   2.324   7.018
    5AU     AUL 1685  13.882   1.951   7.050
    5AU       S 1686  14.013   1.756   8.227
    5AU     LIG 1687  14.060   1.522   8.352
    5AU     LIG 1688  14.182   1.362   8.479
    5AU     LIG 1689  14.340   1.185   8.590
    5AU       S 1690  14.047   2.546   8.719
    5AU     LIG 1691  14.210   2.604   8.921
    5AU     LIG 1692  14.300   2.660   9.146
    5AU     LIG 1693  14.406   2.627   9.383
    5AU       S 1694  13.725   2.353   8.725
    5AU     LIG 1695  13.781   2.259   9.005
    5AU     LIG 1696  13.947   2.275   9.203
    5AU     LIG 1697  14.081   2.230   9.419
    5AU       S 1698  13.100   2.843   8.757
    5AU     LIG 1699  13.063   2.867   9.059
    5AU     LIG 1700  12.945   2.852   9.261
    5AU     LIG 1701  12.797   2.829   9.479
    5AU       S 1702  13.625   3.277   8.566
    5AU     LIG 1703  13.742   3.414   8.771
    5AU     LIG 1704  13.955   3.334   8.933
    5AU     LIG 1705  14.178   3.208   8.947
    5AU       S 1706  14.317   3.169   8.334
    5AU     LIG 1707  14.500   3.209   8.555
    5AU     LIG 1708  14.640   3.366   8.669
    5AU     LIG 1709  14.816   3.542   8.744
    5AU       S 1710  13.918   2.798   6.306
    5AU     LIG 1711  14.133   2.853   6.093
    5AU     LIG 1712  14.267   2.687   5.955
    5AU     LIG 1713  14.327   2.496   5.795
    5AU       S 1714  14.133   3.498   6.652
    5AU     LIG 1715  14.179   3.691   6.462
    5AU     LIG 1716  14.342   3.781   6.288
    5AU     LIG 1717  14.507   3.872   6.123
    5AU       S 1718  14.393   2.209   6.768
    5AU     LIG 1719  14.555   2.122   6.527
    5AU     LIG 1720  14.569   1.903   6.388
    5AU     LIG 1721  14.585   1.648   6.348
    5AU       S 1722  13.839   2.503   6.240
    5AU     LIG 1723  13.861   2.379   6.011
    5AU     LIG 1724  13.848   2.306   5.771
    5AU     LIG 1725  13.919   2.286   5.521
    5AU       S 1726  13.105   2.563   6.303
    5AU     LIG 1727  13.160   2.530   6.024
    5AU     LIG 1728  13.166   2.476   5.795
    5AU     LIG 1729  13.090   2.435   5.540
    5AU       S 1730  13.675   2.944   6.264
    5AU     LIG 1731  13.576   2.878   5.973
    5AU     LIG 1732  13.718   2.803   5.780
    5AU     LIG 1733  13.911   2.795   5.607
    5AU       S 1734  12.824   2.931   8.643
    5AU     LIG 1735  12.613   2.906   8.819
    5AU     LIG 1736  12.559   2.690   8.977
    5AU     LIG 1737  12.489   2.558   9.166
    5AU       S 1738  12.855   3.489   8.268
    5AU     LIG 1739  12.769   3.644   8.501
    5AU     LIG 1740  12.628   3.655   8.694
    5AU     LIG 1741  12.459   3.744   8.877
    5AU       S 1742  12.578   2.223   8.284
    5AU     LIG 1743  12.332   2.154   8.381
    5AU     LIG 1744  12.187   1.962   8.457
    5AU     LIG 1745  12.060   1.780   8.575
    5AU       S 1746  13.149   2.551   8.684
    5AU     LIG 1747  13.072   2.375   8.887
    5AU     LIG 1748  12.959   2.355   9.105
    5AU     LIG 1749  12.914   2.341   9.361
    5AU       S 1750  12.843   2.475   6.418
    5AU     LIG 1751  12.664   2.405   6.208
    5AU     LIG 1752  12.653   2.476   5.957
    5AU     LIG 1753  12.641   2.586   5.737
    5AU       S 1754  12.877   1.927   6.745
    5AU     LIG 1755  12.803   1.740   6.540
    5AU     LIG 1756  12.645   1.698   6.354
    5AU     LIG 1757  12.461   1.649   6.184
    5AU       S 1758  12.507   3.153   6.798
    5AU     LIG 1759  12.300   3.322   6.744
    5AU     LIG 1760  12.248   3.521   6.588
    5AU     LIG 1761  12.224   3.644   6.367
    5AU       S 1762  13.005   2.831   6.393
    5AU     LIG 1763  12.838   2.932   6.139
    5AU     LIG 1764  12.921   2.969   5.913
    5AU     LIG 1765  13.029   2.949   5.679
    5AU       S 1766  14.364   3.312   6.708
    5AU     LIG 1767  14.579   3.358   6.537
    5AU     LIG 1768  14.736   3.470   6.389
    5AU     LIG 1769  14.917   3.589   6.245
    5AU       S 1770  14.616   3.288   7.556
    5AU     LIG 1771  14.829   3.492   7.540
    5AU     LIG 1772  15.073   3.536   7.511
    5AU     LIG 1773  15.326   3.599   7.532
    5AU       S 1774  14.792   2.989   7.388
    5AU     LIG 1775  15.061   3.060   7.293
    5AU     LIG 1776  15.301   3.126   7.306
    5AU     LIG 1777  15.523   3.240   7.226
    5AU       S 1778  14.656   2.110   7.790
    5AU     LIG 1779  14.891   2.008   7.920
    5AU     LIG 1780  15.144   2.003   7.859
    5AU     LIG 1781  15.393   1.971   7.780
    5AU       S 1782  14.353   3.417   8.127
    5AU     LIG 1783  14.548   3.594   8.210
    5AU     LIG 1784  14.593   3.793   8.357
    5AU     LIG 1785  14.612   3.972   8.540
    5AU       S 1786  14.763   3.021   7.663
    5AU     LIG 1787  15.001   3.092   7.814
    5AU     LIG 1788  15.238   3.159   7.811
    5AU     LIG 1789  15.468   3.249   7.878
    5AU       S 1790  12.689   3.266   8.203
    5AU     LIG 1791  12.450   3.258   8.380
    5AU     LIG 1792  12.264   3.397   8.444
    5AU     LIG 1793  12.088   3.516   8.594
    5AU       S 1794  12.856   3.690   7.463
    5AU     LIG 1795  12.696   3.898   7.335
    5AU     LIG 1796  12.450   3.878   7.239
    5AU     LIG 1797  12.262   3.721   7.123
    5AU       S 1798  12.292   2.909   7.139
    5AU     LIG 1799  12.054   2.914   7.071
    5AU     LIG 1800  11.799   2.990   7.141
    5AU     LIG 1801  11.654   3.203   7.163
    5AU       S 1802  12.722   3.563   6.929
    5AU     LIG 1803  12.649   3.771   6.787
    5AU     LIG 1804  12.507   3.950   6.702
    5AU     LIG 1805  12.376   4.105   6.537
    5AU       S 1806  12.203   2.505   7.449
    5AU     LIG 1807  11.926   2.495   7.337
    5AU     LIG 1808  11.683   2.477   7.332
    5AU     LIG 1809  11.449   2.356   7.284
    5AU       S 1810  12.394   2.824   8.097
    5AU     LIG 1811  12.081   2.928   8.182
    5AU     LIG 1812  11.964   3.140   8.094
    5AU     LIG 1813  11.784   3.287   7.968
    5AU       S 1814  14.386   1.940   7.606
    5AU     LIG 1815  14.520   1.638   7.622
    5AU     LIG 1816  14.748   1.572   7.697
    5AU     LIG 1817  15.019   1.558   7.655
    5AU       S 1818  14.230   1.879   8.066
    5AU     LIG 1819  14.477   1.743   8.105
    5AU     LIG 1820  14.607   1.655   8.287
    5AU     LIG 1821  14.654   1.585   8.537
    5AU       S 1822  14.643   2.090   7.519
    5AU     LIG 1823  14.866   1.968   7.383
    5AU     LIG 1824  15.107   1.969   7.343
    5AU     LIG 1825  15.348   1.897   7.280
    5AU       S 1826  14.335   1.947   6.925
    5AU     LIG 1827  14.400   1.687   6.822
    5AU     LIG 1828  14.273   1.464   6.774
    5AU     LIG 1829  14.232   1.245   6.659
    5AU       S 1830  12.700   2.122   6.817
    5AU     LIG 1831  12.467   2.132   6.620
    5AU     LIG 1832  12.290   2.015   6.527
    5AU     LIG 1833  12.084   1.857   6.465
    5AU       S 1834  12.285   2.214   7.583
    5AU     LIG 1835  12.068   2.048   7.588
    5AU     LIG 1836  11.841   2.000   7.482
    5AU     LIG 1837  11.608   1.896   7.441
    5AU       S 1838  12.697   1.993   8.082
    5AU     LIG 1839  12.521   1.785   8.068
    5AU     LIG 1840  12.401   1.599   8.174
    5AU     LIG 1841  12.268   1.413   8.287
    5AU       S 1842  12.227   2.509   7.713
    5AU     LIG 1843  11.993   2.481   7.888
    5AU     LIG 1844  11.754   2.389   7.835
    5AU     LIG 1845  11.545   2.254   7.809
    5AU       S 1846  12.896   3.708   7.989
    5AU     LIG 1847  12.661   3.897   8.062
    5AU     LIG 1848  12.436   3.860   8.206
    5AU     LIG 1849  12.304   3.937   8.412
    5AU       S 1850  13.639   3.894   8.053
    5AU     LIG 1851  13.750   4.081   8.255
    5AU     LIG 1852  13.638   4.271   8.380
    5AU     LIG 1853  13.493   4.472   8.444
    5AU       S 1854  13.401   4.029   7.925
    5AU     LIG 1855  13.312   4.254   7.968
    5AU     LIG 1856  13.286   4.513   7.984
    5AU     LIG 1857  13.295   4.764   8.012
    5AU       S 1858  13.566   3.872   7.131
    5AU     LIG 1859  13.632   4.141   7.146
    5AU     LIG 1860  13.666   4.373   7.130
    5AU     LIG 1861  13.729   4.616   7.042
    5AU       S 1862  14.076   3.384   8.364
    5AU     LIG 1863  14.151   3.603   8.543
    5AU     LIG 1864  14.252   3.684   8.736
    5AU     LIG 1865  14.378   3.702   8.967
    5AU       S 1866  13.778   3.945   7.734
    5AU     LIG 1867  13.810   4.218   7.718
    5AU     LIG 1868  13.785   4.428   7.875
    5AU     LIG 1869  13.797   4.612   8.040
    5AU       S 1870  13.499   1.535   8.062
    5AU     LIG 1871  13.618   1.329   8.213
    5AU     LIG 1872  13.606   1.122   8.334
    5AU     LIG 1873  13.587   0.885   8.434
    5AU       S 1874  13.982   1.768   7.902
    5AU     LIG 1875  14.086   1.464   7.827
    5AU     LIG 1876  14.246   1.330   7.925
    5AU     LIG 1877  14.458   1.230   8.057
    5AU       S 1878  13.247   1.449   7.896
    5AU     LIG 1879  13.198   1.182   7.918
    5AU     LIG 1880  13.220   0.964   8.033
    5AU     LIG 1881  13.210   0.726   8.129
    5AU       S 1882  12.841   2.075   8.386
    5AU     LIG 1883  12.714   1.857   8.570
    5AU     LIG 1884  12.577   1.683   8.640
    5AU     LIG 1885  12.440   1.489   8.762
    5AU       S 1886  13.565   1.545   7.221
    5AU     LIG 1887  13.504   1.217   7.210
    5AU     LIG 1888  13.489   1.021   7.090
    5AU     LIG 1889  13.489   0.754   7.027
    5AU       S 1890  13.579   1.498   7.758
    5AU     LIG 1891  13.679   1.196   7.712
    5AU     LIG 1892  13.692   0.999   7.838
    5AU     LIG 1893  13.686   0.753   7.941
    5AU       S 1894  13.418   3.792   6.835
    5AU     LIG 1895  13.424   4.021   6.681
    5AU     LIG 1896  13.547   4.237   6.641
    5AU     LIG 1897  13.613   4.471   6.564
    5AU       S 1898  14.257   3.568   6.958
    5AU     LIG 1899  14.455   3.772   6.901
    5AU     LIG 1900  14.614   3.846   6.721
    5AU     LIG 1901  14.762   3.968   6.558
    5AU       S 1902  13.215   3.813   7.112
    5AU     LIG 1903  13.103   4.091   7.085
    5AU     LIG 1904  13.160   4.317   6.998
    5AU     LIG 1905  13.234   4.542   6.907
    5AU       S 1906  12.777   3.223   6.654
    5AU     LIG 1907  12.717   3.358   6.415
    5AU     LIG 1908  12.727   3.588   6.319
    5AU     LIG 1909  12.700   3.827   6.239
    5AU       S 1910  12.722   1.891   7.029
    5AU     LIG 1911  12.465   1.718   6.950
    5AU     LIG 1912  12.378   1.576   6.784
    5AU     LIG 1913  12.292   1.403   6.606
    5AU       S 1914  13.635   1.584   6.941
    5AU     LIG 1915  13.752   1.405   6.769
    5AU     LIG 1916  13.725   1.195   6.646
    5AU     LIG 1917  13.649   0.957   6.582
    5AU       S 1918  13.828   1.585   7.324
    5AU     LIG 1919  13.992   1.344   7.293
    5AU     LIG 1920  13.999   1.138   7.128
    5AU     LIG 1921  13.984   0.921   6.984
    5AU       S 1922  14.089   2.094   6.673
    5AU     LIG 1923  14.075   1.916   6.470
    5AU     LIG 1924  14.065   1.688   6.376
    5AU     LIG 1925  14.116   1.485   6.221
    6AU     AUC 1926  -0.819  32.810   7.535
    6AU     AUC 1927  -0.567  32.815   7.369
    6AU     AUC 1928  -0.578  32.802   7.699
    6AU     AUC 1929  -1.089  32.818   7.380
    6AU     AUC 1930  -1.063  32.847   7.705
    6AU     AUC 1931  -0.980  33.063   7.513
    6AU     AUC 1932  -0.633  33.075   7.516
    6AU     AUC 1933  -0.998  32.556   7.543
    6AU     AUC 1934  -0.667  32.534   7.545
    6AU     AUC 1935  -0.825  32.650   7.798
    6AU     AUC 1936  -0.806  32.990   7.779
    6AU     AUC 1937  -0.832  32.637   7.287
    6AU     AUC 1938  -0.812  32.943   7.271
    6AU     AUC 1939  -0.264  32.806   7.204
    6AU     AUC 1940  -0.256  32.786   7.545
    6AU     AUC 1941  -0.298  32.773   7.899
    6AU     AUC 1942  -1.391  32.792   7.228
    6AU     AUC 1943  -1.392  32.851   7.556
    6AU     AUC 1944  -1.363  32.890   7.888
    6AU     AUC 1945  -1.145  33.376   7.474
    6AU     AUC 1946  -0.785  33.350   7.457
    6AU     AUC 1947  -0.419  33.338   7.487
    6AU     AUC 1948  -1.202  32.267   7.548
    6AU     AUC 1949  -0.851  32.243   7.529
    6AU     AUC 1950  -0.495  32.232   7.546
    6AU     AUC 1951  -0.866  32.484   8.101
    6AU     AUC 1952  -0.829  32.826   8.101
    6AU     AUC 1953  -0.772  33.190   8.062
    6AU     AUC 1954  -0.801  32.447   6.997
    6AU     AUC 1955  -0.853  32.788   6.973
    6AU     AUC 1956  -0.856  33.111   6.957
    6AU     AUC 1957  -0.584  32.588   8.012
    6AU     AUC 1958  -0.528  32.964   7.987
    6AU     AUC 1959  -0.529  32.650   7.072
    6AU     AUC 1960  -0.564  32.962   7.079
    6AU     AUC 1961  -1.118  32.708   8.000
    6AU     AUC 1962  -1.071  33.058   7.971
    6AU     AUC 1963  -1.107  32.607   7.103
    6AU     AUC 1964  -1.153  32.935   7.083
    6AU     AUC 1965  -0.326  33.078   7.346
    6AU     AUC 1966  -0.360  33.075   7.705
    6AU     AUC 1967  -1.285  33.090   7.383
    6AU     AUC 1968  -1.240  33.156   7.713
    6AU     AUC 1969  -0.363  32.527   7.407
    6AU     AUC 1970  -0.415  32.481   7.739
    6AU     AUC 1971  -1.284  32.504   7.373
    6AU     AUC 1972  -1.258  32.578   7.716
    6AU     AUC 1973  -0.920  33.308   7.782
    6AU     AUC 1974  -0.581  33.263   7.793
    6AU     AUC 1975  -1.033  32.375   7.817
    6AU     AUC 1976  -0.715  32.322   7.809
    6AU     AUC 1977  -1.010  33.241   7.215
    6AU     AUC 1978  -0.645  33.257   7.226
    6AU     AUC 1979  -0.979  32.343   7.258
    6AU     AUC 1980  -0.619  32.388   7.274
    6AU    AUSL 1981  -0.320  32.678   8.316
    6AU    AUSL 1982  -0.570  32.305   8.222
    6AU     AUL 1983  -0.263  32.306   8.389
    6AU    AUSL 1984  -0.735  32.620   8.460
    6AU    AUSL 1985  -0.973  33.029   8.451
    6AU     AUL 1986  -0.737  32.904   8.710
    6AU    AUSL 1987  -0.636  32.977   8.204
    6AU    AUSL 1988  -0.185  33.036   8.126
    6AU     AUL 1989  -0.367  33.001   8.435
    6AU    AUSL 1990  -0.412  32.838   6.840
    6AU    AUSL 1991  -0.551  33.234   6.981
    6AU     AUL 1992  -0.337  33.166   6.681
    6AU    AUSL 1993  -0.600  32.516   6.612
    6AU    AUSL 1994  -0.093  32.586   6.982
    6AU     AUL 1995  -0.225  32.660   6.665
    6AU    AUSL 1996  -0.768  33.020   6.670
    6AU    AUSL 1997  -0.946  32.634   6.829
    6AU     AUL 1998  -0.815  32.713   6.524
    6AU    AUSL 1999  -1.357  32.991   8.243
    6AU    AUSL 2000  -0.994  33.300   8.111
    6AU     AUL 2001  -1.157  33.268   8.412
    6AU    AUSL 2002  -1.056  32.678   8.191
    6AU    AUSL 2003  -1.505  32.601   8.105
    6AU     AUL 2004  -1.448  32.690   8.341
    6AU    AUSL 2005  -1.382  32.616   6.795
    6AU    AUSL 2006  -1.133  32.266   6.947
    6AU     AUL 2007  -1.109  32.352   6.641
    6AU    AUSL 2008  -1.196  32.984   6.675
    6AU    AUSL 2009  -1.476  32.965   7.050
    6AU     AUL 2010  -1.593  32.846   6.776
    6AU    AUSL 2011  -0.028  33.273   7.476
    6AU    AUSL 2012  -0.153  33.063   7.096
    6AU     AUL 2013   0.142  33.268   7.128
    6AU    AUSL 2014   0.137  32.877   7.367
    6AU    AUSL 2015   0.086  32.579   7.768
    6AU     AUL 2016   0.348  32.663   7.571
    6AU    AUSL 2017  -0.141  32.932   7.718
    6AU    AUSL 2018  -0.183  33.376   7.853
    6AU     AUL 2019   0.065  33.116   7.878
    6AU    AUSL 2020  -1.394  33.453   7.522
    6AU    AUSL 2021  -1.357  33.205   7.878
    6AU     AUL 2022  -1.666  33.450   7.745
    6AU    AUSL 2023  -1.595  33.074   7.444
    6AU    AUSL 2024  -1.442  33.390   7.106
    6AU     AUL 2025  -1.678  33.315   7.263
    6AU    AUSL 2026  -1.722  32.996   7.888
    6AU    AUSL 2027  -1.755  32.690   7.349
    6AU     AUL 2028  -1.877  33.007   7.590
    6AU    AUSL 2029  -0.136  32.230   7.615
    6AU    AUSL 2030  -0.310  32.513   7.925
    6AU     AUL 2031  -0.003  32.419   8.001
    6AU    AUSL 2032  -0.178  32.600   7.397
    6AU    AUSL 2033  -0.188  32.198   7.188
    6AU     AUL 2034   0.056  32.408   7.250
    6AU    AUSL 2035  -1.602  32.311   7.553
    6AU    AUSL 2036  -1.391  32.521   7.205
    6AU     AUL 2037  -1.741  32.414   7.213
    6AU    AUSL 2038  -1.485  32.712   7.694
    6AU    AUSL 2039  -1.295  32.328   7.849
    6AU     AUL 2040  -1.676  32.481   7.848
    6AU    AUSL 2041  -0.753  33.636   7.966
    6AU    AUSL 2042  -1.208  33.615   7.878
    6AU     AUL 2043  -0.986  33.660   8.194
    6AU    AUSL 2044  -0.921  33.491   7.591
    6AU    AUSL 2045  -0.670  33.624   7.247
    6AU     AUL 2046  -0.901  33.831   7.554
    6AU    AUSL 2047  -0.483  33.567   7.623
    6AU    AUSL 2048  -0.489  33.366   8.153
    6AU     AUL 2049  -0.370  33.656   7.941
    6AU    AUSL 2050  -0.895  32.170   7.970
    6AU    AUSL 2051  -0.471  32.111   7.849
    6AU     AUL 2052  -0.710  32.049   8.223
    6AU    AUSL 2053  -1.203  31.948   7.699
    6AU    AUSL 2054  -1.175  32.285   8.274
    6AU     AUL 2055  -1.167  31.987   8.050
    6AU    AUSL 2056  -0.771  31.873   7.667
    6AU    AUSL 2057  -0.978  32.118   7.362
    6AU     AUL 2058  -1.095  31.773   7.487
    6AU    AUSL 2059  -0.843  33.509   6.843
    6AU    AUSL 2060  -0.271  33.487   7.199
    6AU     AUL 2061  -0.527  33.597   6.936
    6AU    AUSL 2062  -1.092  33.603   7.210
    6AU    AUSL 2063  -1.069  33.192   7.014
    6AU     AUL 2064  -1.162  33.498   6.856
    6AU    AUSL 2065  -0.753  32.066   6.981
    6AU    AUSL 2066  -1.386  32.080   7.258
    6AU     AUL 2067  -1.090  31.932   7.043
    6AU    AUSL 2068  -0.546  32.090   7.381
    6AU    AUSL 2069  -0.523  32.423   7.018
    6AU     AUL 2070  -0.429  32.050   7.050
    6AU       S 2071  -0.298  31.855   8.227
    6AU     LIG 2072  -0.251  31.621   8.352
    6AU     LIG 2073  -0.129  31.461   8.479
    6AU     LIG 2074   0.029  31.284   8.590
    6AU       S 2075  -0.264  32.645   8.719
    6AU     LIG 2076  -0.101  32.703   8.921
    6AU     LIG 2077  -0.011  32.759   9.146
    6AU     LIG 2078   0.095  32.726   9.383
    6AU       S 2079  -0.586  32.452   8.725
    6AU     LIG 2080  -0.530  32.358   9.005
    6AU     LIG 2081  -0.364  32.374   9.203
    6AU     LIG 2082  -0.230  32.329   9.419
    6AU       S 2083  -1.211  32.942   8.757
    6AU     LIG 2084  -1.248  32.966   9.059
    6AU     LIG 2085  -1.366  32.951   9.261
    6AU     LIG 2086  -1.514  32.928   9.479
    6AU       S 2087  -0.686  33.376   8.566
    6AU     LIG 2088  -0.569  33.513   8.771
    6AU     LIG 2089  -0.356  33.433   8.933
    6AU     LIG 2090  -0.133  33.307   8.947
    6AU       S 2091   0.006  33.268   8.334
    6AU     LIG 2092   0.189  33.308   8.555
    6AU     LIG 2093   0.329  33.465   8.669
    6AU     LIG 2094   0.505  33.641   8.744
    6AU       S 2095  -0.393  32.897   6.306
    6AU     LIG 2096  -0.178  32.952   6.093
    6AU     LIG 2097  -0.044  32.786   5.955
    6AU     LIG 2098   0.016  32.595   5.795
    6AU       S 2099  -0.178  33.597   6.652
    6AU     LIG 2100  -0.132  33.790   6.462
    6AU     LIG 2101   0.031  33.880   6.288
    6AU     LIG 2102   0.196  33.971   6.123
    6AU       S 2103   0.082  32.308   6.768
    6AU     LIG 2104   0.244  32.221   6.527
    6AU     LIG 2105   0.258  32.002   6.388
    6AU     LIG 2106   0.274  31.747   6.348
    6AU       S 2107  -0.472  32.602   6.240
    6AU     LIG 2108  -0.450  32.478   6.011
    6AU     LIG 2109  -0.463  32.405   5.771
    6AU     LIG 2110  -0.392  32.385   5.521
    6AU       S 2111  -1.206  32.662   6.303
    6AU     LIG 2112  -1.151  32.629   6.024
    6AU     LIG 2113  -1.145  32.575   5.795
    6AU     LIG 2114  -1.221  32.534   5.540
    6AU       S 2115  -0.636  33.043   6.264
    6AU     LIG 2116  -0.735  32.977   5.973
    6AU     LIG 2117  -0.593  32.902   5.780
    6AU     LIG 2118  -0.400  32.894   5.607
    6AU       S 2119  -1.487  33.030   8.643
    6AU     LIG 2120  -1.698  33.005   8.819
    6AU     LIG 2121  -1.752  32.789   8.977
    6AU     LIG 2122  -1.822  32.657   9.166
    6AU       S 2123  -1.456  33.588   8.268
    6AU     LIG 2124  -1.542  33.743   8.501
    6AU     LIG 2125  -1.683  33.754   8.694
    6AU     LIG 2126  -1.852  33.843   8.877
    6AU       S 2127  -1.733  32.322   8.284
    6AU     LIG 2128  -1.979  32.253   8.381
    6AU     LIG 2129  -2.124  32.061   8.457
    6AU     LIG 2130  -2.251  31.879   8.575
    6AU       S 2131  -1.162  32.650   8.684
    6AU     LIG 2132  -1.239  32.474   8.887
    6AU     LIG 2133  -1.352  32.454   9.105
    6AU     LIG 2134  -1.397  32.440   9.361
    6AU       S 2135  -1.468  32.574   6.418
    6AU     LIG 2136  -1.647  32.504   6.208
    6AU     LIG 2137  -1.658  32.575   5.957
    6AU     LIG 2138  -1.670  32.685   5.737
    6AU       S 2139  -1.434  32.026   6.745
    6AU     LIG 2140  -1.508  31.839   6.540
    6AU     LIG 2141  -1.666  31.797   6.354
    6AU     LIG 2142  -1.850  31.748   6.184
    6AU       S 2143  -1.804  33.252   6.798
    6AU     LIG 2144  -2.011  33.421   6.744
    6AU     LIG 2145  -2.063  33.620   6.588
    6AU     LIG 2146  -2.087  33.743   6.367
    6AU       S 2147  -1.306  32.930   6.393
    6AU     LIG 2148  -1.473  33.031   6.139
    6AU     LIG 2149  -1.390  33.068   5.913
    6AU     LIG 2150  -1.282  33.048   5.679
    6AU       S 2151   0.053  33.411   6.708
    6AU     LIG 2152   0.268  33.457   6.537
    6AU     LIG 2153   0.425  33.569   6.389
    6AU     LIG 2154   0.606  33.688   6.245
    6AU       S 2155   0.305  33.387   7.556
    6AU     LIG 2156   0.518  33.591   7.540
    6AU     LIG 2157   0.762  33.635   7.511
    6AU     LIG 2158   1.015  33.698   7.532
    6AU       S 2159   0.481  33.088   7.388
    6AU     LIG 2160   0.750  33.159   7.293
    6AU     LIG 2161   0.990  33.225   7.306
    6AU     LIG 2162   1.212  33.339   7.226
    6AU       S 2163   0.345  32.209   7.790
    6AU     LIG 2164   0.580  32.107   7.920
    6AU     LIG 2165   0.833  32.102   7.859
    6AU     LIG 2166   1.082  32.070   7.780
    6AU       S 2167   0.042  33.516   8.127
    6AU     LIG 2168   0.237  33.693   8.210
    6AU     LIG 2169   0.282  33.892   8.357
    6AU     LIG 2170   0.301  34.071   8.540
    6AU       S 2171   0.452  33.120   7.663
    6AU     LIG 2172   0.690  33.191   7.814
    6AU     LIG 2173   0.927  33.258   7.811
    6AU     LIG 2174   1.157  33.348   7.878
    6AU       S 2175  -1.622  33.365   8.203
    6AU     LIG 2176  -1.861  33.357   8.380
    6AU     LIG 2177  -2.047  33.496   8.444
    6AU     LIG 2178  -2.223  33.615   8.594
    6AU       S 2179  -1.455  33.789   7.463
    6AU     LIG 2180  -1.615  33.997   7.335
    6AU     LIG 2181  -1.861  33.977   7.239
    6AU     LIG 2182  -2.049  33.820   7.123
    6AU       S 2183  -2.019  33.008   7.139
    6AU     LIG 2184  -2.257  33.013   7.071
    6AU     LIG 2185  -2.512  33.089   7.141
    6AU     LIG 2186  -2.657  33.302   7.163
    6AU       S 2187  -1.589  33.662   6.929
    6AU     LIG 2188  -1.662  33.870   6.787
    6AU     LIG 2189  -1.804  34.049   6.702
    6AU     LIG 2190  -1.935  34.204   6.537
    6AU       S 2191  -2.108  32.604   7.449
    6AU     LIG 2192  -2.385  32.594   7.337
    6AU     LIG 2193  -2.628  32.576   7.332
    6AU     LIG 2194  -2.862  32.455   7.284
    6AU       S 2195  -1.917  32.923   8.097
    6AU     LIG 2196  -2.230  33.027   8.182
    6AU     LIG 2197  -2.347  33.239   8.094
    6AU     LIG 2198  -2.527  33.386   7.968
    6AU       S 2199   0.075  32.039   7.606
    6AU     LIG 2200   0.209  31.737   7.622
    6AU     LIG 2201   0.437  31.671   7.697
    6AU     LIG 2202   0.708  31.657   7.655
    6AU       S 2203  -0.081  31.978   8.066
    6AU     LIG 2204   0.166  31.842   8.105
    6AU     LIG 2205   0.296  31.754   8.287
    6AU     LIG 2206   0.343  31.684   8.537
    6AU       S 2207   0.332  32.189   7.519
    6AU     LIG 2208   0.555  32.067   7.383
    6AU     LIG 2209   0.796  32.068   7.343
    6AU     LIG 2210   1.037  31.996   7.280
    6AU       S 2211   0.024  32.046   6.925
    6AU     LIG 2212   0.089  31.786   6.822
    6AU     LIG 2213  -0.038  31.563   6.774
    6AU     LIG 2214  -0.079  31.344   6.659
    6AU       S 2215  -1.611  32.221   6.817
    6AU     LIG 2216  -1.844  32.231   6.620
    6AU     LIG 2217  -2.021  32.114   6.527
    6AU     LIG 2218  -2.227  31.956   6.465
    6AU       S 2219  -2.026  32.313   7.583
    6AU     LIG 2220  -2.243  32.147   7.588
    6AU     LIG 2221  -2.470  32.099   7.482
    6AU     LIG 2222  -2.703  31.995   7.441
    6AU       S 2223  -1.614  32.092   8.082
    6AU     LIG 2224  -1.790  31.884   8.068
    6AU     LIG 2225  -1.910  31.698   8.174
    6AU     LIG 2226  -2.043  31.512   8.287
    6AU       S 2227  -2.084  32.608   7.713
    6AU     LIG 2228  -2.318  32.580   7.888
    6AU     LIG 2229  -2.557  32.488   7.835
    6AU     LIG 2230  -2.766  32.353   7.809
    6AU       S 2231  -1.415  33.807   7.989
    6AU     LIG 2232  -1.650  33.996   8.062
    6AU     LIG 2233  -1.875  33.959   8.206
    6AU     LIG 2234  -2.007  34.036   8.412
    6AU       S 2235  -0.672  33.993   8.053
    6AU     LIG 2236  -0.561  34.180   8.255
    6AU     LIG 2237  -0.673  34.370   8.380
    6AU     LIG 2238  -0.818  34.571   8.444
    6AU       S 2239  -0.910  34.128   7.925
    6AU     LIG 2240  -0.999  34.353   7.968
    6AU     LIG 2241  -1.025  34.612   7.984
    6AU     LIG 2242  -1.016  34.863   8.012
    6AU       S 2243  -0.745  33.971   7.131
    6AU     LIG 2244  -0.679  34.240   7.146
    6AU     LIG 2245  -0.645  34.472   7.130
    6AU     LIG 2246  -0.582  34.715   7.042
    6AU       S 2247  -0.235  33.483   8.364
    6AU     LIG 2248  -0.160  33.702   8.543
    6AU     LIG 2249  -0.059  33.783   8.736
    6AU     LIG 2250   0.067  33.801   8.967
    6AU       S 2251  -0.533  34.044   7.734
    6AU     LIG 2252  -0.501  34.317   7.718
    6AU     LIG 2253  -0.526  34.527   7.875
    6AU     LIG 2254  -0.514  34.711   8.040
    6AU       S 2255  -0.812  31.634   8.062
    6AU     LIG 2256  -0.693  31.428   8.213
    6AU     LIG 2257  -0.705  31.221   8.334
    6AU     LIG 2258  -0.724  30.984   8.434
    6AU       S 2259  -0.329  31.867   7.902
    6AU     LIG 2260  -0.225  31.563   7.827
    6AU     LIG 2261  -0.065  31.429   7.925
    6AU     LIG 2262   0.147  31.329   8.057
    6AU       S 2263  -1.064  31.548   7.896
    6AU     LIG 2264  -1.113  31.281   7.918
    6AU     LIG 2265  -1.091  31.063   8.033
    6AU     LIG 2266  -1.101  30.825   8.129
    6AU       S 2267  -1.470  32.174   8.386
    6AU     LIG 2268  -1.597  31.956   8.570
    6AU     LIG 2269  -1.734  31.782   8.640
    6AU     LIG 2270  -1.871  31.588   8.762
    6AU       S 2271  -0.746  31.644   7.221
    6AU     LIG 2272  -0.807  31.316   7.210
    6AU     LIG 2273  -0.822  31.120   7.090
    6AU     LIG 2274  -0.822  30.853   7.027
    6AU       S 2275  -0.732  31.597   7.758
    6AU     LIG 2276  -0.632  31.295   7.712
    6AU     LIG 2277  -0.619  31.098   7.838
    6AU     LIG 2278  -0.625  30.852   7.941
    6AU       S 2279  -0.893  33.891   6.835
    6AU     LIG 2280  -0.887  34.120   6.681
    6AU     LIG 2281  -0.764  34.336   6.641
    6AU     LIG 2282  -0.698  34.570   6.564
    6AU       S 2283  -0.054  33.667   6.958
    6AU     LIG 2284   0.144  33.871   6.901
    6AU     LIG 2285   0.303  33.945   6.721
    6AU     LIG 2286   0.451  34.067   6.558
    6AU       S 2287  -1.096  33.912   7.112
    6AU     LIG 2288  -1.208  34.190   7.085
    6AU     LIG 2289  -1.151  34.416   6.998
    6AU     LIG 2290  -1.077  34.641   6.907
    6AU       S 2291  -1.534  33.322   6.654
    6AU     LIG 2292  -1.594  33.457   6.415
    6AU     LIG 2293  -1.584  33.687   6.319
    6AU     LIG 2294  -1.611  33.926   6.239
    6AU       S 2295  -1.589  31.990   7.029
    6AU     LIG 2296  -1.846  31.817   6.950
    6AU     LIG 2297  -1.933  31.675   6.784
    6AU     LIG 2298  -2.019  31.502   6.606
    6AU       S 2299  -0.676  31.683   6.941
    6AU     LIG 2300  -0.559  31.504   6.769
    6AU     LIG 2301  -0.586  31.294   6.646
    6AU     LIG 2302  -0.662  31.056   6.582
    6AU       S 2303  -0.483  31.684   7.324
    6AU     LIG 2304  -0.319  31.443   7.293
    6AU     LIG 2305  -0.312  31.237   7.128
    6AU     LIG 2306  -0.327  31.020   6.984
    6AU       S 2307  -0.222  32.193   6.673
    6AU     LIG 2308  -0.236  32.015   6.470
    6AU     LIG 2309  -0.246  31.787   6.376
    6AU     LIG 2310  -0.195  31.584   6.221
    7AU     AUC 2311  36.295   7.809   7.535
    7AU     AUC 2312  36.547   7.814   7.369
    7AU     AUC 2313  36.536   7.801   7.699
    7AU     AUC 2314  36.025   7.817   7.380
    7AU     AUC 2315  36.051   7.846   7.705
    7AU     AUC 2316  36.134   8.062   7.513
    7AU     AUC 2317  36.481   8.074   7.516
    7AU     AUC 2318  36.116   7.555   7.543
    7AU     AUC 2319  36.447   7.533   7.545
    7AU     AUC 2320  36.289   7.649   7.798
    7AU     AUC 2321  36.308   7.989   7.779
    7AU     AUC 2322  36.282   7.636   7.287
    7AU     AUC 2323  36.302   7.942   7.271
    7AU     AUC 2324  36.850   7.805   7.204
    7AU     AUC 2325  36.858   7.785   7.545
    7AU     AUC 2326  36.816   7.772   7.899
    7AU     AUC 2327  35.723   7.791   7.228
    7AU     AUC 2328  35.722   7.850   7.556
    7AU     AUC 2329  35.751   7.889   7.888
    7AU     AUC 2330  35.969   8.375   7.474
    7AU     AUC 2331  36.329   8.349   7.457
    7AU     AUC 2332  36.695   8.337   7.487
    7AU     AUC 2333  35.912   7.266   7.548
    7AU     AUC 2334  36.263   7.242   7.529
    7AU     AUC 2335  36.619   7.231   7.546
    7AU     AUC 2336  36.248   7.483   8.101
    7AU     AUC 2337  36.285   7.825   8.101
    7AU     AUC 2338  36.342   8.189   8.062
    7AU     AUC 2339  36.313   7.446   6.997
    7AU     AUC 2340  36.261   7.787   6.973
    7AU     AUC 2341  36.258   8.110   6.957
    7AU     AUC 2342  36.530   7.587   8.012
    7AU     AUC 2343  36.586   7.963   7.987
    7AU     AUC 2344  36.585   7.649   7.072
    7AU     AUC 2345  36.550   7.961   7.079
    7AU     AUC 2346  35.996   7.707   8.000
    7AU     AUC 2347  36.043   8.057   7.971
    7AU     AUC 2348  36.007   7.606   7.103
    7AU     AUC 2349  35.961   7.934   7.083
    7AU     AUC 2350  36.788   8.077   7.346
    7AU     AUC 2351  36.754   8.074   7.705
    7AU     AUC 2352  35.829   8.089   7.383
    7AU     AUC 2353  35.874   8.155   7.713
    7AU     AUC 2354  36.751   7.526   7.407
    7AU     AUC 2355  36.699   7.480   7.739
    7AU     AUC 2356  35.830   7.503   7.373
    7AU     AUC 2357  35.856   7.577   7.716
    7AU     AUC 2358  36.194   8.307   7.782
    7AU     AUC 2359  36.533   8.262   7.793
    7AU     AUC 2360  36.081   7.374   7.817
    7AU     AUC 2361  36.399   7.321   7.809
    7AU     AUC 2362  36.104   8.240   7.215
    7AU     AUC 2363  36.469   8.256   7.226
    7AU     AUC 2364  36.135   7.342   7.258
    7AU     AUC 2365  36.495   7.387   7.274
    7AU    AUSL 2366  36.794   7.677   8.316
    7AU    AUSL 2367  36.544   7.304   8.222
    7AU     AUL 2368  36.851   7.305   8.389
    7AU    AUSL 2369  36.379   7.619   8.460
    7AU    AUSL 2370  36.141   8.028   8.451
    7AU     AUL 2371  36.377   7.903   8.710
    7AU    AUSL 2372  36.478   7.976   8.204
    7AU    AUSL 2373  36.929   8.035   8.126
    7AU     AUL 2374  36.747   8.000   8.435
    7AU    AUSL 2375  36.702   7.837   6.840
    7AU    AUSL 2376  36.563   8.233   6.981
    7AU     AUL 2377  36.777   8.165   6.681
    7AU    AUSL 2378  36.514   7.515   6.612
    7AU    AUSL 2379  37.021   7.585   6.982
    7AU     AUL 2380  36.889   7.659   6.665
    7AU    AUSL 2381  36.346   8.019   6.670
    7AU    AUSL 2382  36.168   7.633   6.829
    7AU     AUL 2383  36.299   7.712   6.524
    7AU    AUSL 2384  35.757   7.990   8.243
    7AU    AUSL 2385  36.120   8.299   8.111
    7AU     AUL 2386  35.957   8.267   8.412
    7AU    AUSL 2387  36.058   7.677   8.191
    7AU    AUSL 2388  35.609   7.600   8.105
    7AU     AUL 2389  35.666   7.689   8.341
    7AU    AUSL 2390  35.732   7.615   6.795
    7AU    AUSL 2391  35.981   7.265   6.947
    7AU     AUL 2392  36.005   7.351   6.641
    7AU    AUSL 2393  35.918   7.983   6.675
    7AU    AUSL 2394  35.638   7.964   7.050
    7AU     AUL 2395  35.521   7.845   6.776
    7AU    AUSL 2396  37.086   8.272   7.476
    7AU    AUSL 2397  36.961   8.062   7.096
    7AU     AUL 2398  37.256   8.267   7.128
    7AU    AUSL 2399  37.251   7.876   7.367
    7AU    AUSL 2400  37.200   7.578   7.768
    7AU     AUL 2401  37.462   7.662   7.571
    7AU    AUSL 2402  36.973   7.931   7.718
    7AU    AUSL 2403  36.931   8.375   7.853
    7AU     AUL 2404  37.179   8.115   7.878
    7AU    AUSL 2405  35.720   8.452   7.522
    7AU    AUSL 2406  35.757   8.204   7.878
    7AU     AUL 2407  35.448   8.449   7.745
    7AU    AUSL 2408  35.519   8.073   7.444
    7AU    AUSL 2409  35.672   8.389   7.106
    7AU     AUL 2410  35.436   8.314   7.263
    7AU    AUSL 2411  35.392   7.995   7.888
    7AU    AUSL 2412  35.359   7.689   7.349
    7AU     AUL 2413  35.237   8.006   7.590
    7AU    AUSL 2414  36.978   7.229   7.615
    7AU    AUSL 2415  36.804   7.512   7.925
    7AU     AUL 2416  37.111   7.418   8.001
    7AU    AUSL 2417  36.936   7.599   7.397
    7AU    AUSL 2418  36.926   7.197   7.188
    7AU     AUL 2419  37.170   7.407   7.250
    7AU    AUSL 2420  35.512   7.310   7.553
    7AU    AUSL 2421  35.723   7.520   7.205
    7AU     AUL 2422  35.373   7.413   7.213
    7AU    AUSL 2423  35.629   7.711   7.694
    7AU    AUSL 2424  35.819   7.327   7.849
    7AU     AUL 2425  35.438   7.480   7.848
    7AU    AUSL 2426  36.361   8.635   7.966
    7AU    AUSL 2427  35.906   8.614   7.878
    7AU     AUL 2428  36.128   8.659   8.194
    7AU    AUSL 2429  36.193   8.490   7.591
    7AU    AUSL 2430  36.444   8.623   7.247
    7AU     AUL 2431  36.213   8.830   7.554
    7AU    AUSL 2432  36.631   8.566   7.623
    7AU    AUSL 2433  36.625   8.365   8.153
    7AU     AUL 2434  36.744   8.655   7.941
    7AU    AUSL 2435  36.219   7.169   7.970
    7AU    AUSL 2436  36.643   7.110   7.849
    7AU     AUL 2437  36.404   7.048   8.223
    7AU    AUSL 2438  35.911   6.947   7.699
    7AU    AUSL 2439  35.939   7.284   8.274
    7AU     AUL 2440  35.947   6.986   8.050
    7AU    AUSL 2441  36.343   6.872   7.667
    7AU    AUSL 2442  36.136   7.117   7.362
    7AU     AUL 2443  36.019   6.772   7.487
    7AU    AUSL 2444  36.271   8.508   6.843
    7AU    AUSL 2445  36.843   8.486   7.199
    7AU     AUL 2446  36.587   8.596   6.936
    7AU    AUSL 2447  36.022   8.602   7.210
    7AU    AUSL 2448  36.045   8.191   7.014
    7AU     AUL 2449  35.952   8.497   6.856
    7AU    AUSL 2450  36.361   7.065   6.981
    7AU    AUSL 2451  35.728   7.079   7.258
    7AU     AUL 2452  36.024   6.931   7.043
    7AU    AUSL 2453  36.568   7.089   7.381
    7AU    AUSL 2454  36.591   7.422   7.018
    7AU     AUL 2455  36.685   7.049   7.050
    7AU       S 2456  36.816   6.854   8.227
    7AU     LIG 2457  36.863   6.620   8.352
    7AU     LIG 2458  36.985   6.460   8.479
    7AU     LIG 2459  37.143   6.283   8.590
    7AU       S 2460  36.850   7.644   8.719
    7AU     LIG 2461  37.013   7.702   8.921
    7AU     LIG 2462  37.103   7.758   9.146
    7AU     LIG 2463  37.209   7.725   9.383
    7AU       S 2464  36.528   7.451   8.725
    7AU     LIG 2465  36.584   7.357   9.005
    7AU     LIG 2466  36.750   7.373   9.203
    7AU     LIG 2467  36.884   7.328   9.419
    7AU       S 2468  35.903   7.941   8.757
    7AU     LIG 2469  35.866   7.965   9.059
    7AU     LIG 2470  35.748   7.950   9.261
    7AU     LIG 2471  35.600   7.927   9.479
    7AU       S 2472  36.428   8.375   8.566
    7AU     LIG 2473  36.545   8.512   8.771
    7AU     LIG 2474  36.758   8.432   8.933
    7AU     LIG 2475  36.981   8.306   8.947
    7AU       S 2476  37.120   8.267   8.334
    7AU     LIG 2477  37.303   8.307   8.555
    7AU     LIG 2478  37.443   8.464   8.669
    7AU     LIG 2479  37.619   8.640   8.744
    7AU       S 2480  36.721   7.896   6.306
    7AU     LIG 2481  36.936   7.951   6.093
    7AU     LIG 2482  37.070   7.785   5.955
    7AU     LIG 2483  37.130   7.594   5.795
    7AU       S 2484  36.936   8.596   6.652
    7AU     LIG 2485  36.982   8.789   6.462
    7AU     LIG 2486  37.145   8.879   6.288
    7AU     LIG 2487  37.310   8.970   6.123
    7AU       S 2488  37.196   7.307   6.768
    7AU     LIG 2489  37.358   7.220   6.527
    7AU     LIG 2490  37.372   7.001   6.388
    7AU     LIG 2491  37.388   6.746   6.348
    7AU       S 2492  36.642   7.601   6.240
    7AU     LIG 2493  36.664   7.477   6.011
    7AU     LIG 2494  36.651   7.404   5.771
    7AU     LIG 2495  36.722   7.384   5.521
    7AU       S 2496  35.908   7.661   6.303
    7AU     LIG 2497  35.963   7.628   6.024
    7AU     LIG 2498  35.969   7.574   5.795
    7AU     LIG 2499  35.893   7.533   5.540
    7AU       S 2500  36.478   8.042   6.264
    7AU     LIG 2501  36.379   7.976   5.973
    7AU     LIG 2502  36.521   7.901   5.780
    7AU     LIG 2503  36.714   7.893   5.607
    7AU       S 2504  35.627   8.029   8.643
    7AU     LIG 2505  35.416   8.004   8.819
    7AU     LIG 2506  35.362   7.788   8.977
    7AU     LIG 2507  35.292   7.656   9.166
    7AU       S 2508  35.658   8.587   8.268
    7AU     LIG 2509  35.572   8.742   8.501
    7AU     LIG 2510  35.431   8.753   8.694
    7AU     LIG 2511  35.262   8.842   8.877
    7AU       S 2512  35.381   7.321   8.284
    7AU     LIG 2513  35.135   7.252   8.381
    7AU     LIG 2514  34.990   7.060   8.457
    7AU     LIG 2515  34.863   6.878   8.575
    7AU       S 2516  35.952   7.649   8.684
    7AU     LIG 2517  35.875   7.473   8.887
    7AU     LIG 2518  35.762   7.453   9.105
    7AU     LIG 2519  35.717   7.439   9.361
    7AU       S 2520  35.646   7.573   6.418
    7AU     LIG 2521  35.467   7.503   6.208
    7AU     LIG 2522  35.456   7.574   5.957
    7AU     LIG 2523  35.444   7.684   5.737
    7AU       S 2524  35.680   7.025   6.745
    7AU     LIG 2525  35.606   6.838   6.540
    7AU     LIG 2526  35.448   6.796   6.354
    7AU     LIG 2527  35.264   6.747   6.184
    7AU       S 2528  35.310   8.251   6.798
    7AU     LIG 2529  35.103   8.420   6.744
    7AU     LIG 2530  35.051   8.619   6.588
    7AU     LIG 2531  35.027   8.742   6.367
    7AU       S 2532  35.808   7.929   6.393
    7AU     LIG 2533  35.641   8.030   6.139
    7AU     LIG 2534  35.724   8.067   5.913
    7AU     LIG 2535  35.832   8.047   5.679
    7AU       S 2536  37.167   8.410   6.708
    7AU     LIG 2537  37.382   8.456   6.537
    7AU     LIG 2538  37.539   8.568   6.389
    7AU     LIG 2539  37.720   8.687   6.245
    7AU       S 2540  37.419   8.386   7.556
    7AU     LIG 2541  37.632   8.590   7.540
    7AU     LIG 2542  37.876   8.634   7.511
    7AU     LIG 2543  38.129   8.697   7.532
    7AU       S 2544  37.595   8.087   7.388
    7AU     LIG 2545  37.864   8.158   7.293
    7AU     LIG 2546  38.104   8.224   7.306
    7AU     LIG 2547  38.326   8.338   7.226
    7AU       S 2548  37.459   7.208   7.790
    7AU     LIG 2549  37.694   7.106   7.920
    7AU     LIG 2550  37.947   7.101   7.859
    7AU     LIG 2551  38.196   7.069   7.780
    7AU       S 2552  37.156   8.515   8.127
    7AU     LIG 2553  37.351   8.692   8.210
    7AU     LIG 2554  37.396   8.891   8.357
    7AU     LIG 2555  37.415   9.070   8.540
    7AU       S 2556  37.566   8.119   7.663
    7AU     LIG 2557  37.804   8.190   7.814
    7AU     LIG 2558  38.041   8.257   7.811
    7AU     LIG 2559  38.271   8.347   7.878
    7AU       S 2560  35.492   8.364   8.203
    7AU     LIG 2561  35.253   8.356   8.380
    7AU     LIG 2562  35.067   8.495   8.444
    7AU     LIG 2563  34.891   8.614   8.594
    7AU       S 2564  35.659   8.788   7.463
    7AU     LIG 2565  35.499   8.996   7.335
    7AU     LIG 2566  35.253   8.976   7.239
    7AU     LIG 2567  35.065   8.819   7.123
    7AU       S 2568  35.095   8.007   7.139
    7AU     LIG 2569  34.857   8.012   7.071
    7AU     LIG 2570  34.602   8.088   7.141
    7AU     LIG 2571  34.457   8.301   7.163
    7AU       S 2572  35.525   8.661   6.929
    7AU     LIG 2573  35.452   8.869   6.787
    7AU     LIG 2574  35.310   9.048   6.702
    7AU     LIG 2575  35.179   9.203   6.537
    7AU       S 2576  35.006   7.603   7.449
    7AU     LIG 2577  34.729   7.593   7.337
    7AU     LIG 2578  34.486   7.575   7.332
    7AU     LIG 2579  34.252   7.454   7.284
    7AU       S 2580  35.197   7.922   8.097
    7AU     LIG 2581  34.884   8.026   8.182
    7AU     LIG 2582  34.767   8.238   8.094
    7AU     LIG 2583  34.587   8.385   7.968
    7AU       S 2584  37.189   7.038   7.606
    7AU     LIG 2585  37.323   6.736   7.622
    7AU     LIG 2586  37.551   6.670   7.697
    7AU     LIG 2587  37.822   6.656   7.655
    7AU       S 2588  37.033   6.977   8.066
    7AU     LIG 2589  37.280   6.841   8.105
    7AU     LIG 2590  37.410   6.753   8.287
    7AU     LIG 2591  37.457   6.683   8.537
    7AU       S 2592  37.446   7.188   7.519
    7AU     LIG 2593  37.669   7.066   7.383
    7AU     LIG 2594  37.910   7.067   7.343
    7AU     LIG 2595  38.151   6.995   7.280
    7AU       S 2596  37.138   7.045   6.925
    7AU     LIG 2597  37.203   6.785   6.822
    7AU     LIG 2598  37.076   6.562   6.774
    7AU     LIG 2599  37.035   6.343   6.659
    7AU       S 2600  35.503   7.220   6.817
    7AU     LIG 2601  35.270   7.230   6.620
    7AU     LIG 2602  35.093   7.113   6.527
    7AU     LIG 2603  34.887   6.955   6.465
    7AU       S 2604  35.088   7.312   7.583
    7AU     LIG 2605  34.871   7.146   7.588
    7AU     LIG 2606  34.644   7.098   7.482
    7AU     LIG 2607  34.411   6.994   7.441
    7AU       S 2608  35.500   7.091   8.082
    7AU     LIG 2609  35.324   6.883   8.068
    7AU     LIG 2610  35.204   6.697   8.174
    7AU     LIG 2611  35.071   6.511   8.287
    7AU       S 2612  35.030   7.607   7.713
    7AU     LIG 2613  34.796   7.579   7.888
    7AU     LIG 2614  34.557   7.487   7.835
    7AU     LIG 2615  34.348   7.352   7.809
    7AU       S 2616  35.699   8.806   7.989
    7AU     LIG 2617  35.464   8.995   8.062
    7AU     LIG 2618  35.239   8.958   8.206
    7AU     LIG 2619  35.107   9.035   8.412
    7AU       S 2620  36.442   8.992   8.053
    7AU     LIG 2621  36.553   9.179   8.255
    7AU     LIG 2622  36.441   9.369   8.380
    7AU     LIG 2623  36.296   9.570   8.444
    7AU       S 2624  36.204   9.127   7.925
    7AU     LIG 2625  36.115   9.352   7.968
    7AU     LIG 2626  36.089   9.611   7.984
    7AU     LIG 2627  36.098   9.862   8.012
    7AU       S 2628  36.369   8.970   7.131
    7AU     LIG 2629  36.435   9.239   7.146
    7AU     LIG 2630  36.469   9.471   7.130
    7AU     LIG 2631  36.532   9.714   7.042
    7AU       S 2632  36.879   8.482   8.364
    7AU     LIG 2633  36.954   8.701   8.543
    7AU     LIG 2634  37.055   8.782   8.736
    7AU     LIG 2635  37.181   8.800   8.967
    7AU       S 2636  36.581   9.043   7.734
    7AU     LIG 2637  36.613   9.316   7.718
    7AU     LIG 2638  36.588   9.526   7.875
    7AU     LIG 2639  36.600   9.710   8.040
    7AU       S 2640  36.302   6.633   8.062
    7AU     LIG 2641  36.421   6.427   8.213
    7AU     LIG 2642  36.409   6.220   8.334
    7AU     LIG 2643  36.390   5.983   8.434
    7AU       S 2644  36.785   6.866   7.902
    7AU     LIG 2645  36.889   6.562   7.827
    7AU     LIG 2646  37.049   6.428   7.925
    7AU     LIG 2647  37.261   6.328   8.057
    7AU       S 2648  36.050   6.547   7.896
    7AU     LIG 2649  36.001   6.280   7.918
    7AU     LIG 2650  36.023   6.062   8.033
    7AU     LIG 2651  36.013   5.824   8.129
    7AU       S 2652  35.644   7.173   8.386
    7AU     LIG 2653  35.517   6.955   8.570
    7AU     LIG 2654  35.380   6.781   8.640
    7AU     LIG 2655  35.243   6.587   8.762
    7AU       S 2656  36.368   6.643   7.221
    7AU     LIG 2657  36.307   6.315   7.210
    7AU     LIG 2658  36.292   6.119   7.090
    7AU     LIG 2659  36.292   5.852   7.027
    7AU       S 2660  36.382   6.596   7.758
    7AU     LIG 2661  36.482   6.294   7.712
    7AU     LIG 2662  36.495   6.097   7.838
    7AU     LIG 2663  36.489   5.851   7.941
    7AU       S 2664  36.221   8.890   6.835
    7AU     LIG 2665  36.227   9.119   6.681
    7AU     LIG 2666  36.350   9.335   6.641
    7AU     LIG 2667  36.416   9.569   6.564
    7AU       S 2668  37.060   8.666   6.958
    7AU     LIG 2669  37.258   8.870   6.901
    7AU     LIG 2670  37.417   8.944   6.721
    7AU     LIG 2671  37.565   9.066   6.558
    7AU       S 2672  36.018   8.911   7.112
    7AU     LIG 2673  35.906   9.189   7.085
    7AU     LIG 2674  35.963   9.415   6.998
    7AU     LIG 2675  36.037   9.640   6.907
    7AU       S 2676  35.580   8.321   6.654
    7AU     LIG 2677  35.520   8.456   6.415
    7AU     LIG 2678  35.530   8.686   6.319
    7AU     LIG 2679  35.503   8.925   6.239
    7AU       S 2680  35.525   6.989   7.029
    7AU     LIG 2681  35.268   6.816   6.950
    7AU     LIG 2682  35.181   6.674   6.784
    7AU     LIG 2683  35.095   6.501   6.606
    7AU       S 2684  36.438   6.682   6.941
    7AU     LIG 2685  36.555   6.503   6.769
    7AU     LIG 2686  36.528   6.293   6.646
    7AU     LIG 2687  36.452   6.055   6.582
    7AU       S 2688  36.631   6.683   7.324
    7AU     LIG 2689  36.795   6.442   7.293
    7AU     LIG 2690  36.802   6.236   7.128
    7AU     LIG 2691  36.787   6.019   6.984
    7AU       S 2692  36.892   7.192   6.673
    7AU     LIG 2693  36.878   7.014   6.470
    7AU     LIG 2694  36.868   6.786   6.376
    7AU     LIG 2695  36.919   6.583   6.221
    8AU     AUC 2696  29.232  22.511   7.535
    8AU     AUC 2697  29.484  22.516   7.369
    8AU     AUC 2698  29.473  22.503   7.699
    8AU     AUC 2699  28.962  22.519   7.380
    8AU     AUC 2700  28.988  22.548   7.705
    8AU     AUC 2701  29.071  22.764   7.513
    8AU     AUC 2702  29.418  22.776   7.516
    8AU     AUC 2703  29.053  22.257   7.543
    8AU     AUC 2704  29.384  22.235   7.545
    8AU     AUC 2705  29.226  22.351   7.798
    8AU     AUC 2706  29.245  22.691   7.779
    8AU     AUC 2707  29.219  22.338   7.287
    8AU     AUC 2708  29.239  22.644   7.271
    8AU     AUC 2709  29.787  22.507   7.204
    8AU     AUC 2710  29.795  22.487   7.545
    8AU     AUC 2711  29.753  22.474   7.899
    8AU     AUC 2712  28.660  22.493   7.228
    8AU     AUC 2713  28.659  22.552   7.556
    8AU     AUC 2714  28.688  22.591   7.888
    8AU     AUC 2715  28.906  23.077   7.474
    8AU     AUC 2716  29.266  23.051   7.457
    8AU     AUC 2717  29.632  23.039   7.487
    8AU     AUC 2718  28.849  21.968   7.548
    8AU     AUC 2719  29.200  21.944   7.529
    8AU     AUC 2720  29.556  21.933   7.546
    8AU     AUC 2721  29.185  22.185   8.101
    8AU     AUC 2722  29.222  22.527   8.101
    8AU     AUC 2723  29.279  22.891   8.062
    8AU     AUC 2724  29.250  22.148   6.997
    8AU     AUC 2725  29.198  22.489   6.973
    8AU     AUC 2726  29.195  22.812   6.957
    8AU     AUC 2727  29.467  22.289   8.012
    8AU     AUC 2728  29.523  22.665   7.987
    8AU     AUC 2729  29.522  22.351   7.072
    8AU     AUC 2730  29.487  22.663   7.079
    8AU     AUC 2731  28.933  22.409   8.000
    8AU     AUC 2732  28.980  22.759   7.971
    8AU     AUC 2733  28.944  22.308   7.103
    8AU     AUC 2734  28.898  22.636   7.083
    8AU     AUC 2735  29.725  22.779   7.346
    8AU     AUC 2736  29.691  22.776   7.705
    8AU     AUC 2737  28.766  22.791   7.383
    8AU     AUC 2738  28.811  22.857   7.713
    8AU     AUC 2739  29.688  22.228   7.407
    8AU     AUC 2740  29.636  22.182   7.739
    8AU     AUC 2741  28.767  22.205   7.373
    8AU     AUC 2742  28.793  22.279   7.716
    8AU     AUC 2743  29.131  23.009   7.782
    8AU     AUC 2744  29.470  22.964   7.793
    8AU     AUC 2745  29.018  22.076   7.817
    8AU     AUC 2746  29.336  22.023   7.809
    8AU     AUC 2747  29.041  22.942   7.215
    8AU     AUC 2748  29.406  22.958   7.226
    8AU     AUC 2749  29.072  22.044   7.258
    8AU     AUC 2750  29.432  22.089   7.274
    8AU    AUSL 2751  29.731  22.379   8.316
    8AU    AUSL 2752  29.481  22.006   8.222
    8AU     AUL 2753  29.788  22.007   8.389
    8AU    AUSL 2754  29.316  22.321   8.460
    8AU    AUSL 2755  29.078  22.730   8.451
    8AU     AUL 2756  29.314  22.605   8.710
    8AU    AUSL 2757  29.415  22.678   8.204
    8AU    AUSL 2758  29.866  22.737   8.126
    8AU     AUL 2759  29.684  22.702   8.435
    8AU    AUSL 2760  29.639  22.539   6.840
    8AU    AUSL 2761  29.500  22.935   6.981
    8AU     AUL 2762  29.714  22.867   6.681
    8AU    AUSL 2763  29.451  22.217   6.612
    8AU    AUSL 2764  29.958  22.287   6.982
    8AU     AUL 2765  29.826  22.361   6.665
    8AU    AUSL 2766  29.283  22.721   6.670
    8AU    AUSL 2767  29.105  22.335   6.829
    8AU     AUL 2768  29.236  22.414   6.524
    8AU    AUSL 2769  28.694  22.692   8.243
    8AU    AUSL 2770  29.057  23.001   8.111
    8AU     AUL 2771  28.894  22.969   8.412
    8AU    AUSL 2772  28.995  22.379   8.191
    8AU    AUSL 2773  28.546  22.302   8.105
    8AU     AUL 2774  28.603  22.391   8.341
    8AU    AUSL 2775  28.669  22.317   6.795
    8AU    AUSL 2776  28.918  21.967   6.947
    8AU     AUL 2777  28.942  22.053   6.641
    8AU    AUSL 2778  28.855  22.685   6.675
    8AU    AUSL 2779  28.575  22.666   7.050
    8AU     AUL 2780  28.458  22.547   6.776
    8AU    AUSL 2781  30.023  22.974   7.476
    8AU    AUSL 2782  29.898  22.764   7.096
    8AU     AUL 2783  30.193  22.969   7.128
    8AU    AUSL 2784  30.188  22.578   7.367
    8AU    AUSL 2785  30.137  22.280   7.768
    8AU     AUL 2786  30.399  22.364   7.571
    8AU    AUSL 2787  29.910  22.633   7.718
    8AU    AUSL 2788  29.868  23.077   7.853
    8AU     AUL 2789  30.116  22.817   7.878
    8AU    AUSL 2790  28.657  23.154   7.522
    8AU    AUSL 2791  28.694  22.906   7.878
    8AU     AUL 2792  28.385  23.151   7.745
    8AU    AUSL 2793  28.456  22.775   7.444
    8AU    AUSL 2794  28.609  23.091   7.106
    8AU     AUL 2795  28.373  23.016   7.263
    8AU    AUSL 2796  28.329  22.697   7.888
    8AU    AUSL 2797  28.296  22.391   7.349
    8AU     AUL 2798  28.174  22.708   7.590
    8AU    AUSL 2799  29.915  21.931   7.615
    8AU    AUSL 2800  29.741  22.214   7.925
    8AU     AUL 2801  30.048  22.120   8.001
    8AU    AUSL 2802  29.873  22.301   7.397
    8AU    AUSL 2803  29.863  21.899   7.188
    8AU     AUL 2804  30.107  22.109   7.250
    8AU    AUSL 2805  28.449  22.012   7.553
    8AU    AUSL 2806  28.660  22.222   7.205
    8AU     AUL 2807  28.310  22.115   7.213
    8AU    AUSL 2808  28.566  22.413   7.694
    8AU    AUSL 2809  28.756  22.029   7.849
    8AU     AUL 2810  28.375  22.182   7.848
    8AU    AUSL 2811  29.298  23.337   7.966
    8AU    AUSL 2812  28.843  23.316   7.878
    8AU     AUL 2813  29.065  23.361   8.194
    8AU    AUSL 2814  29.130  23.192   7.591
    8AU    AUSL 2815  29.381  23.325   7.247
    8AU     AUL 2816  29.150  23.532   7.554
    8AU    AUSL 2817  29.568  23.268   7.623
    8AU    AUSL 2818  29.562  23.067   8.153
    8AU     AUL 2819  29.681  23.357   7.941
    8AU    AUSL 2820  29.156  21.871   7.970
    8AU    AUSL 2821  29.580  21.812   7.849
    8AU     AUL 2822  29.341  21.750   8.223
    8AU    AUSL 2823  28.848  21.649   7.699
    8AU    AUSL 2824  28.876  21.986   8.274
    8AU     AUL 2825  28.884  21.688   8.050
    8AU    AUSL 2826  29.280  21.574   7.667
    8AU    AUSL 2827  29.073  21.819   7.362
    8AU     AUL 2828  28.956  21.474   7.487
    8AU    AUSL 2829  29.208  23.210   6.843
    8AU    AUSL 2830  29.780  23.188   7.199
    8AU     AUL 2831  29.524  23.298   6.936
    8AU    AUSL 2832  28.959  23.304   7.210
    8AU    AUSL 2833  28.982  22.893   7.014
    8AU     AUL 2834  28.889  23.199   6.856
    8AU    AUSL 2835  29.298  21.767   6.981
    8AU    AUSL 2836  28.665  21.781   7.258
    8AU     AUL 2837  28.961  21.633   7.043
    8AU    AUSL 2838  29.505  21.791   7.381
    8AU    AUSL 2839  29.528  22.124   7.018
    8AU     AUL 2840  29.622  21.751   7.050
    8AU       S 2841  29.753  21.556   8.227
    8AU     LIG 2842  29.800  21.322   8.352
    8AU     LIG 2843  29.922  21.162   8.479
    8AU     LIG 2844  30.080  20.985   8.590
    8AU       S 2845  29.787  22.346   8.719
    8AU     LIG 2846  29.950  22.404   8.921
    8AU     LIG 2847  30.040  22.460   9.146
    8AU     LIG 2848  30.146  22.427   9.383
    8AU       S 2849  29.465  22.153   8.725
    8AU     LIG 2850  29.521  22.059   9.005
    8AU     LIG 2851  29.687  22.075   9.203
    8AU     LIG 2852  29.821  22.030   9.419
    8AU       S 2853  28.840  22.643   8.757
    8AU     LIG 2854  28.803  22.667   9.059
    8AU     LIG 2855  28.685  22.652   9.261
    8AU     LIG 2856  28.537  22.629   9.479
    8AU       S 2857  29.365  23.077   8.566
    8AU     LIG 2858  29.482  23.214   8.771
    8AU     LIG 2859  29.695  23.134   8.933
    8AU     LIG 2860  29.918  23.008   8.947
    8AU       S 2861  30.057  22.969   8.334
    8AU     LIG 2862  30.240  23.009   8.555
    8AU     LIG 2863  30.380  23.166   8.669
    8AU     LIG 2864  30.556  23.342   8.744
    8AU       S 2865  29.658  22.598   6.306
    8AU     LIG 2866  29.873  22.653   6.093
    8AU     LIG 2867  30.007  22.487   5.955
    8AU     LIG 2868  30.067  22.296   5.795
    8AU       S 2869  29.873  23.298   6.652
    8AU     LIG 2870  29.919  23.491   6.462
    8AU     LIG 2871  30.082  23.581   6.288
    8AU     LIG 2872  30.247  23.672   6.123
    8AU       S 2873  30.133  22.009   6.768
    8AU     LIG 2874  30.295  21.922   6.527
    8AU     LIG 2875  30.309  21.703   6.388
    8AU     LIG 2876  30.325  21.448   6.348
    8AU       S 2877  29.579  22.303   6.240
    8AU     LIG 2878  29.601  22.179   6.011
    8AU     LIG 2879  29.588  22.106   5.771
    8AU     LIG 2880  29.659  22.086   5.521
    8AU       S 2881  28.845  22.363   6.303
    8AU     LIG 2882  28.900  22.330   6.024
    8AU     LIG 2883  28.906  22.276   5.795
    8AU     LIG 2884  28.830  22.235   5.540
    8AU       S 2885  29.415  22.744   6.264
    8AU     LIG 2886  29.316  22.678   5.973
    8AU     LIG 2887  29.458  22.603   5.780
    8AU     LIG 2888  29.651  22.595   5.607
    8AU       S 2889  28.564  22.731   8.643
    8AU     LIG 2890  28.353  22.706   8.819
    8AU     LIG 2891  28.299  22.490   8.977
    8AU     LIG 2892  28.229  22.358   9.166
    8AU       S 2893  28.595  23.289   8.268
    8AU     LIG 2894  28.509  23.444   8.501
    8AU     LIG 2895  28.368  23.455   8.694
    8AU     LIG 2896  28.199  23.544   8.877
    8AU       S 2897  28.318  22.023   8.284
    8AU     LIG 2898  28.072  21.954   8.381
    8AU     LIG 2899  27.927  21.762   8.457
    8AU     LIG 2900  27.800  21.580   8.575
    8AU       S 2901  28.889  22.351   8.684
    8AU     LIG 2902  28.812  22.175   8.887
    8AU     LIG 2903  28.699  22.155   9.105
    8AU     LIG 2904  28.654  22.141   9.361
    8AU       S 2905  28.583  22.275   6.418
    8AU     LIG 2906  28.404  22.205   6.208
    8AU     LIG 2907  28.393  22.276   5.957
    8AU     LIG 2908  28.381  22.386   5.737
    8AU       S 2909  28.617  21.727   6.745
    8AU     LIG 2910  28.543  21.540   6.540
    8AU     LIG 2911  28.385  21.498   6.354
    8AU     LIG 2912  28.201  21.449   6.184
    8AU       S 2913  28.247  22.953   6.798
    8AU     LIG 2914  28.040  23.122   6.744
    8AU     LIG 2915  27.988  23.321   6.588
    8AU     LIG 2916  27.964  23.444   6.367
    8AU       S 2917  28.745  22.631   6.393
    8AU     LIG 2918  28.578  22.732   6.139
    8AU     LIG 2919  28.661  22.769   5.913
    8AU     LIG 2920  28.769  22.749   5.679
    8AU       S 2921  30.104  23.112   6.708
    8AU     LIG 2922  30.319  23.158   6.537
    8AU     LIG 2923  30.476  23.270   6.389
    8AU     LIG 2924  30.657  23.389   6.245
    8AU       S 2925  30.356  23.088   7.556
    8AU     LIG 2926  30.569  23.292   7.540
    8AU     LIG 2927  30.813  23.336   7.511
    8AU     LIG 2928  31.066  23.399   7.532
    8AU       S 2929  30.532  22.789   7.388
    8AU     LIG 2930  30.801  22.860   7.293
    8AU     LIG 2931  31.041  22.926   7.306
    8AU     LIG 2932  31.263  23.040   7.226
    8AU       S 2933  30.396  21.910   7.790
    8AU     LIG 2934  30.631  21.808   7.920
    8AU     LIG 2935  30.884  21.803   7.859
    8AU     LIG 2936  31.133  21.771   7.780
    8AU       S 2937  30.093  23.217   8.127
    8AU     LIG 2938  30.288  23.394   8.210
    8AU     LIG 2939  30.333  23.593   8.357
    8AU     LIG 2940  30.352  23.772   8.540
    8AU       S 2941  30.503  22.821   7.663
    8AU     LIG 2942  30.741  22.892   7.814
    8AU     LIG 2943  30.978  22.959   7.811
    8AU     LIG 2944  31.208  23.049   7.878
    8AU       S 2945  28.429  23.066   8.203
    8AU     LIG 2946  28.190  23.058   8.380
    8AU     LIG 2947  28.004  23.197   8.444
    8AU     LIG 2948  27.828  23.316   8.594
    8AU       S 2949  28.596  23.490   7.463
    8AU     LIG 2950  28.436  23.698   7.335
    8AU     LIG 2951  28.190  23.678   7.239
    8AU     LIG 2952  28.002  23.521   7.123
    8AU       S 2953  28.032  22.709   7.139
    8AU     LIG 2954  27.794  22.714   7.071
    8AU     LIG 2955  27.539  22.790   7.141
    8AU     LIG 2956  27.394  23.003   7.163
    8AU       S 2957  28.462  23.363   6.929
    8AU     LIG 2958  28.389  23.571   6.787
    8AU     LIG 2959  28.247  23.750   6.702
    8AU     LIG 2960  28.116  23.905   6.537
    8AU       S 2961  27.943  22.305   7.449
    8AU     LIG 2962  27.666  22.295   7.337
    8AU     LIG 2963  27.423  22.277   7.332
    8AU     LIG 2964  27.189  22.156   7.284
    8AU       S 2965  28.134  22.624   8.097
    8AU     LIG 2966  27.821  22.728   8.182
    8AU     LIG 2967  27.704  22.940   8.094
    8AU     LIG 2968  27.524  23.087   7.968
    8AU       S 2969  30.126  21.740   7.606
    8AU     LIG 2970  30.260  21.438   7.622
    8AU     LIG 2971  30.488  21.372   7.697
    8AU     LIG 2972  30.759  21.358   7.655
    8AU       S 2973  29.970  21.679   8.066
    8AU     LIG 2974  30.217  21.543   8.105
    8AU     LIG 2975  30.347  21.455   8.287
    8AU     LIG 2976  30.394  21.385   8.537
    8AU       S 2977  30.383  21.890   7.519
    8AU     LIG 2978  30.606  21.768   7.383
    8AU     LIG 2979  30.847  21.769   7.343
    8AU     LIG 2980  31.088  21.697   7.280
    8AU       S 2981  30.075  21.747   6.925
    8AU     LIG 2982  30.140  21.487   6.822
    8AU     LIG 2983  30.013  21.264   6.774
    8AU     LIG 2984  29.972  21.045   6.659
    8AU       S 2985  28.440  21.922   6.817
    8AU     LIG 2986  28.207  21.932   6.620
    8AU     LIG 2987  28.030  21.815   6.527
    8AU     LIG 2988  27.824  21.657   6.465
    8AU       S 2989  28.025  22.014   7.583
    8AU     LIG 2990  27.808  21.848   7.588
    8AU     LIG 2991  27.581  21.800   7.482
    8AU     LIG 2992  27.348  21.696   7.441
    8AU       S 2993  28.437  21.793   8.082
    8AU     LIG 2994  28.261  21.585   8.068
    8AU     LIG 2995  28.141  21.399   8.174
    8AU     LIG 2996  28.008  21.213   8.287
    8AU       S 2997  27.967  22.309   7.713
    8AU     LIG 2998  27.733  22.281   7.888
    8AU     LIG 2999  27.494  22.189   7.835
    8AU     LIG 3000  27.285  22.054   7.809
    8AU       S 3001  28.636  23.508   7.989
    8AU     LIG 3002  28.401  23.697   8.062
    8AU     LIG 3003  28.176  23.660   8.206
    8AU     LIG 3004  28.044  23.737   8.412
    8AU       S 3005  29.379  23.694   8.053
    8AU     LIG 3006  29.490  23.881   8.255
    8AU     LIG 3007  29.378  24.071   8.380
    8AU     LIG 3008  29.233  24.272   8.444
    8AU       S 3009  29.141  23.829   7.925
    8AU     LIG 3010  29.052  24.054   7.968
    8AU     LIG 3011  29.026  24.313   7.984
    8AU     LIG 3012  29.035  24.564   8.012
    8AU       S 3013  29.306  23.672   7.131
    8AU     LIG 3014  29.372  23.941   7.146
    8AU     LIG 3015  29.406  24.173   7.130
    8AU     LIG 3016  29.469  24.416   7.042
    8AU       S 3017  29.816  23.184   8.364
    8AU     LIG 3018  29.891  23.403   8.543
    8AU     LIG 3019  29.992  23.484   8.736
    8AU     LIG 3020  30.118  23.502   8.967
    8AU       S 3021  29.518  23.745   7.734
    8AU     LIG 3022  29.550  24.018   7.718
    8AU     LIG 3023  29.525  24.228   7.875
    8AU     LIG 3024  29.537  24.412   8.040
    8AU       S 3025  29.239  21.335   8.062
    8AU     LIG 3026  29.358  21.129   8.213
    8AU     LIG 3027  29.346  20.922   8.334
    8AU     LIG 3028  29.327  20.685   8.434
    8AU       S 3029  29.722  21.568   7.902
    8AU     LIG 3030  29.826  21.264   7.827
    8AU     LIG 3031  29.986  21.130   7.925
    8AU     LIG 3032  30.198  21.030   8.057
    8AU       S 3033  28.987  21.249   7.896
    8AU     LIG 3034  28.938  20.982   7.918
    8AU     LIG 3035  28.960  20.764   8.033
    8AU     LIG 3036  28.950  20.526   8.129
    8AU       S 3037  28.581  21.875   8.386
    8AU     LIG 3038  28.454  21.657   8.570
    8AU     LIG 3039  28.317  21.483   8.640
    8AU     LIG 3040  28.180  21.289   8.762
    8AU       S 3041  29.305  21.345   7.221
    8AU     LIG 3042  29.244  21.017   7.210
    8AU     LIG 3043  29.229  20.821   7.090
    8AU     LIG 3044  29.229  20.554   7.027
    8AU       S 3045  29.319  21.298   7.758
    8AU     LIG 3046  29.419  20.996   7.712
    8AU     LIG 3047  29.432  20.799   7.838
    8AU     LIG 3048  29.426  20.553   7.941
    8AU       S 3049  29.158  23.592   6.835
    8AU     LIG 3050  29.164  23.821   6.681
    8AU     LIG 3051  29.287  24.037   6.641
    8AU     LIG 3052  29.353  24.271   6.564
    8AU       S 3053  29.997  23.368   6.958
    8AU     LIG 3054  30.195  23.572   6.901
    8AU     LIG 3055  30.354  23.646   6.721
    8AU     LIG 3056  30.502  23.768   6.558
    8AU       S 3057  28.955  23.613   7.112
    8AU     LIG 3058  28.843  23.891   7.085
    8AU     LIG 3059  28.900  24.117   6.998
    8AU     LIG 3060  28.974  24.342   6.907
    8AU       S 3061  28.517  23.023   6.654
    8AU     LIG 3062  28.457  23.158   6.415
    8AU     LIG 3063  28.467  23.388   6.319
    8AU     LIG 3064  28.440  23.627   6.239
    8AU       S 3065  28.462  21.691   7.029
    8AU     LIG 3066  28.205  21.518   6.950
    8AU     LIG 3067  28.118  21.376   6.784
    8AU     LIG 3068  28.032  21.203   6.606
    8AU       S 3069  29.375  21.384   6.941
    8AU     LIG 3070  29.492  21.205   6.769
    8AU     LIG 3071  29.465  20.995   6.646
    8AU     LIG 3072  29.389  20.757   6.582
    8AU       S 3073  29.568  21.385   7.324
    8AU     LIG 3074  29.732  21.144   7.293
    8AU     LIG 3075  29.739  20.938   7.128
    8AU     LIG 3076  29.724  20.721   6.984
    8AU       S 3077  29.829  21.894   6.673
    8AU     LIG 3078  29.815  21.716   6.470
    8AU     LIG 3079  29.805  21.488   6.376
    8AU     LIG 3080  29.856  21.285   6.221
    9AU     AUC 3081  12.153  23.282   7.535
    9AU     AUC 3082  12.405  23.287   7.369
    9AU     AUC 3083  12.394  23.274   7.699
    9AU     AUC 3084  11.883  23.290   7.380
    9AU     AUC 3085  11.909  23.319   7.705
    9AU     AUC 3086  11.992  23.535   7.513
    9AU     AUC 3087  12.339  23.547   7.516
    9AU     AUC 3088  11.974  23.028   7.543
    9AU     AUC 3089  12.305  23.006   7.545
    9AU     AUC 3090  12.147  23.122   7.798
    9AU     AUC 3091  12.166  23.462   7.779
    9AU     AUC 3092  12.140  23.109   7.287
    9AU     AUC 3093  12.160  23.415   7.271
    9AU     AUC 3094  12.708  23.278   7.204
    9AU     AUC 3095  12.716  23.258   7.545
    9AU     AUC 3096  12.674  23.245   7.899
    9AU     AUC 3097  11.581  23.264   7.228
    9AU     AUC 3098  11.580  23.323   7.556
    9AU     AUC 3099  11.609  23.362   7.888
    9AU     AUC 3100  11.827  23.848   7.474
    9AU     AUC 3101  12.187  23.822   7.457
    9AU     AUC 3102  12.553  23.810   7.487
    9AU     AUC 3103  11.770  22.739   7.548
    9AU     AUC 3104  12.121  22.715   7.529
    9AU     AUC 3105  12.477  22.704   7.546
    9AU     AUC 3106  12.106  22.956   8.101
    9AU     AUC 3107  12.143  23.298   8.101
    9AU     AUC 3108  12.200  23.662   8.062
    9AU     AUC 3109  12.171  22.919   6.997
    9AU     AUC 3110  12.119  23.260   6.973
    9AU     AUC 3111  12.116  23.583   6.957
    9AU     AUC 3112  12.388  23.060   8.012
    9AU     AUC 3113  12.444  23.436   7.987
    9AU     AUC 3114  12.443  23.122   7.072
    9AU     AUC 3115  12.408  23.434   7.079
    9AU     AUC 3116  11.854  23.180   8.000
    9AU     AUC 3117  11.901  23.530   7.971
    9AU     AUC 3118  11.865  23.079   7.103
    9AU     AUC 3119  11.819  23.407   7.083
    9AU     AUC 3120  12.646  23.550   7.346
    9AU     AUC 3121  12.612  23.547   7.705
    9AU     AUC 3122  11.687  23.562   7.383
    9AU     AUC 3123  11.732  23.628   7.713
    9AU     AUC 3124  12.609  22.999   7.407
    9AU     AUC 3125  12.557  22.953   7.739
    9AU     AUC 3126  11.688  22.976   7.373
    9AU     AUC 3127  11.714  23.050   7.716
    9AU     AUC 3128  12.052  23.780   7.782
    9AU     AUC 3129  12.391  23.735   7.793
    9AU     AUC 3130  11.939  22.847   7.817
    9AU     AUC 3131  12.257  22.794   7.809
    9AU     AUC 3132  11.962  23.713   7.215
    9AU     AUC 3133  12.327  23.729   7.226
    9AU     AUC 3134  11.993  22.815   7.258
    9AU     AUC 3135  12.353  22.860   7.274
    9AU    AUSL 3136  12.652  23.150   8.316
    9AU    AUSL 3137  12.402  22.777   8.222
    9AU     AUL 3138  12.709  22.778   8.389
    9AU    AUSL 3139  12.237  23.092   8.460
    9AU    AUSL 3140  11.999  23.501   8.451
    9AU     AUL 3141  12.235  23.376   8.710
    9AU    AUSL 3142  12.336  23.449   8.204
    9AU    AUSL 3143  12.787  23.508   8.126
    9AU     AUL 3144  12.605  23.473   8.435
    9AU    AUSL 3145  12.560  23.310   6.840
    9AU    AUSL 3146  12.421  23.706   6.981
    9AU     AUL 3147  12.635  23.638   6.681
    9AU    AUSL 3148  12.372  22.988   6.612
    9AU    AUSL 3149  12.879  23.058   6.982
    9AU     AUL 3150  12.747  23.132   6.665
    9AU    AUSL 3151  12.204  23.492   6.670
    9AU    AUSL 3152  12.026  23.106   6.829
    9AU     AUL 3153  12.157  23.185   6.524
    9AU    AUSL 3154  11.615  23.463   8.243
    9AU    AUSL 3155  11.978  23.772   8.111
    9AU     AUL 3156  11.815  23.740   8.412
    9AU    AUSL 3157  11.916  23.150   8.191
    9AU    AUSL 3158  11.467  23.073   8.105
    9AU     AUL 3159  11.524  23.162   8.341
    9AU    AUSL 3160  11.590  23.088   6.795
    9AU    AUSL 3161  11.839  22.738   6.947
    9AU     AUL 3162  11.863  22.824   6.641
    9AU    AUSL 3163  11.776  23.456   6.675
    9AU    AUSL 3164  11.496  23.437   7.050
    9AU     AUL 3165  11.379  23.318   6.776
    9AU    AUSL 3166  12.944  23.745   7.476
    9AU    AUSL 3167  12.819  23.535   7.096
    9AU     AUL 3168  13.114  23.740   7.128
    9AU    AUSL 3169  13.109  23.349   7.367
    9AU    AUSL 3170  13.058  23.051   7.768
    9AU     AUL 3171  13.320  23.135   7.571
    9AU    AUSL 3172  12.831  23.404   7.718
    9AU    AUSL 3173  12.789  23.848   7.853
    9AU     AUL 3174  13.037  23.588   7.878
    9AU    AUSL 3175  11.578  23.925   7.522
    9AU    AUSL 3176  11.615  23.677   7.878
    9AU     AUL 3177  11.306  23.922   7.745
    9AU    AUSL 3178  11.377  23.546   7.444
    9AU    AUSL 3179  11.530  23.862   7.106
    9AU     AUL 3180  11.294  23.787   7.263
    9AU    AUSL 3181  11.250  23.468   7.888
    9AU    AUSL 3182  11.217  23.162   7.349
    9AU     AUL 3183  11.095  23.479   7.590
    9AU    AUSL 3184  12.836  22.702   7.615
    9AU    AUSL 3185  12.662  22.985   7.925
    9AU     AUL 3186  12.969  22.891   8.001
    9AU    AUSL 3187  12.794  23.072   7.397
    9AU    AUSL 3188  12.784  22.670   7.188
    9AU     AUL 3189  13.028  22.880   7.250
    9AU    AUSL 3190  11.370  22.783   7.553
    9AU    AUSL 3191  11.581  22.993   7.205
    9AU     AUL 3192  11.231  22.886   7.213
    9AU    AUSL 3193  11.487  23.184   7.694
    9AU    AUSL 3194  11.677  22.800   7.849
    9AU     AUL 3195  11.296  22.953   7.848
    9AU    AUSL 3196  12.219  24.108   7.966
    9AU    AUSL 3197  11.764  24.087   7.878
    9AU     AUL 3198  11.986  24.132   8.194
    9AU    AUSL 3199  12.051  23.963   7.591
    9AU    AUSL 3200  12.302  24.096   7.247
    9AU     AUL 3201  12.071  24.303   7.554
    9AU    AUSL 3202  12.489  24.039   7.623
    9AU    AUSL 3203  12.483  23.838   8.153
    9AU     AUL 3204  12.602  24.128   7.941
    9AU    AUSL 3205  12.077  22.642   7.970
    9AU    AUSL 3206  12.501  22.583   7.849
    9AU     AUL 3207  12.262  22.521   8.223
    9AU    AUSL 3208  11.769  22.420   7.699
    9AU    AUSL 3209  11.797  22.757   8.274
    9AU     AUL 3210  11.805  22.459   8.050
    9AU    AUSL 3211  12.201  22.345   7.667
    9AU    AUSL 3212  11.994  22.590   7.362
    9AU     AUL 3213  11.877  22.245   7.487
    9AU    AUSL 3214  12.129  23.981   6.843
    9AU    AUSL 3215  12.701  23.959   7.199
    9AU     AUL 3216  12.445  24.069   6.936
    9AU    AUSL 3217  11.880  24.075   7.210
    9AU    AUSL 3218  11.903  23.664   7.014
    9AU     AUL 3219  11.810  23.970   6.856
    9AU    AUSL 3220  12.219  22.538   6.981
    9AU    AUSL 3221  11.586  22.552   7.258
    9AU     AUL 3222  11.882  22.404   7.043
    9AU    AUSL 3223  12.426  22.562   7.381
    9AU    AUSL 3224  12.449  22.895   7.018
    9AU     AUL 3225  12.543  22.522   7.050
    9AU       S 3226  12.674  22.327   8.227
    9AU     LIG 3227  12.721  22.093   8.352
    9AU     LIG 3228  12.843  21.933   8.479
    9AU     LIG 3229  13.001  21.756   8.590
    9AU       S 3230  12.708  23.117   8.719
    9AU     LIG 3231  12.871  23.175   8.921
    9AU     LIG 3232  12.961  23.231   9.146
    9AU     LIG 3233  13.067  23.198   9.383
    9AU       S 3234  12.386  22.924   8.725
    9AU     LIG 3235  12.442  22.830   9.005
    9AU     LIG 3236  12.608  22.846   9.203
    9AU     LIG 3237  12.742  22.801   9.419
    9AU       S 3238  11.761  23.414   8.757
    9AU     LIG 3239  11.724  23.438   9.059
    9AU     LIG 3240  11.606  23.423   9.261
    9AU     LIG 3241  11.458  23.400   9.479
    9AU       S 3242  12.286  23.848   8.566
    9AU     LIG 3243  12.403  23.985   8.771
    9AU     LIG 3244  12.616  23.905   8.933
    9AU     LIG 3245  12.839  23.779   8.947
    9AU       S 3246  12.978  23.740   8.334
    9AU     LIG 3247  13.161  23.780   8.555
    9AU     LIG 3248  13.301  23.937   8.669
    9AU     LIG 3249  13.477  24.113   8.744
    9AU       S 3250  12.579  23.369   6.306
    9AU     LIG 3251  12.794  23.424   6.093
    9AU     LIG 3252  12.928  23.258   5.955
    9AU     LIG 3253  12.988  23.067   5.795
    9AU       S 3254  12.794  24.069   6.652
    9AU     LIG 3255  12.840  24.262   6.462
    9AU     LIG 3256  13.003  24.352   6.288
    9AU     LIG 3257  13.168  24.443   6.123
    9AU       S 3258  13.054  22.780   6.768
    9AU     LIG 3259  13.216  22.693   6.527
    9AU     LIG 3260  13.230  22.474   6.388
    9AU     LIG 3261  13.246  22.219   6.348
    9AU       S 3262  12.500  23.074   6.240
    9AU     LIG 3263  12.522  22.950   6.011
    9AU     LIG 3264  12.509  22.877   5.771
    9AU     LIG 3265  12.580  22.857   5.521
    9AU       S 3266  11.766  23.134   6.303
    9AU     LIG 3267  11.821  23.101   6.024
    9AU     LIG 3268  11.827  23.047   5.795
    9AU     LIG 3269  11.751  23.006   5.540
    9AU       S 3270  12.336  23.515   6.264
    9AU     LIG 3271  12.237  23.449   5.973
    9AU     LIG 3272  12.379  23.374   5.780
    9AU     LIG 3273  12.572  23.366   5.607
    9AU       S 3274  11.485  23.502   8.643
    9AU     LIG 3275  11.274  23.477   8.819
    9AU     LIG 3276  11.220  23.261   8.977
    9AU     LIG 3277  11.150  23.129   9.166
    9AU       S 3278  11.516  24.060   8.268
    9AU     LIG 3279  11.430  24.215   8.501
    9AU     LIG 3280  11.289  24.226   8.694
    9AU     LIG 3281  11.120  24.315   8.877
    9AU       S 3282  11.239  22.794   8.284
    9AU     LIG 3283  10.993  22.725   8.381
    9AU     LIG 3284  10.848  22.533   8.457
    9AU     LIG 3285  10.721  22.351   8.575
    9AU       S 3286  11.810  23.122   8.684
    9AU     LIG 3287  11.733  22.946   8.887
    9AU     LIG 3288  11.620  22.926   9.105
    9AU     LIG 3289  11.575  22.912   9.361
    9AU       S 3290  11.504  23.046   6.418
    9AU     LIG 3291  11.325  22.976   6.208
    9AU     LIG 3292  11.314  23.047   5.957
    9AU     LIG 3293  11.302  23.157   5.737
    9AU       S 3294  11.538  22.498   6.745
    9AU     LIG 3295  11.464  22.311   6.540
    9AU     LIG 3296  11.306  22.269   6.354
    9AU     LIG 3297  11.122  22.220   6.184
    9AU       S 3298  11.168  23.724   6.798
    9AU     LIG 3299  10.961  23.893   6.744
    9AU     LIG 3300  10.909  24.092   6.588
    9AU     LIG 3301  10.885  24.215   6.367
    9AU       S 3302  11.666  23.402   6.393
    9AU     LIG 3303  11.499  23.503   6.139
    9AU     LIG 3304  11.582  23.540   5.913
    9AU     LIG 3305  11.690  23.520   5.679
    9AU       S 3306  13.025  23.883   6.708
    9AU     LIG 3307  13.240  23.929   6.537
    9AU     LIG 3308  13.397  24.041   6.389
    9AU     LIG 3309  13.578  24.160   6.245
    9AU       S 3310  13.277  23.859   7.556
    9AU     LIG 3311  13.490  24.063   7.540
    9AU     LIG 3312  13.734  24.107   7.511
    9AU     LIG 3313  13.987  24.170   7.532
    9AU       S 3314  13.453  23.560   7.388
    9AU     LIG 3315  13.722  23.631   7.293
    9AU     LIG 3316  13.962  23.697   7.306
    9AU     LIG 3317  14.184  23.811   7.226
    9AU       S 3318  13.317  22.681   7.790
    9AU     LIG 3319  13.552  22.579   7.920
    9AU     LIG 3320  13.805  22.574   7.859
    9AU     LIG 3321  14.054  22.542   7.780
    9AU       S 3322  13.014  23.988   8.127
    9AU     LIG 3323  13.209  24.165   8.210
    9AU     LIG 3324  13.254  24.364   8.357
    9AU     LIG 3325  13.273  24.543   8.540
    9AU       S 3326  13.424  23.592   7.663
    9AU     LIG 3327  13.662  23.663   7.814
    9AU     LIG 3328  13.899  23.730   7.811
    9AU     LIG 3329  14.129  23.820   7.878
    9AU       S 3330  11.350  23.837   8.203
    9AU     LIG 3331  11.111  23.829   8.380
    9AU     LIG 3332  10.925  23.968   8.444
    9AU     LIG 3333  10.749  24.087   8.594
    9AU       S 3334  11.517  24.261   7.463
    9AU     LIG 3335  11.357  24.469   7.335
    9AU     LIG 3336  11.111  24.449   7.239
    9AU     LIG 3337  10.923  24.292   7.123
    9AU       S 3338  10.953  23.480   7.139
    9AU     LIG 3339  10.715  23.485   7.071
    9AU     LIG 3340  10.460  23.561   7.141
    9AU     LIG 3341  10.315  23.774   7.163
    9AU       S 3342  11.383  24.134   6.929
    9AU     LIG 3343  11.310  24.342   6.787
    9AU     LIG 3344  11.168  24.521   6.702
    9AU     LIG 3345  11.037  24.676   6.537
    9AU       S 3346  10.864  23.076   7.449
    9AU     LIG 3347  10.587  23.066   7.337
    9AU     LIG 3348  10.344  23.048   7.332
    9AU     LIG 3349  10.110  22.927   7.284
    9AU       S 3350  11.055  23.395   8.097
    9AU     LIG 3351  10.742  23.499   8.182
    9AU     LIG 3352  10.625  23.711   8.094
    9AU     LIG 3353  10.445  23.858   7.968
    9AU       S 3354  13.047  22.511   7.606
    9AU     LIG 3355  13.181  22.209   7.622
    9AU     LIG 3356  13.409  22.143   7.697
    9AU     LIG 3357  13.680  22.129   7.655
    9AU       S 3358  12.891  22.450   8.066
    9AU     LIG 3359  13.138  22.314   8.105
    9AU     LIG 3360  13.268  22.226   8.287
    9AU     LIG 3361  13.315  22.156   8.537
    9AU       S 3362  13.304  22.661   7.519
    9AU     LIG 3363  13.527  22.539   7.383
    9AU     LIG 3364  13.768  22.540   7.343
    9AU     LIG 3365  14.009  22.468   7.280
    9AU       S 3366  12.996  22.518   6.925
    9AU     LIG 3367  13.061  22.258   6.822
    9AU     LIG 3368  12.934  22.035   6.774
    9AU     LIG 3369  12.893  21.816   6.659
    9AU       S 3370  11.361  22.693   6.817
    9AU     LIG 3371  11.128  22.703   6.620
    9AU     LIG 3372  10.951  22.586   6.527
    9AU     LIG 3373  10.745  22.428   6.465
    9AU       S 3374  10.946  22.785   7.583
    9AU     LIG 3375  10.729  22.619   7.588
    9AU     LIG 3376  10.502  22.571   7.482
    9AU     LIG 3377  10.269  22.467   7.441
    9AU       S 3378  11.358  22.564   8.082
    9AU     LIG 3379  11.182  22.356   8.068
    9AU     LIG 3380  11.062  22.170   8.174
    9AU     LIG 3381  10.929  21.984   8.287
    9AU       S 3382  10.888  23.080   7.713
    9AU     LIG 3383  10.654  23.052   7.888
    9AU     LIG 3384  10.415  22.960   7.835
    9AU     LIG 3385  10.206  22.825   7.809
    9AU       S 3386  11.557  24.279   7.989
    9AU     LIG 3387  11.322  24.468   8.062
    9AU     LIG 3388  11.097  24.431   8.206
    9AU     LIG 3389  10.965  24.508   8.412
    9AU       S 3390  12.300  24.465   8.053
    9AU     LIG 3391  12.411  24.652   8.255
    9AU     LIG 3392  12.299  24.842   8.380
    9AU     LIG 3393  12.154  25.043   8.444
    9AU       S 3394  12.062  24.600   7.925
    9AU     LIG 3395  11.973  24.825   7.968
    9AU     LIG 3396  11.947  25.084   7.984
    9AU     LIG 3397  11.956  25.335   8.012
    9AU       S 3398  12.227  24.443   7.131
    9AU     LIG 3399  12.293  24.712   7.146
    9AU     LIG 3400  12.327  24.944   7.130
    9AU     LIG 3401  12.390  25.187   7.042
    9AU       S 3402  12.737  23.955   8.364
    9AU     LIG 3403  12.812  24.174   8.543
    9AU     LIG 3404  12.913  24.255   8.736
    9AU     LIG 3405  13.039  24.273   8.967
    9AU       S 3406  12.439  24.516   7.734
    9AU     LIG 3407  12.471  24.789   7.718
    9AU     LIG 3408  12.446  24.999   7.875
    9AU     LIG 3409  12.458  25.183   8.040
    9AU       S 3410  12.160  22.106   8.062
    9AU     LIG 3411  12.279  21.900   8.213
    9AU     LIG 3412  12.267  21.693   8.334
    9AU     LIG 3413  12.248  21.456   8.434
    9AU       S 3414  12.643  22.339   7.902
    9AU     LIG 3415  12.747  22.035   7.827
    9AU     LIG 3416  12.907  21.901   7.925
    9AU     LIG 3417  13.119  21.801   8.057
    9AU       S 3418  11.908  22.020   7.896
    9AU     LIG 3419  11.859  21.753   7.918
    9AU     LIG 3420  11.881  21.535   8.033
    9AU     LIG 3421  11.871  21.297   8.129
    9AU       S 3422  11.502  22.646   8.386
    9AU     LIG 3423  11.375  22.428   8.570
    9AU     LIG 3424  11.238  22.254   8.640
    9AU     LIG 3425  11.101  22.060   8.762
    9AU       S 3426  12.226  22.116   7.221
    9AU     LIG 3427  12.165  21.788   7.210
    9AU     LIG 3428  12.150  21.592   7.090
    9AU     LIG 3429  12.150  21.325   7.027
    9AU       S 3430  12.240  22.069   7.758
    9AU     LIG 3431  12.340  21.767   7.712
    9AU     LIG 3432  12.353  21.570   7.838
    9AU     LIG 3433  12.347  21.324   7.941
    9AU       S 3434  12.079  24.363   6.835
    9AU     LIG 3435  12.085  24.592   6.681
    9AU     LIG 3436  12.208  24.808   6.641
    9AU     LIG 3437  12.274  25.042   6.564
    9AU       S 3438  12.918  24.139   6.958
    9AU     LIG 3439  13.116  24.343   6.901
    9AU     LIG 3440  13.275  24.417   6.721
    9AU     LIG 3441  13.423  24.539   6.558
    9AU       S 3442  11.876  24.384   7.112
    9AU     LIG 3443  11.764  24.662   7.085
    9AU     LIG 3444  11.821  24.888   6.998
    9AU     LIG 3445  11.895  25.113   6.907
    9AU       S 3446  11.438  23.794   6.654
    9AU     LIG 3447  11.378  23.929   6.415
    9AU     LIG 3448  11.388  24.159   6.319
    9AU     LIG 3449  11.361  24.398   6.239
    9AU       S 3450  11.383  22.462   7.029
    9AU     LIG 3451  11.126  22.289   6.950
    9AU     LIG 3452  11.039  22.147   6.784
    9AU     LIG 3453  10.953  21.974   6.606
    9AU       S 3454  12.296  22.155   6.941
    9AU     LIG 3455  12.413  21.976   6.769
    9AU     LIG 3456  12.386  21.766   6.646
    9AU     LIG 3457  12.310  21.528   6.582
    9AU       S 3458  12.489  22.156   7.324
    9AU     LIG 3459  12.653  21.915   7.293
    9AU     LIG 3460  12.660  21.709   7.128
    9AU     LIG 3461  12.645  21.492   6.984
    9AU       S 3462  12.750  22.665   6.673
    9AU     LIG 3463  12.736  22.487   6.470
    9AU     LIG 3464  12.726  22.259   6.376
    9AU     LIG 3465  12.777  22.056   6.221
   10AU     AUC 3466  25.398  31.184   7.535
   10AU     AUC 3467  25.650  31.189   7.369
   10AU     AUC 3468  25.639  31.176   7.699
   10AU     AUC 3469  25.128  31.192   7.380
   10AU     AUC 3470  25.154  31.221   7.705
   10AU     AUC 3471  25.237  31.437   7.513
   10AU     AUC 3472  25.584  31.449   7.516
   10AU     AUC 3473  25.219  30.930   7.543
   10AU     AUC 3474  25.550  30.908   7.545
   10AU     AUC 3475  25.392  31.024   7.798
   10AU     AUC 3476  25.411  31.364   7.779
   10AU     AUC 3477  25.385  31.011   7.287
   10AU     AUC 3478  25.405  31.317   7.271
   10AU     AUC 3479  25.953  31.180   7.204
   10AU     AUC 3480  25.961  31.160   7.545
   10AU     AUC 3481  25.919  31.147   7.899
   10AU     AUC 3482  24.826  31.166   7.228
   10AU     AUC 3483  24.825  31.225   7.556
   10AU     AUC 3484  24.854  31.264   7.888
   10AU     AUC 3485  25.072  31.750   7.474
   10AU     AUC 3486  25.432  31.724   7.457
   10AU     AUC 3487  25.798  31.712   7.487
   10AU     AUC 3488  25.015  30.641   7.548
   10AU     AUC 3489  25.366  30.617   7.529
   10AU     AUC 3490  25.722  30.606   7.546
   10AU     AUC 3491  25.351  30.858   8.101
   10AU     AUC 3492  25.388  31.200   8.101
   10AU     AUC 3493  25.445  31.564   8.062
   10AU     AUC 3494  25.416  30.821   6.997
   10AU     AUC 3495  25.364  31.162   6.973
   10AU     AUC 3496  25.361  31.485   6.957
   10AU     AUC 3497  25.633  30.962   8.012
   10AU     AUC 3498  25.689  31.338   7.987
   10AU     AUC 3499  25.688  31.024   7.072
   10AU     AUC 3500  25.653  31.336   7.079
   10AU     AUC 3501  25.099  31.082   8.000
   10AU     AUC 3502  25.146  31.432   7.971
   10AU     AUC 3503  25.110  30.981   7.103
   10AU     AUC 3504  25.064  31.309   7.083
   10AU     AUC 3505  25.891  31.452   7.346
   10AU     AUC 3506  25.857  31.449   7.705
   10AU     AUC 3507  24.932  31.464   7.383
   10AU     AUC 3508  24.977  31.530   7.713
   10AU     AUC 3509  25.854  30.901   7.407
   10AU     AUC 3510  25.802  30.855   7.739
   10AU     AUC 3511  24.933  30.878   7.373
   10AU     AUC 3512  24.959  30.952   7.716
   10AU     AUC 3513  25.297  31.682   7.782
   10AU     AUC 3514  25.636  31.637   7.793
   10AU     AUC 3515  25.184  30.749   7.817
   10AU     AUC 3516  25.502  30.696   7.809
   10AU     AUC 3517  25.207  31.615   7.215
   10AU     AUC 3518  25.572  31.631   7.226
   10AU     AUC 3519  25.238  30.717   7.258
   10AU     AUC 3520  25.598  30.762   7.274
   10AU    AUSL 3521  25.897  31.052   8.316
   10AU    AUSL 3522  25.647  30.679   8.222
   10AU     AUL 3523  25.954  30.680   8.389
   10AU    AUSL 3524  25.482  30.994   8.460
   10AU    AUSL 3525  25.244  31.403   8.451
   10AU     AUL 3526  25.480  31.278   8.710
   10AU    AUSL 3527  25.581  31.351   8.204
   10AU    AUSL 3528  26.032  31.410   8.126
   10AU     AUL 3529  25.850  31.375   8.435
   10AU    AUSL 3530  25.805  31.212   6.840
   10AU    AUSL 3531  25.666  31.608   6.981
   10AU     AUL 3532  25.880  31.540   6.681
   10AU    AUSL 3533  25.617  30.890   6.612
   10AU    AUSL 3534  26.124  30.960   6.982
   10AU     AUL 3535  25.992  31.034   6.665
   10AU    AUSL 3536  25.449  31.394   6.670
   10AU    AUSL 3537  25.271  31.008   6.829
   10AU     AUL 3538  25.402  31.087   6.524
   10AU    AUSL 3539  24.860  31.365   8.243
   10AU    AUSL 3540  25.223  31.674   8.111
   10AU     AUL 3541  25.060  31.642   8.412
   10AU    AUSL 3542  25.161  31.052   8.191
   10AU    AUSL 3543  24.712  30.975   8.105
   10AU     AUL 3544  24.769  31.064   8.341
   10AU    AUSL 3545  24.835  30.990   6.795
   10AU    AUSL 3546  25.084  30.640   6.947
   10AU     AUL 3547  25.108  30.726   6.641
   10AU    AUSL 3548  25.021  31.358   6.675
   10AU    AUSL 3549  24.741  31.339   7.050
   10AU     AUL 3550  24.624  31.220   6.776
   10AU    AUSL 3551  26.189  31.647   7.476
   10AU    AUSL 3552  26.064  31.437   7.096
   10AU     AUL 3553  26.359  31.642   7.128
   10AU    AUSL 3554  26.354  31.251   7.367
   10AU    AUSL 3555  26.303  30.953   7.768
   10AU     AUL 3556  26.565  31.037   7.571
   10AU    AUSL 3557  26.076  31.306   7.718
   10AU    AUSL 3558  26.034  31.750   7.853
   10AU     AUL 3559  26.282  31.490   7.878
   10AU    AUSL 3560  24.823  31.827   7.522
   10AU    AUSL 3561  24.860  31.579   7.878
   10AU     AUL 3562  24.551  31.824   7.745
   10AU    AUSL 3563  24.622  31.448   7.444
   10AU    AUSL 3564  24.775  31.764   7.106
   10AU     AUL 3565  24.539  31.689   7.263
   10AU    AUSL 3566  24.495  31.370   7.888
   10AU    AUSL 3567  24.462  31.064   7.349
   10AU     AUL 3568  24.340  31.381   7.590
   10AU    AUSL 3569  26.081  30.604   7.615
   10AU    AUSL 3570  25.907  30.887   7.925
   10AU     AUL 3571  26.214  30.793   8.001
   10AU    AUSL 3572  26.039  30.974   7.397
   10AU    AUSL 3573  26.029  30.572   7.188
   10AU     AUL 3574  26.273  30.782   7.250
   10AU    AUSL 3575  24.615  30.685   7.553
   10AU    AUSL 3576  24.826  30.895   7.205
   10AU     AUL 3577  24.476  30.788   7.213
   10AU    AUSL 3578  24.732  31.086   7.694
   10AU    AUSL 3579  24.922  30.702   7.849
   10AU     AUL 3580  24.541  30.855   7.848
   10AU    AUSL 3581  25.464  32.010   7.966
   10AU    AUSL 3582  25.009  31.989   7.878
   10AU     AUL 3583  25.231  32.034   8.194
   10AU    AUSL 3584  25.296  31.865   7.591
   10AU    AUSL 3585  25.547  31.998   7.247
   10AU     AUL 3586  25.316  32.205   7.554
   10AU    AUSL 3587  25.734  31.941   7.623
   10AU    AUSL 3588  25.728  31.740   8.153
   10AU     AUL 3589  25.847  32.030   7.941
   10AU    AUSL 3590  25.322  30.544   7.970
   10AU    AUSL 3591  25.746  30.485   7.849
   10AU     AUL 3592  25.507  30.423   8.223
   10AU    AUSL 3593  25.014  30.322   7.699
   10AU    AUSL 3594  25.042  30.659   8.274
   10AU     AUL 3595  25.050  30.361   8.050
   10AU    AUSL 3596  25.446  30.247   7.667
   10AU    AUSL 3597  25.239  30.492   7.362
   10AU     AUL 3598  25.122  30.147   7.487
   10AU    AUSL 3599  25.374  31.883   6.843
   10AU    AUSL 3600  25.946  31.861   7.199
   10AU     AUL 3601  25.690  31.971   6.936
   10AU    AUSL 3602  25.125  31.977   7.210
   10AU    AUSL 3603  25.148  31.566   7.014
   10AU     AUL 3604  25.055  31.872   6.856
   10AU    AUSL 3605  25.464  30.440   6.981
   10AU    AUSL 3606  24.831  30.454   7.258
   10AU     AUL 3607  25.127  30.306   7.043
   10AU    AUSL 3608  25.671  30.464   7.381
   10AU    AUSL 3609  25.694  30.797   7.018
   10AU     AUL 3610  25.788  30.424   7.050
   10AU       S 3611  25.919  30.229   8.227
   10AU     LIG 3612  25.966  29.995   8.352
   10AU     LIG 3613  26.088  29.835   8.479
   10AU     LIG 3614  26.246  29.658   8.590
   10AU       S 3615  25.953  31.019   8.719
   10AU     LIG 3616  26.116  31.077   8.921
   10AU     LIG 3617  26.206  31.133   9.146
   10AU     LIG 3618  26.312  31.100   9.383
   10AU       S 3619  25.631  30.826   8.725
   10AU     LIG 3620  25.687  30.732   9.005
   10AU     LIG 3621  25.853  30.748   9.203
   10AU     LIG 3622  25.987  30.703   9.419
   10AU       S 3623  25.006  31.316   8.757
   10AU     LIG 3624  24.969  31.340   9.059
   10AU     LIG 3625  24.851  31.325   9.261
   10AU     LIG 3626  24.703  31.302   9.479
   10AU       S 3627  25.531  31.750   8.566
   10AU     LIG 3628  25.648  31.887   8.771
   10AU     LIG 3629  25.861  31.807   8.933
   10AU     LIG 3630  26.084  31.681   8.947
   10AU       S 3631  26.223  31.642   8.334
   10AU     LIG 3632  26.406  31.682   8.555
   10AU     LIG 3633  26.546  31.839   8.669
   10AU     LIG 3634  26.722  32.015   8.744
   10AU       S 3635  25.824  31.271   6.306
   10AU     LIG 3636  26.039  31.326   6.093
   10AU     LIG 3637  26.173  31.160   5.955
   10AU     LIG 3638  26.233  30.969   5.795
   10AU       S 3639  26.039  31.971   6.652
   10AU     LIG 3640  26.085  32.164   6.462
   10AU     LIG 3641  26.248  32.254   6.288
   10AU     LIG 3642  26.413  32.345   6.123
   10AU       S 3643  26.299  30.682   6.768
   10AU     LIG 3644  26.461  30.595   6.527
   10AU     LIG 3645  26.475  30.376   6.388
   10AU     LIG 3646  26.491  30.121   6.348
   10AU       S 3647  25.745  30.976   6.240
   10AU     LIG 3648  25.767  30.852   6.011
   10AU     LIG 3649  25.754  30.779   5.771
   10AU     LIG 3650  25.825  30.759   5.521
   10AU       S 3651  25.011  31.036   6.303
   10AU     LIG 3652  25.066  31.003   6.024
   10AU     LIG 3653  25.072  30.949   5.795
   10AU     LIG 3654  24.996  30.908   5.540
   10AU       S 3655  25.581  31.417   6.264
   10AU     LIG 3656  25.482  31.351   5.973
   10AU     LIG 3657  25.624  31.276   5.780
   10AU     LIG 3658  25.817  31.268   5.607
   10AU       S 3659  24.730  31.404   8.643
   10AU     LIG 3660  24.519  31.379   8.819
   10AU     LIG 3661  24.465  31.163   8.977
   10AU     LIG 3662  24.395  31.031   9.166
   10AU       S 3663  24.761  31.962   8.268
   10AU     LIG 3664  24.675  32.117   8.501
   10AU     LIG 3665  24.534  32.128   8.694
   10AU     LIG 3666  24.365  32.217   8.877
   10AU       S 3667  24.484  30.696   8.284
   10AU     LIG 3668  24.238  30.627   8.381
   10AU     LIG 3669  24.093  30.435   8.457
   10AU     LIG 3670  23.966  30.253   8.575
   10AU       S 3671  25.055  31.024   8.684
   10AU     LIG 3672  24.978  30.848   8.887
   10AU     LIG 3673  24.865  30.828   9.105
   10AU     LIG 3674  24.820  30.814   9.361
   10AU       S 3675  24.749  30.948   6.418
   10AU     LIG 3676  24.570  30.878   6.208
   10AU     LIG 3677  24.559  30.949   5.957
   10AU     LIG 3678  24.547  31.059   5.737
   10AU       S 3679  24.783  30.400   6.745
   10AU     LIG 3680  24.709  30.213   6.540
   10AU     LIG 3681  24.551  30.171   6.354
   10AU     LIG 3682  24.367  30.122   6.184
   10AU       S 3683  24.413  31.626   6.798
   10AU     LIG 3684  24.206  31.795   6.744
   10AU     LIG 3685  24.154  31.994   6.588
   10AU     LIG 3686  24.130  32.117   6.367
   10AU       S 3687  24.911  31.304   6.393
   10AU     LIG 3688  24.744  31.405   6.139
   10AU     LIG 3689  24.827  31.442   5.913
   10AU     LIG 3690  24.935  31.422   5.679
   10AU       S 3691  26.270  31.785   6.708
   10AU     LIG 3692  26.485  31.831   6.537
   10AU     LIG 3693  26.642  31.943   6.389
   10AU     LIG 3694  26.823  32.062   6.245
   10AU       S 3695  26.522  31.761   7.556
   10AU     LIG 3696  26.735  31.965   7.540
   10AU     LIG 3697  26.979  32.009   7.511
   10AU     LIG 3698  27.232  32.072   7.532
   10AU       S 3699  26.698  31.462   7.388
   10AU     LIG 3700  26.967  31.533   7.293
   10AU     LIG 3701  27.207  31.599   7.306
   10AU     LIG 3702  27.429  31.713   7.226
   10AU       S 3703  26.562  30.583   7.790
   10AU     LIG 3704  26.797  30.481   7.920
   10AU     LIG 3705  27.050  30.476   7.859
   10AU     LIG 3706  27.299  30.444   7.780
   10AU       S 3707  26.259  31.890   8.127
   10AU     LIG 3708  26.454  32.067   8.210
   10AU     LIG 3709  26.499  32.266   8.357
   10AU     LIG 3710  26.518  32.445   8.540
   10AU       S 3711  26.669  31.494   7.663
   10AU     LIG 3712  26.907  31.565   7.814
   10AU     LIG 3713  27.144  31.632   7.811
   10AU     LIG 3714  27.374  31.722   7.878
   10AU       S 3715  24.595  31.739   8.203
   10AU     LIG 3716  24.356  31.731   8.380
   10AU     LIG 3717  24.170  31.870   8.444
   10AU     LIG 3718  23.994  31.989   8.594
   10AU       S 3719  24.762  32.163   7.463
   10AU     LIG 3720  24.602  32.371   7.335
   10AU     LIG 3721  24.356  32.351   7.239
   10AU     LIG 3722  24.168  32.194   7.123
   10AU       S 3723  24.198  31.382   7.139
   10AU     LIG 3724  23.960  31.387   7.071
   10AU     LIG 3725  23.705  31.463   7.141
   10AU     LIG 3726  23.560  31.676   7.163
   10AU       S 3727  24.628  32.036   6.929
   10AU     LIG 3728  24.555  32.244   6.787
   10AU     LIG 3729  24.413  32.423   6.702
   10AU     LIG 3730  24.282  32.578   6.537
   10AU       S 3731  24.109  30.978   7.449
   10AU     LIG 3732  23.832  30.968   7.337
   10AU     LIG 3733  23.589  30.950   7.332
   10AU     LIG 3734  23.355  30.829   7.284
   10AU       S 3735  24.300  31.297   8.097
   10AU     LIG 3736  23.987  31.401   8.182
   10AU     LIG 3737  23.870  31.613   8.094
   10AU     LIG 3738  23.690  31.760   7.968
   10AU       S 3739  26.292  30.413   7.606
   10AU     LIG 3740  26.426  30.111   7.622
   10AU     LIG 3741  26.654  30.045   7.697
   10AU     LIG 3742  26.925  30.031   7.655
   10AU       S 3743  26.136  30.352   8.066
   10AU     LIG 3744  26.383  30.216   8.105
   10AU     LIG 3745  26.513  30.128   8.287
   10AU     LIG 3746  26.560  30.058   8.537
   10AU       S 3747  26.549  30.563   7.519
   10AU     LIG 3748  26.772  30.441   7.383
   10AU     LIG 3749  27.013  30.442   7.343
   10AU     LIG 3750  27.254  30.370   7.280
   10AU       S 3751  26.241  30.420   6.925
   10AU     LIG 3752  26.306  30.160   6.822
   10AU     LIG 3753  26.179  29.937   6.774
   10AU     LIG 3754  26.138  29.718   6.659
   10AU       S 3755  24.606  30.595   6.817
   10AU     LIG 3756  24.373  30.605   6.620
   10AU     LIG 3757  24.196  30.488   6.527
   10AU     LIG 3758  23.990  30.330   6.465
   10AU       S 3759  24.191  30.687   7.583
   10AU     LIG 3760  23.974  30.521   7.588
   10AU     LIG 3761  23.747  30.473   7.482
   10AU     LIG 3762  23.514  30.369   7.441
   10AU       S 3763  24.603  30.466   8.082
   10AU     LIG 3764  24.427  30.258   8.068
   10AU     LIG 3765  24.307  30.072   8.174
   10AU     LIG 3766  24.174  29.886   8.287
   10AU       S 3767  24.133  30.982   7.713
   10AU     LIG 3768  23.899  30.954   7.888
   10AU     LIG 3769  23.660  30.862   7.835
   10AU     LIG 3770  23.451  30.727   7.809
   10AU       S 3771  24.802  32.181   7.989
   10AU     LIG 3772  24.567  32.370   8.062
   10AU     LIG 3773  24.342  32.333   8.206
   10AU     LIG 3774  24.210  32.410   8.412
   10AU       S 3775  25.545  32.367   8.053
   10AU     LIG 3776  25.656  32.554   8.255
   10AU     LIG 3777  25.544  32.744   8.380
   10AU     LIG 3778  25.399  32.945   8.444
   10AU       S 3779  25.307  32.502   7.925
   10AU     LIG 3780  25.218  32.727   7.968
   10AU     LIG 3781  25.192  32.986   7.984
   10AU     LIG 3782  25.201  33.237   8.012
   10AU       S 3783  25.472  32.345   7.131
   10AU     LIG 3784  25.538  32.614   7.146
   10AU     LIG 3785  25.572  32.846   7.130
   10AU     LIG 3786  25.635  33.089   7.042
   10AU       S 3787  25.982  31.857   8.364
   10AU     LIG 3788  26.057  32.076   8.543
   10AU     LIG 3789  26.158  32.157   8.736
   10AU     LIG 3790  26.284  32.175   8.967
   10AU       S 3791  25.684  32.418   7.734
   10AU     LIG 3792  25.716  32.691   7.718
   10AU     LIG 3793  25.691  32.901   7.875
   10AU     LIG 3794  25.703  33.085   8.040
   10AU       S 3795  25.405  30.008   8.062
   10AU     LIG 3796  25.524  29.802   8.213
   10AU     LIG 3797  25.512  29.595   8.334
   10AU     LIG 3798  25.493  29.358   8.434
   10AU       S 3799  25.888  30.241   7.902
   10AU     LIG 3800  25.992  29.937   7.827
   10AU     LIG 3801  26.152  29.803   7.925
   10AU     LIG 3802  26.364  29.703   8.057
   10AU       S 3803  25.153  29.922   7.896
   10AU     LIG 3804  25.104  29.655   7.918
   10AU     LIG 3805  25.126  29.437   8.033
   10AU     LIG 3806  25.116  29.199   8.129
   10AU       S 3807  24.747  30.548   8.386
   10AU     LIG 3808  24.620  30.330   8.570
   10AU     LIG 3809  24.483  30.156   8.640
   10AU     LIG 3810  24.346  29.962   8.762
   10AU       S 3811  25.471  30.018   7.221
   10AU     LIG 3812  25.410  29.690   7.210
   10AU     LIG 3813  25.395  29.494   7.090
   10AU     LIG 3814  25.395  29.227   7.027
   10AU       S 3815  25.485  29.971   7.758
   10AU     LIG 3816  25.585  29.669   7.712
   10AU     LIG 3817  25.598  29.472   7.838
   10AU     LIG 3818  25.592  29.226   7.941
   10AU       S 3819  25.324  32.265   6.835
   10AU     LIG 3820  25.330  32.494   6.681
   10AU     LIG 3821  25.453  32.710   6.641
   10AU     LIG 3822  25.519  32.944   6.564
   10AU       S 3823  26.163  32.041   6.958
   10AU     LIG 3824  26.361  32.245   6.901
   10AU     LIG 3825  26.520  32.319   6.721
   10AU     LIG 3826  26.668  32.441   6.558
   10AU       S 3827  25.121  32.286   7.112
   10AU     LIG 3828  25.009  32.564   7.085
   10AU     LIG 3829  25.066  32.790   6.998
   10AU     LIG 3830  25.140  33.015   6.907
   10AU       S 3831  24.683  31.696   6.654
   10AU     LIG 3832  24.623  31.831   6.415
   10AU     LIG 3833  24.633  32.061   6.319
   10AU     LIG 3834  24.606  32.300   6.239
   10AU       S 3835  24.628  30.364   7.029
   10AU     LIG 3836  24.371  30.191   6.950
   10AU     LIG 3837  24.284  30.049   6.784
   10AU     LIG 3838  24.198  29.876   6.606
   10AU       S 3839  25.541  30.057   6.941
   10AU     LIG 3840  25.658  29.878   6.769
   10AU     LIG 3841  25.631  29.668   6.646
   10AU     LIG 3842  25.555  29.430   6.582
   10AU       S 3843  25.734  30.058   7.324
   10AU     LIG 3844  25.898  29.817   7.293
   10AU     LIG 3845  25.905  29.611   7.128
   10AU     LIG 3846  25.890  29.394   6.984
   10AU       S 3847  25.995  30.567   6.673
   10AU     LIG 3848  25.981  30.389   6.470
   10AU     LIG 3849  25.971  30.161   6.376
   10AU     LIG 3850  26.022  29.958   6.221
   11POPC   NC3 3851  29.896  15.204   9.464
   11POPC   PO4 3852  29.951  15.191   9.164
   11POPC   GL1 3853  29.917  15.225   8.864
   11POPC   GL2 3854  29.809  15.235   8.864
   11POPC   C1A 3855  29.888  15.138   8.564
   11POPC   D2A 3856  29.951  15.146   8.264
   11POPC   C3A 3857  29.928  15.132   7.964
   11POPC   C4A 3858  29.918  15.176   7.664
   11POPC   C1B 3859  29.683  15.356   8.564
   11POPC   C2B 3860  29.673  15.348   8.264
   11POPC   C3B 3861  29.717  15.325   7.964
   11POPC   C4B 3862  29.758  15.320   7.664
   12POPC   NC3 3863   7.445  40.751   9.464
   12POPC   PO4 3864   7.378  40.737   9.164
   12POPC   GL1 3865   7.396  40.778   8.864
   12POPC   GL2 3866   7.328  40.836   8.864
   12POPC   C1A 3867   7.465  40.804   8.564
   12POPC   D2A 3868   7.381  40.815   8.264
   12POPC   C3A 3869   7.382  40.767   7.964
   12POPC   C4A 3870   7.438  40.751   7.664
   12POPC   C1B 3871   7.195  40.788   8.564
   12POPC   C2B 3872   7.137  40.812   8.264
   12POPC   C3B 3873   7.133  40.770   7.964
   12POPC   C4B 3874   7.147  40.758   7.664
   13POPC   NC3 3875  15.204   9.754   9.464
   13POPC   PO4 3876  15.139   9.712   9.164
   13POPC   GL1 3877  15.195   9.720   8.864
   13POPC   GL2 3878  15.107   9.790   8.864
   13POPC   C1A 3879  15.193   9.706   8.564
   13POPC   D2A 3880  15.201   9.705   8.264
   13POPC   C3A 3881  15.172   9.711   7.964
   13POPC   C4A 3882  15.170   9.783   7.664
   13POPC   C1B 3883  14.986   9.835   8.564
   13POPC   C2B 3884  14.917   9.858   8.264
   13POPC   C3B 3885  14.970   9.807   7.964
   13POPC   C4B 3886  14.983   9.820   7.664
   14POPC   NC3 3887  39.278  43.893   9.464
   14POPC   PO4 3888  39.242  43.861   9.164
   14POPC   GL1 3889  39.187  43.906   8.864
   14POPC   GL2 3890  39.102  43.951   8.864
   14POPC   C1A 3891  39.182  43.907   8.564
   14POPC   D2A 3892  39.198  43.863   8.264
   14POPC   C3A 3893  39.207  43.921   7.964
   14POPC   C4A 3894  39.186  43.872   7.664
   14POPC   C1B 3895  39.064  44.020   8.564
   14POPC   C2B 3896  39.009  44.054   8.264
   14POPC   C3B 3897  39.031  44.010   7.964
   14POPC   C4B 3898  39.018  44.021   7.664
   15POPC   NC3 3899  44.671   1.972   9.464
   15POPC   PO4 3900  44.689   1.966   9.164
   15POPC   GL1 3901  44.645   1.956   8.864
   15POPC   GL2 3902  44.668   2.094   8.864
   15POPC   C1A 3903  44.654   1.947   8.564
   15POPC   D2A 3904  44.655   1.998   8.264
   15POPC   C3A 3905  44.653   2.032   7.964
   15POPC   C4A 3906  44.661   2.014   7.664
   15POPC   C1B 3907  44.668   2.237   8.564
   15POPC   C2B 3908  44.641   2.228   8.264
   15POPC   C3B 3909  44.626   2.227   7.964
   15POPC   C4B 3910  44.622   2.261   7.664
   16POPC   NC3 3911  19.852  19.838   9.464
   16POPC   PO4 3912  19.883  19.787   9.164
   16POPC   GL1 3913  19.832  19.865   8.864
   16POPC   GL2 3914  19.877  19.988   8.864
   16POPC   C1A 3915  19.874  19.858   8.564
   16POPC   D2A 3916  19.884  19.878   8.264
   16POPC   C3A 3917  19.845  19.880   7.964
   16POPC   C4A 3918  19.851  19.876   7.664
   16POPC   C1B 3919  19.947  20.032   8.564
   16POPC   C2B 3920  19.897  20.072   8.264
   16POPC   C3B 3921  19.944  20.069   7.964
   16POPC   C4B 3922  19.981  20.111   7.664
   17POPC   NC3 3923  26.805  43.073   9.464
   17POPC   PO4 3924  26.790  43.070   9.164
   17POPC   GL1 3925  26.859  43.061   8.864
   17POPC   GL2 3926  26.853  43.259   8.864
   17POPC   C1A 3927  26.783  43.153   8.564
   17POPC   D2A 3928  26.772  43.129   8.264
   17POPC   C3A 3929  26.831  43.118   7.964
   17POPC   C4A 3930  26.797  43.074   7.664
   17POPC   C1B 3931  26.848  43.359   8.564
   17POPC   C2B 3932  26.800  43.344   8.264
   17POPC   C3B 3933  26.858  43.376   7.964
   17POPC   C4B 3934  26.867  43.393   7.664
   18POPC   NC3 3935  22.937  33.073   9.464
   18POPC   PO4 3936  22.962  32.974   9.164
   18POPC   GL1 3937  22.953  33.020   8.864
   18POPC   GL2 3938  22.867  32.952   8.864
   18POPC   C1A 3939  22.912  32.992   8.564
   18POPC   D2A 3940  22.910  33.026   8.264
   18POPC   C3A 3941  22.908  33.048   7.964
   18POPC   C4A 3942  22.984  33.050   7.664
   18POPC   C1B 3943  22.757  32.830   8.564
   18POPC   C2B 3944  22.766  32.820   8.264
   18POPC   C3B 3945  22.712  32.903   7.964
   18POPC   C4B 3946  22.715  32.907   7.664
   19POPC   NC3 3947   3.553  22.167   9.464
   19POPC   PO4 3948   3.499  22.164   9.164
   19POPC   GL1 3949   3.572  22.175   8.864
   19POPC   GL2 3950   3.651  22.072   8.864
   19POPC   C1A 3951   3.527  22.114   8.564
   19POPC   D2A 3952   3.555  22.191   8.264
   19POPC   C3A 3953   3.582  22.166   7.964
   19POPC   C4A 3954   3.504  22.200   7.664
   19POPC   C1B 3955   3.799  22.088   8.564
   19POPC   C2B 3956   3.770  22.031   8.264
   19POPC   C3B 3957   3.748  22.073   7.964
   19POPC   C4B 3958   3.824  22.108   7.664
   20POPC   NC3 3959  18.332  28.412   9.464
   20POPC   PO4 3960  18.283  28.350   9.164
   20POPC   GL1 3961  18.259  28.348   8.864
   20POPC   GL2 3962  18.417  28.408   8.864
   20POPC   C1A 3963  18.239  28.387   8.564
   20POPC   D2A 3964  18.275  28.349   8.264
   20POPC   C3A 3965  18.306  28.403   7.964
   20POPC   C4A 3966  18.240  28.409   7.664
   20POPC   C1B 3967  18.497  28.334   8.564
   20POPC   C2B 3968  18.532  28.374   8.264
   20POPC   C3B 3969  18.532  28.311   7.964
   20POPC   C4B 3970  18.543  28.319   7.664
   21POPC   NC3 3971  39.232   1.253   9.464
   21POPC   PO4 3972  39.184   1.234   9.164
   21POPC   GL1 3973  39.195   1.255   8.864
   21POPC   GL2 3974  39.330   1.213   8.864
   21POPC   C1A 3975  39.203   1.237   8.564
   21POPC   D2A 3976  39.230   1.228   8.264
   21POPC   C3A 3977  39.222   1.247   7.964
   21POPC   C4A 3978  39.248   1.206   7.664
   21POPC   C1B 3979  39.482   1.297   8.564
   21POPC   C2B 3980  39.501   1.297   8.264
   21POPC   C3B 3981  39.508   1.249   7.964
   21POPC   C4B 3982  39.422   1.315   7.664
   22POPC   NC3 3983   3.543  33.835   9.464
   22POPC   PO4 3984   3.506  33.828   9.164
   22POPC   GL1 3985   3.496  33.823   8.864
   22POPC   GL2 3986   3.416  33.743   8.864
   22POPC   C1A 3987   3.559  33.790   8.564
   22POPC   D2A 3988   3.536  33.813   8.264
   22POPC   C3A 3989   3.510  33.805   7.964
   22POPC   C4A 3990   3.559  33.833   7.664
   22POPC   C1B 3991   3.307  33.753   8.564
   22POPC   C2B 3992   3.261  33.677   8.264
   22POPC   C3B 3993   3.258  33.758   7.964
   22POPC   C4B 3994   3.295  33.750   7.664
   23POPC   NC3 3995   2.756   5.080   9.464
   23POPC   PO4 3996   2.779   5.108   9.164
   23POPC   GL1 3997   2.778   5.083   8.864
   23POPC   GL2 3998   2.661   4.988   8.864
   23POPC   C1A 3999   2.724   5.098   8.564
   23POPC   D2A 4000   2.732   5.049   8.264
   23POPC   C3A 4001   2.766   5.048   7.964
   23POPC   C4A 4002   2.720   5.055   7.664
   23POPC   C1B 4003   2.568   4.860   8.564
   23POPC   C2B 4004   2.579   4.847   8.264
   23POPC   C3B 4005   2.625   4.942   7.964
   23POPC   C4B 4006   2.641   4.919   7.664
   24POPC   NC3 4007  34.611  21.380   9.464
   24POPC   PO4 4008  34.550  21.346   9.164
   24POPC   GL1 4009  34.579  21.434   8.864
   24POPC   GL2 4010  34.557  21.514   8.864
   24POPC   C1A 4011  34.551  21.338   8.564
   24POPC   D2A 4012  34.583  21.393   8.264
   24POPC   C3A 4013  34.615  21.434   7.964
   24POPC   C4A 4014  34.610  21.384   7.664
   24POPC   C1B 4015  34.628  21.651   8.564
   24POPC   C2B 4016  34.625  21.599   8.264
   24POPC   C3B 4017  34.626  21.666   7.964
   24POPC   C4B 4018  34.666  21.661   7.664
   25POPC   NC3 4019  16.740  43.911   9.464
   25POPC   PO4 4020  16.709  43.900   9.164
   25POPC   GL1 4021  16.777  43.874   8.864
   25POPC   GL2 4022  16.672  43.788   8.864
   25POPC   C1A 4023  16.748  43.867   8.564
   25POPC   D2A 4024  16.762  43.857   8.264
   25POPC   C3A 4025  16.778  43.869   7.964
   25POPC   C4A 4026  16.766  43.859   7.664
   25POPC   C1B 4027  16.521  43.758   8.564
   25POPC   C2B 4028  16.562  43.696   8.264
   25POPC   C3B 4029  16.512  43.699   7.964
   25POPC   C4B 4030  16.587  43.751   7.664
   26POPC   NC3 4031  41.579   3.581   9.464
   26POPC   PO4 4032  41.551   3.507   9.164
   26POPC   GL1 4033  41.569   3.502   8.864
   26POPC   GL2 4034  41.459   3.598   8.864
   26POPC   C1A 4035  41.577   3.506   8.564
   26POPC   D2A 4036  41.608   3.563   8.264
   26POPC   C3A 4037  41.520   3.511   7.964
   26POPC   C4A 4038  41.574   3.578   7.664
   26POPC   C1B 4039  41.356   3.702   8.564
   26POPC   C2B 4040  41.330   3.622   8.264
   26POPC   C3B 4041  41.324   3.686   7.964
   26POPC   C4B 4042  41.349   3.697   7.664
   27POPC   NC3 4043  41.583  14.440   9.464
   27POPC   PO4 4044  41.541  14.355   9.164
   27POPC   GL1 4045  41.514  14.447   8.864
   27POPC   GL2 4046  41.456  14.317   8.864
   27POPC   C1A 4047  41.579  14.449   8.564
   27POPC   D2A 4048  41.539  14.438   8.264
   27POPC   C3A 4049  41.605  14.404   7.964
   27POPC   C4A 4050  41.558  14.402   7.664
   27POPC   C1B 4051  41.408  14.220   8.564
   27POPC   C2B 4052  41.421  14.232   8.264
   27POPC   C3B 4053  41.376  14.189   7.964
   27POPC   C4B 4054  41.378  14.163   7.664
   28POPC   NC3 4055  25.313   3.585   9.464
   28POPC   PO4 4056  25.285   3.584   9.164
   28POPC   GL1 4057  25.302   3.509   8.864
   28POPC   GL2 4058  25.204   3.622   8.864
   28POPC   C1A 4059  25.258   3.546   8.564
   28POPC   D2A 4060  25.247   3.558   8.264
   28POPC   C3A 4061  25.233   3.547   7.964
   28POPC   C4A 4062  25.301   3.539   7.664
   28POPC   C1B 4063  25.086   3.679   8.564
   28POPC   C2B 4064  25.056   3.665   8.264
   28POPC   C3B 4065  25.041   3.672   7.964
   28POPC   C4B 4066  25.075   3.668   7.664
   29POPC   NC3 4067  20.569  13.666   9.464
   29POPC   PO4 4068  20.642  13.632   9.164
   29POPC   GL1 4069  20.633  13.610   8.864
   29POPC   GL2 4070  20.708  13.701   8.864
   29POPC   C1A 4071  20.623  13.585   8.564
   29POPC   D2A 4072  20.633  13.638   8.264
   29POPC   C3A 4073  20.583  13.662   7.964
   29POPC   C4A 4074  20.618  13.606   7.664
   29POPC   C1B 4075  20.741  13.824   8.564
   29POPC   C2B 4076  20.754  13.852   8.264
   29POPC   C3B 4077  20.774  13.852   7.964
   29POPC   C4B 4078  20.822  13.803   7.664
   30POPC   NC3 4079  36.131  24.503   9.464
   30POPC   PO4 4080  36.135  24.477   9.164
   30POPC   GL1 4081  36.152  24.488   8.864
   30POPC   GL2 4082  36.050  24.339   8.864
   30POPC   C1A 4083  36.115  24.474   8.564
   30POPC   D2A 4084  36.080  24.479   8.264
   30POPC   C3A 4085  36.131  24.477   7.964
   30POPC   C4A 4086  36.161  24.517   7.664
   30POPC   C1B 4087  36.058  24.288   8.564
   30POPC   C2B 4088  36.053  24.239   8.264
   30POPC   C3B 4089  36.047  24.298   7.964
   30POPC   C4B 4090  36.003  24.256   7.664
   31POPC   NC3 4091  28.334  27.603   9.464
   31POPC   PO4 4092  28.409  27.584   9.164
   31POPC   GL1 4093  28.389  27.603   8.864
   31POPC   GL2 4094  28.537  27.543   8.864
   31POPC   C1A 4095  28.415  27.577   8.564
   31POPC   D2A 4096  28.337  27.564   8.264
   31POPC   C3A 4097  28.417  27.627   7.964
   31POPC   C4A 4098  28.417  27.629   7.664
   31POPC   C1B 4099  28.566  27.549   8.564
   31POPC   C2B 4100  28.651  27.563   8.264
   31POPC   C3B 4101  28.632  27.516   7.964
   31POPC   C4B 4102  28.639  27.590   7.664
   32POPC   NC3 4103  30.740   3.505   9.464
   32POPC   PO4 4104  30.652   3.545   9.164
   32POPC   GL1 4105  30.698   3.560   8.864
   32POPC   GL2 4106  30.655   3.415   8.864
   32POPC   C1A 4107  30.709   3.535   8.564
   32POPC   D2A 4108  30.716   3.546   8.264
   32POPC   C3A 4109  30.737   3.537   7.964
   32POPC   C4A 4110  30.706   3.546   7.664
   32POPC   C1B 4111  30.575   3.283   8.564
   32POPC   C2B 4112  30.543   3.331   8.264
   32POPC   C3B 4113  30.542   3.353   7.964
   32POPC   C4B 4114  30.548   3.294   7.664
   33POPC   NC3 4115  37.706  33.804   9.464
   33POPC   PO4 4116  37.722  33.823   9.164
   33POPC   GL1 4117  37.683  33.843   8.864
   33POPC   GL2 4118  37.716  33.710   8.864
   33POPC   C1A 4119  37.729  33.762   8.564
   33POPC   D2A 4120  37.694  33.768   8.264
   33POPC   C3A 4121  37.686  33.766   7.964
   33POPC   C4A 4122  37.645  33.781   7.664
   33POPC   C1B 4123  37.739  33.564   8.564
   33POPC   C2B 4124  37.691  33.579   8.264
   33POPC   C3B 4125  37.781  33.587   7.964
   33POPC   C4B 4126  37.701  33.586   7.664
   34POPC   NC3 4127   0.480  15.136   9.464
   34POPC   PO4 4128   0.409  15.146   9.164
   34POPC   GL1 4129   0.428  15.178   8.864
   34POPC   GL2 4130   0.518  15.050   8.864
   34POPC   C1A 4131   0.438  15.180   8.564
   34POPC   D2A 4132   0.465  15.209   8.264
   34POPC   C3A 4133   0.459  15.162   7.964
   34POPC   C4A 4134   0.455  15.170   7.664
   34POPC   C1B 4135   0.590  15.023   8.564
   34POPC   C2B 4136   0.635  15.011   8.264
   34POPC   C3B 4137   0.574  14.974   7.964
   34POPC   C4B 4138   0.659  14.969   7.664
   35POPC   NC3 4139  21.378  39.979   9.464
   35POPC   PO4 4140  21.424  39.987   9.164
   35POPC   GL1 4141  21.387  40.031   8.864
   35POPC   GL2 4142  21.513  40.002   8.864
   35POPC   C1A 4143  21.369  39.963   8.564
   35POPC   D2A 4144  21.388  40.054   8.264
   35POPC   C3A 4145  21.405  39.970   7.964
   35POPC   C4A 4146  21.392  39.963   7.664
   35POPC   C1B 4147  21.591  39.926   8.564
   35POPC   C2B 4148  21.661  39.945   8.264
   35POPC   C3B 4149  21.672  39.954   7.964
   35POPC   C4B 4150  21.666  39.897   7.664
   36POPC   NC3 4151  39.264  27.602   9.464
   36POPC   PO4 4152  39.208  27.596   9.164
   36POPC   GL1 4153  39.214  27.620   8.864
   36POPC   GL2 4154  39.196  27.679   8.864
   36POPC   C1A 4155  39.209  27.580   8.564
   36POPC   D2A 4156  39.254  27.623   8.264
   36POPC   C3A 4157  39.271  27.613   7.964
   36POPC   C4A 4158  39.242  27.602   7.664
   36POPC   C1B 4159  39.100  27.791   8.564
   36POPC   C2B 4160  39.111  27.818   8.264
   36POPC   C3B 4161  39.148  27.804   7.964
   36POPC   C4B 4162  39.120  27.819   7.664
   37POPC   NC3 4163  12.039  34.531   9.464
   37POPC   PO4 4164  12.083  34.536   9.164
   37POPC   GL1 4165  12.111  34.595   8.864
   37POPC   GL2 4166  12.142  34.614   8.864
   37POPC   C1A 4167  12.090  34.569   8.564
   37POPC   D2A 4168  12.114  34.555   8.264
   37POPC   C3A 4169  12.065  34.584   7.964
   37POPC   C4A 4170  12.067  34.528   7.664
   37POPC   C1B 4171  12.286  34.703   8.564
   37POPC   C2B 4172  12.246  34.698   8.264
   37POPC   C3B 4173  12.296  34.726   7.964
   37POPC   C4B 4174  12.303  34.711   7.664
   38POPC   NC3 4175  20.576  30.674   9.464
   38POPC   PO4 4176  20.658  30.658   9.164
   38POPC   GL1 4177  20.573  30.658   8.864
   38POPC   GL2 4178  20.481  30.767   8.864
   38POPC   C1A 4179  20.617  30.651   8.564
   38POPC   D2A 4180  20.600  30.730   8.264
   38POPC   C3A 4181  20.589  30.677   7.964
   38POPC   C4A 4182  20.660  30.721   7.664
   38POPC   C1B 4183  20.320  30.715   8.564
   38POPC   C2B 4184  20.380  30.734   8.264
   38POPC   C3B 4185  20.377  30.803   7.964
   38POPC   C4B 4186  20.394  30.775   7.664
   39POPC   NC3 4187  39.186  26.850   9.464
   39POPC   PO4 4188  39.236  26.820   9.164
   39POPC   GL1 4189  39.243  26.837   8.864
   39POPC   GL2 4190  39.204  26.969   8.864
   39POPC   C1A 4191  39.277  26.847   8.564
   39POPC   D2A 4192  39.237  26.790   8.264
   39POPC   C3A 4193  39.260  26.861   7.964
   39POPC   C4A 4194  39.207  26.861   7.664
   39POPC   C1B 4195  39.259  27.052   8.564
   39POPC   C2B 4196  39.226  27.064   8.264
   39POPC   C3B 4197  39.210  27.106   7.964
   39POPC   C4B 4198  39.229  27.037   7.664
   40POPC   NC3 4199  26.078  43.849   9.464
   40POPC   PO4 4200  26.032  43.862   9.164
   40POPC   GL1 4201  25.994  43.915   8.864
   40POPC   GL2 4202  26.162  43.877   8.864
   40POPC   C1A 4203  26.014  43.856   8.564
   40POPC   D2A 4204  26.018  43.859   8.264
   40POPC   C3A 4205  26.080  43.893   7.964
   40POPC   C4A 4206  26.008  43.865   7.664
   40POPC   C1B 4207  26.327  43.997   8.564
   40POPC   C2B 4208  26.322  43.907   8.264
   40POPC   C3B 4209  26.239  43.959   7.964
   40POPC   C4B 4210  26.253  43.981   7.664
   41POPC   NC3 4211  12.823  36.883   9.464
   41POPC   PO4 4212  12.843  36.887   9.164
   41POPC   GL1 4213  12.820  36.910   8.864
   41POPC   GL2 4214  12.939  36.979   8.864
   41POPC   C1A 4215  12.828  36.865   8.564
   41POPC   D2A 4216  12.842  36.869   8.264
   41POPC   C3A 4217  12.822  36.870   7.964
   41POPC   C4A 4218  12.828  36.921   7.664
   41POPC   C1B 4219  13.066  37.071   8.564
   41POPC   C2B 4220  13.007  37.025   8.264
   41POPC   C3B 4221  13.088  37.026   7.964
   41POPC   C4B 4222  13.048  37.009   7.664
   42POPC   NC3 4223  32.291  39.274   9.464
   42POPC   PO4 4224  32.238  39.183   9.164
   42POPC   GL1 4225  32.217  39.212   8.864
   42POPC   GL2 4226  32.345  39.279   8.864
   42POPC   C1A 4227  32.199  39.263   8.564
   42POPC   D2A 4228  32.270  39.210   8.264
   42POPC   C3A 4229  32.242  39.250   7.964
   42POPC   C4A 4230  32.247  39.240   7.664
   42POPC   C1B 4231  32.472  39.225   8.564
   42POPC   C2B 4232  32.482  39.278   8.264
   42POPC   C3B 4233  32.504  39.228   7.964
   42POPC   C4B 4234  32.545  39.203   7.664
   43POPC   NC3 4235   0.428  12.852   9.464
   43POPC   PO4 4236   0.460  12.871   9.164
   43POPC   GL1 4237   0.470  12.896   8.864
   43POPC   GL2 4238   0.520  12.768   8.864
   43POPC   C1A 4239   0.389  12.814   8.564
   43POPC   D2A 4240   0.456  12.823   8.264
   43POPC   C3A 4241   0.466  12.803   7.964
   43POPC   C4A 4242   0.442  12.819   7.664
   43POPC   C1B 4243   0.479  12.641   8.564
   43POPC   C2B 4244   0.488  12.660   8.264
   43POPC   C3B 4245   0.536  12.597   7.964
   43POPC   C4B 4246   0.548  12.665   7.664
   44POPC   NC3 4247  39.184  25.249   9.464
   44POPC   PO4 4248  39.213  25.272   9.164
   44POPC   GL1 4249  39.214  25.276   8.864
   44POPC   GL2 4250  39.281  25.376   8.864
   44POPC   C1A 4251  39.271  25.264   8.564
   44POPC   D2A 4252  39.270  25.235   8.264
   44POPC   C3A 4253  39.192  25.261   7.964
   44POPC   C4A 4254  39.192  25.266   7.664
   44POPC   C1B 4255  39.404  25.438   8.564
   44POPC   C2B 4256  39.401  25.443   8.264
   44POPC   C3B 4257  39.383  25.488   7.964
   44POPC   C4B 4258  39.420  25.450   7.664
   45POPC   NC3 4259  11.331  12.855   9.464
   45POPC   PO4 4260  11.280  12.803   9.164
   45POPC   GL1 4261  11.283  12.827   8.864
   45POPC   GL2 4262  11.236  12.969   8.864
   45POPC   C1A 4263  11.313  12.831   8.564
   45POPC   D2A 4264  11.310  12.831   8.264
   45POPC   C3A 4265  11.258  12.848   7.964
   45POPC   C4A 4266  11.326  12.808   7.664
   45POPC   C1B 4267  11.176  13.043   8.564
   45POPC   C2B 4268  11.174  13.067   8.264
   45POPC   C3B 4269  11.246  13.105   7.964
   45POPC   C4B 4270  11.259  13.045   7.664
   46POPC   NC3 4271  11.251  21.426   9.464
   46POPC   PO4 4272  11.278  21.394   9.164
   46POPC   GL1 4273  11.278  21.379   8.864
   46POPC   GL2 4274  11.367  21.512   8.864
   46POPC   C1A 4275  11.306  21.353   8.564
   46POPC   D2A 4276  11.312  21.341   8.264
   46POPC   C3A 4277  11.310  21.408   7.964
   46POPC   C4A 4278  11.265  21.399   7.664
   46POPC   C1B 4279  11.447  21.601   8.564
   46POPC   C2B 4280  11.418  21.593   8.264
   46POPC   C3B 4281  11.424  21.586   7.964
   46POPC   C4B 4282  11.412  21.631   7.664
   47POPC   NC3 4283  25.259  15.215   9.464
   47POPC   PO4 4284  25.306  15.188   9.164
   47POPC   GL1 4285  25.224  15.137   8.864
   47POPC   GL2 4286  25.168  15.221   8.864
   47POPC   C1A 4287  25.270  15.151   8.564
   47POPC   D2A 4288  25.217  15.181   8.264
   47POPC   C3A 4289  25.244  15.144   7.964
   47POPC   C4A 4290  25.277  15.226   7.664
   47POPC   C1B 4291  25.054  15.146   8.564
   47POPC   C2B 4292  25.026  15.223   8.264
   47POPC   C3B 4293  25.065  15.198   7.964
   47POPC   C4B 4294  25.046  15.208   7.664
   48POPC   NC3 4295   3.522  10.498   9.464
   48POPC   PO4 4296   3.511  10.497   9.164
   48POPC   GL1 4297   3.508  10.543   8.864
   48POPC   GL2 4298   3.398  10.535   8.864
   48POPC   C1A 4299   3.573  10.491   8.564
   48POPC   D2A 4300   3.511  10.554   8.264
   48POPC   C3A 4301   3.560  10.529   7.964
   48POPC   C4A 4302   3.522  10.517   7.664
   48POPC   C1B 4303   3.261  10.461   8.564
   48POPC   C2B 4304   3.302  10.492   8.264
   48POPC   C3B 4305   3.254  10.503   7.964
   48POPC   C4B 4306   3.292  10.467   7.664
   49POPC   NC3 4307  12.894  34.584   9.464
   49POPC   PO4 4308  12.888  34.541   9.164
   49POPC   GL1 4309  12.889  34.558   8.864
   49POPC   GL2 4310  12.830  34.674   8.864
   49POPC   C1A 4311  12.836  34.562   8.564
   49POPC   D2A 4312  12.820  34.609   8.264
   49POPC   C3A 4313  12.831  34.597   7.964
   49POPC   C4A 4314  12.899  34.617   7.664
   49POPC   C1B 4315  12.870  34.849   8.564
   49POPC   C2B 4316  12.898  34.859   8.264
   49POPC   C3B 4317  12.858  34.856   7.964
   49POPC   C4B 4318  12.893  34.875   7.664
   50POPC   NC3 4319  25.233  23.760   9.464
   50POPC   PO4 4320  25.243  23.761   9.164
   50POPC   GL1 4321  25.261  23.693   8.864
   50POPC   GL2 4322  25.349  23.651   8.864
   50POPC   C1A 4323  25.258  23.677   8.564
   50POPC   D2A 4324  25.232  23.667   8.264
   50POPC   C3A 4325  25.226  23.708   7.964
   50POPC   C4A 4326  25.284  23.749   7.664
   50POPC   C1B 4327  25.332  23.447   8.564
   50POPC   C2B 4328  25.372  23.456   8.264
   50POPC   C3B 4329  25.338  23.507   7.964
   50POPC   C4B 4330  25.394  23.446   7.664
   51POPC   NC3 4331  41.594   0.482   9.464
   51POPC   PO4 4332  41.607   0.391   9.164
   51POPC   GL1 4333  41.565   0.483   8.864
   51POPC   GL2 4334  41.495   0.529   8.864
   51POPC   C1A 4335  41.603   0.391   8.564
   51POPC   D2A 4336  41.570   0.430   8.264
   51POPC   C3A 4337  41.607   0.416   7.964
   51POPC   C4A 4338  41.562   0.444   7.664
   51POPC   C1B 4339  41.374   0.544   8.564
   51POPC   C2B 4340  41.321   0.560   8.264
   51POPC   C3B 4341  41.367   0.553   7.964
   51POPC   C4B 4342  41.362   0.503   7.664
   52POPC   NC3 4343  26.809   4.304   9.464
   52POPC   PO4 4344  26.801   4.321   9.164
   52POPC   GL1 4345  26.779   4.301   8.864
   52POPC   GL2 4346  26.755   4.196   8.864
   52POPC   C1A 4347  26.829   4.314   8.564
   52POPC   D2A 4348  26.792   4.314   8.264
   52POPC   C3A 4349  26.783   4.335   7.964
   52POPC   C4A 4350  26.793   4.282   7.664
   52POPC   C1B 4351  26.642   4.135   8.564
   52POPC   C2B 4352  26.662   4.131   8.264
   52POPC   C3B 4353  26.609   4.185   7.964
   52POPC   C4B 4354  26.619   4.109   7.664
   53POPC   NC3 4355  32.984  41.574   9.464
   53POPC   PO4 4356  33.065  41.533   9.164
   53POPC   GL1 4357  32.975  41.574   8.864
   53POPC   GL2 4358  32.903  41.626   8.864
   53POPC   C1A 4359  33.067  41.582   8.564
   53POPC   D2A 4360  33.004  41.530   8.264
   53POPC   C3A 4361  33.014  41.598   7.964
   53POPC   C4A 4362  32.989  41.586   7.664
   53POPC   C1B 4363  32.845  41.701   8.564
   53POPC   C2B 4364  32.761  41.655   8.264
   53POPC   C3B 4365  32.766  41.681   7.964
   53POPC   C4B 4366  32.817  41.704   7.664
   54POPC   NC3 4367  30.697  19.022   9.464
   54POPC   PO4 4368  30.715  19.011   9.164
   54POPC   GL1 4369  30.651  19.076   8.864
   54POPC   GL2 4370  30.522  19.038   8.864
   54POPC   C1A 4371  30.669  19.058   8.564
   54POPC   D2A 4372  30.647  19.010   8.264
   54POPC   C3A 4373  30.730  19.041   7.964
   54POPC   C4A 4374  30.725  19.072   7.664
   54POPC   C1B 4375  30.456  19.010   8.564
   54POPC   C2B 4376  30.479  19.078   8.264
   54POPC   C3B 4377  30.399  19.051   7.964
   54POPC   C4B 4378  30.439  19.056   7.664
   55POPC   NC3 4379  25.308  20.657   9.464
   55POPC   PO4 4380  25.283  20.653   9.164
   55POPC   GL1 4381  25.286  20.632   8.864
   55POPC   GL2 4382  25.304  20.761   8.864
   55POPC   C1A 4383  25.291  20.577   8.564
   55POPC   D2A 4384  25.301  20.574   8.264
   55POPC   C3A 4385  25.245  20.599   7.964
   55POPC   C4A 4386  25.296  20.607   7.664
   55POPC   C1B 4387  25.331  20.805   8.564
   55POPC   C2B 4388  25.390  20.816   8.264
   55POPC   C3B 4389  25.332  20.886   7.964
   55POPC   C4B 4390  25.336  20.864   7.664
   56POPC   NC3 4391  33.034  37.653   9.464
   56POPC   PO4 4392  32.998  37.690   9.164
   56POPC   GL1 4393  32.986  37.644   8.864
   56POPC   GL2 4394  32.995  37.572   8.864
   56POPC   C1A 4395  33.062  37.719   8.564
   56POPC   D2A 4396  33.046  37.710   8.264
   56POPC   C3A 4397  32.996  37.690   7.964
   56POPC   C4A 4398  32.992  37.637   7.664
   56POPC   C1B 4399  32.832  37.452   8.564
   56POPC   C2B 4400  32.900  37.515   8.264
   56POPC   C3B 4401  32.840  37.460   7.964
   56POPC   C4B 4402  32.888  37.454   7.664
   57POPC   NC3 4403  34.563  15.956   9.464
   57POPC   PO4 4404  34.545  15.950   9.164
   57POPC   GL1 4405  34.593  15.951   8.864
   57POPC   GL2 4406  34.459  15.876   8.864
   57POPC   C1A 4407  34.526  15.954   8.564
   57POPC   D2A 4408  34.595  15.907   8.264
   57POPC   C3A 4409  34.532  15.925   7.964
   57POPC   C4A 4410  34.609  15.923   7.664
   57POPC   C1B 4411  34.394  15.824   8.564
   57POPC   C2B 4412  34.339  15.843   8.264
   57POPC   C3B 4413  34.372  15.792   7.964
   57POPC   C4B 4414  34.352  15.824   7.664
   58POPC   NC3 4415  37.668  11.295   9.464
   58POPC   PO4 4416  37.656  11.313   9.164
   58POPC   GL1 4417  37.716  11.332   8.864
   58POPC   GL2 4418  37.669  11.159   8.864
   58POPC   C1A 4419  37.728  11.269   8.564
   58POPC   D2A 4420  37.711  11.304   8.264
   58POPC   C3A 4421  37.644  11.331   7.964
   58POPC   C4A 4422  37.630  11.345   7.664
   58POPC   C1B 4423  37.708  11.038   8.564
   58POPC   C2B 4424  37.638  11.100   8.264
   58POPC   C3B 4425  37.701  11.037   7.964
   58POPC   C4B 4426  37.648  11.003   7.664
   59POPC   NC3 4427   3.559  35.316   9.464
   59POPC   PO4 4428   3.516  35.386   9.164
   59POPC   GL1 4429   3.496  35.389   8.864
   59POPC   GL2 4430   3.602  35.400   8.864
   59POPC   C1A 4431   3.567  35.360   8.564
   59POPC   D2A 4432   3.585  35.307   8.264
   59POPC   C3A 4433   3.503  35.382   7.964
   59POPC   C4A 4434   3.582  35.319   7.664
   59POPC   C1B 4435   3.719  35.517   8.564
   59POPC   C2B 4436   3.741  35.483   8.264
   59POPC   C3B 4437   3.697  35.547   7.964
   59POPC   C4B 4438   3.711  35.521   7.664
   60POPC   NC3 4439   5.056  23.731   9.464
   60POPC   PO4 4440   5.142  23.695   9.164
   60POPC   GL1 4441   5.138  23.674   8.864
   60POPC   GL2 4442   5.146  23.840   8.864
   60POPC   C1A 4443   5.047  23.678   8.564
   60POPC   D2A 4444   5.072  23.743   8.264
   60POPC   C3A 4445   5.060  23.731   7.964
   60POPC   C4A 4446   5.142  23.668   7.664
   60POPC   C1B 4447   5.295  23.874   8.564
   60POPC   C2B 4448   5.248  23.891   8.264
   60POPC   C3B 4449   5.214  23.863   7.964
   60POPC   C4B 4450   5.242  23.908   7.664
   61POPC   NC3 4451   4.274  24.519   9.464
   61POPC   PO4 4452   4.309  24.445   9.164
   61POPC   GL1 4453   4.299  24.454   8.864
   61POPC   GL2 4454   4.368  24.411   8.864
   61POPC   C1A 4455   4.287  24.479   8.564
   61POPC   D2A 4456   4.360  24.445   8.264
   61POPC   C3A 4457   4.329  24.463   7.964
   61POPC   C4A 4458   4.326  24.478   7.664
   61POPC   C1B 4459   4.426  24.226   8.564
   61POPC   C2B 4460   4.400  24.300   8.264
   61POPC   C3B 4461   4.455  24.224   7.964
   61POPC   C4B 4462   4.483  24.290   7.664
   62POPC   NC3 4463   0.484   2.769   9.464
   62POPC   PO4 4464   0.452   2.738   9.164
   62POPC   GL1 4465   0.459   2.769   8.864
   62POPC   GL2 4466   0.503   2.828   8.864
   62POPC   C1A 4467   0.434   2.808   8.564
   62POPC   D2A 4468   0.434   2.784   8.264
   62POPC   C3A 4469   0.416   2.724   7.964
   62POPC   C4A 4470   0.413   2.764   7.664
   62POPC   C1B 4471   0.683   2.909   8.564
   62POPC   C2B 4472   0.626   2.897   8.264
   62POPC   C3B 4473   0.599   2.928   7.964
   62POPC   C4B 4474   0.638   2.948   7.664
   63POPC   NC3 4475  38.465  12.101   9.464
   63POPC   PO4 4476  38.430  12.061   9.164
   63POPC   GL1 4477  38.500  12.085   8.864
   63POPC   GL2 4478  38.570  12.082   8.864
   63POPC   C1A 4479  38.471  12.085   8.564
   63POPC   D2A 4480  38.440  12.087   8.264
   63POPC   C3A 4481  38.432  12.113   7.964
   63POPC   C4A 4482  38.498  12.045   7.664
   63POPC   C1B 4483  38.716  12.180   8.564
   63POPC   C2B 4484  38.693  12.200   8.264
   63POPC   C3B 4485  38.703  12.213   7.964
   63POPC   C4B 4486  38.727  12.140   7.664
   64POPC   NC3 4487  12.055  27.577   9.464
   64POPC   PO4 4488  12.125  27.591   9.164
   64POPC   GL1 4489  12.029  27.593   8.864
   64POPC   GL2 4490  12.110  27.534   8.864
   64POPC   C1A 4491  12.047  27.612   8.564
   64POPC   D2A 4492  12.103  27.559   8.264
   64POPC   C3A 4493  12.072  27.552   7.964
   64POPC   C4A 4494  12.070  27.624   7.664
   64POPC   C1B 4495  12.255  27.394   8.564
   64POPC   C2B 4496  12.255  27.384   8.264
   64POPC   C3B 4497  12.247  27.371   7.964
   64POPC   C4B 4498  12.192  27.398   7.664
   65POPC   NC3 4499  34.600  39.959   9.464
   65POPC   PO4 4500  34.612  39.999   9.164
   65POPC   GL1 4501  34.613  40.008   8.864
   65POPC   GL2 4502  34.519  40.070   8.864
   65POPC   C1A 4503  34.535  39.968   8.564
   65POPC   D2A 4504  34.545  39.976   8.264
   65POPC   C3A 4505  34.610  40.024   7.964
   65POPC   C4A 4506  34.536  39.989   7.664
   65POPC   C1B 4507  34.427  40.151   8.564
   65POPC   C2B 4508  34.389  40.210   8.264
   65POPC   C3B 4509  34.428  40.204   7.964
   65POPC   C4B 4510  34.376  40.186   7.664
   66POPC   NC3 4511  19.089  27.595   9.464
   66POPC   PO4 4512  19.050  27.580   9.164
   66POPC   GL1 4513  19.022  27.557   8.864
   66POPC   GL2 4514  19.067  27.445   8.864
   66POPC   C1A 4515  19.042  27.599   8.564
   66POPC   D2A 4516  19.060  27.581   8.264
   66POPC   C3A 4517  19.045  27.606   7.964
   66POPC   C4A 4518  19.106  27.561   7.664
   66POPC   C1B 4519  19.106  27.378   8.564
   66POPC   C2B 4520  19.134  27.397   8.264
   66POPC   C3B 4521  19.114  27.303   7.964
   66POPC   C4B 4522  19.087  27.369   7.664
   67POPC   NC3 4523  33.753  26.058   9.464
   67POPC   PO4 4524  33.769  26.046   9.164
   67POPC   GL1 4525  33.845  26.035   8.864
   67POPC   GL2 4526  33.732  26.135   8.864
   67POPC   C1A 4527  33.841  26.019   8.564
   67POPC   D2A 4528  33.824  26.021   8.264
   67POPC   C3A 4529  33.837  25.995   7.964
   67POPC   C4A 4530  33.818  26.016   7.664
   67POPC   C1B 4531  33.608  26.210   8.564
   67POPC   C2B 4532  33.560  26.220   8.264
   67POPC   C3B 4533  33.625  26.219   7.964
   67POPC   C4B 4534  33.595  26.174   7.664
   68POPC   NC3 4535   8.950  22.191   9.464
   68POPC   PO4 4536   8.989  22.166   9.164
   68POPC   GL1 4537   8.939  22.160   8.864
   68POPC   GL2 4538   8.898  22.210   8.864
   68POPC   C1A 4539   8.963  22.148   8.564
   68POPC   D2A 4540   8.959  22.210   8.264
   68POPC   C3A 4541   9.020  22.196   7.964
   68POPC   C4A 4542   8.964  22.153   7.664
   68POPC   C1B 4543   8.776  22.245   8.564
   68POPC   C2B 4544   8.717  22.232   8.264
   68POPC   C3B 4545   8.754  22.286   7.964
   68POPC   C4B 4546   8.747  22.257   7.664
   69POPC   NC3 4547   3.550  44.688   9.464
   69POPC   PO4 4548   3.561  44.673   9.164
   69POPC   GL1 4549   3.591  44.616   8.864
   69POPC   GL2 4550   3.442  44.622   8.864
   69POPC   C1A 4551   3.501  44.613   8.564
   69POPC   D2A 4552   3.580  44.613   8.264
   69POPC   C3A 4553   3.518  44.680   7.964
   69POPC   C4A 4554   3.576  44.632   7.664
   69POPC   C1B 4555   3.400  44.454   8.564
   69POPC   C2B 4556   3.374  44.513   8.264
   69POPC   C3B 4557   3.386  44.471   7.964
   69POPC   C4B 4558   3.321  44.502   7.664
   70POPC   NC3 4559  15.175  21.341   9.464
   70POPC   PO4 4560  15.174  21.360   9.164
   70POPC   GL1 4561  15.151  21.355   8.864
   70POPC   GL2 4562  15.177  21.490   8.864
   70POPC   C1A 4563  15.178  21.392   8.564
   70POPC   D2A 4564  15.130  21.404   8.264
   70POPC   C3A 4565  15.180  21.373   7.964
   70POPC   C4A 4566  15.153  21.433   7.664
   70POPC   C1B 4567  15.179  21.667   8.564
   70POPC   C2B 4568  15.175  21.663   8.264
   70POPC   C3B 4569  15.136  21.664   7.964
   70POPC   C4B 4570  15.149  21.652   7.664
   71POPC   NC3 4571  39.269  18.315   9.464
   71POPC   PO4 4572  39.204  18.296   9.164
   71POPC   GL1 4573  39.208  18.244   8.864
   71POPC   GL2 4574  39.141  18.258   8.864
   71POPC   C1A 4575  39.257  18.294   8.564
   71POPC   D2A 4576  39.199  18.265   8.264
   71POPC   C3A 4577  39.189  18.235   7.964
   71POPC   C4A 4578  39.251  18.332   7.664
   71POPC   C1B 4579  39.013  18.272   8.564
   71POPC   C2B 4580  38.996  18.293   8.264
   71POPC   C3B 4581  39.019  18.253   7.964
   71POPC   C4B 4582  39.024  18.323   7.664
   72POPC   NC3 4583  15.996  25.232   9.464
   72POPC   PO4 4584  15.998  25.223   9.164
   72POPC   GL1 4585  15.933  25.303   8.864
   72POPC   GL2 4586  15.867  25.248   8.864
   72POPC   C1A 4587  15.966  25.306   8.564
   72POPC   D2A 4588  15.957  25.257   8.264
   72POPC   C3A 4589  15.905  25.296   7.964
   72POPC   C4A 4590  15.957  25.227   7.664
   72POPC   C1B 4591  15.763  25.144   8.564
   72POPC   C2B 4592  15.692  25.128   8.264
   72POPC   C3B 4593  15.766  25.221   7.964
   72POPC   C4B 4594  15.676  25.135   7.664
   73POPC   NC3 4595  43.925  42.367   9.464
   73POPC   PO4 4596  43.903  42.383   9.164
   73POPC   GL1 4597  43.907  42.343   8.864
   73POPC   GL2 4598  44.007  42.392   8.864
   73POPC   C1A 4599  43.905  42.365   8.564
   73POPC   D2A 4600  43.861  42.377   8.264
   73POPC   C3A 4601  43.861  42.334   7.964
   73POPC   C4A 4602  43.870  42.351   7.664
   73POPC   C1B 4603  44.097  42.482   8.564
   73POPC   C2B 4604  44.052  42.455   8.264
   73POPC   C3B 4605  44.025  42.474   7.964
   73POPC   C4B 4606  44.037  42.508   7.664
   74POPC   NC3 4607  11.337  13.604   9.464
   74POPC   PO4 4608  11.303  13.613   9.164
   74POPC   GL1 4609  11.293  13.621   8.864
   74POPC   GL2 4610  11.175  13.729   8.864
   74POPC   C1A 4611  11.297  13.629   8.564
   74POPC   D2A 4612  11.331  13.610   8.264
   74POPC   C3A 4613  11.320  13.589   7.964
   74POPC   C4A 4614  11.300  13.614   7.664
   74POPC   C1B 4615  11.089  13.832   8.564
   74POPC   C2B 4616  11.108  13.791   8.264
   74POPC   C3B 4617  11.124  13.778   7.964
   74POPC   C4B 4618  11.161  13.776   7.664
   75POPC   NC3 4619  26.854  39.266   9.464
   75POPC   PO4 4620  26.771  39.245   9.164
   75POPC   GL1 4621  26.841  39.194   8.864
   75POPC   GL2 4622  26.666  39.297   8.864
   75POPC   C1A 4623  26.801  39.183   8.564
   75POPC   D2A 4624  26.838  39.241   8.264
   75POPC   C3A 4625  26.830  39.231   7.964
   75POPC   C4A 4626  26.866  39.229   7.664
   75POPC   C1B 4627  26.581  39.400   8.564
   75POPC   C2B 4628  26.623  39.405   8.264
   75POPC   C3B 4629  26.610  39.370   7.964
   75POPC   C4B 4630  26.648  39.358   7.664
   76POPC   NC3 4631  31.439  30.671   9.464
   76POPC   PO4 4632  31.495  30.721   9.164
   76POPC   GL1 4633  31.467  30.678   8.864
   76POPC   GL2 4634  31.532  30.572   8.864
   76POPC   C1A 4635  31.484  30.742   8.564
   76POPC   D2A 4636  31.483  30.650   8.264
   76POPC   C3A 4637  31.464  30.670   7.964
   76POPC   C4A 4638  31.500  30.680   7.664
   76POPC   C1B 4639  31.620  30.527   8.564
   76POPC   C2B 4640  31.644  30.469   8.264
   76POPC   C3B 4641  31.628  30.518   7.964
   76POPC   C4B 4642  31.673  30.506   7.664
   77POPC   NC3 4643  37.676  22.158   9.464
   77POPC   PO4 4644  37.639  22.196   9.164
   77POPC   GL1 4645  37.632  22.208   8.864
   77POPC   GL2 4646  37.630  22.035   8.864
   77POPC   C1A 4647  37.663  22.198   8.564
   77POPC   D2A 4648  37.719  22.167   8.264
   77POPC   C3A 4649  37.677  22.189   7.964
   77POPC   C4A 4650  37.722  22.205   7.664
   77POPC   C1B 4651  37.563  21.911   8.564
   77POPC   C2B 4652  37.559  21.947   8.264
   77POPC   C3B 4653  37.542  21.927   7.964
   77POPC   C4B 4654  37.536  21.903   7.664
   78POPC   NC3 4655  35.347   5.831   9.464
   78POPC   PO4 4656  35.341   5.858   9.164
   78POPC   GL1 4657  35.351   5.865   8.864
   78POPC   GL2 4658  35.330   5.727   8.864
   78POPC   C1A 4659  35.383   5.914   8.564
   78POPC   D2A 4660  35.307   5.869   8.264
   78POPC   C3A 4661  35.363   5.874   7.964
   78POPC   C4A 4662  35.363   5.876   7.664
   78POPC   C1B 4663  35.267   5.663   8.564
   78POPC   C2B 4664  35.218   5.676   8.264
   78POPC   C3B 4665  35.252   5.638   7.964
   78POPC   C4B 4666  35.266   5.606   7.664
   79POPC   NC3 4667   5.139  18.250   9.464
   79POPC   PO4 4668   5.110  18.281   9.164
   79POPC   GL1 4669   5.140  18.309   8.864
   79POPC   GL2 4670   5.007  18.285   8.864
   79POPC   C1A 4671   5.047  18.315   8.564
   79POPC   D2A 4672   5.061  18.249   8.264
   79POPC   C3A 4673   5.080  18.237   7.964
   79POPC   C4A 4674   5.047  18.298   7.664
   79POPC   C1B 4675   4.816  18.292   8.564
   79POPC   C2B 4676   4.805  18.350   8.264
   79POPC   C3B 4677   4.826  18.280   7.964
   79POPC   C4B 4678   4.850  18.297   7.664
   80POPC   NC3 4679  38.495  30.727   9.464
   80POPC   PO4 4680  38.492  30.691   9.164
   80POPC   GL1 4681  38.409  30.676   8.864
   80POPC   GL2 4682  38.425  30.602   8.864
   80POPC   C1A 4683  38.477  30.690   8.564
   80POPC   D2A 4684  38.418  30.727   8.264
   80POPC   C3A 4685  38.425  30.682   7.964
   80POPC   C4A 4686  38.413  30.740   7.664
   80POPC   C1B 4687  38.412  30.454   8.564
   80POPC   C2B 4688  38.440  30.495   8.264
   80POPC   C3B 4689  38.435  30.444   7.964
   80POPC   C4B 4690  38.457  30.404   7.664
   81POPC   NC3 4691  32.991  39.276   9.464
   81POPC   PO4 4692  33.051  39.191   9.164
   81POPC   GL1 4693  33.013  39.183   8.864
   81POPC   GL2 4694  33.083  39.212   8.864
   81POPC   C1A 4695  32.976  39.239   8.564
   81POPC   D2A 4696  33.002  39.210   8.264
   81POPC   C3A 4697  32.991  39.232   7.964
   81POPC   C4A 4698  33.043  39.220   7.664
   81POPC   C1B 4699  33.253  39.082   8.564
   81POPC   C2B 4700  33.253  39.111   8.264
   81POPC   C3B 4701  33.235  39.071   7.964
   81POPC   C4B 4702  33.249  39.073   7.664
   82POPC   NC3 4703  22.142  37.680   9.464
   82POPC   PO4 4704  22.170  37.676   9.164
   82POPC   GL1 4705  22.157  37.636   8.864
   82POPC   GL2 4706  22.152  37.538   8.864
   82POPC   C1A 4707  22.132  37.658   8.564
   82POPC   D2A 4708  22.166  37.662   8.264
   82POPC   C3A 4709  22.130  37.684   7.964
   82POPC   C4A 4710  22.179  37.704   7.664
   82POPC   C1B 4711  22.060  37.455   8.564
   82POPC   C2B 4712  22.135  37.397   8.264
   82POPC   C3B 4713  22.085  37.399   7.964
   82POPC   C4B 4714  22.075  37.476   7.664
   83POPC   NC3 4715   8.245  26.848   9.464
   83POPC   PO4 4716   8.160  26.812   9.164
   83POPC   GL1 4717   8.219  26.792   8.864
   83POPC   GL2 4718   8.108  26.920   8.864
   83POPC   C1A 4719   8.162  26.811   8.564
   83POPC   D2A 4720   8.181  26.830   8.264
   83POPC   C3A 4721   8.237  26.771   7.964
   83POPC   C4A 4722   8.228  26.831   7.664
   83POPC   C1B 4723   8.025  26.917   8.564
   83POPC   C2B 4724   7.951  26.928   8.264
   83POPC   C3B 4725   7.954  26.941   7.964
   83POPC   C4B 4726   7.943  26.978   7.664
   84POPC   NC3 4727  37.662  16.704   9.464
   84POPC   PO4 4728  37.657  16.755   9.164
   84POPC   GL1 4729  37.660  16.713   8.864
   84POPC   GL2 4730  37.563  16.739   8.864
   84POPC   C1A 4731  37.727  16.711   8.564
   84POPC   D2A 4732  37.703  16.758   8.264
   84POPC   C3A 4733  37.660  16.750   7.964
   84POPC   C4A 4734  37.690  16.750   7.664
   84POPC   C1B 4735  37.428  16.813   8.564
   84POPC   C2B 4736  37.463  16.768   8.264
   84POPC   C3B 4737  37.387  16.756   7.964
   84POPC   C4B 4738  37.424  16.743   7.664
   85POPC   NC3 4739  40.009  29.175   9.464
   85POPC   PO4 4740  40.023  29.124   9.164
   85POPC   GL1 4741  39.984  29.104   8.864
   85POPC   GL2 4742  40.098  29.187   8.864
   85POPC   C1A 4743  39.996  29.133   8.564
   85POPC   D2A 4744  39.961  29.128   8.264
   85POPC   C3A 4745  40.047  29.101   7.964
   85POPC   C4A 4746  40.006  29.176   7.664
   85POPC   C1B 4747  40.207  29.181   8.564
   85POPC   C2B 4748  40.225  29.140   8.264
   85POPC   C3B 4749  40.275  29.114   7.964
   85POPC   C4B 4750  40.245  29.115   7.664
   86POPC   NC3 4751  21.436  33.029   9.464
   86POPC   PO4 4752  21.387  33.028   9.164
   86POPC   GL1 4753  21.417  33.030   8.864
   86POPC   GL2 4754  21.254  33.071   8.864
   86POPC   C1A 4755  21.341  32.976   8.564
   86POPC   D2A 4756  21.421  33.009   8.264
   86POPC   C3A 4757  21.416  32.996   7.964
   86POPC   C4A 4758  21.360  32.987   7.664
   86POPC   C1B 4759  21.160  33.142   8.564
   86POPC   C2B 4760  21.182  33.074   8.264
   86POPC   C3B 4761  21.199  33.073   7.964
   86POPC   C4B 4762  21.200  33.127   7.664
   87POPC   NC3 4763  31.446  31.451   9.464
   87POPC   PO4 4764  31.478  31.483   9.164
   87POPC   GL1 4765  31.519  31.503   8.864
   87POPC   GL2 4766  31.385  31.612   8.864
   87POPC   C1A 4767  31.429  31.453   8.564
   87POPC   D2A 4768  31.462  31.470   8.264
   87POPC   C3A 4769  31.435  31.424   7.964
   87POPC   C4A 4770  31.495  31.461   7.664
   87POPC   C1B 4771  31.301  31.713   8.564
   87POPC   C2B 4772  31.333  31.714   8.264
   87POPC   C3B 4773  31.290  31.715   7.964
   87POPC   C4B 4774  31.306  31.674   7.664
   88POPC   NC3 4775  29.161  32.267   9.464
   88POPC   PO4 4776  29.168  32.250   9.164
   88POPC   GL1 4777  29.137  32.252   8.864
   88POPC   GL2 4778  29.049  32.326   8.864
   88POPC   C1A 4779  29.185  32.284   8.564
   88POPC   D2A 4780  29.155  32.207   8.264
   88POPC   C3A 4781  29.183  32.267   7.964
   88POPC   C4A 4782  29.121  32.212   7.664
   88POPC   C1B 4783  28.962  32.417   8.564
   88POPC   C2B 4784  28.982  32.390   8.264
   88POPC   C3B 4785  28.919  32.374   7.964
   88POPC   C4B 4786  28.935  32.376   7.664
   89POPC   NC3 4787  26.040  11.268   9.464
   89POPC   PO4 4788  26.042  11.340   9.164
   89POPC   GL1 4789  26.078  11.339   8.864
   89POPC   GL2 4790  26.069  11.450   8.864
   89POPC   C1A 4791  26.068  11.285   8.564
   89POPC   D2A 4792  26.032  11.296   8.264
   89POPC   C3A 4793  26.090  11.336   7.964
   89POPC   C4A 4794  26.005  11.341   7.664
   89POPC   C1B 4795  26.018  11.593   8.564
   89POPC   C2B 4796  26.053  11.541   8.264
   89POPC   C3B 4797  25.989  11.595   7.964
   89POPC   C4B 4798  25.983  11.506   7.664
   90POPC   NC3 4799  27.637  19.069   9.464
   90POPC   PO4 4800  27.562  19.045   9.164
   90POPC   GL1 4801  27.594  19.050   8.864
   90POPC   GL2 4802  27.684  18.981   8.864
   90POPC   C1A 4803  27.612  19.060   8.564
   90POPC   D2A 4804  27.620  19.016   8.264
   90POPC   C3A 4805  27.558  19.040   7.964
   90POPC   C4A 4806  27.632  19.033   7.664
   90POPC   C1B 4807  27.797  18.888   8.564
   90POPC   C2B 4808  27.765  18.837   8.264
   90POPC   C3B 4809  27.804  18.891   7.964
   90POPC   C4B 4810  27.729  18.902   7.664
   91POPC   NC3 4811  28.325   5.080   9.464
   91POPC   PO4 4812  28.319   5.073   9.164
   91POPC   GL1 4813  28.363   5.065   8.864
   91POPC   GL2 4814  28.543   5.118   8.864
   91POPC   C1A 4815  28.319   5.072   8.564
   91POPC   D2A 4816  28.387   5.107   8.264
   91POPC   C3A 4817  28.373   5.124   7.964
   91POPC   C4A 4818  28.388   5.122   7.664
   91POPC   C1B 4819  28.586   5.132   8.564
   91POPC   C2B 4820  28.580   5.131   8.264
   91POPC   C3B 4821  28.648   5.059   7.964
   91POPC   C4B 4822  28.647   5.097   7.664
   92POPC   NC3 4823  13.616  19.064   9.464
   92POPC   PO4 4824  13.599  19.065   9.164
   92POPC   GL1 4825  13.638  19.073   8.864
   92POPC   GL2 4826  13.683  18.958   8.864
   92POPC   C1A 4827  13.626  19.011   8.564
   92POPC   D2A 4828  13.617  19.048   8.264
   92POPC   C3A 4829  13.670  19.052   7.964
   92POPC   C4A 4830  13.589  19.072   7.664
   92POPC   C1B 4831  13.804  18.849   8.564
   92POPC   C2B 4832  13.764  18.842   8.264
   92POPC   C3B 4833  13.791  18.863   7.964
   92POPC   C4B 4834  13.815  18.867   7.664
   93POPC   NC3 4835   6.619  31.513   9.464
   93POPC   PO4 4836   6.684  31.515   9.164
   93POPC   GL1 4837   6.671  31.426   8.864
   93POPC   GL2 4838   6.634  31.300   8.864
   93POPC   C1A 4839   6.602  31.514   8.564
   93POPC   D2A 4840   6.665  31.438   8.264
   93POPC   C3A 4841   6.656  31.511   7.964
   93POPC   C4A 4842   6.657  31.458   7.664
   93POPC   C1B 4843   6.601  31.260   8.564
   93POPC   C2B 4844   6.661  31.255   8.264
   93POPC   C3B 4845   6.615  31.212   7.964
   93POPC   C4B 4846   6.635  31.187   7.664
   94POPC   NC3 4847   9.718  26.785   9.464
   94POPC   PO4 4848   9.718  26.844   9.164
   94POPC   GL1 4849   9.759  26.782   8.864
   94POPC   GL2 4850   9.644  26.783   8.864
   94POPC   C1A 4851   9.708  26.828   8.564
   94POPC   D2A 4852   9.794  26.866   8.264
   94POPC   C3A 4853   9.712  26.773   7.964
   94POPC   C4A 4854   9.766  26.788   7.664
   94POPC   C1B 4855   9.531  26.738   8.564
   94POPC   C2B 4856   9.488  26.753   8.264
   94POPC   C3B 4857   9.550  26.760   7.964
   94POPC   C4B 4858   9.497  26.757   7.664
   95POPC   NC3 4859   2.743  15.994   9.464
   95POPC   PO4 4860   2.762  15.929   9.164
   95POPC   GL1 4861   2.753  15.939   8.864
   95POPC   GL2 4862   2.868  15.981   8.864
   95POPC   C1A 4863   2.770  15.964   8.564
   95POPC   D2A 4864   2.717  15.915   8.264
   95POPC   C3A 4865   2.740  15.953   7.964
   95POPC   C4A 4866   2.737  15.974   7.664
   95POPC   C1B 4867   3.018  15.966   8.564
   95POPC   C2B 4868   3.051  15.966   8.264
   95POPC   C3B 4869   3.027  15.931   7.964
   95POPC   C4B 4870   2.991  15.924   7.664
   96POPC   NC3 4871   1.247  22.944   9.464
   96POPC   PO4 4872   1.175  22.954   9.164
   96POPC   GL1 4873   1.228  22.965   8.864
   96POPC   GL2 4874   1.290  22.898   8.864
   96POPC   C1A 4875   1.239  22.983   8.564
   96POPC   D2A 4876   1.250  22.985   8.264
   96POPC   C3A 4877   1.264  22.953   7.964
   96POPC   C4A 4878   1.166  22.981   7.664
   96POPC   C1B 4879   1.447  22.858   8.564
   96POPC   C2B 4880   1.399  22.821   8.264
   96POPC   C3B 4881   1.403  22.892   7.964
   96POPC   C4B 4882   1.452  22.868   7.664
   97POPC   NC3 4883  20.575  14.423   9.464
   97POPC   PO4 4884  20.573  14.371   9.164
   97POPC   GL1 4885  20.574  14.406   8.864
   97POPC   GL2 4886  20.504  14.483   8.864
   97POPC   C1A 4887  20.623  14.412   8.564
   97POPC   D2A 4888  20.590  14.356   8.264
   97POPC   C3A 4889  20.643  14.452   7.964
   97POPC   C4A 4890  20.595  14.426   7.664
   97POPC   C1B 4891  20.418  14.518   8.564
   97POPC   C2B 4892  20.393  14.540   8.264
   97POPC   C3B 4893  20.387  14.543   7.964
   97POPC   C4B 4894  20.373  14.515   7.664
   98POPC   NC3 4895  33.036  19.024   9.464
   98POPC   PO4 4896  33.003  19.075   9.164
   98POPC   GL1 4897  32.974  19.050   8.864
   98POPC   GL2 4898  33.045  19.176   8.864
   98POPC   C1A 4899  33.055  19.023   8.564
   98POPC   D2A 4900  33.073  19.097   8.264
   98POPC   C3A 4901  32.980  19.084   7.964
   98POPC   C4A 4902  33.047  19.021   7.664
   98POPC   C1B 4903  33.095  19.247   8.564
   98POPC   C2B 4904  33.073  19.331   8.264
   98POPC   C3B 4905  33.094  19.298   7.964
   98POPC   C4B 4906  33.160  19.310   7.664
   99POPC   NC3 4907  15.196  44.669   9.464
   99POPC   PO4 4908  15.202  44.649   9.164
   99POPC   GL1 4909  15.199  44.668   8.864
   99POPC   GL2 4910  15.220  44.528   8.864
   99POPC   C1A 4911  15.187  44.629   8.564
   99POPC   D2A 4912  15.222  44.698   8.264
   99POPC   C3A 4913  15.188  44.676   7.964
   99POPC   C4A 4914  15.175  44.712   7.664
   99POPC   C1B 4915  15.328  44.518   8.564
   99POPC   C2B 4916  15.367  44.524   8.264
   99POPC   C3B 4917  15.358  44.440   7.964
   99POPC   C4B 4918  15.380  44.465   7.664
  100POPC   NC3 4919  12.832  33.048   9.464
  100POPC   PO4 4920  12.879  33.037   9.164
  100POPC   GL1 4921  12.854  33.044   8.864
  100POPC   GL2 4922  12.886  33.128   8.864
  100POPC   C1A 4923  12.896  33.051   8.564
  100POPC   D2A 4924  12.806  33.004   8.264
  100POPC   C3A 4925  12.819  33.070   7.964
  100POPC   C4A 4926  12.856  33.067   7.664
  100POPC   C1B 4927  13.020  33.238   8.564
  100POPC   C2B 4928  13.023  33.174   8.264
  100POPC   C3B 4929  13.055  33.187   7.964
  100POPC   C4B 4930  12.986  33.178   7.664
  101POPC   NC3 4931  11.316   0.483   9.464
  101POPC   PO4 4932  11.310   0.458   9.164
  101POPC   GL1 4933  11.256   0.413   8.864
  101POPC   GL2 4934  11.221   0.534   8.864
  101POPC   C1A 4935  11.338   0.460   8.564
  101POPC   D2A 4936  11.309   0.436   8.264
  101POPC   C3A 4937  11.333   0.432   7.964
  101POPC   C4A 4938  11.321   0.388   7.664
  101POPC   C1B 4939  11.134   0.632   8.564
  101POPC   C2B 4940  11.161   0.593   8.264
  101POPC   C3B 4941  11.113   0.586   7.964
  101POPC   C4B 4942  11.155   0.632   7.664
  102POPC   NC3 4943  43.088  10.526   9.464
  102POPC   PO4 4944  43.064  10.500   9.164
  102POPC   GL1 4945  43.143  10.499   8.864
  102POPC   GL2 4946  43.256  10.591   8.864
  102POPC   C1A 4947  43.101  10.512   8.564
  102POPC   D2A 4948  43.127  10.558   8.264
  102POPC   C3A 4949  43.147  10.499   7.964
  102POPC   C4A 4950  43.136  10.545   7.664
  102POPC   C1B 4951  43.331  10.612   8.564
  102POPC   C2B 4952  43.315  10.528   8.264
  102POPC   C3B 4953  43.320  10.583   7.964
  102POPC   C4B 4954  43.369  10.593   7.664
  103POPC   NC3 4955  15.964  20.617   9.464
  103POPC   PO4 4956  16.004  20.597   9.164
  103POPC   GL1 4957  15.910  20.623   8.864
  103POPC   GL2 4958  16.076  20.623   8.864
  103POPC   C1A 4959  15.994  20.600   8.564
  103POPC   D2A 4960  15.978  20.640   8.264
  103POPC   C3A 4961  15.985  20.600   7.964
  103POPC   C4A 4962  16.003  20.607   7.664
  103POPC   C1B 4963  16.217  20.592   8.564
  103POPC   C2B 4964  16.213  20.584   8.264
  103POPC   C3B 4965  16.242  20.625   7.964
  103POPC   C4B 4966  16.237  20.624   7.664
  104POPC   NC3 4967  20.615  26.786   9.464
  104POPC   PO4 4968  20.599  26.813   9.164
  104POPC   GL1 4969  20.628  26.834   8.864
  104POPC   GL2 4970  20.496  26.736   8.864
  104POPC   C1A 4971  20.568  26.770   8.564
  104POPC   D2A 4972  20.591  26.783   8.264
  104POPC   C3A 4973  20.649  26.785   7.964
  104POPC   C4A 4974  20.581  26.806   7.664
  104POPC   C1B 4975  20.419  26.739   8.564
  104POPC   C2B 4976  20.418  26.730   8.264
  104POPC   C3B 4977  20.419  26.726   7.964
  104POPC   C4B 4978  20.407  26.699   7.664
  105POPC   NC3 4979   1.983  33.762   9.464
  105POPC   PO4 4980   2.018  33.774   9.164
  105POPC   GL1 4981   2.026  33.795   8.864
  105POPC   GL2 4982   2.148  33.778   8.864
  105POPC   C1A 4983   2.029  33.794   8.564
  105POPC   D2A 4984   1.981  33.835   8.264
  105POPC   C3A 4985   1.966  33.836   7.964
  105POPC   C4A 4986   2.007  33.840   7.664
  105POPC   C1B 4987   2.207  33.716   8.564
  105POPC   C2B 4988   2.178  33.666   8.264
  105POPC   C3B 4989   2.229  33.678   7.964
  105POPC   C4B 4990   2.225  33.726   7.664
  106POPC   NC3 4991   1.958  23.718   9.464
  106POPC   PO4 4992   1.968  23.708   9.164
  106POPC   GL1 4993   2.036  23.700   8.864
  106POPC   GL2 4994   1.847  23.766   8.864
  106POPC   C1A 4995   1.957  23.668   8.564
  106POPC   D2A 4996   2.035  23.679   8.264
  106POPC   C3A 4997   1.940  23.694   7.964
  106POPC   C4A 4998   2.023  23.701   7.664
  106POPC   C1B 4999   1.739  23.761   8.564
  106POPC   C2B 5000   1.752  23.759   8.264
  106POPC   C3B 5001   1.721  23.796   7.964
  106POPC   C4B 5002   1.742  23.783   7.664
  107POPC   NC3 5003  34.596  30.670   9.464
  107POPC   PO4 5004  34.582  30.705   9.164
  107POPC   GL1 5005  34.538  30.660   8.864
  107POPC   GL2 5006  34.566  30.801   8.864
  107POPC   C1A 5007  34.554  30.728   8.564
  107POPC   D2A 5008  34.577  30.738   8.264
  107POPC   C3A 5009  34.575  30.695   7.964
  107POPC   C4A 5010  34.542  30.657   7.664
  107POPC   C1B 5011  34.452  30.948   8.564
  107POPC   C2B 5012  34.499  30.934   8.264
  107POPC   C3B 5013  34.425  30.939   7.964
  107POPC   C4B 5014  34.493  30.962   7.664
  108POPC   NC3 5015  23.675   7.468   9.464
  108POPC   PO4 5016  23.759   7.452   9.164
  108POPC   GL1 5017  23.727   7.456   8.864
  108POPC   GL2 5018  23.700   7.324   8.864
  108POPC   C1A 5019  23.689   7.438   8.564
  108POPC   D2A 5020  23.732   7.410   8.264
  108POPC   C3A 5021  23.670   7.439   7.964
  108POPC   C4A 5022  23.692   7.402   7.664
  108POPC   C1B 5023  23.632   7.168   8.564
  108POPC   C2B 5024  23.620   7.215   8.264
  108POPC   C3B 5025  23.635   7.233   7.964
  108POPC   C4B 5026  23.635   7.230   7.664
  109POPC   NC3 5027  14.367  36.102   9.464
  109POPC   PO4 5028  14.414  36.173   9.164
  109POPC   GL1 5029  14.407  36.168   8.864
  109POPC   GL2 5030  14.399  36.264   8.864
  109POPC   C1A 5031  14.367  36.177   8.564
  109POPC   D2A 5032  14.433  36.109   8.264
  109POPC   C3A 5033  14.450  36.145   7.964
  109POPC   C4A 5034  14.404  36.136   7.664
  109POPC   C1B 5035  14.392  36.398   8.564
  109POPC   C2B 5036  14.397  36.391   8.264
  109POPC   C3B 5037  14.392  36.365   7.964
  109POPC   C4B 5038  14.485  36.360   7.664
  110POPC   NC3 5039  16.693  15.173   9.464
  110POPC   PO4 5040  16.683  15.187   9.164
  110POPC   GL1 5041  16.762  15.214   8.864
  110POPC   GL2 5042  16.695  15.022   8.864
  110POPC   C1A 5043  16.705  15.190   8.564
  110POPC   D2A 5044  16.776  15.188   8.264
  110POPC   C3A 5045  16.713  15.199   7.964
  110POPC   C4A 5046  16.698  15.219   7.664
  110POPC   C1B 5047  16.614  14.983   8.564
  110POPC   C2B 5048  16.625  14.983   8.264
  110POPC   C3B 5049  16.634  14.955   7.964
  110POPC   C4B 5050  16.605  14.953   7.664
  111POPC   NC3 5051   4.363   5.841   9.464
  111POPC   PO4 5052   4.331   5.879   9.164
  111POPC   GL1 5053   4.360   5.897   8.864
  111POPC   GL2 5054   4.377   5.958   8.864
  111POPC   C1A 5055   4.347   5.867   8.564
  111POPC   D2A 5056   4.268   5.842   8.264
  111POPC   C3A 5057   4.364   5.901   7.964
  111POPC   C4A 5058   4.324   5.855   7.664
  111POPC   C1B 5059   4.548   6.033   8.564
  111POPC   C2B 5060   4.512   6.034   8.264
  111POPC   C3B 5061   4.510   6.040   7.964
  111POPC   C4B 5062   4.552   6.056   7.664
  112POPC   NC3 5063   1.204  26.861   9.464
  112POPC   PO4 5064   1.194  26.768   9.164
  112POPC   GL1 5065   1.214  26.824   8.864
  112POPC   GL2 5066   1.290  26.756   8.864
  112POPC   C1A 5067   1.201  26.772   8.564
  112POPC   D2A 5068   1.219  26.849   8.264
  112POPC   C3A 5069   1.217  26.848   7.964
  112POPC   C4A 5070   1.256  26.848   7.664
  112POPC   C1B 5071   1.371  26.640   8.564
  112POPC   C2B 5072   1.455  26.619   8.264
  112POPC   C3B 5073   1.378  26.609   7.964
  112POPC   C4B 5074   1.388  26.618   7.664
  113POPC   NC3 5075   9.721   5.111   9.464
  113POPC   PO4 5076   9.700   5.126   9.164
  113POPC   GL1 5077   9.778   5.084   8.864
  113POPC   GL2 5078   9.823   5.109   8.864
  113POPC   C1A 5079   9.795   5.059   8.564
  113POPC   D2A 5080   9.701   5.132   8.264
  113POPC   C3A 5081   9.761   5.101   7.964
  113POPC   C4A 5082   9.775   5.128   7.664
  113POPC   C1B 5083   9.982   5.007   8.564
  113POPC   C2B 5084  10.037   5.011   8.264
  113POPC   C3B 5085  10.030   5.011   7.964
  113POPC   C4B 5086   9.984   4.997   7.664
  114POPC   NC3 5087  43.845   7.426   9.464
  114POPC   PO4 5088  43.889   7.429   9.164
  114POPC   GL1 5089  43.893   7.426   8.864
  114POPC   GL2 5090  43.984   7.497   8.864
  114POPC   C1A 5091  43.843   7.411   8.564
  114POPC   D2A 5092  43.857   7.452   8.264
  114POPC   C3A 5093  43.900   7.429   7.964
  114POPC   C4A 5094  43.893   7.462   7.664
  114POPC   C1B 5095  44.123   7.533   8.564
  114POPC   C2B 5096  44.033   7.603   8.264
  114POPC   C3B 5097  44.098   7.544   7.964
  114POPC   C4B 5098  44.078   7.612   7.664
  115POPC   NC3 5099   7.381   0.440   9.464
  115POPC   PO4 5100   7.408   0.487   9.164
  115POPC   GL1 5101   7.377   0.442   8.864
  115POPC   GL2 5102   7.520   0.372   8.864
  115POPC   C1A 5103   7.461   0.399   8.564
  115POPC   D2A 5104   7.398   0.433   8.264
  115POPC   C3A 5105   7.376   0.415   7.964
  115POPC   C4A 5106   7.426   0.432   7.664
  115POPC   C1B 5107   7.707   0.378   8.564
  115POPC   C2B 5108   7.664   0.351   8.264
  115POPC   C3B 5109   7.676   0.368   7.964
  115POPC   C4B 5110   7.704   0.411   7.664
  116POPC   NC3 5111  26.079  26.816   9.464
  116POPC   PO4 5112  25.995  26.801   9.164
  116POPC   GL1 5113  25.999  26.781   8.864
  116POPC   GL2 5114  25.979  26.706   8.864
  116POPC   C1A 5115  26.019  26.780   8.564
  116POPC   D2A 5116  26.065  26.811   8.264
  116POPC   C3A 5117  26.074  26.796   7.964
  116POPC   C4A 5118  26.002  26.860   7.664
  116POPC   C1B 5119  25.975  26.572   8.564
  116POPC   C2B 5120  25.923  26.564   8.264
  116POPC   C3B 5121  25.995  26.542   7.964
  116POPC   C4B 5122  25.923  26.588   7.664
  117POPC   NC3 5123  13.677   8.162   9.464
  117POPC   PO4 5124  13.601   8.188   9.164
  117POPC   GL1 5125  13.654   8.231   8.864
  117POPC   GL2 5126  13.707   8.326   8.864
  117POPC   C1A 5127  13.619   8.221   8.564
  117POPC   D2A 5128  13.625   8.234   8.264
  117POPC   C3A 5129  13.661   8.215   7.964
  117POPC   C4A 5130  13.578   8.187   7.664
  117POPC   C1B 5131  13.833   8.342   8.564
  117POPC   C2B 5132  13.786   8.362   8.264
  117POPC   C3B 5133  13.795   8.339   7.964
  117POPC   C4B 5134  13.841   8.384   7.664
  118POPC   NC3 5135  39.240  22.144   9.464
  118POPC   PO4 5136  39.235  22.168   9.164
  118POPC   GL1 5137  39.216  22.130   8.864
  118POPC   GL2 5138  39.252  22.312   8.864
  118POPC   C1A 5139  39.256  22.125   8.564
  118POPC   D2A 5140  39.248  22.198   8.264
  118POPC   C3A 5141  39.266  22.146   7.964
  118POPC   C4A 5142  39.274  22.126   7.664
  118POPC   C1B 5143  39.316  22.405   8.564
  118POPC   C2B 5144  39.283  22.431   8.264
  118POPC   C3B 5145  39.270  22.433   7.964
  118POPC   C4B 5146  39.317  22.375   7.664
  119POPC   NC3 5147  15.954  40.751   9.464
  119POPC   PO4 5148  15.974  40.741   9.164
  119POPC   GL1 5149  15.911  40.826   8.864
  119POPC   GL2 5150  15.877  40.835   8.864
  119POPC   C1A 5151  15.949  40.764   8.564
  119POPC   D2A 5152  15.968  40.781   8.264
  119POPC   C3A 5153  15.932  40.798   7.964
  119POPC   C4A 5154  15.975  40.805   7.664
  119POPC   C1B 5155  15.723  40.871   8.564
  119POPC   C2B 5156  15.766  40.915   8.264
  119POPC   C3B 5157  15.771  40.903   7.964
  119POPC   C4B 5158  15.742  40.916   7.664
  120POPC   NC3 5159   0.414  13.670   9.464
  120POPC   PO4 5160   0.468  13.624   9.164
  120POPC   GL1 5161   0.466  13.643   8.864
  120POPC   GL2 5162   0.349  13.756   8.864
  120POPC   C1A 5163   0.392  13.602   8.564
  120POPC   D2A 5164   0.395  13.619   8.264
  120POPC   C3A 5165   0.462  13.648   7.964
  120POPC   C4A 5166   0.431  13.634   7.664
  120POPC   C1B 5167   0.316  13.853   8.564
  120POPC   C2B 5168   0.282  13.776   8.264
  120POPC   C3B 5169   0.286  13.825   7.964
  120POPC   C4B 5170   0.311  13.822   7.664
  121POPC   NC3 5171   5.136   8.219   9.464
  121POPC   PO4 5172   5.130   8.149   9.164
  121POPC   GL1 5173   5.054   8.231   8.864
  121POPC   GL2 5174   4.968   8.216   8.864
  121POPC   C1A 5175   5.081   8.174   8.564
  121POPC   D2A 5176   5.129   8.179   8.264
  121POPC   C3A 5177   5.108   8.199   7.964
  121POPC   C4A 5178   5.101   8.237   7.664
  121POPC   C1B 5179   4.891   8.178   8.564
  121POPC   C2B 5180   4.842   8.202   8.264
  121POPC   C3B 5181   4.808   8.223   7.964
  121POPC   C4B 5182   4.855   8.225   7.664
  122POPC   NC3 5183  42.319  36.865   9.464
  122POPC   PO4 5184  42.370  36.922   9.164
  122POPC   GL1 5185  42.353  36.944   8.864
  122POPC   GL2 5186  42.391  37.063   8.864
  122POPC   C1A 5187  42.307  36.914   8.564
  122POPC   D2A 5188  42.348  36.898   8.264
  122POPC   C3A 5189  42.299  36.948   7.964
  122POPC   C4A 5190  42.355  36.897   7.664
  122POPC   C1B 5191  42.376  37.123   8.564
  122POPC   C2B 5192  42.420  37.195   8.264
  122POPC   C3B 5193  42.391  37.163   7.964
  122POPC   C4B 5194  42.406  37.129   7.664
  123POPC   NC3 5195  38.503  43.870   9.464
  123POPC   PO4 5196  38.474  43.894   9.164
  123POPC   GL1 5197  38.440  43.909   8.864
  123POPC   GL2 5198  38.374  43.858   8.864
  123POPC   C1A 5199  38.426  43.863   8.564
  123POPC   D2A 5200  38.484  43.903   8.264
  123POPC   C3A 5201  38.490  43.871   7.964
  123POPC   C4A 5202  38.410  43.927   7.664
  123POPC   C1B 5203  38.219  43.779   8.564
  123POPC   C2B 5204  38.273  43.715   8.264
  123POPC   C3B 5205  38.255  43.727   7.964
  123POPC   C4B 5206  38.222  43.708   7.664
  124POPC   NC3 5207   9.739   6.658   9.464
  124POPC   PO4 5208   9.783   6.657   9.164
  124POPC   GL1 5209   9.779   6.638   8.864
  124POPC   GL2 5210   9.609   6.579   8.864
  124POPC   C1A 5211   9.725   6.602   8.564
  124POPC   D2A 5212   9.768   6.674   8.264
  124POPC   C3A 5213   9.782   6.604   7.964
  124POPC   C4A 5214   9.726   6.612   7.664
  124POPC   C1B 5215   9.472   6.521   8.564
  124POPC   C2B 5216   9.499   6.589   8.264
  124POPC   C3B 5217   9.541   6.560   7.964
  124POPC   C4B 5218   9.543   6.602   7.664
  125POPC   NC3 5219  20.642   4.337   9.464
  125POPC   PO4 5220  20.585   4.281   9.164
  125POPC   GL1 5221  20.630   4.301   8.864
  125POPC   GL2 5222  20.719   4.334   8.864
  125POPC   C1A 5223  20.644   4.311   8.564
  125POPC   D2A 5224  20.647   4.312   8.264
  125POPC   C3A 5225  20.574   4.293   7.964
  125POPC   C4A 5226  20.638   4.318   7.664
  125POPC   C1B 5227  20.875   4.330   8.564
  125POPC   C2B 5228  20.870   4.362   8.264
  125POPC   C3B 5229  20.811   4.326   7.964
  125POPC   C4B 5230  20.815   4.295   7.664
  126POPC   NC3 5231  34.559  29.879   9.464
  126POPC   PO4 5232  34.576  29.960   9.164
  126POPC   GL1 5233  34.607  29.883   8.864
  126POPC   GL2 5234  34.684  29.873   8.864
  126POPC   C1A 5235  34.615  29.960   8.564
  126POPC   D2A 5236  34.563  29.873   8.264
  126POPC   C3A 5237  34.601  29.941   7.964
  126POPC   C4A 5238  34.601  29.956   7.664
  126POPC   C1B 5239  34.825  29.839   8.564
  126POPC   C2B 5240  34.775  29.869   8.264
  126POPC   C3B 5241  34.823  29.863   7.964
  126POPC   C4B 5242  34.775  29.794   7.664
  127POPC   NC3 5243  39.200   8.222   9.464
  127POPC   PO4 5244  39.226   8.205   9.164
  127POPC   GL1 5245  39.269   8.160   8.864
  127POPC   GL2 5246  39.263   8.036   8.864
  127POPC   C1A 5247  39.220   8.226   8.564
  127POPC   D2A 5248  39.195   8.168   8.264
  127POPC   C3A 5249  39.193   8.220   7.964
  127POPC   C4A 5250  39.203   8.177   7.664
  127POPC   C1B 5251  39.247   7.957   8.564
  127POPC   C2B 5252  39.207   7.977   8.264
  127POPC   C3B 5253  39.258   7.966   7.964
  127POPC   C4B 5254  39.242   7.907   7.664
  128POPC   NC3 5255  12.118   5.848   9.464
  128POPC   PO4 5256  12.079   5.830   9.164
  128POPC   GL1 5257  12.095   5.869   8.864
  128POPC   GL2 5258  12.075   6.026   8.864
  128POPC   C1A 5259  12.105   5.888   8.564
  128POPC   D2A 5260  12.103   5.889   8.264
  128POPC   C3A 5261  12.111   5.841   7.964
  128POPC   C4A 5262  12.054   5.856   7.664
  128POPC   C1B 5263  12.124   6.105   8.564
  128POPC   C2B 5264  12.146   6.108   8.264
  128POPC   C3B 5265  12.167   6.092   7.964
  128POPC   C4B 5266  12.178   6.097   7.664
  129POPC   NC3 5267  33.844  12.046   9.464
  129POPC   PO4 5268  33.761  12.059   9.164
  129POPC   GL1 5269  33.792  12.071   8.864
  129POPC   GL2 5270  33.787  11.992   8.864
  129POPC   C1A 5271  33.808  12.046   8.564
  129POPC   D2A 5272  33.829  12.047   8.264
  129POPC   C3A 5273  33.837  12.036   7.964
  129POPC   C4A 5274  33.767  12.027   7.664
  129POPC   C1B 5275  33.822  11.791   8.564
  129POPC   C2B 5276  33.785  11.794   8.264
  129POPC   C3B 5277  33.843  11.840   7.964
  129POPC   C4B 5278  33.751  11.826   7.664
  130POPC   NC3 5279  16.690   8.970   9.464
  130POPC   PO4 5280  16.741   8.944   9.164
  130POPC   GL1 5281  16.729   8.941   8.864
  130POPC   GL2 5282  16.779   8.885   8.864
  130POPC   C1A 5283  16.714   8.935   8.564
  130POPC   D2A 5284  16.751   8.992   8.264
  130POPC   C3A 5285  16.750   9.006   7.964
  130POPC   C4A 5286  16.702   8.942   7.664
  130POPC   C1B 5287  16.936   8.823   8.564
  130POPC   C2B 5288  16.913   8.788   8.264
  130POPC   C3B 5289  16.950   8.780   7.964
  130POPC   C4B 5290  16.886   8.814   7.664
  131POPC   NC3 5291   9.756  19.819   9.464
  131POPC   PO4 5292   9.723  19.817   9.164
  131POPC   GL1 5293   9.750  19.856   8.864
  131POPC   GL2 5294   9.768  19.954   8.864
  131POPC   C1A 5295   9.748  19.859   8.564
  131POPC   D2A 5296   9.796  19.857   8.264
  131POPC   C3A 5297   9.787  19.788   7.964
  131POPC   C4A 5298   9.734  19.856   7.664
  131POPC   C1B 5299   9.829  20.105   8.564
  131POPC   C2B 5300   9.869  20.064   8.264
  131POPC   C3B 5301   9.865  20.023   7.964
  131POPC   C4B 5302   9.814  20.084   7.664
  132POPC   NC3 5303  42.288  29.919   9.464
  132POPC   PO4 5304  42.307  29.922   9.164
  132POPC   GL1 5305  42.335  29.956   8.864
  132POPC   GL2 5306  42.274  29.832   8.864
  132POPC   C1A 5307  42.376  29.903   8.564
  132POPC   D2A 5308  42.379  29.959   8.264
  132POPC   C3A 5309  42.310  29.947   7.964
  132POPC   C4A 5310  42.343  29.873   7.664
  132POPC   C1B 5311  42.277  29.710   8.564
  132POPC   C2B 5312  42.266  29.697   8.264
  132POPC   C3B 5313  42.274  29.630   7.964
  132POPC   C4B 5314  42.257  29.702   7.664
  133POPC   NC3 5315   7.384   2.774   9.464
  133POPC   PO4 5316   7.458   2.784   9.164
  133POPC   GL1 5317   7.406   2.806   8.864
  133POPC   GL2 5318   7.349   2.813   8.864
  133POPC   C1A 5319   7.451   2.790   8.564
  133POPC   D2A 5320   7.388   2.800   8.264
  133POPC   C3A 5321   7.425   2.769   7.964
  133POPC   C4A 5322   7.399   2.775   7.664
  133POPC   C1B 5323   7.212   2.921   8.564
  133POPC   C2B 5324   7.249   2.881   8.264
  133POPC   C3B 5325   7.239   2.888   7.964
  133POPC   C4B 5326   7.185   2.868   7.664
  134POPC   NC3 5327  40.005  43.894   9.464
  134POPC   PO4 5328  40.011  43.848   9.164
  134POPC   GL1 5329  40.031  43.889   8.864
  134POPC   GL2 5330  40.028  44.029   8.864
  134POPC   C1A 5331  40.042  43.837   8.564
  134POPC   D2A 5332  40.037  43.881   8.264
  134POPC   C3A 5333  39.957  43.847   7.964
  134POPC   C4A 5334  40.017  43.850   7.664
  134POPC   C1B 5335  39.989  44.168   8.564
  134POPC   C2B 5336  40.073  44.177   8.264
  134POPC   C3B 5337  40.059  44.127   7.964
  134POPC   C4B 5338  40.008  44.138   7.664
  135POPC   NC3 5339   5.822  12.107   9.464
  135POPC   PO4 5340   5.899  12.112   9.164
  135POPC   GL1 5341   5.851  12.048   8.864
  135POPC   GL2 5342   5.995  12.073   8.864
  135POPC   C1A 5343   5.859  12.079   8.564
  135POPC   D2A 5344   5.854  12.058   8.264
  135POPC   C3A 5345   5.864  12.116   7.964
  135POPC   C4A 5346   5.849  12.068   7.664
  135POPC   C1B 5347   6.165  12.119   8.564
  135POPC   C2B 5348   6.145  12.051   8.264
  135POPC   C3B 5349   6.090  12.135   7.964
  135POPC   C4B 5350   6.163  12.049   7.664
  136POPC   NC3 5351  33.052   8.939   9.464
  136POPC   PO4 5352  33.068   8.952   9.164
  136POPC   GL1 5353  33.024   8.953   8.864
  136POPC   GL2 5354  32.925   8.944   8.864
  136POPC   C1A 5355  32.976   8.978   8.564
  136POPC   D2A 5356  33.039   8.989   8.264
  136POPC   C3A 5357  33.021   9.001   7.964
  136POPC   C4A 5358  33.012   8.942   7.664
  136POPC   C1B 5359  32.810   8.901   8.564
  136POPC   C2B 5360  32.773   8.963   8.264
  136POPC   C3B 5361  32.793   8.961   7.964
  136POPC   C4B 5362  32.743   8.951   7.664
  137POPC   NC3 5363  22.976   6.688   9.464
  137POPC   PO4 5364  22.922   6.635   9.164
  137POPC   GL1 5365  22.941   6.626   8.864
  137POPC   GL2 5366  23.009   6.586   8.864
  137POPC   C1A 5367  22.915   6.611   8.564
  137POPC   D2A 5368  22.896   6.663   8.264
  137POPC   C3A 5369  22.987   6.653   7.964
  137POPC   C4A 5370  22.897   6.662   7.664
  137POPC   C1B 5371  23.226   6.527   8.564
  137POPC   C2B 5372  23.149   6.608   8.264
  137POPC   C3B 5373  23.209   6.555   7.964
  137POPC   C4B 5374  23.223   6.579   7.664
  138POPC   NC3 5375  26.076  36.168   9.464
  138POPC   PO4 5376  26.065  36.087   9.164
  138POPC   GL1 5377  25.996  36.138   8.864
  138POPC   GL2 5378  26.036  36.276   8.864
  138POPC   C1A 5379  26.086  36.131   8.564
  138POPC   D2A 5380  26.086  36.084   8.264
  138POPC   C3A 5381  25.994  36.162   7.964
  138POPC   C4A 5382  26.086  36.139   7.664
  138POPC   C1B 5383  26.050  36.361   8.564
  138POPC   C2B 5384  26.108  36.374   8.264
  138POPC   C3B 5385  26.120  36.338   7.964
  138POPC   C4B 5386  26.138  36.362   7.664
  139POPC   NC3 5387   9.753  39.222   9.464
  139POPC   PO4 5388   9.716  39.247   9.164
  139POPC   GL1 5389   9.746  39.209   8.864
  139POPC   GL2 5390   9.831  39.188   8.864
  139POPC   C1A 5391   9.717  39.210   8.564
  139POPC   D2A 5392   9.736  39.247   8.264
  139POPC   C3A 5393   9.782  39.272   7.964
  139POPC   C4A 5394   9.761  39.280   7.664
  139POPC   C1B 5395   9.977  39.172   8.564
  139POPC   C2B 5396  10.035  39.158   8.264
  139POPC   C3B 5397  10.007  39.183   7.964
  139POPC   C4B 5398  10.001  39.218   7.664
  140POPC   NC3 5399  10.542   6.692   9.464
  140POPC   PO4 5400  10.538   6.596   9.164
  140POPC   GL1 5401  10.482   6.670   8.864
  140POPC   GL2 5402  10.476   6.751   8.864
  140POPC   C1A 5403  10.533   6.640   8.564
  140POPC   D2A 5404  10.499   6.635   8.264
  140POPC   C3A 5405  10.530   6.639   7.964
  140POPC   C4A 5406  10.548   6.645   7.664
  140POPC   C1B 5407  10.348   6.906   8.564
  140POPC   C2B 5408  10.350   6.869   8.264
  140POPC   C3B 5409  10.403   6.872   7.964
  140POPC   C4B 5410  10.370   6.848   7.664
  141POPC   NC3 5411  43.115   4.303   9.464
  141POPC   PO4 5412  43.154   4.290   9.164
  141POPC   GL1 5413  43.147   4.313   8.864
  141POPC   GL2 5414  43.212   4.299   8.864
  141POPC   C1A 5415  43.136   4.366   8.564
  141POPC   D2A 5416  43.063   4.349   8.264
  141POPC   C3A 5417  43.130   4.302   7.964
  141POPC   C4A 5418  43.135   4.352   7.664
  141POPC   C1B 5419  43.399   4.272   8.564
  141POPC   C2B 5420  43.355   4.274   8.264
  141POPC   C3B 5421  43.328   4.271   7.964
  141POPC   C4B 5422  43.386   4.228   7.664
  142POPC   NC3 5423  35.366  26.034   9.464
  142POPC   PO4 5424  35.375  26.029   9.164
  142POPC   GL1 5425  35.369  26.017   8.864
  142POPC   GL2 5426  35.307  25.885   8.864
  142POPC   C1A 5427  35.358  26.027   8.564
  142POPC   D2A 5428  35.320  25.998   8.264
  142POPC   C3A 5429  35.390  26.019   7.964
  142POPC   C4A 5430  35.383  26.000   7.664
  142POPC   C1B 5431  35.274  25.791   8.564
  142POPC   C2B 5432  35.327  25.782   8.264
  142POPC   C3B 5433  35.316  25.770   7.964
  142POPC   C4B 5434  35.278  25.762   7.664
  143POPC   NC3 5435  35.351  40.762   9.464
  143POPC   PO4 5436  35.354  40.785   9.164
  143POPC   GL1 5437  35.362  40.807   8.864
  143POPC   GL2 5438  35.489  40.773   8.864
  143POPC   C1A 5439  35.303  40.765   8.564
  143POPC   D2A 5440  35.394  40.773   8.264
  143POPC   C3A 5441  35.401  40.830   7.964
  143POPC   C4A 5442  35.331  40.742   7.664
  143POPC   C1B 5443  35.590  40.667   8.564
  143POPC   C2B 5444  35.605  40.677   8.264
  143POPC   C3B 5445  35.580  40.730   7.964
  143POPC   C4B 5446  35.580  40.699   7.664
  144POPC   NC3 5447  38.453  27.598   9.464
  144POPC   PO4 5448  38.468  27.577   9.164
  144POPC   GL1 5449  38.483  27.563   8.864
  144POPC   GL2 5450  38.381  27.599   8.864
  144POPC   C1A 5451  38.433  27.611   8.564
  144POPC   D2A 5452  38.466  27.578   8.264
  144POPC   C3A 5453  38.476  27.573   7.964
  144POPC   C4A 5454  38.450  27.570   7.664
  144POPC   C1B 5455  38.242  27.489   8.564
  144POPC   C2B 5456  38.225  27.568   8.264
  144POPC   C3B 5457  38.231  27.560   7.964
  144POPC   C4B 5458  38.246  27.496   7.664
  145POPC   NC3 5459  22.962  19.814   9.464
  145POPC   PO4 5460  22.968  19.841   9.164
  145POPC   GL1 5461  22.948  19.863   8.864
  145POPC   GL2 5462  23.009  19.935   8.864
  145POPC   C1A 5463  22.973  19.796   8.564
  145POPC   D2A 5464  22.967  19.857   8.264
  145POPC   C3A 5465  22.940  19.831   7.964
  145POPC   C4A 5466  22.969  19.829   7.664
  145POPC   C1B 5467  23.142  19.907   8.564
  145POPC   C2B 5468  23.211  19.953   8.264
  145POPC   C3B 5469  23.182  19.918   7.964
  145POPC   C4B 5470  23.200  19.974   7.664
  146POPC   NC3 5471  36.126  22.147   9.464
  146POPC   PO4 5472  36.150  22.133   9.164
  146POPC   GL1 5473  36.177  22.170   8.864
  146POPC   GL2 5474  36.010  22.244   8.864
  146POPC   C1A 5475  36.127  22.189   8.564
  146POPC   D2A 5476  36.133  22.130   8.264
  146POPC   C3A 5477  36.134  22.196   7.964
  146POPC   C4A 5478  36.126  22.173   7.664
  146POPC   C1B 5479  35.900  22.325   8.564
  146POPC   C2B 5480  35.947  22.276   8.264
  146POPC   C3B 5481  35.932  22.269   7.964
  146POPC   C4B 5482  35.891  22.327   7.664
  147POPC   NC3 5483  24.494  25.302   9.464
  147POPC   PO4 5484  24.470  25.284   9.164
  147POPC   GL1 5485  24.536  25.310   8.864
  147POPC   GL2 5486  24.352  25.298   8.864
  147POPC   C1A 5487  24.499  25.243   8.564
  147POPC   D2A 5488  24.480  25.288   8.264
  147POPC   C3A 5489  24.470  25.232   7.964
  147POPC   C4A 5490  24.498  25.267   7.664
  147POPC   C1B 5491  24.285  25.291   8.564
  147POPC   C2B 5492  24.270  25.278   8.264
  147POPC   C3B 5493  24.264  25.334   7.964
  147POPC   C4B 5494  24.202  25.333   7.664
  148POPC   NC3 5495  24.461   1.259   9.464
  148POPC   PO4 5496  24.498   1.260   9.164
  148POPC   GL1 5497  24.501   1.228   8.864
  148POPC   GL2 5498  24.357   1.232   8.864
  148POPC   C1A 5499  24.485   1.180   8.564
  148POPC   D2A 5500  24.445   1.230   8.264
  148POPC   C3A 5501  24.487   1.167   7.964
  148POPC   C4A 5502  24.490   1.190   7.664
  148POPC   C1B 5503  24.291   1.154   8.564
  148POPC   C2B 5504  24.282   1.224   8.264
  148POPC   C3B 5505  24.266   1.181   7.964
  148POPC   C4B 5506  24.274   1.225   7.664
  149POPC   NC3 5507  10.502  40.032   9.464
  149POPC   PO4 5508  10.490  40.013   9.164
  149POPC   GL1 5509  10.482  40.018   8.864
  149POPC   GL2 5510  10.577  40.109   8.864
  149POPC   C1A 5511  10.516  40.020   8.564
  149POPC   D2A 5512  10.489  39.960   8.264
  149POPC   C3A 5513  10.479  39.962   7.964
  149POPC   C4A 5514  10.504  40.034   7.664
  149POPC   C1B 5515  10.553  40.266   8.564
  149POPC   C2B 5516  10.581  40.214   8.264
  149POPC   C3B 5517  10.580  40.288   7.964
  149POPC   C4B 5518  10.553  40.196   7.664
  150POPC   NC3 5519  36.919  37.687   9.464
  150POPC   PO4 5520  36.946  37.680   9.164
  150POPC   GL1 5521  36.877  37.692   8.864
  150POPC   GL2 5522  37.007  37.812   8.864
  150POPC   C1A 5523  36.930  37.723   8.564
  150POPC   D2A 5524  36.857  37.704   8.264
  150POPC   C3A 5525  36.907  37.664   7.964
  150POPC   C4A 5526  36.912  37.702   7.664
  150POPC   C1B 5527  37.043  37.886   8.564
  150POPC   C2B 5528  37.045  37.899   8.264
  150POPC   C3B 5529  37.037  37.879   7.964
  150POPC   C4B 5530  37.092  37.890   7.664
  151POPC   NC3 5531  15.189  16.755   9.464
  151POPC   PO4 5532  15.191  16.684   9.164
  151POPC   GL1 5533  15.174  16.755   8.864
  151POPC   GL2 5534  15.102  16.809   8.864
  151POPC   C1A 5535  15.184  16.740   8.564
  151POPC   D2A 5536  15.135  16.765   8.264
  151POPC   C3A 5537  15.192  16.773   7.964
  151POPC   C4A 5538  15.200  16.732   7.664
  151POPC   C1B 5539  15.122  16.963   8.564
  151POPC   C2B 5540  15.128  16.997   8.264
  151POPC   C3B 5541  15.119  16.965   7.964
  151POPC   C4B 5542  15.113  16.957   7.664
  152POPC   NC3 5543  26.000  15.955   9.464
  152POPC   PO4 5544  26.059  15.989   9.164
  152POPC   GL1 5545  26.006  15.952   8.864
  152POPC   GL2 5546  25.912  15.898   8.864
  152POPC   C1A 5547  25.994  15.946   8.564
  152POPC   D2A 5548  26.025  15.917   8.264
  152POPC   C3A 5549  26.068  15.930   7.964
  152POPC   C4A 5550  26.009  15.956   7.664
  152POPC   C1B 5551  25.842  15.778   8.564
  152POPC   C2B 5552  25.842  15.778   8.264
  152POPC   C3B 5553  25.915  15.811   7.964
  152POPC   C4B 5554  25.880  15.728   7.664
  153POPC   NC3 5555  25.234  38.479   9.464
  153POPC   PO4 5556  25.224  38.473   9.164
  153POPC   GL1 5557  25.239  38.488   8.864
  153POPC   GL2 5558  25.364  38.356   8.864
  153POPC   C1A 5559  25.223  38.451   8.564
  153POPC   D2A 5560  25.307  38.437   8.264
  153POPC   C3A 5561  25.228  38.440   7.964
  153POPC   C4A 5562  25.225  38.464   7.664
  153POPC   C1B 5563  25.449  38.279   8.564
  153POPC   C2B 5564  25.430  38.263   8.264
  153POPC   C3B 5565  25.447  38.290   7.964
  153POPC   C4B 5566  25.456  38.296   7.664
  154POPC   NC3 5567  24.498  18.263   9.464
  154POPC   PO4 5568  24.495  18.290   9.164
  154POPC   GL1 5569  24.490  18.250   8.864
  154POPC   GL2 5570  24.363  18.413   8.864
  154POPC   C1A 5571  24.525  18.310   8.564
  154POPC   D2A 5572  24.485  18.281   8.264
  154POPC   C3A 5573  24.450  18.296   7.964
  154POPC   C4A 5574  24.476  18.264   7.664
  154POPC   C1B 5575  24.329  18.433   8.564
  154POPC   C2B 5576  24.302  18.485   8.264
  154POPC   C3B 5577  24.365  18.461   7.964
  154POPC   C4B 5578  24.316  18.474   7.664
  155POPC   NC3 5579  25.292  24.473   9.464
  155POPC   PO4 5580  25.222  24.492   9.164
  155POPC   GL1 5581  25.303  24.470   8.864
  155POPC   GL2 5582  25.187  24.496   8.864
  155POPC   C1A 5583  25.270  24.524   8.564
  155POPC   D2A 5584  25.282  24.469   8.264
  155POPC   C3A 5585  25.294  24.500   7.964
  155POPC   C4A 5586  25.280  24.459   7.664
  155POPC   C1B 5587  24.969  24.501   8.564
  155POPC   C2B 5588  25.064  24.434   8.264
  155POPC   C3B 5589  25.019  24.456   7.964
  155POPC   C4B 5590  24.998  24.447   7.664
  156POPC   NC3 5591  29.913  36.877   9.464
  156POPC   PO4 5592  29.883  36.883   9.164
  156POPC   GL1 5593  29.905  36.856   8.864
  156POPC   GL2 5594  29.890  37.000   8.864
  156POPC   C1A 5595  29.886  36.887   8.564
  156POPC   D2A 5596  29.949  36.905   8.264
  156POPC   C3A 5597  29.882  36.902   7.964
  156POPC   C4A 5598  29.910  36.930   7.664
  156POPC   C1B 5599  29.822  37.128   8.564
  156POPC   C2B 5600  29.876  37.166   8.264
  156POPC   C3B 5601  29.799  37.165   7.964
  156POPC   C4B 5602  29.875  37.101   7.664
  157POPC   NC3 5603  18.319  15.907   9.464
  157POPC   PO4 5604  18.327  15.990   9.164
  157POPC   GL1 5605  18.310  15.907   8.864
  157POPC   GL2 5606  18.112  15.994   8.864
  157POPC   C1A 5607  18.261  15.952   8.564
  157POPC   D2A 5608  18.319  15.966   8.264
  157POPC   C3A 5609  18.277  16.000   7.964
  157POPC   C4A 5610  18.262  15.975   7.664
  157POPC   C1B 5611  18.054  15.987   8.564
  157POPC   C2B 5612  18.002  15.960   8.264
  157POPC   C3B 5613  18.048  15.985   7.964
  157POPC   C4B 5614  18.071  15.952   7.664
  158POPC   NC3 5615  16.701   4.323   9.464
  158POPC   PO4 5616  16.774   4.365   9.164
  158POPC   GL1 5617  16.742   4.346   8.864
  158POPC   GL2 5618  16.624   4.224   8.864
  158POPC   C1A 5619  16.684   4.321   8.564
  158POPC   D2A 5620  16.700   4.284   8.264
  158POPC   C3A 5621  16.739   4.294   7.964
  158POPC   C4A 5622  16.722   4.271   7.664
  158POPC   C1B 5623  16.489   4.177   8.564
  158POPC   C2B 5624  16.475   4.150   8.264
  158POPC   C3B 5625  16.566   4.159   7.964
  158POPC   C4B 5626  16.535   4.234   7.664
  159POPC   NC3 5627  10.523  18.275   9.464
  159POPC   PO4 5628  10.515  18.268   9.164
  159POPC   GL1 5629  10.483  18.265   8.864
  159POPC   GL2 5630  10.464  18.441   8.864
  159POPC   C1A 5631  10.521  18.275   8.564
  159POPC   D2A 5632  10.525  18.271   8.264
  159POPC   C3A 5633  10.524  18.277   7.964
  159POPC   C4A 5634  10.548  18.257   7.664
  159POPC   C1B 5635  10.511  18.579   8.564
  159POPC   C2B 5636  10.467  18.565   8.264
  159POPC   C3B 5637  10.483  18.489   7.964
  159POPC   C4B 5638  10.453  18.526   7.664
  160POPC   NC3 5639  24.463  37.636   9.464
  160POPC   PO4 5640  24.481  37.693   9.164
  160POPC   GL1 5641  24.479  37.721   8.864
  160POPC   GL2 5642  24.631  37.630   8.864
  160POPC   C1A 5643  24.517  37.642   8.564
  160POPC   D2A 5644  24.472  37.651   8.264
  160POPC   C3A 5645  24.498  37.711   7.964
  160POPC   C4A 5646  24.452  37.718   7.664
  160POPC   C1B 5647  24.686  37.522   8.564
  160POPC   C2B 5648  24.706  37.526   8.264
  160POPC   C3B 5649  24.680  37.508   7.964
  160POPC   C4B 5650  24.697  37.516   7.664
  161POPC   NC3 5651   6.660  19.015   9.464
  161POPC   PO4 5652   6.666  19.028   9.164
  161POPC   GL1 5653   6.671  19.072   8.864
  161POPC   GL2 5654   6.689  19.187   8.864
  161POPC   C1A 5655   6.672  19.020   8.564
  161POPC   D2A 5656   6.598  19.045   8.264
  161POPC   C3A 5657   6.635  19.106   7.964
  161POPC   C4A 5658   6.669  19.062   7.664
  161POPC   C1B 5659   6.748  19.308   8.564
  161POPC   C2B 5660   6.770  19.217   8.264
  161POPC   C3B 5661   6.795  19.285   7.964
  161POPC   C4B 5662   6.790  19.234   7.664
  162POPC   NC3 5663  16.760  28.352   9.464
  162POPC   PO4 5664  16.740  28.367   9.164
  162POPC   GL1 5665  16.758  28.385   8.864
  162POPC   GL2 5666  16.705  28.523   8.864
  162POPC   C1A 5667  16.694  28.339   8.564
  162POPC   D2A 5668  16.774  28.376   8.264
  162POPC   C3A 5669  16.760  28.374   7.964
  162POPC   C4A 5670  16.712  28.350   7.664
  162POPC   C1B 5671  16.726  28.628   8.564
  162POPC   C2B 5672  16.774  28.666   8.264
  162POPC   C3B 5673  16.686  28.667   7.964
  162POPC   C4B 5674  16.736  28.660   7.664
  163POPC   NC3 5675   1.996  28.365   9.464
  163POPC   PO4 5676   1.991  28.363   9.164
  163POPC   GL1 5677   2.038  28.380   8.864
  163POPC   GL2 5678   1.898  28.415   8.864
  163POPC   C1A 5679   1.945  28.323   8.564
  163POPC   D2A 5680   2.001  28.342   8.264
  163POPC   C3A 5681   1.982  28.390   7.964
  163POPC   C4A 5682   1.946  28.385   7.664
  163POPC   C1B 5683   1.721  28.509   8.564
  163POPC   C2B 5684   1.749  28.455   8.264
  163POPC   C3B 5685   1.742  28.508   7.964
  163POPC   C4B 5686   1.760  28.484   7.664
  164POPC   NC3 5687  11.292   6.691   9.464
  164POPC   PO4 5688  11.298   6.671   9.164
  164POPC   GL1 5689  11.306   6.661   8.864
  164POPC   GL2 5690  11.223   6.638   8.864
  164POPC   C1A 5691  11.339   6.610   8.564
  164POPC   D2A 5692  11.298   6.677   8.264
  164POPC   C3A 5693  11.333   6.644   7.964
  164POPC   C4A 5694  11.338   6.679   7.664
  164POPC   C1B 5695  11.084   6.589   8.564
  164POPC   C2B 5696  11.030   6.513   8.264
  164POPC   C3B 5697  11.074   6.547   7.964
  164POPC   C4B 5698  11.095   6.587   7.664
  165POPC   NC3 5699   4.325  44.625   9.464
  165POPC   PO4 5700   4.351  44.638   9.164
  165POPC   GL1 5701   4.336  44.696   8.864
  165POPC   GL2 5702   4.365  44.769   8.864
  165POPC   C1A 5703   4.279  44.649   8.564
  165POPC   D2A 5704   4.326  44.628   8.264
  165POPC   C3A 5705   4.287  44.702   7.964
  165POPC   C4A 5706   4.272  44.675   7.664
  165POPC   C1B 5707   4.420  44.862   8.564
  165POPC   C2B 5708   4.449  44.889   8.264
  165POPC   C3B 5709   4.410  44.918   7.964
  165POPC   C4B 5710   4.451  44.927   7.664
  166POPC   NC3 5711  20.644  17.478   9.464
  166POPC   PO4 5712  20.582  17.481   9.164
  166POPC   GL1 5713  20.592  17.509   8.864
  166POPC   GL2 5714  20.614  17.399   8.864
  166POPC   C1A 5715  20.634  17.503   8.564
  166POPC   D2A 5716  20.593  17.540   8.264
  166POPC   C3A 5717  20.643  17.539   7.964
  166POPC   C4A 5718  20.568  17.497   7.664
  166POPC   C1B 5719  20.570  17.229   8.564
  166POPC   C2B 5720  20.624  17.307   8.264
  166POPC   C3B 5721  20.562  17.233   7.964
  166POPC   C4B 5722  20.559  17.229   7.664
  167POPC   NC3 5723  35.354  32.206   9.464
  167POPC   PO4 5724  35.398  32.255   9.164
  167POPC   GL1 5725  35.338  32.252   8.864
  167POPC   GL2 5726  35.352  32.128   8.864
  167POPC   C1A 5727  35.302  32.243   8.564
  167POPC   D2A 5728  35.368  32.219   8.264
  167POPC   C3A 5729  35.312  32.243   7.964
  167POPC   C4A 5730  35.369  32.278   7.664
  167POPC   C1B 5731  35.332  32.016   8.564
  167POPC   C2B 5732  35.364  32.001   8.264
  167POPC   C3B 5733  35.314  31.976   7.964
  167POPC   C4B 5734  35.325  31.990   7.664
  168POPC   NC3 5735  19.076  33.798   9.464
  168POPC   PO4 5736  19.023  33.787   9.164
  168POPC   GL1 5737  19.094  33.824   8.864
  168POPC   GL2 5738  19.034  33.945   8.864
  168POPC   C1A 5739  19.048  33.811   8.564
  168POPC   D2A 5740  19.061  33.822   8.264
  168POPC   C3A 5741  19.037  33.820   7.964
  168POPC   C4A 5742  19.019  33.840   7.664
  168POPC   C1B 5743  18.946  34.064   8.564
  168POPC   C2B 5744  18.903  34.034   8.264
  168POPC   C3B 5745  18.947  34.000   7.964
  168POPC   C4B 5746  18.956  33.977   7.664
  169POPC   NC3 5747  21.435   9.019   9.464
  169POPC   PO4 5748  21.421   8.965   9.164
  169POPC   GL1 5749  21.415   8.968   8.864
  169POPC   GL2 5750  21.385   8.899   8.864
  169POPC   C1A 5751  21.349   8.997   8.564
  169POPC   D2A 5752  21.377   8.953   8.264
  169POPC   C3A 5753  21.369   8.973   7.964
  169POPC   C4A 5754  21.375   8.923   7.664
  169POPC   C1B 5755  21.339   8.693   8.564
  169POPC   C2B 5756  21.332   8.730   8.264
  169POPC   C3B 5757  21.301   8.693   7.964
  169POPC   C4B 5758  21.308   8.754   7.664
  170POPC   NC3 5759  40.805  15.973   9.464
  170POPC   PO4 5760  40.822  15.946   9.164
  170POPC   GL1 5761  40.768  15.994   8.864
  170POPC   GL2 5762  40.823  15.818   8.864
  170POPC   C1A 5763  40.789  15.960   8.564
  170POPC   D2A 5764  40.742  15.956   8.264
  170POPC   C3A 5765  40.790  15.995   7.964
  170POPC   C4A 5766  40.782  15.955   7.664
  170POPC   C1B 5767  40.919  15.745   8.564
  170POPC   C2B 5768  40.934  15.765   8.264
  170POPC   C3B 5769  40.933  15.756   7.964
  170POPC   C4B 5770  40.946  15.779   7.664
  171POPC   NC3 5771  34.614  25.309   9.464
  171POPC   PO4 5772  34.533  25.309   9.164
  171POPC   GL1 5773  34.611  25.311   8.864
  171POPC   GL2 5774  34.569  25.371   8.864
  171POPC   C1A 5775  34.564  25.251   8.564
  171POPC   D2A 5776  34.550  25.289   8.264
  171POPC   C3A 5777  34.556  25.293   7.964
  171POPC   C4A 5778  34.536  25.266   7.664
  171POPC   C1B 5779  34.545  25.518   8.564
  171POPC   C2B 5780  34.546  25.518   8.264
  171POPC   C3B 5781  34.536  25.517   7.964
  171POPC   C4B 5782  34.549  25.515   7.664
  172POPC   NC3 5783  19.045  24.524   9.464
  172POPC   PO4 5784  19.043  24.511   9.164
  172POPC   GL1 5785  19.016  24.440   8.864
  172POPC   GL2 5786  19.081  24.601   8.864
  172POPC   C1A 5787  19.079  24.535   8.564
  172POPC   D2A 5788  19.038  24.473   8.264
  172POPC   C3A 5789  19.059  24.456   7.964
  172POPC   C4A 5790  19.086  24.482   7.664
  172POPC   C1B 5791  19.183  24.710   8.564
  172POPC   C2B 5792  19.150  24.674   8.264
  172POPC   C3B 5793  19.209  24.760   7.964
  172POPC   C4B 5794  19.200  24.746   7.664
  173POPC   NC3 5795   5.853  36.087   9.464
  173POPC   PO4 5796   5.820  36.153   9.164
  173POPC   GL1 5797   5.835  36.173   8.864
  173POPC   GL2 5798   5.850  36.278   8.864
  173POPC   C1A 5799   5.825  36.146   8.564
  173POPC   D2A 5800   5.919  36.123   8.264
  173POPC   C3A 5801   5.857  36.154   7.964
  173POPC   C4A 5802   5.875  36.176   7.664
  173POPC   C1B 5803   5.886  36.398   8.564
  173POPC   C2B 5804   5.915  36.384   8.264
  173POPC   C3B 5805   5.957  36.359   7.964
  173POPC   C4B 5806   5.953  36.331   7.664
  174POPC   NC3 5807  43.930  25.306   9.464
  174POPC   PO4 5808  43.911  25.216   9.164
  174POPC   GL1 5809  43.910  25.297   8.864
  174POPC   GL2 5810  43.964  25.187   8.864
  174POPC   C1A 5811  43.919  25.306   8.564
  174POPC   D2A 5812  43.867  25.302   8.264
  174POPC   C3A 5813  43.879  25.261   7.964
  174POPC   C4A 5814  43.838  25.249   7.664
  174POPC   C1B 5815  44.139  25.155   8.564
  174POPC   C2B 5816  44.072  25.095   8.264
  174POPC   C3B 5817  44.082  25.085   7.964
  174POPC   C4B 5818  44.047  25.087   7.664
  175POPC   NC3 5819  38.491   6.651   9.464
  175POPC   PO4 5820  38.407   6.637   9.164
  175POPC   GL1 5821  38.492   6.597   8.864
  175POPC   GL2 5822  38.387   6.557   8.864
  175POPC   C1A 5823  38.485   6.615   8.564
  175POPC   D2A 5824  38.490   6.618   8.264
  175POPC   C3A 5825  38.444   6.638   7.964
  175POPC   C4A 5826  38.488   6.613   7.664
  175POPC   C1B 5827  38.286   6.443   8.564
  175POPC   C2B 5828  38.235   6.472   8.264
  175POPC   C3B 5829  38.270   6.458   7.964
  175POPC   C4B 5830  38.213   6.450   7.664
  176POPC   NC3 5831  29.124  33.806   9.464
  176POPC   PO4 5832  29.108  33.834   9.164
  176POPC   GL1 5833  29.106  33.809   8.864
  176POPC   GL2 5834  29.052  33.824   8.864
  176POPC   C1A 5835  29.149  33.836   8.564
  176POPC   D2A 5836  29.141  33.815   8.264
  176POPC   C3A 5837  29.138  33.849   7.964
  176POPC   C4A 5838  29.129  33.846   7.664
  176POPC   C1B 5839  28.867  33.869   8.564
  176POPC   C2B 5840  28.922  33.802   8.264
  176POPC   C3B 5841  28.927  33.861   7.964
  176POPC   C4B 5842  28.931  33.797   7.664
  177POPC   NC3 5843  10.565  32.281   9.464
  177POPC   PO4 5844  10.552  32.243   9.164
  177POPC   GL1 5845  10.504  32.205   8.864
  177POPC   GL2 5846  10.406  32.169   8.864
  177POPC   C1A 5847  10.482  32.237   8.564
  177POPC   D2A 5848  10.519  32.254   8.264
  177POPC   C3A 5849  10.557  32.248   7.964
  177POPC   C4A 5850  10.492  32.202   7.664
  177POPC   C1B 5851  10.292  32.173   8.564
  177POPC   C2B 5852  10.255  32.181   8.264
  177POPC   C3B 5853  10.240  32.169   7.964
  177POPC   C4B 5854  10.296  32.199   7.664
  178POPC   NC3 5855  36.163  30.671   9.464
  178POPC   PO4 5856  36.150  30.657   9.164
  178POPC   GL1 5857  36.117  30.732   8.864
  178POPC   GL2 5858  36.212  30.644   8.864
  178POPC   C1A 5859  36.162  30.741   8.564
  178POPC   D2A 5860  36.176  30.666   8.264
  178POPC   C3A 5861  36.104  30.729   7.964
  178POPC   C4A 5862  36.100  30.717   7.664
  178POPC   C1B 5863  36.424  30.697   8.564
  178POPC   C2B 5864  36.372  30.650   8.264
  178POPC   C3B 5865  36.396  30.663   7.964
  178POPC   C4B 5866  36.389  30.671   7.664
  179POPC   NC3 5867  19.880  15.960   9.464
  179POPC   PO4 5868  19.791  15.918   9.164
  179POPC   GL1 5869  19.867  15.939   8.864
  179POPC   GL2 5870  19.721  15.928   8.864
  179POPC   C1A 5871  19.791  15.923   8.564
  179POPC   D2A 5872  19.875  15.962   8.264
  179POPC   C3A 5873  19.815  15.994   7.964
  179POPC   C4A 5874  19.809  15.970   7.664
  179POPC   C1B 5875  19.624  15.782   8.564
  179POPC   C2B 5876  19.587  15.798   8.264
  179POPC   C3B 5877  19.668  15.791   7.964
  179POPC   C4B 5878  19.653  15.829   7.664
  180POPC   NC3 5879  13.639  38.501   9.464
  180POPC   PO4 5880  13.635  38.426   9.164
  180POPC   GL1 5881  13.654  38.444   8.864
  180POPC   GL2 5882  13.583  38.568   8.864
  180POPC   C1A 5883  13.591  38.452   8.564
  180POPC   D2A 5884  13.609  38.491   8.264
  180POPC   C3A 5885  13.652  38.471   7.964
  180POPC   C4A 5886  13.593  38.473   7.664
  180POPC   C1B 5887  13.527  38.692   8.564
  180POPC   C2B 5888  13.556  38.670   8.264
  180POPC   C3B 5889  13.591  38.701   7.964
  180POPC   C4B 5890  13.513  38.737   7.664
  181POPC   NC3 5891  39.982  14.426   9.464
  181POPC   PO4 5892  39.962  14.443   9.164
  181POPC   GL1 5893  40.021  14.403   8.864
  181POPC   GL2 5894  40.094  14.458   8.864
  181POPC   C1A 5895  40.034  14.373   8.564
  181POPC   D2A 5896  40.000  14.389   8.264
  181POPC   C3A 5897  39.980  14.423   7.964
  181POPC   C4A 5898  39.995  14.400   7.664
  181POPC   C1B 5899  40.274  14.533   8.564
  181POPC   C2B 5900  40.249  14.480   8.264
  181POPC   C3B 5901  40.207  14.483   7.964
  181POPC   C4B 5902  40.269  14.516   7.664
  182POPC   NC3 5903  19.857  32.199   9.464
  182POPC   PO4 5904  19.873  32.297   9.164
  182POPC   GL1 5905  19.828  32.235   8.864
  182POPC   GL2 5906  19.686  32.202   8.864
  182POPC   C1A 5907  19.862  32.244   8.564
  182POPC   D2A 5908  19.869  32.259   8.264
  182POPC   C3A 5909  19.851  32.240   7.964
  182POPC   C4A 5910  19.813  32.286   7.664
  182POPC   C1B 5911  19.609  32.196   8.564
  182POPC   C2B 5912  19.576  32.157   8.264
  182POPC   C3B 5913  19.570  32.153   7.964
  182POPC   C4B 5914  19.630  32.126   7.664
  183POPC   NC3 5915  26.020  29.138   9.464
  183POPC   PO4 5916  25.997  29.127   9.164
  183POPC   GL1 5917  26.022  29.165   8.864
  183POPC   GL2 5918  26.080  29.044   8.864
  183POPC   C1A 5919  26.019  29.172   8.564
  183POPC   D2A 5920  26.014  29.138   8.264
  183POPC   C3A 5921  26.002  29.190   7.964
  183POPC   C4A 5922  26.046  29.158   7.664
  183POPC   C1B 5923  26.099  28.853   8.564
  183POPC   C2B 5924  26.079  28.908   8.264
  183POPC   C3B 5925  26.065  28.935   7.964
  183POPC   C4B 5926  26.039  28.929   7.664
  184POPC   NC3 5927   9.753   2.728   9.464
  184POPC   PO4 5928   9.746   2.722   9.164
  184POPC   GL1 5929   9.717   2.751   8.864
  184POPC   GL2 5930   9.705   2.842   8.864
  184POPC   C1A 5931   9.747   2.748   8.564
  184POPC   D2A 5932   9.712   2.777   8.264
  184POPC   C3A 5933   9.794   2.775   7.964
  184POPC   C4A 5934   9.748   2.747   7.664
  184POPC   C1B 5935   9.626   3.002   8.564
  184POPC   C2B 5936   9.580   2.955   8.264
  184POPC   C3B 5937   9.618   3.004   7.964
  184POPC   C4B 5938   9.638   3.016   7.664
  185POPC   NC3 5939  20.657   5.844   9.464
  185POPC   PO4 5940  20.578   5.834   9.164
  185POPC   GL1 5941  20.634   5.826   8.864
  185POPC   GL2 5942  20.633   5.724   8.864
  185POPC   C1A 5943  20.656   5.859   8.564
  185POPC   D2A 5944  20.620   5.838   8.264
  185POPC   C3A 5945  20.633   5.878   7.964
  185POPC   C4A 5946  20.579   5.917   7.664
  185POPC   C1B 5947  20.700   5.701   8.564
  185POPC   C2B 5948  20.782   5.682   8.264
  185POPC   C3B 5949  20.700   5.613   7.964
  185POPC   C4B 5950  20.791   5.623   7.664
  186POPC   NC3 5951  25.281   9.766   9.464
  186POPC   PO4 5952  25.228   9.741   9.164
  186POPC   GL1 5953  25.231   9.772   8.864
  186POPC   GL2 5954  25.391   9.789   8.864
  186POPC   C1A 5955  25.237   9.699   8.564
  186POPC   D2A 5956  25.271   9.716   8.264
  186POPC   C3A 5957  25.266   9.789   7.964
  186POPC   C4A 5958  25.231   9.796   7.664
  186POPC   C1B 5959  25.545   9.857   8.564
  186POPC   C2B 5960  25.499   9.852   8.264
  186POPC   C3B 5961  25.508   9.856   7.964
  186POPC   C4B 5962  25.506   9.846   7.664
  187POPC   NC3 5963   6.670   5.899   9.464
  187POPC   PO4 5964   6.605   5.863   9.164
  187POPC   GL1 5965   6.598   5.901   8.864
  187POPC   GL2 5966   6.588   5.992   8.864
  187POPC   C1A 5967   6.621   5.919   8.564
  187POPC   D2A 5968   6.692   5.846   8.264
  187POPC   C3A 5969   6.639   5.895   7.964
  187POPC   C4A 5970   6.623   5.909   7.664
  187POPC   C1B 5971   6.437   6.012   8.564
  187POPC   C2B 5972   6.413   6.049   8.264
  187POPC   C3B 5973   6.436   6.040   7.964
  187POPC   C4B 5974   6.434   6.065   7.664
  188POPC   NC3 5975  33.010  21.397   9.464
  188POPC   PO4 5976  33.073  21.361   9.164
  188POPC   GL1 5977  32.992  21.426   8.864
  188POPC   GL2 5978  33.180  21.461   8.864
  188POPC   C1A 5979  33.040  21.418   8.564
  188POPC   D2A 5980  33.034  21.406   8.264
  188POPC   C3A 5981  33.065  21.431   7.964
  188POPC   C4A 5982  32.998  21.405   7.664
  188POPC   C1B 5983  33.236  21.510   8.564
  188POPC   C2B 5984  33.288  21.530   8.264
  188POPC   C3B 5985  33.200  21.446   7.964
  188POPC   C4B 5986  33.223  21.497   7.664
  189POPC   NC3 5987   8.176  21.386   9.464
  189POPC   PO4 5988   8.225  21.360   9.164
  189POPC   GL1 5989   8.214  21.410   8.864
  189POPC   GL2 5990   8.245  21.319   8.864
  189POPC   C1A 5991   8.223  21.374   8.564
  189POPC   D2A 5992   8.161  21.354   8.264
  189POPC   C3A 5993   8.197  21.344   7.964
  189POPC   C4A 5994   8.219  21.411   7.664
  189POPC   C1B 5995   8.258  21.197   8.564
  189POPC   C2B 5996   8.278  21.141   8.264
  189POPC   C3B 5997   8.292  21.108   7.964
  189POPC   C4B 5998   8.264  21.107   7.664
  190POPC   NC3 5999  13.616  30.724   9.464
  190POPC   PO4 6000  13.660  30.730   9.164
  190POPC   GL1 6001  13.619  30.680   8.864
  190POPC   GL2 6002  13.714  30.827   8.864
  190POPC   C1A 6003  13.670  30.689   8.564
  190POPC   D2A 6004  13.595  30.743   8.264
  190POPC   C3A 6005  13.665  30.670   7.964
  190POPC   C4A 6006  13.654  30.715   7.664
  190POPC   C1B 6007  13.746  30.868   8.564
  190POPC   C2B 6008  13.787  30.865   8.264
  190POPC   C3B 6009  13.778  30.896   7.964
  190POPC   C4B 6010  13.781  30.882   7.664
  191POPC   NC3 6011   5.143  14.422   9.464
  191POPC   PO4 6012   5.113  14.417   9.164
  191POPC   GL1 6013   5.093  14.369   8.864
  191POPC   GL2 6014   5.148  14.538   8.864
  191POPC   C1A 6015   5.130  14.409   8.564
  191POPC   D2A 6016   5.139  14.372   8.264
  191POPC   C3A 6017   5.110  14.367   7.964
  191POPC   C4A 6018   5.064  14.426   7.664
  191POPC   C1B 6019   5.284  14.610   8.564
  191POPC   C2B 6020   5.212  14.562   8.264
  191POPC   C3B 6021   5.260  14.564   7.964
  191POPC   C4B 6022   5.198  14.564   7.664
  192POPC   NC3 6023  17.491  27.618   9.464
  192POPC   PO4 6024  17.507  27.582   9.164
  192POPC   GL1 6025  17.551  27.581   8.864
  192POPC   GL2 6026  17.560  27.673   8.864
  192POPC   C1A 6027  17.538  27.570   8.564
  192POPC   D2A 6028  17.497  27.546   8.264
  192POPC   C3A 6029  17.469  27.548   7.964
  192POPC   C4A 6030  17.520  27.566   7.664
  192POPC   C1B 6031  17.654  27.813   8.564
  192POPC   C2B 6032  17.652  27.749   8.264
  192POPC   C3B 6033  17.670  27.814   7.964
  192POPC   C4B 6034  17.709  27.813   7.664
  193POPC   NC3 6035   9.737   3.495   9.464
  193POPC   PO4 6036   9.713   3.588   9.164
  193POPC   GL1 6037   9.755   3.540   8.864
  193POPC   GL2 6038   9.833   3.445   8.864
  193POPC   C1A 6039   9.712   3.558   8.564
  193POPC   D2A 6040   9.720   3.526   8.264
  193POPC   C3A 6041   9.744   3.501   7.964
  193POPC   C4A 6042   9.779   3.565   7.664
  193POPC   C1B 6043   9.973   3.405   8.564
  193POPC   C2B 6044   9.984   3.401   8.264
  193POPC   C3B 6045  10.000   3.416   7.964
  193POPC   C4B 6046   9.927   3.396   7.664
  194POPC   NC3 6047  42.323  30.737   9.464
  194POPC   PO4 6048  42.342  30.702   9.164
  194POPC   GL1 6049  42.380  30.743   8.864
  194POPC   GL2 6050  42.459  30.761   8.864
  194POPC   C1A 6051  42.374  30.678   8.564
  194POPC   D2A 6052  42.308  30.723   8.264
  194POPC   C3A 6053  42.336  30.686   7.964
  194POPC   C4A 6054  42.317  30.670   7.664
  194POPC   C1B 6055  42.476  30.885   8.564
  194POPC   C2B 6056  42.512  30.843   8.264
  194POPC   C3B 6057  42.521  30.854   7.964
  194POPC   C4B 6058  42.567  30.895   7.664
  195POPC   NC3 6059  36.100  27.618   9.464
  195POPC   PO4 6060  36.122  27.596   9.164
  195POPC   GL1 6061  36.116  27.582   8.864
  195POPC   GL2 6062  36.054  27.610   8.864
  195POPC   C1A 6063  36.158  27.589   8.564
  195POPC   D2A 6064  36.088  27.546   8.264
  195POPC   C3A 6065  36.083  27.550   7.964
  195POPC   C4A 6066  36.079  27.558   7.664
  195POPC   C1B 6067  35.928  27.518   8.564
  195POPC   C2B 6068  35.932  27.566   8.264
  195POPC   C3B 6069  35.898  27.509   7.964
  195POPC   C4B 6070  35.923  27.519   7.664
  196POPC   NC3 6071  21.395   5.135   9.464
  196POPC   PO4 6072  21.337   5.106   9.164
  196POPC   GL1 6073  21.345   5.095   8.864
  196POPC   GL2 6074  21.414   5.192   8.864
  196POPC   C1A 6075  21.402   5.052   8.564
  196POPC   D2A 6076  21.350   5.060   8.264
  196POPC   C3A 6077  21.343   5.122   7.964
  196POPC   C4A 6078  21.370   5.090   7.664
  196POPC   C1B 6079  21.462   5.362   8.564
  196POPC   C2B 6080  21.490   5.296   8.264
  196POPC   C3B 6081  21.471   5.276   7.964
  196POPC   C4B 6082  21.516   5.370   7.664
  197POPC   NC3 6083   8.162  17.460   9.464
  197POPC   PO4 6084   8.238  17.545   9.164
  197POPC   GL1 6085   8.212  17.508   8.864
  197POPC   GL2 6086   8.116  17.553   8.864
  197POPC   C1A 6087   8.242  17.544   8.564
  197POPC   D2A 6088   8.215  17.520   8.264
  197POPC   C3A 6089   8.147  17.503   7.964
  197POPC   C4A 6090   8.242  17.459   7.664
  197POPC   C1B 6091   8.020  17.675   8.564
  197POPC   C2B 6092   7.986  17.646   8.264
  197POPC   C3B 6093   8.011  17.649   7.964
  197POPC   C4B 6094   8.068  17.688   7.664
  198POPC   NC3 6095  22.188  32.264   9.464
  198POPC   PO4 6096  22.171  32.269   9.164
  198POPC   GL1 6097  22.172  32.249   8.864
  198POPC   GL2 6098  22.278  32.245   8.864
  198POPC   C1A 6099  22.161  32.216   8.564
  198POPC   D2A 6100  22.181  32.230   8.264
  198POPC   C3A 6101  22.154  32.246   7.964
  198POPC   C4A 6102  22.123  32.265   7.664
  198POPC   C1B 6103  22.396  32.126   8.564
  198POPC   C2B 6104  22.368  32.172   8.264
  198POPC   C3B 6105  22.402  32.155   7.964
  198POPC   C4B 6106  22.368  32.212   7.664
  199POPC   NC3 6107  44.614  40.742   9.464
  199POPC   PO4 6108  44.659  40.767   9.164
  199POPC   GL1 6109  44.699  40.828   8.864
  199POPC   GL2 6110  44.556  40.760   8.864
  199POPC   C1A 6111  44.627  40.793   8.564
  199POPC   D2A 6112  44.642  40.757   8.264
  199POPC   C3A 6113  44.633  40.809   7.964
  199POPC   C4A 6114  44.619  40.825   7.664
  199POPC   C1B 6115  44.420  40.695   8.564
  199POPC   C2B 6116  44.378  40.754   8.264
  199POPC   C3B 6117  44.408  40.758   7.964
  199POPC   C4B 6118  44.401  40.750   7.664
  200POPC   NC3 6119  41.580  33.762   9.464
  200POPC   PO4 6120  41.522  33.763   9.164
  200POPC   GL1 6121  41.536  33.844   8.864
  200POPC   GL2 6122  41.606  33.699   8.864
  200POPC   C1A 6123  41.585  33.850   8.564
  200POPC   D2A 6124  41.604  33.813   8.264
  200POPC   C3A 6125  41.602  33.825   7.964
  200POPC   C4A 6126  41.600  33.775   7.664
  200POPC   C1B 6127  41.702  33.557   8.564
  200POPC   C2B 6128  41.690  33.554   8.264
  200POPC   C3B 6129  41.723  33.556   7.964
  200POPC   C4B 6130  41.696  33.588   7.664
  201POPC   NC3 6131   6.630  21.359   9.464
  201POPC   PO4 6132   6.664  21.342   9.164
  201POPC   GL1 6133   6.621  21.386   8.864
  201POPC   GL2 6134   6.692  21.248   8.864
  201POPC   C1A 6135   6.613  21.420   8.564
  201POPC   D2A 6136   6.625  21.415   8.264
  201POPC   C3A 6137   6.690  21.360   7.964
  201POPC   C4A 6138   6.639  21.338   7.664
  201POPC   C1B 6139   6.839  21.221   8.564
  201POPC   C2B 6140   6.791  21.224   8.264
  201POPC   C3B 6141   6.814  21.227   7.964
  201POPC   C4B 6142   6.799  21.155   7.664
  202POPC   NC3 6143  27.595   8.192   9.464
  202POPC   PO4 6144  27.623   8.205   9.164
  202POPC   GL1 6145  27.600   8.221   8.864
  202POPC   GL2 6146  27.526   8.269   8.864
  202POPC   C1A 6147  27.632   8.208   8.564
  202POPC   D2A 6148  27.565   8.163   8.264
  202POPC   C3A 6149  27.614   8.197   7.964
  202POPC   C4A 6150  27.584   8.179   7.664
  202POPC   C1B 6151  27.482   8.346   8.564
  202POPC   C2B 6152  27.394   8.391   8.264
  202POPC   C3B 6153  27.464   8.405   7.964
  202POPC   C4B 6154  27.463   8.388   7.664
  203POPC   NC3 6155  18.249  39.219   9.464
  203POPC   PO4 6156  18.258  39.240   9.164
  203POPC   GL1 6157  18.321  39.267   8.864
  203POPC   GL2 6158  18.134  39.207   8.864
  203POPC   C1A 6159  18.255  39.257   8.564
  203POPC   D2A 6160  18.312  39.220   8.264
  203POPC   C3A 6161  18.276  39.246   7.964
  203POPC   C4A 6162  18.287  39.241   7.664
  203POPC   C1B 6163  18.013  39.310   8.564
  203POPC   C2B 6164  18.018  39.286   8.264
  203POPC   C3B 6165  18.037  39.255   7.964
  203POPC   C4B 6166  18.040  39.257   7.664
  204POPC   NC3 6167   9.767  31.445   9.464
  204POPC   PO4 6168   9.700  31.508   9.164
  204POPC   GL1 6169   9.737  31.477   8.864
  204POPC   GL2 6170   9.699  31.371   8.864
  204POPC   C1A 6171   9.721  31.444   8.564
  204POPC   D2A 6172   9.784  31.470   8.264
  204POPC   C3A 6173   9.777  31.509   7.964
  204POPC   C4A 6174   9.746  31.508   7.664
  204POPC   C1B 6175   9.638  31.272   8.564
  204POPC   C2B 6176   9.687  31.228   8.264
  204POPC   C3B 6177   9.713  31.208   7.964
  204POPC   C4B 6178   9.689  31.266   7.664
  205POPC   NC3 6179  40.019   5.044   9.464
  205POPC   PO4 6180  39.991   5.114   9.164
  205POPC   GL1 6181  40.029   5.074   8.864
  205POPC   GL2 6182  39.912   5.188   8.864
  205POPC   C1A 6183  40.036   5.132   8.564
  205POPC   D2A 6184  40.028   5.130   8.264
  205POPC   C3A 6185  40.040   5.127   7.964
  205POPC   C4A 6186  40.041   5.122   7.664
  205POPC   C1B 6187  39.886   5.289   8.564
  205POPC   C2B 6188  39.805   5.268   8.264
  205POPC   C3B 6189  39.805   5.279   7.964
  205POPC   C4B 6190  39.861   5.260   7.664
  206POPC   NC3 6191  42.351  33.791   9.464
  206POPC   PO4 6192  42.322  33.779   9.164
  206POPC   GL1 6193  42.329  33.753   8.864
  206POPC   GL2 6194  42.189  33.701   8.864
  206POPC   C1A 6195  42.357  33.772   8.564
  206POPC   D2A 6196  42.303  33.776   8.264
  206POPC   C3A 6197  42.332  33.787   7.964
  206POPC   C4A 6198  42.324  33.769   7.664
  206POPC   C1B 6199  42.115  33.682   8.564
  206POPC   C2B 6200  42.171  33.616   8.264
  206POPC   C3B 6201  42.142  33.654   7.964
  206POPC   C4B 6202  42.157  33.710   7.664
  207POPC   NC3 6203   1.245  36.132   9.464
  207POPC   PO4 6204   1.214  36.175   9.164
  207POPC   GL1 6205   1.205  36.118   8.864
  207POPC   GL2 6206   1.058  36.172   8.864
  207POPC   C1A 6207   1.200  36.135   8.564
  207POPC   D2A 6208   1.181  36.102   8.264
  207POPC   C3A 6209   1.201  36.079   7.964
  207POPC   C4A 6210   1.199  36.118   7.664
  207POPC   C1B 6211   1.029  36.187   8.564
  207POPC   C2B 6212   0.938  36.202   8.264
  207POPC   C3B 6213   1.019  36.227   7.964
  207POPC   C4B 6214   0.990  36.178   7.664
  208POPC   NC3 6215  15.217  19.834   9.464
  208POPC   PO4 6216  15.163  19.874   9.164
  208POPC   GL1 6217  15.170  19.872   8.864
  208POPC   GL2 6218  15.255  19.794   8.864
  208POPC   C1A 6219  15.214  19.827   8.564
  208POPC   D2A 6220  15.148  19.880   8.264
  208POPC   C3A 6221  15.218  19.796   7.964
  208POPC   C4A 6222  15.181  19.850   7.664
  208POPC   C1B 6223  15.426  19.805   8.564
  208POPC   C2B 6224  15.408  19.840   8.264
  208POPC   C3B 6225  15.463  19.761   7.964
  208POPC   C4B 6226  15.429  19.796   7.664
  209POPC   NC3 6227  18.296  13.584   9.464
  209POPC   PO4 6228  18.325  13.580   9.164
  209POPC   GL1 6229  18.271  13.579   8.864
  209POPC   GL2 6230  18.282  13.539   8.864
  209POPC   C1A 6231  18.234  13.623   8.564
  209POPC   D2A 6232  18.277  13.665   8.264
  209POPC   C3A 6233  18.284  13.602   7.964
  209POPC   C4A 6234  18.313  13.661   7.664
  209POPC   C1B 6235  18.198  13.400   8.564
  209POPC   C2B 6236  18.210  13.365   8.264
  209POPC   C3B 6237  18.196  13.353   7.964
  209POPC   C4B 6238  18.215  13.389   7.664
  210POPC   NC3 6239  22.940  12.847   9.464
  210POPC   PO4 6240  22.945  12.902   9.164
  210POPC   GL1 6241  22.911  12.845   8.864
  210POPC   GL2 6242  22.854  12.785   8.864
  210POPC   C1A 6243  22.937  12.825   8.564
  210POPC   D2A 6244  22.898  12.887   8.264
  210POPC   C3A 6245  22.909  12.804   7.964
  210POPC   C4A 6246  22.963  12.871   7.664
  210POPC   C1B 6247  22.712  12.785   8.564
  210POPC   C2B 6248  22.725  12.816   8.264
  210POPC   C3B 6249  22.729  12.828   7.964
  210POPC   C4B 6250  22.721  12.746   7.664
  211POPC   NC3 6251  21.402  16.727   9.464
  211POPC   PO4 6252  21.436  16.751   9.164
  211POPC   GL1 6253  21.398  16.780   8.864
  211POPC   GL2 6254  21.468  16.694   8.864
  211POPC   C1A 6255  21.355  16.768   8.564
  211POPC   D2A 6256  21.388  16.724   8.264
  211POPC   C3A 6257  21.359  16.692   7.964
  211POPC   C4A 6258  21.429  16.769   7.664
  211POPC   C1B 6259  21.633  16.716   8.564
  211POPC   C2B 6260  21.679  16.677   8.264
  211POPC   C3B 6261  21.605  16.686   7.964
  211POPC   C4B 6262  21.664  16.696   7.664
  212POPC   NC3 6263  19.066  25.216   9.464
  212POPC   PO4 6264  19.107  25.293   9.164
  212POPC   GL1 6265  19.065  25.233   8.864
  212POPC   GL2 6266  18.980  25.219   8.864
  212POPC   C1A 6267  19.071  25.239   8.564
  212POPC   D2A 6268  19.022  25.254   8.264
  212POPC   C3A 6269  19.061  25.270   7.964
  212POPC   C4A 6270  19.108  25.291   7.664
  212POPC   C1B 6271  18.836  25.206   8.564
  212POPC   C2B 6272  18.799  25.187   8.264
  212POPC   C3B 6273  18.856  25.277   7.964
  212POPC   C4B 6274  18.833  25.180   7.664
  213POPC   NC3 6275  12.808  43.133   9.464
  213POPC   PO4 6276  12.868  43.106   9.164
  213POPC   GL1 6277  12.838  43.094   8.864
  213POPC   GL2 6278  12.825  42.954   8.864
  213POPC   C1A 6279  12.822  43.104   8.564
  213POPC   D2A 6280  12.809  43.101   8.264
  213POPC   C3A 6281  12.870  43.119   7.964
  213POPC   C4A 6282  12.840  43.150   7.664
  213POPC   C1B 6283  12.831  42.895   8.564
  213POPC   C2B 6284  12.815  42.833   8.264
  213POPC   C3B 6285  12.798  42.899   7.964
  213POPC   C4B 6286  12.782  42.841   7.664
  214POPC   NC3 6287  24.537  17.505   9.464
  214POPC   PO4 6288  24.480  17.542   9.164
  214POPC   GL1 6289  24.481  17.464   8.864
  214POPC   GL2 6290  24.344  17.470   8.864
  214POPC   C1A 6291  24.538  17.541   8.564
  214POPC   D2A 6292  24.503  17.507   8.264
  214POPC   C3A 6293  24.500  17.501   7.964
  214POPC   C4A 6294  24.459  17.518   7.664
  214POPC   C1B 6295  24.243  17.429   8.564
  214POPC   C2B 6296  24.253  17.466   8.264
  214POPC   C3B 6297  24.272  17.500   7.964
  214POPC   C4B 6298  24.288  17.418   7.664
  215POPC   NC3 6299   4.305  26.787   9.464
  215POPC   PO4 6300   4.284  26.860   9.164
  215POPC   GL1 6301   4.313  26.863   8.864
  215POPC   GL2 6302   4.312  26.981   8.864
  215POPC   C1A 6303   4.363  26.772   8.564
  215POPC   D2A 6304   4.288  26.807   8.264
  215POPC   C3A 6305   4.287  26.850   7.964
  215POPC   C4A 6306   4.302  26.789   7.664
  215POPC   C1B 6307   4.353  27.078   8.564
  215POPC   C2B 6308   4.406  27.072   8.264
  215POPC   C3B 6309   4.399  27.099   7.964
  215POPC   C4B 6310   4.405  27.056   7.664
  216POPC   NC3 6311  44.659  36.097   9.464
  216POPC   PO4 6312  44.704  36.130   9.164
  216POPC   GL1 6313  44.612  36.157   8.864
  216POPC   GL2 6314  44.575  36.234   8.864
  216POPC   C1A 6315  44.672  36.158   8.564
  216POPC   D2A 6316  44.658  36.134   8.264
  216POPC   C3A 6317  44.631  36.087   7.964
  216POPC   C4A 6318  44.646  36.092   7.664
  216POPC   C1B 6319  44.418  36.207   8.564
  216POPC   C2B 6320  44.458  36.288   8.264
  216POPC   C3B 6321  44.481  36.284   7.964
  216POPC   C4B 6322  44.450  36.219   7.664
  217POPC   NC3 6323   1.186  39.219   9.464
  217POPC   PO4 6324   1.172  39.200   9.164
  217POPC   GL1 6325   1.190  39.208   8.864
  217POPC   GL2 6326   1.131  39.133   8.864
  217POPC   C1A 6327   1.235  39.215   8.564
  217POPC   D2A 6328   1.198  39.265   8.264
  217POPC   C3A 6329   1.263  39.208   7.964
  217POPC   C4A 6330   1.252  39.264   7.664
  217POPC   C1B 6331   1.038  39.055   8.564
  217POPC   C2B 6332   1.050  39.045   8.264
  217POPC   C3B 6333   1.066  39.025   7.964
  217POPC   C4B 6334   1.110  39.011   7.664
  218POPC   NC3 6335  27.566  34.550   9.464
  218POPC   PO4 6336  27.621  34.581   9.164
  218POPC   GL1 6337  27.601  34.532   8.864
  218POPC   GL2 6338  27.457  34.530   8.864
  218POPC   C1A 6339  27.627  34.605   8.564
  218POPC   D2A 6340  27.597  34.569   8.264
  218POPC   C3A 6341  27.550  34.526   7.964
  218POPC   C4A 6342  27.579  34.531   7.664
  218POPC   C1B 6343  27.373  34.492   8.564
  218POPC   C2B 6344  27.316  34.531   8.264
  218POPC   C3B 6345  27.393  34.537   7.964
  218POPC   C4B 6346  27.375  34.491   7.664
  219POPC   NC3 6347  15.998  29.105   9.464
  219POPC   PO4 6348  15.940  29.115   9.164
  219POPC   GL1 6349  15.981  29.143   8.864
  219POPC   GL2 6350  15.990  29.254   8.864
  219POPC   C1A 6351  15.961  29.179   8.564
  219POPC   D2A 6352  15.934  29.105   8.264
  219POPC   C3A 6353  15.906  29.155   7.964
  219POPC   C4A 6354  15.923  29.109   7.664
  219POPC   C1B 6355  16.021  29.346   8.564
  219POPC   C2B 6356  16.015  29.398   8.264
  219POPC   C3B 6357  16.009  29.387   7.964
  219POPC   C4B 6358  16.015  29.426   7.664
  220POPC   NC3 6359  24.506  33.803   9.464
  220POPC   PO4 6360  24.466  33.813   9.164
  220POPC   GL1 6361  24.510  33.755   8.864
  220POPC   GL2 6362  24.587  33.903   8.864
  220POPC   C1A 6363  24.459  33.790   8.564
  220POPC   D2A 6364  24.527  33.848   8.264
  220POPC   C3A 6365  24.517  33.807   7.964
  220POPC   C4A 6366  24.532  33.778   7.664
  220POPC   C1B 6367  24.543  34.028   8.564
  220POPC   C2B 6368  24.619  34.049   8.264
  220POPC   C3B 6369  24.628  34.053   7.964
  220POPC   C4B 6370  24.582  33.992   7.664
  221POPC   NC3 6371  37.709  32.977   9.464
  221POPC   PO4 6372  37.678  33.038   9.164
  221POPC   GL1 6373  37.664  32.988   8.864
  221POPC   GL2 6374  37.755  33.099   8.864
  221POPC   C1A 6375  37.674  33.054   8.564
  221POPC   D2A 6376  37.664  32.989   8.264
  221POPC   C3A 6377  37.660  32.995   7.964
  221POPC   C4A 6378  37.660  32.976   7.664
  221POPC   C1B 6379  37.795  33.273   8.564
  221POPC   C2B 6380  37.856  33.239   8.264
  221POPC   C3B 6381  37.836  33.197   7.964
  221POPC   C4B 6382  37.821  33.267   7.664
  222POPC   NC3 6383  23.698   5.908   9.464
  222POPC   PO4 6384  23.678   5.850   9.164
  222POPC   GL1 6385  23.753   5.822   8.864
  222POPC   GL2 6386  23.758   6.002   8.864
  222POPC   C1A 6387  23.667   5.864   8.564
  222POPC   D2A 6388  23.754   5.900   8.264
  222POPC   C3A 6389  23.700   5.872   7.964
  222POPC   C4A 6390  23.740   5.882   7.664
  222POPC   C1B 6391  23.753   6.164   8.564
  222POPC   C2B 6392  23.797   6.107   8.264
  222POPC   C3B 6393  23.782   6.155   7.964
  222POPC   C4B 6394  23.723   6.138   7.664
  223POPC   NC3 6395  39.211   5.871   9.464
  223POPC   PO4 6396  39.188   5.916   9.164
  223POPC   GL1 6397  39.184   5.826   8.864
  223POPC   GL2 6398  39.129   5.896   8.864
  223POPC   C1A 6399  39.196   5.846   8.564
  223POPC   D2A 6400  39.230   5.876   8.264
  223POPC   C3A 6401  39.223   5.854   7.964
  223POPC   C4A 6402  39.206   5.876   7.664
  223POPC   C1B 6403  38.993   5.844   8.564
  223POPC   C2B 6404  38.991   5.849   8.264
  223POPC   C3B 6405  38.998   5.781   7.964
  223POPC   C4B 6406  38.972   5.838   7.664
  224POPC   NC3 6407   0.426  36.892   9.464
  224POPC   PO4 6408   0.457  36.930   9.164
  224POPC   GL1 6409   0.391  36.890   8.864
  224POPC   GL2 6410   0.459  36.784   8.864
  224POPC   C1A 6411   0.409  36.929   8.564
  224POPC   D2A 6412   0.427  36.868   8.264
  224POPC   C3A 6413   0.453  36.854   7.964
  224POPC   C4A 6414   0.390  36.922   7.664
  224POPC   C1B 6415   0.462  36.661   8.564
  224POPC   C2B 6416   0.496  36.696   8.264
  224POPC   C3B 6417   0.441  36.637   7.964
  224POPC   C4B 6418   0.478  36.630   7.664
  225POPC   NC3 6419   7.429  16.779   9.464
  225POPC   PO4 6420   7.387  16.752   9.164
  225POPC   GL1 6421   7.397  16.767   8.864
  225POPC   GL2 6422   7.456  16.843   8.864
  225POPC   C1A 6423   7.377  16.736   8.564
  225POPC   D2A 6424   7.469  16.700   8.264
  225POPC   C3A 6425   7.447  16.726   7.964
  225POPC   C4A 6426   7.400  16.707   7.664
  225POPC   C1B 6427   7.374  16.958   8.564
  225POPC   C2B 6428   7.400  16.978   8.264
  225POPC   C3B 6429   7.439  16.937   7.964
  225POPC   C4B 6430   7.358  16.955   7.664
  226POPC   NC3 6431  32.240  36.167   9.464
  226POPC   PO4 6432  32.221  36.107   9.164
  226POPC   GL1 6433  32.221  36.124   8.864
  226POPC   GL2 6434  32.208  36.050   8.864
  226POPC   C1A 6435  32.272  36.099   8.564
  226POPC   D2A 6436  32.222  36.133   8.264
  226POPC   C3A 6437  32.221  36.174   7.964
  226POPC   C4A 6438  32.290  36.121   7.664
  226POPC   C1B 6439  32.127  35.885   8.564
  226POPC   C2B 6440  32.170  35.887   8.264
  226POPC   C3B 6441  32.143  35.952   7.964
  226POPC   C4B 6442  32.150  35.956   7.664
  227POPC   NC3 6443  34.554  13.616   9.464
  227POPC   PO4 6444  34.529  13.645   9.164
  227POPC   GL1 6445  34.571  13.644   8.864
  227POPC   GL2 6446  34.607  13.496   8.864
  227POPC   C1A 6447  34.529  13.652   8.564
  227POPC   D2A 6448  34.601  13.629   8.264
  227POPC   C3A 6449  34.573  13.627   7.964
  227POPC   C4A 6450  34.564  13.618   7.664
  227POPC   C1B 6451  34.616  13.338   8.564
  227POPC   C2B 6452  34.596  13.364   8.264
  227POPC   C3B 6453  34.598  13.399   7.964
  227POPC   C4B 6454  34.650  13.352   7.664
  228POPC   NC3 6455  36.941  36.131   9.464
  228POPC   PO4 6456  36.915  36.087   9.164
  228POPC   GL1 6457  36.944  36.154   8.864
  228POPC   GL2 6458  37.021  36.163   8.864
  228POPC   C1A 6459  36.890  36.109   8.564
  228POPC   D2A 6460  36.948  36.124   8.264
  228POPC   C3A 6461  36.919  36.095   7.964
  228POPC   C4A 6462  36.917  36.164   7.664
  228POPC   C1B 6463  37.182  36.195   8.564
  228POPC   C2B 6464  37.185  36.178   8.264
  228POPC   C3B 6465  37.158  36.222   7.964
  228POPC   C4B 6466  37.161  36.208   7.664
  229POPC   NC3 6467   9.738  14.408   9.464
  229POPC   PO4 6468   9.746  14.400   9.164
  229POPC   GL1 6469   9.762  14.380   8.864
  229POPC   GL2 6470   9.907  14.431   8.864
  229POPC   C1A 6471   9.742  14.359   8.564
  229POPC   D2A 6472   9.764  14.408   8.264
  229POPC   C3A 6473   9.749  14.409   7.964
  229POPC   C4A 6474   9.776  14.403   7.664
  229POPC   C1B 6475  10.010  14.373   8.564
  229POPC   C2B 6476  10.015  14.349   8.264
  229POPC   C3B 6477  10.018  14.388   7.964
  229POPC   C4B 6478   9.990  14.361   7.664
  230POPC   NC3 6479  12.060  44.658   9.464
  230POPC   PO4 6480  12.084  44.685   9.164
  230POPC   GL1 6481  12.067  44.662   8.864
  230POPC   GL2 6482  12.236  44.726   8.864
  230POPC   C1A 6483  12.088  44.648   8.564
  230POPC   D2A 6484  12.096  44.640   8.264
  230POPC   C3A 6485  12.053  44.621   7.964
  230POPC   C4A 6486  12.049  44.668   7.664
  230POPC   C1B 6487  12.290  44.813   8.564
  230POPC   C2B 6488  12.341  44.823   8.264
  230POPC   C3B 6489  12.299  44.730   7.964
  230POPC   C4B 6490  12.273  44.820   7.664
  231POPC   NC3 6491  42.339  32.255   9.464
  231POPC   PO4 6492  42.358  32.207   9.164
  231POPC   GL1 6493  42.308  32.216   8.864
  231POPC   GL2 6494  42.432  32.352   8.864
  231POPC   C1A 6495  42.368  32.201   8.564
  231POPC   D2A 6496  42.361  32.271   8.264
  231POPC   C3A 6497  42.340  32.287   7.964
  231POPC   C4A 6498  42.306  32.272   7.664
  231POPC   C1B 6499  42.463  32.432   8.564
  231POPC   C2B 6500  42.442  32.464   8.264
  231POPC   C3B 6501  42.416  32.487   7.964
  231POPC   C4B 6502  42.486  32.493   7.664
  232POPC   NC3 6503  39.183  33.804   9.464
  232POPC   PO4 6504  39.264  33.822   9.164
  232POPC   GL1 6505  39.274  33.825   8.864
  232POPC   GL2 6506  39.167  33.698   8.864
  232POPC   C1A 6507  39.231  33.754   8.564
  232POPC   D2A 6508  39.265  33.838   8.264
  232POPC   C3A 6509  39.252  33.786   7.964
  232POPC   C4A 6510  39.194  33.815   7.664
  232POPC   C1B 6511  39.034  33.675   8.564
  232POPC   C2B 6512  38.999  33.698   8.264
  232POPC   C3B 6513  39.023  33.642   7.964
  232POPC   C4B 6514  39.014  33.670   7.664
  233POPC   NC3 6515  31.469  32.242   9.464
  233POPC   PO4 6516  31.488  32.271   9.164
  233POPC   GL1 6517  31.451  32.227   8.864
  233POPC   GL2 6518  31.512  32.385   8.864
  233POPC   C1A 6519  31.510  32.240   8.564
  233POPC   D2A 6520  31.510  32.199   8.264
  233POPC   C3A 6521  31.515  32.228   7.964
  233POPC   C4A 6522  31.468  32.214   7.664
  233POPC   C1B 6523  31.603  32.497   8.564
  233POPC   C2B 6524  31.553  32.463   8.264
  233POPC   C3B 6525  31.629  32.492   7.964
  233POPC   C4B 6526  31.626  32.439   7.664
  234POPC   NC3 6527   5.881  22.189   9.464
  234POPC   PO4 6528   5.881  22.154   9.164
  234POPC   GL1 6529   5.915  22.159   8.864
  234POPC   GL2 6530   5.743  22.091   8.864
  234POPC   C1A 6531   5.902  22.192   8.564
  234POPC   D2A 6532   5.820  22.194   8.264
  234POPC   C3A 6533   5.896  22.136   7.964
  234POPC   C4A 6534   5.822  22.197   7.664
  234POPC   C1B 6535   5.623  22.100   8.564
  234POPC   C2B 6536   5.615  22.148   8.264
  234POPC   C3B 6537   5.603  22.084   7.964
  234POPC   C4B 6538   5.641  22.065   7.664
  235POPC   NC3 6539  42.339  31.507   9.464
  235POPC   PO4 6540  42.342  31.492   9.164
  235POPC   GL1 6541  42.329  31.509   8.864
  235POPC   GL2 6542  42.451  31.489   8.864
  235POPC   C1A 6543  42.317  31.478   8.564
  235POPC   D2A 6544  42.347  31.453   8.264
  235POPC   C3A 6545  42.377  31.423   7.964
  235POPC   C4A 6546  42.315  31.475   7.664
  235POPC   C1B 6547  42.579  31.523   8.564
  235POPC   C2B 6548  42.588  31.523   8.264
  235POPC   C3B 6549  42.541  31.521   7.964
  235POPC   C4B 6550  42.608  31.454   7.664
  236POPC   NC3 6551   8.991  35.380   9.464
  236POPC   PO4 6552   8.980  35.322   9.164
  236POPC   GL1 6553   8.974  35.350   8.864
  236POPC   GL2 6554   8.903  35.486   8.864
  236POPC   C1A 6555   8.991  35.341   8.564
  236POPC   D2A 6556   8.953  35.312   8.264
  236POPC   C3A 6557   9.012  35.318   7.964
  236POPC   C4A 6558   8.933  35.334   7.664
  236POPC   C1B 6559   8.822  35.512   8.564
  236POPC   C2B 6560   8.858  35.583   8.264
  236POPC   C3B 6561   8.826  35.570   7.964
  236POPC   C4B 6562   8.874  35.580   7.664
  237POPC   NC3 6563   2.720  12.847   9.464
  237POPC   PO4 6564   2.778  12.871   9.164
  237POPC   GL1 6565   2.768  12.829   8.864
  237POPC   GL2 6566   2.742  12.771   8.864
  237POPC   C1A 6567   2.777  12.872   8.564
  237POPC   D2A 6568   2.793  12.850   8.264
  237POPC   C3A 6569   2.771  12.854   7.964
  237POPC   C4A 6570   2.756  12.891   7.664
  237POPC   C1B 6571   2.751  12.595   8.564
  237POPC   C2B 6572   2.800  12.646   8.264
  237POPC   C3B 6573   2.707  12.632   7.964
  237POPC   C4B 6574   2.799  12.609   7.664
  238POPC   NC3 6575  23.751  15.176   9.464
  238POPC   PO4 6576  23.723  15.182   9.164
  238POPC   GL1 6577  23.670  15.153   8.864
  238POPC   GL2 6578  23.659  15.263   8.864
  238POPC   C1A 6579  23.763  15.198   8.564
  238POPC   D2A 6580  23.680  15.214   8.264
  238POPC   C3A 6581  23.683  15.201   7.964
  238POPC   C4A 6582  23.703  15.204   7.664
  238POPC   C1B 6583  23.592  15.398   8.564
  238POPC   C2B 6584  23.562  15.355   8.264
  238POPC   C3B 6585  23.554  15.408   7.964
  238POPC   C4B 6586  23.643  15.442   7.664
  239POPC   NC3 6587   5.116  22.187   9.464
  239POPC   PO4 6588   5.120  22.131   9.164
  239POPC   GL1 6589   5.114  22.141   8.864
  239POPC   GL2 6590   5.166  22.302   8.864
  239POPC   C1A 6591   5.085  22.137   8.564
  239POPC   D2A 6592   5.067  22.133   8.264
  239POPC   C3A 6593   5.075  22.186   7.964
  239POPC   C4A 6594   5.114  22.200   7.664
  239POPC   C1B 6595   5.263  22.329   8.564
  239POPC   C2B 6596   5.196  22.388   8.264
  239POPC   C3B 6597   5.254  22.398   7.964
  239POPC   C4B 6598   5.260  22.398   7.664
  240POPC   NC3 6599   2.037   5.863   9.464
  240POPC   PO4 6600   1.970   5.894   9.164
  240POPC   GL1 6601   1.950   5.833   8.864
  240POPC   GL2 6602   1.890   5.783   8.864
  240POPC   C1A 6603   1.976   5.890   8.564
  240POPC   D2A 6604   2.015   5.917   8.264
  240POPC   C3A 6605   1.973   5.878   7.964
  240POPC   C4A 6606   1.953   5.918   7.664
  240POPC   C1B 6607   1.737   5.752   8.564
  240POPC   C2B 6608   1.705   5.780   8.264
  240POPC   C3B 6609   1.722   5.827   7.964
  240POPC   C4B 6610   1.779   5.809   7.664
  241POPC   NC3 6611   1.954  15.993   9.464
  241POPC   PO4 6612   1.995  15.937   9.164
  241POPC   GL1 6613   1.997  15.907   8.864
  241POPC   GL2 6614   2.045  16.075   8.864
  241POPC   C1A 6615   2.031  15.979   8.564
  241POPC   D2A 6616   1.991  15.938   8.264
  241POPC   C3A 6617   1.998  15.990   7.964
  241POPC   C4A 6618   1.979  15.943   7.664
  241POPC   C1B 6619   2.087  16.222   8.564
  241POPC   C2B 6620   2.056  16.202   8.264
  241POPC   C3B 6621   2.125  16.163   7.964
  241POPC   C4B 6622   2.099  16.135   7.664
  242POPC   NC3 6623   5.096  13.614   9.464
  242POPC   PO4 6624   5.126  13.672   9.164
  242POPC   GL1 6625   5.112  13.591   8.864
  242POPC   GL2 6626   5.151  13.697   8.864
  242POPC   C1A 6627   5.056  13.658   8.564
  242POPC   D2A 6628   5.069  13.662   8.264
  242POPC   C3A 6629   5.080  13.675   7.964
  242POPC   C4A 6630   5.102  13.639   7.664
  242POPC   C1B 6631   5.157  13.860   8.564
  242POPC   C2B 6632   5.210  13.883   8.264
  242POPC   C3B 6633   5.209  13.892   7.964
  242POPC   C4B 6634   5.179  13.902   7.664
  243POPC   NC3 6635   4.312   9.788   9.464
  243POPC   PO4 6636   4.309   9.776   9.164
  243POPC   GL1 6637   4.278   9.768   8.864
  243POPC   GL2 6638   4.481   9.763   8.864
  243POPC   C1A 6639   4.355   9.734   8.564
  243POPC   D2A 6640   4.328   9.746   8.264
  243POPC   C3A 6641   4.316   9.787   7.964
  243POPC   C4A 6642   4.308   9.728   7.664
  243POPC   C1B 6643   4.573   9.851   8.564
  243POPC   C2B 6644   4.539   9.791   8.264
  243POPC   C3B 6645   4.603   9.781   7.964
  243POPC   C4B 6646   4.533   9.798   7.664
  244POPC   NC3 6647  31.434   1.977   9.464
  244POPC   PO4 6648  31.457   1.993   9.164
  244POPC   GL1 6649  31.521   1.951   8.864
  244POPC   GL2 6650  31.396   1.923   8.864
  244POPC   C1A 6651  31.455   2.010   8.564
  244POPC   D2A 6652  31.423   1.981   8.264
  244POPC   C3A 6653  31.515   2.020   7.964
  244POPC   C4A 6654  31.447   1.967   7.664
  244POPC   C1B 6655  31.193   1.885   8.564
  244POPC   C2B 6656  31.254   1.886   8.264
  244POPC   C3B 6657  31.218   1.967   7.964
  244POPC   C4B 6658  31.280   1.927   7.664
  245POPC   NC3 6659  17.504  17.534   9.464
  245POPC   PO4 6660  17.473  17.490   9.164
  245POPC   GL1 6661  17.552  17.513   8.864
  245POPC   GL2 6662  17.633  17.486   8.864
  245POPC   C1A 6663  17.514  17.549   8.564
  245POPC   D2A 6664  17.527  17.514   8.264
  245POPC   C3A 6665  17.503  17.527   7.964
  245POPC   C4A 6666  17.474  17.471   7.664
  245POPC   C1B 6667  17.745  17.534   8.564
  245POPC   C2B 6668  17.734  17.548   8.264
  245POPC   C3B 6669  17.707  17.543   7.964
  245POPC   C4B 6670  17.735  17.587   7.664
  246POPC   NC3 6671  32.253  27.582   9.464
  246POPC   PO4 6672  32.204  27.597   9.164
  246POPC   GL1 6673  32.209  27.605   8.864
  246POPC   GL2 6674  32.136  27.568   8.864
  246POPC   C1A 6675  32.208  27.584   8.564
  246POPC   D2A 6676  32.223  27.625   8.264
  246POPC   C3A 6677  32.254  27.561   7.964
  246POPC   C4A 6678  32.263  27.621   7.664
  246POPC   C1B 6679  32.059  27.448   8.564
  246POPC   C2B 6680  32.042  27.410   8.264
  246POPC   C3B 6681  32.015  27.446   7.964
  246POPC   C4B 6682  32.067  27.465   7.664
  247POPC   NC3 6683  29.144  14.452   9.464
  247POPC   PO4 6684  29.153  14.371   9.164
  247POPC   GL1 6685  29.135  14.404   8.864
  247POPC   GL2 6686  29.241  14.416   8.864
  247POPC   C1A 6687  29.106  14.398   8.564
  247POPC   D2A 6688  29.107  14.395   8.264
  247POPC   C3A 6689  29.158  14.449   7.964
  247POPC   C4A 6690  29.138  14.413   7.664
  247POPC   C1B 6691  29.398  14.391   8.564
  247POPC   C2B 6692  29.364  14.455   8.264
  247POPC   C3B 6693  29.383  14.393   7.964
  247POPC   C4B 6694  29.433  14.387   7.664
  248POPC   NC3 6695  22.930  30.728   9.464
  248POPC   PO4 6696  22.924  30.709   9.164
  248POPC   GL1 6697  22.977  30.663   8.864
  248POPC   GL2 6698  23.076  30.772   8.864
  248POPC   C1A 6699  22.893  30.680   8.564
  248POPC   D2A 6700  22.949  30.683   8.264
  248POPC   C3A 6701  22.978  30.723   7.964
  248POPC   C4A 6702  22.923  30.680   7.664
  248POPC   C1B 6703  23.193  30.803   8.564
  248POPC   C2B 6704  23.149  30.787   8.264
  248POPC   C3B 6705  23.131  30.789   7.964
  248POPC   C4B 6706  23.152  30.861   7.664
  249POPC   NC3 6707  36.930  25.227   9.464
  249POPC   PO4 6708  36.894  25.226   9.164
  249POPC   GL1 6709  36.886  25.295   8.864
  249POPC   GL2 6710  36.765  25.164   8.864
  249POPC   C1A 6711  36.940  25.284   8.564
  249POPC   D2A 6712  36.900  25.268   8.264
  249POPC   C3A 6713  36.859  25.259   7.964
  249POPC   C4A 6714  36.901  25.237   7.664
  249POPC   C1B 6715  36.769  25.126   8.564
  249POPC   C2B 6716  36.709  25.096   8.264
  249POPC   C3B 6717  36.767  25.108   7.964
  249POPC   C4B 6718  36.725  25.088   7.664
  250POPC   NC3 6719  29.894   5.897   9.464
  250POPC   PO4 6720  29.918   5.844   9.164
  250POPC   GL1 6721  29.924   5.847   8.864
  250POPC   GL2 6722  30.057   5.785   8.864
  250POPC   C1A 6723  29.937   5.828   8.564
  250POPC   D2A 6724  29.922   5.826   8.264
  250POPC   C3A 6725  29.961   5.872   7.964
  250POPC   C4A 6726  29.885   5.914   7.664
  250POPC   C1B 6727  30.160   5.707   8.564
  250POPC   C2B 6728  30.113   5.741   8.264
  250POPC   C3B 6729  30.164   5.765   7.964
  250POPC   C4B 6730  30.120   5.731   7.664
  251POPC   NC3 6731   1.991  18.290   9.464
  251POPC   PO4 6732   2.024  18.322   9.164
  251POPC   GL1 6733   2.025  18.308   8.864
  251POPC   GL2 6734   1.988  18.415   8.864
  251POPC   C1A 6735   1.977  18.273   8.564
  251POPC   D2A 6736   2.005  18.234   8.264
  251POPC   C3A 6737   2.022  18.314   7.964
  251POPC   C4A 6738   1.968  18.291   7.664
  251POPC   C1B 6739   1.914  18.496   8.564
  251POPC   C2B 6740   1.932  18.488   8.264
  251POPC   C3B 6741   1.939  18.554   7.964
  251POPC   C4B 6742   1.937  18.481   7.664
  252POPC   NC3 6743  33.793   1.195   9.464
  252POPC   PO4 6744  33.826   1.262   9.164
  252POPC   GL1 6745  33.776   1.207   8.864
  252POPC   GL2 6746  33.909   1.253   8.864
  252POPC   C1A 6747  33.790   1.261   8.564
  252POPC   D2A 6748  33.805   1.193   8.264
  252POPC   C3A 6749  33.817   1.169   7.964
  252POPC   C4A 6750  33.752   1.215   7.664
  252POPC   C1B 6751  33.978   1.363   8.564
  252POPC   C2B 6752  33.968   1.369   8.264
  252POPC   C3B 6753  34.021   1.395   7.964
  252POPC   C4B 6754  33.977   1.347   7.664
  253POPC   NC3 6755  25.271  18.313   9.464
  253POPC   PO4 6756  25.304  18.236   9.164
  253POPC   GL1 6757  25.311  18.327   8.864
  253POPC   GL2 6758  25.296  18.383   8.864
  253POPC   C1A 6759  25.217  18.308   8.564
  253POPC   D2A 6760  25.301  18.297   8.264
  253POPC   C3A 6761  25.247  18.247   7.964
  253POPC   C4A 6762  25.301  18.320   7.664
  253POPC   C1B 6763  25.378  18.534   8.564
  253POPC   C2B 6764  25.333  18.565   8.264
  253POPC   C3B 6765  25.311  18.530   7.964
  253POPC   C4B 6766  25.290  18.531   7.664
  254POPC   NC3 6767  29.939  42.342   9.464
  254POPC   PO4 6768  29.895  42.335   9.164
  254POPC   GL1 6769  29.873  42.324   8.864
  254POPC   GL2 6770  29.864  42.474   8.864
  254POPC   C1A 6771  29.886  42.314   8.564
  254POPC   D2A 6772  29.961  42.336   8.264
  254POPC   C3A 6773  29.936  42.287   7.964
  254POPC   C4A 6774  29.910  42.379   7.664
  254POPC   C1B 6775  29.831  42.516   8.564
  254POPC   C2B 6776  29.854  42.574   8.264
  254POPC   C3B 6777  29.857  42.530   7.964
  254POPC   C4B 6778  29.835  42.603   7.664
  255POPC   NC3 6779  12.864  32.206   9.464
  255POPC   PO4 6780  12.873  32.258   9.164
  255POPC   GL1 6781  12.812  32.215   8.864
  255POPC   GL2 6782  12.912  32.131   8.864
  255POPC   C1A 6783  12.839  32.206   8.564
  255POPC   D2A 6784  12.867  32.285   8.264
  255POPC   C3A 6785  12.887  32.212   7.964
  255POPC   C4A 6786  12.846  32.225   7.664
  255POPC   C1B 6787  12.960  32.088   8.564
  255POPC   C2B 6788  13.052  32.093   8.264
  255POPC   C3B 6789  13.032  32.023   7.964
  255POPC   C4B 6790  13.015  32.052   7.664
  256POPC   NC3 6791   1.974  11.263   9.464
  256POPC   PO4 6792   1.958  11.337   9.164
  256POPC   GL1 6793   2.033  11.256   8.864
  256POPC   GL2 6794   2.134  11.349   8.864
  256POPC   C1A 6795   2.036  11.281   8.564
  256POPC   D2A 6796   1.950  11.256   8.264
  256POPC   C3A 6797   2.019  11.316   7.964
  256POPC   C4A 6798   1.995  11.257   7.664
  256POPC   C1B 6799   2.262  11.373   8.564
  256POPC   C2B 6800   2.270  11.298   8.264
  256POPC   C3B 6801   2.239  11.356   7.964
  256POPC   C4B 6802   2.285  11.345   7.664
  257POPC   NC3 6803  42.296   5.910   9.464
  257POPC   PO4 6804  42.311   5.831   9.164
  257POPC   GL1 6805  42.360   5.829   8.864
  257POPC   GL2 6806  42.211   5.927   8.864
  257POPC   C1A 6807  42.288   5.822   8.564
  257POPC   D2A 6808  42.345   5.874   8.264
  257POPC   C3A 6809  42.318   5.908   7.964
  257POPC   C4A 6810  42.366   5.821   7.664
  257POPC   C1B 6811  42.096   5.876   8.564
  257POPC   C2B 6812  42.048   5.899   8.264
  257POPC   C3B 6813  42.073   5.917   7.964
  257POPC   C4B 6814  42.042   5.857   7.664
  258POPC   NC3 6815  39.958  18.320   9.464
  258POPC   PO4 6816  40.026  18.288   9.164
  258POPC   GL1 6817  40.003  18.249   8.864
  258POPC   GL2 6818  40.075  18.345   8.864
  258POPC   C1A 6819  39.968  18.261   8.564
  258POPC   D2A 6820  40.007  18.281   8.264
  258POPC   C3A 6821  40.013  18.240   7.964
  258POPC   C4A 6822  40.043  18.247   7.664
  258POPC   C1B 6823  40.161  18.520   8.564
  258POPC   C2B 6824  40.192  18.474   8.264
  258POPC   C3B 6825  40.175  18.432   7.964
  258POPC   C4B 6826  40.205  18.476   7.664
  259POPC   NC3 6827  36.119  40.752   9.464
  259POPC   PO4 6828  36.167  40.751   9.164
  259POPC   GL1 6829  36.128  40.780   8.864
  259POPC   GL2 6830  36.095  40.914   8.864
  259POPC   C1A 6831  36.167  40.806   8.564
  259POPC   D2A 6832  36.148  40.799   8.264
  259POPC   C3A 6833  36.122  40.748   7.964
  259POPC   C4A 6834  36.097  40.737   7.664
  259POPC   C1B 6835  35.979  41.044   8.564
  259POPC   C2B 6836  36.019  41.011   8.264
  259POPC   C3B 6837  36.049  41.056   7.964
  259POPC   C4B 6838  36.077  40.986   7.664
  260POPC   NC3 6839  25.287  14.442   9.464
  260POPC   PO4 6840  25.314  14.400   9.164
  260POPC   GL1 6841  25.275  14.369   8.864
  260POPC   GL2 6842  25.185  14.240   8.864
  260POPC   C1A 6843  25.258  14.399   8.564
  260POPC   D2A 6844  25.253  14.366   8.264
  260POPC   C3A 6845  25.242  14.402   7.964
  260POPC   C4A 6846  25.300  14.397   7.664
  260POPC   C1B 6847  25.216  14.195   8.564
  260POPC   C2B 6848  25.213  14.195   8.264
  260POPC   C3B 6849  25.132  14.138   7.964
  260POPC   C4B 6850  25.175  14.133   7.664
  261POPC   NC3 6851  43.133  36.160   9.464
  261POPC   PO4 6852  43.066  36.136   9.164
  261POPC   GL1 6853  43.062  36.093   8.864
  261POPC   GL2 6854  43.187  36.172   8.864
  261POPC   C1A 6855  43.158  36.090   8.564
  261POPC   D2A 6856  43.083  36.140   8.264
  261POPC   C3A 6857  43.116  36.164   7.964
  261POPC   C4A 6858  43.128  36.148   7.664
  261POPC   C1B 6859  43.362  36.226   8.564
  261POPC   C2B 6860  43.317  36.221   8.264
  261POPC   C3B 6861  43.370  36.290   7.964
  261POPC   C4B 6862  43.316  36.219   7.664
  262POPC   NC3 6863  19.014  36.909   9.464
  262POPC   PO4 6864  19.045  36.885   9.164
  262POPC   GL1 6865  19.066  36.885   8.864
  262POPC   GL2 6866  19.165  36.965   8.864
  262POPC   C1A 6867  19.063  36.859   8.564
  262POPC   D2A 6868  19.086  36.950   8.264
  262POPC   C3A 6869  19.089  36.915   7.964
  262POPC   C4A 6870  19.019  36.918   7.664
  262POPC   C1B 6871  19.331  36.955   8.564
  262POPC   C2B 6872  19.303  36.961   8.264
  262POPC   C3B 6873  19.314  36.924   7.964
  262POPC   C4B 6874  19.258  36.956   7.664
  263POPC   NC3 6875  23.683  23.666   9.464
  263POPC   PO4 6876  23.746  23.691   9.164
  263POPC   GL1 6877  23.675  23.667   8.864
  263POPC   GL2 6878  23.759  23.774   8.864
  263POPC   C1A 6879  23.734  23.697   8.564
  263POPC   D2A 6880  23.680  23.704   8.264
  263POPC   C3A 6881  23.751  23.705   7.964
  263POPC   C4A 6882  23.704  23.702   7.664
  263POPC   C1B 6883  23.913  23.907   8.564
  263POPC   C2B 6884  23.865  23.865   8.264
  263POPC   C3B 6885  23.848  23.900   7.964
  263POPC   C4B 6886  23.839  23.868   7.664
  264POPC   NC3 6887   9.003  39.970   9.464
  264POPC   PO4 6888   8.953  40.010   9.164
  264POPC   GL1 6889   8.942  40.053   8.864
  264POPC   GL2 6890   8.972  39.912   8.864
  264POPC   C1A 6891   9.010  39.992   8.564
  264POPC   D2A 6892   8.933  40.007   8.264
  264POPC   C3A 6893   8.980  40.027   7.964
  264POPC   C4A 6894   8.993  40.044   7.664
  264POPC   C1B 6895   9.017  39.783   8.564
  264POPC   C2B 6896   8.928  39.773   8.264
  264POPC   C3B 6897   8.934  39.754   7.964
  264POPC   C4B 6898   9.011  39.716   7.664
  265POPC   NC3 6899  19.824  13.654   9.464
  265POPC   PO4 6900  19.802  13.603   9.164
  265POPC   GL1 6901  19.879  13.622   8.864
  265POPC   GL2 6902  19.987  13.694   8.864
  265POPC   C1A 6903  19.794  13.580   8.564
  265POPC   D2A 6904  19.846  13.634   8.264
  265POPC   C3A 6905  19.865  13.667   7.964
  265POPC   C4A 6906  19.884  13.581   7.664
  265POPC   C1B 6907  20.058  13.726   8.564
  265POPC   C2B 6908  20.039  13.743   8.264
  265POPC   C3B 6909  20.054  13.754   7.964
  265POPC   C4B 6910  20.106  13.775   7.664
  266POPC   NC3 6911  40.774  19.047   9.464
  266POPC   PO4 6912  40.746  19.101   9.164
  266POPC   GL1 6913  40.755  19.081   8.864
  266POPC   GL2 6914  40.643  19.123   8.864
  266POPC   C1A 6915  40.801  19.093   8.564
  266POPC   D2A 6916  40.788  19.061   8.264
  266POPC   C3A 6917  40.741  19.025   7.964
  266POPC   C4A 6918  40.763  19.036   7.664
  266POPC   C1B 6919  40.548  19.124   8.564
  266POPC   C2B 6920  40.530  19.152   8.264
  266POPC   C3B 6921  40.530  19.123   7.964
  266POPC   C4B 6922  40.518  19.145   7.664
  267POPC   NC3 6923  24.510  36.124   9.464
  267POPC   PO4 6924  24.478  36.119   9.164
  267POPC   GL1 6925  24.474  36.089   8.864
  267POPC   GL2 6926  24.558  36.035   8.864
  267POPC   C1A 6927  24.515  36.091   8.564
  267POPC   D2A 6928  24.511  36.110   8.264
  267POPC   C3A 6929  24.525  36.130   7.964
  267POPC   C4A 6930  24.507  36.089   7.664
  267POPC   C1B 6931  24.526  35.927   8.564
  267POPC   C2B 6932  24.594  35.913   8.264
  267POPC   C3B 6933  24.584  35.839   7.964
  267POPC   C4B 6934  24.589  35.935   7.664
  268POPC   NC3 6935  26.836  27.547   9.464
  268POPC   PO4 6936  26.812  27.585   9.164
  268POPC   GL1 6937  26.852  27.555   8.864
  268POPC   GL2 6938  26.705  27.628   8.864
  268POPC   C1A 6939  26.776  27.615   8.564
  268POPC   D2A 6940  26.839  27.633   8.264
  268POPC   C3A 6941  26.854  27.606   7.964
  268POPC   C4A 6942  26.844  27.592   7.664
  268POPC   C1B 6943  26.581  27.752   8.564
  268POPC   C2B 6944  26.660  27.716   8.264
  268POPC   C3B 6945  26.587  27.769   7.964
  268POPC   C4B 6946  26.567  27.758   7.664
  269POPC   NC3 6947  29.145  34.619   9.464
  269POPC   PO4 6948  29.171  34.611   9.164
  269POPC   GL1 6949  29.169  34.571   8.864
  269POPC   GL2 6950  29.269  34.567   8.864
  269POPC   C1A 6951  29.191  34.544   8.564
  269POPC   D2A 6952  29.139  34.530   8.264
  269POPC   C3A 6953  29.136  34.538   7.964
  269POPC   C4A 6954  29.143  34.527   7.664
  269POPC   C1B 6955  29.371  34.470   8.564
  269POPC   C2B 6956  29.399  34.465   8.264
  269POPC   C3B 6957  29.376  34.431   7.964
  269POPC   C4B 6958  29.395  34.521   7.664
  270POPC   NC3 6959   0.412  27.589   9.464
  270POPC   PO4 6960   0.472  27.578   9.164
  270POPC   GL1 6961   0.472  27.643   8.864
  270POPC   GL2 6962   0.383  27.454   8.864
  270POPC   C1A 6963   0.458  27.547   8.564
  270POPC   D2A 6964   0.456  27.550   8.264
  270POPC   C3A 6965   0.395  27.597   7.964
  270POPC   C4A 6966   0.463  27.579   7.664
  270POPC   C1B 6967   0.353  27.337   8.564
  270POPC   C2B 6968   0.384  27.357   8.264
  270POPC   C3B 6969   0.358  27.331   7.964
  270POPC   C4B 6970   0.397  27.379   7.664
  271POPC   NC3 6971  31.493  11.335   9.464
  271POPC   PO4 6972  31.473  11.297   9.164
  271POPC   GL1 6973  31.486  11.284   8.864
  271POPC   GL2 6974  31.614  11.226   8.864
  271POPC   C1A 6975  31.483  11.258   8.564
  271POPC   D2A 6976  31.492  11.268   8.264
  271POPC   C3A 6977  31.491  11.297   7.964
  271POPC   C4A 6978  31.471  11.275   7.664
  271POPC   C1B 6979  31.665  11.193   8.564
  271POPC   C2B 6980  31.753  11.214   8.264
  271POPC   C3B 6981  31.671  11.208   7.964
  271POPC   C4B 6982  31.720  11.170   7.664
  272POPC   NC3 6983  33.012   1.958   9.464
  272POPC   PO4 6984  33.017   2.034   9.164
  272POPC   GL1 6985  33.068   1.975   8.864
  272POPC   GL2 6986  33.136   2.103   8.864
  272POPC   C1A 6987  33.002   2.032   8.564
  272POPC   D2A 6988  32.975   1.985   8.264
  272POPC   C3A 6989  32.979   1.974   7.964
  272POPC   C4A 6990  32.984   2.017   7.664
  272POPC   C1B 6991  33.251   2.181   8.564
  272POPC   C2B 6992  33.263   2.108   8.264
  272POPC   C3B 6993  33.197   2.183   7.964
  272POPC   C4B 6994  33.166   2.132   7.664
  273POPC   NC3 6995  25.284  26.001   9.464
  273POPC   PO4 6996  25.263  26.022   9.164
  273POPC   GL1 6997  25.259  26.065   8.864
  273POPC   GL2 6998  25.231  25.969   8.864
  273POPC   C1A 6999  25.243  26.090   8.564
  273POPC   D2A 7000  25.231  26.012   8.264
  273POPC   C3A 7001  25.268  26.032   7.964
  273POPC   C4A 7002  25.264  26.071   7.664
  273POPC   C1B 7003  25.197  25.751   8.564
  273POPC   C2B 7004  25.226  25.836   8.264
  273POPC   C3B 7005  25.169  25.778   7.964
  273POPC   C4B 7006  25.223  25.759   7.664
  274POPC   NC3 7007  42.372  14.373   9.464
  274POPC   PO4 7008  42.291  14.389   9.164
  274POPC   GL1 7009  42.300  14.354   8.864
  274POPC   GL2 7010  42.317  14.308   8.864
  274POPC   C1A 7011  42.317  14.383   8.564
  274POPC   D2A 7012  42.359  14.379   8.264
  274POPC   C3A 7013  42.353  14.387   7.964
  274POPC   C4A 7014  42.322  14.363   7.664
  274POPC   C1B 7015  42.314  14.163   8.564
  274POPC   C2B 7016  42.307  14.132   8.264
  274POPC   C3B 7017  42.331  14.164   7.964
  274POPC   C4B 7018  42.281  14.143   7.664
  275POPC   NC3 7019  38.470  36.120   9.464
  275POPC   PO4 7020  38.409  36.177   9.164
  275POPC   GL1 7021  38.462  36.094   8.864
  275POPC   GL2 7022  38.623  36.062   8.864
  275POPC   C1A 7023  38.408  36.156   8.564
  275POPC   D2A 7024  38.482  36.172   8.264
  275POPC   C3A 7025  38.431  36.170   7.964
  275POPC   C4A 7026  38.450  36.135   7.664
  275POPC   C1B 7027  38.651  36.108   8.564
  275POPC   C2B 7028  38.653  36.127   8.264
  275POPC   C3B 7029  38.718  36.060   7.964
  275POPC   C4B 7030  38.671  36.127   7.664
  276POPC   NC3 7031   7.459  29.909   9.464
  276POPC   PO4 7032   7.431  29.954   9.164
  276POPC   GL1 7033   7.465  29.956   8.864
  276POPC   GL2 7034   7.368  29.859   8.864
  276POPC   C1A 7035   7.437  29.921   8.564
  276POPC   D2A 7036   7.418  29.882   8.264
  276POPC   C3A 7037   7.461  29.892   7.964
  276POPC   C4A 7038   7.404  29.948   7.664
  276POPC   C1B 7039   7.279  29.683   8.564
  276POPC   C2B 7040   7.256  29.701   8.264
  276POPC   C3B 7041   7.276  29.748   7.964
  276POPC   C4B 7042   7.222  29.762   7.664
  277POPC   NC3 7043  15.921  43.149   9.464
  277POPC   PO4 7044  15.943  43.141   9.164
  277POPC   GL1 7045  15.906  43.143   8.864
  277POPC   GL2 7046  16.099  43.099   8.864
  277POPC   C1A 7047  15.943  43.094   8.564
  277POPC   D2A 7048  15.988  43.136   8.264
  277POPC   C3A 7049  15.909  43.096   7.964
  277POPC   C4A 7050  16.001  43.109   7.664
  277POPC   C1B 7051  16.163  43.073   8.564
  277POPC   C2B 7052  16.178  43.135   8.264
  277POPC   C3B 7053  16.181  43.132   7.964
  277POPC   C4B 7054  16.192  43.076   7.664
  278POPC   NC3 7055   8.967  13.604   9.464
  278POPC   PO4 7056   9.004  13.670   9.164
  278POPC   GL1 7057   9.020  13.662   8.864
  278POPC   GL2 7058   9.064  13.564   8.864
  278POPC   C1A 7059   8.963  13.587   8.564
  278POPC   D2A 7060   8.997  13.669   8.264
  278POPC   C3A 7061   8.929  13.580   7.964
  278POPC   C4A 7062   8.943  13.612   7.664
  278POPC   C1B 7063   9.098  13.432   8.564
  278POPC   C2B 7064   9.063  13.377   8.264
  278POPC   C3B 7065   9.061  13.359   7.964
  278POPC   C4B 7066   9.106  13.396   7.664
  279POPC   NC3 7067  39.997   0.466   9.464
  279POPC   PO4 7068  39.989   0.428   9.164
  279POPC   GL1 7069  40.000   0.461   8.864
  279POPC   GL2 7070  39.844   0.434   8.864
  279POPC   C1A 7071  40.045   0.442   8.564
  279POPC   D2A 7072  39.994   0.406   8.264
  279POPC   C3A 7073  40.000   0.393   7.964
  279POPC   C4A 7074  40.047   0.457   7.664
  279POPC   C1B 7075  39.768   0.450   8.564
  279POPC   C2B 7076  39.791   0.391   8.264
  279POPC   C3B 7077  39.795   0.428   7.964
  279POPC   C4B 7078  39.776   0.471   7.664
  280POPC   NC3 7079   1.218  12.814   9.464
  280POPC   PO4 7080   1.260  12.889   9.164
  280POPC   GL1 7081   1.209  12.803   8.864
  280POPC   GL2 7082   1.083  12.883   8.864
  280POPC   C1A 7083   1.258  12.832   8.564
  280POPC   D2A 7084   1.227  12.832   8.264
  280POPC   C3A 7085   1.218  12.859   7.964
  280POPC   C4A 7086   1.259  12.887   7.664
  280POPC   C1B 7087   1.026  12.953   8.564
  280POPC   C2B 7088   0.932  12.951   8.264
  280POPC   C3B 7089   0.972  12.918   7.964
  280POPC   C4B 7090   1.000  12.949   7.664
  281POPC   NC3 7091  22.945   3.519   9.464
  281POPC   PO4 7092  22.978   3.523   9.164
  281POPC   GL1 7093  22.914   3.542   8.864
  281POPC   GL2 7094  22.775   3.534   8.864
  281POPC   C1A 7095  22.916   3.525   8.564
  281POPC   D2A 7096  22.968   3.497   8.264
  281POPC   C3A 7097  22.925   3.502   7.964
  281POPC   C4A 7098  22.956   3.522   7.664
  281POPC   C1B 7099  22.712   3.476   8.564
  281POPC   C2B 7100  22.690   3.480   8.264
  281POPC   C3B 7101  22.724   3.567   7.964
  281POPC   C4B 7102  22.651   3.500   7.664
  282POPC   NC3 7103  29.921   2.031   9.464
  282POPC   PO4 7104  29.928   1.979   9.164
  282POPC   GL1 7105  29.963   2.026   8.864
  282POPC   GL2 7106  29.820   2.100   8.864
  282POPC   C1A 7107  29.934   1.981   8.564
  282POPC   D2A 7108  29.934   1.972   8.264
  282POPC   C3A 7109  29.960   2.005   7.964
  282POPC   C4A 7110  29.925   2.017   7.664
  282POPC   C1B 7111  29.778   2.164   8.564
  282POPC   C2B 7112  29.740   2.226   8.264
  282POPC   C3B 7113  29.821   2.200   7.964
  282POPC   C4B 7114  29.799   2.153   7.664
  283POPC   NC3 7115  24.498   3.542   9.464
  283POPC   PO4 7116  24.461   3.555   9.164
  283POPC   GL1 7117  24.447   3.546   8.864
  283POPC   GL2 7118  24.588   3.490   8.864
  283POPC   C1A 7119  24.522   3.567   8.564
  283POPC   D2A 7120  24.443   3.586   8.264
  283POPC   C3A 7121  24.518   3.499   7.964
  283POPC   C4A 7122  24.492   3.534   7.664
  283POPC   C1B 7123  24.706   3.540   8.564
  283POPC   C2B 7124  24.758   3.572   8.264
  283POPC   C3B 7125  24.769   3.553   7.964
  283POPC   C4B 7126  24.693   3.509   7.664
  284POPC   NC3 7127   1.167  35.315   9.464
  284POPC   PO4 7128   1.224  35.387   9.164
  284POPC   GL1 7129   1.164  35.378   8.864
  284POPC   GL2 7130   1.098  35.260   8.864
  284POPC   C1A 7131   1.173  35.332   8.564
  284POPC   D2A 7132   1.190  35.306   8.264
  284POPC   C3A 7133   1.223  35.347   7.964
  284POPC   C4A 7134   1.223  35.336   7.664
  284POPC   C1B 7135   1.032  35.230   8.564
  284POPC   C2B 7136   0.968  35.272   8.264
  284POPC   C3B 7137   0.962  35.282   7.964
  284POPC   C4B 7138   0.988  35.236   7.664
  285POPC   NC3 7139  30.705  26.776   9.464
  285POPC   PO4 7140  30.707  26.802   9.164
  285POPC   GL1 7141  30.717  26.795   8.864
  285POPC   GL2 7142  30.669  26.716   8.864
  285POPC   C1A 7143  30.725  26.784   8.564
  285POPC   D2A 7144  30.723  26.860   8.264
  285POPC   C3A 7145  30.738  26.805   7.964
  285POPC   C4A 7146  30.674  26.843   7.664
  285POPC   C1B 7147  30.751  26.611   8.564
  285POPC   C2B 7148  30.719  26.614   8.264
  285POPC   C3B 7149  30.715  26.546   7.964
  285POPC   C4B 7150  30.728  26.537   7.664
  286POPC   NC3 7151  32.279  40.028   9.464
  286POPC   PO4 7152  32.280  40.010   9.164
  286POPC   GL1 7153  32.294  40.001   8.864
  286POPC   GL2 7154  32.088  39.936   8.864
  286POPC   C1A 7155  32.215  39.982   8.564
  286POPC   D2A 7156  32.297  39.996   8.264
  286POPC   C3A 7157  32.238  40.029   7.964
  286POPC   C4A 7158  32.202  40.012   7.664
  286POPC   C1B 7159  32.034  39.934   8.564
  286POPC   C2B 7160  31.982  39.855   8.264
  286POPC   C3B 7161  32.004  39.880   7.964
  286POPC   C4B 7162  32.066  39.920   7.664
  287POPC   NC3 7163   7.467  43.933   9.464
  287POPC   PO4 7164   7.405  43.859   9.164
  287POPC   GL1 7165   7.453  43.917   8.864
  287POPC   GL2 7166   7.339  43.960   8.864
  287POPC   C1A 7167   7.424  43.838   8.564
  287POPC   D2A 7168   7.403  43.930   8.264
  287POPC   C3A 7169   7.449  43.922   7.964
  287POPC   C4A 7170   7.463  43.928   7.664
  287POPC   C1B 7171   7.359  44.171   8.564
  287POPC   C2B 7172   7.340  44.166   8.264
  287POPC   C3B 7173   7.304  44.124   7.964
  287POPC   C4B 7174   7.331  44.162   7.664
  288POPC   NC3 7175  24.515   2.718   9.464
  288POPC   PO4 7176  24.459   2.760   9.164
  288POPC   GL1 7177  24.448   2.746   8.864
  288POPC   GL2 7178  24.375   2.868   8.864
  288POPC   C1A 7179  24.460   2.810   8.564
  288POPC   D2A 7180  24.479   2.763   8.264
  288POPC   C3A 7181  24.443   2.765   7.964
  288POPC   C4A 7182  24.537   2.753   7.664
  288POPC   C1B 7183  24.293   2.927   8.564
  288POPC   C2B 7184  24.343   2.975   8.264
  288POPC   C3B 7185  24.281   2.924   7.964
  288POPC   C4B 7186  24.305   2.968   7.664
  289POPC   NC3 7187  22.950  14.423   9.464
  289POPC   PO4 7188  22.982  14.372   9.164
  289POPC   GL1 7189  22.937  14.406   8.864
  289POPC   GL2 7190  22.871  14.305   8.864
  289POPC   C1A 7191  22.972  14.376   8.564
  289POPC   D2A 7192  22.913  14.450   8.264
  289POPC   C3A 7193  22.927  14.444   7.964
  289POPC   C4A 7194  22.921  14.360   7.664
  289POPC   C1B 7195  22.688  14.241   8.564
  289POPC   C2B 7196  22.671  14.300   8.264
  289POPC   C3B 7197  22.748  14.273   7.964
  289POPC   C4B 7198  22.747  14.305   7.664
  290POPC   NC3 7199  15.926   5.873   9.464
  290POPC   PO4 7200  15.968   5.895   9.164
  290POPC   GL1 7201  16.003   5.873   8.864
  290POPC   GL2 7202  15.870   5.855   8.864
  290POPC   C1A 7203  15.923   5.833   8.564
  290POPC   D2A 7204  16.000   5.907   8.264
  290POPC   C3A 7205  15.949   5.859   7.964
  290POPC   C4A 7206  16.005   5.821   7.664
  290POPC   C1B 7207  15.725   5.898   8.564
  290POPC   C2B 7208  15.683   5.863   8.264
  290POPC   C3B 7209  15.737   5.815   7.964
  290POPC   C4B 7210  15.740   5.873   7.664
  291POPC   NC3 7211   1.174  36.918   9.464
  291POPC   PO4 7212   1.192  36.949   9.164
  291POPC   GL1 7213   1.249  36.943   8.864
  291POPC   GL2 7214   1.248  37.055   8.864
  291POPC   C1A 7215   1.217  36.860   8.564
  291POPC   D2A 7216   1.261  36.863   8.264
  291POPC   C3A 7217   1.180  36.901   7.964
  291POPC   C4A 7218   1.253  36.917   7.664
  291POPC   C1B 7219   1.287  37.190   8.564
  291POPC   C2B 7220   1.254  37.128   8.264
  291POPC   C3B 7221   1.191  37.142   7.964
  291POPC   C4B 7222   1.215  37.139   7.664
  292POPC   NC3 7223  29.173  18.305   9.464
  292POPC   PO4 7224  29.134  18.263   9.164
  292POPC   GL1 7225  29.096  18.240   8.864
  292POPC   GL2 7226  29.150  18.404   8.864
  292POPC   C1A 7227  29.097  18.277   8.564
  292POPC   D2A 7228  29.116  18.305   8.264
  292POPC   C3A 7229  29.118  18.294   7.964
  292POPC   C4A 7230  29.130  18.258   7.664
  292POPC   C1B 7231  29.048  18.563   8.564
  292POPC   C2B 7232  29.052  18.554   8.264
  292POPC   C3B 7233  29.052  18.490   7.964
  292POPC   C4B 7234  29.041  18.558   7.664
  293POPC   NC3 7235  30.712  35.376   9.464
  293POPC   PO4 7236  30.661  35.400   9.164
  293POPC   GL1 7237  30.692  35.320   8.864
  293POPC   GL2 7238  30.736  35.416   8.864
  293POPC   C1A 7239  30.705  35.353   8.564
  293POPC   D2A 7240  30.712  35.330   8.264
  293POPC   C3A 7241  30.680  35.327   7.964
  293POPC   C4A 7242  30.695  35.304   7.664
  293POPC   C1B 7243  30.817  35.536   8.564
  293POPC   C2B 7244  30.772  35.573   8.264
  293POPC   C3B 7245  30.866  35.530   7.964
  293POPC   C4B 7246  30.797  35.588   7.664
  294POPC   NC3 7247  24.484  40.003   9.464
  294POPC   PO4 7248  24.462  40.007   9.164
  294POPC   GL1 7249  24.534  39.973   8.864
  294POPC   GL2 7250  24.484  39.856   8.864
  294POPC   C1A 7251  24.497  40.015   8.564
  294POPC   D2A 7252  24.525  40.016   8.264
  294POPC   C3A 7253  24.454  40.016   7.964
  294POPC   C4A 7254  24.460  40.005   7.664
  294POPC   C1B 7255  24.465  39.739   8.564
  294POPC   C2B 7256  24.467  39.770   8.264
  294POPC   C3B 7257  24.453  39.762   7.964
  294POPC   C4B 7258  24.481  39.801   7.664
  295POPC   NC3 7259  11.329   5.837   9.464
  295POPC   PO4 7260  11.255   5.913   9.164
  295POPC   GL1 7261  11.320   5.864   8.864
  295POPC   GL2 7262  11.194   5.728   8.864
  295POPC   C1A 7263  11.295   5.890   8.564
  295POPC   D2A 7264  11.319   5.903   8.264
  295POPC   C3A 7265  11.271   5.878   7.964
  295POPC   C4A 7266  11.260   5.909   7.664
  295POPC   C1B 7267  11.100   5.733   8.564
  295POPC   C2B 7268  11.094   5.701   8.264
  295POPC   C3B 7269  11.109   5.677   7.964
  295POPC   C4B 7270  11.141   5.670   7.664
  296POPC   NC3 7271  21.381  15.942   9.464
  296POPC   PO4 7272  21.409  15.908   9.164
  296POPC   GL1 7273  21.432  15.916   8.864
  296POPC   GL2 7274  21.459  16.078   8.864
  296POPC   C1A 7275  21.378  15.962   8.564
  296POPC   D2A 7276  21.420  15.944   8.264
  296POPC   C3A 7277  21.337  15.958   7.964
  296POPC   C4A 7278  21.375  15.925   7.664
  296POPC   C1B 7279  21.549  16.147   8.564
  296POPC   C2B 7280  21.587  16.117   8.264
  296POPC   C3B 7281  21.631  16.131   7.964
  296POPC   C4B 7282  21.571  16.149   7.664
  297POPC   NC3 7283  44.708  37.705   9.464
  297POPC   PO4 7284  44.688  37.695   9.164
  297POPC   GL1 7285  44.644  37.711   8.864
  297POPC   GL2 7286  44.724  37.586   8.864
  297POPC   C1A 7287  44.682  37.687   8.564
  297POPC   D2A 7288  44.705  37.641   8.264
  297POPC   C3A 7289  44.697  37.672   7.964
  297POPC   C4A 7290  44.653  37.679   7.664
  297POPC   C1B 7291  44.722  37.403   8.564
  297POPC   C2B 7292  44.772  37.422   8.264
  297POPC   C3B 7293  44.800  37.397   7.964
  297POPC   C4B 7294  44.704  37.400   7.664
  298POPC   NC3 7295  39.219  12.850   9.464
  298POPC   PO4 7296  39.238  12.871   9.164
  298POPC   GL1 7297  39.223  12.815   8.864
  298POPC   GL2 7298  39.090  12.783   8.864
  298POPC   C1A 7299  39.252  12.884   8.564
  298POPC   D2A 7300  39.224  12.899   8.264
  298POPC   C3A 7301  39.182  12.856   7.964
  298POPC   C4A 7302  39.226  12.822   7.664
  298POPC   C1B 7303  38.975  12.785   8.564
  298POPC   C2B 7304  38.961  12.788   8.264
  298POPC   C3B 7305  38.983  12.859   7.964
  298POPC   C4B 7306  39.015  12.854   7.664
  299POPC   NC3 7307  12.089  20.588   9.464
  299POPC   PO4 7308  12.078  20.581   9.164
  299POPC   GL1 7309  12.051  20.602   8.864
  299POPC   GL2 7310  11.972  20.589   8.864
  299POPC   C1A 7311  12.098  20.652   8.564
  299POPC   D2A 7312  12.099  20.650   8.264
  299POPC   C3A 7313  12.095  20.627   7.964
  299POPC   C4A 7314  12.101  20.585   7.664
  299POPC   C1B 7315  11.886  20.465   8.564
  299POPC   C2B 7316  11.843  20.475   8.264
  299POPC   C3B 7317  11.849  20.485   7.964
  299POPC   C4B 7318  11.898  20.516   7.664
  300POPC   NC3 7319  24.451  26.791   9.464
  300POPC   PO4 7320  24.500  26.804   9.164
  300POPC   GL1 7321  24.488  26.822   8.864
  300POPC   GL2 7322  24.389  26.902   8.864
  300POPC   C1A 7323  24.506  26.807   8.564
  300POPC   D2A 7324  24.523  26.779   8.264
  300POPC   C3A 7325  24.484  26.866   7.964
  300POPC   C4A 7326  24.477  26.862   7.664
  300POPC   C1B 7327  24.294  26.963   8.564
  300POPC   C2B 7328  24.313  27.026   8.264
  300POPC   C3B 7329  24.364  27.021   7.964
  300POPC   C4B 7330  24.380  26.984   7.664
  301POPC   NC3 7331  10.487   7.438   9.464
  301POPC   PO4 7332  10.554   7.452   9.164
  301POPC   GL1 7333  10.516   7.411   8.864
  301POPC   GL2 7334  10.576   7.500   8.864
  301POPC   C1A 7335  10.503   7.388   8.564
  301POPC   D2A 7336  10.505   7.432   8.264
  301POPC   C3A 7337  10.489   7.384   7.964
  301POPC   C4A 7338  10.480   7.416   7.664
  301POPC   C1B 7339  10.616   7.704   8.564
  301POPC   C2B 7340  10.579   7.714   8.264
  301POPC   C3B 7341  10.540   7.634   7.964
  301POPC   C4B 7342  10.590   7.700   7.664
  302POPC   NC3 7343  34.623  31.427   9.464
  302POPC   PO4 7344  34.623  31.491   9.164
  302POPC   GL1 7345  34.594  31.444   8.864
  302POPC   GL2 7346  34.673  31.527   8.864
  302POPC   C1A 7347  34.589  31.503   8.564
  302POPC   D2A 7348  34.583  31.511   8.264
  302POPC   C3A 7349  34.546  31.428   7.964
  302POPC   C4A 7350  34.556  31.485   7.664
  302POPC   C1B 7351  34.810  31.673   8.564
  302POPC   C2B 7352  34.775  31.645   8.264
  302POPC   C3B 7353  34.762  31.609   7.964
  302POPC   C4B 7354  34.814  31.664   7.664
  303POPC   NC3 7355  36.101   1.252   9.464
  303POPC   PO4 7356  36.087   1.220   9.164
  303POPC   GL1 7357  36.135   1.226   8.864
  303POPC   GL2 7358  36.255   1.205   8.864
  303POPC   C1A 7359  36.146   1.178   8.564
  303POPC   D2A 7360  36.145   1.187   8.264
  303POPC   C3A 7361  36.176   1.250   7.964
  303POPC   C4A 7362  36.140   1.242   7.664
  303POPC   C1B 7363  36.418   1.137   8.564
  303POPC   C2B 7364  36.386   1.135   8.264
  303POPC   C3B 7365  36.369   1.150   7.964
  303POPC   C4B 7366  36.373   1.141   7.664
  304POPC   NC3 7367  39.264  35.389   9.464
  304POPC   PO4 7368  39.201  35.369   9.164
  304POPC   GL1 7369  39.228  35.384   8.864
  304POPC   GL2 7370  39.327  35.209   8.864
  304POPC   C1A 7371  39.241  35.398   8.564
  304POPC   D2A 7372  39.266  35.311   8.264
  304POPC   C3A 7373  39.239  35.394   7.964
  304POPC   C4A 7374  39.230  35.304   7.664
  304POPC   C1B 7375  39.392  35.177   8.564
  304POPC   C2B 7376  39.366  35.169   8.264
  304POPC   C3B 7377  39.383  35.159   7.964
  304POPC   C4B 7378  39.358  35.137   7.664
  305POPC   NC3 7379  33.805  43.126   9.464
  305POPC   PO4 7380  33.840  43.134   9.164
  305POPC   GL1 7381  33.821  43.079   8.864
  305POPC   GL2 7382  33.771  42.987   8.864
  305POPC   C1A 7383  33.760  43.064   8.564
  305POPC   D2A 7384  33.784  43.100   8.264
  305POPC   C3A 7385  33.831  43.085   7.964
  305POPC   C4A 7386  33.807  43.148   7.664
  305POPC   C1B 7387  33.809  42.824   8.564
  305POPC   C2B 7388  33.770  42.874   8.264
  305POPC   C3B 7389  33.761  42.828   7.964
  305POPC   C4B 7390  33.834  42.871   7.664
  306POPC   NC3 7391  16.754  43.156   9.464
  306POPC   PO4 7392  16.778  43.124   9.164
  306POPC   GL1 7393  16.724  43.153   8.864
  306POPC   GL2 7394  16.731  42.947   8.864
  306POPC   C1A 7395  16.765  43.069   8.564
  306POPC   D2A 7396  16.757  43.148   8.264
  306POPC   C3A 7397  16.735  43.079   7.964
  306POPC   C4A 7398  16.779  43.092   7.664
  306POPC   C1B 7399  16.663  42.833   8.564
  306POPC   C2B 7400  16.627  42.915   8.264
  306POPC   C3B 7401  16.656  42.876   7.964
  306POPC   C4B 7402  16.667  42.915   7.664
  307POPC   NC3 7403  17.471  23.682   9.464
  307POPC   PO4 7404  17.543  23.717   9.164
  307POPC   GL1 7405  17.508  23.679   8.864
  307POPC   GL2 7406  17.542  23.564   8.864
  307POPC   C1A 7407  17.533  23.709   8.564
  307POPC   D2A 7408  17.501  23.713   8.264
  307POPC   C3A 7409  17.467  23.759   7.964
  307POPC   C4A 7410  17.509  23.713   7.664
  307POPC   C1B 7411  17.484  23.429   8.564
  307POPC   C2B 7412  17.492  23.428   8.264
  307POPC   C3B 7413  17.469  23.434   7.964
  307POPC   C4B 7414  17.486  23.512   7.664
  308POPC   NC3 7415  12.060  15.189   9.464
  308POPC   PO4 7416  12.117  15.197   9.164
  308POPC   GL1 7417  12.032  15.228   8.864
  308POPC   GL2 7418  12.213  15.148   8.864
  308POPC   C1A 7419  12.093  15.181   8.564
  308POPC   D2A 7420  12.124  15.161   8.264
  308POPC   C3A 7421  12.046  15.139   7.964
  308POPC   C4A 7422  12.113  15.197   7.664
  308POPC   C1B 7423  12.329  15.049   8.564
  308POPC   C2B 7424  12.318  15.005   8.264
  308POPC   C3B 7425  12.249  15.022   7.964
  308POPC   C4B 7426  12.282  15.006   7.664
  309POPC   NC3 7427  28.350   4.299   9.464
  309POPC   PO4 7428  28.378   4.304   9.164
  309POPC   GL1 7429  28.403   4.344   8.864
  309POPC   GL2 7430  28.283   4.248   8.864
  309POPC   C1A 7431  28.367   4.268   8.564
  309POPC   D2A 7432  28.348   4.326   8.264
  309POPC   C3A 7433  28.397   4.352   7.964
  309POPC   C4A 7434  28.409   4.362   7.664
  309POPC   C1B 7435  28.094   4.230   8.564
  309POPC   C2B 7436  28.086   4.305   8.264
  309POPC   C3B 7437  28.103   4.236   7.964
  309POPC   C4B 7438  28.080   4.312   7.664
  310POPC   NC3 7439  39.279  40.822   9.464
  310POPC   PO4 7440  39.258  40.808   9.164
  310POPC   GL1 7441  39.251  40.775   8.864
  310POPC   GL2 7442  39.331  40.893   8.864
  310POPC   C1A 7443  39.238  40.801   8.564
  310POPC   D2A 7444  39.232  40.737   8.264
  310POPC   C3A 7445  39.214  40.816   7.964
  310POPC   C4A 7446  39.216  40.740   7.664
  310POPC   C1B 7447  39.403  40.956   8.564
  310POPC   C2B 7448  39.428  40.975   8.264
  310POPC   C3B 7449  39.415  40.899   7.964
  310POPC   C4B 7450  39.441  40.974   7.664
  311POPC   NC3 7451  34.619  14.417   9.464
  311POPC   PO4 7452  34.569  14.363   9.164
  311POPC   GL1 7453  34.593  14.421   8.864
  311POPC   GL2 7454  34.663  14.483   8.864
  311POPC   C1A 7455  34.612  14.368   8.564
  311POPC   D2A 7456  34.577  14.403   8.264
  311POPC   C3A 7457  34.618  14.387   7.964
  311POPC   C4A 7458  34.622  14.436   7.664
  311POPC   C1B 7459  34.750  14.577   8.564
  311POPC   C2B 7460  34.765  14.597   8.264
  311POPC   C3B 7461  34.751  14.629   7.964
  311POPC   C4B 7462  34.733  14.628   7.664
  312POPC   NC3 7463   5.856  36.905   9.464
  312POPC   PO4 7464   5.897  36.880   9.164
  312POPC   GL1 7465   5.891  36.857   8.864
  312POPC   GL2 7466   5.968  36.941   8.864
  312POPC   C1A 7467   5.863  36.855   8.564
  312POPC   D2A 7468   5.881  36.924   8.264
  312POPC   C3A 7469   5.830  36.944   7.964
  312POPC   C4A 7470   5.834  36.893   7.664
  312POPC   C1B 7471   6.145  36.919   8.564
  312POPC   C2B 7472   6.086  36.899   8.264
  312POPC   C3B 7473   6.139  36.890   7.964
  312POPC   C4B 7474   6.073  36.933   7.664
  313POPC   NC3 7475  38.439  29.963   9.464
  313POPC   PO4 7476  38.466  29.920   9.164
  313POPC   GL1 7477  38.484  29.930   8.864
  313POPC   GL2 7478  38.382  29.953   8.864
  313POPC   C1A 7479  38.457  29.920   8.564
  313POPC   D2A 7480  38.413  29.920   8.264
  313POPC   C3A 7481  38.469  29.924   7.964
  313POPC   C4A 7482  38.445  29.907   7.664
  313POPC   C1B 7483  38.270  30.020   8.564
  313POPC   C2B 7484  38.230  30.050   8.264
  313POPC   C3B 7485  38.213  30.024   7.964
  313POPC   C4B 7486  38.260  30.031   7.664
  314POPC   NC3 7487  44.642  19.814   9.464
  314POPC   PO4 7488  44.674  19.810   9.164
  314POPC   GL1 7489  44.635  19.804   8.864
  314POPC   GL2 7490  44.631  19.927   8.864
  314POPC   C1A 7491  44.700  19.825   8.564
  314POPC   D2A 7492  44.635  19.790   8.264
  314POPC   C3A 7493  44.683  19.810   7.964
  314POPC   C4A 7494  44.637  19.877   7.664
  314POPC   C1B 7495  44.679  20.132   8.564
  314POPC   C2B 7496  44.636  20.104   8.264
  314POPC   C3B 7497  44.635  20.131   7.964
  314POPC   C4B 7498  44.721  20.053   7.664
  315POPC   NC3 7499   8.187  19.079   9.464
  315POPC   PO4 7500   8.217  19.093   9.164
  315POPC   GL1 7501   8.170  19.050   8.864
  315POPC   GL2 7502   8.097  18.982   8.864
  315POPC   C1A 7503   8.179  19.091   8.564
  315POPC   D2A 7504   8.187  19.069   8.264
  315POPC   C3A 7505   8.159  19.091   7.964
  315POPC   C4A 7506   8.164  19.074   7.664
  315POPC   C1B 7507   7.947  18.909   8.564
  315POPC   C2B 7508   7.984  18.952   8.264
  315POPC   C3B 7509   7.989  18.899   7.964
  315POPC   C4B 7510   7.925  18.928   7.664
  316POPC   NC3 7511  15.211  11.252   9.464
  316POPC   PO4 7512  15.179  11.312   9.164
  316POPC   GL1 7513  15.142  11.312   8.864
  316POPC   GL2 7514  15.132  11.449   8.864
  316POPC   C1A 7515  15.207  11.260   8.564
  316POPC   D2A 7516  15.170  11.262   8.264
  316POPC   C3A 7517  15.189  11.261   7.964
  316POPC   C4A 7518  15.130  11.337   7.664
  316POPC   C1B 7519  15.178  11.587   8.564
  316POPC   C2B 7520  15.142  11.553   8.264
  316POPC   C3B 7521  15.127  11.531   7.964
  316POPC   C4B 7522  15.113  11.531   7.664
  317POPC   NC3 7523  22.943  29.109   9.464
  317POPC   PO4 7524  22.897  29.116   9.164
  317POPC   GL1 7525  22.917  29.111   8.864
  317POPC   GL2 7526  22.871  29.180   8.864
  317POPC   C1A 7527  22.897  29.098   8.564
  317POPC   D2A 7528  22.952  29.108   8.264
  317POPC   C3A 7529  22.958  29.132   7.964
  317POPC   C4A 7530  22.969  29.181   7.664
  317POPC   C1B 7531  22.717  29.245   8.564
  317POPC   C2B 7532  22.743  29.284   8.264
  317POPC   C3B 7533  22.733  29.279   7.964
  317POPC   C4B 7534  22.757  29.228   7.664
  318POPC   NC3 7535  32.996  12.809   9.464
  318POPC   PO4 7536  33.024  12.853   9.164
  318POPC   GL1 7537  33.045  12.859   8.864
  318POPC   GL2 7538  32.928  12.941   8.864
  318POPC   C1A 7539  33.021  12.851   8.564
  318POPC   D2A 7540  33.064  12.815   8.264
  318POPC   C3A 7541  32.983  12.878   7.964
  318POPC   C4A 7542  33.051  12.871   7.664
  318POPC   C1B 7543  32.897  13.047   8.564
  318POPC   C2B 7544  32.893  13.055   8.264
  318POPC   C3B 7545  32.911  13.119   7.964
  318POPC   C4B 7546  32.880  13.114   7.664
  319POPC   NC3 7547  34.546  36.932   9.464
  319POPC   PO4 7548  34.625  36.938   9.164
  319POPC   GL1 7549  34.558  36.942   8.864
  319POPC   GL2 7550  34.504  36.823   8.864
  319POPC   C1A 7551  34.578  36.945   8.564
  319POPC   D2A 7552  34.587  36.860   8.264
  319POPC   C3A 7553  34.604  36.920   7.964
  319POPC   C4A 7554  34.577  36.946   7.664
  319POPC   C1B 7555  34.519  36.615   8.564
  319POPC   C2B 7556  34.532  36.683   8.264
  319POPC   C3B 7557  34.523  36.670   7.964
  319POPC   C4B 7558  34.461  36.649   7.664
  320POPC   NC3 7559  36.126  33.805   9.464
  320POPC   PO4 7560  36.131  33.849   9.164
  320POPC   GL1 7561  36.140  33.774   8.864
  320POPC   GL2 7562  35.986  33.813   8.864
  320POPC   C1A 7563  36.159  33.831   8.564
  320POPC   D2A 7564  36.078  33.762   8.264
  320POPC   C3A 7565  36.168  33.767   7.964
  320POPC   C4A 7566  36.104  33.798   7.664
  320POPC   C1B 7567  35.945  33.937   8.564
  320POPC   C2B 7568  35.888  33.943   8.264
  320POPC   C3B 7569  35.927  33.877   7.964
  320POPC   C4B 7570  35.916  33.944   7.664
  321POPC   NC3 7571  26.058  33.755   9.464
  321POPC   PO4 7572  26.028  33.819   9.164
  321POPC   GL1 7573  26.008  33.811   8.864
  321POPC   GL2 7574  26.006  33.895   8.864
  321POPC   C1A 7575  26.063  33.770   8.564
  321POPC   D2A 7576  26.060  33.802   8.264
  321POPC   C3A 7577  26.021  33.776   7.964
  321POPC   C4A 7578  25.992  33.846   7.664
  321POPC   C1B 7579  25.904  34.004   8.564
  321POPC   C2B 7580  25.851  34.008   8.264
  321POPC   C3B 7581  25.883  34.008   7.964
  321POPC   C4B 7582  25.896  33.943   7.664
  322POPC   NC3 7583  18.249  15.170   9.464
  322POPC   PO4 7584  18.329  15.223   9.164
  322POPC   GL1 7585  18.325  15.193   8.864
  322POPC   GL2 7586  18.207  15.291   8.864
  322POPC   C1A 7587  18.245  15.223   8.564
  322POPC   D2A 7588  18.305  15.177   8.264
  322POPC   C3A 7589  18.259  15.213   7.964
  322POPC   C4A 7590  18.280  15.162   7.664
  322POPC   C1B 7591  18.085  15.429   8.564
  322POPC   C2B 7592  18.164  15.412   8.264
  322POPC   C3B 7593  18.097  15.341   7.964
  322POPC   C4B 7594  18.132  15.392   7.664
  323POPC   NC3 7595  33.782  35.394   9.464
  323POPC   PO4 7596  33.784  35.347   9.164
  323POPC   GL1 7597  33.801  35.391   8.864
  323POPC   GL2 7598  33.778  35.231   8.864
  323POPC   C1A 7599  33.769  35.365   8.564
  323POPC   D2A 7600  33.754  35.317   8.264
  323POPC   C3A 7601  33.849  35.381   7.964
  323POPC   C4A 7602  33.796  35.337   7.664
  323POPC   C1B 7603  33.840  35.127   8.564
  323POPC   C2B 7604  33.899  35.075   8.264
  323POPC   C3B 7605  33.838  35.072   7.964
  323POPC   C4B 7606  33.852  35.128   7.664
  324POPC   NC3 7607  30.683  11.343   9.464
  324POPC   PO4 7608  30.717  11.318   9.164
  324POPC   GL1 7609  30.690  11.296   8.864
  324POPC   GL2 7610  30.868  11.325   8.864
  324POPC   C1A 7611  30.648  11.309   8.564
  324POPC   D2A 7612  30.667  11.335   8.264
  324POPC   C3A 7613  30.721  11.294   7.964
  324POPC   C4A 7614  30.692  11.274   7.664
  324POPC   C1B 7615  30.941  11.306   8.564
  324POPC   C2B 7616  30.915  11.307   8.264
  324POPC   C3B 7617  30.918  11.293   7.964
  324POPC   C4B 7618  30.937  11.292   7.664
  325POPC   NC3 7619  18.273  20.625   9.464
  325POPC   PO4 7620  18.301  20.642   9.164
  325POPC   GL1 7621  18.246  20.655   8.864
  325POPC   GL2 7622  18.270  20.449   8.864
  325POPC   C1A 7623  18.296  20.646   8.564
  325POPC   D2A 7624  18.307  20.568   8.264
  325POPC   C3A 7625  18.303  20.611   7.964
  325POPC   C4A 7626  18.237  20.574   7.664
  325POPC   C1B 7627  18.236  20.396   8.564
  325POPC   C2B 7628  18.238  20.335   8.264
  325POPC   C3B 7629  18.244  20.366   7.964
  325POPC   C4B 7630  18.240  20.409   7.664
  326POPC   NC3 7631  33.831  13.614   9.464
  326POPC   PO4 7632  33.814  13.652   9.164
  326POPC   GL1 7633  33.797  13.633   8.864
  326POPC   GL2 7634  33.874  13.758   8.864
  326POPC   C1A 7635  33.837  13.676   8.564
  326POPC   D2A 7636  33.829  13.639   8.264
  326POPC   C3A 7637  33.820  13.665   7.964
  326POPC   C4A 7638  33.758  13.620   7.664
  326POPC   C1B 7639  33.981  13.820   8.564
  326POPC   C2B 7640  33.980  13.820   8.264
  326POPC   C3B 7641  33.944  13.870   7.964
  326POPC   C4B 7642  33.906  13.869   7.664
  327POPC   NC3 7643  13.592   7.456   9.464
  327POPC   PO4 7644  13.590   7.424   9.164
  327POPC   GL1 7645  13.606   7.408   8.864
  327POPC   GL2 7646  13.716   7.333   8.864
  327POPC   C1A 7647  13.595   7.387   8.564
  327POPC   D2A 7648  13.590   7.406   8.264
  327POPC   C3A 7649  13.669   7.469   7.964
  327POPC   C4A 7650  13.622   7.464   7.664
  327POPC   C1B 7651  13.753   7.270   8.564
  327POPC   C2B 7652  13.754   7.257   8.264
  327POPC   C3B 7653  13.841   7.240   7.964
  327POPC   C4B 7654  13.761   7.235   7.664
  328POPC   NC3 7655   9.712   1.206   9.464
  328POPC   PO4 7656   9.729   1.212   9.164
  328POPC   GL1 7657   9.738   1.174   8.864
  328POPC   GL2 7658   9.655   1.136   8.864
  328POPC   C1A 7659   9.778   1.260   8.564
  328POPC   D2A 7660   9.776   1.172   8.264
  328POPC   C3A 7661   9.791   1.254   7.964
  328POPC   C4A 7662   9.774   1.245   7.664
  328POPC   C1B 7663   9.517   1.154   8.564
  328POPC   C2B 7664   9.545   1.154   8.264
  328POPC   C3B 7665   9.538   1.119   7.964
  328POPC   C4B 7666   9.549   1.110   7.664
  329POPC   NC3 7667   3.520  16.694   9.464
  329POPC   PO4 7668   3.511  16.772   9.164
  329POPC   GL1 7669   3.590  16.683   8.864
  329POPC   GL2 7670   3.511  16.809   8.864
  329POPC   C1A 7671   3.514  16.739   8.564
  329POPC   D2A 7672   3.548  16.760   8.264
  329POPC   C3A 7673   3.494  16.698   7.964
  329POPC   C4A 7674   3.492  16.719   7.664
  329POPC   C1B 7675   3.503  17.020   8.564
  329POPC   C2B 7676   3.480  16.949   8.264
  329POPC   C3B 7677   3.555  17.025   7.964
  329POPC   C4B 7678   3.556  16.994   7.664
  330POPC   NC3 7679  31.508  18.247   9.464
  330POPC   PO4 7680  31.488  18.318   9.164
  330POPC   GL1 7681  31.498  18.258   8.864
  330POPC   GL2 7682  31.576  18.316   8.864
  330POPC   C1A 7683  31.428  18.273   8.564
  330POPC   D2A 7684  31.502  18.240   8.264
  330POPC   C3A 7685  31.495  18.314   7.964
  330POPC   C4A 7686  31.502  18.305   7.664
  330POPC   C1B 7687  31.717  18.434   8.564
  330POPC   C2B 7688  31.640  18.459   8.264
  330POPC   C3B 7689  31.660  18.380   7.964
  330POPC   C4B 7690  31.640  18.392   7.664
  331POPC   NC3 7691  38.484  26.770   9.464
  331POPC   PO4 7692  38.494  26.820   9.164
  331POPC   GL1 7693  38.497  26.787   8.864
  331POPC   GL2 7694  38.447  26.897   8.864
  331POPC   C1A 7695  38.415  26.815   8.564
  331POPC   D2A 7696  38.475  26.782   8.264
  331POPC   C3A 7697  38.470  26.795   7.964
  331POPC   C4A 7698  38.471  26.772   7.664
  331POPC   C1B 7699  38.520  27.027   8.564
  331POPC   C2B 7700  38.487  27.108   8.264
  331POPC   C3B 7701  38.499  27.038   7.964
  331POPC   C4B 7702  38.484  27.017   7.664
  332POPC   NC3 7703  39.264  44.649   9.464
  332POPC   PO4 7704  39.208  44.621   9.164
  332POPC   GL1 7705  39.197  44.655   8.864
  332POPC   GL2 7706  39.328  44.523   8.864
  332POPC   C1A 7707  39.228  44.630   8.564
  332POPC   D2A 7708  39.252  44.647   8.264
  332POPC   C3A 7709  39.241  44.667   7.964
  332POPC   C4A 7710  39.193  44.690   7.664
  332POPC   C1B 7711  39.366  44.492   8.564
  332POPC   C2B 7712  39.399  44.475   8.264
  332POPC   C3B 7713  39.379  44.476   7.964
  332POPC   C4B 7714  39.396  44.463   7.664
  333POPC   NC3 7715  32.990  17.500   9.464
  333POPC   PO4 7716  33.009  17.501   9.164
  333POPC   GL1 7717  33.001  17.522   8.864
  333POPC   GL2 7718  33.122  17.370   8.864
  333POPC   C1A 7719  32.990  17.524   8.564
  333POPC   D2A 7720  33.045  17.521   8.264
  333POPC   C3A 7721  32.984  17.529   7.964
  333POPC   C4A 7722  33.060  17.511   7.664
  333POPC   C1B 7723  33.199  17.371   8.564
  333POPC   C2B 7724  33.231  17.361   8.264
  333POPC   C3B 7725  33.213  17.363   7.964
  333POPC   C4B 7726  33.241  17.304   7.664
  334POPC   NC3 7727  10.492   1.218   9.464
  334POPC   PO4 7728  10.521   1.166   9.164
  334POPC   GL1 7729  10.506   1.164   8.864
  334POPC   GL2 7730  10.606   1.142   8.864
  334POPC   C1A 7731  10.560   1.246   8.564
  334POPC   D2A 7732  10.510   1.237   8.264
  334POPC   C3A 7733  10.515   1.216   7.964
  334POPC   C4A 7734  10.568   1.260   7.664
  334POPC   C1B 7735  10.667   1.007   8.564
  334POPC   C2B 7736  10.676   1.004   8.264
  334POPC   C3B 7737  10.752   1.040   7.964
  334POPC   C4B 7738  10.668   1.025   7.664
  335POPC   NC3 7739  32.245   1.224   9.464
  335POPC   PO4 7740  32.215   1.171   9.164
  335POPC   GL1 7741  32.226   1.226   8.864
  335POPC   GL2 7742  32.353   1.318   8.864
  335POPC   C1A 7743  32.287   1.185   8.564
  335POPC   D2A 7744  32.216   1.211   8.264
  335POPC   C3A 7745  32.228   1.187   7.964
  335POPC   C4A 7746  32.235   1.176   7.664
  335POPC   C1B 7747  32.429   1.426   8.564
  335POPC   C2B 7748  32.392   1.422   8.264
  335POPC   C3B 7749  32.468   1.423   7.964
  335POPC   C4B 7750  32.402   1.415   7.664
  336POPC   NC3 7751  16.761  15.989   9.464
  336POPC   PO4 7752  16.757  15.983   9.164
  336POPC   GL1 7753  16.767  15.976   8.864
  336POPC   GL2 7754  16.615  15.951   8.864
  336POPC   C1A 7755  16.688  15.974   8.564
  336POPC   D2A 7756  16.732  15.957   8.264
  336POPC   C3A 7757  16.682  15.981   7.964
  336POPC   C4A 7758  16.710  15.938   7.664
  336POPC   C1B 7759  16.514  16.056   8.564
  336POPC   C2B 7760  16.471  15.986   8.264
  336POPC   C3B 7761  16.528  15.997   7.964
  336POPC   C4B 7762  16.484  16.015   7.664
  337POPC   NC3 7763   6.627  23.713   9.464
  337POPC   PO4 7764   6.624  23.736   9.164
  337POPC   GL1 7765   6.659  23.694   8.864
  337POPC   GL2 7766   6.721  23.722   8.864
  337POPC   C1A 7767   6.609  23.699   8.564
  337POPC   D2A 7768   6.675  23.757   8.264
  337POPC   C3A 7769   6.638  23.724   7.964
  337POPC   C4A 7770   6.622  23.756   7.664
  337POPC   C1B 7771   6.872  23.711   8.564
  337POPC   C2B 7772   6.919  23.784   8.264
  337POPC   C3B 7773   6.890  23.777   7.964
  337POPC   C4B 7774   6.853  23.751   7.664
  338POPC   NC3 7775   1.196  38.474   9.464
  338POPC   PO4 7776   1.244  38.422   9.164
  338POPC   GL1 7777   1.180  38.498   8.864
  338POPC   GL2 7778   1.144  38.292   8.864
  338POPC   C1A 7779   1.195  38.423   8.564
  338POPC   D2A 7780   1.200  38.487   8.264
  338POPC   C3A 7781   1.188  38.406   7.964
  338POPC   C4A 7782   1.244  38.480   7.664
  338POPC   C1B 7783   1.159  38.230   8.564
  338POPC   C2B 7784   1.121  38.226   8.264
  338POPC   C3B 7785   1.130  38.161   7.964
  338POPC   C4B 7786   1.184  38.208   7.664
  339POPC   NC3 7787   9.723  12.084   9.464
  339POPC   PO4 7788   9.722  12.035   9.164
  339POPC   GL1 7789   9.766  12.089   8.864
  339POPC   GL2 7790   9.814  12.132   8.864
  339POPC   C1A 7791   9.739  12.104   8.564
  339POPC   D2A 7792   9.793  12.046   8.264
  339POPC   C3A 7793   9.709  12.059   7.964
  339POPC   C4A 7794   9.776  12.046   7.664
  339POPC   C1B 7795   9.921  12.271   8.564
  339POPC   C2B 7796   9.904  12.268   8.264
  339POPC   C3B 7797   9.950  12.240   7.964
  339POPC   C4B 7798   9.882  12.293   7.664
  340POPC   NC3 7799  42.296  15.928   9.464
  340POPC   PO4 7800  42.384  15.934   9.164
  340POPC   GL1 7801  42.343  15.991   8.864
  340POPC   GL2 7802  42.435  15.903   8.864
  340POPC   C1A 7803  42.286  15.931   8.564
  340POPC   D2A 7804  42.346  15.944   8.264
  340POPC   C3A 7805  42.378  15.952   7.964
  340POPC   C4A 7806  42.376  15.969   7.664
  340POPC   C1B 7807  42.608  15.892   8.564
  340POPC   C2B 7808  42.556  15.866   8.264
  340POPC   C3B 7809  42.606  15.818   7.964
  340POPC   C4B 7810  42.584  15.813   7.664
  341POPC   NC3 7811  33.072  26.040   9.464
  341POPC   PO4 7812  32.986  26.075   9.164
  341POPC   GL1 7813  33.005  26.069   8.864
  341POPC   GL2 7814  33.100  25.911   8.864
  341POPC   C1A 7815  32.990  26.054   8.564
  341POPC   D2A 7816  33.007  26.070   8.264
  341POPC   C3A 7817  32.980  26.065   7.964
  341POPC   C4A 7818  33.034  26.012   7.664
  341POPC   C1B 7819  33.219  25.870   8.564
  341POPC   C2B 7820  33.183  25.815   8.264
  341POPC   C3B 7821  33.168  25.835   7.964
  341POPC   C4B 7822  33.164  25.816   7.664
  342POPC   NC3 7823  21.380  19.057   9.464
  342POPC   PO4 7824  21.395  19.017   9.164
  342POPC   GL1 7825  21.359  19.040   8.864
  342POPC   GL2 7826  21.496  19.040   8.864
  342POPC   C1A 7827  21.389  19.039   8.564
  342POPC   D2A 7828  21.407  19.051   8.264
  342POPC   C3A 7829  21.427  19.100   7.964
  342POPC   C4A 7830  21.388  19.015   7.664
  342POPC   C1B 7831  21.601  19.095   8.564
  342POPC   C2B 7832  21.618  19.134   8.264
  342POPC   C3B 7833  21.609  19.147   7.964
  342POPC   C4B 7834  21.673  19.111   7.664
  343POPC   NC3 7835   9.742  39.986   9.464
  343POPC   PO4 7836   9.699  40.049   9.164
  343POPC   GL1 7837   9.720  40.040   8.864
  343POPC   GL2 7838   9.708  39.955   8.864
  343POPC   C1A 7839   9.767  40.014   8.564
  343POPC   D2A 7840   9.794  40.056   8.264
  343POPC   C3A 7841   9.795  40.021   7.964
  343POPC   C4A 7842   9.766  40.029   7.664
  343POPC   C1B 7843   9.599  39.774   8.564
  343POPC   C2B 7844   9.599  39.781   8.264
  343POPC   C3B 7845   9.558  39.807   7.964
  343POPC   C4B 7846   9.562  39.853   7.664
  344POPC   NC3 7847  27.554  36.857   9.464
  344POPC   PO4 7848  27.573  36.895   9.164
  344POPC   GL1 7849  27.588  36.888   8.864
  344POPC   GL2 7850  27.502  36.806   8.864
  344POPC   C1A 7851  27.631  36.860   8.564
  344POPC   D2A 7852  27.545  36.951   8.264
  344POPC   C3A 7853  27.566  36.950   7.964
  344POPC   C4A 7854  27.551  36.856   7.664
  344POPC   C1B 7855  27.465  36.670   8.564
  344POPC   C2B 7856  27.515  36.691   8.264
  344POPC   C3B 7857  27.456  36.718   7.964
  344POPC   C4B 7858  27.451  36.703   7.664
  345POPC   NC3 7859   7.426  39.963   9.464
  345POPC   PO4 7860   7.441  40.024   9.164
  345POPC   GL1 7861   7.442  39.971   8.864
  345POPC   GL2 7862   7.502  40.071   8.864
  345POPC   C1A 7863   7.386  40.034   8.564
  345POPC   D2A 7864   7.406  39.960   8.264
  345POPC   C3A 7865   7.439  39.971   7.964
  345POPC   C4A 7866   7.391  39.996   7.664
  345POPC   C1B 7867   7.656  40.078   8.564
  345POPC   C2B 7868   7.635  40.038   8.264
  345POPC   C3B 7869   7.641  40.054   7.964
  345POPC   C4B 7870   7.715  40.089   7.664
  346POPC   NC3 7871   3.507  28.412   9.464
  346POPC   PO4 7872   3.590  28.384   9.164
  346POPC   GL1 7873   3.557  28.326   8.864
  346POPC   GL2 7874   3.437  28.262   8.864
  346POPC   C1A 7875   3.537  28.323   8.564
  346POPC   D2A 7876   3.552  28.341   8.264
  346POPC   C3A 7877   3.508  28.402   7.964
  346POPC   C4A 7878   3.526  28.389   7.664
  346POPC   C1B 7879   3.405  28.135   8.564
  346POPC   C2B 7880   3.418  28.185   8.264
  346POPC   C3B 7881   3.362  28.211   7.964
  346POPC   C4B 7882   3.417  28.149   7.664
  347POPC   NC3 7883  19.857   8.222   9.464
  347POPC   PO4 7884  19.840   8.229   9.164
  347POPC   GL1 7885  19.791   8.192   8.864
  347POPC   GL2 7886  19.907   8.228   8.864
  347POPC   C1A 7887  19.817   8.241   8.564
  347POPC   D2A 7888  19.878   8.191   8.264
  347POPC   C3A 7889  19.883   8.176   7.964
  347POPC   C4A 7890  19.802   8.234   7.664
  347POPC   C1B 7891  20.013   8.378   8.564
  347POPC   C2B 7892  20.063   8.370   8.264
  347POPC   C3B 7893  20.046   8.396   7.964
  347POPC   C4B 7894  20.050   8.347   7.664
  348POPC   NC3 7895   6.689  41.515   9.464
  348POPC   PO4 7896   6.628  41.514   9.164
  348POPC   GL1 7897   6.627  41.596   8.864
  348POPC   GL2 7898   6.552  41.476   8.864
  348POPC   C1A 7899   6.656  41.568   8.564
  348POPC   D2A 7900   6.598  41.559   8.264
  348POPC   C3A 7901   6.632  41.596   7.964
  348POPC   C4A 7902   6.634  41.538   7.664
  348POPC   C1B 7903   6.439  41.471   8.564
  348POPC   C2B 7904   6.376  41.433   8.264
  348POPC   C3B 7905   6.381  41.492   7.964
  348POPC   C4B 7906   6.370  41.516   7.664
  349POPC   NC3 7907  35.363  15.141   9.464
  349POPC   PO4 7908  35.317  15.220   9.164
  349POPC   GL1 7909  35.327  15.182   8.864
  349POPC   GL2 7910  35.274  15.129   8.864
  349POPC   C1A 7911  35.363  15.177   8.564
  349POPC   D2A 7912  35.312  15.228   8.264
  349POPC   C3A 7913  35.307  15.171   7.964
  349POPC   C4A 7914  35.328  15.158   7.664
  349POPC   C1B 7915  35.068  15.126   8.564
  349POPC   C2B 7916  35.081  15.090   8.264
  349POPC   C3B 7917  35.114  15.100   7.964
  349POPC   C4B 7918  35.088  15.175   7.664
  350POPC   NC3 7919  16.001   5.061   9.464
  350POPC   PO4 7920  15.943   5.119   9.164
  350POPC   GL1 7921  15.965   5.125   8.864
  350POPC   GL2 7922  15.979   4.953   8.864
  350POPC   C1A 7923  15.971   5.125   8.564
  350POPC   D2A 7924  15.925   5.083   8.264
  350POPC   C3A 7925  15.995   5.060   7.964
  350POPC   C4A 7926  15.911   5.048   7.664
  350POPC   C1B 7927  16.032   4.873   8.564
  350POPC   C2B 7928  16.052   4.920   8.264
  350POPC   C3B 7929  16.086   4.888   7.964
  350POPC   C4B 7930  16.115   4.883   7.664
  351POPC   NC3 7931  39.230  24.465   9.464
  351POPC   PO4 7932  39.201  24.473   9.164
  351POPC   GL1 7933  39.234  24.458   8.864
  351POPC   GL2 7934  39.293  24.392   8.864
  351POPC   C1A 7935  39.245  24.452   8.564
  351POPC   D2A 7936  39.211  24.518   8.264
  351POPC   C3A 7937  39.201  24.504   7.964
  351POPC   C4A 7938  39.228  24.525   7.664
  351POPC   C1B 7939  39.323  24.235   8.564
  351POPC   C2B 7940  39.340  24.259   8.264
  351POPC   C3B 7941  39.370  24.287   7.964
  351POPC   C4B 7942  39.367  24.243   7.664
  352POPC   NC3 7943  23.700   8.938   9.464
  352POPC   PO4 7944  23.730   8.924   9.164
  352POPC   GL1 7945  23.724   8.971   8.864
  352POPC   GL2 7946  23.758   8.862   8.864
  352POPC   C1A 7947  23.752   8.990   8.564
  352POPC   D2A 7948  23.724   8.986   8.264
  352POPC   C3A 7949  23.664   8.966   7.964
  352POPC   C4A 7950  23.726   8.990   7.664
  352POPC   C1B 7951  23.709   8.680   8.564
  352POPC   C2B 7952  23.756   8.765   8.264
  352POPC   C3B 7953  23.667   8.703   7.964
  352POPC   C4B 7954  23.715   8.762   7.664
  353POPC   NC3 7955   1.998   1.942   9.464
  353POPC   PO4 7956   2.030   2.037   9.164
  353POPC   GL1 7957   1.948   2.033   8.864
  353POPC   GL2 7958   1.843   2.032   8.864
  353POPC   C1A 7959   2.034   1.965   8.564
  353POPC   D2A 7960   2.025   1.941   8.264
  353POPC   C3A 7961   1.977   2.008   7.964
  353POPC   C4A 7962   1.973   1.944   7.664
  353POPC   C1B 7963   1.764   2.017   8.564
  353POPC   C2B 7964   1.743   1.943   8.264
  353POPC   C3B 7965   1.750   1.990   7.964
  353POPC   C4B 7966   1.757   2.008   7.664
  354POPC   NC3 7967   5.875  18.261   9.464
  354POPC   PO4 7968   5.861  18.277   9.164
  354POPC   GL1 7969   5.825  18.301   8.864
  354POPC   GL2 7970   5.721  18.354   8.864
  354POPC   C1A 7971   5.879  18.262   8.564
  354POPC   D2A 7972   5.827  18.332   8.264
  354POPC   C3A 7973   5.869  18.262   7.964
  354POPC   C4A 7974   5.824  18.233   7.664
  354POPC   C1B 7975   5.678  18.358   8.564
  354POPC   C2B 7976   5.602  18.386   8.264
  354POPC   C3B 7977   5.632  18.424   7.964
  354POPC   C4B 7978   5.635  18.373   7.664
  355POPC   NC3 7979  36.106  29.908   9.464
  355POPC   PO4 7980  36.090  29.881   9.164
  355POPC   GL1 7981  36.144  29.888   8.864
  355POPC   GL2 7982  36.033  29.799   8.864
  355POPC   C1A 7983  36.123  29.967   8.564
  355POPC   D2A 7984  36.144  29.938   8.264
  355POPC   C3A 7985  36.122  29.966   7.964
  355POPC   C4A 7986  36.090  29.934   7.664
  355POPC   C1B 7987  36.029  29.722   8.564
  355POPC   C2B 7988  36.021  29.649   8.264
  355POPC   C3B 7989  35.975  29.703   7.964
  355POPC   C4B 7990  36.003  29.684   7.664
  356POPC   NC3 7991  16.730  22.210   9.464
  356POPC   PO4 7992  16.771  22.208   9.164
  356POPC   GL1 7993  16.742  22.152   8.864
  356POPC   GL2 7994  16.670  22.335   8.864
  356POPC   C1A 7995  16.694  22.163   8.564
  356POPC   D2A 7996  16.731  22.149   8.264
  356POPC   C3A 7997  16.696  22.209   7.964
  356POPC   C4A 7998  16.781  22.130   7.664
  356POPC   C1B 7999  16.636  22.428   8.564
  356POPC   C2B 8000  16.666  22.365   8.264
  356POPC   C3B 8001  16.672  22.432   7.964
  356POPC   C4B 8002  16.678  22.438   7.664
  357POPC   NC3 8003  35.336  43.103   9.464
  357POPC   PO4 8004  35.387  43.102   9.164
  357POPC   GL1 8005  35.399  43.083   8.864
  357POPC   GL2 8006  35.215  43.156   8.864
  357POPC   C1A 8007  35.339  43.124   8.564
  357POPC   D2A 8008  35.323  43.066   8.264
  357POPC   C3A 8009  35.350  43.125   7.964
  357POPC   C4A 8010  35.337  43.069   7.664
  357POPC   C1B 8011  35.088  43.089   8.564
  357POPC   C2B 8012  35.124  43.111   8.264
  357POPC   C3B 8013  35.092  43.069   7.964
  357POPC   C4B 8014  35.070  43.136   7.664
  358POPC   NC3 8015   9.746  10.503   9.464
  358POPC   PO4 8016   9.709  10.488   9.164
  358POPC   GL1 8017   9.791  10.556   8.864
  358POPC   GL2 8018   9.832  10.416   8.864
  358POPC   C1A 8019   9.723  10.528   8.564
  358POPC   D2A 8020   9.748  10.560   8.264
  358POPC   C3A 8021   9.733  10.565   7.964
  358POPC   C4A 8022   9.786  10.492   7.664
  358POPC   C1B 8023   9.890  10.326   8.564
  358POPC   C2B 8024   9.928  10.369   8.264
  358POPC   C3B 8025   9.858  10.304   7.964
  358POPC   C4B 8026   9.907  10.372   7.664
  359POPC   NC3 8027  10.538  29.106   9.464
  359POPC   PO4 8028  10.526  29.107   9.164
  359POPC   GL1 8029  10.560  29.149   8.864
  359POPC   GL2 8030  10.458  29.093   8.864
  359POPC   C1A 8031  10.523  29.129   8.564
  359POPC   D2A 8032  10.529  29.155   8.264
  359POPC   C3A 8033  10.565  29.141   7.964
  359POPC   C4A 8034  10.501  29.104   7.664
  359POPC   C1B 8035  10.357  29.027   8.564
  359POPC   C2B 8036  10.289  28.971   8.264
  359POPC   C3B 8037  10.329  29.007   7.964
  359POPC   C4B 8038  10.388  28.981   7.664
  360POPC   NC3 8039  25.234   1.242   9.464
  360POPC   PO4 8040  25.304   1.171   9.164
  360POPC   GL1 8041  25.244   1.202   8.864
  360POPC   GL2 8042  25.211   1.108   8.864
  360POPC   C1A 8043  25.263   1.198   8.564
  360POPC   D2A 8044  25.256   1.241   8.264
  360POPC   C3A 8045  25.302   1.224   7.964
  360POPC   C4A 8046  25.243   1.243   7.664
  360POPC   C1B 8047  25.148   0.950   8.564
  360POPC   C2B 8048  25.199   1.004   8.264
  360POPC   C3B 8049  25.160   0.942   7.964
  360POPC   C4B 8050  25.226   0.939   7.664
  361POPC   NC3 8051  33.834  39.969   9.464
  361POPC   PO4 8052  33.832  39.983   9.164
  361POPC   GL1 8053  33.840  39.993   8.864
  361POPC   GL2 8054  33.838  40.159   8.864
  361POPC   C1A 8055  33.816  39.990   8.564
  361POPC   D2A 8056  33.829  39.973   8.264
  361POPC   C3A 8057  33.782  39.981   7.964
  361POPC   C4A 8058  33.796  40.025   7.664
  361POPC   C1B 8059  33.841  40.258   8.564
  361POPC   C2B 8060  33.805  40.229   8.264
  361POPC   C3B 8061  33.851  40.246   7.964
  361POPC   C4B 8062  33.882  40.252   7.664
  362POPC   NC3 8063  40.811  39.204   9.464
  362POPC   PO4 8064  40.764  39.244   9.164
  362POPC   GL1 8065  40.737  39.227   8.864
  362POPC   GL2 8066  40.816  39.070   8.864
  362POPC   C1A 8067  40.742  39.189   8.564
  362POPC   D2A 8068  40.775  39.182   8.264
  362POPC   C3A 8069  40.780  39.207   7.964
  362POPC   C4A 8070  40.794  39.192   7.664
  362POPC   C1B 8071  40.854  39.037   8.564
  362POPC   C2B 8072  40.840  39.029   8.264
  362POPC   C3B 8073  40.835  38.961   7.964
  362POPC   C4B 8074  40.856  38.962   7.664
  363POPC   NC3 8075  20.601  35.365   9.464
  363POPC   PO4 8076  20.613  35.347   9.164
  363POPC   GL1 8077  20.596  35.386   8.864
  363POPC   GL2 8078  20.615  35.472   8.864
  363POPC   C1A 8079  20.630  35.340   8.564
  363POPC   D2A 8080  20.603  35.373   8.264
  363POPC   C3A 8081  20.658  35.397   7.964
  363POPC   C4A 8082  20.622  35.375   7.664
  363POPC   C1B 8083  20.564  35.602   8.564
  363POPC   C2B 8084  20.501  35.541   8.264
  363POPC   C3B 8085  20.530  35.559   7.964
  363POPC   C4B 8086  20.505  35.627   7.664
  364POPC   NC3 8087  43.148  29.957   9.464
  364POPC   PO4 8088  43.138  29.942   9.164
  364POPC   GL1 8089  43.124  29.941   8.864
  364POPC   GL2 8090  43.094  30.012   8.864
  364POPC   C1A 8091  43.083  29.967   8.564
  364POPC   D2A 8092  43.064  29.889   8.264
  364POPC   C3A 8093  43.105  29.899   7.964
  364POPC   C4A 8094  43.104  29.945   7.664
  364POPC   C1B 8095  43.126  30.127   8.564
  364POPC   C2B 8096  43.113  30.149   8.264
  364POPC   C3B 8097  43.079  30.196   7.964
  364POPC   C4B 8098  43.051  30.140   7.664
  365POPC   NC3 8099  19.837  39.269   9.464
  365POPC   PO4 8100  19.788  39.240   9.164
  365POPC   GL1 8101  19.833  39.237   8.864
  365POPC   GL2 8102  19.722  39.312   8.864
  365POPC   C1A 8103  19.802  39.260   8.564
  365POPC   D2A 8104  19.792  39.194   8.264
  365POPC   C3A 8105  19.814  39.263   7.964
  365POPC   C4A 8106  19.790  39.276   7.664
  365POPC   C1B 8107  19.607  39.355   8.564
  365POPC   C2B 8108  19.592  39.361   8.264
  365POPC   C3B 8109  19.639  39.337   7.964
  365POPC   C4B 8110  19.685  39.418   7.664
  366POPC   NC3 8111  31.425   1.238   9.464
  366POPC   PO4 8112  31.487   1.203   9.164
  366POPC   GL1 8113  31.516   1.260   8.864
  366POPC   GL2 8114  31.500   1.347   8.864
  366POPC   C1A 8115  31.442   1.260   8.564
  366POPC   D2A 8116  31.439   1.213   8.264
  366POPC   C3A 8117  31.489   1.184   7.964
  366POPC   C4A 8118  31.503   1.168   7.664
  366POPC   C1B 8119  31.507   1.449   8.564
  366POPC   C2B 8120  31.446   1.485   8.264
  366POPC   C3B 8121  31.503   1.490   7.964
  366POPC   C4B 8122  31.490   1.433   7.664
  367POPC   NC3 8123  41.597  11.334   9.464
  367POPC   PO4 8124  41.515  11.291   9.164
  367POPC   GL1 8125  41.537  11.281   8.864
  367POPC   GL2 8126  41.416  11.279   8.864
  367POPC   C1A 8127  41.520  11.299   8.564
  367POPC   D2A 8128  41.529  11.289   8.264
  367POPC   C3A 8129  41.597  11.340   7.964
  367POPC   C4A 8130  41.604  11.342   7.664
  367POPC   C1B 8131  41.281  11.362   8.564
  367POPC   C2B 8132  41.266  11.332   8.264
  367POPC   C3B 8133  41.289  11.337   7.964
  367POPC   C4B 8134  41.309  11.363   7.664
  368POPC   NC3 8135  41.545   9.004   9.464
  368POPC   PO4 8136  41.545   8.976   9.164
  368POPC   GL1 8137  41.590   8.982   8.864
  368POPC   GL2 8138  41.394   8.929   8.864
  368POPC   C1A 8139  41.520   8.954   8.564
  368POPC   D2A 8140  41.525   8.967   8.264
  368POPC   C3A 8141  41.575   8.974   7.964
  368POPC   C4A 8142  41.583   8.955   7.664
  368POPC   C1B 8143  41.284   8.931   8.564
  368POPC   C2B 8144  41.269   8.948   8.264
  368POPC   C3B 8145  41.281   8.930   7.964
  368POPC   C4B 8146  41.271   8.943   7.664
  369POPC   NC3 8147  32.978   2.773   9.464
  369POPC   PO4 8148  32.987   2.744   9.164
  369POPC   GL1 8149  32.975   2.800   8.864
  369POPC   GL2 8150  33.117   2.846   8.864
  369POPC   C1A 8151  33.025   2.739   8.564
  369POPC   D2A 8152  33.010   2.813   8.264
  369POPC   C3A 8153  33.050   2.738   7.964
  369POPC   C4A 8154  33.063   2.723   7.664
  369POPC   C1B 8155  33.267   2.944   8.564
  369POPC   C2B 8156  33.261   2.899   8.264
  369POPC   C3B 8157  33.224   2.858   7.964
  369POPC   C4B 8158  33.243   2.886   7.664
  370POPC   NC3 8159  43.139  24.520   9.464
  370POPC   PO4 8160  43.107  24.510   9.164
  370POPC   GL1 8161  43.092  24.532   8.864
  370POPC   GL2 8162  43.149  24.626   8.864
  370POPC   C1A 8163  43.144  24.442   8.564
  370POPC   D2A 8164  43.092  24.469   8.264
  370POPC   C3A 8165  43.141  24.510   7.964
  370POPC   C4A 8166  43.132  24.475   7.664
  370POPC   C1B 8167  43.220  24.752   8.564
  370POPC   C2B 8168  43.153  24.719   8.264
  370POPC   C3B 8169  43.220  24.696   7.964
  370POPC   C4B 8170  43.184  24.739   7.664
  371POPC   NC3 8171  39.983  29.872   9.464
  371POPC   PO4 8172  40.009  29.966   9.164
  371POPC   GL1 8173  40.005  29.960   8.864
  371POPC   GL2 8174  39.939  30.022   8.864
  371POPC   C1A 8175  40.019  29.959   8.564
  371POPC   D2A 8176  40.028  29.924   8.264
  371POPC   C3A 8177  40.019  29.909   7.964
  371POPC   C4A 8178  40.004  29.888   7.664
  371POPC   C1B 8179  39.827  30.040   8.564
  371POPC   C2B 8180  39.827  30.066   8.264
  371POPC   C3B 8181  39.811  30.092   7.964
  371POPC   C4B 8182  39.783  30.028   7.664
  372POPC   NC3 8183  26.851  15.995   9.464
  372POPC   PO4 8184  26.776  15.916   9.164
  372POPC   GL1 8185  26.782  15.963   8.864
  372POPC   GL2 8186  26.923  15.800   8.864
  372POPC   C1A 8187  26.824  15.963   8.564
  372POPC   D2A 8188  26.779  15.964   8.264
  372POPC   C3A 8189  26.787  15.928   7.964
  372POPC   C4A 8190  26.840  15.952   7.664
  372POPC   C1B 8191  26.973  15.772   8.564
  372POPC   C2B 8192  26.975  15.736   8.264
  372POPC   C3B 8193  26.974  15.713   7.964
  372POPC   C4B 8194  26.911  15.694   7.664
  373POPC   NC3 8195  14.443   8.966   9.464
  373POPC   PO4 8196  14.359   9.015   9.164
  373POPC   GL1 8197  14.407   8.958   8.864
  373POPC   GL2 8198  14.450   9.117   8.864
  373POPC   C1A 8199  14.445   8.942   8.564
  373POPC   D2A 8200  14.453   9.002   8.264
  373POPC   C3A 8201  14.401   9.001   7.964
  373POPC   C4A 8202  14.359   8.960   7.664
  373POPC   C1B 8203  14.454   9.221   8.564
  373POPC   C2B 8204  14.477   9.169   8.264
  373POPC   C3B 8205  14.464   9.254   7.964
  373POPC   C4B 8206  14.411   9.248   7.664
  374POPC   NC3 8207  38.482  16.697   9.464
  374POPC   PO4 8208  38.482  16.691   9.164
  374POPC   GL1 8209  38.425  16.690   8.864
  374POPC   GL2 8210  38.513  16.790   8.864
  374POPC   C1A 8211  38.415  16.724   8.564
  374POPC   D2A 8212  38.407  16.725   8.264
  374POPC   C3A 8213  38.415  16.703   7.964
  374POPC   C4A 8214  38.427  16.718   7.664
  374POPC   C1B 8215  38.599  16.928   8.564
  374POPC   C2B 8216  38.599  16.971   8.264
  374POPC   C3B 8217  38.607  16.893   7.964
  374POPC   C4B 8218  38.642  16.905   7.664
  375POPC   NC3 8219  13.648  16.714   9.464
  375POPC   PO4 8220  13.618  16.746   9.164
  375POPC   GL1 8221  13.662  16.701   8.864
  375POPC   GL2 8222  13.747  16.652   8.864
  375POPC   C1A 8223  13.675  16.746   8.564
  375POPC   D2A 8224  13.641  16.708   8.264
  375POPC   C3A 8225  13.614  16.765   7.964
  375POPC   C4A 8226  13.601  16.780   7.664
  375POPC   C1B 8227  13.779  16.479   8.564
  375POPC   C2B 8228  13.739  16.549   8.264
  375POPC   C3B 8229  13.730  16.499   7.964
  375POPC   C4B 8230  13.783  16.503   7.664
  376POPC   NC3 8231  40.751  32.204   9.464
  376POPC   PO4 8232  40.799  32.242   9.164
  376POPC   GL1 8233  40.800  32.263   8.864
  376POPC   GL2 8234  40.614  32.226   8.864
  376POPC   C1A 8235  40.813  32.225   8.564
  376POPC   D2A 8236  40.790  32.261   8.264
  376POPC   C3A 8237  40.789  32.294   7.964
  376POPC   C4A 8238  40.800  32.290   7.664
  376POPC   C1B 8239  40.530  32.297   8.564
  376POPC   C2B 8240  40.520  32.241   8.264
  376POPC   C3B 8241  40.561  32.233   7.964
  376POPC   C4B 8242  40.529  32.279   7.664
  377POPC   NC3 8243  41.575   6.662   9.464
  377POPC   PO4 8244  41.567   6.678   9.164
  377POPC   GL1 8245  41.558   6.634   8.864
  377POPC   GL2 8246  41.393   6.571   8.864
  377POPC   C1A 8247  41.518   6.689   8.564
  377POPC   D2A 8248  41.605   6.668   8.264
  377POPC   C3A 8249  41.548   6.648   7.964
  377POPC   C4A 8250  41.581   6.633   7.664
  377POPC   C1B 8251  41.340   6.517   8.564
  377POPC   C2B 8252  41.275   6.597   8.264
  377POPC   C3B 8253  41.311   6.533   7.964
  377POPC   C4B 8254  41.371   6.583   7.664
  378POPC   NC3 8255  43.917   4.285   9.464
  378POPC   PO4 8256  43.909   4.309   9.164
  378POPC   GL1 8257  43.928   4.287   8.864
  378POPC   GL2 8258  44.002   4.243   8.864
  378POPC   C1A 8259  43.920   4.337   8.564
  378POPC   D2A 8260  43.871   4.366   8.264
  378POPC   C3A 8261  43.913   4.319   7.964
  378POPC   C4A 8262  43.840   4.363   7.664
  378POPC   C1B 8263  44.072   4.113   8.564
  378POPC   C2B 8264  44.059   4.159   8.264
  378POPC   C3B 8265  44.098   4.133   7.964
  378POPC   C4B 8266  44.056   4.159   7.664
  379POPC   NC3 8267  44.696  22.129   9.464
  379POPC   PO4 8268  44.658  22.126   9.164
  379POPC   GL1 8269  44.661  22.170   8.864
  379POPC   GL2 8270  44.731  22.026   8.864
  379POPC   C1A 8271  44.709  22.125   8.564
  379POPC   D2A 8272  44.687  22.120   8.264
  379POPC   C3A 8273  44.629  22.144   7.964
  379POPC   C4A 8274  44.637  22.153   7.664
  379POPC   C1B 8275  44.739  21.889   8.564
  379POPC   C2B 8276  44.673  21.918   8.264
  379POPC   C3B 8277  44.707  21.894   7.964
  379POPC   C4B 8278  44.677  21.959   7.664
  380POPC   NC3 8279  14.427   5.860   9.464
  380POPC   PO4 8280  14.403   5.886   9.164
  380POPC   GL1 8281  14.413   5.840   8.864
  380POPC   GL2 8282  14.269   5.767   8.864
  380POPC   C1A 8283  14.449   5.843   8.564
  380POPC   D2A 8284  14.360   5.876   8.264
  380POPC   C3A 8285  14.377   5.901   7.964
  380POPC   C4A 8286  14.388   5.853   7.664
  380POPC   C1B 8287  14.204   5.642   8.564
  380POPC   C2B 8288  14.194   5.653   8.264
  380POPC   C3B 8289  14.266   5.697   7.964
  380POPC   C4B 8290  14.221   5.668   7.664
  381POPC   NC3 8291   3.571   3.493   9.464
  381POPC   PO4 8292   3.555   3.503   9.164
  381POPC   GL1 8293   3.576   3.547   8.864
  381POPC   GL2 8294   3.496   3.663   8.864
  381POPC   C1A 8295   3.509   3.548   8.564
  381POPC   D2A 8296   3.502   3.572   8.264
  381POPC   C3A 8297   3.537   3.586   7.964
  381POPC   C4A 8298   3.545   3.582   7.664
  381POPC   C1B 8299   3.560   3.818   8.564
  381POPC   C2B 8300   3.554   3.794   8.264
  381POPC   C3B 8301   3.541   3.772   7.964
  381POPC   C4B 8302   3.487   3.771   7.664
  382POPC   NC3 8303  14.448  28.378   9.464
  382POPC   PO4 8304  14.378  28.354   9.164
  382POPC   GL1 8305  14.396  28.415   8.864
  382POPC   GL2 8306  14.505  28.409   8.864
  382POPC   C1A 8307  14.362  28.393   8.564
  382POPC   D2A 8308  14.445  28.333   8.264
  382POPC   C3A 8309  14.409  28.377   7.964
  382POPC   C4A 8310  14.363  28.327   7.664
  382POPC   C1B 8311  14.619  28.372   8.564
  382POPC   C2B 8312  14.627  28.367   8.264
  382POPC   C3B 8313  14.683  28.344   7.964
  382POPC   C4B 8314  14.669  28.407   7.664
  383POPC   NC3 8315   3.539   2.018   9.464
  383POPC   PO4 8316   3.503   2.025   9.164
  383POPC   GL1 8317   3.541   1.991   8.864
  383POPC   GL2 8318   3.662   2.011   8.864
  383POPC   C1A 8319   3.523   2.001   8.564
  383POPC   D2A 8320   3.550   1.998   8.264
  383POPC   C3A 8321   3.589   1.966   7.964
  383POPC   C4A 8322   3.523   2.032   7.664
  383POPC   C1B 8323   3.765   2.104   8.564
  383POPC   C2B 8324   3.788   2.066   8.264
  383POPC   C3B 8325   3.776   2.041   7.964
  383POPC   C4B 8326   3.823   2.068   7.664
  384POPC   NC3 8327  37.728  36.096   9.464
  384POPC   PO4 8328  37.688  36.113   9.164
  384POPC   GL1 8329  37.664  36.167   8.864
  384POPC   GL2 8330  37.743  36.193   8.864
  384POPC   C1A 8331  37.698  36.090   8.564
  384POPC   D2A 8332  37.695  36.109   8.264
  384POPC   C3A 8333  37.674  36.102   7.964
  384POPC   C4A 8334  37.660  36.115   7.664
  384POPC   C1B 8335  37.729  36.324   8.564
  384POPC   C2B 8336  37.764  36.355   8.264
  384POPC   C3B 8337  37.737  36.391   7.964
  384POPC   C4B 8338  37.809  36.397   7.664
  385POPC   NC3 8339   1.238  10.486   9.464
  385POPC   PO4 8340   1.231  10.532   9.164
  385POPC   GL1 8341   1.226  10.502   8.864
  385POPC   GL2 8342   1.151  10.454   8.864
  385POPC   C1A 8343   1.221  10.480   8.564
  385POPC   D2A 8344   1.185  10.491   8.264
  385POPC   C3A 8345   1.223  10.533   7.964
  385POPC   C4A 8346   1.207  10.478   7.664
  385POPC   C1B 8347   1.078  10.360   8.564
  385POPC   C2B 8348   1.078  10.314   8.264
  385POPC   C3B 8349   1.096  10.298   7.964
  385POPC   C4B 8350   1.090  10.319   7.664
  386POPC   NC3 8351  38.425   1.974   9.464
  386POPC   PO4 8352  38.465   1.970   9.164
  386POPC   GL1 8353  38.470   2.008   8.864
  386POPC   GL2 8354  38.387   2.055   8.864
  386POPC   C1A 8355  38.479   2.024   8.564
  386POPC   D2A 8356  38.483   1.975   8.264
  386POPC   C3A 8357  38.444   1.993   7.964
  386POPC   C4A 8358  38.454   2.027   7.664
  386POPC   C1B 8359  38.356   2.173   8.564
  386POPC   C2B 8360  38.289   2.165   8.264
  386POPC   C3B 8361  38.283   2.234   7.964
  386POPC   C4B 8362  38.281   2.157   7.664
  387POPC   NC3 8363   9.017  25.253   9.464
  387POPC   PO4 8364   8.952  25.313   9.164
  387POPC   GL1 8365   9.016  25.240   8.864
  387POPC   GL2 8366   9.034  25.202   8.864
  387POPC   C1A 8367   8.979  25.268   8.564
  387POPC   D2A 8368   8.951  25.266   8.264
  387POPC   C3A 8369   8.970  25.259   7.964
  387POPC   C4A 8370   8.986  25.296   7.664
  387POPC   C1B 8371   9.114  25.048   8.564
  387POPC   C2B 8372   9.125  25.005   8.264
  387POPC   C3B 8373   9.075  25.043   7.964
  387POPC   C4B 8374   9.047  25.030   7.664
  388POPC   NC3 8375  26.810  36.125   9.464
  388POPC   PO4 8376  26.833  36.165   9.164
  388POPC   GL1 8377  26.843  36.131   8.864
  388POPC   GL2 8378  26.681  36.156   8.864
  388POPC   C1A 8379  26.834  36.113   8.564
  388POPC   D2A 8380  26.769  36.152   8.264
  388POPC   C3A 8381  26.846  36.082   7.964
  388POPC   C4A 8382  26.851  36.140   7.664
  388POPC   C1B 8383  26.627  36.247   8.564
  388POPC   C2B 8384  26.616  36.237   8.264
  388POPC   C3B 8385  26.575  36.281   7.964
  388POPC   C4B 8386  26.651  36.258   7.664
  389POPC   NC3 8387   3.543  15.219   9.464
  389POPC   PO4 8388   3.578  15.217   9.164
  389POPC   GL1 8389   3.527  15.135   8.864
  389POPC   GL2 8390   3.439  15.168   8.864
  389POPC   C1A 8391   3.580  15.213   8.564
  389POPC   D2A 8392   3.518  15.210   8.264
  389POPC   C3A 8393   3.533  15.172   7.964
  389POPC   C4A 8394   3.502  15.182   7.664
  389POPC   C1B 8395   3.322  15.225   8.564
  389POPC   C2B 8396   3.291  15.165   8.264
  389POPC   C3B 8397   3.323  15.198   7.964
  389POPC   C4B 8398   3.257  15.141   7.664
  390POPC   NC3 8399   9.711  43.903   9.464
  390POPC   PO4 8400   9.705  43.875   9.164
  390POPC   GL1 8401   9.699  43.878   8.864
  390POPC   GL2 8402   9.686  44.056   8.864
  390POPC   C1A 8403   9.777  43.881   8.564
  390POPC   D2A 8404   9.765  43.880   8.264
  390POPC   C3A 8405   9.766  43.904   7.964
  390POPC   C4A 8406   9.708  43.906   7.664
  390POPC   C1B 8407   9.647  44.104   8.564
  390POPC   C2B 8408   9.700  44.138   8.264
  390POPC   C3B 8409   9.671  44.150   7.964
  390POPC   C4B 8410   9.661  44.136   7.664
  391POPC   NC3 8411  18.307  36.854   9.464
  391POPC   PO4 8412  18.245  36.912   9.164
  391POPC   GL1 8413  18.314  36.905   8.864
  391POPC   GL2 8414  18.402  36.989   8.864
  391POPC   C1A 8415  18.240  36.892   8.564
  391POPC   D2A 8416  18.289  36.891   8.264
  391POPC   C3A 8417  18.252  36.862   7.964
  391POPC   C4A 8418  18.305  36.950   7.664
  391POPC   C1B 8419  18.467  37.004   8.564
  391POPC   C2B 8420  18.457  37.029   8.264
  391POPC   C3B 8421  18.456  37.029   7.964
  391POPC   C4B 8422  18.464  37.052   7.664
  392POPC   NC3 8423  44.690   8.939   9.464
  392POPC   PO4 8424  44.657   9.019   9.164
  392POPC   GL1 8425  44.707   8.949   8.864
  392POPC   GL2 8426  44.529   8.985   8.864
  392POPC   C1A 8427  44.628   8.948   8.564
  392POPC   D2A 8428  44.656   9.012   8.264
  392POPC   C3A 8429  44.646   8.954   7.964
  392POPC   C4A 8430  44.651   9.017   7.664
  392POPC   C1B 8431  44.425   8.942   8.564
  392POPC   C2B 8432  44.435   8.906   8.264
  392POPC   C3B 8433  44.411   8.899   7.964
  392POPC   C4B 8434  44.405   8.939   7.664
  393POPC   NC3 8435   6.681  38.505   9.464
  393POPC   PO4 8436   6.613  38.468   9.164
  393POPC   GL1 8437   6.693  38.461   8.864
  393POPC   GL2 8438   6.598  38.399   8.864
  393POPC   C1A 8439   6.600  38.414   8.564
  393POPC   D2A 8440   6.662  38.409   8.264
  393POPC   C3A 8441   6.610  38.485   7.964
  393POPC   C4A 8442   6.694  38.503   7.664
  393POPC   C1B 8443   6.513  38.314   8.564
  393POPC   C2B 8444   6.493  38.318   8.264
  393POPC   C3B 8445   6.471  38.242   7.964
  393POPC   C4B 8446   6.459  38.305   7.664
  394POPC   NC3 8447  21.405   7.371   9.464
  394POPC   PO4 8448  21.366   7.450   9.164
  394POPC   GL1 8449  21.390   7.463   8.864
  394POPC   GL2 8450  21.379   7.522   8.864
  394POPC   C1A 8451  21.411   7.398   8.564
  394POPC   D2A 8452  21.389   7.421   8.264
  394POPC   C3A 8453  21.414   7.385   7.964
  394POPC   C4A 8454  21.372   7.466   7.664
  394POPC   C1B 8455  21.399   7.632   8.564
  394POPC   C2B 8456  21.397   7.690   8.264
  394POPC   C3B 8457  21.396   7.666   7.964
  394POPC   C4B 8458  21.370   7.666   7.664
  395POPC   NC3 8459  33.818  34.554   9.464
  395POPC   PO4 8460  33.807  34.589   9.164
  395POPC   GL1 8461  33.780  34.606   8.864
  395POPC   GL2 8462  33.889  34.590   8.864
  395POPC   C1A 8463  33.815  34.563   8.564
  395POPC   D2A 8464  33.809  34.531   8.264
  395POPC   C3A 8465  33.810  34.617   7.964
  395POPC   C4A 8466  33.789  34.562   7.664
  395POPC   C1B 8467  33.993  34.693   8.564
  395POPC   C2B 8468  34.060  34.732   8.264
  395POPC   C3B 8469  33.971  34.669   7.964
  395POPC   C4B 8470  34.003  34.731   7.664
  396POPC   NC3 8471  20.653  23.747   9.464
  396POPC   PO4 8472  20.599  23.680   9.164
  396POPC   GL1 8473  20.614  23.708   8.864
  396POPC   GL2 8474  20.622  23.608   8.864
  396POPC   C1A 8475  20.631  23.667   8.564
  396POPC   D2A 8476  20.638  23.743   8.264
  396POPC   C3A 8477  20.623  23.694   7.964
  396POPC   C4A 8478  20.583  23.696   7.664
  396POPC   C1B 8479  20.617  23.511   8.564
  396POPC   C2B 8480  20.613  23.480   8.264
  396POPC   C3B 8481  20.602  23.492   7.964
  396POPC   C4B 8482  20.626  23.450   7.664
  397POPC   NC3 8483  43.921  18.255   9.464
  397POPC   PO4 8484  43.917  18.236   9.164
  397POPC   GL1 8485  43.898  18.304   8.864
  397POPC   GL2 8486  43.812  18.355   8.864
  397POPC   C1A 8487  43.865  18.277   8.564
  397POPC   D2A 8488  43.895  18.328   8.264
  397POPC   C3A 8489  43.838  18.237   7.964
  397POPC   C4A 8490  43.841  18.296   7.664
  397POPC   C1B 8491  43.853  18.568   8.564
  397POPC   C2B 8492  43.804  18.480   8.264
  397POPC   C3B 8493  43.837  18.487   7.964
  397POPC   C4B 8494  43.791  18.496   7.664
  398POPC   NC3 8495  21.375  20.578   9.464
  398POPC   PO4 8496  21.345  20.597   9.164
  398POPC   GL1 8497  21.353  20.651   8.864
  398POPC   GL2 8498  21.296  20.567   8.864
  398POPC   C1A 8499  21.372  20.567   8.564
  398POPC   D2A 8500  21.408  20.594   8.264
  398POPC   C3A 8501  21.385  20.635   7.964
  398POPC   C4A 8502  21.396  20.594   7.664
  398POPC   C1B 8503  21.147  20.565   8.564
  398POPC   C2B 8504  21.130  20.540   8.264
  398POPC   C3B 8505  21.124  20.567   7.964
  398POPC   C4B 8506  21.124  20.535   7.664
  399POPC   NC3 8507  31.521  21.403   9.464
  399POPC   PO4 8508  31.428  21.403   9.164
  399POPC   GL1 8509  31.480  21.436   8.864
  399POPC   GL2 8510  31.376  21.328   8.864
  399POPC   C1A 8511  31.474  21.398   8.564
  399POPC   D2A 8512  31.518  21.353   8.264
  399POPC   C3A 8513  31.495  21.353   7.964
  399POPC   C4A 8514  31.463  21.381   7.664
  399POPC   C1B 8515  31.211  21.414   8.564
  399POPC   C2B 8516  31.244  21.364   8.264
  399POPC   C3B 8517  31.244  21.366   7.964
  399POPC   C4B 8518  31.253  21.412   7.664
  400POPC   NC3 8519  13.646  17.460   9.464
  400POPC   PO4 8520  13.579  17.552   9.164
  400POPC   GL1 8521  13.621  17.536   8.864
  400POPC   GL2 8522  13.551  17.494   8.864
  400POPC   C1A 8523  13.654  17.551   8.564
  400POPC   D2A 8524  13.660  17.543   8.264
  400POPC   C3A 8525  13.671  17.510   7.964
  400POPC   C4A 8526  13.641  17.551   7.664
  400POPC   C1B 8527  13.335  17.542   8.564
  400POPC   C2B 8528  13.423  17.528   8.264
  400POPC   C3B 8529  13.423  17.500   7.964
  400POPC   C4B 8530  13.399  17.453   7.664
  401POPC   NC3 8531  32.212  26.849   9.464
  401POPC   PO4 8532  32.297  26.776   9.164
  401POPC   GL1 8533  32.216  26.840   8.864
  401POPC   GL2 8534  32.350  26.823   8.864
  401POPC   C1A 8535  32.204  26.808   8.564
  401POPC   D2A 8536  32.203  26.861   8.264
  401POPC   C3A 8537  32.231  26.849   7.964
  401POPC   C4A 8538  32.224  26.789   7.664
  401POPC   C1B 8539  32.457  26.824   8.564
  401POPC   C2B 8540  32.483  26.815   8.264
  401POPC   C3B 8541  32.532  26.874   7.964
  401POPC   C4B 8542  32.483  26.871   7.664
  402POPC   NC3 8543  30.703  28.322   9.464
  402POPC   PO4 8544  30.656  28.383   9.164
  402POPC   GL1 8545  30.707  28.410   8.864
  402POPC   GL2 8546  30.588  28.362   8.864
  402POPC   C1A 8547  30.695  28.417   8.564
  402POPC   D2A 8548  30.672  28.408   8.264
  402POPC   C3A 8549  30.736  28.377   7.964
  402POPC   C4A 8550  30.684  28.411   7.664
  402POPC   C1B 8551  30.429  28.293   8.564
  402POPC   C2B 8552  30.466  28.307   8.264
  402POPC   C3B 8553  30.462  28.282   7.964
  402POPC   C4B 8554  30.496  28.236   7.664
  403POPC   NC3 8555  43.080  40.805   9.464
  403POPC   PO4 8556  43.145  40.788   9.164
  403POPC   GL1 8557  43.151  40.781   8.864
  403POPC   GL2 8558  43.253  40.707   8.864
  403POPC   C1A 8559  43.112  40.741   8.564
  403POPC   D2A 8560  43.146  40.748   8.264
  403POPC   C3A 8561  43.151  40.781   7.964
  403POPC   C4A 8562  43.063  40.769   7.664
  403POPC   C1B 8563  43.336  40.692   8.564
  403POPC   C2B 8564  43.312  40.749   8.264
  403POPC   C3B 8565  43.369  40.721   7.964
  403POPC   C4B 8566  43.388  40.666   7.664
  404POPC   NC3 8567  20.584  18.262   9.464
  404POPC   PO4 8568  20.603  18.324   9.164
  404POPC   GL1 8569  20.652  18.260   8.864
  404POPC   GL2 8570  20.560  18.428   8.864
  404POPC   C1A 8571  20.633  18.241   8.564
  404POPC   D2A 8572  20.569  18.283   8.264
  404POPC   C3A 8573  20.656  18.268   7.964
  404POPC   C4A 8574  20.607  18.264   7.664
  404POPC   C1B 8575  20.504  18.554   8.564
  404POPC   C2B 8576  20.525  18.542   8.264
  404POPC   C3B 8577  20.512  18.492   7.964
  404POPC   C4B 8578  20.469  18.552   7.664
  405POPC   NC3 8579  19.054   0.396   9.464
  405POPC   PO4 8580  19.084   0.404   9.164
  405POPC   GL1 8581  19.077   0.461   8.864
  405POPC   GL2 8582  18.997   0.309   8.864
  405POPC   C1A 8583  19.034   0.396   8.564
  405POPC   D2A 8584  19.089   0.427   8.264
  405POPC   C3A 8585  19.107   0.411   7.964
  405POPC   C4A 8586  19.084   0.484   7.664
  405POPC   C1B 8587  18.959   0.221   8.564
  405POPC   C2B 8588  18.971   0.196   8.264
  405POPC   C3B 8589  18.893   0.265   7.964
  405POPC   C4B 8590  18.906   0.241   7.664
  406POPC   NC3 8591  40.765   6.609   9.464
  406POPC   PO4 8592  40.768   6.691   9.164
  406POPC   GL1 8593  40.828   6.690   8.864
  406POPC   GL2 8594  40.895   6.739   8.864
  406POPC   C1A 8595  40.813   6.675   8.564
  406POPC   D2A 8596  40.790   6.621   8.264
  406POPC   C3A 8597  40.743   6.607   7.964
  406POPC   C4A 8598  40.812   6.669   7.664
  406POPC   C1B 8599  40.996   6.724   8.564
  406POPC   C2B 8600  41.060   6.762   8.264
  406POPC   C3B 8601  41.032   6.768   7.964
  406POPC   C4B 8602  41.041   6.794   7.664
  407POPC   NC3 8603  29.179  43.133   9.464
  407POPC   PO4 8604  29.175  43.122   9.164
  407POPC   GL1 8605  29.166  43.095   8.864
  407POPC   GL2 8606  29.257  43.154   8.864
  407POPC   C1A 8607  29.194  43.075   8.564
  407POPC   D2A 8608  29.194  43.063   8.264
  407POPC   C3A 8609  29.113  43.139   7.964
  407POPC   C4A 8610  29.171  43.079   7.664
  407POPC   C1B 8611  29.397  43.118   8.564
  407POPC   C2B 8612  29.404  43.104   8.264
  407POPC   C3B 8613  29.437  43.166   7.964
  407POPC   C4B 8614  29.403  43.080   7.664
  408POPC   NC3 8615  26.027   5.831   9.464
  408POPC   PO4 8616  26.087   5.916   9.164
  408POPC   GL1 8617  26.027   5.824   8.864
  408POPC   GL2 8618  26.153   5.903   8.864
  408POPC   C1A 8619  26.024   5.891   8.564
  408POPC   D2A 8620  26.033   5.916   8.264
  408POPC   C3A 8621  25.997   5.865   7.964
  408POPC   C4A 8622  25.996   5.819   7.664
  408POPC   C1B 8623  26.198   6.010   8.564
  408POPC   C2B 8624  26.241   6.011   8.264
  408POPC   C3B 8625  26.242   6.032   7.964
  408POPC   C4B 8626  26.245   6.032   7.664
  409POPC   NC3 8627  29.104   6.616   9.464
  409POPC   PO4 8628  29.140   6.647   9.164
  409POPC   GL1 8629  29.174   6.693   8.864
  409POPC   GL2 8630  29.290   6.669   8.864
  409POPC   C1A 8631  29.174   6.692   8.564
  409POPC   D2A 8632  29.170   6.597   8.264
  409POPC   C3A 8633  29.097   6.634   7.964
  409POPC   C4A 8634  29.195   6.610   7.664
  409POPC   C1B 8635  29.349   6.619   8.564
  409POPC   C2B 8636  29.413   6.594   8.264
  409POPC   C3B 8637  29.418   6.612   7.964
  409POPC   C4B 8638  29.348   6.645   7.664
  410POPC   NC3 8639  44.668  12.863   9.464
  410POPC   PO4 8640  44.670  12.838   9.164
  410POPC   GL1 8641  44.618  12.889   8.864
  410POPC   GL2 8642  44.589  13.013   8.864
  410POPC   C1A 8643  44.666  12.867   8.564
  410POPC   D2A 8644  44.677  12.807   8.264
  410POPC   C3A 8645  44.637  12.842   7.964
  410POPC   C4A 8646  44.629  12.845   7.664
  410POPC   C1B 8647  44.552  13.128   8.564
  410POPC   C2B 8648  44.545  13.082   8.264
  410POPC   C3B 8649  44.552  13.134   7.964
  410POPC   C4B 8650  44.606  13.056   7.664
  411POPC   NC3 8651  15.945  39.975   9.464
  411POPC   PO4 8652  15.994  40.027   9.164
  411POPC   GL1 8653  15.993  40.026   8.864
  411POPC   GL2 8654  15.821  39.935   8.864
  411POPC   C1A 8655  15.921  40.009   8.564
  411POPC   D2A 8656  15.992  39.965   8.264
  411POPC   C3A 8657  15.921  39.972   7.964
  411POPC   C4A 8658  15.925  39.961   7.664
  411POPC   C1B 8659  15.699  39.929   8.564
  411POPC   C2B 8660  15.700  39.864   8.264
  411POPC   C3B 8661  15.743  39.867   7.964
  411POPC   C4B 8662  15.746  39.861   7.664
  412POPC   NC3 8663  39.255  29.932   9.464
  412POPC   PO4 8664  39.228  29.938   9.164
  412POPC   GL1 8665  39.194  29.924   8.864
  412POPC   GL2 8666  39.382  29.892   8.864
  412POPC   C1A 8667  39.238  29.922   8.564
  412POPC   D2A 8668  39.194  29.941   8.264
  412POPC   C3A 8669  39.234  29.947   7.964
  412POPC   C4A 8670  39.222  29.882   7.664
  412POPC   C1B 8671  39.434  29.956   8.564
  412POPC   C2B 8672  39.467  29.913   8.264
  412POPC   C3B 8673  39.500  29.881   7.964
  412POPC   C4B 8674  39.514  29.898   7.664
  413POPC   NC3 8675   7.376  32.220   9.464
  413POPC   PO4 8676   7.379  32.229   9.164
  413POPC   GL1 8677   7.398  32.258   8.864
  413POPC   GL2 8678   7.502  32.164   8.864
  413POPC   C1A 8679   7.453  32.242   8.564
  413POPC   D2A 8680   7.462  32.273   8.264
  413POPC   C3A 8681   7.432  32.269   7.964
  413POPC   C4A 8682   7.426  32.268   7.664
  413POPC   C1B 8683   7.522  32.051   8.564
  413POPC   C2B 8684   7.535  31.987   8.264
  413POPC   C3B 8685   7.486  32.014   7.964
  413POPC   C4B 8686   7.531  32.046   7.664
  414POPC   NC3 8687  32.280  20.619   9.464
  414POPC   PO4 8688  32.222  20.644   9.164
  414POPC   GL1 8689  32.281  20.597   8.864
  414POPC   GL2 8690  32.332  20.603   8.864
  414POPC   C1A 8691  32.258  20.597   8.564
  414POPC   D2A 8692  32.252  20.588   8.264
  414POPC   C3A 8693  32.270  20.568   7.964
  414POPC   C4A 8694  32.211  20.616   7.664
  414POPC   C1B 8695  32.494  20.611   8.564
  414POPC   C2B 8696  32.488  20.658   8.264
  414POPC   C3B 8697  32.547  20.611   7.964
  414POPC   C4B 8698  32.449  20.580   7.664
  415POPC   NC3 8699  10.502  39.258   9.464
  415POPC   PO4 8700  10.475  39.227   9.164
  415POPC   GL1 8701  10.558  39.196   8.864
  415POPC   GL2 8702  10.388  39.197   8.864
  415POPC   C1A 8703  10.550  39.238   8.564
  415POPC   D2A 8704  10.477  39.263   8.264
  415POPC   C3A 8705  10.554  39.188   7.964
  415POPC   C4A 8706  10.525  39.199   7.664
  415POPC   C1B 8707  10.335  39.197   8.564
  415POPC   C2B 8708  10.262  39.202   8.264
  415POPC   C3B 8709  10.246  39.188   7.964
  415POPC   C4B 8710  10.255  39.175   7.664
  416POPC   NC3 8711   9.725  20.603   9.464
  416POPC   PO4 8712   9.734  20.569   9.164
  416POPC   GL1 8713   9.796  20.574   8.864
  416POPC   GL2 8714   9.591  20.549   8.864
  416POPC   C1A 8715   9.734  20.634   8.564
  416POPC   D2A 8716   9.743  20.596   8.264
  416POPC   C3A 8717   9.754  20.630   7.964
  416POPC   C4A 8718   9.725  20.585   7.664
  416POPC   C1B 8719   9.504  20.590   8.564
  416POPC   C2B 8720   9.460  20.628   8.264
  416POPC   C3B 8721   9.527  20.529   7.964
  416POPC   C4B 8722   9.509  20.622   7.664
  417POPC   NC3 8723  19.858   8.953   9.464
  417POPC   PO4 8724  19.827   8.968   9.164
  417POPC   GL1 8725  19.785   8.976   8.864
  417POPC   GL2 8726  19.881   9.053   8.864
  417POPC   C1A 8727  19.858   9.018   8.564
  417POPC   D2A 8728  19.834   8.953   8.264
  417POPC   C3A 8729  19.883   8.999   7.964
  417POPC   C4A 8730  19.838   8.972   7.664
  417POPC   C1B 8731  19.988   9.124   8.564
  417POPC   C2B 8732  20.034   9.197   8.264
  417POPC   C3B 8733  19.942   9.158   7.964
  417POPC   C4B 8734  19.987   9.174   7.664
  418POPC   NC3 8735  28.352  20.604   9.464
  418POPC   PO4 8736  28.356  20.626   9.164
  418POPC   GL1 8737  28.337  20.629   8.864
  418POPC   GL2 8738  28.258  20.583   8.864
  418POPC   C1A 8739  28.388  20.588   8.564
  418POPC   D2A 8740  28.332  20.606   8.264
  418POPC   C3A 8741  28.382  20.629   7.964
  418POPC   C4A 8742  28.347  20.630   7.664
  418POPC   C1B 8743  28.104  20.509   8.564
  418POPC   C2B 8744  28.126  20.472   8.264
  418POPC   C3B 8745  28.158  20.482   7.964
  418POPC   C4B 8746  28.129  20.490   7.664
  419POPC   NC3 8747   4.304  19.067   9.464
  419POPC   PO4 8748   4.353  19.066   9.164
  419POPC   GL1 8749   4.349  19.041   8.864
  419POPC   GL2 8750   4.296  19.140   8.864
  419POPC   C1A 8751   4.320  19.099   8.564
  419POPC   D2A 8752   4.310  19.024   8.264
  419POPC   C3A 8753   4.294  19.075   7.964
  419POPC   C4A 8754   4.349  19.086   7.664
  419POPC   C1B 8755   4.213  19.261   8.564
  419POPC   C2B 8756   4.275  19.296   8.264
  419POPC   C3B 8757   4.250  19.253   7.964
  419POPC   C4B 8758   4.224  19.318   7.664
  420POPC   NC3 8759  29.172  30.661   9.464
  420POPC   PO4 8760  29.179  30.734   9.164
  420POPC   GL1 8761  29.186  30.678   8.864
  420POPC   GL2 8762  29.062  30.688   8.864
  420POPC   C1A 8763  29.188  30.722   8.564
  420POPC   D2A 8764  29.194  30.741   8.264
  420POPC   C3A 8765  29.142  30.649   7.964
  420POPC   C4A 8766  29.194  30.660   7.664
  420POPC   C1B 8767  28.937  30.583   8.564
  420POPC   C2B 8768  28.880  30.644   8.264
  420POPC   C3B 8769  28.914  30.610   7.964
  420POPC   C4B 8770  28.890  30.663   7.664
  421POPC   NC3 8771  19.039  43.105   9.464
  421POPC   PO4 8772  19.088  43.097   9.164
  421POPC   GL1 8773  19.083  43.106   8.864
  421POPC   GL2 8774  19.068  43.262   8.864
  421POPC   C1A 8775  19.108  43.090   8.564
  421POPC   D2A 8776  19.013  43.112   8.264
  421POPC   C3A 8777  19.023  43.150   7.964
  421POPC   C4A 8778  19.069  43.121   7.664
  421POPC   C1B 8779  19.051  43.326   8.564
  421POPC   C2B 8780  19.089  43.315   8.264
  421POPC   C3B 8781  19.089  43.344   7.964
  421POPC   C4B 8782  19.111  43.401   7.664
  422POPC   NC3 8783  43.111  18.236   9.464
  422POPC   PO4 8784  43.068  18.238   9.164
  422POPC   GL1 8785  43.082  18.326   8.864
  422POPC   GL2 8786  43.079  18.435   8.864
  422POPC   C1A 8787  43.146  18.273   8.564
  422POPC   D2A 8788  43.103  18.328   8.264
  422POPC   C3A 8789  43.094  18.278   7.964
  422POPC   C4A 8790  43.077  18.242   7.664
  422POPC   C1B 8791  43.173  18.524   8.564
  422POPC   C2B 8792  43.128  18.492   8.264
  422POPC   C3B 8793  43.076  18.533   7.964
  422POPC   C4B 8794  43.103  18.575   7.664
  423POPC   NC3 8795  15.184  22.189   9.464
  423POPC   PO4 8796  15.183  22.183   9.164
  423POPC   GL1 8797  15.132  22.176   8.864
  423POPC   GL2 8798  15.108  22.319   8.864
  423POPC   C1A 8799  15.224  22.199   8.564
  423POPC   D2A 8800  15.213  22.178   8.264
  423POPC   C3A 8801  15.175  22.118   7.964
  423POPC   C4A 8802  15.205  22.184   7.664
  423POPC   C1B 8803  15.079  22.379   8.564
  423POPC   C2B 8804  15.122  22.382   8.264
  423POPC   C3B 8805  15.148  22.407   7.964
  423POPC   C4B 8806  15.136  22.429   7.664
  424POPC   NC3 8807  24.460  12.043   9.464
  424POPC   PO4 8808  24.479  12.050   9.164
  424POPC   GL1 8809  24.505  12.087   8.864
  424POPC   GL2 8810  24.620  12.016   8.864
  424POPC   C1A 8811  24.517  12.084   8.564
  424POPC   D2A 8812  24.440  12.102   8.264
  424POPC   C3A 8813  24.513  12.081   7.964
  424POPC   C4A 8814  24.489  12.052   7.664
  424POPC   C1B 8815  24.735  11.961   8.564
  424POPC   C2B 8816  24.706  11.943   8.264
  424POPC   C3B 8817  24.665  11.963   7.964
  424POPC   C4B 8818  24.733  11.957   7.664
  425POPC   NC3 8819  40.007   3.531   9.464
  425POPC   PO4 8820  39.992   3.520   9.164
  425POPC   GL1 8821  39.980   3.511   8.864
  425POPC   GL2 8822  39.865   3.507   8.864
  425POPC   C1A 8823  40.008   3.545   8.564
  425POPC   D2A 8824  39.978   3.527   8.264
  425POPC   C3A 8825  40.018   3.541   7.964
  425POPC   C4A 8826  39.962   3.538   7.664
  425POPC   C1B 8827  39.765   3.438   8.564
  425POPC   C2B 8828  39.755   3.428   8.264
  425POPC   C3B 8829  39.803   3.508   7.964
  425POPC   C4B 8830  39.818   3.417   7.664
  426POPC   NC3 8831  25.292  35.302   9.464
  426POPC   PO4 8832  25.260  35.390   9.164
  426POPC   GL1 8833  25.220  35.360   8.864
  426POPC   GL2 8834  25.197  35.454   8.864
  426POPC   C1A 8835  25.310  35.390   8.564
  426POPC   D2A 8836  25.312  35.400   8.264
  426POPC   C3A 8837  25.275  35.358   7.964
  426POPC   C4A 8838  25.292  35.383   7.664
  426POPC   C1B 8839  25.163  35.545   8.564
  426POPC   C2B 8840  25.188  35.563   8.264
  426POPC   C3B 8841  25.218  35.565   7.964
  426POPC   C4B 8842  25.144  35.585   7.664
  427POPC   NC3 8843  37.701  35.401   9.464
  427POPC   PO4 8844  37.647  35.389   9.164
  427POPC   GL1 8845  37.632  35.391   8.864
  427POPC   GL2 8846  37.642  35.479   8.864
  427POPC   C1A 8847  37.707  35.377   8.564
  427POPC   D2A 8848  37.690  35.384   8.264
  427POPC   C3A 8849  37.638  35.302   7.964
  427POPC   C4A 8850  37.706  35.314   7.664
  427POPC   C1B 8851  37.699  35.642   8.564
  427POPC   C2B 8852  37.700  35.611   8.264
  427POPC   C3B 8853  37.738  35.630   7.964
  427POPC   C4B 8854  37.652  35.639   7.664
  428POPC   NC3 8855  26.059  12.866   9.464
  428POPC   PO4 8856  26.044  12.868   9.164
  428POPC   GL1 8857  26.062  12.873   8.864
  428POPC   GL2 8858  26.167  12.849   8.864
  428POPC   C1A 8859  26.038  12.826   8.564
  428POPC   D2A 8860  26.090  12.891   8.264
  428POPC   C3A 8861  26.082  12.879   7.964
  428POPC   C4A 8862  26.086  12.880   7.664
  428POPC   C1B 8863  26.251  12.810   8.564
  428POPC   C2B 8864  26.292  12.727   8.264
  428POPC   C3B 8865  26.254  12.733   7.964
  428POPC   C4B 8866  26.310  12.783   7.664
  429POPC   NC3 8867   7.410  28.374   9.464
  429POPC   PO4 8868   7.443  28.385   9.164
  429POPC   GL1 8869   7.437  28.394   8.864
  429POPC   GL2 8870   7.502  28.373   8.864
  429POPC   C1A 8871   7.462  28.332   8.564
  429POPC   D2A 8872   7.409  28.401   8.264
  429POPC   C3A 8873   7.392  28.369   7.964
  429POPC   C4A 8874   7.461  28.378   7.664
  429POPC   C1B 8875   7.693  28.426   8.564
  429POPC   C2B 8876   7.670  28.426   8.264
  429POPC   C3B 8877   7.679  28.471   7.964
  429POPC   C4B 8878   7.650  28.471   7.664
  430POPC   NC3 8879  15.166  12.049   9.464
  430POPC   PO4 8880  15.193  12.036   9.164
  430POPC   GL1 8881  15.150  12.070   8.864
  430POPC   GL2 8882  15.169  11.914   8.864
  430POPC   C1A 8883  15.145  12.063   8.564
  430POPC   D2A 8884  15.159  12.068   8.264
  430POPC   C3A 8885  15.193  12.035   7.964
  430POPC   C4A 8886  15.195  12.104   7.664
  430POPC   C1B 8887  15.156  11.866   8.564
  430POPC   C2B 8888  15.183  11.834   8.264
  430POPC   C3B 8889  15.223  11.847   7.964
  430POPC   C4B 8890  15.168  11.821   7.664
  431POPC   NC3 8891  36.177  23.689   9.464
  431POPC   PO4 8892  36.172  23.737   9.164
  431POPC   GL1 8893  36.136  23.665   8.864
  431POPC   GL2 8894  35.995  23.706   8.864
  431POPC   C1A 8895  36.148  23.679   8.564
  431POPC   D2A 8896  36.153  23.664   8.264
  431POPC   C3A 8897  36.168  23.690   7.964
  431POPC   C4A 8898  36.122  23.756   7.664
  431POPC   C1B 8899  35.884  23.630   8.564
  431POPC   C2B 8900  35.922  23.590   8.264
  431POPC   C3B 8901  35.892  23.600   7.964
  431POPC   C4B 8902  35.905  23.612   7.664
  432POPC   NC3 8903  20.639  28.348   9.464
  432POPC   PO4 8904  20.652  28.370   9.164
  432POPC   GL1 8905  20.611  28.331   8.864
  432POPC   GL2 8906  20.620  28.300   8.864
  432POPC   C1A 8907  20.562  28.398   8.564
  432POPC   D2A 8908  20.563  28.401   8.264
  432POPC   C3A 8909  20.587  28.320   7.964
  432POPC   C4A 8910  20.589  28.320   7.664
  432POPC   C1B 8911  20.666  28.133   8.564
  432POPC   C2B 8912  20.668  28.165   8.264
  432POPC   C3B 8913  20.645  28.133   7.964
  432POPC   C4B 8914  20.659  28.090   7.664
  433POPC   NC3 8915  25.238  43.875   9.464
  433POPC   PO4 8916  25.231  43.901   9.164
  433POPC   GL1 8917  25.247  43.849   8.864
  433POPC   GL2 8918  25.378  43.975   8.864
  433POPC   C1A 8919  25.226  43.909   8.564
  433POPC   D2A 8920  25.259  43.912   8.264
  433POPC   C3A 8921  25.298  43.932   7.964
  433POPC   C4A 8922  25.247  43.895   7.664
  433POPC   C1B 8923  25.379  44.115   8.564
  433POPC   C2B 8924  25.446  44.052   8.264
  433POPC   C3B 8925  25.431  44.133   7.964
  433POPC   C4B 8926  25.410  44.066   7.664
  434POPC   NC3 8927  14.416  16.697   9.464
  434POPC   PO4 8928  14.439  16.710   9.164
  434POPC   GL1 8929  14.431  16.757   8.864
  434POPC   GL2 8930  14.415  16.829   8.864
  434POPC   C1A 8931  14.421  16.705   8.564
  434POPC   D2A 8932  14.372  16.730   8.264
  434POPC   C3A 8933  14.439  16.766   7.964
  434POPC   C4A 8934  14.355  16.686   7.664
  434POPC   C1B 8935  14.426  16.997   8.564
  434POPC   C2B 8936  14.398  16.962   8.264
  434POPC   C3B 8937  14.406  17.012   7.964
  434POPC   C4B 8938  14.374  16.964   7.664
  435POPC   NC3 8939  27.569  33.822   9.464
  435POPC   PO4 8940  27.594  33.782   9.164
  435POPC   GL1 8941  27.643  33.775   8.864
  435POPC   GL2 8942  27.578  33.649   8.864
  435POPC   C1A 8943  27.631  33.826   8.564
  435POPC   D2A 8944  27.610  33.751   8.264
  435POPC   C3A 8945  27.587  33.827   7.964
  435POPC   C4A 8946  27.571  33.815   7.664
  435POPC   C1B 8947  27.481  33.613   8.564
  435POPC   C2B 8948  27.439  33.588   8.264
  435POPC   C3B 8949  27.438  33.574   7.964
  435POPC   C4B 8950  27.485  33.607   7.664
  436POPC   NC3 8951  15.970  12.090   9.464
  436POPC   PO4 8952  16.002  12.057   9.164
  436POPC   GL1 8953  15.940  12.110   8.864
  436POPC   GL2 8954  15.998  12.006   8.864
  436POPC   C1A 8955  15.922  12.057   8.564
  436POPC   D2A 8956  15.921  12.035   8.264
  436POPC   C3A 8957  15.948  12.052   7.964
  436POPC   C4A 8958  15.908  12.121   7.664
  436POPC   C1B 8959  16.151  11.890   8.564
  436POPC   C2B 8960  16.087  11.919   8.264
  436POPC   C3B 8961  16.149  11.832   7.964
  436POPC   C4B 8962  16.073  11.835   7.664
  437POPC   NC3 8963  26.010  10.560   9.464
  437POPC   PO4 8964  26.039  10.506   9.164
  437POPC   GL1 8965  26.048  10.484   8.864
  437POPC   GL2 8966  26.120  10.489   8.864
  437POPC   C1A 8967  26.040  10.549   8.564
  437POPC   D2A 8968  26.053  10.512   8.264
  437POPC   C3A 8969  25.998  10.560   7.964
  437POPC   C4A 8970  26.030  10.502   7.664
  437POPC   C1B 8971  26.262  10.405   8.564
  437POPC   C2B 8972  26.224  10.363   8.264
  437POPC   C3B 8973  26.264  10.431   7.964
  437POPC   C4B 8974  26.238  10.360   7.664
  438POPC   NC3 8975   2.745   3.579   9.464
  438POPC   PO4 8976   2.794   3.522   9.164
  438POPC   GL1 8977   2.796   3.515   8.864
  438POPC   GL2 8978   2.818   3.377   8.864
  438POPC   C1A 8979   2.734   3.557   8.564
  438POPC   D2A 8980   2.776   3.508   8.264
  438POPC   C3A 8981   2.736   3.522   7.964
  438POPC   C4A 8982   2.813   3.521   7.664
  438POPC   C1B 8983   2.822   3.339   8.564
  438POPC   C2B 8984   2.764   3.294   8.264
  438POPC   C3B 8985   2.794   3.332   7.964
  438POPC   C4B 8986   2.820   3.299   7.664
  439POPC   NC3 8987  18.332  18.332   9.464
  439POPC   PO4 8988  18.247  18.265   9.164
  439POPC   GL1 8989  18.260  18.266   8.864
  439POPC   GL2 8990  18.119  18.191   8.864
  439POPC   C1A 8991  18.288  18.257   8.564
  439POPC   D2A 8992  18.282  18.279   8.264
  439POPC   C3A 8993  18.276  18.273   7.964
  439POPC   C4A 8994  18.281  18.319   7.664
  439POPC   C1B 8995  18.102  18.207   8.564
  439POPC   C2B 8996  18.081  18.193   8.264
  439POPC   C3B 8997  18.071  18.151   7.964
  439POPC   C4B 8998  18.024  18.188   7.664
  440POPC   NC3 8999  29.903  29.905   9.464
  440POPC   PO4 9000  29.902  29.879   9.164
  440POPC   GL1 9001  29.945  29.887   8.864
  440POPC   GL2 9002  30.086  29.966   8.864
  440POPC   C1A 9003  29.966  29.884   8.564
  440POPC   D2A 9004  29.877  29.925   8.264
  440POPC   C3A 9005  29.881  29.924   7.964
  440POPC   C4A 9006  29.970  29.924   7.664
  440POPC   C1B 9007  30.135  29.972   8.564
  440POPC   C2B 9008  30.148  30.025   8.264
  440POPC   C3B 9009  30.164  30.037   7.964
  440POPC   C4B 9010  30.113  29.946   7.664
  441POPC   NC3 9011  43.858  12.839   9.464
  441POPC   PO4 9012  43.931  12.860   9.164
  441POPC   GL1 9013  43.848  12.871   8.864
  441POPC   GL2 9014  43.975  12.742   8.864
  441POPC   C1A 9015  43.847  12.840   8.564
  441POPC   D2A 9016  43.933  12.864   8.264
  441POPC   C3A 9017  43.906  12.866   7.964
  441POPC   C4A 9018  43.918  12.884   7.664
  441POPC   C1B 9019  44.064  12.596   8.564
  441POPC   C2B 9020  44.029  12.608   8.264
  441POPC   C3B 9021  44.024  12.593   7.964
  441POPC   C4B 9022  44.030  12.598   7.664
  442POPC   NC3 9023  24.474  44.686   9.464
  442POPC   PO4 9024  24.453  44.698   9.164
  442POPC   GL1 9025  24.499  44.682   8.864
  442POPC   GL2 9026  24.533  44.550   8.864
  442POPC   C1A 9027  24.523  44.686   8.564
  442POPC   D2A 9028  24.533  44.692   8.264
  442POPC   C3A 9029  24.475  44.643   7.964
  442POPC   C4A 9030  24.517  44.682   7.664
  442POPC   C1B 9031  24.533  44.465   8.564
  442POPC   C2B 9032  24.492  44.451   8.264
  442POPC   C3B 9033  24.563  44.371   7.964
  442POPC   C4B 9034  24.502  44.462   7.664
  443POPC   NC3 9035   3.583   6.645   9.464
  443POPC   PO4 9036   3.568   6.681   9.164
  443POPC   GL1 9037   3.545   6.612   8.864
  443POPC   GL2 9038   3.620   6.534   8.864
  443POPC   C1A 9039   3.572   6.652   8.564
  443POPC   D2A 9040   3.546   6.665   8.264
  443POPC   C3A 9041   3.541   6.607   7.964
  443POPC   C4A 9042   3.498   6.646   7.664
  443POPC   C1B 9043   3.604   6.402   8.564
  443POPC   C2B 9044   3.641   6.454   8.264
  443POPC   C3B 9045   3.605   6.450   7.964
  443POPC   C4B 9046   3.590   6.434   7.664
  444POPC   NC3 9047  31.430  19.866   9.464
  444POPC   PO4 9048  31.518  19.819   9.164
  444POPC   GL1 9049  31.497  19.857   8.864
  444POPC   GL2 9050  31.338  19.885   8.864
  444POPC   C1A 9051  31.491  19.849   8.564
  444POPC   D2A 9052  31.500  19.824   8.264
  444POPC   C3A 9053  31.501  19.803   7.964
  444POPC   C4A 9054  31.458  19.861   7.664
  444POPC   C1B 9055  31.231  19.921   8.564
  444POPC   C2B 9056  31.242  19.916   8.264
  444POPC   C3B 9057  31.253  19.879   7.964
  444POPC   C4B 9058  31.265  19.888   7.664
  445POPC   NC3 9059  30.687   8.987   9.464
  445POPC   PO4 9060  30.651   8.945   9.164
  445POPC   GL1 9061  30.702   8.956   8.864
  445POPC   GL2 9062  30.798   9.016   8.864
  445POPC   C1A 9063  30.657   9.004   8.564
  445POPC   D2A 9064  30.696   8.961   8.264
  445POPC   C3A 9065  30.704   8.986   7.964
  445POPC   C4A 9066  30.652   8.932   7.664
  445POPC   C1B 9067  30.871   9.103   8.564
  445POPC   C2B 9068  30.862   9.152   8.264
  445POPC   C3B 9069  30.930   9.116   7.964
  445POPC   C4B 9070  30.889   9.113   7.664
  446POPC   NC3 9071  18.298   0.414   9.464
  446POPC   PO4 9072  18.278   0.432   9.164
  446POPC   GL1 9073  18.263   0.402   8.864
  446POPC   GL2 9074  18.164   0.375   8.864
  446POPC   C1A 9075  18.243   0.447   8.564
  446POPC   D2A 9076  18.244   0.485   8.264
  446POPC   C3A 9077  18.279   0.458   7.964
  446POPC   C4A 9078  18.319   0.395   7.664
  446POPC   C1B 9079  18.007   0.426   8.564
  446POPC   C2B 9080  18.033   0.446   8.264
  446POPC   C3B 9081  18.055   0.393   7.964
  446POPC   C4B 9082  18.023   0.431   7.664
  447POPC   NC3 9083  36.099  29.150   9.464
  447POPC   PO4 9084  36.080  29.152   9.164
  447POPC   GL1 9085  36.156  29.191   8.864
  447POPC   GL2 9086  36.240  29.187   8.864
  447POPC   C1A 9087  36.145  29.151   8.564
  447POPC   D2A 9088  36.168  29.145   8.264
  447POPC   C3A 9089  36.109  29.156   7.964
  447POPC   C4A 9090  36.142  29.175   7.664
  447POPC   C1B 9091  36.287  29.273   8.564
  447POPC   C2B 9092  36.320  29.256   8.264
  447POPC   C3B 9093  36.319  29.281   7.964
  447POPC   C4B 9094  36.356  29.263   7.664
  448POPC   NC3 9095  27.623   5.883   9.464
  448POPC   PO4 9096  27.635   5.915   9.164
  448POPC   GL1 9097  27.594   5.845   8.864
  448POPC   GL2 9098  27.568   5.761   8.864
  448POPC   C1A 9099  27.578   5.886   8.564
  448POPC   D2A 9100  27.622   5.880   8.264
  448POPC   C3A 9101  27.586   5.834   7.964
  448POPC   C4A 9102  27.615   5.838   7.664
  448POPC   C1B 9103  27.523   5.605   8.564
  448POPC   C2B 9104  27.540   5.589   8.264
  448POPC   C3B 9105  27.588   5.571   7.964
  448POPC   C4B 9106  27.610   5.625   7.664
  449POPC   NC3 9107  32.233  19.819   9.464
  449POPC   PO4 9108  32.240  19.797   9.164
  449POPC   GL1 9109  32.292  19.866   8.864
  449POPC   GL2 9110  32.357  19.767   8.864
  449POPC   C1A 9111  32.217  19.825   8.564
  449POPC   D2A 9112  32.213  19.852   8.264
  449POPC   C3A 9113  32.270  19.876   7.964
  449POPC   C4A 9114  32.235  19.881   7.664
  449POPC   C1B 9115  32.405  19.657   8.564
  449POPC   C2B 9116  32.440  19.631   8.264
  449POPC   C3B 9117  32.419  19.653   7.964
  449POPC   C4B 9118  32.472  19.629   7.664
  450POPC   NC3 9119  10.527   2.767   9.464
  450POPC   PO4 9120  10.541   2.802   9.164
  450POPC   GL1 9121  10.545   2.774   8.864
  450POPC   GL2 9122  10.559   2.928   8.864
  450POPC   C1A 9123  10.567   2.812   8.564
  450POPC   D2A 9124  10.505   2.744   8.264
  450POPC   C3A 9125  10.559   2.787   7.964
  450POPC   C4A 9126  10.485   2.804   7.664
  450POPC   C1B 9127  10.587   2.997   8.564
  450POPC   C2B 9128  10.574   3.006   8.264
  450POPC   C3B 9129  10.535   3.043   7.964
  450POPC   C4B 9130  10.568   2.992   7.664
  451POPC   NC3 9131  22.907  25.308   9.464
  451POPC   PO4 9132  22.984  25.299   9.164
  451POPC   GL1 9133  22.926  25.281   8.864
  451POPC   GL2 9134  22.977  25.203   8.864
  451POPC   C1A 9135  22.894  25.285   8.564
  451POPC   D2A 9136  22.987  25.296   8.264
  451POPC   C3A 9137  22.953  25.282   7.964
  451POPC   C4A 9138  22.965  25.267   7.664
  451POPC   C1B 9139  23.048  25.082   8.564
  451POPC   C2B 9140  23.105  25.081   8.264
  451POPC   C3B 9141  23.091  25.077   7.964
  451POPC   C4B 9142  23.037  25.021   7.664
  452POPC   NC3 9143  37.704   3.524   9.464
  452POPC   PO4 9144  37.727   3.552   9.164
  452POPC   GL1 9145  37.679   3.493   8.864
  452POPC   GL2 9146  37.646   3.408   8.864
  452POPC   C1A 9147  37.728   3.567   8.564
  452POPC   D2A 9148  37.631   3.511   8.264
  452POPC   C3A 9149  37.683   3.582   7.964
  452POPC   C4A 9150  37.709   3.582   7.664
  452POPC   C1B 9151  37.580   3.260   8.564
  452POPC   C2B 9152  37.564   3.262   8.264
  452POPC   C3B 9153  37.564   3.278   7.964
  452POPC   C4B 9154  37.634   3.315   7.664
  453POPC   NC3 9155  33.051  32.257   9.464
  453POPC   PO4 9156  33.026  32.284   9.164
  453POPC   GL1 9157  33.063  32.237   8.864
  453POPC   GL2 9158  32.953  32.305   8.864
  453POPC   C1A 9159  33.061  32.219   8.564
  453POPC   D2A 9160  33.009  32.258   8.264
  453POPC   C3A 9161  33.070  32.268   7.964
  453POPC   C4A 9162  32.989  32.206   7.664
  453POPC   C1B 9163  32.829  32.367   8.564
  453POPC   C2B 9164  32.866  32.410   8.264
  453POPC   C3B 9165  32.855  32.412   7.964
  453POPC   C4B 9166  32.885  32.429   7.664
  454POPC   NC3 9167   4.356  33.754   9.464
  454POPC   PO4 9168   4.341  33.826   9.164
  454POPC   GL1 9169   4.334  33.754   8.864
  454POPC   GL2 9170   4.364  33.672   8.864
  454POPC   C1A 9171   4.333  33.801   8.564
  454POPC   D2A 9172   4.337  33.809   8.264
  454POPC   C3A 9173   4.340  33.750   7.964
  454POPC   C4A 9174   4.303  33.827   7.664
  454POPC   C1B 9175   4.429  33.567   8.564
  454POPC   C2B 9176   4.469  33.600   8.264
  454POPC   C3B 9177   4.512  33.616   7.964
  454POPC   C4B 9178   4.491  33.647   7.664
  455POPC   NC3 9179  24.462  24.477   9.464
  455POPC   PO4 9180  24.534  24.496   9.164
  455POPC   GL1 9181  24.501  24.512   8.864
  455POPC   GL2 9182  24.326  24.504   8.864
  455POPC   C1A 9183  24.522  24.514   8.564
  455POPC   D2A 9184  24.499  24.456   8.264
  455POPC   C3A 9185  24.530  24.502   7.964
  455POPC   C4A 9186  24.493  24.537   7.664
  455POPC   C1B 9187  24.213  24.490   8.564
  455POPC   C2B 9188  24.281  24.539   8.264
  455POPC   C3B 9189  24.287  24.549   7.964
  455POPC   C4B 9190  24.195  24.490   7.664
  456POPC   NC3 9191  35.318  35.374   9.464
  456POPC   PO4 9192  35.308  35.304   9.164
  456POPC   GL1 9193  35.344  35.346   8.864
  456POPC   GL2 9194  35.386  35.232   8.864
  456POPC   C1A 9195  35.320  35.345   8.564
  456POPC   D2A 9196  35.383  35.349   8.264
  456POPC   C3A 9197  35.372  35.312   7.964
  456POPC   C4A 9198  35.377  35.380   7.664
  456POPC   C1B 9199  35.465  35.113   8.564
  456POPC   C2B 9200  35.453  35.094   8.264
  456POPC   C3B 9201  35.486  35.149   7.964
  456POPC   C4B 9202  35.519  35.182   7.664
  457POPC   NC3 9203   5.862  38.428   9.464
  457POPC   PO4 9204   5.870  38.457   9.164
  457POPC   GL1 9205   5.843  38.475   8.864
  457POPC   GL2 9206   6.023  38.393   8.864
  457POPC   C1A 9207   5.841  38.467   8.564
  457POPC   D2A 9208   5.863  38.498   8.264
  457POPC   C3A 9209   5.893  38.476   7.964
  457POPC   C4A 9210   5.861  38.505   7.664
  457POPC   C1B 9211   6.122  38.313   8.564
  457POPC   C2B 9212   6.093  38.390   8.264
  457POPC   C3B 9213   6.124  38.382   7.964
  457POPC   C4B 9214   6.106  38.347   7.664
  458POPC   NC3 9215   8.157   3.561   9.464
  458POPC   PO4 9216   8.159   3.550   9.164
  458POPC   GL1 9217   8.160   3.561   8.864
  458POPC   GL2 9218   8.206   3.404   8.864
  458POPC   C1A 9219   8.178   3.581   8.564
  458POPC   D2A 9220   8.172   3.505   8.264
  458POPC   C3A 9221   8.183   3.533   7.964
  458POPC   C4A 9222   8.157   3.522   7.664
  458POPC   C1B 9223   8.323   3.316   8.564
  458POPC   C2B 9224   8.309   3.334   8.264
  458POPC   C3B 9225   8.272   3.303   7.964
  458POPC   C4B 9226   8.288   3.284   7.664
  459POPC   NC3 9227  28.368   3.568   9.464
  459POPC   PO4 9228  28.406   3.562   9.164
  459POPC   GL1 9229  28.416   3.552   8.864
  459POPC   GL2 9230  28.535   3.498   8.864
  459POPC   C1A 9231  28.381   3.554   8.564
  459POPC   D2A 9232  28.336   3.519   8.264
  459POPC   C3A 9233  28.403   3.500   7.964
  459POPC   C4A 9234  28.368   3.502   7.664
  459POPC   C1B 9235  28.658   3.479   8.564
  459POPC   C2B 9236  28.652   3.433   8.264
  459POPC   C3B 9237  28.632   3.471   7.964
  459POPC   C4B 9238  28.568   3.461   7.664
  460POPC   NC3 9239  19.088  28.362   9.464
  460POPC   PO4 9240  19.100  28.386   9.164
  460POPC   GL1 9241  19.016  28.399   8.864
  460POPC   GL2 9242  19.123  28.417   8.864
  460POPC   C1A 9243  19.037  28.319   8.564
  460POPC   D2A 9244  19.053  28.402   8.264
  460POPC   C3A 9245  19.069  28.378   7.964
  460POPC   C4A 9246  19.053  28.328   7.664
  460POPC   C1B 9247  19.301  28.540   8.564
  460POPC   C2B 9248  19.297  28.526   8.264
  460POPC   C3B 9249  19.260  28.526   7.964
  460POPC   C4B 9250  19.286  28.545   7.664
  461POPC   NC3 9251  24.537  28.329   9.464
  461POPC   PO4 9252  24.482  28.361   9.164
  461POPC   GL1 9253  24.456  28.388   8.864
  461POPC   GL2 9254  24.378  28.433   8.864
  461POPC   C1A 9255  24.458  28.352   8.564
  461POPC   D2A 9256  24.474  28.354   8.264
  461POPC   C3A 9257  24.530  28.382   7.964
  461POPC   C4A 9258  24.492  28.373   7.664
  461POPC   C1B 9259  24.267  28.520   8.564
  461POPC   C2B 9260  24.310  28.483   8.264
  461POPC   C3B 9261  24.307  28.505   7.964
  461POPC   C4B 9262  24.301  28.524   7.664
  462POPC   NC3 9263   5.070   0.402   9.464
  462POPC   PO4 9264   5.140   0.447   9.164
  462POPC   GL1 9265   5.141   0.463   8.864
  462POPC   GL2 9266   4.944   0.380   8.864
  462POPC   C1A 9267   5.131   0.482   8.564
  462POPC   D2A 9268   5.140   0.419   8.264
  462POPC   C3A 9269   5.129   0.438   7.964
  462POPC   C4A 9270   5.132   0.473   7.664
  462POPC   C1B 9271   4.853   0.398   8.564
  462POPC   C2B 9272   4.880   0.448   8.264
  462POPC   C3B 9273   4.890   0.363   7.964
  462POPC   C4B 9274   4.806   0.411   7.664
  463POPC   NC3 9275   2.006   1.251   9.464
  463POPC   PO4 9276   1.989   1.210   9.164
  463POPC   GL1 9277   2.002   1.261   8.864
  463POPC   GL2 9278   1.869   1.302   8.864
  463POPC   C1A 9279   2.011   1.238   8.564
  463POPC   D2A 9280   1.976   1.246   8.264
  463POPC   C3A 9281   1.973   1.257   7.964
  463POPC   C4A 9282   1.943   1.263   7.664
  463POPC   C1B 9283   1.765   1.259   8.564
  463POPC   C2B 9284   1.708   1.293   8.264
  463POPC   C3B 9285   1.707   1.337   7.964
  463POPC   C4B 9286   1.703   1.249   7.664
  464POPC   NC3 9287  16.001  23.724   9.464
  464POPC   PO4 9288  15.995  23.701   9.164
  464POPC   GL1 9289  15.912  23.699   8.864
  464POPC   GL2 9290  15.983  23.767   8.864
  464POPC   C1A 9291  15.977  23.674   8.564
  464POPC   D2A 9292  15.916  23.743   8.264
  464POPC   C3A 9293  15.945  23.730   7.964
  464POPC   C4A 9294  15.908  23.687   7.664
  464POPC   C1B 9295  16.130  23.934   8.564
  464POPC   C2B 9296  16.147  23.961   8.264
  464POPC   C3B 9297  16.111  23.911   7.964
  464POPC   C4B 9298  16.096  23.921   7.664
  465POPC   NC3 9299  28.417  43.863   9.464
  465POPC   PO4 9300  28.390  43.858   9.164
  465POPC   GL1 9301  28.401  43.934   8.864
  465POPC   GL2 9302  28.292  43.870   8.864
  465POPC   C1A 9303  28.390  43.910   8.564
  465POPC   D2A 9304  28.397  43.928   8.264
  465POPC   C3A 9305  28.339  43.912   7.964
  465POPC   C4A 9306  28.368  43.851   7.664
  465POPC   C1B 9307  28.101  43.849   8.564
  465POPC   C2B 9308  28.069  43.867   8.264
  465POPC   C3B 9309  28.091  43.850   7.964
  465POPC   C4B 9310  28.123  43.861   7.664
  466POPC   NC3 9311  32.247  17.501   9.464
  466POPC   PO4 9312  32.255  17.534   9.164
  466POPC   GL1 9313  32.224  17.499   8.864
  466POPC   GL2 9314  32.348  17.426   8.864
  466POPC   C1A 9315  32.223  17.547   8.564
  466POPC   D2A 9316  32.292  17.475   8.264
  466POPC   C3A 9317  32.269  17.506   7.964
  466POPC   C4A 9318  32.225  17.553   7.664
  466POPC   C1B 9319  32.415  17.331   8.564
  466POPC   C2B 9320  32.391  17.281   8.264
  466POPC   C3B 9321  32.332  17.242   7.964
  466POPC   C4B 9322  32.406  17.312   7.664
  467POPC   NC3 9323  16.764  12.034   9.464
  467POPC   PO4 9324  16.773  12.100   9.164
  467POPC   GL1 9325  16.753  12.027   8.864
  467POPC   GL2 9326  16.789  12.162   8.864
  467POPC   C1A 9327  16.728  12.102   8.564
  467POPC   D2A 9328  16.737  12.089   8.264
  467POPC   C3A 9329  16.752  12.059   7.964
  467POPC   C4A 9330  16.690  12.118   7.664
  467POPC   C1B 9331  16.884  12.274   8.564
  467POPC   C2B 9332  16.969  12.282   8.264
  467POPC   C3B 9333  16.895  12.259   7.964
  467POPC   C4B 9334  16.881  12.216   7.664
  468POPC   NC3 9335  33.834  14.428   9.464
  468POPC   PO4 9336  33.849  14.380   9.164
  468POPC   GL1 9337  33.839  14.408   8.864
  468POPC   GL2 9338  33.883  14.267   8.864
  468POPC   C1A 9339  33.758  14.447   8.564
  468POPC   D2A 9340  33.780  14.413   8.264
  468POPC   C3A 9341  33.770  14.405   7.964
  468POPC   C4A 9342  33.818  14.372   7.664
  468POPC   C1B 9343  33.872  14.214   8.564
  468POPC   C2B 9344  33.857  14.133   8.264
  468POPC   C3B 9345  33.908  14.156   7.964
  468POPC   C4B 9346  33.840  14.141   7.664
  469POPC   NC3 9347   5.824  28.393   9.464
  469POPC   PO4 9348   5.837  28.417   9.164
  469POPC   GL1 9349   5.864  28.383   8.864
  469POPC   GL2 9350   5.853  28.541   8.864
  469POPC   C1A 9351   5.903  28.334   8.564
  469POPC   D2A 9352   5.860  28.390   8.264
  469POPC   C3A 9353   5.918  28.351   7.964
  469POPC   C4A 9354   5.892  28.385   7.664
  469POPC   C1B 9355   5.816  28.605   8.564
  469POPC   C2B 9356   5.856  28.609   8.264
  469POPC   C3B 9357   5.849  28.635   7.964
  469POPC   C4B 9358   5.829  28.592   7.664
  470POPC   NC3 9359  33.786  21.412   9.464
  470POPC   PO4 9360  33.756  21.390   9.164
  470POPC   GL1 9361  33.782  21.339   8.864
  470POPC   GL2 9362  33.883  21.349   8.864
  470POPC   C1A 9363  33.768  21.396   8.564
  470POPC   D2A 9364  33.830  21.355   8.264
  470POPC   C3A 9365  33.846  21.387   7.964
  470POPC   C4A 9366  33.756  21.384   7.664
  470POPC   C1B 9367  34.002  21.286   8.564
  470POPC   C2B 9368  34.030  21.337   8.264
  470POPC   C3B 9369  34.022  21.323   7.964
  470POPC   C4B 9370  33.995  21.354   7.664
  471POPC   NC3 9371   4.318   5.120   9.464
  471POPC   PO4 9372   4.289   5.053   9.164
  471POPC   GL1 9373   4.323   5.134   8.864
  471POPC   GL2 9374   4.342   5.174   8.864
  471POPC   C1A 9375   4.330   5.087   8.564
  471POPC   D2A 9376   4.271   5.139   8.264
  471POPC   C3A 9377   4.272   5.098   7.964
  471POPC   C4A 9378   4.301   5.141   7.664
  471POPC   C1B 9379   4.249   5.352   8.564
  471POPC   C2B 9380   4.301   5.377   8.264
  471POPC   C3B 9381   4.292   5.371   7.964
  471POPC   C4B 9382   4.266   5.382   7.664
  472POPC   NC3 9383   6.649  15.947   9.464
  472POPC   PO4 9384   6.664  15.976   9.164
  472POPC   GL1 9385   6.683  15.945   8.864
  472POPC   GL2 9386   6.720  15.897   8.864
  472POPC   C1A 9387   6.652  15.921   8.564
  472POPC   D2A 9388   6.643  15.993   8.264
  472POPC   C3A 9389   6.655  15.936   7.964
  472POPC   C4A 9390   6.673  15.925   7.664
  472POPC   C1B 9391   6.891  15.872   8.564
  472POPC   C2B 9392   6.833  15.900   8.264
  472POPC   C3B 9393   6.879  15.907   7.964
  472POPC   C4B 9394   6.868  15.843   7.664
  473POPC   NC3 9395  10.516   0.477   9.464
  473POPC   PO4 9396  10.538   0.480   9.164
  473POPC   GL1 9397  10.556   0.411   8.864
  473POPC   GL2 9398  10.576   0.359   8.864
  473POPC   C1A 9399  10.553   0.469   8.564
  473POPC   D2A 9400  10.492   0.449   8.264
  473POPC   C3A 9401  10.552   0.425   7.964
  473POPC   C4A 9402  10.477   0.399   7.664
  473POPC   C1B 9403  10.615   0.192   8.564
  473POPC   C2B 9404  10.550   0.196   8.264
  473POPC   C3B 9405  10.573   0.174   7.964
  473POPC   C4B 9406  10.554   0.204   7.664
  474POPC   NC3 9407   0.443  37.631   9.464
  474POPC   PO4 9408   0.442  37.683   9.164
  474POPC   GL1 9409   0.475  37.662   8.864
  474POPC   GL2 9410   0.552  37.699   8.864
  474POPC   C1A 9411   0.451  37.692   8.564
  474POPC   D2A 9412   0.461  37.651   8.264
  474POPC   C3A 9413   0.422  37.714   7.964
  474POPC   C4A 9414   0.468  37.654   7.664
  474POPC   C1B 9415   0.720  37.717   8.564
  474POPC   C2B 9416   0.652  37.779   8.264
  474POPC   C3B 9417   0.636  37.723   7.964
  474POPC   C4B 9418   0.687  37.759   7.664
  475POPC   NC3 9419   5.856   3.544   9.464
  475POPC   PO4 9420   5.910   3.535   9.164
  475POPC   GL1 9421   5.856   3.540   8.864
  475POPC   GL2 9422   5.785   3.680   8.864
  475POPC   C1A 9423   5.897   3.584   8.564
  475POPC   D2A 9424   5.877   3.499   8.264
  475POPC   C3A 9425   5.871   3.582   7.964
  475POPC   C4A 9426   5.839   3.516   7.664
  475POPC   C1B 9427   5.788   3.814   8.564
  475POPC   C2B 9428   5.739   3.781   8.264
  475POPC   C3B 9429   5.796   3.740   7.964
  475POPC   C4B 9430   5.807   3.801   7.664
  476POPC   NC3 9431  25.243  25.278   9.464
  476POPC   PO4 9432  25.224  25.296   9.164
  476POPC   GL1 9433  25.262  25.267   8.864
  476POPC   GL2 9434  25.166  25.383   8.864
  476POPC   C1A 9435  25.304  25.241   8.564
  476POPC   D2A 9436  25.290  25.245   8.264
  476POPC   C3A 9437  25.239  25.255   7.964
  476POPC   C4A 9438  25.296  25.247   7.664
  476POPC   C1B 9439  25.067  25.458   8.564
  476POPC   C2B 9440  25.079  25.421   8.264
  476POPC   C3B 9441  25.096  25.443   7.964
  476POPC   C4B 9442  25.077  25.423   7.664
  477POPC   NC3 9443  22.127   2.020   9.464
  477POPC   PO4 9444  22.113   1.964   9.164
  477POPC   GL1 9445  22.121   2.006   8.864
  477POPC   GL2 9446  22.225   1.886   8.864
  477POPC   C1A 9447  22.176   2.005   8.564
  477POPC   D2A 9448  22.191   2.024   8.264
  477POPC   C3A 9449  22.120   2.029   7.964
  477POPC   C4A 9450  22.129   2.028   7.664
  477POPC   C1B 9451  22.174   1.702   8.564
  477POPC   C2B 9452  22.190   1.697   8.264
  477POPC   C3B 9453  22.259   1.749   7.964
  477POPC   C4B 9454  22.257   1.764   7.664
  478POPC   NC3 9455  44.685  11.260   9.464
  478POPC   PO4 9456  44.636  11.309   9.164
  478POPC   GL1 9457  44.636  11.320   8.864
  478POPC   GL2 9458  44.669  11.435   8.864
  478POPC   C1A 9459  44.649  11.326   8.564
  478POPC   D2A 9460  44.617  11.286   8.264
  478POPC   C3A 9461  44.635  11.344   7.964
  478POPC   C4A 9462  44.653  11.298   7.664
  478POPC   C1B 9463  44.672  11.540   8.564
  478POPC   C2B 9464  44.706  11.526   8.264
  478POPC   C3B 9465  44.665  11.599   7.964
  478POPC   C4B 9466  44.690  11.514   7.664
  479POPC   NC3 9467  17.470  37.658   9.464
  479POPC   PO4 9468  17.534  37.653   9.164
  479POPC   GL1 9469  17.487  37.693   8.864
  479POPC   GL2 9470  17.452  37.818   8.864
  479POPC   C1A 9471  17.465  37.710   8.564
  479POPC   D2A 9472  17.503  37.689   8.264
  479POPC   C3A 9473  17.531  37.658   7.964
  479POPC   C4A 9474  17.463  37.641   7.664
  479POPC   C1B 9475  17.458  37.904   8.564
  479POPC   C2B 9476  17.413  37.928   8.264
  479POPC   C3B 9477  17.420  37.950   7.964
  479POPC   C4B 9478  17.440  37.915   7.664
  480POPC   NC3 9479  29.148   2.802   9.464
  480POPC   PO4 9480  29.116   2.789   9.164
  480POPC   GL1 9481  29.150   2.788   8.864
  480POPC   GL2 9482  29.044   2.831   8.864
  480POPC   C1A 9483  29.193   2.780   8.564
  480POPC   D2A 9484  29.184   2.784   8.264
  480POPC   C3A 9485  29.123   2.772   7.964
  480POPC   C4A 9486  29.124   2.772   7.664
  480POPC   C1B 9487  28.887   2.929   8.564
  480POPC   C2B 9488  28.921   2.897   8.264
  480POPC   C3B 9489  28.970   2.918   7.964
  480POPC   C4B 9490  28.910   2.936   7.664
  481POPC   NC3 9491  16.763  24.475   9.464
  481POPC   PO4 9492  16.698  24.475   9.164
  481POPC   GL1 9493  16.776  24.466   8.864
  481POPC   GL2 9494  16.864  24.482   8.864
  481POPC   C1A 9495  16.735  24.483   8.564
  481POPC   D2A 9496  16.768  24.465   8.264
  481POPC   C3A 9497  16.743  24.462   7.964
  481POPC   C4A 9498  16.742  24.511   7.664
  481POPC   C1B 9499  16.947  24.374   8.564
  481POPC   C2B 9500  16.944  24.402   8.264
  481POPC   C3B 9501  17.005  24.379   7.964
  481POPC   C4B 9502  16.928  24.384   7.664
  482POPC   NC3 9503  29.174  13.606   9.464
  482POPC   PO4 9504  29.131  13.656   9.164
  482POPC   GL1 9505  29.103  13.616   8.864
  482POPC   GL2 9506  29.168  13.753   8.864
  482POPC   C1A 9507  29.169  13.615   8.564
  482POPC   D2A 9508  29.117  13.578   8.264
  482POPC   C3A 9509  29.140  13.580   7.964
  482POPC   C4A 9510  29.101  13.639   7.664
  482POPC   C1B 9511  29.209  13.851   8.564
  482POPC   C2B 9512  29.175  13.855   8.264
  482POPC   C3B 9513  29.176  13.905   7.964
  482POPC   C4B 9514  29.189  13.895   7.664
  483POPC   NC3 9515  23.708  35.382   9.464
  483POPC   PO4 9516  23.674  35.338   9.164
  483POPC   GL1 9517  23.708  35.389   8.864
  483POPC   GL2 9518  23.716  35.474   8.864
  483POPC   C1A 9519  23.702  35.319   8.564
  483POPC   D2A 9520  23.705  35.385   8.264
  483POPC   C3A 9521  23.720  35.369   7.964
  483POPC   C4A 9522  23.700  35.357   7.664
  483POPC   C1B 9523  23.686  35.574   8.564
  483POPC   C2B 9524  23.671  35.543   8.264
  483POPC   C3B 9525  23.697  35.597   7.964
  483POPC   C4B 9526  23.681  35.585   7.664
  484POPC   NC3 9527  33.009   5.056   9.464
  484POPC   PO4 9528  33.054   5.121   9.164
  484POPC   GL1 9529  33.017   5.061   8.864
  484POPC   GL2 9530  32.956   5.020   8.864
  484POPC   C1A 9531  32.992   5.090   8.564
  484POPC   D2A 9532  32.988   5.122   8.264
  484POPC   C3A 9533  32.985   5.055   7.964
  484POPC   C4A 9534  32.981   5.071   7.664
  484POPC   C1B 9535  32.792   4.978   8.564
  484POPC   C2B 9536  32.856   4.951   8.264
  484POPC   C3B 9537  32.880   4.911   7.964
  484POPC   C4B 9538  32.874   4.954   7.664
  485POPC   NC3 9539  19.084  26.812   9.464
  485POPC   PO4 9540  19.076  26.810   9.164
  485POPC   GL1 9541  19.018  26.811   8.864
  485POPC   GL2 9542  19.157  26.683   8.864
  485POPC   C1A 9543  19.029  26.794   8.564
  485POPC   D2A 9544  19.009  26.816   8.264
  485POPC   C3A 9545  19.087  26.801   7.964
  485POPC   C4A 9546  19.099  26.825   7.664
  485POPC   C1B 9547  19.168  26.643   8.564
  485POPC   C2B 9548  19.195  26.556   8.264
  485POPC   C3B 9549  19.238  26.643   7.964
  485POPC   C4B 9550  19.194  26.574   7.664
  486POPC   NC3 9551   9.797  36.139   9.464
  486POPC   PO4 9552   9.762  36.128   9.164
  486POPC   GL1 9553   9.792  36.110   8.864
  486POPC   GL2 9554   9.664  36.220   8.864
  486POPC   C1A 9555   9.749  36.140   8.564
  486POPC   D2A 9556   9.701  36.168   8.264
  486POPC   C3A 9557   9.753  36.140   7.964
  486POPC   C4A 9558   9.786  36.177   7.664
  486POPC   C1B 9559   9.550  36.329   8.564
  486POPC   C2B 9560   9.608  36.352   8.264
  486POPC   C3B 9561   9.583  36.347   7.964
  486POPC   C4B 9562   9.536  36.280   7.664
  487POPC   NC3 9563   7.404  24.483   9.464
  487POPC   PO4 9564   7.398  24.445   9.164
  487POPC   GL1 9565   7.426  24.531   8.864
  487POPC   GL2 9566   7.340  24.359   8.864
  487POPC   C1A 9567   7.466  24.487   8.564
  487POPC   D2A 9568   7.402  24.485   8.264
  487POPC   C3A 9569   7.455  24.446   7.964
  487POPC   C4A 9570   7.447  24.485   7.664
  487POPC   C1B 9571   7.253  24.345   8.564
  487POPC   C2B 9572   7.198  24.348   8.264
  487POPC   C3B 9573   7.271  24.348   7.964
  487POPC   C4B 9574   7.195  24.352   7.664
  488POPC   NC3 9575  15.164  40.735   9.464
  488POPC   PO4 9576  15.189  40.738   9.164
  488POPC   GL1 9577  15.227  40.774   8.864
  488POPC   GL2 9578  15.008  40.835   8.864
  488POPC   C1A 9579  15.184  40.811   8.564
  488POPC   D2A 9580  15.144  40.827   8.264
  488POPC   C3A 9581  15.198  40.829   7.964
  488POPC   C4A 9582  15.132  40.831   7.664
  488POPC   C1B 9583  14.947  40.797   8.564
  488POPC   C2B 9584  14.888  40.783   8.264
  488POPC   C3B 9585  14.883  40.793   7.964
  488POPC   C4B 9586  14.982  40.829   7.664
  489POPC   NC3 9587   4.272  11.325   9.464
  489POPC   PO4 9588   4.309  11.302   9.164
  489POPC   GL1 9589   4.354  11.284   8.864
  489POPC   GL2 9590   4.222  11.283   8.864
  489POPC   C1A 9591   4.362  11.296   8.564
  489POPC   D2A 9592   4.294  11.310   8.264
  489POPC   C3A 9593   4.320  11.263   7.964
  489POPC   C4A 9594   4.276  11.280   7.664
  489POPC   C1B 9595   4.077  11.314   8.564
  489POPC   C2B 9596   4.045  11.225   8.264
  489POPC   C3B 9597   4.067  11.253   7.964
  489POPC   C4B 9598   4.049  11.229   7.664
  490POPC   NC3 9599   6.611   8.998   9.464
  490POPC   PO4 9600   6.667   8.986   9.164
  490POPC   GL1 9601   6.677   8.942   8.864
  490POPC   GL2 9602   6.557   8.900   8.864
  490POPC   C1A 9603   6.689   8.988   8.564
  490POPC   D2A 9604   6.606   8.953   8.264
  490POPC   C3A 9605   6.650   8.981   7.964
  490POPC   C4A 9606   6.686   8.932   7.664
  490POPC   C1B 9607   6.375   8.934   8.564
  490POPC   C2B 9608   6.403   8.843   8.264
  490POPC   C3B 9609   6.404   8.895   7.964
  490POPC   C4B 9610   6.409   8.889   7.664
  491POPC   NC3 9611   6.633  26.866   9.464
  491POPC   PO4 9612   6.659  26.780   9.164
  491POPC   GL1 9613   6.654  26.849   8.864
  491POPC   GL2 9614   6.598  26.743   8.864
  491POPC   C1A 9615   6.677  26.857   8.564
  491POPC   D2A 9616   6.624  26.838   8.264
  491POPC   C3A 9617   6.684  26.787   7.964
  491POPC   C4A 9618   6.630  26.821   7.664
  491POPC   C1B 9619   6.491  26.608   8.564
  491POPC   C2B 9620   6.527  26.627   8.264
  491POPC   C3B 9621   6.552  26.595   7.964
  491POPC   C4B 9622   6.468  26.646   7.664
  492POPC   NC3 9623  31.440   2.778   9.464
  492POPC   PO4 9624  31.508   2.812   9.164
  492POPC   GL1 9625  31.510   2.790   8.864
  492POPC   GL2 9626  31.500   2.638   8.864
  492POPC   C1A 9627  31.511   2.796   8.564
  492POPC   D2A 9628  31.497   2.725   8.264
  492POPC   C3A 9629  31.469   2.789   7.964
  492POPC   C4A 9630  31.483   2.765   7.664
  492POPC   C1B 9631  31.477   2.500   8.564
  492POPC   C2B 9632  31.429   2.512   8.264
  492POPC   C3B 9633  31.402   2.514   7.964
  492POPC   C4B 9634  31.478   2.482   7.664
  493POPC   NC3 9635   8.959   2.812   9.464
  493POPC   PO4 9636   9.005   2.729   9.164
  493POPC   GL1 9637   8.928   2.810   8.864
  493POPC   GL2 9638   8.998   2.848   8.864
  493POPC   C1A 9639   8.941   2.811   8.564
  493POPC   D2A 9640   8.940   2.746   8.264
  493POPC   C3A 9641   8.942   2.730   7.964
  493POPC   C4A 9642   8.988   2.742   7.664
  493POPC   C1B 9643   8.939   2.978   8.564
  493POPC   C2B 9644   8.992   3.054   8.264
  493POPC   C3B 9645   8.917   3.003   7.964
  493POPC   C4B 9646   8.962   3.037   7.664
  494POPC   NC3 9647  43.885  15.931   9.464
  494POPC   PO4 9648  43.854  15.930   9.164
  494POPC   GL1 9649  43.920  15.997   8.864
  494POPC   GL2 9650  43.763  15.904   8.864
  494POPC   C1A 9651  43.931  15.938   8.564
  494POPC   D2A 9652  43.894  15.912   8.264
  494POPC   C3A 9653  43.856  15.984   7.964
  494POPC   C4A 9654  43.860  15.951   7.664
  494POPC   C1B 9655  43.740  15.782   8.564
  494POPC   C2B 9656  43.731  15.760   8.264
  494POPC   C3B 9657  43.698  15.835   7.964
  494POPC   C4B 9658  43.674  15.791   7.664
  495POPC   NC3 9659  14.405  43.863   9.464
  495POPC   PO4 9660  14.451  43.865   9.164
  495POPC   GL1 9661  14.372  43.850   8.864
  495POPC   GL2 9662  14.353  43.747   8.864
  495POPC   C1A 9663  14.358  43.869   8.564
  495POPC   D2A 9664  14.432  43.883   8.264
  495POPC   C3A 9665  14.446  43.909   7.964
  495POPC   C4A 9666  14.434  43.918   7.664
  495POPC   C1B 9667  14.317  43.673   8.564
  495POPC   C2B 9668  14.259  43.664   8.264
  495POPC   C3B 9669  14.258  43.687   7.964
  495POPC   C4B 9670  14.301  43.636   7.664
  496POPC   NC3 9671  39.962  17.506   9.464
  496POPC   PO4 9672  40.053  17.534   9.164
  496POPC   GL1 9673  40.044  17.485   8.864
  496POPC   GL2 9674  39.933  17.425   8.864
  496POPC   C1A 9675  40.026  17.460   8.564
  496POPC   D2A 9676  40.054  17.470   8.264
  496POPC   C3A 9677  39.959  17.477   7.964
  496POPC   C4A 9678  39.970  17.522   7.664
  496POPC   C1B 9679  39.855  17.270   8.564
  496POPC   C2B 9680  39.873  17.331   8.264
  496POPC   C3B 9681  39.874  17.271   7.964
  496POPC   C4B 9682  39.839  17.258   7.664
  497POPC   NC3 9683  27.580  17.503   9.464
  497POPC   PO4 9684  27.556  17.470   9.164
  497POPC   GL1 9685  27.578  17.479   8.864
  497POPC   GL2 9686  27.669  17.410   8.864
  497POPC   C1A 9687  27.597  17.510   8.564
  497POPC   D2A 9688  27.622  17.510   8.264
  497POPC   C3A 9689  27.641  17.519   7.964
  497POPC   C4A 9690  27.618  17.509   7.664
  497POPC   C1B 9691  27.658  17.225   8.564
  497POPC   C2B 9692  27.648  17.267   8.264
  497POPC   C3B 9693  27.657  17.229   7.964
  497POPC   C4B 9694  27.667  17.277   7.664
  498POPC   NC3 9695  43.876   1.974   9.464
  498POPC   PO4 9696  43.878   2.014   9.164
  498POPC   GL1 9697  43.865   2.013   8.864
  498POPC   GL2 9698  43.836   2.060   8.864
  498POPC   C1A 9699  43.852   1.958   8.564
  498POPC   D2A 9700  43.920   2.010   8.264
  498POPC   C3A 9701  43.839   2.001   7.964
  498POPC   C4A 9702  43.845   1.954   7.664
  498POPC   C1B 9703  43.837   2.257   8.564
  498POPC   C2B 9704  43.752   2.192   8.264
  498POPC   C3B 9705  43.743   2.262   7.964
  498POPC   C4B 9706  43.803   2.231   7.664
  499POPC   NC3 9707  12.856  31.507   9.464
  499POPC   PO4 9708  12.850  31.476   9.164
  499POPC   GL1 9709  12.846  31.422   8.864
  499POPC   GL2 9710  12.945  31.488   8.864
  499POPC   C1A 9711  12.886  31.455   8.564
  499POPC   D2A 9712  12.838  31.505   8.264
  499POPC   C3A 9713  12.874  31.506   7.964
  499POPC   C4A 9714  12.889  31.519   7.664
  499POPC   C1B 9715  13.068  31.455   8.564
  499POPC   C2B 9716  13.132  31.439   8.264
  499POPC   C3B 9717  13.097  31.386   7.964
  499POPC   C4B 9718  13.079  31.427   7.664
  500POPC   NC3 9719  41.562  12.894   9.464
  500POPC   PO4 9720  41.534  12.889   9.164
  500POPC   GL1 9721  41.593  12.837   8.864
  500POPC   GL2 9722  41.389  12.883   8.864
  500POPC   C1A 9723  41.522  12.889   8.564
  500POPC   D2A 9724  41.606  12.806   8.264
  500POPC   C3A 9725  41.588  12.856   7.964
  500POPC   C4A 9726  41.572  12.863   7.664
  500POPC   C1B 9727  41.323  12.789   8.564
  500POPC   C2B 9728  41.301  12.860   8.264
  500POPC   C3B 9729  41.334  12.862   7.964
  500POPC   C4B 9730  41.276  12.873   7.664
  501POPC   NC3 9731  11.303  36.862   9.464
  501POPC   PO4 9732  11.322  36.854   9.164
  501POPC   GL1 9733  11.298  36.880   8.864
  501POPC   GL2 9734  11.330  36.795   8.864
  501POPC   C1A 9735  11.314  36.925   8.564
  501POPC   D2A 9736  11.335  36.858   8.264
  501POPC   C3A 9737  11.296  36.894   7.964
  501POPC   C4A 9738  11.331  36.953   7.664
  501POPC   C1B 9739  11.316  36.611   8.564
  501POPC   C2B 9740  11.266  36.615   8.264
  501POPC   C3B 9741  11.237  36.698   7.964
  501POPC   C4B 9742  11.260  36.663   7.664
  502POPC   NC3 9743   5.103  32.976   9.464
  502POPC   PO4 9744   5.130  33.038   9.164
  502POPC   GL1 9745   5.116  33.019   8.864
  502POPC   GL2 9746   5.179  33.126   8.864
  502POPC   C1A 9747   5.069  33.011   8.564
  502POPC   D2A 9748   5.063  33.056   8.264
  502POPC   C3A 9749   5.092  32.980   7.964
  502POPC   C4A 9750   5.088  33.059   7.664
  502POPC   C1B 9751   5.289  33.190   8.564
  502POPC   C2B 9752   5.345  33.163   8.264
  502POPC   C3B 9753   5.336  33.139   7.964
  502POPC   C4B 9754   5.343  33.128   7.664
  503POPC   NC3 9755  36.176  17.532   9.464
  503POPC   PO4 9756  36.144  17.464   9.164
  503POPC   GL1 9757  36.121  17.527   8.864
  503POPC   GL2 9758  36.296  17.489   8.864
  503POPC   C1A 9759  36.163  17.529   8.564
  503POPC   D2A 9760  36.172  17.491   8.264
  503POPC   C3A 9761  36.150  17.550   7.964
  503POPC   C4A 9762  36.164  17.522   7.664
  503POPC   C1B 9763  36.411  17.447   8.564
  503POPC   C2B 9764  36.347  17.430   8.264
  503POPC   C3B 9765  36.412  17.506   7.964
  503POPC   C4B 9766  36.424  17.427   7.664
  504POPC   NC3 9767   6.622  11.287   9.464
  504POPC   PO4 9768   6.655  11.290   9.164
  504POPC   GL1 9769   6.622  11.287   8.864
  504POPC   GL2 9770   6.671  11.418   8.864
  504POPC   C1A 9771   6.667  11.346   8.564
  504POPC   D2A 9772   6.622  11.282   8.264
  504POPC   C3A 9773   6.656  11.327   7.964
  504POPC   C4A 9774   6.639  11.258   7.664
  504POPC   C1B 9775   6.736  11.496   8.564
  504POPC   C2B 9776   6.738  11.498   8.264
  504POPC   C3B 9777   6.742  11.554   7.964
  504POPC   C4B 9778   6.749  11.539   7.664
  505POPC   NC3 9779  39.991  44.680   9.464
  505POPC   PO4 9780  39.984  44.682   9.164
  505POPC   GL1 9781  40.003  44.639   8.864
  505POPC   GL2 9782  40.127  44.648   8.864
  505POPC   C1A 9783  39.994  44.707   8.564
  505POPC   D2A 9784  39.981  44.679   8.264
  505POPC   C3A 9785  40.042  44.705   7.964
  505POPC   C4A 9786  39.965  44.620   7.664
  505POPC   C1B 9787  40.281  44.582   8.564
  505POPC   C2B 9788  40.203  44.572   8.264
  505POPC   C3B 9789  40.229  44.551   7.964
  505POPC   C4B 9790  40.227  44.581   7.664
  506POPC   NC3 9791  42.365  36.113   9.464
  506POPC   PO4 9792  42.303  36.078   9.164
  506POPC   GL1 9793  42.287  36.103   8.864
  506POPC   GL2 9794  42.428  36.132   8.864
  506POPC   C1A 9795  42.327  36.151   8.564
  506POPC   D2A 9796  42.350  36.087   8.264
  506POPC   C3A 9797  42.290  36.120   7.964
  506POPC   C4A 9798  42.297  36.117   7.664
  506POPC   C1B 9799  42.599  36.085   8.564
  506POPC   C2B 9800  42.585  36.098   8.264
  506POPC   C3B 9801  42.574  36.071   7.964
  506POPC   C4B 9802  42.580  36.047   7.664
  507POPC   NC3 9803   8.181  11.299   9.464
  507POPC   PO4 9804   8.190  11.254   9.164
  507POPC   GL1 9805   8.205  11.255   8.864
  507POPC   GL2 9806   8.273  11.368   8.864
  507POPC   C1A 9807   8.161  11.348   8.564
  507POPC   D2A 9808   8.222  11.262   8.264
  507POPC   C3A 9809   8.165  11.276   7.964
  507POPC   C4A 9810   8.181  11.293   7.664
  507POPC   C1B 9811   8.448  11.355   8.564
  507POPC   C2B 9812   8.398  11.382   8.264
  507POPC   C3B 9813   8.420  11.311   7.964
  507POPC   C4B 9814   8.460  11.327   7.664
  508POPC   NC3 9815  35.332  20.597   9.464
  508POPC   PO4 9816  35.364  20.626   9.164
  508POPC   GL1 9817  35.387  20.612   8.864
  508POPC   GL2 9818  35.402  20.529   8.864
  508POPC   C1A 9819  35.357  20.645   8.564
  508POPC   D2A 9820  35.367  20.600   8.264
  508POPC   C3A 9821  35.376  20.637   7.964
  508POPC   C4A 9822  35.313  20.633   7.664
  508POPC   C1B 9823  35.487  20.461   8.564
  508POPC   C2B 9824  35.512  20.443   8.264
  508POPC   C3B 9825  35.549  20.403   7.964
  508POPC   C4B 9826  35.549  20.459   7.664
  509POPC   NC3 9827   1.988  24.521   9.464
  509POPC   PO4 9828   1.977  24.449   9.164
  509POPC   GL1 9829   1.973  24.487   8.864
  509POPC   GL2 9830   1.972  24.357   8.864
  509POPC   C1A 9831   1.956  24.511   8.564
  509POPC   D2A 9832   1.948  24.452   8.264
  509POPC   C3A 9833   2.017  24.442   7.964
  509POPC   C4A 9834   1.977  24.496   7.664
  509POPC   C1B 9835   1.954  24.251   8.564
  509POPC   C2B 9836   1.906  24.208   8.264
  509POPC   C3B 9837   1.930  24.242   7.964
  509POPC   C4B 9838   1.987  24.286   7.664
  510POPC   NC3 9839   3.584  26.833   9.464
  510POPC   PO4 9840   3.493  26.827   9.164
  510POPC   GL1 9841   3.534  26.830   8.864
  510POPC   GL2 9842   3.650  26.813   8.864
  510POPC   C1A 9843   3.542  26.837   8.564
  510POPC   D2A 9844   3.515  26.840   8.264
  510POPC   C3A 9845   3.536  26.771   7.964
  510POPC   C4A 9846   3.539  26.770   7.664
  510POPC   C1B 9847   3.776  26.790   8.564
  510POPC   C2B 9848   3.778  26.794   8.264
  510POPC   C3B 9849   3.778  26.805   7.964
  510POPC   C4B 9850   3.835  26.807   7.664
  511POPC   NC3 9851  35.391  30.679   9.464
  511POPC   PO4 9852  35.395  30.658   9.164
  511POPC   GL1 9853  35.350  30.723   8.864
  511POPC   GL2 9854  35.354  30.598   8.864
  511POPC   C1A 9855  35.332  30.729   8.564
  511POPC   D2A 9856  35.387  30.693   8.264
  511POPC   C3A 9857  35.341  30.715   7.964
  511POPC   C4A 9858  35.359  30.687   7.664
  511POPC   C1B 9859  35.305  30.482   8.564
  511POPC   C2B 9860  35.314  30.426   8.264
  511POPC   C3B 9861  35.280  30.488   7.964
  511POPC   C4B 9862  35.228  30.427   7.664
  512POPC   NC3 9863   3.541  27.574   9.464
  512POPC   PO4 9864   3.537  27.556   9.164
  512POPC   GL1 9865   3.528  27.581   8.864
  512POPC   GL2 9866   3.492  27.510   8.864
  512POPC   C1A 9867   3.565  27.547   8.564
  512POPC   D2A 9868   3.493  27.568   8.264
  512POPC   C3A 9869   3.503  27.574   7.964
  512POPC   C4A 9870   3.578  27.585   7.664
  512POPC   C1B 9871   3.475  27.382   8.564
  512POPC   C2B 9872   3.400  27.383   8.264
  512POPC   C3B 9873   3.485  27.400   7.964
  512POPC   C4B 9874   3.478  27.383   7.664
  513POPC   NC3 9875   0.470   5.139   9.464
  513POPC   PO4 9876   0.412   5.051   9.164
  513POPC   GL1 9877   0.466   5.070   8.864
  513POPC   GL2 9878   0.316   5.123   8.864
  513POPC   C1A 9879   0.468   5.081   8.564
  513POPC   D2A 9880   0.431   5.046   8.264
  513POPC   C3A 9881   0.430   5.116   7.964
  513POPC   C4A 9882   0.416   5.054   7.664
  513POPC   C1B 9883   0.239   5.167   8.564
  513POPC   C2B 9884   0.242   5.167   8.264
  513POPC   C3B 9885   0.209   5.228   7.964
  513POPC   C4B 9886   0.246   5.201   7.664
  514POPC   NC3 9887  21.413  21.429   9.464
  514POPC   PO4 9888  21.410  21.347   9.164
  514POPC   GL1 9889  21.342  21.348   8.864
  514POPC   GL2 9890  21.410  21.493   8.864
  514POPC   C1A 9891  21.338  21.383   8.564
  514POPC   D2A 9892  21.377  21.359   8.264
  514POPC   C3A 9893  21.395  21.382   7.964
  514POPC   C4A 9894  21.404  21.391   7.664
  514POPC   C1B 9895  21.534  21.569   8.564
  514POPC   C2B 9896  21.535  21.650   8.264
  514POPC   C3B 9897  21.450  21.632   7.964
  514POPC   C4B 9898  21.500  21.580   7.664
  515POPC   NC3 9899  24.516   9.742   9.464
  515POPC   PO4 9900  24.473   9.796   9.164
  515POPC   GL1 9901  24.499   9.700   8.864
  515POPC   GL2 9902  24.589   9.718   8.864
  515POPC   C1A 9903  24.445   9.773   8.564
  515POPC   D2A 9904  24.468   9.751   8.264
  515POPC   C3A 9905  24.451   9.783   7.964
  515POPC   C4A 9906  24.496   9.709   7.664
  515POPC   C1B 9907  24.682   9.673   8.564
  515POPC   C2B 9908  24.723   9.647   8.264
  515POPC   C3B 9909  24.684   9.699   7.964
  515POPC   C4B 9910  24.742   9.676   7.664
  516POPC   NC3 9911   2.019  40.816   9.464
  516POPC   PO4 9912   2.026  40.814   9.164
  516POPC   GL1 9913   1.979  40.760   8.864
  516POPC   GL2 9914   1.847  40.777   8.864
  516POPC   C1A 9915   1.974  40.764   8.564
  516POPC   D2A 9916   1.989  40.825   8.264
  516POPC   C3A 9917   1.979  40.781   7.964
  516POPC   C4A 9918   2.005  40.736   7.664
  516POPC   C1B 9919   1.718  40.742   8.564
  516POPC   C2B 9920   1.766  40.769   8.264
  516POPC   C3B 9921   1.771  40.740   7.964
  516POPC   C4B 9922   1.694  40.808   7.664
  517POPC   NC3 9923   2.803  30.719   9.464
  517POPC   PO4 9924   2.788  30.738   9.164
  517POPC   GL1 9925   2.803  30.686   8.864
  517POPC   GL2 9926   2.608  30.706   8.864
  517POPC   C1A 9927   2.776  30.696   8.564
  517POPC   D2A 9928   2.804  30.735   8.264
  517POPC   C3A 9929   2.781  30.697   7.964
  517POPC   C4A 9930   2.796  30.720   7.664
  517POPC   C1B 9931   2.513  30.750   8.564
  517POPC   C2B 9932   2.570  30.746   8.264
  517POPC   C3B 9933   2.484  30.818   7.964
  517POPC   C4B 9934   2.535  30.774   7.664
  518POPC   NC3 9935  20.575  29.160   9.464
  518POPC   PO4 9936  20.580  29.125   9.164
  518POPC   GL1 9937  20.618  29.146   8.864
  518POPC   GL2 9938  20.585  29.018   8.864
  518POPC   C1A 9939  20.616  29.118   8.564
  518POPC   D2A 9940  20.596  29.172   8.264
  518POPC   C3A 9941  20.621  29.178   7.964
  518POPC   C4A 9942  20.658  29.193   7.664
  518POPC   C1B 9943  20.658  28.870   8.564
  518POPC   C2B 9944  20.610  28.858   8.264
  518POPC   C3B 9945  20.658  28.859   7.964
  518POPC   C4B 9946  20.630  28.887   7.664
  519POPC   NC3 9947   5.832  29.192   9.464
  519POPC   PO4 9948   5.895  29.108   9.164
  519POPC   GL1 9949   5.871  29.185   8.864
  519POPC   GL2 9950   5.887  29.064   8.864
  519POPC   C1A 9951   5.834  29.100   8.564
  519POPC   D2A 9952   5.830  29.129   8.264
  519POPC   C3A 9953   5.898  29.188   7.964
  519POPC   C4A 9954   5.841  29.157   7.664
  519POPC   C1B 9955   5.983  28.943   8.564
  519POPC   C2B 9956   5.951  28.906   8.264
  519POPC   C3B 9957   5.982  28.946   7.964
  519POPC   C4B 9958   5.985  28.949   7.664
  520POPC   NC3 9959  34.563   5.847   9.464
  520POPC   PO4 9960  34.583   5.824   9.164
  520POPC   GL1 9961  34.618   5.875   8.864
  520POPC   GL2 9962  34.546   5.985   8.864
  520POPC   C1A 9963  34.621   5.859   8.564
  520POPC   D2A 9964  34.538   5.873   8.264
  520POPC   C3A 9965  34.573   5.837   7.964
  520POPC   C4A 9966  34.545   5.910   7.664
  520POPC   C1B 9967  34.428   6.126   8.564
  520POPC   C2B 9968  34.456   6.115   8.264
  520POPC   C3B 9969  34.411   6.085   7.964
  520POPC   C4B 9970  34.491   6.037   7.664
  521POPC   NC3 9971  11.289  29.113   9.464
  521POPC   PO4 9972  11.345  29.159   9.164
  521POPC   GL1 9973  11.345  29.163   8.864
  521POPC   GL2 9974  11.292  29.260   8.864
  521POPC   C1A 9975  11.326  29.107   8.564
  521POPC   D2A 9976  11.254  29.155   8.264
  521POPC   C3A 9977  11.272  29.161   7.964
  521POPC   C4A 9978  11.320  29.172   7.664
  521POPC   C1B 9979  11.245  29.358   8.564
  521POPC   C2B 9980  11.200  29.345   8.264
  521POPC   C3B 9981  11.232  29.367   7.964
  521POPC   C4B 9982  11.160  29.416   7.664
  522POPC   NC3 9983  26.845  37.708   9.464
  522POPC   PO4 9984  26.833  37.691   9.164
  522POPC   GL1 9985  26.808  37.711   8.864
  522POPC   GL2 9986  26.822  37.526   8.864
  522POPC   C1A 9987  26.827  37.713   8.564
  522POPC   D2A 9988  26.840  37.711   8.264
  522POPC   C3A 9989  26.838  37.721   7.964
  522POPC   C4A 9990  26.801  37.684   7.664
  522POPC   C1B 9991  26.827  37.456   8.564
  522POPC   C2B 9992  26.776  37.408   8.264
  522POPC   C3B 9993  26.841  37.455   7.964
  522POPC   C4B 9994  26.802  37.462   7.664
  523POPC   NC3 9995  31.499  27.616   9.464
  523POPC   PO4 9996  31.518  27.600   9.164
  523POPC   GL1 9997  31.501  27.602   8.864
  523POPC   GL2 9998  31.340  27.537   8.864
  523POPC   C1A 9999  31.460  27.603   8.564
  523POPC   D2A10000  31.520  27.624   8.264
  523POPC   C3A10001  31.511  27.625   7.964
  523POPC   C4A10002  31.423  27.623   7.664
  523POPC   C1B10003  31.289  27.411   8.564
  523POPC   C2B10004  31.292  27.421   8.264
  523POPC   C3B10005  31.234  27.457   7.964
  523POPC   C4B10006  31.224  27.486   7.664
  524POPC   NC310007  12.069  40.758   9.464
  524POPC   PO410008  12.034  40.783   9.164
  524POPC   GL110009  12.093  40.772   8.864
  524POPC   GL210010  12.014  40.819   8.864
  524POPC   C1A10011  12.079  40.767   8.564
  524POPC   D2A10012  12.081  40.740   8.264
  524POPC   C3A10013  12.094  40.744   7.964
  524POPC   C4A10014  12.086  40.741   7.664
  524POPC   C1B10015  11.882  40.953   8.564
  524POPC   C2B10016  11.865  40.887   8.264
  524POPC   C3B10017  11.895  40.939   7.964
  524POPC   C4B10018  11.862  40.898   7.664
  525POPC   NC310019  40.770  38.446   9.464
  525POPC   PO410020  40.818  38.435   9.164
  525POPC   GL110021  40.828  38.427   8.864
  525POPC   GL210022  40.643  38.464   8.864
  525POPC   C1A10023  40.797  38.490   8.564
  525POPC   D2A10024  40.805  38.439   8.264
  525POPC   C3A10025  40.778  38.489   7.964
  525POPC   C4A10026  40.794  38.490   7.664
  525POPC   C1B10027  40.490  38.529   8.564
  525POPC   C2B10028  40.521  38.470   8.264
  525POPC   C3B10029  40.491  38.471   7.964
  525POPC   C4B10030  40.507  38.464   7.664
  526POPC   NC310031  42.305  11.272   9.464
  526POPC   PO410032  42.383  11.297   9.164
  526POPC   GL110033  42.384  11.304   8.864
  526POPC   GL210034  42.342  11.221   8.864
  526POPC   C1A10035  42.285  11.296   8.564
  526POPC   D2A10036  42.311  11.293   8.264
  526POPC   C3A10037  42.340  11.339   7.964
  526POPC   C4A10038  42.362  11.301   7.664
  526POPC   C1B10039  42.372  11.027   8.564
  526POPC   C2B10040  42.326  11.021   8.264
  526POPC   C3B10041  42.358  11.026   7.964
  526POPC   C4B10042  42.375  11.058   7.664
  527POPC   NC310043  44.671  22.960   9.464
  527POPC   PO410044  44.702  22.898   9.164
  527POPC   GL110045  44.674  22.920   8.864
  527POPC   GL210046  44.502  22.987   8.864
  527POPC   C1A10047  44.681  22.958   8.564
  527POPC   D2A10048  44.691  22.899   8.264
  527POPC   C3A10049  44.671  22.951   7.964
  527POPC   C4A10050  44.629  22.950   7.664
  527POPC   C1B10051  44.434  23.010   8.564
  527POPC   C2B10052  44.399  23.000   8.264
  527POPC   C3B10053  44.421  23.061   7.964
  527POPC   C4B10054  44.386  23.056   7.664
  528POPC   NC310055  19.041  35.324   9.464
  528POPC   PO410056  19.030  35.336   9.164
  528POPC   GL110057  19.016  35.323   8.864
  528POPC   GL210058  19.161  35.436   8.864
  528POPC   C1A10059  19.016  35.311   8.564
  528POPC   D2A10060  19.062  35.352   8.264
  528POPC   C3A10061  19.031  35.378   7.964
  528POPC   C4A10062  19.105  35.325   7.664
  528POPC   C1B10063  19.278  35.486   8.564
  528POPC   C2B10064  19.267  35.414   8.264
  528POPC   C3B10065  19.244  35.462   7.964
  528POPC   C4B10066  19.291  35.476   7.664
  529POPC   NC310067  20.635   3.555   9.464
  529POPC   PO410068  20.617   3.550   9.164
  529POPC   GL110069  20.569   3.533   8.864
  529POPC   GL210070  20.748   3.551   8.864
  529POPC   C1A10071  20.578   3.514   8.564
  529POPC   D2A10072  20.570   3.511   8.264
  529POPC   C3A10073  20.653   3.557   7.964
  529POPC   C4A10074  20.627   3.504   7.664
  529POPC   C1B10075  20.884   3.443   8.564
  529POPC   C2B10076  20.879   3.488   8.264
  529POPC   C3B10077  20.876   3.431   7.964
  529POPC   C4B10078  20.839   3.499   7.664
  530POPC   NC310079  30.710  44.706   9.464
  530POPC   PO410080  30.677  44.704   9.164
  530POPC   GL110081  30.655  44.672   8.864
  530POPC   GL210082  30.653  44.820   8.864
  530POPC   C1A10083  30.686  44.625   8.564
  530POPC   D2A10084  30.673  44.625   8.264
  530POPC   C3A10085  30.698  44.613   7.964
  530POPC   C4A10086  30.654  44.612   7.664
  530POPC   C1B10087  30.632  44.910   8.564
  530POPC   C2B10088  30.619  44.855   8.264
  530POPC   C3B10089  30.589  44.866   7.964
  530POPC   C4B10090  30.580  44.859   7.664
  531POPC   NC310091  44.628  28.340   9.464
  531POPC   PO410092  44.630  28.388   9.164
  531POPC   GL110093  44.692  28.413   8.864
  531POPC   GL210094  44.572  28.315   8.864
  531POPC   C1A10095  44.660  28.365   8.564
  531POPC   D2A10096  44.628  28.374   8.264
  531POPC   C3A10097  44.698  28.360   7.964
  531POPC   C4A10098  44.693  28.366   7.664
  531POPC   C1B10099  44.468  28.197   8.564
  531POPC   C2B10100  44.485  28.174   8.264
  531POPC   C3B10101  44.501  28.212   7.964
  531POPC   C4B10102  44.416  28.217   7.664
  532POPC   NC310103   1.192  41.512   9.464
  532POPC   PO410104   1.173  41.511   9.164
  532POPC   GL110105   1.251  41.603   8.864
  532POPC   GL210106   1.098  41.482   8.864
  532POPC   C1A10107   1.196  41.583   8.564
  532POPC   D2A10108   1.249  41.578   8.264
  532POPC   C3A10109   1.192  41.555   7.964
  532POPC   C4A10110   1.168  41.532   7.664
  532POPC   C1B10111   1.010  41.407   8.564
  532POPC   C2B10112   1.035  41.399   8.264
  532POPC   C3B10113   1.041  41.401   7.964
  532POPC   C4B10114   0.960  41.479   7.664
  533POPC   NC310115   1.183   7.379   9.464
  533POPC   PO410116   1.197   7.468   9.164
  533POPC   GL110117   1.171   7.391   8.864
  533POPC   GL210118   1.339   7.387   8.864
  533POPC   C1A10119   1.220   7.396   8.564
  533POPC   D2A10120   1.202   7.389   8.264
  533POPC   C3A10121   1.190   7.471   7.964
  533POPC   C4A10122   1.252   7.453   7.664
  533POPC   C1B10123   1.363   7.265   8.564
  533POPC   C2B10124   1.370   7.290   8.264
  533POPC   C3B10125   1.453   7.255   7.964
  533POPC   C4B10126   1.415   7.221   7.664
  534POPC   NC310127  14.452  26.781   9.464
  534POPC   PO410128  14.366  26.800   9.164
  534POPC   GL110129  14.393  26.779   8.864
  534POPC   GL210130  14.309  26.843   8.864
  534POPC   C1A10131  14.365  26.786   8.564
  534POPC   D2A10132  14.413  26.827   8.264
  534POPC   C3A10133  14.370  26.767   7.964
  534POPC   C4A10134  14.384  26.818   7.664
  534POPC   C1B10135  14.219  26.902   8.564
  534POPC   C2B10136  14.148  26.983   8.264
  534POPC   C3B10137  14.152  26.890   7.964
  534POPC   C4B10138  14.183  26.907   7.664
  535POPC   NC310139  33.786   3.507   9.464
  535POPC   PO410140  33.821   3.565   9.164
  535POPC   GL110141  33.764   3.524   8.864
  535POPC   GL210142  33.937   3.574   8.864
  535POPC   C1A10143  33.815   3.500   8.564
  535POPC   D2A10144  33.796   3.521   8.264
  535POPC   C3A10145  33.771   3.494   7.964
  535POPC   C4A10146  33.778   3.517   7.664
  535POPC   C1B10147  34.096   3.563   8.564
  535POPC   C2B10148  34.083   3.546   8.264
  535POPC   C3B10149  34.067   3.539   7.964
  535POPC   C4B10150  34.050   3.566   7.664
  536POPC   NC310151  34.581  33.780   9.464
  536POPC   PO410152  34.592  33.770   9.164
  536POPC   GL110153  34.543  33.784   8.864
  536POPC   GL210154  34.595  33.964   8.864
  536POPC   C1A10155  34.582  33.764   8.564
  536POPC   D2A10156  34.618  33.819   8.264
  536POPC   C3A10157  34.539  33.809   7.964
  536POPC   C4A10158  34.533  33.833   7.664
  536POPC   C1B10159  34.644  34.056   8.564
  536POPC   C2B10160  34.620  34.090   8.264
  536POPC   C3B10161  34.571  34.050   7.964
  536POPC   C4B10162  34.611  34.066   7.664
  537POPC   NC310163  31.454  42.286   9.464
  537POPC   PO410164  31.469  42.299   9.164
  537POPC   GL110165  31.497  42.363   8.864
  537POPC   GL210166  31.599  42.371   8.864
  537POPC   C1A10167  31.487  42.356   8.564
  537POPC   D2A10168  31.436  42.372   8.264
  537POPC   C3A10169  31.519  42.372   7.964
  537POPC   C4A10170  31.505  42.327   7.664
  537POPC   C1B10171  31.686  42.456   8.564
  537POPC   C2B10172  31.721  42.441   8.264
  537POPC   C3B10173  31.626  42.485   7.964
  537POPC   C4B10174  31.645  42.518   7.664
  538POPC   NC310175   9.710  42.307   9.464
  538POPC   PO410176   9.731  42.301   9.164
  538POPC   GL110177   9.704  42.304   8.864
  538POPC   GL210178   9.622  42.462   8.864
  538POPC   C1A10179   9.793  42.326   8.564
  538POPC   D2A10180   9.770  42.321   8.264
  538POPC   C3A10181   9.743  42.341   7.964
  538POPC   C4A10182   9.788  42.285   7.664
  538POPC   C1B10183   9.569  42.545   8.564
  538POPC   C2B10184   9.627  42.506   8.264
  538POPC   C3B10185   9.570  42.552   7.964
  538POPC   C4B10186   9.537  42.478   7.664
  539POPC   NC310187  40.752   9.738   9.464
  539POPC   PO410188  40.825   9.703   9.164
  539POPC   GL110189  40.826   9.722   8.864
  539POPC   GL210190  40.798   9.918   8.864
  539POPC   C1A10191  40.787   9.718   8.564
  539POPC   D2A10192  40.746   9.795   8.264
  539POPC   C3A10193  40.740   9.713   7.964
  539POPC   C4A10194  40.791   9.789   7.664
  539POPC   C1B10195  40.764   9.972   8.564
  539POPC   C2B10196  40.769  10.009   8.264
  539POPC   C3B10197  40.747  10.002   7.964
  539POPC   C4B10198  40.739  10.006   7.664
  540POPC   NC310199   8.245  36.171   9.464
  540POPC   PO410200   8.194  36.082   9.164
  540POPC   GL110201   8.162  36.116   8.864
  540POPC   GL210202   8.308  36.191   8.864
  540POPC   C1A10203   8.181  36.158   8.564
  540POPC   D2A10204   8.207  36.111   8.264
  540POPC   C3A10205   8.189  36.171   7.964
  540POPC   C4A10206   8.212  36.111   7.664
  540POPC   C1B10207   8.430  36.193   8.564
  540POPC   C2B10208   8.443  36.251   8.264
  540POPC   C3B10209   8.394  36.276   7.964
  540POPC   C4B10210   8.445  36.201   7.664
  541POPC   NC310211  44.652  14.381   9.464
  541POPC   PO410212  44.647  14.435   9.164
  541POPC   GL110213  44.648  14.410   8.864
  541POPC   GL210214  44.586  14.355   8.864
  541POPC   C1A10215  44.697  14.449   8.564
  541POPC   D2A10216  44.686  14.399   8.264
  541POPC   C3A10217  44.675  14.379   7.964
  541POPC   C4A10218  44.648  14.357   7.664
  541POPC   C1B10219  44.451  14.422   8.564
  541POPC   C2B10220  44.435  14.410   8.264
  541POPC   C3B10221  44.363  14.378   7.964
  541POPC   C4B10222  44.420  14.403   7.664
  542POPC   NC310223  19.881  15.133   9.464
  542POPC   PO410224  19.803  15.162   9.164
  542POPC   GL110225  19.835  15.188   8.864
  542POPC   GL210226  19.870  15.309   8.864
  542POPC   C1A10227  19.823  15.175   8.564
  542POPC   D2A10228  19.834  15.149   8.264
  542POPC   C3A10229  19.794  15.188   7.964
  542POPC   C4A10230  19.795  15.198   7.664
  542POPC   C1B10231  20.034  15.386   8.564
  542POPC   C2B10232  19.969  15.390   8.264
  542POPC   C3B10233  20.034  15.348   7.964
  542POPC   C4B10234  19.950  15.379   7.664
  543POPC   NC310235  16.005  27.600   9.464
  543POPC   PO410236  15.953  27.569   9.164
  543POPC   GL110237  15.929  27.637   8.864
  543POPC   GL210238  16.000  27.510   8.864
  543POPC   C1A10239  15.922  27.594   8.564
  543POPC   D2A10240  15.989  27.586   8.264
  543POPC   C3A10241  15.949  27.559   7.964
  543POPC   C4A10242  15.968  27.640   7.664
  543POPC   C1B10243  16.017  27.368   8.564
  543POPC   C2B10244  15.967  27.322   8.264
  543POPC   C3B10245  16.030  27.369   7.964
  543POPC   C4B10246  16.012  27.379   7.664
  544POPC   NC310247   1.961  29.141   9.464
  544POPC   PO410248   2.017  29.172   9.164
  544POPC   GL110249   2.027  29.194   8.864
  544POPC   GL210250   2.128  29.237   8.864
  544POPC   C1A10251   1.981  29.150   8.564
  544POPC   D2A10252   2.034  29.174   8.264
  544POPC   C3A10253   1.951  29.175   7.964
  544POPC   C4A10254   2.003  29.162   7.664
  544POPC   C1B10255   2.254  29.253   8.564
  544POPC   C2B10256   2.207  29.208   8.264
  544POPC   C3B10257   2.271  29.205   7.964
  544POPC   C4B10258   2.244  29.234   7.664
  545POPC   NC310259  19.869  26.771   9.464
  545POPC   PO410260  19.860  26.780   9.164
  545POPC   GL110261  19.819  26.857   8.864
  545POPC   GL210262  19.917  26.929   8.864
  545POPC   C1A10263  19.798  26.788   8.564
  545POPC   D2A10264  19.824  26.822   8.264
  545POPC   C3A10265  19.844  26.781   7.964
  545POPC   C4A10266  19.794  26.799   7.664
  545POPC   C1B10267  19.943  27.067   8.564
  545POPC   C2B10268  19.982  26.980   8.264
  545POPC   C3B10269  20.017  27.025   7.964
  545POPC   C4B10270  19.986  27.022   7.664
  546POPC   NC310271  14.423   0.423   9.464
  546POPC   PO410272  14.368   0.390   9.164
  546POPC   GL110273  14.365   0.451   8.864
  546POPC   GL210274  14.310   0.381   8.864
  546POPC   C1A10275  14.443   0.451   8.564
  546POPC   D2A10276  14.390   0.400   8.264
  546POPC   C3A10277  14.413   0.406   7.964
  546POPC   C4A10278  14.373   0.435   7.664
  546POPC   C1B10279  14.160   0.349   8.564
  546POPC   C2B10280  14.186   0.360   8.264
  546POPC   C3B10281  14.204   0.382   7.964
  546POPC   C4B10282  14.194   0.387   7.664
  547POPC   NC310283  14.392  15.943   9.464
  547POPC   PO410284  14.401  15.993   9.164
  547POPC   GL110285  14.421  15.969   8.864
  547POPC   GL210286  14.527  16.072   8.864
  547POPC   C1A10287  14.416  15.967   8.564
  547POPC   D2A10288  14.430  15.989   8.264
  547POPC   C3A10289  14.385  15.987   7.964
  547POPC   C4A10290  14.365  15.966   7.664
  547POPC   C1B10291  14.628  16.133   8.564
  547POPC   C2B10292  14.622  16.091   8.264
  547POPC   C3B10293  14.636  16.173   7.964
  547POPC   C4B10294  14.621  16.131   7.664
  548POPC   NC310295  16.755   0.485   9.464
  548POPC   PO410296  16.718   0.447   9.164
  548POPC   GL110297  16.773   0.417   8.864
  548POPC   GL210298  16.568   0.500   8.864
  548POPC   C1A10299  16.694   0.429   8.564
  548POPC   D2A10300  16.683   0.468   8.264
  548POPC   C3A10301  16.681   0.433   7.964
  548POPC   C4A10302  16.685   0.429   7.664
  548POPC   C1B10303  16.544   0.532   8.564
  548POPC   C2B10304  16.459   0.576   8.264
  548POPC   C3B10305  16.473   0.559   7.964
  548POPC   C4B10306  16.532   0.547   7.664
  549POPC   NC310307  12.102   8.151   9.464
  549POPC   PO410308  12.111   8.149   9.164
  549POPC   GL110309  12.061   8.173   8.864
  549POPC   GL210310  12.033   8.060   8.864
  549POPC   C1A10311  12.035   8.198   8.564
  549POPC   D2A10312  12.125   8.226   8.264
  549POPC   C3A10313  12.072   8.150   7.964
  549POPC   C4A10314  12.112   8.246   7.664
  549POPC   C1B10315  12.016   7.931   8.564
  549POPC   C2B10316  12.017   7.965   8.264
  549POPC   C3B10317  11.981   7.995   7.964
  549POPC   C4B10318  11.989   7.988   7.664
  550POPC   NC310319  34.526  22.114   9.464
  550POPC   PO410320  34.600  22.124   9.164
  550POPC   GL110321  34.533  22.194   8.864
  550POPC   GL210322  34.666  22.081   8.864
  550POPC   C1A10323  34.602  22.199   8.564
  550POPC   D2A10324  34.586  22.197   8.264
  550POPC   C3A10325  34.557  22.118   7.964
  550POPC   C4A10326  34.594  22.205   7.664
  550POPC   C1B10327  34.786  22.032   8.564
  550POPC   C2B10328  34.767  22.013   8.264
  550POPC   C3B10329  34.738  22.022   7.964
  550POPC   C4B10330  34.734  21.944   7.664
  551POPC   NC310331   9.743  38.446   9.464
  551POPC   PO410332   9.705  38.435   9.164
  551POPC   GL110333   9.774  38.477   8.864
  551POPC   GL210334   9.811  38.341   8.864
  551POPC   C1A10335   9.796  38.435   8.564
  551POPC   D2A10336   9.784  38.422   8.264
  551POPC   C3A10337   9.752  38.444   7.964
  551POPC   C4A10338   9.733  38.452   7.664
  551POPC   C1B10339   9.952  38.263   8.564
  551POPC   C2B10340   9.931  38.264   8.264
  551POPC   C3B10341   9.903  38.257   7.964
  551POPC   C4B10342   9.922  38.307   7.664
  552POPC   NC310343  21.348  34.554   9.464
  552POPC   PO410344  21.427  34.527   9.164
  552POPC   GL110345  21.419  34.569   8.864
  552POPC   GL210346  21.238  34.541   8.864
  552POPC   C1A10347  21.399  34.559   8.564
  552POPC   D2A10348  21.384  34.619   8.264
  552POPC   C3A10349  21.421  34.604   7.964
  552POPC   C4A10350  21.353  34.622   7.664
  552POPC   C1B10351  21.177  34.555   8.564
  552POPC   C2B10352  21.186  34.498   8.264
  552POPC   C3B10353  21.183  34.512   7.964
  552POPC   C4B10354  21.138  34.518   7.664
  553POPC   NC310355   7.421  41.575   9.464
  553POPC   PO410356   7.389  41.514   9.164
  553POPC   GL110357   7.375  41.586   8.864
  553POPC   GL210358   7.486  41.642   8.864
  553POPC   C1A10359   7.435  41.516   8.564
  553POPC   D2A10360   7.443  41.559   8.264
  553POPC   C3A10361   7.374  41.585   7.964
  553POPC   C4A10362   7.402  41.533   7.664
  553POPC   C1B10363   7.504  41.818   8.564
  553POPC   C2B10364   7.458  41.803   8.264
  553POPC   C3B10365   7.444  41.779   7.964
  553POPC   C4B10366   7.449  41.767   7.664
  554POPC   NC310367  19.863   5.134   9.464
  554POPC   PO410368  19.834   5.115   9.164
  554POPC   GL110369  19.852   5.057   8.864
  554POPC   GL210370  19.997   5.073   8.864
  554POPC   C1A10371  19.834   5.108   8.564
  554POPC   D2A10372  19.854   5.105   8.264
  554POPC   C3A10373  19.785   5.052   7.964
  554POPC   C4A10374  19.833   5.118   7.664
  554POPC   C1B10375  20.073   4.966   8.564
  554POPC   C2B10376  20.115   4.976   8.264
  554POPC   C3B10377  20.025   5.038   7.964
  554POPC   C4B10378  20.120   5.019   7.664
  555POPC   NC310379  17.556  43.129   9.464
  555POPC   PO410380  17.536  43.078   9.164
  555POPC   GL110381  17.474  43.156   8.864
  555POPC   GL210382  17.639  43.019   8.864
  555POPC   C1A10383  17.534  43.117   8.564
  555POPC   D2A10384  17.466  43.131   8.264
  555POPC   C3A10385  17.482  43.079   7.964
  555POPC   C4A10386  17.538  43.070   7.664
  555POPC   C1B10387  17.702  42.953   8.564
  555POPC   C2B10388  17.693  42.933   8.264
  555POPC   C3B10389  17.678  43.008   7.964
  555POPC   C4B10390  17.728  42.968   7.664
  556POPC   NC310391  19.822   3.521   9.464
  556POPC   PO410392  19.872   3.577   9.164
  556POPC   GL110393  19.828   3.553   8.864
  556POPC   GL210394  19.676   3.527   8.864
  556POPC   C1A10395  19.875   3.522   8.564
  556POPC   D2A10396  19.814   3.527   8.264
  556POPC   C3A10397  19.836   3.534   7.964
  556POPC   C4A10398  19.835   3.495   7.664
  556POPC   C1B10399  19.574   3.539   8.564
  556POPC   C2B10400  19.575   3.519   8.264
  556POPC   C3B10401  19.547   3.487   7.964
  556POPC   C4B10402  19.553   3.467   7.664
  557POPC   NC310403  34.594  16.717   9.464
  557POPC   PO410404  34.622  16.768   9.164
  557POPC   GL110405  34.605  16.692   8.864
  557POPC   GL210406  34.634  16.849   8.864
  557POPC   C1A10407  34.579  16.746   8.564
  557POPC   D2A10408  34.593  16.691   8.264
  557POPC   C3A10409  34.573  16.700   7.964
  557POPC   C4A10410  34.526  16.723   7.664
  557POPC   C1B10411  34.699  16.951   8.564
  557POPC   C2B10412  34.757  16.958   8.264
  557POPC   C3B10413  34.736  16.945   7.964
  557POPC   C4B10414  34.759  16.902   7.664
  558POPC   NC310415  21.374  37.677   9.464
  558POPC   PO410416  21.408  37.724   9.164
  558POPC   GL110417  21.411  37.649   8.864
  558POPC   GL210418  21.508  37.702   8.864
  558POPC   C1A10419  21.391  37.650   8.564
  558POPC   D2A10420  21.385  37.670   8.264
  558POPC   C3A10421  21.404  37.646   7.964
  558POPC   C4A10422  21.399  37.641   7.664
  558POPC   C1B10423  21.624  37.777   8.564
  558POPC   C2B10424  21.633  37.754   8.264
  558POPC   C3B10425  21.635  37.810   7.964
  558POPC   C4B10426  21.625  37.834   7.664
  559POPC   NC310427  29.175   9.702   9.464
  559POPC   PO410428  29.178   9.726   9.164
  559POPC   GL110429  29.169   9.747   8.864
  559POPC   GL210430  29.065   9.722   8.864
  559POPC   C1A10431  29.096   9.771   8.564
  559POPC   D2A10432  29.175   9.732   8.264
  559POPC   C3A10433  29.123   9.699   7.964
  559POPC   C4A10434  29.103   9.756   7.664
  559POPC   C1B10435  28.952   9.670   8.564
  559POPC   C2B10436  28.892   9.630   8.264
  559POPC   C3B10437  28.931   9.666   7.964
  559POPC   C4B10438  28.924   9.629   7.664
  560POPC   NC310439   5.060  36.103   9.464
  560POPC   PO410440   5.049  36.161   9.164
  560POPC   GL110441   5.129  36.150   8.864
  560POPC   GL210442   5.090  36.048   8.864
  560POPC   C1A10443   5.136  36.137   8.564
  560POPC   D2A10444   5.139  36.095   8.264
  560POPC   C3A10445   5.085  36.173   7.964
  560POPC   C4A10446   5.099  36.175   7.664
  560POPC   C1B10447   5.095  35.858   8.564
  560POPC   C2B10448   5.163  35.929   8.264
  560POPC   C3B10449   5.151  35.883   7.964
  560POPC   C4B10450   5.115  35.867   7.664
  561POPC   NC310451  33.814  31.459   9.464
  561POPC   PO410452  33.757  31.437   9.164
  561POPC   GL110453  33.782  31.451   8.864
  561POPC   GL210454  33.760  31.394   8.864
  561POPC   C1A10455  33.792  31.467   8.564
  561POPC   D2A10456  33.782  31.455   8.264
  561POPC   C3A10457  33.802  31.465   7.964
  561POPC   C4A10458  33.849  31.438   7.664
  561POPC   C1B10459  33.656  31.322   8.564
  561POPC   C2B10460  33.675  31.261   8.264
  561POPC   C3B10461  33.615  31.257   7.964
  561POPC   C4B10462  33.609  31.249   7.664
  562POPC   NC310463  44.650  24.490   9.464
  562POPC   PO410464  44.707  24.487   9.164
  562POPC   GL110465  44.697  24.462   8.864
  562POPC   GL210466  44.548  24.466   8.864
  562POPC   C1A10467  44.612  24.471   8.564
  562POPC   D2A10468  44.670  24.492   8.264
  562POPC   C3A10469  44.686  24.523   7.964
  562POPC   C4A10470  44.669  24.459   7.664
  562POPC   C1B10471  44.404  24.473   8.564
  562POPC   C2B10472  44.374  24.466   8.264
  562POPC   C3B10473  44.463  24.383   7.964
  562POPC   C4B10474  44.396  24.460   7.664
  563POPC   NC310475  33.001  36.949   9.464
  563POPC   PO410476  33.067  36.917   9.164
  563POPC   GL110477  32.976  36.876   8.864
  563POPC   GL210478  33.011  36.788   8.864
  563POPC   C1A10479  33.053  36.910   8.564
  563POPC   D2A10480  33.019  36.873   8.264
  563POPC   C3A10481  33.035  36.917   7.964
  563POPC   C4A10482  33.030  36.936   7.664
  563POPC   C1B10483  32.934  36.684   8.564
  563POPC   C2B10484  32.952  36.713   8.264
  563POPC   C3B10485  32.887  36.647   7.964
  563POPC   C4B10486  32.913  36.662   7.664
  564POPC   NC310487  27.579  18.313   9.464
  564POPC   PO410488  27.594  18.283   9.164
  564POPC   GL110489  27.544  18.263   8.864
  564POPC   GL210490  27.477  18.322   8.864
  564POPC   C1A10491  27.562  18.324   8.564
  564POPC   D2A10492  27.592  18.298   8.264
  564POPC   C3A10493  27.630  18.331   7.964
  564POPC   C4A10494  27.551  18.296   7.664
  564POPC   C1B10495  27.412  18.397   8.564
  564POPC   C2B10496  27.341  18.338   8.264
  564POPC   C3B10497  27.332  18.419   7.964
  564POPC   C4B10498  27.388  18.377   7.664
  565POPC   NC310499  22.925  39.989   9.464
  565POPC   PO410500  22.987  39.983   9.164
  565POPC   GL110501  22.938  40.032   8.864
  565POPC   GL210502  23.009  39.934   8.864
  565POPC   C1A10503  22.938  40.014   8.564
  565POPC   D2A10504  22.892  40.038   8.264
  565POPC   C3A10505  22.978  40.020   7.964
  565POPC   C4A10506  22.899  40.046   7.664
  565POPC   C1B10507  23.030  39.753   8.564
  565POPC   C2B10508  23.089  39.794   8.264
  565POPC   C3B10509  23.082  39.837   7.964
  565POPC   C4B10510  23.116  39.816   7.664
  566POPC   NC310511  14.430  13.595   9.464
  566POPC   PO410512  14.447  13.662   9.164
  566POPC   GL110513  14.356  13.676   8.864
  566POPC   GL210514  14.512  13.722   8.864
  566POPC   C1A10515  14.356  13.588   8.564
  566POPC   D2A10516  14.433  13.621   8.264
  566POPC   C3A10517  14.442  13.619   7.964
  566POPC   C4A10518  14.448  13.653   7.664
  566POPC   C1B10519  14.603  13.767   8.564
  566POPC   C2B10520  14.644  13.786   8.264
  566POPC   C3B10521  14.628  13.791   7.964
  566POPC   C4B10522  14.629  13.745   7.664
  567POPC   NC310523   9.776  11.270   9.464
  567POPC   PO410524   9.774  11.298   9.164
  567POPC   GL110525   9.771  11.340   8.864
  567POPC   GL210526   9.629  11.297   8.864
  567POPC   C1A10527   9.751  11.283   8.564
  567POPC   D2A10528   9.760  11.291   8.264
  567POPC   C3A10529   9.729  11.252   7.964
  567POPC   C4A10530   9.705  11.311   7.664
  567POPC   C1B10531   9.548  11.388   8.564
  567POPC   C2B10532   9.543  11.308   8.264
  567POPC   C3B10533   9.475  11.392   7.964
  567POPC   C4B10534   9.494  11.354   7.664
  568POPC   NC310535   9.775  32.981   9.464
  568POPC   PO410536   9.791  33.058   9.164
  568POPC   GL110537   9.795  32.980   8.864
  568POPC   GL210538   9.625  33.072   8.864
  568POPC   C1A10539   9.757  33.047   8.564
  568POPC   D2A10540   9.725  33.057   8.264
  568POPC   C3A10541   9.725  33.046   7.964
  568POPC   C4A10542   9.765  33.007   7.664
  568POPC   C1B10543   9.521  33.149   8.564
  568POPC   C2B10544   9.504  33.155   8.264
  568POPC   C3B10545   9.537  33.085   7.964
  568POPC   C4B10546   9.491  33.161   7.664
  569POPC   NC310547   1.260   3.556   9.464
  569POPC   PO410548   1.178   3.520   9.164
  569POPC   GL110549   1.204   3.518   8.864
  569POPC   GL210550   1.161   3.621   8.864
  569POPC   C1A10551   1.244   3.575   8.564
  569POPC   D2A10552   1.214   3.493   8.264
  569POPC   C3A10553   1.217   3.585   7.964
  569POPC   C4A10554   1.200   3.523   7.664
  569POPC   C1B10555   1.250   3.804   8.564
  569POPC   C2B10556   1.174   3.837   8.264
  569POPC   C3B10557   1.168   3.824   7.964
  569POPC   C4B10558   1.227   3.787   7.664
  570POPC   NC310559  29.100  44.704   9.464
  570POPC   PO410560  29.141  44.645   9.164
  570POPC   GL110561  29.139  44.661   8.864
  570POPC   GL210562  29.249  44.725   8.864
  570POPC   C1A10563  29.152  44.689   8.564
  570POPC   D2A10564  29.161  44.650   8.264
  570POPC   C3A10565  29.126  44.650   7.964
  570POPC   C4A10566  29.104  44.695   7.664
  570POPC   C1B10567  29.284  44.822   8.564
  570POPC   C2B10568  29.355  44.877   8.264
  570POPC   C3B10569  29.260  44.811   7.964
  570POPC   C4B10570  29.332  44.865   7.664
  571POPC   NC310571  40.776  12.092   9.464
  571POPC   PO410572  40.779  12.056   9.164
  571POPC   GL110573  40.808  12.098   8.864
  571POPC   GL210574  40.691  12.158   8.864
  571POPC   C1A10575  40.758  12.032   8.564
  571POPC   D2A10576  40.749  12.030   8.264
  571POPC   C3A10577  40.824  12.093   7.964
  571POPC   C4A10578  40.778  12.063   7.664
  571POPC   C1B10579  40.558  12.201   8.564
  571POPC   C2B10580  40.529  12.169   8.264
  571POPC   C3B10581  40.605  12.172   7.964
  571POPC   C4B10582  40.619  12.233   7.664
  572POPC   NC310583  26.820  12.045   9.464
  572POPC   PO410584  26.829  12.041   9.164
  572POPC   GL110585  26.820  12.082   8.864
  572POPC   GL210586  26.806  11.933   8.864
  572POPC   C1A10587  26.844  12.066   8.564
  572POPC   D2A10588  26.867  12.032   8.264
  572POPC   C3A10589  26.849  12.122   7.964
  572POPC   C4A10590  26.796  12.040   7.664
  572POPC   C1B10591  26.773  11.815   8.564
  572POPC   C2B10592  26.811  11.873   8.264
  572POPC   C3B10593  26.764  11.859   7.964
  572POPC   C4B10594  26.764  11.845   7.664
  573POPC   NC310595  11.270   1.165   9.464
  573POPC   PO410596  11.257   1.220   9.164
  573POPC   GL110597  11.302   1.189   8.864
  573POPC   GL210598  11.377   1.305   8.864
  573POPC   C1A10599  11.307   1.222   8.564
  573POPC   D2A10600  11.333   1.255   8.264
  573POPC   C3A10601  11.253   1.228   7.964
  573POPC   C4A10602  11.300   1.226   7.664
  573POPC   C1B10603  11.398   1.428   8.564
  573POPC   C2B10604  11.325   1.456   8.264
  573POPC   C3B10605  11.382   1.484   7.964
  573POPC   C4B10606  11.340   1.427   7.664
  574POPC   NC310607   5.831  19.867   9.464
  574POPC   PO410608   5.860  19.855   9.164
  574POPC   GL110609   5.837  19.808   8.864
  574POPC   GL210610   5.896  19.909   8.864
  574POPC   C1A10611   5.907  19.804   8.564
  574POPC   D2A10612   5.838  19.792   8.264
  574POPC   C3A10613   5.824  19.827   7.964
  574POPC   C4A10614   5.908  19.791   7.664
  574POPC   C1B10615   5.913  20.031   8.564
  574POPC   C2B10616   5.969  20.079   8.264
  574POPC   C3B10617   5.976  20.063   7.964
  574POPC   C4B10618   5.964  20.065   7.664
  575POPC   NC310619  31.440   4.356   9.464
  575POPC   PO410620  31.503   4.350   9.164
  575POPC   GL110621  31.517   4.275   8.864
  575POPC   GL210622  31.342   4.335   8.864
  575POPC   C1A10623  31.505   4.322   8.564
  575POPC   D2A10624  31.512   4.320   8.264
  575POPC   C3A10625  31.452   4.285   7.964
  575POPC   C4A10626  31.481   4.287   7.664
  575POPC   C1B10627  31.270   4.281   8.564
  575POPC   C2B10628  31.203   4.283   8.264
  575POPC   C3B10629  31.191   4.301   7.964
  575POPC   C4B10630  31.234   4.280   7.664
  576POPC   NC310631  18.309  14.383   9.464
  576POPC   PO410632  18.296  14.412   9.164
  576POPC   GL110633  18.313  14.438   8.864
  576POPC   GL210634  18.313  14.258   8.864
  576POPC   C1A10635  18.282  14.374   8.564
  576POPC   D2A10636  18.325  14.395   8.264
  576POPC   C3A10637  18.313  14.436   7.964
  576POPC   C4A10638  18.301  14.366   7.664
  576POPC   C1B10639  18.415  14.161   8.564
  576POPC   C2B10640  18.363  14.144   8.264
  576POPC   C3B10641  18.409  14.178   7.964
  576POPC   C4B10642  18.413  14.220   7.664
  577POPC   NC310643  17.534   3.531   9.464
  577POPC   PO410644  17.534   3.497   9.164
  577POPC   GL110645  17.540   3.523   8.864
  577POPC   GL210646  17.478   3.406   8.864
  577POPC   C1A10647  17.553   3.500   8.564
  577POPC   D2A10648  17.504   3.578   8.264
  577POPC   C3A10649  17.503   3.554   7.964
  577POPC   C4A10650  17.538   3.567   7.664
  577POPC   C1B10651  17.467   3.242   8.564
  577POPC   C2B10652  17.525   3.257   8.264
  577POPC   C3B10653  17.545   3.291   7.964
  577POPC   C4B10654  17.492   3.251   7.664
  578POPC   NC310655  18.281  22.137   9.464
  578POPC   PO410656  18.309  22.194   9.164
  578POPC   GL110657  18.322  22.209   8.864
  578POPC   GL210658  18.397  22.239   8.864
  578POPC   C1A10659  18.245  22.159   8.564
  578POPC   D2A10660  18.304  22.120   8.264
  578POPC   C3A10661  18.257  22.139   7.964
  578POPC   C4A10662  18.279  22.166   7.664
  578POPC   C1B10663  18.498  22.222   8.564
  578POPC   C2B10664  18.542  22.237   8.264
  578POPC   C3B10665  18.495  22.193   7.964
  578POPC   C4B10666  18.569  22.207   7.664
  579POPC   NC310667  23.731  40.771   9.464
  579POPC   PO410668  23.717  40.767   9.164
  579POPC   GL110669  23.698  40.738   8.864
  579POPC   GL210670  23.742  40.933   8.864
  579POPC   C1A10671  23.680  40.786   8.564
  579POPC   D2A10672  23.694  40.769   8.264
  579POPC   C3A10673  23.709  40.750   7.964
  579POPC   C4A10674  23.691  40.746   7.664
  579POPC   C1B10675  23.802  41.034   8.564
  579POPC   C2B10676  23.749  41.049   8.264
  579POPC   C3B10677  23.819  41.007   7.964
  579POPC   C4B10678  23.784  40.994   7.664
  580POPC   NC310679  43.062   9.733   9.464
  580POPC   PO410680  43.157   9.733   9.164
  580POPC   GL110681  43.158   9.745   8.864
  580POPC   GL210682  43.004   9.606   8.864
  580POPC   C1A10683  43.157   9.711   8.564
  580POPC   D2A10684  43.141   9.772   8.264
  580POPC   C3A10685  43.087   9.707   7.964
  580POPC   C4A10686  43.133   9.731   7.664
  580POPC   C1B10687  42.948   9.564   8.564
  580POPC   C2B10688  43.000   9.501   8.264
  580POPC   C3B10689  42.974   9.536   7.964
  580POPC   C4B10690  42.924   9.509   7.664
  581POPC   NC310691  24.459  20.604   9.464
  581POPC   PO410692  24.527  20.593   9.164
  581POPC   GL110693  24.519  20.647   8.864
  581POPC   GL210694  24.512  20.517   8.864
  581POPC   C1A10695  24.456  20.640   8.564
  581POPC   D2A10696  24.455  20.592   8.264
  581POPC   C3A10697  24.469  20.563   7.964
  581POPC   C4A10698  24.458  20.644   7.664
  581POPC   C1B10699  24.410  20.358   8.564
  581POPC   C2B10700  24.420  20.377   8.264
  581POPC   C3B10701  24.453  20.375   7.964
  581POPC   C4B10702  24.478  20.385   7.664
  582POPC   NC310703  10.542  20.596   9.464
  582POPC   PO410704  10.565  20.629   9.164
  582POPC   GL110705  10.484  20.601   8.864
  582POPC   GL210706  10.542  20.762   8.864
  582POPC   C1A10707  10.558  20.582   8.564
  582POPC   D2A10708  10.537  20.631   8.264
  582POPC   C3A10709  10.533  20.630   7.964
  582POPC   C4A10710  10.484  20.601   7.664
  582POPC   C1B10711  10.527  20.806   8.564
  582POPC   C2B10712  10.532  20.814   8.264
  582POPC   C3B10713  10.546  20.829   7.964
  582POPC   C4B10714  10.592  20.828   7.664
  583POPC   NC310715  36.122  28.338   9.464
  583POPC   PO410716  36.118  28.369   9.164
  583POPC   GL110717  36.078  28.389   8.864
  583POPC   GL210718  36.075  28.429   8.864
  583POPC   C1A10719  36.104  28.373   8.564
  583POPC   D2A10720  36.131  28.325   8.264
  583POPC   C3A10721  36.081  28.346   7.964
  583POPC   C4A10722  36.084  28.328   7.664
  583POPC   C1B10723  35.981  28.544   8.564
  583POPC   C2B10724  35.991  28.572   8.264
  583POPC   C3B10725  35.996  28.582   7.964
  583POPC   C4B10726  35.986  28.576   7.664
  584POPC   NC310727  18.298  38.411   9.464
  584POPC   PO410728  18.317  38.415   9.164
  584POPC   GL110729  18.258  38.419   8.864
  584POPC   GL210730  18.285  38.547   8.864
  584POPC   C1A10731  18.276  38.482   8.564
  584POPC   D2A10732  18.318  38.425   8.264
  584POPC   C3A10733  18.292  38.450   7.964
  584POPC   C4A10734  18.305  38.454   7.664
  584POPC   C1B10735  18.303  38.746   8.564
  584POPC   C2B10736  18.384  38.677   8.264
  584POPC   C3B10737  18.381  38.679   7.964
  584POPC   C4B10738  18.380  38.676   7.664
  585POPC   NC310739  39.272   8.968   9.464
  585POPC   PO410740  39.196   8.959   9.164
  585POPC   GL110741  39.238   8.984   8.864
  585POPC   GL210742  39.294   8.854   8.864
  585POPC   C1A10743  39.208   8.994   8.564
  585POPC   D2A10744  39.253   8.979   8.264
  585POPC   C3A10745  39.189   8.983   7.964
  585POPC   C4A10746  39.205   8.942   7.664
  585POPC   C1B10747  39.301   8.774   8.564
  585POPC   C2B10748  39.315   8.687   8.264
  585POPC   C3B10749  39.294   8.720   7.964
  585POPC   C4B10750  39.323   8.725   7.664
  586POPC   NC310751   6.653  25.253   9.464
  586POPC   PO410752   6.663  25.258   9.164
  586POPC   GL110753   6.613  25.307   8.864
  586POPC   GL210754   6.546  25.329   8.864
  586POPC   C1A10755   6.660  25.298   8.564
  586POPC   D2A10756   6.610  25.216   8.264
  586POPC   C3A10757   6.625  25.312   7.964
  586POPC   C4A10758   6.673  25.278   7.664
  586POPC   C1B10759   6.449  25.432   8.564
  586POPC   C2B10760   6.542  25.441   8.264
  586POPC   C3B10761   6.527  25.484   7.964
  586POPC   C4B10762   6.513  25.456   7.664
  587POPC   NC310763   1.231  15.178   9.464
  587POPC   PO410764   1.179  15.144   9.164
  587POPC   GL110765   1.252  15.227   8.864
  587POPC   GL210766   1.147  15.059   8.864
  587POPC   C1A10767   1.247  15.179   8.564
  587POPC   D2A10768   1.197  15.189   8.264
  587POPC   C3A10769   1.252  15.165   7.964
  587POPC   C4A10770   1.177  15.217   7.664
  587POPC   C1B10771   1.193  14.971   8.564
  587POPC   C2B10772   1.201  14.922   8.264
  587POPC   C3B10773   1.164  14.885   7.964
  587POPC   C4B10774   1.120  14.933   7.664
  588POPC   NC310775   4.350  18.321   9.464
  588POPC   PO410776   4.299  18.279   9.164
  588POPC   GL110777   4.332  18.265   8.864
  588POPC   GL210778   4.291  18.401   8.864
  588POPC   C1A10779   4.323  18.281   8.564
  588POPC   D2A10780   4.302  18.278   8.264
  588POPC   C3A10781   4.361  18.306   7.964
  588POPC   C4A10782   4.354  18.282   7.664
  588POPC   C1B10783   4.228  18.500   8.564
  588POPC   C2B10784   4.246  18.572   8.264
  588POPC   C3B10785   4.205  18.560   7.964
  588POPC   C4B10786   4.224  18.474   7.664
  589POPC   NC310787  43.878  24.505   9.464
  589POPC   PO410788  43.893  24.533   9.164
  589POPC   GL110789  43.901  24.520   8.864
  589POPC   GL210790  44.014  24.429   8.864
  589POPC   C1A10791  43.891  24.513   8.564
  589POPC   D2A10792  43.888  24.482   8.264
  589POPC   C3A10793  43.920  24.482   7.964
  589POPC   C4A10794  43.935  24.461   7.664
  589POPC   C1B10795  44.088  24.410   8.564
  589POPC   C2B10796  44.101  24.363   8.264
  589POPC   C3B10797  44.087  24.365   7.964
  589POPC   C4B10798  44.083  24.373   7.664
  590POPC   NC310799   5.111   1.979   9.464
  590POPC   PO410800   5.097   2.001   9.164
  590POPC   GL110801   5.062   1.979   8.864
  590POPC   GL210802   4.985   2.038   8.864
  590POPC   C1A10803   5.075   2.025   8.564
  590POPC   D2A10804   5.131   1.978   8.264
  590POPC   C3A10805   5.098   2.033   7.964
  590POPC   C4A10806   5.058   2.030   7.664
  590POPC   C1B10807   4.887   2.110   8.564
  590POPC   C2B10808   4.865   2.176   8.264
  590POPC   C3B10809   4.875   2.186   7.964
  590POPC   C4B10810   4.902   2.182   7.664
  591POPC   NC310811  32.286  12.119   9.464
  591POPC   PO410812  32.289  12.034   9.164
  591POPC   GL110813  32.211  12.094   8.864
  591POPC   GL210814  32.146  12.203   8.864
  591POPC   C1A10815  32.251  12.043   8.564
  591POPC   D2A10816  32.278  12.117   8.264
  591POPC   C3A10817  32.283  12.039   7.964
  591POPC   C4A10818  32.234  12.111   7.664
  591POPC   C1B10819  32.094  12.262   8.564
  591POPC   C2B10820  32.098  12.306   8.264
  591POPC   C3B10821  32.045  12.258   7.964
  591POPC   C4B10822  32.092  12.303   7.664
  592POPC   NC310823  30.710  12.038   9.464
  592POPC   PO410824  30.657  12.036   9.164
  592POPC   GL110825  30.690  12.030   8.864
  592POPC   GL210826  30.769  12.185   8.864
  592POPC   C1A10827  30.743  12.029   8.564
  592POPC   D2A10828  30.709  12.044   8.264
  592POPC   C3A10829  30.739  12.093   7.964
  592POPC   C4A10830  30.704  12.027   7.664
  592POPC   C1B10831  30.853  12.250   8.564
  592POPC   C2B10832  30.908  12.272   8.264
  592POPC   C3B10833  30.909  12.206   7.964
  592POPC   C4B10834  30.887  12.216   7.664
  593POPC   NC310835  19.030  31.490   9.464
  593POPC   PO410836  19.077  31.496   9.164
  593POPC   GL110837  19.053  31.516   8.864
  593POPC   GL210838  19.172  31.488   8.864
  593POPC   C1A10839  19.096  31.492   8.564
  593POPC   D2A10840  19.104  31.506   8.264
  593POPC   C3A10841  19.102  31.496   7.964
  593POPC   C4A10842  19.026  31.488   7.664
  593POPC   C1B10843  19.348  31.468   8.564
  593POPC   C2B10844  19.350  31.476   8.264
  593POPC   C3B10845  19.323  31.472   7.964
  593POPC   C4B10846  19.337  31.483   7.664
  594POPC   NC310847  25.270  22.986   9.464
  594POPC   PO410848  25.315  22.920   9.164
  594POPC   GL110849  25.302  22.914   8.864
  594POPC   GL210850  25.363  23.007   8.864
  594POPC   C1A10851  25.248  22.901   8.564
  594POPC   D2A10852  25.278  22.986   8.264
  594POPC   C3A10853  25.257  22.888   7.964
  594POPC   C4A10854  25.270  22.942   7.664
  594POPC   C1B10855  25.346  23.183   8.564
  594POPC   C2B10856  25.365  23.195   8.264
  594POPC   C3B10857  25.403  23.178   7.964
  594POPC   C4B10858  25.378  23.145   7.664
  595POPC   NC310859  32.273  12.888   9.464
  595POPC   PO410860  32.265  12.827   9.164
  595POPC   GL110861  32.226  12.896   8.864
  595POPC   GL210862  32.249  12.700   8.864
  595POPC   C1A10863  32.246  12.869   8.564
  595POPC   D2A10864  32.238  12.806   8.264
  595POPC   C3A10865  32.295  12.843   7.964
  595POPC   C4A10866  32.293  12.865   7.664
  595POPC   C1B10867  32.342  12.628   8.564
  595POPC   C2B10868  32.333  12.639   8.264
  595POPC   C3B10869  32.356  12.592   7.964
  595POPC   C4B10870  32.349  12.629   7.664
  596POPC   NC310871  44.626  13.625   9.464
  596POPC   PO410872  44.672  13.620   9.164
  596POPC   GL110873  44.672  13.584   8.864
  596POPC   GL210874  44.779  13.736   8.864
  596POPC   C1A10875  44.673  13.584   8.564
  596POPC   D2A10876  44.659  13.650   8.264
  596POPC   C3A10877  44.655  13.581   7.964
  596POPC   C4A10878  44.634  13.634   7.664
  596POPC   C1B10879  44.816  13.803   8.564
  596POPC   C2B10880  44.802  13.781   8.264
  596POPC   C3B10881  44.838  13.841   7.964
  596POPC   C4B10882  44.827  13.877   7.664
  597POPC   NC310883  36.156  15.975   9.464
  597POPC   PO410884  36.097  15.980   9.164
  597POPC   GL110885  36.147  15.955   8.864
  597POPC   GL210886  36.277  15.952   8.864
  597POPC   C1A10887  36.174  15.969   8.564
  597POPC   D2A10888  36.150  15.946   8.264
  597POPC   C3A10889  36.131  15.986   7.964
  597POPC   C4A10890  36.108  15.967   7.664
  597POPC   C1B10891  36.408  16.045   8.564
  597POPC   C2B10892  36.391  16.029   8.264
  597POPC   C3B10893  36.322  16.006   7.964
  597POPC   C4B10894  36.375  15.980   7.664
  598POPC   NC310895  32.270   0.395   9.464
  598POPC   PO410896  32.240   0.392   9.164
  598POPC   GL110897  32.269   0.473   8.864
  598POPC   GL210898  32.394   0.450   8.864
  598POPC   C1A10899  32.244   0.468   8.564
  598POPC   D2A10900  32.203   0.419   8.264
  598POPC   C3A10901  32.238   0.478   7.964
  598POPC   C4A10902  32.278   0.459   7.664
  598POPC   C1B10903  32.515   0.454   8.564
  598POPC   C2B10904  32.460   0.504   8.264
  598POPC   C3B10905  32.458   0.468   7.964
  598POPC   C4B10906  32.484   0.441   7.664
  599POPC   NC310907  36.877  17.488   9.464
  599POPC   PO410908  36.901  17.556   9.164
  599POPC   GL110909  36.908  17.525   8.864
  599POPC   GL210910  36.996  17.567   8.864
  599POPC   C1A10911  36.940  17.477   8.564
  599POPC   D2A10912  36.863  17.480   8.264
  599POPC   C3A10913  36.874  17.502   7.964
  599POPC   C4A10914  36.865  17.510   7.664
  599POPC   C1B10915  37.020  17.673   8.564
  599POPC   C2B10916  37.071  17.670   8.264
  599POPC   C3B10917  37.082  17.670   7.964
  599POPC   C4B10918  37.071  17.695   7.664
  600POPC   NC310919  42.300  27.579   9.464
  600POPC   PO410920  42.356  27.640   9.164
  600POPC   GL110921  42.315  27.629   8.864
  600POPC   GL210922  42.252  27.669   8.864
  600POPC   C1A10923  42.296  27.628   8.564
  600POPC   D2A10924  42.304  27.634   8.264
  600POPC   C3A10925  42.366  27.637   7.964
  600POPC   C4A10926  42.332  27.642   7.664
  600POPC   C1B10927  42.218  27.794   8.564
  600POPC   C2B10928  42.224  27.780   8.264
  600POPC   C3B10929  42.187  27.792   7.964
  600POPC   C4B10930  42.186  27.757   7.664
  601POPC   NC310931  26.853  33.845   9.464
  601POPC   PO410932  26.782  33.756   9.164
  601POPC   GL110933  26.794  33.778   8.864
  601POPC   GL210934  26.884  33.654   8.864
  601POPC   C1A10935  26.787  33.828   8.564
  601POPC   D2A10936  26.791  33.824   8.264
  601POPC   C3A10937  26.853  33.832   7.964
  601POPC   C4A10938  26.822  33.812   7.664
  601POPC   C1B10939  26.933  33.567   8.564
  601POPC   C2B10940  26.932  33.564   8.264
  601POPC   C3B10941  26.882  33.590   7.964
  601POPC   C4B10942  26.906  33.564   7.664
  602POPC   NC310943  23.669   3.525   9.464
  602POPC   PO410944  23.720   3.532   9.164
  602POPC   GL110945  23.701   3.591   8.864
  602POPC   GL210946  23.630   3.549   8.864
  602POPC   C1A10947  23.669   3.538   8.564
  602POPC   D2A10948  23.758   3.512   8.264
  602POPC   C3A10949  23.721   3.583   7.964
  602POPC   C4A10950  23.672   3.519   7.664
  602POPC   C1B10951  23.506   3.571   8.564
  602POPC   C2B10952  23.483   3.620   8.264
  602POPC   C3B10953  23.460   3.637   7.964
  602POPC   C4B10954  23.485   3.643   7.664
  603POPC   NC310955  28.399  12.855   9.464
  603POPC   PO410956  28.340  12.878   9.164
  603POPC   GL110957  28.410  12.816   8.864
  603POPC   GL210958  28.259  12.803   8.864
  603POPC   C1A10959  28.354  12.804   8.564
  603POPC   D2A10960  28.370  12.839   8.264
  603POPC   C3A10961  28.403  12.886   7.964
  603POPC   C4A10962  28.407  12.871   7.664
  603POPC   C1B10963  28.095  12.758   8.564
  603POPC   C2B10964  28.125  12.832   8.264
  603POPC   C3B10965  28.130  12.774   7.964
  603POPC   C4B10966  28.165  12.769   7.664
  604POPC   NC310967  39.996  35.326   9.464
  604POPC   PO410968  40.012  35.361   9.164
  604POPC   GL110969  39.985  35.341   8.864
  604POPC   GL210970  39.873  35.408   8.864
  604POPC   C1A10971  40.009  35.339   8.564
  604POPC   D2A10972  39.992  35.360   8.264
  604POPC   C3A10973  39.961  35.319   7.964
  604POPC   C4A10974  39.963  35.307   7.664
  604POPC   C1B10975  39.842  35.475   8.564
  604POPC   C2B10976  39.788  35.502   8.264
  604POPC   C3B10977  39.846  35.529   7.964
  604POPC   C4B10978  39.827  35.456   7.664
  605POPC   NC310979  40.765   0.444   9.464
  605POPC   PO410980  40.764   0.416   9.164
  605POPC   GL110981  40.782   0.448   8.864
  605POPC   GL210982  40.689   0.338   8.864
  605POPC   C1A10983  40.813   0.420   8.564
  605POPC   D2A10984  40.803   0.474   8.264
  605POPC   C3A10985  40.781   0.442   7.964
  605POPC   C4A10986  40.777   0.470   7.664
  605POPC   C1B10987  40.616   0.235   8.564
  605POPC   C2B10988  40.622   0.216   8.264
  605POPC   C3B10989  40.599   0.241   7.964
  605POPC   C4B10990  40.632   0.301   7.664
  606POPC   NC310991  16.690  10.483   9.464
  606POPC   PO410992  16.691  10.519   9.164
  606POPC   GL110993  16.748  10.556   8.864
  606POPC   GL210994  16.683  10.612   8.864
  606POPC   C1A10995  16.722  10.545   8.564
  606POPC   D2A10996  16.720  10.496   8.264
  606POPC   C3A10997  16.756  10.533   7.964
  606POPC   C4A10998  16.722  10.487   7.664
  606POPC   C1B10999  16.640  10.808   8.564
  606POPC   C2B11000  16.679  10.814   8.264
  606POPC   C3B11001  16.703  10.774   7.964
  606POPC   C4B11002  16.711  10.799   7.664
  607POPC   NC311003  19.795  16.742   9.464
  607POPC   PO411004  19.830  16.698   9.164
  607POPC   GL111005  19.829  16.682   8.864
  607POPC   GL211006  19.805  16.886   8.864
  607POPC   C1A11007  19.801  16.728   8.564
  607POPC   D2A11008  19.799  16.727   8.264
  607POPC   C3A11009  19.831  16.700   7.964
  607POPC   C4A11010  19.832  16.721   7.664
  607POPC   C1B11011  19.794  17.005   8.564
  607POPC   C2B11012  19.851  16.990   8.264
  607POPC   C3B11013  19.799  17.014   7.964
  607POPC   C4B11014  19.822  17.011   7.664
  608POPC   NC311015   7.390  10.527   9.464
  608POPC   PO411016   7.454  10.495   9.164
  608POPC   GL111017   7.461  10.540   8.864
  608POPC   GL211018   7.397  10.376   8.864
  608POPC   C1A11019   7.464  10.508   8.564
  608POPC   D2A11020   7.383  10.550   8.264
  608POPC   C3A11021   7.408  10.569   7.964
  608POPC   C4A11022   7.384  10.535   7.664
  608POPC   C1B11023   7.396  10.302   8.564
  608POPC   C2B11024   7.439  10.298   8.264
  608POPC   C3B11025   7.437  10.247   7.964
  608POPC   C4B11026   7.380  10.299   7.664
  609POPC   NC311027   5.856   2.763   9.464
  609POPC   PO411028   5.878   2.752   9.164
  609POPC   GL111029   5.852   2.772   8.864
  609POPC   GL211030   5.846   2.899   8.864
  609POPC   C1A11031   5.851   2.720   8.564
  609POPC   D2A11032   5.871   2.779   8.264
  609POPC   C3A11033   5.886   2.736   7.964
  609POPC   C4A11034   5.819   2.751   7.664
  609POPC   C1B11035   5.836   3.022   8.564
  609POPC   C2B11036   5.837   3.013   8.264
  609POPC   C3B11037   5.844   3.025   7.964
  609POPC   C4B11038   5.836   3.050   7.664
  610POPC   NC311039  19.016   4.300   9.464
  610POPC   PO411040  19.030   4.278   9.164
  610POPC   GL111041  19.037   4.292   8.864
  610POPC   GL211042  18.992   4.368   8.864
  610POPC   C1A11043  19.066   4.365   8.564
  610POPC   D2A11044  19.094   4.329   8.264
  610POPC   C3A11045  19.015   4.353   7.964
  610POPC   C4A11046  19.104   4.340   7.664
  610POPC   C1B11047  18.834   4.471   8.564
  610POPC   C2B11048  18.867   4.476   8.264
  610POPC   C3B11049  18.830   4.442   7.964
  610POPC   C4B11050  18.829   4.439   7.664
  611POPC   NC311051  41.602  36.082   9.464
  611POPC   PO411052  41.524  36.110   9.164
  611POPC   GL111053  41.558  36.130   8.864
  611POPC   GL211054  41.433  36.031   8.864
  611POPC   C1A11055  41.601  36.087   8.564
  611POPC   D2A11056  41.524  36.130   8.264
  611POPC   C3A11057  41.523  36.169   7.964
  611POPC   C4A11058  41.511  36.112   7.664
  611POPC   C1B11059  41.365  35.990   8.564
  611POPC   C2B11060  41.368  35.947   8.264
  611POPC   C3B11061  41.396  35.940   7.964
  611POPC   C4B11062  41.402  36.001   7.664
  612POPC   NC311063  13.582  12.122   9.464
  612POPC   PO411064  13.640  12.046   9.164
  612POPC   GL111065  13.647  12.084   8.864
  612POPC   GL211066  13.525  12.180   8.864
  612POPC   C1A11067  13.638  12.076   8.564
  612POPC   D2A11068  13.625  12.118   8.264
  612POPC   C3A11069  13.663  12.117   7.964
  612POPC   C4A11070  13.601  12.039   7.664
  612POPC   C1B11071  13.456  12.302   8.564
  612POPC   C2B11072  13.489  12.321   8.264
  612POPC   C3B11073  13.486  12.322   7.964
  612POPC   C4B11074  13.525  12.316   7.664
  613POPC   NC311075   5.073  32.263   9.464
  613POPC   PO411076   5.137  32.198   9.164
  613POPC   GL111077   5.110  32.205   8.864
  613POPC   GL211078   4.998  32.182   8.864
  613POPC   C1A11079   5.048  32.292   8.564
  613POPC   D2A11080   5.065  32.287   8.264
  613POPC   C3A11081   5.099  32.240   7.964
  613POPC   C4A11082   5.125  32.203   7.664
  613POPC   C1B11083   4.879  32.208   8.564
  613POPC   C2B11084   4.836  32.249   8.264
  613POPC   C3B11085   4.863  32.209   7.964
  613POPC   C4B11086   4.801  32.183   7.664
  614POPC   NC311087   5.886   0.475   9.464
  614POPC   PO411088   5.844   0.441   9.164
  614POPC   GL111089   5.872   0.433   8.864
  614POPC   GL211090   5.812   0.591   8.864
  614POPC   C1A11091   5.913   0.475   8.564
  614POPC   D2A11092   5.877   0.469   8.264
  614POPC   C3A11093   5.845   0.426   7.964
  614POPC   C4A11094   5.864   0.405   7.664
  614POPC   C1B11095   5.781   0.674   8.564
  614POPC   C2B11096   5.759   0.635   8.264
  614POPC   C3B11097   5.755   0.637   7.964
  614POPC   C4B11098   5.834   0.701   7.664
  615POPC   NC311099  20.566  33.016   9.464
  615POPC   PO411100  20.619  33.046   9.164
  615POPC   GL111101  20.631  33.057   8.864
  615POPC   GL211102  20.713  32.898   8.864
  615POPC   C1A11103  20.607  32.985   8.564
  615POPC   D2A11104  20.644  33.055   8.264
  615POPC   C3A11105  20.574  33.016   7.964
  615POPC   C4A11106  20.639  33.033   7.664
  615POPC   C1B11107  20.824  32.839   8.564
  615POPC   C2B11108  20.819  32.880   8.264
  615POPC   C3B11109  20.788  32.797   7.964
  615POPC   C4B11110  20.835  32.821   7.664
  616POPC   NC311111  33.817  26.823   9.464
  616POPC   PO411112  33.769  26.828   9.164
  616POPC   GL111113  33.808  26.865   8.864
  616POPC   GL211114  33.938  26.915   8.864
  616POPC   C1A11115  33.825  26.794   8.564
  616POPC   D2A11116  33.772  26.849   8.264
  616POPC   C3A11117  33.759  26.780   7.964
  616POPC   C4A11118  33.771  26.853   7.664
  616POPC   C1B11119  34.030  26.977   8.564
  616POPC   C2B11120  33.983  26.949   8.264
  616POPC   C3B11121  33.979  26.934   7.964
  616POPC   C4B11122  34.047  26.939   7.664
  617POPC   NC311123   3.505  30.685   9.464
  617POPC   PO411124   3.534  30.722   9.164
  617POPC   GL111125   3.549  30.744   8.864
  617POPC   GL211126   3.539  30.772   8.864
  617POPC   C1A11127   3.530  30.744   8.564
  617POPC   D2A11128   3.519  30.711   8.264
  617POPC   C3A11129   3.541  30.723   7.964
  617POPC   C4A11130   3.589  30.746   7.664
  617POPC   C1B11131   3.610  30.914   8.564
  617POPC   C2B11132   3.579  30.906   8.264
  617POPC   C3B11133   3.630  30.936   7.964
  617POPC   C4B11134   3.624  30.914   7.664
  618POPC   NC311135  20.637  40.006   9.464
  618POPC   PO411136  20.604  40.014   9.164
  618POPC   GL111137  20.577  40.004   8.864
  618POPC   GL211138  20.749  40.049   8.864
  618POPC   C1A11139  20.632  39.977   8.564
  618POPC   D2A11140  20.621  40.055   8.264
  618POPC   C3A11141  20.565  39.998   7.964
  618POPC   C4A11142  20.598  39.962   7.664
  618POPC   C1B11143  20.803  40.039   8.564
  618POPC   C2B11144  20.878  40.058   8.264
  618POPC   C3B11145  20.837  40.067   7.964
  618POPC   C4B11146  20.854  40.030   7.664
  619POPC   NC311147  41.520  37.640   9.464
  619POPC   PO411148  41.536  37.680   9.164
  619POPC   GL111149  41.575  37.635   8.864
  619POPC   GL211150  41.426  37.662   8.864
  619POPC   C1A11151  41.527  37.631   8.564
  619POPC   D2A11152  41.538  37.636   8.264
  619POPC   C3A11153  41.542  37.671   7.964
  619POPC   C4A11154  41.545  37.674   7.664
  619POPC   C1B11155  41.281  37.631   8.564
  619POPC   C2B11156  41.285  37.661   8.264
  619POPC   C3B11157  41.298  37.613   7.964
  619POPC   C4B11158  41.344  37.599   7.664
  620POPC   NC311159  10.525  26.069   9.464
  620POPC   PO411160  10.569  26.085   9.164
  620POPC   GL111161  10.480  26.050   8.864
  620POPC   GL211162  10.360  25.996   8.864
  620POPC   C1A11163  10.532  25.999   8.564
  620POPC   D2A11164  10.568  26.064   8.264
  620POPC   C3A11165  10.573  26.081   7.964
  620POPC   C4A11166  10.515  26.006   7.664
  620POPC   C1B11167  10.279  25.968   8.564
  620POPC   C2B11168  10.274  25.944   8.264
  620POPC   C3B11169  10.335  25.942   7.964
  620POPC   C4B11170  10.293  25.972   7.664
  621POPC   NC311171  30.682  33.040   9.464
  621POPC   PO411172  30.695  33.074   9.164
  621POPC   GL111173  30.695  33.018   8.864
  621POPC   GL211174  30.602  32.958   8.864
  621POPC   C1A11175  30.670  32.976   8.564
  621POPC   D2A11176  30.695  33.045   8.264
  621POPC   C3A11177  30.647  33.041   7.964
  621POPC   C4A11178  30.660  33.000   7.664
  621POPC   C1B11179  30.517  32.875   8.564
  621POPC   C2B11180  30.479  32.883   8.264
  621POPC   C3B11181  30.523  32.936   7.964
  621POPC   C4B11182  30.434  32.889   7.664
  622POPC   NC311183  28.418  32.282   9.464
  622POPC   PO411184  28.371  32.262   9.164
  622POPC   GL111185  28.339  32.259   8.864
  622POPC   GL211186  28.211  32.307   8.864
  622POPC   C1A11187  28.397  32.246   8.564
  622POPC   D2A11188  28.394  32.254   8.264
  622POPC   C3A11189  28.346  32.219   7.964
  622POPC   C4A11190  28.356  32.286   7.664
  622POPC   C1B11191  28.101  32.372   8.564
  622POPC   C2B11192  28.085  32.310   8.264
  622POPC   C3B11193  28.134  32.358   7.964
  622POPC   C4B11194  28.120  32.321   7.664
  623POPC   NC311195   0.422  29.952   9.464
  623POPC   PO411196   0.461  29.931   9.164
  623POPC   GL111197   0.401  29.901   8.864
  623POPC   GL211198   0.306  29.803   8.864
  623POPC   C1A11199   0.429  29.879   8.564
  623POPC   D2A11200   0.444  29.944   8.264
  623POPC   C3A11201   0.426  29.874   7.964
  623POPC   C4A11202   0.389  29.907   7.664
  623POPC   C1B11203   0.270  29.808   8.564
  623POPC   C2B11204   0.262  29.737   8.264
  623POPC   C3B11205   0.270  29.756   7.964
  623POPC   C4B11206   0.273  29.732   7.664
  624POPC   NC311207  17.467  36.135   9.464
  624POPC   PO411208  17.493  36.130   9.164
  624POPC   GL111209  17.497  36.094   8.864
  624POPC   GL211210  17.622  36.159   8.864
  624POPC   C1A11211  17.552  36.086   8.564
  624POPC   D2A11212  17.485  36.151   8.264
  624POPC   C3A11213  17.477  36.112   7.964
  624POPC   C4A11214  17.489  36.089   7.664
  624POPC   C1B11215  17.689  36.302   8.564
  624POPC   C2B11216  17.672  36.269   8.264
  624POPC   C3B11217  17.662  36.260   7.964
  624POPC   C4B11218  17.709  36.305   7.664
  625POPC   NC311219  35.305  18.261   9.464
  625POPC   PO411220  35.388  18.304   9.164
  625POPC   GL111221  35.312  18.275   8.864
  625POPC   GL211222  35.266  18.267   8.864
  625POPC   C1A11223  35.387  18.311   8.564
  625POPC   D2A11224  35.338  18.256   8.264
  625POPC   C3A11225  35.379  18.314   7.964
  625POPC   C4A11226  35.319  18.254   7.664
  625POPC   C1B11227  35.072  18.221   8.564
  625POPC   C2B11228  35.104  18.152   8.264
  625POPC   C3B11229  35.132  18.180   7.964
  625POPC   C4B11230  35.157  18.201   7.664
  626POPC   NC311231  19.823  42.344   9.464
  626POPC   PO411232  19.853  42.347   9.164
  626POPC   GL111233  19.863  42.304   8.864
  626POPC   GL211234  19.823  42.236   8.864
  626POPC   C1A11235  19.876  42.370   8.564
  626POPC   D2A11236  19.787  42.299   8.264
  626POPC   C3A11237  19.873  42.302   7.964
  626POPC   C4A11238  19.812  42.350   7.664
  626POPC   C1B11239  19.839  42.132   8.564
  626POPC   C2B11240  19.885  42.093   8.264
  626POPC   C3B11241  19.827  42.112   7.964
  626POPC   C4B11242  19.849  42.041   7.664
  627POPC   NC311243  23.714  24.509   9.464
  627POPC   PO411244  23.677  24.440   9.164
  627POPC   GL111245  23.760  24.470   8.864
  627POPC   GL211246  23.585  24.392   8.864
  627POPC   C1A11247  23.730  24.440   8.564
  627POPC   D2A11248  23.666  24.534   8.264
  627POPC   C3A11249  23.690  24.456   7.964
  627POPC   C4A11250  23.699  24.450   7.664
  627POPC   C1B11251  23.510  24.261   8.564
  627POPC   C2B11252  23.599  24.267   8.264
  627POPC   C3B11253  23.598  24.280   7.964
  627POPC   C4B11254  23.519  24.288   7.664
  628POPC   NC311255  42.379   7.428   9.464
  628POPC   PO411256  42.288   7.463   9.164
  628POPC   GL111257  42.351   7.379   8.864
  628POPC   GL211258  42.221   7.365   8.864
  628POPC   C1A11259  42.354   7.464   8.564
  628POPC   D2A11260  42.379   7.459   8.264
  628POPC   C3A11261  42.319   7.390   7.964
  628POPC   C4A11262  42.319   7.436   7.664
  628POPC   C1B11263  42.133   7.398   8.564
  628POPC   C2B11264  42.086   7.394   8.264
  628POPC   C3B11265  42.081   7.358   7.964
  628POPC   C4B11266  42.143   7.363   7.664
  629POPC   NC311267  19.051  41.536   9.464
  629POPC   PO411268  19.106  41.550   9.164
  629POPC   GL111269  19.053  41.510   8.864
  629POPC   GL211270  19.116  41.455   8.864
  629POPC   C1A11271  19.031  41.511   8.564
  629POPC   D2A11272  19.012  41.573   8.264
  629POPC   C3A11273  19.081  41.600   7.964
  629POPC   C4A11274  19.076  41.516   7.664
  629POPC   C1B11275  19.136  41.321   8.564
  629POPC   C2B11276  19.093  41.327   8.264
  629POPC   C3B11277  19.092  41.324   7.964
  629POPC   C4B11278  19.106  41.309   7.664
  630POPC   NC311279  14.446  38.485   9.464
  630POPC   PO411280  14.378  38.449   9.164
  630POPC   GL111281  14.426  38.431   8.864
  630POPC   GL211282  14.464  38.610   8.864
  630POPC   C1A11283  14.447  38.503   8.564
  630POPC   D2A11284  14.400  38.429   8.264
  630POPC   C3A11285  14.402  38.465   7.964
  630POPC   C4A11286  14.361  38.410   7.664
  630POPC   C1B11287  14.433  38.735   8.564
  630POPC   C2B11288  14.426  38.699   8.264
  630POPC   C3B11289  14.514  38.681   7.964
  630POPC   C4B11290  14.509  38.681   7.664
  631POPC   NC311291  21.411  18.266   9.464
  631POPC   PO411292  21.409  18.307   9.164
  631POPC   GL111293  21.424  18.259   8.864
  631POPC   GL211294  21.432  18.350   8.864
  631POPC   C1A11295  21.359  18.312   8.564
  631POPC   D2A11296  21.404  18.303   8.264
  631POPC   C3A11297  21.412  18.271   7.964
  631POPC   C4A11298  21.355  18.244   7.664
  631POPC   C1B11299  21.472  18.548   8.564
  631POPC   C2B11300  21.514  18.545   8.264
  631POPC   C3B11301  21.464  18.505   7.964
  631POPC   C4B11302  21.476  18.508   7.664
  632POPC   NC311303   3.507  38.448   9.464
  632POPC   PO411304   3.564  38.500   9.164
  632POPC   GL111305   3.499  38.448   8.864
  632POPC   GL211306   3.547  38.302   8.864
  632POPC   C1A11307   3.524  38.411   8.564
  632POPC   D2A11308   3.551  38.405   8.264
  632POPC   C3A11309   3.502  38.460   7.964
  632POPC   C4A11310   3.588  38.499   7.664
  632POPC   C1B11311   3.635  38.169   8.564
  632POPC   C2B11312   3.651  38.190   8.264
  632POPC   C3B11313   3.614  38.167   7.964
  632POPC   C4B11314   3.617  38.249   7.664
  633POPC   NC311315   4.310  27.546   9.464
  633POPC   PO411316   4.348  27.586   9.164
  633POPC   GL111317   4.318  27.561   8.864
  633POPC   GL211318   4.416  27.664   8.864
  633POPC   C1A11319   4.298  27.573   8.564
  633POPC   D2A11320   4.358  27.591   8.264
  633POPC   C3A11321   4.290  27.606   7.964
  633POPC   C4A11322   4.357  27.640   7.664
  633POPC   C1B11323   4.427  27.792   8.564
  633POPC   C2B11324   4.426  27.786   8.264
  633POPC   C3B11325   4.416  27.761   7.964
  633POPC   C4B11326   4.460  27.799   7.664
  634POPC   NC311327  35.362  26.796   9.464
  634POPC   PO411328  35.319  26.823   9.164
  634POPC   GL111329  35.344  26.859   8.864
  634POPC   GL211330  35.304  26.664   8.864
  634POPC   C1A11331  35.326  26.797   8.564
  634POPC   D2A11332  35.392  26.797   8.264
  634POPC   C3A11333  35.342  26.836   7.964
  634POPC   C4A11334  35.357  26.863   7.664
  634POPC   C1B11335  35.278  26.617   8.564
  634POPC   C2B11336  35.203  26.584   8.264
  634POPC   C3B11337  35.252  26.558   7.964
  634POPC   C4B11338  35.279  26.630   7.664
  635POPC   NC311339  26.089   0.469   9.464
  635POPC   PO411340  26.072   0.436   9.164
  635POPC   GL111341  26.016   0.401   8.864
  635POPC   GL211342  26.076   0.382   8.864
  635POPC   C1A11343  26.015   0.418   8.564
  635POPC   D2A11344  26.054   0.446   8.264
  635POPC   C3A11345  25.998   0.464   7.964
  635POPC   C4A11346  26.062   0.466   7.664
  635POPC   C1B11347  26.201   0.229   8.564
  635POPC   C2B11348  26.233   0.257   8.264
  635POPC   C3B11349  26.244   0.280   7.964
  635POPC   C4B11350  26.182   0.250   7.664
  636POPC   NC311351  28.324  26.772   9.464
  636POPC   PO411352  28.380  26.792   9.164
  636POPC   GL111353  28.378  26.809   8.864
  636POPC   GL211354  28.271  26.869   8.864
  636POPC   C1A11355  28.401  26.782   8.564
  636POPC   D2A11356  28.365  26.811   8.264
  636POPC   C3A11357  28.413  26.795   7.964
  636POPC   C4A11358  28.369  26.865   7.664
  636POPC   C1B11359  28.177  26.972   8.564
  636POPC   C2B11360  28.188  26.919   8.264
  636POPC   C3B11361  28.160  26.963   7.964
  636POPC   C4B11362  28.125  26.922   7.664
  637POPC   NC311363  12.854  12.063   9.464
  637POPC   PO411364  12.832  12.091   9.164
  637POPC   GL111365  12.837  12.093   8.864
  637POPC   GL211366  12.784  12.012   8.864
  637POPC   C1A11367  12.836  12.116   8.564
  637POPC   D2A11368  12.866  12.026   8.264
  637POPC   C3A11369  12.899  12.044   7.964
  637POPC   C4A11370  12.857  12.119   7.664
  637POPC   C1B11371  12.640  11.950   8.564
  637POPC   C2B11372  12.619  11.908   8.264
  637POPC   C3B11373  12.688  11.903   7.964
  637POPC   C4B11374  12.669  11.960   7.664
  638POPC   NC311375   2.002  37.707   9.464
  638POPC   PO411376   1.982  37.649   9.164
  638POPC   GL111377   1.980  37.722   8.864
  638POPC   GL211378   1.889  37.734   8.864
  638POPC   C1A11379   2.027  37.713   8.564
  638POPC   D2A11380   1.997  37.643   8.264
  638POPC   C3A11381   2.035  37.652   7.964
  638POPC   C4A11382   1.974  37.668   7.664
  638POPC   C1B11383   1.798  37.795   8.564
  638POPC   C2B11384   1.828  37.800   8.264
  638POPC   C3B11385   1.834  37.848   7.964
  638POPC   C4B11386   1.794  37.874   7.664
  639POPC   NC311387  22.974  17.484   9.464
  639POPC   PO411388  22.941  17.549   9.164
  639POPC   GL111389  22.981  17.535   8.864
  639POPC   GL211390  23.042  17.638   8.864
  639POPC   C1A11391  22.986  17.550   8.564
  639POPC   D2A11392  22.959  17.458   8.264
  639POPC   C3A11393  22.939  17.481   7.964
  639POPC   C4A11394  22.973  17.487   7.664
  639POPC   C1B11395  23.106  17.677   8.564
  639POPC   C2B11396  23.059  17.726   8.264
  639POPC   C3B11397  23.140  17.703   7.964
  639POPC   C4B11398  23.080  17.683   7.664
  640POPC   NC311399  15.913  42.367   9.464
  640POPC   PO411400  15.924  42.342   9.164
  640POPC   GL111401  15.991  42.339   8.864
  640POPC   GL211402  15.820  42.277   8.864
  640POPC   C1A11403  15.932  42.339   8.564
  640POPC   D2A11404  15.907  42.304   8.264
  640POPC   C3A11405  15.911  42.321   7.964
  640POPC   C4A11406  16.002  42.323   7.664
  640POPC   C1B11407  15.726  42.204   8.564
  640POPC   C2B11408  15.732  42.271   8.264
  640POPC   C3B11409  15.683  42.259   7.964
  640POPC   C4B11410  15.710  42.249   7.664
  641POPC   NC311411  26.055  34.532   9.464
  641POPC   PO411412  26.090  34.573   9.164
  641POPC   GL111413  26.037  34.597   8.864
  641POPC   GL211414  25.893  34.595   8.864
  641POPC   C1A11415  26.050  34.619   8.564
  641POPC   D2A11416  26.020  34.573   8.264
  641POPC   C3A11417  26.032  34.542   7.964
  641POPC   C4A11418  26.037  34.608   7.664
  641POPC   C1B11419  25.768  34.641   8.564
  641POPC   C2B11420  25.787  34.657   8.264
  641POPC   C3B11421  25.756  34.629   7.964
  641POPC   C4B11422  25.835  34.612   7.664
  642POPC   NC311423  29.193  26.802   9.464
  642POPC   PO411424  29.183  26.812   9.164
  642POPC   GL111425  29.122  26.845   8.864
  642POPC   GL211426  29.252  26.836   8.864
  642POPC   C1A11427  29.136  26.787   8.564
  642POPC   D2A11428  29.129  26.828   8.264
  642POPC   C3A11429  29.135  26.836   7.964
  642POPC   C4A11430  29.111  26.807   7.664
  642POPC   C1B11431  29.396  26.961   8.564
  642POPC   C2B11432  29.367  26.920   8.264
  642POPC   C3B11433  29.358  26.960   7.964
  642POPC   C4B11434  29.328  26.908   7.664
  643POPC   NC311435  37.676  17.480   9.464
  643POPC   PO411436  37.638  17.554   9.164
  643POPC   GL111437  37.678  17.474   8.864
  643POPC   GL211438  37.789  17.615   8.864
  643POPC   C1A11439  37.655  17.463   8.564
  643POPC   D2A11440  37.704  17.554   8.264
  643POPC   C3A11441  37.723  17.503   7.964
  643POPC   C4A11442  37.676  17.532   7.664
  643POPC   C1B11443  37.861  17.738   8.564
  643POPC   C2B11444  37.806  17.739   8.264
  643POPC   C3B11445  37.893  17.658   7.964
  643POPC   C4B11446  37.799  17.647   7.664
  644POPC   NC311447   0.488  39.194   9.464
  644POPC   PO411448   0.465  39.232   9.164
  644POPC   GL111449   0.467  39.244   8.864
  644POPC   GL211450   0.286  39.333   8.864
  644POPC   C1A11451   0.389  39.211   8.564
  644POPC   D2A11452   0.466  39.240   8.264
  644POPC   C3A11453   0.443  39.242   7.964
  644POPC   C4A11454   0.471  39.269   7.664
  644POPC   C1B11455   0.182  39.314   8.564
  644POPC   C2B11456   0.176  39.383   8.264
  644POPC   C3B11457   0.214  39.320   7.964
  644POPC   C4B11458   0.235  39.380   7.664
  645POPC   NC311459   7.467  17.482   9.464
  645POPC   PO411460   7.372  17.490   9.164
  645POPC   GL111461   7.458  17.486   8.864
  645POPC   GL211462   7.265  17.451   8.864
  645POPC   C1A11463   7.447  17.553   8.564
  645POPC   D2A11464   7.395  17.541   8.264
  645POPC   C3A11465   7.407  17.522   7.964
  645POPC   C4A11466   7.392  17.541   7.664
  645POPC   C1B11467   7.217  17.469   8.564
  645POPC   C2B11468   7.171  17.508   8.264
  645POPC   C3B11469   7.209  17.462   7.964
  645POPC   C4B11470   7.127  17.429   7.664
  646POPC   NC311471   1.213  30.746   9.464
  646POPC   PO411472   1.185  30.713   9.164
  646POPC   GL111473   1.245  30.682   8.864
  646POPC   GL211474   1.271  30.583   8.864
  646POPC   C1A11475   1.166  30.708   8.564
  646POPC   D2A11476   1.243  30.721   8.264
  646POPC   C3A11477   1.255  30.727   7.964
  646POPC   C4A11478   1.175  30.731   7.664
  646POPC   C1B11479   1.365  30.433   8.564
  646POPC   C2B11480   1.324  30.497   8.264
  646POPC   C3B11481   1.347  30.472   7.964
  646POPC   C4B11482   1.299  30.427   7.664
  647POPC   NC311483  41.510  34.621   9.464
  647POPC   PO411484  41.601  34.556   9.164
  647POPC   GL111485  41.552  34.533   8.864
  647POPC   GL211486  41.511  34.498   8.864
  647POPC   C1A11487  41.530  34.591   8.564
  647POPC   D2A11488  41.530  34.530   8.264
  647POPC   C3A11489  41.596  34.580   7.964
  647POPC   C4A11490  41.586  34.565   7.664
  647POPC   C1B11491  41.517  34.346   8.564
  647POPC   C2B11492  41.478  34.385   8.264
  647POPC   C3B11493  41.508  34.377   7.964
  647POPC   C4B11494  41.451  34.387   7.664
  648POPC   NC311495  24.523  12.802   9.464
  648POPC   PO411496  24.440  12.822   9.164
  648POPC   GL111497  24.512  12.870   8.864
  648POPC   GL211498  24.414  12.770   8.864
  648POPC   C1A11499  24.445  12.856   8.564
  648POPC   D2A11500  24.501  12.817   8.264
  648POPC   C3A11501  24.460  12.809   7.964
  648POPC   C4A11502  24.497  12.874   7.664
  648POPC   C1B11503  24.356  12.686   8.564
  648POPC   C2B11504  24.391  12.630   8.264
  648POPC   C3B11505  24.386  12.606   7.964
  648POPC   C4B11506  24.334  12.632   7.664
  649POPC   NC311507  15.130  26.829   9.464
  649POPC   PO411508  15.143  26.859   9.164
  649POPC   GL111509  15.151  26.822   8.864
  649POPC   GL211510  15.304  26.724   8.864
  649POPC   C1A11511  15.202  26.834   8.564
  649POPC   D2A11512  15.195  26.833   8.264
  649POPC   C3A11513  15.216  26.858   7.964
  649POPC   C4A11514  15.205  26.836   7.664
  649POPC   C1B11515  15.415  26.729   8.564
  649POPC   C2B11516  15.372  26.636   8.264
  649POPC   C3B11517  15.434  26.722   7.964
  649POPC   C4B11518  15.391  26.693   7.664
  650POPC   NC311519   8.961   3.543   9.464
  650POPC   PO411520   9.000   3.524   9.164
  650POPC   GL111521   8.949   3.522   8.864
  650POPC   GL211522   8.883   3.602   8.864
  650POPC   C1A11523   8.996   3.535   8.564
  650POPC   D2A11524   8.984   3.494   8.264
  650POPC   C3A11525   8.985   3.500   7.964
  650POPC   C4A11526   8.932   3.591   7.664
  650POPC   C1B11527   8.712   3.578   8.564
  650POPC   C2B11528   8.697   3.622   8.264
  650POPC   C3B11529   8.699   3.656   7.964
  650POPC   C4B11530   8.723   3.630   7.664
  651POPC   NC311531  36.935   1.260   9.464
  651POPC   PO411532  36.880   1.196   9.164
  651POPC   GL111533  36.951   1.253   8.864
  651POPC   GL211534  37.033   1.153   8.864
  651POPC   C1A11535  36.887   1.168   8.564
  651POPC   D2A11536  36.873   1.190   8.264
  651POPC   C3A11537  36.876   1.219   7.964
  651POPC   C4A11538  36.935   1.229   7.664
  651POPC   C1B11539  37.079   1.107   8.564
  651POPC   C2B11540  37.127   1.107   8.264
  651POPC   C3B11541  37.160   1.078   7.964
  651POPC   C4B11542  37.081   1.075   7.664
  652POPC   NC311543  37.672  28.392   9.464
  652POPC   PO411544  37.654  28.365   9.164
  652POPC   GL111545  37.707  28.394   8.864
  652POPC   GL211546  37.584  28.326   8.864
  652POPC   C1A11547  37.654  28.365   8.564
  652POPC   D2A11548  37.667  28.363   8.264
  652POPC   C3A11549  37.654  28.347   7.964
  652POPC   C4A11550  37.671  28.333   7.664
  652POPC   C1B11551  37.450  28.259   8.564
  652POPC   C2B11552  37.401  28.268   8.264
  652POPC   C3B11553  37.416  28.282   7.964
  652POPC   C4B11554  37.468  28.298   7.664
  653POPC   NC311555  44.654  27.588   9.464
  653POPC   PO411556  44.644  27.573   9.164
  653POPC   GL111557  44.711  27.600   8.864
  653POPC   GL211558  44.557  27.516   8.864
  653POPC   C1A11559  44.628  27.592   8.564
  653POPC   D2A11560  44.623  27.566   8.264
  653POPC   C3A11561  44.643  27.593   7.964
  653POPC   C4A11562  44.702  27.595   7.664
  653POPC   C1B11563  44.521  27.378   8.564
  653POPC   C2B11564  44.537  27.419   8.264
  653POPC   C3B11565  44.534  27.402   7.964
  653POPC   C4B11566  44.572  27.409   7.664
  654POPC   NC311567  25.224  12.831   9.464
  654POPC   PO411568  25.253  12.856   9.164
  654POPC   GL111569  25.292  12.838   8.864
  654POPC   GL211570  25.239  12.690   8.864
  654POPC   C1A11571  25.309  12.887   8.564
  654POPC   D2A11572  25.309  12.852   8.264
  654POPC   C3A11573  25.289  12.878   7.964
  654POPC   C4A11574  25.303  12.814   7.664
  654POPC   C1B11575  25.224  12.575   8.564
  654POPC   C2B11576  25.162  12.577   8.264
  654POPC   C3B11577  25.246  12.625   7.964
  654POPC   C4B11578  25.249  12.641   7.664
  655POPC   NC311579   0.470  18.316   9.464
  655POPC   PO411580   0.418  18.254   9.164
  655POPC   GL111581   0.423  18.251   8.864
  655POPC   GL211582   0.310  18.284   8.864
  655POPC   C1A11583   0.482  18.252   8.564
  655POPC   D2A11584   0.426  18.249   8.264
  655POPC   C3A11585   0.427  18.282   7.964
  655POPC   C4A11586   0.397  18.233   7.664
  655POPC   C1B11587   0.241  18.245   8.564
  655POPC   C2B11588   0.242  18.197   8.264
  655POPC   C3B11589   0.214  18.185   7.964
  655POPC   C4B11590   0.163  18.194   7.664
  656POPC   NC311591  43.924  17.485   9.464
  656POPC   PO411592  43.864  17.537   9.164
  656POPC   GL111593  43.861  17.486   8.864
  656POPC   GL211594  44.004  17.469   8.864
  656POPC   C1A11595  43.879  17.526   8.564
  656POPC   D2A11596  43.913  17.550   8.264
  656POPC   C3A11597  43.898  17.523   7.964
  656POPC   C4A11598  43.911  17.524   7.664
  656POPC   C1B11599  44.108  17.413   8.564
  656POPC   C2B11600  44.084  17.422   8.264
  656POPC   C3B11601  44.138  17.356   7.964
  656POPC   C4B11602  44.154  17.364   7.664
  657POPC   NC311603  33.795  36.912   9.464
  657POPC   PO411604  33.796  36.871   9.164
  657POPC   GL111605  33.796  36.935   8.864
  657POPC   GL211606  33.724  37.012   8.864
  657POPC   C1A11607  33.832  36.946   8.564
  657POPC   D2A11608  33.782  36.925   8.264
  657POPC   C3A11609  33.778  36.949   7.964
  657POPC   C4A11610  33.791  36.904   7.664
  657POPC   C1B11611  33.677  37.094   8.564
  657POPC   C2B11612  33.692  37.134   8.264
  657POPC   C3B11613  33.663  37.134   7.964
  657POPC   C4B11614  33.695  37.077   7.664
  658POPC   NC311615  16.717   7.373   9.464
  658POPC   PO411616  16.741   7.456   9.164
  658POPC   GL111617  16.721   7.426   8.864
  658POPC   GL211618  16.753   7.337   8.864
  658POPC   C1A11619  16.751   7.456   8.564
  658POPC   D2A11620  16.739   7.400   8.264
  658POPC   C3A11621  16.754   7.407   7.964
  658POPC   C4A11622  16.746   7.414   7.664
  658POPC   C1B11623  16.751   7.129   8.564
  658POPC   C2B11624  16.714   7.190   8.264
  658POPC   C3B11625  16.751   7.170   7.964
  658POPC   C4B11626  16.723   7.175   7.664
  659POPC   NC311627  15.948   0.475   9.464
  659POPC   PO411628  15.977   0.473   9.164
  659POPC   GL111629  15.923   0.466   8.864
  659POPC   GL211630  15.986   0.305   8.864
  659POPC   C1A11631  15.945   0.410   8.564
  659POPC   D2A11632  16.001   0.462   8.264
  659POPC   C3A11633  15.919   0.392   7.964
  659POPC   C4A11634  15.981   0.485   7.664
  659POPC   C1B11635  16.062   0.174   8.564
  659POPC   C2B11636  16.046   0.233   8.264
  659POPC   C3B11637  16.009   0.222   7.964
  659POPC   C4B11638  15.987   0.175   7.664
  660POPC   NC311639  12.091  19.834   9.464
  660POPC   PO411640  12.060  19.854   9.164
  660POPC   GL111641  12.052  19.847   8.864
  660POPC   GL211642  11.989  19.967   8.864
  660POPC   C1A11643  12.059  19.852   8.564
  660POPC   D2A11644  12.038  19.809   8.264
  660POPC   C3A11645  12.036  19.827   7.964
  660POPC   C4A11646  12.035  19.861   7.664
  660POPC   C1B11647  11.888  19.993   8.564
  660POPC   C2B11648  11.949  20.052   8.264
  660POPC   C3B11649  11.929  20.064   7.964
  660POPC   C4B11650  11.929  20.071   7.664
  661POPC   NC311651  22.134  38.476   9.464
  661POPC   PO411652  22.205  38.435   9.164
  661POPC   GL111653  22.141  38.416   8.864
  661POPC   GL211654  22.222  38.584   8.864
  661POPC   C1A11655  22.181  38.445   8.564
  661POPC   D2A11656  22.182  38.425   8.264
  661POPC   C3A11657  22.186  38.480   7.964
  661POPC   C4A11658  22.198  38.461   7.664
  661POPC   C1B11659  22.303  38.641   8.564
  661POPC   C2B11660  22.281  38.682   8.264
  661POPC   C3B11661  22.245  38.723   7.964
  661POPC   C4B11662  22.207  38.645   7.664
  662POPC   NC311663  32.274  31.437   9.464
  662POPC   PO411664  32.226  31.498   9.164
  662POPC   GL111665  32.293  31.491   8.864
  662POPC   GL211666  32.331  31.534   8.864
  662POPC   C1A11667  32.296  31.428   8.564
  662POPC   D2A11668  32.285  31.439   8.264
  662POPC   C3A11669  32.212  31.518   7.964
  662POPC   C4A11670  32.262  31.432   7.664
  662POPC   C1B11671  32.492  31.655   8.564
  662POPC   C2B11672  32.492  31.644   8.264
  662POPC   C3B11673  32.423  31.662   7.964
  662POPC   C4B11674  32.419  31.573   7.664
  663POPC   NC311675  12.098  12.805   9.464
  663POPC   PO411676  12.046  12.861   9.164
  663POPC   GL111677  12.062  12.815   8.864
  663POPC   GL211678  12.178  12.732   8.864
  663POPC   C1A11679  12.125  12.883   8.564
  663POPC   D2A11680  12.078  12.895   8.264
  663POPC   C3A11681  12.033  12.863   7.964
  663POPC   C4A11682  12.061  12.875   7.664
  663POPC   C1B11683  12.216  12.606   8.564
  663POPC   C2B11684  12.213  12.654   8.264
  663POPC   C3B11685  12.221  12.627   7.964
  663POPC   C4B11686  12.184  12.649   7.664
  664POPC   NC311687  19.855  27.566   9.464
  664POPC   PO411688  19.820  27.588   9.164
  664POPC   GL111689  19.810  27.551   8.864
  664POPC   GL211690  19.821  27.702   8.864
  664POPC   C1A11691  19.876  27.571   8.564
  664POPC   D2A11692  19.817  27.640   8.264
  664POPC   C3A11693  19.872  27.576   7.964
  664POPC   C4A11694  19.841  27.617   7.664
  664POPC   C1B11695  19.673  27.839   8.564
  664POPC   C2B11696  19.723  27.782   8.264
  664POPC   C3B11697  19.701  27.837   7.964
  664POPC   C4B11698  19.695  27.829   7.664
  665POPC   NC311699   6.655  39.248   9.464
  665POPC   PO411700   6.630  39.249   9.164
  665POPC   GL111701   6.630  39.194   8.864
  665POPC   GL211702   6.774  39.177   8.864
  665POPC   C1A11703   6.625  39.187   8.564
  665POPC   D2A11704   6.651  39.194   8.264
  665POPC   C3A11705   6.685  39.201   7.964
  665POPC   C4A11706   6.636  39.185   7.664
  665POPC   C1B11707   6.839  39.101   8.564
  665POPC   C2B11708   6.784  39.013   8.264
  665POPC   C3B11709   6.801  39.103   7.964
  665POPC   C4B11710   6.836  39.085   7.664
  666POPC   NC311711   0.451  36.086   9.464
  666POPC   PO411712   0.481  36.171   9.164
  666POPC   GL111713   0.434  36.158   8.864
  666POPC   GL211714   0.289  36.073   8.864
  666POPC   C1A11715   0.395  36.138   8.564
  666POPC   D2A11716   0.400  36.137   8.264
  666POPC   C3A11717   0.422  36.161   7.964
  666POPC   C4A11718   0.406  36.082   7.664
  666POPC   C1B11719   0.228  36.099   8.564
  666POPC   C2B11720   0.155  36.078   8.264
  666POPC   C3B11721   0.147  36.126   7.964
  666POPC   C4B11722   0.197  36.093   7.664
  667POPC   NC311723  19.040  16.698   9.464
  667POPC   PO411724  19.080  16.687   9.164
  667POPC   GL111725  19.070  16.765   8.864
  667POPC   GL211726  18.919  16.696   8.864
  667POPC   C1A11727  19.079  16.779   8.564
  667POPC   D2A11728  19.072  16.713   8.264
  667POPC   C3A11729  19.092  16.764   7.964
  667POPC   C4A11730  19.020  16.692   7.664
  667POPC   C1B11731  18.813  16.693   8.564
  667POPC   C2B11732  18.856  16.667   8.264
  667POPC   C3B11733  18.836  16.700   7.964
  667POPC   C4B11734  18.807  16.660   7.664
  668POPC   NC311735  30.683  19.837   9.464
  668POPC   PO411736  30.679  19.844   9.164
  668POPC   GL111737  30.672  19.855   8.864
  668POPC   GL211738  30.785  19.920   8.864
  668POPC   C1A11739  30.709  19.868   8.564
  668POPC   D2A11740  30.688  19.798   8.264
  668POPC   C3A11741  30.704  19.881   7.964
  668POPC   C4A11742  30.686  19.884   7.664
  668POPC   C1B11743  30.928  19.961   8.564
  668POPC   C2B11744  30.942  20.038   8.264
  668POPC   C3B11745  30.881  20.023   7.964
  668POPC   C4B11746  30.926  19.990   7.664
  669POPC   NC311747  22.889  41.537   9.464
  669POPC   PO411748  22.943  41.511   9.164
  669POPC   GL111749  22.889  41.547   8.864
  669POPC   GL211750  22.857  41.660   8.864
  669POPC   C1A11751  22.924  41.607   8.564
  669POPC   D2A11752  22.961  41.522   8.264
  669POPC   C3A11753  22.899  41.583   7.964
  669POPC   C4A11754  22.973  41.604   7.664
  669POPC   C1B11755  22.689  41.676   8.564
  669POPC   C2B11756  22.678  41.702   8.264
  669POPC   C3B11757  22.679  41.676   7.964
  669POPC   C4B11758  22.714  41.677   7.664
  670POPC   NC311759   1.993  40.025   9.464
  670POPC   PO411760   2.025  39.967   9.164
  670POPC   GL111761   2.015  39.975   8.864
  670POPC   GL211762   1.841  39.949   8.864
  670POPC   C1A11763   2.005  39.972   8.564
  670POPC   D2A11764   2.018  39.995   8.264
  670POPC   C3A11765   2.007  40.036   7.964
  670POPC   C4A11766   2.014  40.031   7.664
  670POPC   C1B11767   1.758  39.913   8.564
  670POPC   C2B11768   1.712  39.994   8.264
  670POPC   C3B11769   1.794  39.957   7.964
  670POPC   C4B11770   1.767  39.958   7.664
  671POPC   NC311771  36.163  39.183   9.464
  671POPC   PO411772  36.157  39.219   9.164
  671POPC   GL111773  36.119  39.197   8.864
  671POPC   GL211774  35.960  39.162   8.864
  671POPC   C1A11775  36.149  39.254   8.564
  671POPC   D2A11776  36.143  39.184   8.264
  671POPC   C3A11777  36.128  39.230   7.964
  671POPC   C4A11778  36.094  39.188   7.664
  671POPC   C1B11779  35.910  39.124   8.564
  671POPC   C2B11780  35.862  39.184   8.264
  671POPC   C3B11781  35.862  39.160   7.964
  671POPC   C4B11782  35.873  39.123   7.664
  672POPC   NC311783  43.920  38.440   9.464
  672POPC   PO411784  43.882  38.463   9.164
  672POPC   GL111785  43.867  38.491   8.864
  672POPC   GL211786  43.820  38.347   8.864
  672POPC   C1A11787  43.921  38.488   8.564
  672POPC   D2A11788  43.888  38.445   8.264
  672POPC   C3A11789  43.901  38.431   7.964
  672POPC   C4A11790  43.880  38.419   7.664
  672POPC   C1B11791  43.773  38.205   8.564
  672POPC   C2B11792  43.738  38.214   8.264
  672POPC   C3B11793  43.786  38.222   7.964
  672POPC   C4B11794  43.744  38.208   7.664
  673POPC   NC311795  15.133   8.195   9.464
  673POPC   PO411796  15.201   8.167   9.164
  673POPC   GL111797  15.154   8.147   8.864
  673POPC   GL211798  15.304   8.230   8.864
  673POPC   C1A11799  15.171   8.158   8.564
  673POPC   D2A11800  15.142   8.212   8.264
  673POPC   C3A11801  15.170   8.209   7.964
  673POPC   C4A11802  15.150   8.239   7.664
  673POPC   C1B11803  15.361   8.334   8.564
  673POPC   C2B11804  15.352   8.394   8.264
  673POPC   C3B11805  15.416   8.362   7.964
  673POPC   C4B11806  15.381   8.327   7.664
  674POPC   NC311807  16.744  23.670   9.464
  674POPC   PO411808  16.709  23.708   9.164
  674POPC   GL111809  16.684  23.706   8.864
  674POPC   GL211810  16.730  23.876   8.864
  674POPC   C1A11811  16.739  23.668   8.564
  674POPC   D2A11812  16.706  23.760   8.264
  674POPC   C3A11813  16.686  23.688   7.964
  674POPC   C4A11814  16.778  23.706   7.664
  674POPC   C1B11815  16.589  23.921   8.564
  674POPC   C2B11816  16.586  23.982   8.264
  674POPC   C3B11817  16.631  23.962   7.964
  674POPC   C4B11818  16.653  23.951   7.664
  675POPC   NC311819  27.603  13.662   9.464
  675POPC   PO411820  27.621  13.632   9.164
  675POPC   GL111821  27.591  13.594   8.864
  675POPC   GL211822  27.720  13.652   8.864
  675POPC   C1A11823  27.618  13.635   8.564
  675POPC   D2A11824  27.583  13.627   8.264
  675POPC   C3A11825  27.621  13.602   7.964
  675POPC   C4A11826  27.560  13.639   7.664
  675POPC   C1B11827  27.802  13.634   8.564
  675POPC   C2B11828  27.803  13.582   8.264
  675POPC   C3B11829  27.851  13.627   7.964
  675POPC   C4B11830  27.822  13.638   7.664
  676POPC   NC311831  15.148  12.832   9.464
  676POPC   PO411832  15.192  12.898   9.164
  676POPC   GL111833  15.147  12.813   8.864
  676POPC   GL211834  15.201  12.987   8.864
  676POPC   C1A11835  15.218  12.895   8.564
  676POPC   D2A11836  15.218  12.887   8.264
  676POPC   C3A11837  15.147  12.826   7.964
  676POPC   C4A11838  15.161  12.821   7.664
  676POPC   C1B11839  15.275  13.099   8.564
  676POPC   C2B11840  15.294  13.052   8.264
  676POPC   C3B11841  15.212  13.120   7.964
  676POPC   C4B11842  15.225  13.098   7.664
  677POPC   NC311843  27.588  16.764   9.464
  677POPC   PO411844  27.580  16.753   9.164
  677POPC   GL111845  27.566  16.758   8.864
  677POPC   GL211846  27.508  16.678   8.864
  677POPC   C1A11847  27.621  16.732   8.564
  677POPC   D2A11848  27.626  16.711   8.264
  677POPC   C3A11849  27.554  16.693   7.964
  677POPC   C4A11850  27.583  16.707   7.664
  677POPC   C1B11851  27.376  16.546   8.564
  677POPC   C2B11852  27.427  16.563   8.264
  677POPC   C3B11853  27.386  16.522   7.964
  677POPC   C4B11854  27.411  16.569   7.664
  678POPC   NC311855  20.644  41.553   9.464
  678POPC   PO411856  20.641  41.573   9.164
  678POPC   GL111857  20.595  41.562   8.864
  678POPC   GL211858  20.668  41.540   8.864
  678POPC   C1A11859  20.632  41.574   8.564
  678POPC   D2A11860  20.597  41.515   8.264
  678POPC   C3A11861  20.602  41.594   7.964
  678POPC   C4A11862  20.572  41.533   7.664
  678POPC   C1B11863  20.856  41.414   8.564
  678POPC   C2B11864  20.841  41.380   8.264
  678POPC   C3B11865  20.778  41.397   7.964
  678POPC   C4B11866  20.863  41.436   7.664
  679POPC   NC311867  22.922  32.247   9.464
  679POPC   PO411868  22.903  32.262   9.164
  679POPC   GL111869  22.968  32.237   8.864
  679POPC   GL211870  22.859  32.265   8.864
  679POPC   C1A11871  22.906  32.207   8.564
  679POPC   D2A11872  22.939  32.237   8.264
  679POPC   C3A11873  22.915  32.278   7.964
  679POPC   C4A11874  22.972  32.248   7.664
  679POPC   C1B11875  22.712  32.225   8.564
  679POPC   C2B11876  22.704  32.218   8.264
  679POPC   C3B11877  22.694  32.214   7.964
  679POPC   C4B11878  22.688  32.287   7.664
  680POPC   NC311879  16.722   8.205   9.464
  680POPC   PO411880  16.693   8.240   9.164
  680POPC   GL111881  16.754   8.165   8.864
  680POPC   GL211882  16.813   8.254   8.864
  680POPC   C1A11883  16.750   8.167   8.564
  680POPC   D2A11884  16.692   8.186   8.264
  680POPC   C3A11885  16.730   8.205   7.964
  680POPC   C4A11886  16.768   8.230   7.664
  680POPC   C1B11887  16.894   8.400   8.564
  680POPC   C2B11888  16.936   8.411   8.264
  680POPC   C3B11889  16.915   8.402   7.964
  680POPC   C4B11890  16.889   8.406   7.664
  681POPC   NC311891   8.946   5.899   9.464
  681POPC   PO411892   8.929   5.848   9.164
  681POPC   GL111893   8.932   5.894   8.864
  681POPC   GL211894   8.799   5.858   8.864
  681POPC   C1A11895   8.931   5.880   8.564
  681POPC   D2A11896   8.978   5.906   8.264
  681POPC   C3A11897   8.984   5.837   7.964
  681POPC   C4A11898   8.939   5.876   7.664
  681POPC   C1B11899   8.756   5.912   8.564
  681POPC   C2B11900   8.773   5.859   8.264
  681POPC   C3B11901   8.676   5.887   7.964
  681POPC   C4B11902   8.741   5.854   7.664
  682POPC   NC311903  30.741  42.298   9.464
  682POPC   PO411904  30.741  42.297   9.164
  682POPC   GL111905  30.686  42.292   8.864
  682POPC   GL211906  30.757  42.432   8.864
  682POPC   C1A11907  30.661  42.295   8.564
  682POPC   D2A11908  30.667  42.353   8.264
  682POPC   C3A11909  30.666  42.350   7.964
  682POPC   C4A11910  30.681  42.321   7.664
  682POPC   C1B11911  30.689  42.548   8.564
  682POPC   C2B11912  30.711  42.541   8.264
  682POPC   C3B11913  30.760  42.558   7.964
  682POPC   C4B11914  30.784  42.544   7.664
  683POPC   NC311915  30.675  15.945   9.464
  683POPC   PO411916  30.714  15.978   9.164
  683POPC   GL111917  30.681  15.948   8.864
  683POPC   GL211918  30.670  15.802   8.864
  683POPC   C1A11919  30.698  15.993   8.564
  683POPC   D2A11920  30.663  15.928   8.264
  683POPC   C3A11921  30.700  15.969   7.964
  683POPC   C4A11922  30.680  15.929   7.664
  683POPC   C1B11923  30.779  15.707   8.564
  683POPC   C2B11924  30.694  15.664   8.264
  683POPC   C3B11925  30.713  15.677   7.964
  683POPC   C4B11926  30.730  15.680   7.664
  684POPC   NC311927  26.806  43.845   9.464
  684POPC   PO411928  26.784  43.901   9.164
  684POPC   GL111929  26.842  43.903   8.864
  684POPC   GL211930  26.681  43.921   8.864
  684POPC   C1A11931  26.792  43.906   8.564
  684POPC   D2A11932  26.807  43.856   8.264
  684POPC   C3A11933  26.823  43.896   7.964
  684POPC   C4A11934  26.857  43.922   7.664
  684POPC   C1B11935  26.559  43.952   8.564
  684POPC   C2B11936  26.556  43.972   8.264
  684POPC   C3B11937  26.570  43.957   7.964
  684POPC   C4B11938  26.582  43.997   7.664
  685POPC   NC311939  22.960  28.344   9.464
  685POPC   PO411940  22.971  28.368   9.164
  685POPC   GL111941  22.902  28.354   8.864
  685POPC   GL211942  23.026  28.313   8.864
  685POPC   C1A11943  22.921  28.380   8.564
  685POPC   D2A11944  22.930  28.409   8.264
  685POPC   C3A11945  22.953  28.410   7.964
  685POPC   C4A11946  22.920  28.322   7.664
  685POPC   C1B11947  23.099  28.235   8.564
  685POPC   C2B11948  23.159  28.219   8.264
  685POPC   C3B11949  23.101  28.214   7.964
  685POPC   C4B11950  23.145  28.198   7.664
  686POPC   NC311951  19.825  39.967   9.464
  686POPC   PO411952  19.860  40.041   9.164
  686POPC   GL111953  19.866  40.007   8.864
  686POPC   GL211954  19.940  40.002   8.864
  686POPC   C1A11955  19.808  40.003   8.564
  686POPC   D2A11956  19.867  40.009   8.264
  686POPC   C3A11957  19.828  40.029   7.964
  686POPC   C4A11958  19.828  40.043   7.664
  686POPC   C1B11959  20.047  40.025   8.564
  686POPC   C2B11960  20.107  39.993   8.264
  686POPC   C3B11961  20.132  39.989   7.964
  686POPC   C4B11962  20.104  40.053   7.664
  687POPC   NC311963  33.007  42.369   9.464
  687POPC   PO411964  33.043  42.297   9.164
  687POPC   GL111965  32.988  42.301   8.864
  687POPC   GL211966  33.111  42.457   8.864
  687POPC   C1A11967  33.021  42.308   8.564
  687POPC   D2A11968  32.996  42.302   8.264
  687POPC   C3A11969  33.056  42.381   7.964
  687POPC   C4A11970  33.024  42.327   7.664
  687POPC   C1B11971  33.247  42.476   8.564
  687POPC   C2B11972  33.208  42.491   8.264
  687POPC   C3B11973  33.207  42.497   7.964
  687POPC   C4B11974  33.204  42.465   7.664
  688POPC   NC311975  35.343  33.761   9.464
  688POPC   PO411976  35.367  33.763   9.164
  688POPC   GL111977  35.374  33.805   8.864
  688POPC   GL211978  35.519  33.808   8.864
  688POPC   C1A11979  35.399  33.778   8.564
  688POPC   D2A11980  35.367  33.816   8.264
  688POPC   C3A11981  35.317  33.828   7.964
  688POPC   C4A11982  35.334  33.764   7.664
  688POPC   C1B11983  35.627  33.861   8.564
  688POPC   C2B11984  35.583  33.817   8.264
  688POPC   C3B11985  35.623  33.798   7.964
  688POPC   C4B11986  35.620  33.851   7.664
  689POPC   NC311987  37.706  21.417   9.464
  689POPC   PO411988  37.680  21.396   9.164
  689POPC   GL111989  37.707  21.370   8.864
  689POPC   GL211990  37.558  21.323   8.864
  689POPC   C1A11991  37.663  21.363   8.564
  689POPC   D2A11992  37.727  21.356   8.264
  689POPC   C3A11993  37.651  21.429   7.964
  689POPC   C4A11994  37.637  21.417   7.664
  689POPC   C1B11995  37.429  21.239   8.564
  689POPC   C2B11996  37.486  21.241   8.264
  689POPC   C3B11997  37.465  21.200   7.964
  689POPC   C4B11998  37.470  21.209   7.664
  690POPC   NC311999  32.214  23.678   9.464
  690POPC   PO412000  32.250  23.684   9.164
  690POPC   GL112001  32.278  23.712   8.864
  690POPC   GL212002  32.115  23.715   8.864
  690POPC   C1A12003  32.241  23.746   8.564
  690POPC   D2A12004  32.287  23.667   8.264
  690POPC   C3A12005  32.255  23.743   7.964
  690POPC   C4A12006  32.277  23.699   7.664
  690POPC   C1B12007  31.977  23.662   8.564
  690POPC   C2B12008  32.050  23.621   8.264
  690POPC   C3B12009  32.017  23.605   7.964
  690POPC   C4B12010  31.973  23.660   7.664
  691POPC   NC312011  27.543  29.921   9.464
  691POPC   PO412012  27.558  29.882   9.164
  691POPC   GL112013  27.569  29.914   8.864
  691POPC   GL212014  27.562  30.070   8.864
  691POPC   C1A12015  27.637  29.918   8.564
  691POPC   D2A12016  27.581  29.962   8.264
  691POPC   C3A12017  27.620  29.890   7.964
  691POPC   C4A12018  27.575  29.939   7.664
  691POPC   C1B12019  27.601  30.160   8.564
  691POPC   C2B12020  27.598  30.122   8.264
  691POPC   C3B12021  27.636  30.174   7.964
  691POPC   C4B12022  27.609  30.170   7.664
  692POPC   NC312023  22.974  44.630   9.464
  692POPC   PO412024  22.943  44.695   9.164
  692POPC   GL112025  22.930  44.638   8.864
  692POPC   GL212026  22.996  44.712   8.864
  692POPC   C1A12027  22.921  44.664   8.564
  692POPC   D2A12028  22.934  44.651   8.264
  692POPC   C3A12029  22.902  44.632   7.964
  692POPC   C4A12030  22.954  44.651   7.664
  692POPC   C1B12031  23.079  44.794   8.564
  692POPC   C2B12032  23.125  44.881   8.264
  692POPC   C3B12033  23.078  44.832   7.964
  692POPC   C4B12034  23.119  44.807   7.664
  693POPC   NC312035  33.068  30.721   9.464
  693POPC   PO412036  32.978  30.712   9.164
  693POPC   GL112037  33.039  30.719   8.864
  693POPC   GL212038  33.163  30.578   8.864
  693POPC   C1A12039  33.065  30.656   8.564
  693POPC   D2A12040  33.071  30.662   8.264
  693POPC   C3A12041  33.028  30.707   7.964
  693POPC   C4A12042  33.069  30.733   7.664
  693POPC   C1B12043  33.178  30.530   8.564
  693POPC   C2B12044  33.211  30.530   8.264
  693POPC   C3B12045  33.257  30.535   7.964
  693POPC   C4B12046  33.233  30.568   7.664
  694POPC   NC312047  37.666  20.567   9.464
  694POPC   PO412048  37.654  20.594   9.164
  694POPC   GL112049  37.684  20.621   8.864
  694POPC   GL212050  37.850  20.617   8.864
  694POPC   C1A12051  37.729  20.598   8.564
  694POPC   D2A12052  37.662  20.600   8.264
  694POPC   C3A12053  37.711  20.571   7.964
  694POPC   C4A12054  37.635  20.568   7.664
  694POPC   C1B12055  37.934  20.606   8.564
  694POPC   C2B12056  37.974  20.590   8.264
  694POPC   C3B12057  37.901  20.586   7.964
  694POPC   C4B12058  37.949  20.580   7.664
  695POPC   NC312059  29.893   4.323   9.464
  695POPC   PO412060  29.900   4.347   9.164
  695POPC   GL112061  29.913   4.294   8.864
  695POPC   GL212062  29.822   4.171   8.864
  695POPC   C1A12063  29.960   4.303   8.564
  695POPC   D2A12064  29.928   4.360   8.264
  695POPC   C3A12065  29.878   4.337   7.964
  695POPC   C4A12066  29.917   4.282   7.664
  695POPC   C1B12067  29.757   4.086   8.564
  695POPC   C2B12068  29.788   4.064   8.264
  695POPC   C3B12069  29.814   4.057   7.964
  695POPC   C4B12070  29.842   4.119   7.664
  696POPC   NC312071  43.915   0.409   9.464
  696POPC   PO412072  43.906   0.474   9.164
  696POPC   GL112073  43.859   0.433   8.864
  696POPC   GL212074  44.019   0.418   8.864
  696POPC   C1A12075  43.909   0.392   8.564
  696POPC   D2A12076  43.887   0.406   8.264
  696POPC   C3A12077  43.850   0.455   7.964
  696POPC   C4A12078  43.855   0.438   7.664
  696POPC   C1B12079  44.107   0.362   8.564
  696POPC   C2B12080  44.147   0.322   8.264
  696POPC   C3B12081  44.130   0.369   7.964
  696POPC   C4B12082  44.117   0.415   7.664
  697POPC   NC312083  39.256   4.358   9.464
  697POPC   PO412084  39.183   4.307   9.164
  697POPC   GL112085  39.277   4.345   8.864
  697POPC   GL212086  39.257   4.435   8.864
  697POPC   C1A12087  39.210   4.341   8.564
  697POPC   D2A12088  39.210   4.366   8.264
  697POPC   C3A12089  39.278   4.301   7.964
  697POPC   C4A12090  39.223   4.366   7.664
  697POPC   C1B12091  39.379   4.579   8.564
  697POPC   C2B12092  39.374   4.529   8.264
  697POPC   C3B12093  39.350   4.551   7.964
  697POPC   C4B12094  39.375   4.559   7.664
  698POPC   NC312095  22.168   8.158   9.464
  698POPC   PO412096  22.146   8.149   9.164
  698POPC   GL112097  22.166   8.217   8.864
  698POPC   GL212098  22.042   8.250   8.864
  698POPC   C1A12099  22.138   8.164   8.564
  698POPC   D2A12100  22.124   8.193   8.264
  698POPC   C3A12101  22.117   8.233   7.964
  698POPC   C4A12102  22.144   8.216   7.664
  698POPC   C1B12103  21.868   8.267   8.564
  698POPC   C2B12104  21.925   8.268   8.264
  698POPC   C3B12105  21.918   8.238   7.964
  698POPC   C4B12106  21.864   8.193   7.664
  699POPC   NC312107  14.415  22.138   9.464
  699POPC   PO412108  14.413  22.210   9.164
  699POPC   GL112109  14.382  22.145   8.864
  699POPC   GL212110  14.348  22.041   8.864
  699POPC   C1A12111  14.426  22.121   8.564
  699POPC   D2A12112  14.430  22.179   8.264
  699POPC   C3A12113  14.447  22.184   7.964
  699POPC   C4A12114  14.367  22.200   7.664
  699POPC   C1B12115  14.190  22.042   8.564
  699POPC   C2B12116  14.210  21.958   8.264
  699POPC   C3B12117  14.180  22.041   7.964
  699POPC   C4B12118  14.244  22.014   7.664
  700POPC   NC312119   4.303  15.175   9.464
  700POPC   PO412120   4.348  15.211   9.164
  700POPC   GL112121   4.296  15.220   8.864
  700POPC   GL212122   4.166  15.134   8.864
  700POPC   C1A12123   4.354  15.141   8.564
  700POPC   D2A12124   4.360  15.139   8.264
  700POPC   C3A12125   4.342  15.185   7.964
  700POPC   C4A12126   4.268  15.202   7.664
  700POPC   C1B12127   4.061  15.124   8.564
  700POPC   C2B12128   4.070  15.173   8.264
  700POPC   C3B12129   4.029  15.167   7.964
  700POPC   C4B12130   4.119  15.175   7.664
  701POPC   NC312131   4.297  43.114   9.464
  701POPC   PO412132   4.337  43.082   9.164
  701POPC   GL112133   4.310  43.152   8.864
  701POPC   GL212134   4.444  43.087   8.864
  701POPC   C1A12135   4.289  43.153   8.564
  701POPC   D2A12136   4.338  43.079   8.264
  701POPC   C3A12137   4.276  43.140   7.964
  701POPC   C4A12138   4.343  43.097   7.664
  701POPC   C1B12139   4.538  43.115   8.564
  701POPC   C2B12140   4.614  43.100   8.264
  701POPC   C3B12141   4.562  43.114   7.964
  701POPC   C4B12142   4.559  43.140   7.664
  702POPC   NC312143  16.693  40.806   9.464
  702POPC   PO412144  16.715  40.790   9.164
  702POPC   GL112145  16.767  40.744   8.864
  702POPC   GL212146  16.742  40.926   8.864
  702POPC   C1A12147  16.691  40.794   8.564
  702POPC   D2A12148  16.754  40.811   8.264
  702POPC   C3A12149  16.778  40.766   7.964
  702POPC   C4A12150  16.756  40.823   7.664
  702POPC   C1B12151  16.812  41.005   8.564
  702POPC   C2B12152  16.858  41.045   8.264
  702POPC   C3B12153  16.802  41.000   7.964
  702POPC   C4B12154  16.789  41.061   7.664
  703POPC   NC312155  33.030  16.770   9.464
  703POPC   PO412156  33.008  16.739   9.164
  703POPC   GL112157  32.985  16.738   8.864
  703POPC   GL212158  32.858  16.778   8.864
  703POPC   C1A12159  33.023  16.765   8.564
  703POPC   D2A12160  33.043  16.759   8.264
  703POPC   C3A12161  32.978  16.770   7.964
  703POPC   C4A12162  33.070  16.748   7.664
  703POPC   C1B12163  32.799  16.774   8.564
  703POPC   C2B12164  32.809  16.787   8.264
  703POPC   C3B12165  32.811  16.707   7.964
  703POPC   C4B12166  32.809  16.711   7.664
  704POPC   NC312167  33.761  33.766   9.464
  704POPC   PO412168  33.821  33.810   9.164
  704POPC   GL112169  33.779  33.770   8.864
  704POPC   GL212170  33.954  33.735   8.864
  704POPC   C1A12171  33.773  33.755   8.564
  704POPC   D2A12172  33.780  33.844   8.264
  704POPC   C3A12173  33.781  33.787   7.964
  704POPC   C4A12174  33.843  33.790   7.664
  704POPC   C1B12175  34.014  33.768   8.564
  704POPC   C2B12176  34.010  33.741   8.264
  704POPC   C3B12177  34.002  33.734   7.964
  704POPC   C4B12178  34.031  33.723   7.664
  705POPC   NC312179  39.998  36.095   9.464
  705POPC   PO412180  40.035  36.101   9.164
  705POPC   GL112181  40.014  36.143   8.864
  705POPC   GL212182  40.156  36.202   8.864
  705POPC   C1A12183  39.989  36.118   8.564
  705POPC   D2A12184  40.033  36.166   8.264
  705POPC   C3A12185  40.004  36.125   7.964
  705POPC   C4A12186  40.043  36.081   7.664
  705POPC   C1B12187  40.246  36.298   8.564
  705POPC   C2B12188  40.179  36.250   8.264
  705POPC   C3B12189  40.221  36.252   7.964
  705POPC   C4B12190  40.173  36.281   7.664
  706POPC   NC312191  36.888  19.031   9.464
  706POPC   PO412192  36.859  19.057   9.164
  706POPC   GL112193  36.878  19.090   8.864
  706POPC   GL212194  36.747  19.054   8.864
  706POPC   C1A12195  36.876  19.103   8.564
  706POPC   D2A12196  36.869  19.038   8.264
  706POPC   C3A12197  36.936  19.101   7.964
  706POPC   C4A12198  36.938  19.038   7.664
  706POPC   C1B12199  36.680  19.090   8.564
  706POPC   C2B12200  36.632  19.122   8.264
  706POPC   C3B12201  36.625  19.137   7.964
  706POPC   C4B12202  36.667  19.101   7.664
  707POPC   NC312203   6.639  35.357   9.464
  707POPC   PO412204   6.623  35.357   9.164
  707POPC   GL112205   6.640  35.360   8.864
  707POPC   GL212206   6.620  35.205   8.864
  707POPC   C1A12207   6.637  35.313   8.564
  707POPC   D2A12208   6.610  35.347   8.264
  707POPC   C3A12209   6.613  35.330   7.964
  707POPC   C4A12210   6.630  35.394   7.664
  707POPC   C1B12211   6.663  35.101   8.564
  707POPC   C2B12212   6.613  35.093   8.264
  707POPC   C3B12213   6.604  35.064   7.964
  707POPC   C4B12214   6.655  35.125   7.664
  708POPC   NC312215  38.405  38.414   9.464
  708POPC   PO412216  38.464  38.469   9.164
  708POPC   GL112217  38.479  38.500   8.864
  708POPC   GL212218  38.541  38.546   8.864
  708POPC   C1A12219  38.431  38.497   8.564
  708POPC   D2A12220  38.449  38.491   8.264
  708POPC   C3A12221  38.472  38.445   7.964
  708POPC   C4A12222  38.494  38.487   7.664
  708POPC   C1B12223  38.665  38.596   8.564
  708POPC   C2B12224  38.653  38.584   8.264
  708POPC   C3B12225  38.651  38.640   7.964
  708POPC   C4B12226  38.606  38.638   7.664
  709POPC   NC312227   6.667  28.414   9.464
  709POPC   PO412228   6.618  28.329   9.164
  709POPC   GL112229   6.656  28.393   8.864
  709POPC   GL212230   6.786  28.432   8.864
  709POPC   C1A12231   6.646  28.370   8.564
  709POPC   D2A12232   6.674  28.364   8.264
  709POPC   C3A12233   6.596  28.397   7.964
  709POPC   C4A12234   6.686  28.355   7.664
  709POPC   C1B12235   6.893  28.495   8.564
  709POPC   C2B12236   6.814  28.526   8.264
  709POPC   C3B12237   6.892  28.542   7.964
  709POPC   C4B12238   6.824  28.491   7.664
  710POPC   NC312239   5.887  41.602   9.464
  710POPC   PO412240   5.907  41.535   9.164
  710POPC   GL112241   5.850  41.555   8.864
  710POPC   GL212242   5.715  41.573   8.864
  710POPC   C1A12243   5.877  41.533   8.564
  710POPC   D2A12244   5.851  41.536   8.264
  710POPC   C3A12245   5.905  41.584   7.964
  710POPC   C4A12246   5.856  41.601   7.664
  710POPC   C1B12247   5.610  41.551   8.564
  710POPC   C2B12248   5.617  41.531   8.264
  710POPC   C3B12249   5.648  41.589   7.964
  710POPC   C4B12250   5.661  41.512   7.664
  711POPC   NC312251  17.491  10.574   9.464
  711POPC   PO412252  17.527  10.508   9.164
  711POPC   GL112253  17.541  10.475   8.864
  711POPC   GL212254  17.495  10.453   8.864
  711POPC   C1A12255  17.481  10.479   8.564
  711POPC   D2A12256  17.457  10.562   8.264
  711POPC   C3A12257  17.550  10.554   7.964
  711POPC   C4A12258  17.534  10.504   7.664
  711POPC   C1B12259  17.428  10.301   8.564
  711POPC   C2B12260  17.447  10.256   8.264
  711POPC   C3B12261  17.474  10.300   7.964
  711POPC   C4B12262  17.489  10.259   7.664
  712POPC   NC312263  42.289  24.472   9.464
  712POPC   PO412264  42.347  24.515   9.164
  712POPC   GL112265  42.342  24.474   8.864
  712POPC   GL212266  42.388  24.397   8.864
  712POPC   C1A12267  42.351  24.441   8.564
  712POPC   D2A12268  42.292  24.497   8.264
  712POPC   C3A12269  42.319  24.448   7.964
  712POPC   C4A12270  42.346  24.539   7.664
  712POPC   C1B12271  42.440  24.281   8.564
  712POPC   C2B12272  42.433  24.302   8.264
  712POPC   C3B12273  42.432  24.265   7.964
  712POPC   C4B12274  42.425  24.282   7.664
  713POPC   NC312275  18.245  22.968   9.464
  713POPC   PO412276  18.257  22.939   9.164
  713POPC   GL112277  18.258  22.921   8.864
  713POPC   GL212278  18.141  23.019   8.864
  713POPC   C1A12279  18.310  22.985   8.564
  713POPC   D2A12280  18.261  22.956   8.264
  713POPC   C3A12281  18.302  22.922   7.964
  713POPC   C4A12282  18.308  22.912   7.664
  713POPC   C1B12283  18.111  23.107   8.564
  713POPC   C2B12284  18.066  23.088   8.264
  713POPC   C3B12285  18.029  23.042   7.964
  713POPC   C4B12286  18.047  23.089   7.664
  714POPC   NC312287  22.148  15.969   9.464
  714POPC   PO412288  22.152  15.918   9.164
  714POPC   GL112289  22.169  15.930   8.864
  714POPC   GL212290  22.313  16.030   8.864
  714POPC   C1A12291  22.168  16.000   8.564
  714POPC   D2A12292  22.205  15.947   8.264
  714POPC   C3A12293  22.180  15.909   7.964
  714POPC   C4A12294  22.199  15.981   7.664
  714POPC   C1B12295  22.380  16.038   8.564
  714POPC   C2B12296  22.378  16.093   8.264
  714POPC   C3B12297  22.340  16.056   7.964
  714POPC   C4B12298  22.361  16.097   7.664
  715POPC   NC312299  33.007  43.094   9.464
  715POPC   PO412300  33.022  43.091   9.164
  715POPC   GL112301  33.006  43.130   8.864
  715POPC   GL212302  33.174  43.113   8.864
  715POPC   C1A12303  32.991  43.134   8.564
  715POPC   D2A12304  33.003  43.105   8.264
  715POPC   C3A12305  32.992  43.156   7.964
  715POPC   C4A12306  33.020  43.137   7.664
  715POPC   C1B12307  33.296  43.039   8.564
  715POPC   C2B12308  33.242  43.050   8.264
  715POPC   C3B12309  33.259  43.015   7.964
  715POPC   C4B12310  33.293  43.035   7.664
  716POPC   NC312311  12.886   8.986   9.464
  716POPC   PO412312  12.818   8.970   9.164
  716POPC   GL112313  12.844   9.005   8.864
  716POPC   GL212314  12.916   8.841   8.864
  716POPC   C1A12315  12.852   8.989   8.564
  716POPC   D2A12316  12.839   8.931   8.264
  716POPC   C3A12317  12.884   8.993   7.964
  716POPC   C4A12318  12.896   9.007   7.664
  716POPC   C1B12319  12.956   8.778   8.564
  716POPC   C2B12320  12.962   8.743   8.264
  716POPC   C3B12321  12.917   8.746   7.964
  716POPC   C4B12322  13.012   8.702   7.664
  717POPC   NC312323  11.314  44.649   9.464
  717POPC   PO412324  11.335  44.613   9.164
  717POPC   GL112325  11.338  44.650   8.864
  717POPC   GL212326  11.260  44.771   8.864
  717POPC   C1A12327  11.336  44.616   8.564
  717POPC   D2A12328  11.297  44.649   8.264
  717POPC   C3A12329  11.332  44.685   7.964
  717POPC   C4A12330  11.284  44.661   7.664
  717POPC   C1B12331  11.249  44.934   8.564
  717POPC   C2B12332  11.199  44.935   8.264
  717POPC   C3B12333  11.203  44.953   7.964
  717POPC   C4B12334  11.286  44.943   7.664
  718POPC   NC312335  15.969  36.092   9.464
  718POPC   PO412336  15.918  36.155   9.164
  718POPC   GL112337  15.959  36.178   8.864
  718POPC   GL212338  15.869  36.040   8.864
  718POPC   C1A12339  15.979  36.122   8.564
  718POPC   D2A12340  15.952  36.128   8.264
  718POPC   C3A12341  15.963  36.169   7.964
  718POPC   C4A12342  15.986  36.159   7.664
  718POPC   C1B12343  15.864  35.860   8.564
  718POPC   C2B12344  15.847  35.915   8.264
  718POPC   C3B12345  15.801  35.934   7.964
  718POPC   C4B12346  15.856  35.858   7.664
  719POPC   NC312347  16.755  37.676   9.464
  719POPC   PO412348  16.737  37.643   9.164
  719POPC   GL112349  16.778  37.639   8.864
  719POPC   GL212350  16.782  37.819   8.864
  719POPC   C1A12351  16.732  37.712   8.564
  719POPC   D2A12352  16.778  37.728   8.264
  719POPC   C3A12353  16.746  37.652   7.964
  719POPC   C4A12354  16.751  37.654   7.664
  719POPC   C1B12355  16.754  37.909   8.564
  719POPC   C2B12356  16.758  37.968   8.264
  719POPC   C3B12357  16.773  37.886   7.964
  719POPC   C4B12358  16.734  37.934   7.664
  720POPC   NC312359  26.003  19.046   9.464
  720POPC   PO412360  26.030  19.020   9.164
  720POPC   GL112361  26.071  19.039   8.864
  720POPC   GL212362  25.917  18.947   8.864
  720POPC   C1A12363  26.045  19.065   8.564
  720POPC   D2A12364  25.993  19.093   8.264
  720POPC   C3A12365  26.053  19.096   7.964
  720POPC   C4A12366  26.049  19.063   7.664
  720POPC   C1B12367  25.883  18.850   8.564
  720POPC   C2B12368  25.820  18.888   8.264
  720POPC   C3B12369  25.883  18.927   7.964
  720POPC   C4B12370  25.908  18.912   7.664
  721POPC   NC312371   8.160  13.620   9.464
  721POPC   PO412372   8.219  13.670   9.164
  721POPC   GL112373   8.230  13.637   8.864
  721POPC   GL212374   8.162  13.543   8.864
  721POPC   C1A12375   8.183  13.656   8.564
  721POPC   D2A12376   8.203  13.673   8.264
  721POPC   C3A12377   8.197  13.615   7.964
  721POPC   C4A12378   8.193  13.632   7.664
  721POPC   C1B12379   8.033  13.404   8.564
  721POPC   C2B12380   8.096  13.429   8.264
  721POPC   C3B12381   8.063  13.366   7.964
  721POPC   C4B12382   8.122  13.371   7.664
  722POPC   NC312383  22.955  15.180   9.464
  722POPC   PO412384  22.984  15.137   9.164
  722POPC   GL112385  22.948  15.225   8.864
  722POPC   GL212386  22.831  15.114   8.864
  722POPC   C1A12387  22.984  15.169   8.564
  722POPC   D2A12388  22.978  15.227   8.264
  722POPC   C3A12389  22.942  15.186   7.964
  722POPC   C4A12390  22.980  15.159   7.664
  722POPC   C1B12391  22.714  15.162   8.564
  722POPC   C2B12392  22.697  15.116   8.264
  722POPC   C3B12393  22.664  15.133   7.964
  722POPC   C4B12394  22.695  15.118   7.664
  723POPC   NC312395  40.822   5.138   9.464
  723POPC   PO412396  40.774   5.069   9.164
  723POPC   GL112397  40.808   5.062   8.864
  723POPC   GL212398  40.875   5.103   8.864
  723POPC   C1A12399  40.796   5.067   8.564
  723POPC   D2A12400  40.826   5.044   8.264
  723POPC   C3A12401  40.815   5.086   7.964
  723POPC   C4A12402  40.738   5.079   7.664
  723POPC   C1B12403  41.037   5.101   8.564
  723POPC   C2B12404  41.031   5.016   8.264
  723POPC   C3B12405  40.986   5.074   7.964
  723POPC   C4B12406  41.004   5.080   7.664
  724POPC   NC312407  43.906  29.102   9.464
  724POPC   PO412408  43.848  29.157   9.164
  724POPC   GL112409  43.877  29.176   8.864
  724POPC   GL212410  43.731  29.071   8.864
  724POPC   C1A12411  43.915  29.176   8.564
  724POPC   D2A12412  43.894  29.173   8.264
  724POPC   C3A12413  43.875  29.109   7.964
  724POPC   C4A12414  43.887  29.103   7.664
  724POPC   C1B12415  43.664  29.002   8.564
  724POPC   C2B12416  43.678  29.052   8.264
  724POPC   C3B12417  43.656  29.002   7.964
  724POPC   C4B12418  43.686  29.031   7.664
  725POPC   NC312419  38.477  20.601   9.464
  725POPC   PO412420  38.456  20.659   9.164
  725POPC   GL112421  38.423  20.647   8.864
  725POPC   GL212422  38.407  20.532   8.864
  725POPC   C1A12423  38.407  20.628   8.564
  725POPC   D2A12424  38.464  20.633   8.264
  725POPC   C3A12425  38.407  20.616   7.964
  725POPC   C4A12426  38.463  20.573   7.664
  725POPC   C1B12427  38.307  20.449   8.564
  725POPC   C2B12428  38.288  20.416   8.264
  725POPC   C3B12429  38.304  20.430   7.964
  725POPC   C4B12430  38.327  20.475   7.664
  726POPC   NC312431   6.607  24.536   9.464
  726POPC   PO412432   6.693  24.511   9.164
  726POPC   GL112433   6.651  24.493   8.864
  726POPC   GL212434   6.698  24.635   8.864
  726POPC   C1A12435   6.638  24.477   8.564
  726POPC   D2A12436   6.611  24.448   8.264
  726POPC   C3A12437   6.622  24.492   7.964
  726POPC   C4A12438   6.623  24.466   7.664
  726POPC   C1B12439   6.666  24.766   8.564
  726POPC   C2B12440   6.729  24.737   8.264
  726POPC   C3B12441   6.642  24.772   7.964
  726POPC   C4B12442   6.720  24.729   7.664
  727POPC   NC312443  11.269  17.550   9.464
  727POPC   PO412444  11.306  17.472   9.164
  727POPC   GL112445  11.329  17.497   8.864
  727POPC   GL212446  11.240  17.573   8.864
  727POPC   C1A12447  11.280  17.550   8.564
  727POPC   D2A12448  11.251  17.488   8.264
  727POPC   C3A12449  11.325  17.506   7.964
  727POPC   C4A12450  11.319  17.506   7.664
  727POPC   C1B12451  11.081  17.626   8.564
  727POPC   C2B12452  11.049  17.625   8.264
  727POPC   C3B12453  11.033  17.604   7.964
  727POPC   C4B12454  11.094  17.587   7.664
  728POPC   NC312455   4.270  13.600   9.464
  728POPC   PO412456   4.358  13.641   9.164
  728POPC   GL112457   4.319  13.667   8.864
  728POPC   GL212458   4.295  13.521   8.864
  728POPC   C1A12459   4.271  13.654   8.564
  728POPC   D2A12460   4.313  13.659   8.264
  728POPC   C3A12461   4.362  13.656   7.964
  728POPC   C4A12462   4.306  13.611   7.664
  728POPC   C1B12463   4.313  13.421   8.564
  728POPC   C2B12464   4.255  13.376   8.264
  728POPC   C3B12465   4.344  13.396   7.964
  728POPC   C4B12466   4.308  13.405   7.664
  729POPC   NC312467  22.978  13.618   9.464
  729POPC   PO412468  22.912  13.646   9.164
  729POPC   GL112469  22.970  13.628   8.864
  729POPC   GL212470  22.842  13.749   8.864
  729POPC   C1A12471  22.901  13.655   8.564
  729POPC   D2A12472  22.907  13.667   8.264
  729POPC   C3A12473  22.910  13.621   7.964
  729POPC   C4A12474  22.950  13.613   7.664
  729POPC   C1B12475  22.793  13.813   8.564
  729POPC   C2B12476  22.824  13.842   8.264
  729POPC   C3B12477  22.814  13.875   7.964
  729POPC   C4B12478  22.854  13.893   7.664
  730POPC   NC312479  22.210  31.474   9.464
  730POPC   PO412480  22.154  31.501   9.164
  730POPC   GL112481  22.188  31.516   8.864
  730POPC   GL212482  22.132  31.546   8.864
  730POPC   C1A12483  22.209  31.457   8.564
  730POPC   D2A12484  22.121  31.442   8.264
  730POPC   C3A12485  22.186  31.481   7.964
  730POPC   C4A12486  22.178  31.489   7.664
  730POPC   C1B12487  22.027  31.683   8.564
  730POPC   C2B12488  22.026  31.695   8.264
  730POPC   C3B12489  21.986  31.684   7.964
  730POPC   C4B12490  22.050  31.633   7.664
  731POPC   NC312491   9.006  15.154   9.464
  731POPC   PO412492   9.020  15.227   9.164
  731POPC   GL112493   8.947  15.133   8.864
  731POPC   GL212494   8.950  15.295   8.864
  731POPC   C1A12495   8.985  15.160   8.564
  731POPC   D2A12496   8.987  15.149   8.264
  731POPC   C3A12497   8.941  15.138   7.964
  731POPC   C4A12498   8.992  15.195   7.664
  731POPC   C1B12499   8.870  15.391   8.564
  731POPC   C2B12500   8.871  15.425   8.264
  731POPC   C3B12501   8.866  15.353   7.964
  731POPC   C4B12502   8.890  15.426   7.664
  732POPC   NC312503   5.120   9.792   9.464
  732POPC   PO412504   5.135   9.703   9.164
  732POPC   GL112505   5.140   9.753   8.864
  732POPC   GL212506   5.171   9.862   8.864
  732POPC   C1A12507   5.047   9.722   8.564
  732POPC   D2A12508   5.110   9.702   8.264
  732POPC   C3A12509   5.108   9.777   7.964
  732POPC   C4A12510   5.141   9.750   7.664
  732POPC   C1B12511   5.192   9.929   8.564
  732POPC   C2B12512   5.192   9.921   8.264
  732POPC   C3B12513   5.219   9.944   7.964
  732POPC   C4B12514   5.184   9.951   7.664
  733POPC   NC312515  43.871  16.739   9.464
  733POPC   PO412516  43.916  16.739   9.164
  733POPC   GL112517  43.906  16.682   8.864
  733POPC   GL212518  44.028  16.752   8.864
  733POPC   C1A12519  43.877  16.728   8.564
  733POPC   D2A12520  43.868  16.757   8.264
  733POPC   C3A12521  43.868  16.752   7.964
  733POPC   C4A12522  43.841  16.686   7.664
  733POPC   C1B12523  44.086  16.649   8.564
  733POPC   C2B12524  44.152  16.648   8.264
  733POPC   C3B12525  44.090  16.695   7.964
  733POPC   C4B12526  44.172  16.683   7.664
  734POPC   NC312527  37.725  30.661   9.464
  734POPC   PO412528  37.647  30.647   9.164
  734POPC   GL112529  37.721  30.655   8.864
  734POPC   GL212530  37.664  30.626   8.864
  734POPC   C1A12531  37.643  30.702   8.564
  734POPC   D2A12532  37.727  30.649   8.264
  734POPC   C3A12533  37.654  30.649   7.964
  734POPC   C4A12534  37.652  30.709   7.664
  734POPC   C1B12535  37.610  30.457   8.564
  734POPC   C2B12536  37.627  30.438   8.264
  734POPC   C3B12537  37.606  30.450   7.964
  734POPC   C4B12538  37.572  30.499   7.664
  735POPC   NC312539   0.417  19.073   9.464
  735POPC   PO412540   0.396  19.104   9.164
  735POPC   GL112541   0.464  19.019   8.864
  735POPC   GL212542   0.431  19.170   8.864
  735POPC   C1A12543   0.446  19.023   8.564
  735POPC   D2A12544   0.408  19.031   8.264
  735POPC   C3A12545   0.434  19.030   7.964
  735POPC   C4A12546   0.414  19.019   7.664
  735POPC   C1B12547   0.456  19.261   8.564
  735POPC   C2B12548   0.455  19.339   8.264
  735POPC   C3B12549   0.395  19.319   7.964
  735POPC   C4B12550   0.434  19.281   7.664
  736POPC   NC312551  28.371  33.798   9.464
  736POPC   PO412552  28.410  33.774   9.164
  736POPC   GL112553  28.348  33.812   8.864
  736POPC   GL212554  28.221  33.851   8.864
  736POPC   C1A12555  28.322  33.837   8.564
  736POPC   D2A12556  28.345  33.822   8.264
  736POPC   C3A12557  28.413  33.846   7.964
  736POPC   C4A12558  28.351  33.815   7.664
  736POPC   C1B12559  28.109  33.800   8.564
  736POPC   C2B12560  28.145  33.838   8.264
  736POPC   C3B12561  28.136  33.802   7.964
  736POPC   C4B12562  28.141  33.858   7.664
  737POPC   NC312563   5.117   9.021   9.464
  737POPC   PO412564   5.120   8.991   9.164
  737POPC   GL112565   5.043   8.938   8.864
  737POPC   GL212566   5.151   8.888   8.864
  737POPC   C1A12567   5.069   9.016   8.564
  737POPC   D2A12568   5.084   8.948   8.264
  737POPC   C3A12569   5.068   8.969   7.964
  737POPC   C4A12570   5.095   9.013   7.664
  737POPC   C1B12571   5.144   8.765   8.564
  737POPC   C2B12572   5.166   8.772   8.264
  737POPC   C3B12573   5.146   8.705   7.964
  737POPC   C4B12574   5.119   8.709   7.664
  738POPC   NC312575  26.075  17.494   9.464
  738POPC   PO412576  26.085  17.482   9.164
  738POPC   GL112577  26.046  17.476   8.864
  738POPC   GL212578  26.134  17.456   8.864
  738POPC   C1A12579  26.082  17.545   8.564
  738POPC   D2A12580  26.042  17.550   8.264
  738POPC   C3A12581  26.031  17.538   7.964
  738POPC   C4A12582  26.025  17.532   7.664
  738POPC   C1B12583  26.230  17.338   8.564
  738POPC   C2B12584  26.207  17.324   8.264
  738POPC   C3B12585  26.266  17.303   7.964
  738POPC   C4B12586  26.216  17.375   7.664
  739POPC   NC312587   0.457  28.323   9.464
  739POPC   PO412588   0.439  28.417   9.164
  739POPC   GL112589   0.487  28.323   8.864
  739POPC   GL212590   0.346  28.333   8.864
  739POPC   C1A12591   0.479  28.375   8.564
  739POPC   D2A12592   0.424  28.360   8.264
  739POPC   C3A12593   0.477  28.419   7.964
  739POPC   C4A12594   0.475  28.339   7.664
  739POPC   C1B12595   0.186  28.383   8.564
  739POPC   C2B12596   0.203  28.401   8.264
  739POPC   C3B12597   0.176  28.326   7.964
  739POPC   C4B12598   0.163  28.369   7.664
  740POPC   NC312599   2.033  10.555   9.464
  740POPC   PO412600   1.983  10.545   9.164
  740POPC   GL112601   2.019  10.509   8.864
  740POPC   GL212602   1.880  10.643   8.864
  740POPC   C1A12603   2.020  10.477   8.564
  740POPC   D2A12604   2.032  10.509   8.264
  740POPC   C3A12605   1.983  10.490   7.964
  740POPC   C4A12606   1.944  10.506   7.664
  740POPC   C1B12607   1.748  10.680   8.564
  740POPC   C2B12608   1.825  10.683   8.264
  740POPC   C3B12609   1.832  10.645   7.964
  740POPC   C4B12610   1.779  10.640   7.664
  741POPC   NC312611   6.621  22.930   9.464
  741POPC   PO412612   6.683  22.933   9.164
  741POPC   GL112613   6.635  22.905   8.864
  741POPC   GL212614   6.720  23.087   8.864
  741POPC   C1A12615   6.655  22.923   8.564
  741POPC   D2A12616   6.632  22.909   8.264
  741POPC   C3A12617   6.598  22.933   7.964
  741POPC   C4A12618   6.630  22.977   7.664
  741POPC   C1B12619   6.742  23.175   8.564
  741POPC   C2B12620   6.765  23.156   8.264
  741POPC   C3B12621   6.748  23.158   7.964
  741POPC   C4B12622   6.756  23.136   7.664
  742POPC   NC312623  44.642  43.837   9.464
  742POPC   PO412624  44.659  43.934   9.164
  742POPC   GL112625  44.645  43.852   8.864
  742POPC   GL212626  44.573  43.856   8.864
  742POPC   C1A12627  44.710  43.879   8.564
  742POPC   D2A12628  44.650  43.910   8.264
  742POPC   C3A12629  44.624  43.844   7.964
  742POPC   C4A12630  44.657  43.846   7.664
  742POPC   C1B12631  44.459  43.874   8.564
  742POPC   C2B12632  44.373  43.876   8.264
  742POPC   C3B12633  44.429  43.886   7.964
  742POPC   C4B12634  44.426  43.872   7.664
  743POPC   NC312635   8.929  20.591   9.464
  743POPC   PO412636   8.974  20.602   9.164
  743POPC   GL112637   8.968  20.658   8.864
  743POPC   GL212638   8.845  20.623   8.864
  743POPC   C1A12639   8.951  20.614   8.564
  743POPC   D2A12640   8.992  20.597   8.264
  743POPC   C3A12641   8.946  20.641   7.964
  743POPC   C4A12642   8.942  20.584   7.664
  743POPC   C1B12643   8.768  20.629   8.564
  743POPC   C2B12644   8.775  20.667   8.264
  743POPC   C3B12645   8.765  20.714   7.964
  743POPC   C4B12646   8.712  20.699   7.664
  744POPC   NC312647  33.009  11.262   9.464
  744POPC   PO412648  33.021  11.337   9.164
  744POPC   GL112649  32.995  11.320   8.864
  744POPC   GL212650  33.035  11.218   8.864
  744POPC   C1A12651  32.980  11.265   8.564
  744POPC   D2A12652  33.010  11.325   8.264
  744POPC   C3A12653  32.976  11.257   7.964
  744POPC   C4A12654  33.030  11.260   7.664
  744POPC   C1B12655  33.089  11.064   8.564
  744POPC   C2B12656  33.070  11.099   8.264
  744POPC   C3B12657  33.083  11.041   7.964
  744POPC   C4B12658  33.096  11.082   7.664
  745POPC   NC312659  40.045  27.612   9.464
  745POPC   PO412660  40.047  27.560   9.164
  745POPC   GL112661  40.022  27.547   8.864
  745POPC   GL212662  39.849  27.575   8.864
  745POPC   C1A12663  39.964  27.620   8.564
  745POPC   D2A12664  39.964  27.573   8.264
  745POPC   C3A12665  40.034  27.577   7.964
  745POPC   C4A12666  40.014  27.631   7.664
  745POPC   C1B12667  39.765  27.541   8.564
  745POPC   C2B12668  39.760  27.571   8.264
  745POPC   C3B12669  39.787  27.514   7.964
  745POPC   C4B12670  39.764  27.497   7.664
  746POPC   NC312671  39.198   1.948   9.464
  746POPC   PO412672  39.243   2.015   9.164
  746POPC   GL112673  39.269   1.993   8.864
  746POPC   GL212674  39.139   2.061   8.864
  746POPC   C1A12675  39.237   2.031   8.564
  746POPC   D2A12676  39.269   1.987   8.264
  746POPC   C3A12677  39.246   2.012   7.964
  746POPC   C4A12678  39.272   1.940   7.664
  746POPC   C1B12679  39.040   2.177   8.564
  746POPC   C2B12680  39.065   2.102   8.264
  746POPC   C3B12681  39.048   2.157   7.964
  746POPC   C4B12682  39.074   2.137   7.664
  747POPC   NC312683  21.429  15.194   9.464
  747POPC   PO412684  21.426  15.153   9.164
  747POPC   GL112685  21.426  15.223   8.864
  747POPC   GL212686  21.303  15.099   8.864
  747POPC   C1A12687  21.338  15.217   8.564
  747POPC   D2A12688  21.340  15.138   8.264
  747POPC   C3A12689  21.363  15.171   7.964
  747POPC   C4A12690  21.412  15.203   7.664
  747POPC   C1B12691  21.209  14.978   8.564
  747POPC   C2B12692  21.198  15.041   8.264
  747POPC   C3B12693  21.198  15.032   7.964
  747POPC   C4B12694  21.157  14.989   7.664
  748POPC   NC312695   1.239  39.999   9.464
  748POPC   PO412696   1.260  39.958   9.164
  748POPC   GL112697   1.181  39.995   8.864
  748POPC   GL212698   1.140  40.138   8.864
  748POPC   C1A12699   1.178  40.017   8.564
  748POPC   D2A12700   1.174  39.970   8.264
  748POPC   C3A12701   1.262  40.015   7.964
  748POPC   C4A12702   1.202  40.003   7.664
  748POPC   C1B12703   1.021  40.171   8.564
  748POPC   C2B12704   1.097  40.152   8.264
  748POPC   C3B12705   1.070  40.203   7.964
  748POPC   C4B12706   1.085  40.243   7.664
  749POPC   NC312707  42.380  23.727   9.464
  749POPC   PO412708  42.325  23.746   9.164
  749POPC   GL112709  42.317  23.708   8.864
  749POPC   GL212710  42.381  23.622   8.864
  749POPC   C1A12711  42.355  23.740   8.564
  749POPC   D2A12712  42.320  23.734   8.264
  749POPC   C3A12713  42.313  23.718   7.964
  749POPC   C4A12714  42.332  23.752   7.664
  749POPC   C1B12715  42.412  23.493   8.564
  749POPC   C2B12716  42.394  23.439   8.264
  749POPC   C3B12717  42.344  23.506   7.964
  749POPC   C4B12718  42.380  23.450   7.664
  750POPC   NC312719   3.494  37.640   9.464
  750POPC   PO412720   3.531  37.725   9.164
  750POPC   GL112721   3.519  37.652   8.864
  750POPC   GL212722   3.448  37.690   8.864
  750POPC   C1A12723   3.542  37.702   8.564
  750POPC   D2A12724   3.587  37.669   8.264
  750POPC   C3A12725   3.493  37.696   7.964
  750POPC   C4A12726   3.532  37.712   7.664
  750POPC   C1B12727   3.352  37.801   8.564
  750POPC   C2B12728   3.329  37.784   8.264
  750POPC   C3B12729   3.340  37.811   7.964
  750POPC   C4B12730   3.348  37.786   7.664
  751POPC   NC312731  22.904  18.317   9.464
  751POPC   PO412732  22.924  18.267   9.164
  751POPC   GL112733  22.930  18.281   8.864
  751POPC   GL212734  22.974  18.342   8.864
  751POPC   C1A12735  22.972  18.255   8.564
  751POPC   D2A12736  22.904  18.264   8.264
  751POPC   C3A12737  22.917  18.306   7.964
  751POPC   C4A12738  22.897  18.237   7.664
  751POPC   C1B12739  23.063  18.531   8.564
  751POPC   C2B12740  23.111  18.524   8.264
  751POPC   C3B12741  23.105  18.498   7.964
  751POPC   C4B12742  23.046  18.540   7.664
  752POPC   NC312743  38.465  37.672   9.464
  752POPC   PO412744  38.503  37.728   9.164
  752POPC   GL112745  38.419  37.699   8.864
  752POPC   GL212746  38.557  37.731   8.864
  752POPC   C1A12747  38.449  37.664   8.564
  752POPC   D2A12748  38.429  37.639   8.264
  752POPC   C3A12749  38.445  37.641   7.964
  752POPC   C4A12750  38.470  37.638   7.664
  752POPC   C1B12751  38.673  37.663   8.564
  752POPC   C2B12752  38.755  37.711   8.264
  752POPC   C3B12753  38.692  37.677   7.964
  752POPC   C4B12754  38.737  37.677   7.664
  753POPC   NC312755  10.517  14.433   9.464
  753POPC   PO412756  10.517  14.441   9.164
  753POPC   GL112757  10.547  14.399   8.864
  753POPC   GL212758  10.686  14.431   8.864
  753POPC   C1A12759  10.528  14.365   8.564
  753POPC   D2A12760  10.573  14.406   8.264
  753POPC   C3A12761  10.537  14.400   7.964
  753POPC   C4A12762  10.549  14.366   7.664
  753POPC   C1B12763  10.777  14.395   8.564
  753POPC   C2B12764  10.763  14.361   8.264
  753POPC   C3B12765  10.763  14.364   7.964
  753POPC   C4B12766  10.789  14.441   7.664
  754POPC   NC312767  39.184   2.770   9.464
  754POPC   PO412768  39.217   2.751   9.164
  754POPC   GL112769  39.248   2.718   8.864
  754POPC   GL212770  39.295   2.702   8.864
  754POPC   C1A12771  39.244   2.735   8.564
  754POPC   D2A12772  39.263   2.738   8.264
  754POPC   C3A12773  39.207   2.788   7.964
  754POPC   C4A12774  39.195   2.743   7.664
  754POPC   C1B12775  39.463   2.577   8.564
  754POPC   C2B12776  39.466   2.582   8.264
  754POPC   C3B12777  39.430   2.586   7.964
  754POPC   C4B12778  39.455   2.567   7.664
  755POPC   NC312779  15.178  31.448   9.464
  755POPC   PO412780  15.218  31.452   9.164
  755POPC   GL112781  15.135  31.437   8.864
  755POPC   GL212782  15.243  31.612   8.864
  755POPC   C1A12783  15.209  31.486   8.564
  755POPC   D2A12784  15.213  31.437   8.264
  755POPC   C3A12785  15.198  31.424   7.964
  755POPC   C4A12786  15.173  31.466   7.664
  755POPC   C1B12787  15.227  31.744   8.564
  755POPC   C2B12788  15.271  31.700   8.264
  755POPC   C3B12789  15.207  31.743   7.964
  755POPC   C4B12790  15.195  31.735   7.664
  756POPC   NC312791   1.959   9.716   9.464
  756POPC   PO412792   2.025   9.728   9.164
  756POPC   GL112793   2.013   9.774   8.864
  756POPC   GL212794   2.145   9.787   8.864
  756POPC   C1A12795   2.031   9.741   8.564
  756POPC   D2A12796   2.012   9.704   8.264
  756POPC   C3A12797   1.964   9.786   7.964
  756POPC   C4A12798   1.962   9.731   7.664
  756POPC   C1B12799   2.264   9.713   8.564
  756POPC   C2B12800   2.211   9.741   8.264
  756POPC   C3B12801   2.219   9.706   7.964
  756POPC   C4B12802   2.217   9.779   7.664
  757POPC   NC312803  27.595  24.523   9.464
  757POPC   PO412804  27.595  24.451   9.164
  757POPC   GL112805  27.590  24.501   8.864
  757POPC   GL212806  27.510  24.383   8.864
  757POPC   C1A12807  27.556  24.534   8.564
  757POPC   D2A12808  27.589  24.488   8.264
  757POPC   C3A12809  27.641  24.519   7.964
  757POPC   C4A12810  27.546  24.485   7.664
  757POPC   C1B12811  27.501  24.236   8.564
  757POPC   C2B12812  27.541  24.307   8.264
  757POPC   C3B12813  27.527  24.260   7.964
  757POPC   C4B12814  27.447  24.301   7.664
  758POPC   NC312815  40.045  28.399   9.464
  758POPC   PO412816  39.972  28.390   9.164
  758POPC   GL112817  40.022  28.398   8.864
  758POPC   GL212818  40.008  28.485   8.864
  758POPC   C1A12819  40.024  28.409   8.564
  758POPC   D2A12820  40.027  28.322   8.264
  758POPC   C3A12821  39.988  28.337   7.964
  758POPC   C4A12822  40.039  28.356   7.664
  758POPC   C1B12823  40.031  28.651   8.564
  758POPC   C2B12824  39.970  28.612   8.264
  758POPC   C3B12825  40.025  28.571   7.964
  758POPC   C4B12826  40.028  28.657   7.664
  759POPC   NC312827  22.971  36.092   9.464
  759POPC   PO412828  22.892  36.095   9.164
  759POPC   GL112829  22.892  36.098   8.864
  759POPC   GL212830  23.046  36.186   8.864
  759POPC   C1A12831  22.906  36.080   8.564
  759POPC   D2A12832  22.920  36.135   8.264
  759POPC   C3A12833  22.941  36.172   7.964
  759POPC   C4A12834  22.959  36.112   7.664
  759POPC   C1B12835  23.116  36.273   8.564
  759POPC   C2B12836  23.149  36.235   8.264
  759POPC   C3B12837  23.167  36.259   7.964
  759POPC   C4B12838  23.130  36.271   7.664
  760POPC   NC312839   5.106  36.869   9.464
  760POPC   PO412840   5.084  36.931   9.164
  760POPC   GL112841   5.112  36.864   8.864
  760POPC   GL212842   5.184  36.749   8.864
  760POPC   C1A12843   5.069  36.917   8.564
  760POPC   D2A12844   5.070  36.934   8.264
  760POPC   C3A12845   5.076  36.896   7.964
  760POPC   C4A12846   5.093  36.911   7.664
  760POPC   C1B12847   5.177  36.665   8.564
  760POPC   C2B12848   5.174  36.657   8.264
  760POPC   C3B12849   5.184  36.735   7.964
  760POPC   C4B12850   5.191  36.727   7.664
  761POPC   NC312851  18.294   8.971   9.464
  761POPC   PO412852  18.292   8.964   9.164
  761POPC   GL112853  18.248   8.961   8.864
  761POPC   GL212854  18.412   8.861   8.864
  761POPC   C1A12855  18.244   8.947   8.564
  761POPC   D2A12856  18.280   8.972   8.264
  761POPC   C3A12857  18.289   8.929   7.964
  761POPC   C4A12858  18.322   9.007   7.664
  761POPC   C1B12859  18.502   8.765   8.564
  761POPC   C2B12860  18.414   8.753   8.264
  761POPC   C3B12861  18.491   8.806   7.964
  761POPC   C4B12862  18.464   8.768   7.664
  762POPC   NC312863  21.383  13.613   9.464
  762POPC   PO412864  21.376  13.593   9.164
  762POPC   GL112865  21.355  13.675   8.864
  762POPC   GL212866  21.339  13.795   8.864
  762POPC   C1A12867  21.385  13.597   8.564
  762POPC   D2A12868  21.431  13.627   8.264
  762POPC   C3A12869  21.429  13.644   7.964
  762POPC   C4A12870  21.396  13.632   7.664
  762POPC   C1B12871  21.342  13.910   8.564
  762POPC   C2B12872  21.422  13.899   8.264
  762POPC   C3B12873  21.390  13.849   7.964
  762POPC   C4B12874  21.346  13.872   7.664
  763POPC   NC312875  31.452  33.003   9.464
  763POPC   PO412876  31.476  32.990   9.164
  763POPC   GL112877  31.479  33.042   8.864
  763POPC   GL212878  31.368  33.109   8.864
  763POPC   C1A12879  31.509  33.054   8.564
  763POPC   D2A12880  31.427  33.023   8.264
  763POPC   C3A12881  31.470  33.021   7.964
  763POPC   C4A12882  31.428  33.043   7.664
  763POPC   C1B12883  31.214  33.134   8.564
  763POPC   C2B12884  31.281  33.134   8.264
  763POPC   C3B12885  31.214  33.084   7.964
  763POPC   C4B12886  31.268  33.160   7.664
  764POPC   NC312887  38.436  39.964   9.464
  764POPC   PO412888  38.420  39.961   9.164
  764POPC   GL112889  38.457  40.052   8.864
  764POPC   GL212890  38.575  40.072   8.864
  764POPC   C1A12891  38.434  40.008   8.564
  764POPC   D2A12892  38.462  39.966   8.264
  764POPC   C3A12893  38.437  40.015   7.964
  764POPC   C4A12894  38.411  39.982   7.664
  764POPC   C1B12895  38.649  40.051   8.564
  764POPC   C2B12896  38.730  40.072   8.264
  764POPC   C3B12897  38.656  40.097   7.964
  764POPC   C4B12898  38.687  40.094   7.664
  765POPC   NC312899  33.055  14.426   9.464
  765POPC   PO412900  32.981  14.362   9.164
  765POPC   GL112901  33.036  14.361   8.864
  765POPC   GL212902  32.975  14.522   8.864
  765POPC   C1A12903  33.007  14.399   8.564
  765POPC   D2A12904  33.068  14.444   8.264
  765POPC   C3A12905  33.048  14.434   7.964
  765POPC   C4A12906  33.021  14.373   7.664
  765POPC   C1B12907  32.991  14.695   8.564
  765POPC   C2B12908  32.986  14.607   8.264
  765POPC   C3B12909  33.009  14.640   7.964
  765POPC   C4B12910  32.970  14.642   7.664
  766POPC   NC312911  12.888  28.370   9.464
  766POPC   PO412912  12.852  28.373   9.164
  766POPC   GL112913  12.891  28.398   8.864
  766POPC   GL212914  12.937  28.287   8.864
  766POPC   C1A12915  12.849  28.363   8.564
  766POPC   D2A12916  12.836  28.381   8.264
  766POPC   C3A12917  12.819  28.358   7.964
  766POPC   C4A12918  12.882  28.392   7.664
  766POPC   C1B12919  13.121  28.308   8.564
  766POPC   C2B12920  13.126  28.273   8.264
  766POPC   C3B12921  13.095  28.253   7.964
  766POPC   C4B12922  13.109  28.285   7.664
  767POPC   NC312923   0.437  43.116   9.464
  767POPC   PO412924   0.430  43.101   9.164
  767POPC   GL112925   0.390  43.139   8.864
  767POPC   GL212926   0.472  42.988   8.864
  767POPC   C1A12927   0.468  43.082   8.564
  767POPC   D2A12928   0.467  43.092   8.264
  767POPC   C3A12929   0.451  43.093   7.964
  767POPC   C4A12930   0.419  43.141   7.664
  767POPC   C1B12931   0.563  42.894   8.564
  767POPC   C2B12932   0.550  42.876   8.264
  767POPC   C3B12933   0.593  42.876   7.964
  767POPC   C4B12934   0.534  42.890   7.664
  768POPC   NC312935  33.804   2.775   9.464
  768POPC   PO412936  33.796   2.736   9.164
  768POPC   GL112937  33.845   2.806   8.864
  768POPC   GL212938  33.870   2.858   8.864
  768POPC   C1A12939  33.837   2.754   8.564
  768POPC   D2A12940  33.787   2.750   8.264
  768POPC   C3A12941  33.823   2.731   7.964
  768POPC   C4A12942  33.846   2.766   7.664
  768POPC   C1B12943  34.016   2.919   8.564
  768POPC   C2B12944  33.934   2.919   8.264
  768POPC   C3B12945  33.982   2.930   7.964
  768POPC   C4B12946  34.020   2.960   7.664
  769POPC   NC312947  35.325  43.842   9.464
  769POPC   PO412948  35.332  43.868   9.164
  769POPC   GL112949  35.310  43.923   8.864
  769POPC   GL212950  35.263  43.919   8.864
  769POPC   C1A12951  35.318  43.920   8.564
  769POPC   D2A12952  35.336  43.863   8.264
  769POPC   C3A12953  35.377  43.862   7.964
  769POPC   C4A12954  35.303  43.872   7.664
  769POPC   C1B12955  35.122  43.991   8.564
  769POPC   C2B12956  35.156  44.002   8.264
  769POPC   C3B12957  35.074  43.952   7.964
  769POPC   C4B12958  35.147  43.932   7.664
  770POPC   NC312959  34.560  19.104   9.464
  770POPC   PO412960  34.528  19.108   9.164
  770POPC   GL112961  34.562  19.068   8.864
  770POPC   GL212962  34.571  19.136   8.864
  770POPC   C1A12963  34.596  19.041   8.564
  770POPC   D2A12964  34.584  19.082   8.264
  770POPC   C3A12965  34.591  19.063   7.964
  770POPC   C4A12966  34.591  19.098   7.664
  770POPC   C1B12967  34.425  19.318   8.564
  770POPC   C2B12968  34.473  19.256   8.264
  770POPC   C3B12969  34.505  19.314   7.964
  770POPC   C4B12970  34.431  19.329   7.664
  771POPC   NC312971  36.908  14.379   9.464
  771POPC   PO412972  36.861  14.407   9.164
  771POPC   GL112973  36.906  14.390   8.864
  771POPC   GL212974  36.939  14.298   8.864
  771POPC   C1A12975  36.931  14.364   8.564
  771POPC   D2A12976  36.891  14.404   8.264
  771POPC   C3A12977  36.908  14.369   7.964
  771POPC   C4A12978  36.913  14.365   7.664
  771POPC   C1B12979  36.931  14.112   8.564
  771POPC   C2B12980  36.995  14.206   8.264
  771POPC   C3B12981  36.917  14.130   7.964
  771POPC   C4B12982  37.004  14.192   7.664
  772POPC   NC312983  44.644  41.521   9.464
  772POPC   PO412984  44.619  41.599   9.164
  772POPC   GL112985  44.701  41.567   8.864
  772POPC   GL212986  44.643  41.388   8.864
  772POPC   C1A12987  44.638  41.546   8.564
  772POPC   D2A12988  44.710  41.562   8.264
  772POPC   C3A12989  44.671  41.608   7.964
  772POPC   C4A12990  44.623  41.569   7.664
  772POPC   C1B12991  44.744  41.335   8.564
  772POPC   C2B12992  44.716  41.274   8.264
  772POPC   C3B12993  44.746  41.300   7.964
  772POPC   C4B12994  44.711  41.302   7.664
  773POPC   NC312995  11.279  30.660   9.464
  773POPC   PO412996  11.253  30.711   9.164
  773POPC   GL112997  11.334  30.740   8.864
  773POPC   GL212998  11.171  30.605   8.864
  773POPC   C1A12999  11.269  30.712   8.564
  773POPC   D2A13000  11.304  30.666   8.264
  773POPC   C3A13001  11.274  30.688   7.964
  773POPC   C4A13002  11.324  30.661   7.664
  773POPC   C1B13003  11.069  30.554   8.564
  773POPC   C2B13004  11.053  30.585   8.264
  773POPC   C3B13005  11.106  30.624   7.964
  773POPC   C4B13006  11.128  30.573   7.664
  774POPC   NC313007  41.573  23.719   9.464
  774POPC   PO413008  41.590  23.741   9.164
  774POPC   GL113009  41.512  23.741   8.864
  774POPC   GL213010  41.682  23.639   8.864
  774POPC   C1A13011  41.544  23.697   8.564
  774POPC   D2A13012  41.538  23.682   8.264
  774POPC   C3A13013  41.575  23.762   7.964
  774POPC   C4A13014  41.607  23.741   7.664
  774POPC   C1B13015  41.752  23.595   8.564
  774POPC   C2B13016  41.782  23.567   8.264
  774POPC   C3B13017  41.822  23.584   7.964
  774POPC   C4B13018  41.740  23.547   7.664
  775POPC   NC313019  31.482  17.514   9.464
  775POPC   PO413020  31.437  17.540   9.164
  775POPC   GL113021  31.443  17.458   8.864
  775POPC   GL213022  31.505  17.610   8.864
  775POPC   C1A13023  31.503  17.548   8.564
  775POPC   D2A13024  31.461  17.532   8.264
  775POPC   C3A13025  31.474  17.537   7.964
  775POPC   C4A13026  31.502  17.541   7.664
  775POPC   C1B13027  31.441  17.717   8.564
  775POPC   C2B13028  31.469  17.715   8.264
  775POPC   C3B13029  31.513  17.728   7.964
  775POPC   C4B13030  31.513  17.743   7.664
  776POPC   NC313031  43.905  10.532   9.464
  776POPC   PO413032  43.891  10.558   9.164
  776POPC   GL113033  43.859  10.552   8.864
  776POPC   GL213034  43.943  10.402   8.864
  776POPC   C1A13035  43.872  10.480   8.564
  776POPC   D2A13036  43.901  10.517   8.264
  776POPC   C3A13037  43.854  10.571   7.964
  776POPC   C4A13038  43.932  10.523   7.664
  776POPC   C1B13039  44.000  10.340   8.564
  776POPC   C2B13040  44.026  10.277   8.264
  776POPC   C3B13041  43.994  10.349   7.964
  776POPC   C4B13042  44.017  10.328   7.664
  777POPC   NC313043   9.703  34.599   9.464
  777POPC   PO413044   9.724  34.581   9.164
  777POPC   GL113045   9.797  34.589   8.864
  777POPC   GL213046   9.860  34.630   8.864
  777POPC   C1A13047   9.781  34.531   8.564
  777POPC   D2A13048   9.717  34.615   8.264
  777POPC   C3A13049   9.789  34.592   7.964
  777POPC   C4A13050   9.764  34.585   7.664
  777POPC   C1B13051   9.884  34.710   8.564
  777POPC   C2B13052   9.962  34.699   8.264
  777POPC   C3B13053   9.891  34.749   7.964
  777POPC   C4B13054   9.929  34.793   7.664
  778POPC   NC313055  10.516   5.076   9.464
  778POPC   PO413056  10.549   5.085   9.164
  778POPC   GL113057  10.516   5.079   8.864
  778POPC   GL213058  10.593   5.007   8.864
  778POPC   C1A13059  10.566   5.083   8.564
  778POPC   D2A13060  10.556   5.106   8.264
  778POPC   C3A13061  10.510   5.096   7.964
  778POPC   C4A13062  10.541   5.071   7.664
  778POPC   C1B13063  10.769   4.998   8.564
  778POPC   C2B13064  10.727   4.952   8.264
  778POPC   C3B13065  10.755   4.954   7.964
  778POPC   C4B13066  10.742   4.958   7.664
  779POPC   NC313067  34.623  29.181   9.464
  779POPC   PO413068  34.591  29.178   9.164
  779POPC   GL113069  34.623  29.158   8.864
  779POPC   GL213070  34.517  29.104   8.864
  779POPC   C1A13071  34.529  29.144   8.564
  779POPC   D2A13072  34.556  29.098   8.264
  779POPC   C3A13073  34.587  29.140   7.964
  779POPC   C4A13074  34.596  29.167   7.664
  779POPC   C1B13075  34.385  28.929   8.564
  779POPC   C2B13076  34.357  28.924   8.264
  779POPC   C3B13077  34.441  28.928   7.964
  779POPC   C4B13078  34.445  29.002   7.664
  780POPC   NC313079  43.146  14.384   9.464
  780POPC   PO413080  43.081  14.389   9.164
  780POPC   GL113081  43.070  14.374   8.864
  780POPC   GL213082  43.222  14.352   8.864
  780POPC   C1A13083  43.097  14.385   8.564
  780POPC   D2A13084  43.108  14.371   8.264
  780POPC   C3A13085  43.160  14.434   7.964
  780POPC   C4A13086  43.115  14.383   7.664
  780POPC   C1B13087  43.313  14.282   8.564
  780POPC   C2B13088  43.330  14.252   8.264
  780POPC   C3B13089  43.354  14.220   7.964
  780POPC   C4B13090  43.334  14.263   7.664
  781POPC   NC313091  15.933   6.643   9.464
  781POPC   PO413092  15.967   6.674   9.164
  781POPC   GL113093  15.920   6.622   8.864
  781POPC   GL213094  15.919   6.807   8.864
  781POPC   C1A13095  15.956   6.654   8.564
  781POPC   D2A13096  15.918   6.663   8.264
  781POPC   C3A13097  15.974   6.692   7.964
  781POPC   C4A13098  15.935   6.640   7.664
  781POPC   C1B13099  15.925   6.839   8.564
  781POPC   C2B13100  15.894   6.889   8.264
  781POPC   C3B13101  15.904   6.903   7.964
  781POPC   C4B13102  15.901   6.844   7.664
  782POPC   NC313103  37.687   2.779   9.464
  782POPC   PO413104  37.695   2.775   9.164
  782POPC   GL113105  37.712   2.793   8.864
  782POPC   GL213106  37.588   2.765   8.864
  782POPC   C1A13107  37.717   2.731   8.564
  782POPC   D2A13108  37.656   2.800   8.264
  782POPC   C3A13109  37.694   2.763   7.964
  782POPC   C4A13110  37.705   2.794   7.664
  782POPC   C1B13111  37.392   2.656   8.564
  782POPC   C2B13112  37.482   2.668   8.264
  782POPC   C3B13113  37.479   2.685   7.964
  782POPC   C4B13114  37.410   2.685   7.664
  783POPC   NC313115   8.972  19.875   9.464
  783POPC   PO413116   8.980  19.798   9.164
  783POPC   GL113117   9.020  19.799   8.864
  783POPC   GL213118   8.817  19.866   8.864
  783POPC   C1A13119   8.946  19.839   8.564
  783POPC   D2A13120   9.000  19.868   8.264
  783POPC   C3A13121   9.000  19.872   7.964
  783POPC   C4A13122   8.993  19.788   7.664
  783POPC   C1B13123   8.712  19.990   8.564
  783POPC   C2B13124   8.727  19.980   8.264
  783POPC   C3B13125   8.707  19.983   7.964
  783POPC   C4B13126   8.734  19.934   7.664
  784POPC   NC313127   3.552   5.842   9.464
  784POPC   PO413128   3.582   5.900   9.164
  784POPC   GL113129   3.515   5.858   8.864
  784POPC   GL213130   3.371   5.829   8.864
  784POPC   C1A13131   3.546   5.855   8.564
  784POPC   D2A13132   3.514   5.834   8.264
  784POPC   C3A13133   3.504   5.894   7.964
  784POPC   C4A13134   3.591   5.847   7.664
  784POPC   C1B13135   3.299   5.783   8.564
  784POPC   C2B13136   3.296   5.830   8.264
  784POPC   C3B13137   3.256   5.788   7.964
  784POPC   C4B13138   3.329   5.857   7.664
  785POPC   NC313139  21.383  41.579   9.464
  785POPC   PO413140  21.433  41.538   9.164
  785POPC   GL113141  21.412  41.584   8.864
  785POPC   GL213142  21.274  41.470   8.864
  785POPC   C1A13143  21.348  41.527   8.564
  785POPC   D2A13144  21.386  41.511   8.264
  785POPC   C3A13145  21.347  41.588   7.964
  785POPC   C4A13146  21.341  41.523   7.664
  785POPC   C1B13147  21.106  41.515   8.564
  785POPC   C2B13148  21.184  41.432   8.264
  785POPC   C3B13149  21.185  41.473   7.964
  785POPC   C4B13150  21.181  41.475   7.664
  786POPC   NC313151  34.605  28.343   9.464
  786POPC   PO413152  34.608  28.394   9.164
  786POPC   GL113153  34.579  28.418   8.864
  786POPC   GL213154  34.726  28.367   8.864
  786POPC   C1A13155  34.578  28.320   8.564
  786POPC   D2A13156  34.553  28.350   8.264
  786POPC   C3A13157  34.574  28.415   7.964
  786POPC   C4A13158  34.584  28.381   7.664
  786POPC   C1B13159  34.851  28.428   8.564
  786POPC   C2B13160  34.869  28.416   8.264
  786POPC   C3B13161  34.868  28.403   7.964
  786POPC   C4B13162  34.839  28.432   7.664
  787POPC   NC313163  44.706  16.734   9.464
  787POPC   PO413164  44.632  16.698   9.164
  787POPC   GL113165  44.639  16.685   8.864
  787POPC   GL213166  44.740  16.890   8.864
  787POPC   C1A13167  44.635  16.743   8.564
  787POPC   D2A13168  44.640  16.687   8.264
  787POPC   C3A13169  44.644  16.734   7.964
  787POPC   C4A13170  44.627  16.770   7.664
  787POPC   C1B13171  44.712  16.932   8.564
  787POPC   C2B13172  44.735  16.941   8.264
  787POPC   C3B13173  44.709  16.921   7.964
  787POPC   C4B13174  44.773  16.971   7.664
  788POPC   NC313175  39.986  38.457   9.464
  788POPC   PO413176  39.972  38.442   9.164
  788POPC   GL113177  39.985  38.450   8.864
  788POPC   GL213178  39.912  38.470   8.864
  788POPC   C1A13179  40.051  38.428   8.564
  788POPC   D2A13180  39.980  38.409   8.264
  788POPC   C3A13181  39.960  38.444   7.964
  788POPC   C4A13182  39.995  38.422   7.664
  788POPC   C1B13183  39.797  38.586   8.564
  788POPC   C2B13184  39.769  38.602   8.264
  788POPC   C3B13185  39.801  38.560   7.964
  788POPC   C4B13186  39.762  38.575   7.664
  789POPC   NC313187  43.856   2.777   9.464
  789POPC   PO413188  43.861   2.765   9.164
  789POPC   GL113189  43.887   2.770   8.864
  789POPC   GL213190  43.896   2.678   8.864
  789POPC   C1A13191  43.885   2.737   8.564
  789POPC   D2A13192  43.905   2.772   8.264
  789POPC   C3A13193  43.841   2.731   7.964
  789POPC   C4A13194  43.863   2.805   7.664
  789POPC   C1B13195  44.033   2.581   8.564
  789POPC   C2B13196  44.050   2.563   8.264
  789POPC   C3B13197  43.986   2.559   7.964
  789POPC   C4B13198  43.960   2.554   7.664
  790POPC   NC313199  12.835  40.750   9.464
  790POPC   PO413200  12.843  40.791   9.164
  790POPC   GL113201  12.882  40.761   8.864
  790POPC   GL213202  13.022  40.779   8.864
  790POPC   C1A13203  12.857  40.811   8.564
  790POPC   D2A13204  12.868  40.832   8.264
  790POPC   C3A13205  12.897  40.782   7.964
  790POPC   C4A13206  12.812  40.753   7.664
  790POPC   C1B13207  13.129  40.846   8.564
  790POPC   C2B13208  13.127  40.802   8.264
  790POPC   C3B13209  13.150  40.774   7.964
  790POPC   C4B13210  13.101  40.791   7.664
  791POPC   NC313211   4.301   1.964   9.464
  791POPC   PO413212   4.272   1.975   9.164
  791POPC   GL113213   4.283   1.986   8.864
  791POPC   GL213214   4.381   2.125   8.864
  791POPC   C1A13215   4.274   1.977   8.564
  791POPC   D2A13216   4.325   2.033   8.264
  791POPC   C3A13217   4.332   2.013   7.964
  791POPC   C4A13218   4.357   2.006   7.664
  791POPC   C1B13219   4.369   2.208   8.564
  791POPC   C2B13220   4.410   2.244   8.264
  791POPC   C3B13221   4.419   2.184   7.964
  791POPC   C4B13222   4.383   2.225   7.664
  792POPC   NC313223   4.272  34.603   9.464
  792POPC   PO413224   4.358  34.569   9.164
  792POPC   GL113225   4.291  34.604   8.864
  792POPC   GL213226   4.393  34.657   8.864
  792POPC   C1A13227   4.310  34.574   8.564
  792POPC   D2A13228   4.285  34.602   8.264
  792POPC   C3A13229   4.338  34.531   7.964
  792POPC   C4A13230   4.305  34.533   7.664
  792POPC   C1B13231   4.463  34.813   8.564
  792POPC   C2B13232   4.500  34.791   8.264
  792POPC   C3B13233   4.493  34.814   7.964
  792POPC   C4B13234   4.432  34.752   7.664
  793POPC   NC313235  36.913  12.856   9.464
  793POPC   PO413236  36.892  12.813   9.164
  793POPC   GL113237  36.947  12.813   8.864
  793POPC   GL213238  36.960  12.971   8.864
  793POPC   C1A13239  36.939  12.829   8.564
  793POPC   D2A13240  36.914  12.838   8.264
  793POPC   C3A13241  36.860  12.817   7.964
  793POPC   C4A13242  36.903  12.812   7.664
  793POPC   C1B13243  37.037  13.076   8.564
  793POPC   C2B13244  37.073  13.049   8.264
  793POPC   C3B13245  37.058  12.996   7.964
  793POPC   C4B13246  37.093  13.037   7.664
  794POPC   NC313247  12.874   6.630   9.464
  794POPC   PO413248  12.852   6.612   9.164
  794POPC   GL113249  12.826   6.676   8.864
  794POPC   GL213250  12.851   6.728   8.864
  794POPC   C1A13251  12.839   6.637   8.564
  794POPC   D2A13252  12.837   6.643   8.264
  794POPC   C3A13253  12.822   6.679   7.964
  794POPC   C4A13254  12.857   6.661   7.664
  794POPC   C1B13255  12.828   6.887   8.564
  794POPC   C2B13256  12.793   6.905   8.264
  794POPC   C3B13257  12.830   6.847   7.964
  794POPC   C4B13258  12.844   6.871   7.664
  795POPC   NC313259  39.211  29.171   9.464
  795POPC   PO413260  39.222  29.147   9.164
  795POPC   GL113261  39.261  29.113   8.864
  795POPC   GL213262  39.314  29.270   8.864
  795POPC   C1A13263  39.182  29.102   8.564
  795POPC   D2A13264  39.279  29.142   8.264
  795POPC   C3A13265  39.254  29.177   7.964
  795POPC   C4A13266  39.226  29.134   7.664
  795POPC   C1B13267  39.342  29.318   8.564
  795POPC   C2B13268  39.407  29.363   8.264
  795POPC   C3B13269  39.404  29.308   7.964
  795POPC   C4B13270  39.371  29.306   7.664
  796POPC   NC313271  22.210  36.941   9.464
  796POPC   PO413272  22.145  36.889   9.164
  796POPC   GL113273  22.127  36.856   8.864
  796POPC   GL213274  22.029  36.907   8.864
  796POPC   C1A13275  22.113  36.945   8.564
  796POPC   D2A13276  22.199  36.942   8.264
  796POPC   C3A13277  22.148  36.879   7.964
  796POPC   C4A13278  22.175  36.884   7.664
  796POPC   C1B13279  21.966  36.794   8.564
  796POPC   C2B13280  21.907  36.802   8.264
  796POPC   C3B13281  21.891  36.823   7.964
  796POPC   C4B13282  21.954  36.788   7.664
  797POPC   NC313283  44.663  26.793   9.464
  797POPC   PO413284  44.613  26.852   9.164
  797POPC   GL113285  44.684  26.788   8.864
  797POPC   GL213286  44.651  26.908   8.864
  797POPC   C1A13287  44.706  26.823   8.564
  797POPC   D2A13288  44.678  26.793   8.264
  797POPC   C3A13289  44.655  26.790   7.964
  797POPC   C4A13290  44.661  26.861   7.664
  797POPC   C1B13291  44.694  27.047   8.564
  797POPC   C2B13292  44.754  27.044   8.264
  797POPC   C3B13293  44.725  27.050   7.964
  797POPC   C4B13294  44.750  27.083   7.664
  798POPC   NC313295  40.006  24.496   9.464
  798POPC   PO413296  40.047  24.503   9.164
  798POPC   GL113297  40.008  24.530   8.864
  798POPC   GL213298  40.149  24.527   8.864
  798POPC   C1A13299  39.972  24.446   8.564
  798POPC   D2A13300  40.026  24.533   8.264
  798POPC   C3A13301  39.993  24.441   7.964
  798POPC   C4A13302  40.040  24.488   7.664
  798POPC   C1B13303  40.301  24.487   8.564
  798POPC   C2B13304  40.243  24.531   8.264
  798POPC   C3B13305  40.219  24.519   7.964
  798POPC   C4B13306  40.284  24.485   7.664
  799POPC   NC313307  44.688  26.033   9.464
  799POPC   PO413308  44.705  25.992   9.164
  799POPC   GL113309  44.677  26.062   8.864
  799POPC   GL213310  44.751  26.050   8.864
  799POPC   C1A13311  44.655  26.087   8.564
  799POPC   D2A13312  44.690  26.028   8.264
  799POPC   C3A13313  44.693  26.034   7.964
  799POPC   C4A13314  44.696  26.069   7.664
  799POPC   C1B13315  44.877  26.123   8.564
  799POPC   C2B13316  44.937  26.086   8.264
  799POPC   C3B13317  44.888  26.064   7.964
  799POPC   C4B13318  44.896  26.063   7.664
  800POPC   NC313319  21.404   2.792   9.464
  800POPC   PO413320  21.361   2.809   9.164
  800POPC   GL113321  21.382   2.795   8.864
  800POPC   GL213322  21.244   2.783   8.864
  800POPC   C1A13323  21.366   2.733   8.564
  800POPC   D2A13324  21.434   2.716   8.264
  800POPC   C3A13325  21.399   2.730   7.964
  800POPC   C4A13326  21.341   2.716   7.664
  800POPC   C1B13327  21.198   2.828   8.564
  800POPC   C2B13328  21.190   2.867   8.264
  800POPC   C3B13329  21.165   2.841   7.964
  800POPC   C4B13330  21.106   2.824   7.664
  801POPC   NC313331   8.204  10.571   9.464
  801POPC   PO413332   8.191  10.544   9.164
  801POPC   GL113333   8.177  10.504   8.864
  801POPC   GL213334   8.283  10.506   8.864
  801POPC   C1A13335   8.185  10.523   8.564
  801POPC   D2A13336   8.176  10.480   8.264
  801POPC   C3A13337   8.194  10.551   7.964
  801POPC   C4A13338   8.187  10.492   7.664
  801POPC   C1B13339   8.429  10.605   8.564
  801POPC   C2B13340   8.468  10.603   8.264
  801POPC   C3B13341   8.466  10.588   7.964
  801POPC   C4B13342   8.450  10.516   7.664
  802POPC   NC313343  25.226  37.728   9.464
  802POPC   PO413344  25.288  37.666   9.164
  802POPC   GL113345  25.276  37.650   8.864
  802POPC   GL213346  25.223  37.777   8.864
  802POPC   C1A13347  25.261  37.675   8.564
  802POPC   D2A13348  25.300  37.687   8.264
  802POPC   C3A13349  25.257  37.641   7.964
  802POPC   C4A13350  25.229  37.692   7.664
  802POPC   C1B13351  25.202  37.945   8.564
  802POPC   C2B13352  25.187  37.911   8.264
  802POPC   C3B13353  25.199  37.915   7.964
  802POPC   C4B13354  25.150  37.881   7.664
  803POPC   NC313355  20.586  32.216   9.464
  803POPC   PO413356  20.654  32.240   9.164
  803POPC   GL113357  20.635  32.286   8.864
  803POPC   GL213358  20.723  32.240   8.864
  803POPC   C1A13359  20.646  32.216   8.564
  803POPC   D2A13360  20.602  32.292   8.264
  803POPC   C3A13361  20.572  32.266   7.964
  803POPC   C4A13362  20.650  32.237   7.664
  803POPC   C1B13363  20.861  32.312   8.564
  803POPC   C2B13364  20.836  32.355   8.264
  803POPC   C3B13365  20.867  32.335   7.964
  803POPC   C4B13366  20.894  32.324   7.664
  804POPC   NC313367  36.863  41.587   9.464
  804POPC   PO413368  36.930  41.551   9.164
  804POPC   GL113369  36.945  41.589   8.864
  804POPC   GL213370  36.817  41.634   8.864
  804POPC   C1A13371  36.887  41.556   8.564
  804POPC   D2A13372  36.883  41.543   8.264
  804POPC   C3A13373  36.904  41.531   7.964
  804POPC   C4A13374  36.888  41.517   7.664
  804POPC   C1B13375  36.748  41.822   8.564
  804POPC   C2B13376  36.745  41.799   8.264
  804POPC   C3B13377  36.762  41.741   7.964
  804POPC   C4B13378  36.801  41.729   7.664
  805POPC   NC313379  43.929  39.278   9.464
  805POPC   PO413380  43.910  39.279   9.164
  805POPC   GL113381  43.863  39.205   8.864
  805POPC   GL213382  43.932  39.374   8.864
  805POPC   C1A13383  43.868  39.208   8.564
  805POPC   D2A13384  43.871  39.265   8.264
  805POPC   C3A13385  43.843  39.253   7.964
  805POPC   C4A13386  43.913  39.268   7.664
  805POPC   C1B13387  43.928  39.437   8.564
  805POPC   C2B13388  43.945  39.463   8.264
  805POPC   C3B13389  44.002  39.447   7.964
  805POPC   C4B13390  43.932  39.476   7.664
  806POPC   NC313391  26.063  39.974   9.464
  806POPC   PO413392  26.023  40.036   9.164
  806POPC   GL113393  26.059  39.968   8.864
  806POPC   GL213394  26.028  40.116   8.864
  806POPC   C1A13395  26.048  40.032   8.564
  806POPC   D2A13396  26.045  40.027   8.264
  806POPC   C3A13397  26.051  39.985   7.964
  806POPC   C4A13398  26.056  40.055   7.664
  806POPC   C1B13399  25.931  40.281   8.564
  806POPC   C2B13400  25.918  40.196   8.264
  806POPC   C3B13401  25.941  40.196   7.964
  806POPC   C4B13402  25.953  40.194   7.664
  807POPC   NC313403  38.447  10.482   9.464
  807POPC   PO413404  38.446  10.520   9.164
  807POPC   GL113405  38.499  10.526   8.864
  807POPC   GL213406  38.317  10.600   8.864
  807POPC   C1A13407  38.412  10.546   8.564
  807POPC   D2A13408  38.437  10.537   8.264
  807POPC   C3A13409  38.461  10.523   7.964
  807POPC   C4A13410  38.447  10.538   7.664
  807POPC   C1B13411  38.238  10.644   8.564
  807POPC   C2B13412  38.234  10.672   8.264
  807POPC   C3B13413  38.256  10.680   7.964
  807POPC   C4B13414  38.231  10.671   7.664
  808POPC   NC313415  12.825  37.648   9.464
  808POPC   PO413416  12.828  37.629   9.164
  808POPC   GL113417  12.896  37.707   8.864
  808POPC   GL213418  12.772  37.767   8.864
  808POPC   C1A13419  12.890  37.635   8.564
  808POPC   D2A13420  12.823  37.726   8.264
  808POPC   C3A13421  12.835  37.719   7.964
  808POPC   C4A13422  12.832  37.728   7.664
  808POPC   C1B13423  12.718  37.893   8.564
  808POPC   C2B13424  12.748  37.857   8.264
  808POPC   C3B13425  12.712  37.855   7.964
  808POPC   C4B13426  12.717  37.916   7.664
  809POPC   NC313427  36.946  39.980   9.464
  809POPC   PO413428  36.878  39.988   9.164
  809POPC   GL113429  36.873  40.028   8.864
  809POPC   GL213430  36.842  40.112   8.864
  809POPC   C1A13431  36.919  39.973   8.564
  809POPC   D2A13432  36.909  39.994   8.264
  809POPC   C3A13433  36.882  39.998   7.964
  809POPC   C4A13434  36.877  40.002   7.664
  809POPC   C1B13435  36.824  40.295   8.564
  809POPC   C2B13436  36.840  40.210   8.264
  809POPC   C3B13437  36.849  40.222   7.964
  809POPC   C4B13438  36.823  40.242   7.664
  810POPC   NC313439  24.507  21.434   9.464
  810POPC   PO413440  24.446  21.353   9.164
  810POPC   GL113441  24.465  21.432   8.864
  810POPC   GL213442  24.522  21.293   8.864
  810POPC   C1A13443  24.447  21.388   8.564
  810POPC   D2A13444  24.457  21.394   8.264
  810POPC   C3A13445  24.486  21.406   7.964
  810POPC   C4A13446  24.491  21.347   7.664
  810POPC   C1B13447  24.545  21.099   8.564
  810POPC   C2B13448  24.550  21.171   8.264
  810POPC   C3B13449  24.503  21.179   7.964
  810POPC   C4B13450  24.529  21.159   7.664
  811POPC   NC313451  36.868  38.500   9.464
  811POPC   PO413452  36.930  38.485   9.164
  811POPC   GL113453  36.857  38.437   8.864
  811POPC   GL213454  36.795  38.471   8.864
  811POPC   C1A13455  36.895  38.443   8.564
  811POPC   D2A13456  36.900  38.436   8.264
  811POPC   C3A13457  36.938  38.432   7.964
  811POPC   C4A13458  36.886  38.487   7.664
  811POPC   C1B13459  36.627  38.366   8.564
  811POPC   C2B13460  36.667  38.424   8.264
  811POPC   C3B13461  36.633  38.436   7.964
  811POPC   C4B13462  36.640  38.360   7.664
  812POPC   NC313463  30.730  36.127   9.464
  812POPC   PO413464  30.706  36.129   9.164
  812POPC   GL113465  30.680  36.115   8.864
  812POPC   GL213466  30.626  36.215   8.864
  812POPC   C1A13467  30.679  36.171   8.564
  812POPC   D2A13468  30.682  36.148   8.264
  812POPC   C3A13469  30.713  36.177   7.964
  812POPC   C4A13470  30.715  36.084   7.664
  812POPC   C1B13471  30.527  36.313   8.564
  812POPC   C2B13472  30.555  36.300   8.264
  812POPC   C3B13473  30.551  36.295   7.964
  812POPC   C4B13474  30.529  36.271   7.664
  813POPC   NC313475  42.306   8.177   9.464
  813POPC   PO413476  42.365   8.222   9.164
  813POPC   GL113477  42.349   8.185   8.864
  813POPC   GL213478  42.249   8.157   8.864
  813POPC   C1A13479  42.353   8.185   8.564
  813POPC   D2A13480  42.366   8.200   8.264
  813POPC   C3A13481  42.307   8.181   7.964
  813POPC   C4A13482  42.324   8.186   7.664
  813POPC   C1B13483  42.104   8.076   8.564
  813POPC   C2B13484  42.120   8.020   8.264
  813POPC   C3B13485  42.160   8.076   7.964
  813POPC   C4B13486  42.148   8.003   7.664
  814POPC   NC313487  34.563  23.674   9.464
  814POPC   PO413488  34.562  23.719   9.164
  814POPC   GL113489  34.580  23.668   8.864
  814POPC   GL213490  34.688  23.789   8.864
  814POPC   C1A13491  34.624  23.711   8.564
  814POPC   D2A13492  34.560  23.731   8.264
  814POPC   C3A13493  34.622  23.670   7.964
  814POPC   C4A13494  34.545  23.667   7.664
  814POPC   C1B13495  34.784  23.758   8.564
  814POPC   C2B13496  34.760  23.799   8.264
  814POPC   C3B13497  34.790  23.824   7.964
  814POPC   C4B13498  34.840  23.811   7.664
  815POPC   NC313499  29.162  16.759   9.464
  815POPC   PO413500  29.186  16.710   9.164
  815POPC   GL113501  29.101  16.764   8.864
  815POPC   GL213502  28.983  16.720   8.864
  815POPC   C1A13503  29.186  16.713   8.564
  815POPC   D2A13504  29.179  16.737   8.264
  815POPC   C3A13505  29.125  16.746   7.964
  815POPC   C4A13506  29.098  16.752   7.664
  815POPC   C1B13507  28.904  16.729   8.564
  815POPC   C2B13508  28.864  16.693   8.264
  815POPC   C3B13509  28.900  16.715   7.964
  815POPC   C4B13510  28.929  16.681   7.664
  816POPC   NC313511   4.268  39.213   9.464
  816POPC   PO413512   4.290  39.249   9.164
  816POPC   GL113513   4.341  39.257   8.864
  816POPC   GL213514   4.309  39.386   8.864
  816POPC   C1A13515   4.350  39.274   8.564
  816POPC   D2A13516   4.302  39.190   8.264
  816POPC   C3A13517   4.300  39.219   7.964
  816POPC   C4A13518   4.330  39.255   7.664
  816POPC   C1B13519   4.321  39.458   8.564
  816POPC   C2B13520   4.312  39.526   8.264
  816POPC   C3B13521   4.311  39.496   7.964
  816POPC   C4B13522   4.297  39.441   7.664
  817POPC   NC313523  19.857  20.622   9.464
  817POPC   PO413524  19.835  20.608   9.164
  817POPC   GL113525  19.837  20.651   8.864
  817POPC   GL213526  19.974  20.496   8.864
  817POPC   C1A13527  19.836  20.598   8.564
  817POPC   D2A13528  19.884  20.584   8.264
  817POPC   C3A13529  19.825  20.652   7.964
  817POPC   C4A13530  19.793  20.570   7.664
  817POPC   C1B13531  20.026  20.403   8.564
  817POPC   C2B13532  19.984  20.454   8.264
  817POPC   C3B13533  20.048  20.457   7.964
  817POPC   C4B13534  19.986  20.484   7.664
  818POPC   NC313535   4.302  36.887   9.464
  818POPC   PO413536   4.355  36.854   9.164
  818POPC   GL113537   4.271  36.856   8.864
  818POPC   GL213538   4.400  36.807   8.864
  818POPC   C1A13539   4.271  36.946   8.564
  818POPC   D2A13540   4.308  36.902   8.264
  818POPC   C3A13541   4.314  36.875   7.964
  818POPC   C4A13542   4.340  36.862   7.664
  818POPC   C1B13543   4.402  36.693   8.564
  818POPC   C2B13544   4.368  36.680   8.264
  818POPC   C3B13545   4.406  36.634   7.964
  818POPC   C4B13546   4.408  36.654   7.664
  819POPC   NC313547  26.845  17.541   9.464
  819POPC   PO413548  26.838  17.522   9.164
  819POPC   GL113549  26.796  17.520   8.864
  819POPC   GL213550  26.859  17.580   8.864
  819POPC   C1A13551  26.851  17.474   8.564
  819POPC   D2A13552  26.807  17.459   8.264
  819POPC   C3A13553  26.858  17.482   7.964
  819POPC   C4A13554  26.768  17.471   7.664
  819POPC   C1B13555  26.920  17.782   8.564
  819POPC   C2B13556  26.903  17.764   8.264
  819POPC   C3B13557  26.936  17.715   7.964
  819POPC   C4B13558  26.923  17.787   7.664
  820POPC   NC313559  30.662   5.120   9.464
  820POPC   PO413560  30.656   5.137   9.164
  820POPC   GL113561  30.736   5.118   8.864
  820POPC   GL213562  30.802   5.149   8.864
  820POPC   C1A13563  30.679   5.141   8.564
  820POPC   D2A13564  30.722   5.093   8.264
  820POPC   C3A13565  30.670   5.131   7.964
  820POPC   C4A13566  30.703   5.063   7.664
  820POPC   C1B13567  30.852   5.276   8.564
  820POPC   C2B13568  30.891   5.286   8.264
  820POPC   C3B13569  30.931   5.285   7.964
  820POPC   C4B13570  30.850   5.303   7.664
  821POPC   NC313571   8.980   0.437   9.464
  821POPC   PO413572   9.003   0.420   9.164
  821POPC   GL113573   8.975   0.412   8.864
  821POPC   GL213574   9.004   0.527   8.864
  821POPC   C1A13575   8.966   0.458   8.564
  821POPC   D2A13576   8.955   0.480   8.264
  821POPC   C3A13577   9.020   0.465   7.964
  821POPC   C4A13578   8.963   0.485   7.664
  821POPC   C1B13579   8.978   0.727   8.564
  821POPC   C2B13580   8.966   0.722   8.264
  821POPC   C3B13581   8.919   0.736   7.964
  821POPC   C4B13582   8.997   0.643   7.664
  822POPC   NC313583   4.365  12.102   9.464
  822POPC   PO413584   4.331  12.054   9.164
  822POPC   GL113585   4.365  12.108   8.864
  822POPC   GL213586   4.393  11.947   8.864
  822POPC   C1A13587   4.290  12.105   8.564
  822POPC   D2A13588   4.287  12.099   8.264
  822POPC   C3A13589   4.310  12.090   7.964
  822POPC   C4A13590   4.319  12.066   7.664
  822POPC   C1B13591   4.508  11.894   8.564
  822POPC   C2B13592   4.449  11.849   8.264
  822POPC   C3B13593   4.440  11.833   7.964
  822POPC   C4B13594   4.491  11.864   7.664
  823POPC   NC313595  19.835  38.444   9.464
  823POPC   PO413596  19.830  38.436   9.164
  823POPC   GL113597  19.876  38.451   8.864
  823POPC   GL213598  19.712  38.403   8.864
  823POPC   C1A13599  19.836  38.416   8.564
  823POPC   D2A13600  19.819  38.415   8.264
  823POPC   C3A13601  19.816  38.433   7.964
  823POPC   C4A13602  19.875  38.434   7.664
  823POPC   C1B13603  19.625  38.457   8.564
  823POPC   C2B13604  19.564  38.465   8.264
  823POPC   C3B13605  19.578  38.454   7.964
  823POPC   C4B13606  19.627  38.486   7.664
  824POPC   NC313607  39.198  36.163   9.464
  824POPC   PO413608  39.222  36.097   9.164
  824POPC   GL113609  39.276  36.079   8.864
  824POPC   GL213610  39.297  36.253   8.864
  824POPC   C1A13611  39.255  36.092   8.564
  824POPC   D2A13612  39.223  36.089   8.264
  824POPC   C3A13613  39.187  36.147   7.964
  824POPC   C4A13614  39.207  36.173   7.664
  824POPC   C1B13615  39.349  36.361   8.564
  824POPC   C2B13616  39.376  36.342   8.264
  824POPC   C3B13617  39.384  36.339   7.964
  824POPC   C4B13618  39.349  36.334   7.664
  825POPC   NC313619   2.026  29.924   9.464
  825POPC   PO413620   2.028  29.960   9.164
  825POPC   GL113621   1.984  29.930   8.864
  825POPC   GL213622   1.932  30.014   8.864
  825POPC   C1A13623   1.959  29.915   8.564
  825POPC   D2A13624   1.994  29.886   8.264
  825POPC   C3A13625   1.989  29.919   7.964
  825POPC   C4A13626   1.974  29.949   7.664
  825POPC   C1B13627   1.904  30.106   8.564
  825POPC   C2B13628   1.867  30.197   8.264
  825POPC   C3B13629   1.855  30.148   7.964
  825POPC   C4B13630   1.932  30.175   7.664
  826POPC   NC313631  26.784  15.155   9.464
  826POPC   PO413632  26.806  15.206   9.164
  826POPC   GL113633  26.791  15.145   8.864
  826POPC   GL213634  26.854  15.259   8.864
  826POPC   C1A13635  26.812  15.177   8.564
  826POPC   D2A13636  26.785  15.201   8.264
  826POPC   C3A13637  26.787  15.184   7.964
  826POPC   C4A13638  26.857  15.169   7.664
  826POPC   C1B13639  26.846  15.431   8.564
  826POPC   C2B13640  26.822  15.434   8.264
  826POPC   C3B13641  26.848  15.445   7.964
  826POPC   C4B13642  26.829  15.406   7.664
  827POPC   NC313643  30.730   1.216   9.464
  827POPC   PO413644  30.677   1.174   9.164
  827POPC   GL113645  30.725   1.238   8.864
  827POPC   GL213646  30.674   1.098   8.864
  827POPC   C1A13647  30.744   1.243   8.564
  827POPC   D2A13648  30.718   1.209   8.264
  827POPC   C3A13649  30.660   1.210   7.964
  827POPC   C4A13650  30.664   1.164   7.664
  827POPC   C1B13651  30.611   0.924   8.564
  827POPC   C2B13652  30.673   0.961   8.264
  827POPC   C3B13653  30.666   1.002   7.964
  827POPC   C4B13654  30.640   1.011   7.664
  828POPC   NC313655  35.342  10.571   9.464
  828POPC   PO413656  35.312  10.555   9.164
  828POPC   GL113657  35.307  10.487   8.864
  828POPC   GL213658  35.226  10.437   8.864
  828POPC   C1A13659  35.389  10.514   8.564
  828POPC   D2A13660  35.347  10.514   8.264
  828POPC   C3A13661  35.377  10.538   7.964
  828POPC   C4A13662  35.372  10.517   7.664
  828POPC   C1B13663  35.135  10.401   8.564
  828POPC   C2B13664  35.085  10.410   8.264
  828POPC   C3B13665  35.158  10.404   7.964
  828POPC   C4B13666  35.131  10.395   7.664
  829POPC   NC313667  28.353  26.078   9.464
  829POPC   PO413668  28.331  26.079   9.164
  829POPC   GL113669  28.404  26.068   8.864
  829POPC   GL213670  28.368  26.123   8.864
  829POPC   C1A13671  28.320  26.056   8.564
  829POPC   D2A13672  28.393  26.073   8.264
  829POPC   C3A13673  28.376  26.023   7.964
  829POPC   C4A13674  28.405  26.005   7.664
  829POPC   C1B13675  28.268  26.293   8.564
  829POPC   C2B13676  28.364  26.260   8.264
  829POPC   C3B13677  28.324  26.250   7.964
  829POPC   C4B13678  28.285  26.300   7.664
  830POPC   NC313679  11.327  42.312   9.464
  830POPC   PO413680  11.298  42.346   9.164
  830POPC   GL113681  11.317  42.352   8.864
  830POPC   GL213682  11.377  42.432   8.864
  830POPC   C1A13683  11.323  42.363   8.564
  830POPC   D2A13684  11.336  42.316   8.264
  830POPC   C3A13685  11.308  42.285   7.964
  830POPC   C4A13686  11.317  42.348   7.664
  830POPC   C1B13687  11.518  42.470   8.564
  830POPC   C2B13688  11.487  42.502   8.264
  830POPC   C3B13689  11.467  42.503   7.964
  830POPC   C4B13690  11.543  42.428   7.664
  831POPC   NC313691  12.113  29.902   9.464
  831POPC   PO413692  12.109  29.922   9.164
  831POPC   GL113693  12.058  29.967   8.864
  831POPC   GL213694  11.944  29.922   8.864
  831POPC   C1A13695  12.116  29.884   8.564
  831POPC   D2A13696  12.066  29.892   8.264
  831POPC   C3A13697  12.083  29.879   7.964
  831POPC   C4A13698  12.096  29.941   7.664
  831POPC   C1B13699  11.801  29.939   8.564
  831POPC   C2B13700  11.831  29.952   8.264
  831POPC   C3B13701  11.847  29.952   7.964
  831POPC   C4B13702  11.870  29.934   7.664
  832POPC   NC313703  27.553   8.933   9.464
  832POPC   PO413704  27.583   8.937   9.164
  832POPC   GL113705  27.632   9.006   8.864
  832POPC   GL213706  27.479   9.016   8.864
  832POPC   C1A13707  27.599   8.926   8.564
  832POPC   D2A13708  27.606   8.983   8.264
  832POPC   C3A13709  27.599   8.958   7.964
  832POPC   C4A13710  27.589   9.001   7.664
  832POPC   C1B13711  27.359   9.028   8.564
  832POPC   C2B13712  27.348   9.109   8.264
  832POPC   C3B13713  27.376   9.087   7.964
  832POPC   C4B13714  27.345   9.072   7.664
  833POPC   NC313715  38.423  23.704   9.464
  833POPC   PO413716  38.466  23.761   9.164
  833POPC   GL113717  38.439  23.757   8.864
  833POPC   GL213718  38.592  23.616   8.864
  833POPC   C1A13719  38.464  23.684   8.564
  833POPC   D2A13720  38.478  23.702   8.264
  833POPC   C3A13721  38.413  23.727   7.964
  833POPC   C4A13722  38.494  23.713   7.664
  833POPC   C1B13723  38.658  23.533   8.564
  833POPC   C2B13724  38.668  23.590   8.264
  833POPC   C3B13725  38.650  23.598   7.964
  833POPC   C4B13726  38.678  23.612   7.664
  834POPC   NC313727  36.135  22.921   9.464
  834POPC   PO413728  36.083  22.901   9.164
  834POPC   GL113729  36.111  22.893   8.864
  834POPC   GL213730  36.262  22.840   8.864
  834POPC   C1A13731  36.116  22.982   8.564
  834POPC   D2A13732  36.125  22.980   8.264
  834POPC   C3A13733  36.140  22.934   7.964
  834POPC   C4A13734  36.169  22.908   7.664
  834POPC   C1B13735  36.342  22.809   8.564
  834POPC   C2B13736  36.330  22.816   8.264
  834POPC   C3B13737  36.321  22.763   7.964
  834POPC   C4B13738  36.298  22.728   7.664
  835POPC   NC313739   9.010  37.689   9.464
  835POPC   PO413740   8.953  37.646   9.164
  835POPC   GL113741   8.951  37.637   8.864
  835POPC   GL213742   8.891  37.577   8.864
  835POPC   C1A13743   8.933  37.631   8.564
  835POPC   D2A13744   8.959  37.717   8.264
  835POPC   C3A13745   8.984  37.649   7.964
  835POPC   C4A13746   8.971  37.670   7.664
  835POPC   C1B13747   8.854  37.488   8.564
  835POPC   C2B13748   8.845  37.509   8.264
  835POPC   C3B13749   8.791  37.433   7.964
  835POPC   C4B13750   8.844  37.520   7.664
  836POPC   NC313751   7.388  36.112   9.464
  836POPC   PO413752   7.399  36.167   9.164
  836POPC   GL113753   7.451  36.092   8.864
  836POPC   GL213754   7.341  36.215   8.864
  836POPC   C1A13755   7.380  36.131   8.564
  836POPC   D2A13756   7.395  36.083   8.264
  836POPC   C3A13757   7.427  36.168   7.964
  836POPC   C4A13758   7.393  36.109   7.664
  836POPC   C1B13759   7.346  36.297   8.564
  836POPC   C2B13760   7.343  36.351   8.264
  836POPC   C3B13761   7.293  36.302   7.964
  836POPC   C4B13762   7.253  36.370   7.664
  837POPC   NC313763   8.220  42.326   9.464
  837POPC   PO413764   8.162  42.314   9.164
  837POPC   GL113765   8.227  42.306   8.864
  837POPC   GL213766   8.250  42.479   8.864
  837POPC   C1A13767   8.166  42.349   8.564
  837POPC   D2A13768   8.149  42.382   8.264
  837POPC   C3A13769   8.183  42.370   7.964
  837POPC   C4A13770   8.150  42.363   7.664
  837POPC   C1B13771   8.334  42.576   8.564
  837POPC   C2B13772   8.332  42.517   8.264
  837POPC   C3B13773   8.295  42.557   7.964
  837POPC   C4B13774   8.315  42.558   7.664
  838POPC   NC313775  31.511  40.012   9.464
  838POPC   PO413776  31.517  40.009   9.164
  838POPC   GL113777  31.432  39.966   8.864
  838POPC   GL213778  31.617  40.031   8.864
  838POPC   C1A13779  31.433  40.027   8.564
  838POPC   D2A13780  31.504  39.973   8.264
  838POPC   C3A13781  31.494  39.967   7.964
  838POPC   C4A13782  31.507  39.991   7.664
  838POPC   C1B13783  31.685  40.111   8.564
  838POPC   C2B13784  31.662  40.099   8.264
  838POPC   C3B13785  31.693  40.160   7.964
  838POPC   C4B13786  31.680  40.069   7.664
  839POPC   NC313787  22.134  42.308   9.464
  839POPC   PO413788  22.205  42.294   9.164
  839POPC   GL113789  22.167  42.301   8.864
  839POPC   GL213790  21.995  42.303   8.864
  839POPC   C1A13791  22.172  42.294   8.564
  839POPC   D2A13792  22.132  42.312   8.264
  839POPC   C3A13793  22.190  42.303   7.964
  839POPC   C4A13794  22.193  42.377   7.664
  839POPC   C1B13795  21.923  42.288   8.564
  839POPC   C2B13796  21.874  42.215   8.264
  839POPC   C3B13797  21.917  42.292   7.964
  839POPC   C4B13798  21.930  42.277   7.664
  840POPC   NC313799  42.365  43.902   9.464
  840POPC   PO413800  42.347  43.860   9.164
  840POPC   GL113801  42.345  43.896   8.864
  840POPC   GL213802  42.236  44.044   8.864
  840POPC   C1A13803  42.298  43.844   8.564
  840POPC   D2A13804  42.360  43.918   8.264
  840POPC   C3A13805  42.374  43.914   7.964
  840POPC   C4A13806  42.336  43.913   7.664
  840POPC   C1B13807  42.252  44.093   8.564
  840POPC   C2B13808  42.251  44.110   8.264
  840POPC   C3B13809  42.205  44.095   7.964
  840POPC   C4B13810  42.244  44.109   7.664
  841POPC   NC313811  29.933  44.663   9.464
  841POPC   PO413812  29.931  44.695   9.164
  841POPC   GL113813  29.918  44.651   8.864
  841POPC   GL213814  29.835  44.726   8.864
  841POPC   C1A13815  29.892  44.654   8.564
  841POPC   D2A13816  29.936  44.630   8.264
  841POPC   C3A13817  29.876  44.658   7.964
  841POPC   C4A13818  29.901  44.653   7.664
  841POPC   C1B13819  29.732  44.838   8.564
  841POPC   C2B13820  29.772  44.819   8.264
  841POPC   C3B13821  29.789  44.858   7.964
  841POPC   C4B13822  29.822  44.908   7.664
  842POPC   NC313823  14.430   9.705   9.464
  842POPC   PO413824  14.415   9.730   9.164
  842POPC   GL113825  14.368   9.750   8.864
  842POPC   GL213826  14.283   9.791   8.864
  842POPC   C1A13827  14.381   9.720   8.564
  842POPC   D2A13828  14.426   9.714   8.264
  842POPC   C3A13829  14.441   9.733   7.964
  842POPC   C4A13830  14.362   9.701   7.664
  842POPC   C1B13831  14.186   9.892   8.564
  842POPC   C2B13832  14.250   9.876   8.264
  842POPC   C3B13833  14.162   9.941   7.964
  842POPC   C4B13834  14.200   9.914   7.664
  843POPC   NC313835  19.039   5.883   9.464
  843POPC   PO413836  19.101   5.854   9.164
  843POPC   GL113837  19.063   5.907   8.864
  843POPC   GL213838  19.097   5.728   8.864
  843POPC   C1A13839  19.026   5.892   8.564
  843POPC   D2A13840  19.021   5.844   8.264
  843POPC   C3A13841  19.074   5.894   7.964
  843POPC   C4A13842  19.044   5.854   7.664
  843POPC   C1B13843  19.025   5.668   8.564
  843POPC   C2B13844  19.082   5.571   8.264
  843POPC   C3B13845  19.028   5.656   7.964
  843POPC   C4B13846  19.080   5.668   7.664
  844POPC   NC313847  10.543  33.068   9.464
  844POPC   PO413848  10.509  33.012   9.164
  844POPC   GL113849  10.560  33.022   8.864
  844POPC   GL213850  10.435  33.086   8.864
  844POPC   C1A13851  10.550  33.019   8.564
  844POPC   D2A13852  10.562  33.042   8.264
  844POPC   C3A13853  10.477  32.995   7.964
  844POPC   C4A13854  10.476  33.008   7.664
  844POPC   C1B13855  10.288  33.106   8.564
  844POPC   C2B13856  10.253  33.083   8.264
  844POPC   C3B13857  10.259  33.077   7.964
  844POPC   C4B13858  10.305  33.085   7.664
  845POPC   NC313859   7.373  25.311   9.464
  845POPC   PO413860   7.411  25.280   9.164
  845POPC   GL113861   7.383  25.298   8.864
  845POPC   GL213862   7.285  25.390   8.864
  845POPC   C1A13863   7.418  25.312   8.564
  845POPC   D2A13864   7.380  25.289   8.264
  845POPC   C3A13865   7.395  25.311   7.964
  845POPC   C4A13866   7.407  25.296   7.664
  845POPC   C1B13867   7.270  25.374   8.564
  845POPC   C2B13868   7.211  25.367   8.264
  845POPC   C3B13869   7.212  25.428   7.964
  845POPC   C4B13870   7.236  25.424   7.664
  846POPC   NC313871  39.277   3.520   9.464
  846POPC   PO413872  39.263   3.549   9.164
  846POPC   GL113873  39.184   3.520   8.864
  846POPC   GL213874  39.120   3.538   8.864
  846POPC   C1A13875  39.277   3.548   8.564
  846POPC   D2A13876  39.241   3.510   8.264
  846POPC   C3A13877  39.184   3.537   7.964
  846POPC   C4A13878  39.183   3.565   7.664
  846POPC   C1B13879  39.016   3.519   8.564
  846POPC   C2B13880  38.940   3.543   8.264
  846POPC   C3B13881  38.948   3.473   7.964
  846POPC   C4B13882  39.013   3.498   7.664
  847POPC   NC313883  33.043  43.907   9.464
  847POPC   PO413884  32.986  43.838   9.164
  847POPC   GL113885  33.054  43.883   8.864
  847POPC   GL213886  32.945  43.928   8.864
  847POPC   C1A13887  32.980  43.869   8.564
  847POPC   D2A13888  33.048  43.859   8.264
  847POPC   C3A13889  33.058  43.853   7.964
  847POPC   C4A13890  33.068  43.869   7.664
  847POPC   C1B13891  32.805  44.021   8.564
  847POPC   C2B13892  32.815  44.026   8.264
  847POPC   C3B13893  32.819  44.043   7.964
  847POPC   C4B13894  32.763  43.990   7.664
  848POPC   NC313895  20.632  29.907   9.464
  848POPC   PO413896  20.631  29.899   9.164
  848POPC   GL113897  20.629  29.965   8.864
  848POPC   GL213898  20.554  29.959   8.864
  848POPC   C1A13899  20.621  29.909   8.564
  848POPC   D2A13900  20.651  29.899   8.264
  848POPC   C3A13901  20.606  29.888   7.964
  848POPC   C4A13902  20.601  29.936   7.664
  848POPC   C1B13903  20.381  30.055   8.564
  848POPC   C2B13904  20.459  30.039   8.264
  848POPC   C3B13905  20.464  30.126   7.964
  848POPC   C4B13906  20.465  30.112   7.664
  849POPC   NC313907  33.048   7.374   9.464
  849POPC   PO413908  33.004   7.393   9.164
  849POPC   GL113909  32.992   7.408   8.864
  849POPC   GL213910  33.047   7.345   8.864
  849POPC   C1A13911  33.066   7.405   8.564
  849POPC   D2A13912  33.042   7.456   8.264
  849POPC   C3A13913  33.069   7.396   7.964
  849POPC   C4A13914  33.016   7.434   7.664
  849POPC   C1B13915  32.989   7.216   8.564
  849POPC   C2B13916  33.039   7.144   8.264
  849POPC   C3B13917  33.020   7.161   7.964
  849POPC   C4B13918  32.996   7.171   7.664
  850POPC   NC313919  28.405  18.282   9.464
  850POPC   PO413920  28.383  18.233   9.164
  850POPC   GL113921  28.323  18.317   8.864
  850POPC   GL213922  28.309  18.386   8.864
  850POPC   C1A13923  28.338  18.285   8.564
  850POPC   D2A13924  28.415  18.315   8.264
  850POPC   C3A13925  28.354  18.300   7.964
  850POPC   C4A13926  28.402  18.271   7.664
  850POPC   C1B13927  28.377  18.542   8.564
  850POPC   C2B13928  28.352  18.575   8.264
  850POPC   C3B13929  28.301  18.547   7.964
  850POPC   C4B13930  28.393  18.499   7.664
  851POPC   NC313931  33.826  12.844   9.464
  851POPC   PO413932  33.784  12.810   9.164
  851POPC   GL113933  33.835  12.850   8.864
  851POPC   GL213934  33.688  12.968   8.864
  851POPC   C1A13935  33.754  12.894   8.564
  851POPC   D2A13936  33.847  12.854   8.264
  851POPC   C3A13937  33.841  12.817   7.964
  851POPC   C4A13938  33.764  12.803   7.664
  851POPC   C1B13939  33.563  13.003   8.564
  851POPC   C2B13940  33.580  12.953   8.264
  851POPC   C3B13941  33.630  12.952   7.964
  851POPC   C4B13942  33.594  13.029   7.664
  852POPC   NC313943  26.789  32.977   9.464
  852POPC   PO413944  26.778  33.008   9.164
  852POPC   GL113945  26.848  33.042   8.864
  852POPC   GL213946  26.724  32.972   8.864
  852POPC   C1A13947  26.829  33.047   8.564
  852POPC   D2A13948  26.838  32.995   8.264
  852POPC   C3A13949  26.790  33.050   7.964
  852POPC   C4A13950  26.806  33.055   7.664
  852POPC   C1B13951  26.544  32.957   8.564
  852POPC   C2B13952  26.562  32.948   8.264
  852POPC   C3B13953  26.554  33.000   7.964
  852POPC   C4B13954  26.613  32.954   7.664
  853POPC   NC313955  15.207   1.194   9.464
  853POPC   PO413956  15.211   1.245   9.164
  853POPC   GL113957  15.227   1.230   8.864
  853POPC   GL213958  15.064   1.237   8.864
  853POPC   C1A13959  15.171   1.231   8.564
  853POPC   D2A13960  15.229   1.217   8.264
  853POPC   C3A13961  15.212   1.179   7.964
  853POPC   C4A13962  15.227   1.217   7.664
  853POPC   C1B13963  14.945   1.190   8.564
  853POPC   C2B13964  14.915   1.265   8.264
  853POPC   C3B13965  14.900   1.190   7.964
  853POPC   C4B13966  14.886   1.196   7.664
  854POPC   NC313967  24.499   2.036   9.464
  854POPC   PO413968  24.444   1.994   9.164
  854POPC   GL113969  24.483   1.957   8.864
  854POPC   GL213970  24.585   2.096   8.864
  854POPC   C1A13971  24.505   1.950   8.564
  854POPC   D2A13972  24.476   2.024   8.264
  854POPC   C3A13973  24.467   1.941   7.964
  854POPC   C4A13974  24.466   1.992   7.664
  854POPC   C1B13975  24.652   2.216   8.564
  854POPC   C2B13976  24.642   2.180   8.264
  854POPC   C3B13977  24.622   2.168   7.964
  854POPC   C4B13978  24.614   2.221   7.664
  855POPC   NC313979  32.264  26.036   9.464
  855POPC   PO413980  32.291  26.023   9.164
  855POPC   GL113981  32.240  26.088   8.864
  855POPC   GL213982  32.397  26.130   8.864
  855POPC   C1A13983  32.270  26.019   8.564
  855POPC   D2A13984  32.291  26.086   8.264
  855POPC   C3A13985  32.280  26.031   7.964
  855POPC   C4A13986  32.290  26.042   7.664
  855POPC   C1B13987  32.504  26.132   8.564
  855POPC   C2B13988  32.444  26.151   8.264
  855POPC   C3B13989  32.487  26.131   7.964
  855POPC   C4B13990  32.426  26.203   7.664
  856POPC   NC313991  16.004  21.370   9.464
  856POPC   PO413992  16.004  21.413   9.164
  856POPC   GL113993  15.945  21.339   8.864
  856POPC   GL213994  16.043  21.260   8.864
  856POPC   C1A13995  15.919  21.341   8.564
  856POPC   D2A13996  15.994  21.432   8.264
  856POPC   C3A13997  15.949  21.367   7.964
  856POPC   C4A13998  15.973  21.394   7.664
  856POPC   C1B13999  16.155  21.173   8.564
  856POPC   C2B14000  16.157  21.236   8.264
  856POPC   C3B14001  16.086  21.192   7.964
  856POPC   C4B14002  16.123  21.161   7.664
  857POPC   NC314003   7.467   8.196   9.464
  857POPC   PO414004   7.403   8.157   9.164
  857POPC   GL114005   7.416   8.214   8.864
  857POPC   GL214006   7.426   8.095   8.864
  857POPC   C1A14007   7.394   8.182   8.564
  857POPC   D2A14008   7.465   8.215   8.264
  857POPC   C3A14009   7.464   8.189   7.964
  857POPC   C4A14010   7.465   8.221   7.664
  857POPC   C1B14011   7.498   7.994   8.564
  857POPC   C2B14012   7.494   7.999   8.264
  857POPC   C3B14013   7.441   7.983   7.964
  857POPC   C4B14014   7.419   7.987   7.664
  858POPC   NC314015  35.374  28.417   9.464
  858POPC   PO414016  35.384  28.366   9.164
  858POPC   GL114017  35.348  28.354   8.864
  858POPC   GL214018  35.444  28.480   8.864
  858POPC   C1A14019  35.335  28.345   8.564
  858POPC   D2A14020  35.327  28.359   8.264
  858POPC   C3A14021  35.313  28.379   7.964
  858POPC   C4A14022  35.337  28.353   7.664
  858POPC   C1B14023  35.486  28.648   8.564
  858POPC   C2B14024  35.466  28.590   8.264
  858POPC   C3B14025  35.461  28.578   7.964
  858POPC   C4B14026  35.461  28.577   7.664
  859POPC   NC314027  20.659   0.456   9.464
  859POPC   PO414028  20.654   0.471   9.164
  859POPC   GL114029  20.574   0.434   8.864
  859POPC   GL214030  20.449   0.449   8.864
  859POPC   C1A14031  20.600   0.457   8.564
  859POPC   D2A14032  20.633   0.399   8.264
  859POPC   C3A14033  20.618   0.392   7.964
  859POPC   C4A14034  20.629   0.485   7.664
  859POPC   C1B14035  20.352   0.439   8.564
  859POPC   C2B14036  20.407   0.409   8.264
  859POPC   C3B14037  20.390   0.465   7.964
  859POPC   C4B14038  20.319   0.489   7.664
  860POPC   NC314039  38.486  21.416   9.464
  860POPC   PO414040  38.482  21.343   9.164
  860POPC   GL114041  38.480  21.433   8.864
  860POPC   GL214042  38.442  21.293   8.864
  860POPC   C1A14043  38.413  21.360   8.564
  860POPC   D2A14044  38.479  21.388   8.264
  860POPC   C3A14045  38.409  21.350   7.964
  860POPC   C4A14046  38.438  21.343   7.664
  860POPC   C1B14047  38.361  21.196   8.564
  860POPC   C2B14048  38.370  21.218   8.264
  860POPC   C3B14049  38.342  21.157   7.964
  860POPC   C4B14050  38.344  21.129   7.664
  861POPC   NC314051   5.130  40.038   9.464
  861POPC   PO414052   5.049  40.043   9.164
  861POPC   GL114053   5.099  40.049   8.864
  861POPC   GL214054   4.943  40.044   8.864
  861POPC   C1A14055   5.079  40.025   8.564
  861POPC   D2A14056   5.051  40.011   8.264
  861POPC   C3A14057   5.082  39.965   7.964
  861POPC   C4A14058   5.096  40.038   7.664
  861POPC   C1B14059   4.891  40.056   8.564
  861POPC   C2B14060   4.851  40.081   8.264
  861POPC   C3B14061   4.845  40.099   7.964
  861POPC   C4B14062   4.898  40.127   7.664
  862POPC   NC314063  32.977  33.073   9.464
  862POPC   PO414064  33.072  33.000   9.164
  862POPC   GL114065  32.998  33.072   8.864
  862POPC   GL214066  32.878  33.056   8.864
  862POPC   C1A14067  32.995  33.068   8.564
  862POPC   D2A14068  33.067  32.975   8.264
  862POPC   C3A14069  33.073  33.033   7.964
  862POPC   C4A14070  33.066  33.053   7.664
  862POPC   C1B14071  32.819  33.099   8.564
  862POPC   C2B14072  32.785  33.125   8.264
  862POPC   C3B14073  32.821  33.089   7.964
  862POPC   C4B14074  32.783  33.162   7.664
  863POPC   NC314075  11.334  32.999   9.464
  863POPC   PO414076  11.274  32.978   9.164
  863POPC   GL114077  11.350  33.064   8.864
  863POPC   GL214078  11.292  33.131   8.864
  863POPC   C1A14079  11.282  33.059   8.564
  863POPC   D2A14080  11.327  33.042   8.264
  863POPC   C3A14081  11.272  33.027   7.964
  863POPC   C4A14082  11.294  33.010   7.664
  863POPC   C1B14083  11.172  33.220   8.564
  863POPC   C2B14084  11.188  33.304   8.264
  863POPC   C3B14085  11.218  33.296   7.964
  863POPC   C4B14086  11.173  33.236   7.664
  864POPC   NC314087  19.106   1.981   9.464
  864POPC   PO414088  19.051   1.987   9.164
  864POPC   GL114089  19.082   2.012   8.864
  864POPC   GL214090  18.991   2.074   8.864
  864POPC   C1A14091  19.100   2.002   8.564
  864POPC   D2A14092  19.104   1.971   8.264
  864POPC   C3A14093  19.043   1.945   7.964
  864POPC   C4A14094  19.047   1.967   7.664
  864POPC   C1B14095  18.948   2.215   8.564
  864POPC   C2B14096  18.984   2.259   8.264
  864POPC   C3B14097  18.937   2.262   7.964
  864POPC   C4B14098  18.966   2.225   7.664
  865POPC   NC314099  30.651   1.984   9.464
  865POPC   PO414100  30.708   1.965   9.164
  865POPC   GL114101  30.730   1.969   8.864
  865POPC   GL214102  30.662   1.826   8.864
  865POPC   C1A14103  30.665   1.944   8.564
  865POPC   D2A14104  30.700   1.978   8.264
  865POPC   C3A14105  30.724   2.000   7.964
  865POPC   C4A14106  30.666   2.024   7.664
  865POPC   C1B14107  30.730   1.788   8.564
  865POPC   C2B14108  30.706   1.733   8.264
  865POPC   C3B14109  30.729   1.773   7.964
  865POPC   C4B14110  30.735   1.699   7.664
  866POPC   NC314111   2.032  36.088   9.464
  866POPC   PO414112   1.973  36.144   9.164
  866POPC   GL114113   1.970  36.169   8.864
  866POPC   GL214114   1.958  36.276   8.864
  866POPC   C1A14115   1.969  36.097   8.564
  866POPC   D2A14116   2.024  36.110   8.264
  866POPC   C3A14117   2.026  36.167   7.964
  866POPC   C4A14118   1.959  36.143   7.664
  866POPC   C1B14119   1.919  36.383   8.564
  866POPC   C2B14120   1.896  36.331   8.264
  866POPC   C3B14121   1.968  36.333   7.964
  866POPC   C4B14122   1.882  36.391   7.664
  867POPC   NC314123  41.537   1.978   9.464
  867POPC   PO414124  41.524   1.986   9.164
  867POPC   GL114125  41.523   1.989   8.864
  867POPC   GL214126  41.479   1.935   8.864
  867POPC   C1A14127  41.553   2.018   8.564
  867POPC   D2A14128  41.569   1.966   8.264
  867POPC   C3A14129  41.605   1.964   7.964
  867POPC   C4A14130  41.604   2.023   7.664
  867POPC   C1B14131  41.300   1.913   8.564
  867POPC   C2B14132  41.354   1.864   8.264
  867POPC   C3B14133  41.330   1.864   7.964
  867POPC   C4B14134  41.375   1.836   7.664
  868POPC   NC314135  23.720  44.686   9.464
  868POPC   PO414136  23.720  44.685   9.164
  868POPC   GL114137  23.667  44.659   8.864
  868POPC   GL214138  23.585  44.664   8.864
  868POPC   C1A14139  23.726  44.639   8.564
  868POPC   D2A14140  23.749  44.650   8.264
  868POPC   C3A14141  23.731  44.618   7.964
  868POPC   C4A14142  23.677  44.614   7.664
  868POPC   C1B14143  23.505  44.654   8.564
  868POPC   C2B14144  23.514  44.645   8.264
  868POPC   C3B14145  23.435  44.654   7.964
  868POPC   C4B14146  23.484  44.649   7.664
  869POPC   NC314147  19.860  22.924   9.464
  869POPC   PO414148  19.850  22.968   9.164
  869POPC   GL114149  19.816  22.912   8.864
  869POPC   GL214150  19.772  22.997   8.864
  869POPC   C1A14151  19.839  22.986   8.564
  869POPC   D2A14152  19.785  22.931   8.264
  869POPC   C3A14153  19.790  22.981   7.964
  869POPC   C4A14154  19.853  22.906   7.664
  869POPC   C1B14155  19.713  23.172   8.564
  869POPC   C2B14156  19.679  23.154   8.264
  869POPC   C3B14157  19.735  23.174   7.964
  869POPC   C4B14158  19.707  23.123   7.664
  870POPC   NC314159  36.105  14.427   9.464
  870POPC   PO414160  36.115  14.417   9.164
  870POPC   GL114161  36.084  14.409   8.864
  870POPC   GL214162  36.010  14.356   8.864
  870POPC   C1A14163  36.125  14.372   8.564
  870POPC   D2A14164  36.127  14.422   8.264
  870POPC   C3A14165  36.124  14.425   7.964
  870POPC   C4A14166  36.081  14.425   7.664
  870POPC   C1B14167  35.868  14.326   8.564
  870POPC   C2B14168  35.852  14.403   8.264
  870POPC   C3B14169  35.841  14.337   7.964
  870POPC   C4B14170  35.901  14.404   7.664
  871POPC   NC314171  43.837  26.047   9.464
  871POPC   PO414172  43.900  26.021   9.164
  871POPC   GL114173  43.857  26.089   8.864
  871POPC   GL214174  43.911  25.871   8.864
  871POPC   C1A14175  43.855  26.033   8.564
  871POPC   D2A14176  43.900  26.060   8.264
  871POPC   C3A14177  43.857  26.059   7.964
  871POPC   C4A14178  43.896  26.074   7.664
  871POPC   C1B14179  43.906  25.796   8.564
  871POPC   C2B14180  43.908  25.813   8.264
  871POPC   C3B14181  43.912  25.753   7.964
  871POPC   C4B14182  43.840  25.776   7.664
  872POPC   NC314183  27.548   2.748   9.464
  872POPC   PO414184  27.577   2.717   9.164
  872POPC   GL114185  27.565   2.759   8.864
  872POPC   GL214186  27.633   2.670   8.864
  872POPC   C1A14187  27.607   2.719   8.564
  872POPC   D2A14188  27.631   2.728   8.264
  872POPC   C3A14189  27.576   2.729   7.964
  872POPC   C4A14190  27.633   2.720   7.664
  872POPC   C1B14191  27.663   2.521   8.564
  872POPC   C2B14192  27.656   2.572   8.264
  872POPC   C3B14193  27.699   2.582   7.964
  872POPC   C4B14194  27.654   2.569   7.664
  873POPC   NC314195  43.904  34.555   9.464
  873POPC   PO414196  43.848  34.591   9.164
  873POPC   GL114197  43.856  34.590   8.864
  873POPC   GL214198  43.828  34.421   8.864
  873POPC   C1A14199  43.903  34.610   8.564
  873POPC   D2A14200  43.885  34.530   8.264
  873POPC   C3A14201  43.894  34.556   7.964
  873POPC   C4A14202  43.917  34.620   7.664
  873POPC   C1B14203  43.780  34.356   8.564
  873POPC   C2B14204  43.800  34.356   8.264
  873POPC   C3B14205  43.836  34.291   7.964
  873POPC   C4B14206  43.817  34.360   7.664
  874POPC   NC314207  39.185   5.046   9.464
  874POPC   PO414208  39.262   5.128   9.164
  874POPC   GL114209  39.202   5.057   8.864
  874POPC   GL214210  39.240   4.937   8.864
  874POPC   C1A14211  39.207   5.112   8.564
  874POPC   D2A14212  39.251   5.060   8.264
  874POPC   C3A14213  39.278   5.120   7.964
  874POPC   C4A14214  39.262   5.112   7.664
  874POPC   C1B14215  39.192   4.802   8.564
  874POPC   C2B14216  39.246   4.816   8.264
  874POPC   C3B14217  39.235   4.849   7.964
  874POPC   C4B14218  39.219   4.864   7.664
  875POPC   NC314219   5.917  27.580   9.464
  875POPC   PO414220   5.842  27.618   9.164
  875POPC   GL114221   5.917  27.548   8.864
  875POPC   GL214222   5.947  27.695   8.864
  875POPC   C1A14223   5.822  27.564   8.564
  875POPC   D2A14224   5.899  27.622   8.264
  875POPC   C3A14225   5.899  27.583   7.964
  875POPC   C4A14226   5.864  27.596   7.664
  875POPC   C1B14227   5.961  27.770   8.564
  875POPC   C2B14228   6.021  27.754   8.264
  875POPC   C3B14229   6.034  27.765   7.964
  875POPC   C4B14230   6.030  27.779   7.664
  876POPC   NC314231  22.205  13.644   9.464
  876POPC   PO414232  22.155  13.595   9.164
  876POPC   GL114233  22.112  13.639   8.864
  876POPC   GL214234  22.035  13.668   8.864
  876POPC   C1A14235  22.175  13.587   8.564
  876POPC   D2A14236  22.207  13.649   8.264
  876POPC   C3A14237  22.168  13.660   7.964
  876POPC   C4A14238  22.130  13.622   7.664
  876POPC   C1B14239  21.958  13.745   8.564
  876POPC   C2B14240  21.968  13.690   8.264
  876POPC   C3B14241  21.933  13.731   7.964
  876POPC   C4B14242  21.971  13.735   7.664
  877POPC   NC314243  18.255  29.144   9.464
  877POPC   PO414244  18.238  29.168   9.164
  877POPC   GL114245  18.270  29.151   8.864
  877POPC   GL214246  18.164  29.117   8.864
  877POPC   C1A14247  18.321  29.125   8.564
  877POPC   D2A14248  18.327  29.141   8.264
  877POPC   C3A14249  18.309  29.179   7.964
  877POPC   C4A14250  18.292  29.138   7.664
  877POPC   C1B14251  18.060  29.088   8.564
  877POPC   C2B14252  18.066  29.154   8.264
  877POPC   C3B14253  18.033  29.072   7.964
  877POPC   C4B14254  18.067  29.066   7.664
  878POPC   NC314255  12.033  35.328   9.464
  878POPC   PO414256  12.046  35.396   9.164
  878POPC   GL114257  12.082  35.356   8.864
  878POPC   GL214258  12.038  35.468   8.864
  878POPC   C1A14259  12.048  35.323   8.564
  878POPC   D2A14260  12.074  35.378   8.264
  878POPC   C3A14261  12.046  35.327   7.964
  878POPC   C4A14262  12.096  35.381   7.664
  878POPC   C1B14263  11.931  35.529   8.564
  878POPC   C2B14264  11.950  35.567   8.264
  878POPC   C3B14265  11.880  35.555   7.964
  878POPC   C4B14266  11.913  35.589   7.664
  879POPC   NC314267  36.874  29.914   9.464
  879POPC   PO414268  36.901  29.933   9.164
  879POPC   GL114269  36.914  29.919   8.864
  879POPC   GL214270  37.024  30.005   8.864
  879POPC   C1A14271  36.923  29.936   8.564
  879POPC   D2A14272  36.861  29.877   8.264
  879POPC   C3A14273  36.876  29.937   7.964
  879POPC   C4A14274  36.917  29.909   7.664
  879POPC   C1B14275  37.085  30.116   8.564
  879POPC   C2B14276  37.090  30.064   8.264
  879POPC   C3B14277  37.105  30.108   7.964
  879POPC   C4B14278  37.081  30.022   7.664
  880POPC   NC314279  34.608  27.639   9.464
  880POPC   PO414280  34.536  27.603   9.164
  880POPC   GL114281  34.553  27.606   8.864
  880POPC   GL214282  34.526  27.499   8.864
  880POPC   C1A14283  34.618  27.579   8.564
  880POPC   D2A14284  34.526  27.591   8.264
  880POPC   C3A14285  34.599  27.588   7.964
  880POPC   C4A14286  34.560  27.601   7.664
  880POPC   C1B14287  34.524  27.323   8.564
  880POPC   C2B14288  34.577  27.323   8.264
  880POPC   C3B14289  34.540  27.368   7.964
  880POPC   C4B14290  34.587  27.330   7.664
  881POPC   NC314291   0.478   1.259   9.464
  881POPC   PO414292   0.411   1.225   9.164
  881POPC   GL114293   0.423   1.245   8.864
  881POPC   GL214294   0.480   1.084   8.864
  881POPC   C1A14295   0.398   1.223   8.564
  881POPC   D2A14296   0.487   1.186   8.264
  881POPC   C3A14297   0.444   1.165   7.964
  881POPC   C4A14298   0.392   1.208   7.664
  881POPC   C1B14299   0.504   1.002   8.564
  881POPC   C2B14300   0.512   1.026   8.264
  881POPC   C3B14301   0.544   0.993   7.964
  881POPC   C4B14302   0.555   1.007   7.664
  882POPC   NC314303  36.128  19.833   9.464
  882POPC   PO414304  36.168  19.872   9.164
  882POPC   GL114305  36.167  19.815   8.864
  882POPC   GL214306  36.073  19.776   8.864
  882POPC   C1A14307  36.126  19.846   8.564
  882POPC   D2A14308  36.097  19.836   8.264
  882POPC   C3A14309  36.134  19.871   7.964
  882POPC   C4A14310  36.152  19.869   7.664
  882POPC   C1B14311  35.966  19.628   8.564
  882POPC   C2B14312  35.928  19.601   8.264
  882POPC   C3B14313  35.918  19.674   7.964
  882POPC   C4B14314  35.983  19.640   7.664
  883POPC   NC314315  39.192  31.497   9.464
  883POPC   PO414316  39.225  31.438   9.164
  883POPC   GL114317  39.239  31.433   8.864
  883POPC   GL214318  39.096  31.518   8.864
  883POPC   C1A14319  39.217  31.424   8.564
  883POPC   D2A14320  39.229  31.445   8.264
  883POPC   C3A14321  39.226  31.518   7.964
  883POPC   C4A14322  39.255  31.502   7.664
  883POPC   C1B14323  39.029  31.522   8.564
  883POPC   C2B14324  38.944  31.514   8.264
  883POPC   C3B14325  38.977  31.439   7.964
  883POPC   C4B14326  38.952  31.453   7.664
  884POPC   NC314327  39.988  23.702   9.464
  884POPC   PO414328  40.030  23.721   9.164
  884POPC   GL114329  40.029  23.759   8.864
  884POPC   GL214330  39.917  23.717   8.864
  884POPC   C1A14331  40.025  23.751   8.564
  884POPC   D2A14332  40.048  23.755   8.264
  884POPC   C3A14333  39.978  23.664   7.964
  884POPC   C4A14334  39.997  23.692   7.664
  884POPC   C1B14335  39.786  23.690   8.564
  884POPC   C2B14336  39.711  23.712   8.264
  884POPC   C3B14337  39.744  23.730   7.964
  884POPC   C4B14338  39.788  23.755   7.664
  885POPC   NC314339  39.228  33.071   9.464
  885POPC   PO414340  39.219  32.976   9.164
  885POPC   GL114341  39.267  33.001   8.864
  885POPC   GL214342  39.310  33.021   8.864
  885POPC   C1A14343  39.257  33.063   8.564
  885POPC   D2A14344  39.268  33.034   8.264
  885POPC   C3A14345  39.182  33.067   7.964
  885POPC   C4A14346  39.277  33.048   7.664
  885POPC   C1B14347  39.504  32.995   8.564
  885POPC   C2B14348  39.517  32.989   8.264
  885POPC   C3B14349  39.472  32.971   7.964
  885POPC   C4B14350  39.524  32.967   7.664
  886POPC   NC314351   1.219  40.744   9.464
  886POPC   PO414352   1.179  40.747   9.164
  886POPC   GL114353   1.238  40.802   8.864
  886POPC   GL214354   1.265  40.715   8.864
  886POPC   C1A14355   1.223  40.736   8.564
  886POPC   D2A14356   1.171  40.773   8.264
  886POPC   C3A14357   1.230  40.825   7.964
  886POPC   C4A14358   1.215  40.806   7.664
  886POPC   C1B14359   1.363  40.564   8.564
  886POPC   C2B14360   1.355  40.543   8.264
  886POPC   C3B14361   1.319  40.589   7.964
  886POPC   C4B14362   1.313  40.544   7.664
  887POPC   NC314363  37.631  41.584   9.464
  887POPC   PO414364  37.659  41.557   9.164
  887POPC   GL114365  37.700  41.532   8.864
  887POPC   GL214366  37.593  41.578   8.864
  887POPC   C1A14367  37.631  41.577   8.564
  887POPC   D2A14368  37.680  41.575   8.264
  887POPC   C3A14369  37.642  41.513   7.964
  887POPC   C4A14370  37.701  41.607   7.664
  887POPC   C1B14371  37.425  41.547   8.564
  887POPC   C2B14372  37.424  41.565   8.264
  887POPC   C3B14373  37.421  41.539   7.964
  887POPC   C4B14374  37.417  41.484   7.664
  888POPC   NC314375  17.467  31.474   9.464
  888POPC   PO414376  17.511  31.447   9.164
  888POPC   GL114377  17.479  31.510   8.864
  888POPC   GL214378  17.413  31.533   8.864
  888POPC   C1A14379  17.512  31.461   8.564
  888POPC   D2A14380  17.542  31.459   8.264
  888POPC   C3A14381  17.462  31.444   7.964
  888POPC   C4A14382  17.460  31.453   7.664
  888POPC   C1B14383  17.335  31.660   8.564
  888POPC   C2B14384  17.386  31.696   8.264
  888POPC   C3B14385  17.305  31.647   7.964
  888POPC   C4B14386  17.323  31.659   7.664
  889POPC   NC314387  41.517  16.769   9.464
  889POPC   PO414388  41.514  16.699   9.164
  889POPC   GL114389  41.531  16.704   8.864
  889POPC   GL214390  41.701  16.858   8.864
  889POPC   C1A14391  41.597  16.684   8.564
  889POPC   D2A14392  41.563  16.693   8.264
  889POPC   C3A14393  41.541  16.687   7.964
  889POPC   C4A14394  41.561  16.754   7.664
  889POPC   C1B14395  41.704  16.892   8.564
  889POPC   C2B14396  41.729  16.945   8.264
  889POPC   C3B14397  41.744  16.877   7.964
  889POPC   C4B14398  41.750  16.925   7.664
  890POPC   NC314399  40.768  35.341   9.464
  890POPC   PO414400  40.766  35.367   9.164
  890POPC   GL114401  40.757  35.395   8.864
  890POPC   GL214402  40.833  35.252   8.864
  890POPC   C1A14403  40.773  35.305   8.564
  890POPC   D2A14404  40.733  35.313   8.264
  890POPC   C3A14405  40.768  35.314   7.964
  890POPC   C4A14406  40.808  35.381   7.664
  890POPC   C1B14407  40.748  35.132   8.564
  890POPC   C2B14408  40.760  35.086   8.264
  890POPC   C3B14409  40.824  35.079   7.964
  890POPC   C4B14410  40.746  35.056   7.664
  891POPC   NC314411  21.427  26.849   9.464
  891POPC   PO414412  21.361  26.799   9.164
  891POPC   GL114413  21.415  26.786   8.864
  891POPC   GL214414  21.528  26.932   8.864
  891POPC   C1A14415  21.367  26.847   8.564
  891POPC   D2A14416  21.396  26.840   8.264
  891POPC   C3A14417  21.350  26.820   7.964
  891POPC   C4A14418  21.408  26.773   7.664
  891POPC   C1B14419  21.604  26.995   8.564
  891POPC   C2B14420  21.568  26.968   8.264
  891POPC   C3B14421  21.537  27.023   7.964
  891POPC   C4B14422  21.585  26.960   7.664
  892POPC   NC314423   5.897  24.455   9.464
  892POPC   PO414424   5.837  24.521   9.164
  892POPC   GL114425   5.911  24.535   8.864
  892POPC   GL214426   5.932  24.379   8.864
  892POPC   C1A14427   5.819  24.539   8.564
  892POPC   D2A14428   5.879  24.464   8.264
  892POPC   C3A14429   5.829  24.537   7.964
  892POPC   C4A14430   5.893  24.454   7.664
  892POPC   C1B14431   5.990  24.213   8.564
  892POPC   C2B14432   5.971  24.259   8.264
  892POPC   C3B14433   5.938  24.295   7.964
  892POPC   C4B14434   5.897  24.278   7.664
  893POPC   NC314435  32.216  25.242   9.464
  893POPC   PO414436  32.287  25.282   9.164
  893POPC   GL114437  32.247  25.252   8.864
  893POPC   GL214438  32.305  25.186   8.864
  893POPC   C1A14439  32.260  25.299   8.564
  893POPC   D2A14440  32.278  25.234   8.264
  893POPC   C3A14441  32.231  25.278   7.964
  893POPC   C4A14442  32.253  25.251   7.664
  893POPC   C1B14443  32.437  25.104   8.564
  893POPC   C2B14444  32.495  25.108   8.264
  893POPC   C3B14445  32.442  25.078   7.964
  893POPC   C4B14446  32.467  25.074   7.664
  894POPC   NC314447  17.540  19.025   9.464
  894POPC   PO414448  17.490  19.071   9.164
  894POPC   GL114449  17.536  19.101   8.864
  894POPC   GL214450  17.423  18.999   8.864
  894POPC   C1A14451  17.523  19.085   8.564
  894POPC   D2A14452  17.555  19.054   8.264
  894POPC   C3A14453  17.476  19.031   7.964
  894POPC   C4A14454  17.543  19.100   7.664
  894POPC   C1B14455  17.365  18.848   8.564
  894POPC   C2B14456  17.385  18.876   8.264
  894POPC   C3B14457  17.308  18.876   7.964
  894POPC   C4B14458  17.360  18.854   7.664
  895POPC   NC314459  38.452   2.763   9.464
  895POPC   PO414460  38.426   2.786   9.164
  895POPC   GL114461  38.432   2.721   8.864
  895POPC   GL214462  38.560   2.897   8.864
  895POPC   C1A14463  38.483   2.732   8.564
  895POPC   D2A14464  38.504   2.772   8.264
  895POPC   C3A14465  38.487   2.740   7.964
  895POPC   C4A14466  38.422   2.722   7.664
  895POPC   C1B14467  38.641   2.927   8.564
  895POPC   C2B14468  38.622   2.991   8.264
  895POPC   C3B14469  38.551   2.929   7.964
  895POPC   C4B14470  38.561   2.947   7.664
  896POPC   NC314471  32.224  33.828   9.464
  896POPC   PO414472  32.262  33.795   9.164
  896POPC   GL114473  32.250  33.844   8.864
  896POPC   GL214474  32.150  33.676   8.864
  896POPC   C1A14475  32.285  33.838   8.564
  896POPC   D2A14476  32.266  33.840   8.264
  896POPC   C3A14477  32.226  33.752   7.964
  896POPC   C4A14478  32.252  33.763   7.664
  896POPC   C1B14479  32.076  33.543   8.564
  896POPC   C2B14480  32.125  33.592   8.264
  896POPC   C3B14481  32.119  33.624   7.964
  896POPC   C4B14482  32.146  33.591   7.664
  897POPC   NC314483  21.371  39.275   9.464
  897POPC   PO414484  21.412  39.253   9.164
  897POPC   GL114485  21.349  39.200   8.864
  897POPC   GL214486  21.559  39.265   8.864
  897POPC   C1A14487  21.361  39.237   8.564
  897POPC   D2A14488  21.430  39.278   8.264
  897POPC   C3A14489  21.430  39.204   7.964
  897POPC   C4A14490  21.418  39.275   7.664
  897POPC   C1B14491  21.674  39.256   8.564
  897POPC   C2B14492  21.677  39.287   8.264
  897POPC   C3B14493  21.643  39.236   7.964
  897POPC   C4B14494  21.627  39.261   7.664
  898POPC   NC314495  21.382   0.393   9.464
  898POPC   PO414496  21.432   0.450   9.164
  898POPC   GL114497  21.395   0.452   8.864
  898POPC   GL214498  21.396   0.334   8.864
  898POPC   C1A14499  21.409   0.457   8.564
  898POPC   D2A14500  21.362   0.480   8.264
  898POPC   C3A14501  21.402   0.478   7.964
  898POPC   C4A14502  21.358   0.401   7.664
  898POPC   C1B14503  21.515   0.225   8.564
  898POPC   C2B14504  21.524   0.228   8.264
  898POPC   C3B14505  21.461   0.247   7.964
  898POPC   C4B14506  21.501   0.250   7.664
  899POPC   NC314507  24.449   4.299   9.464
  899POPC   PO414508  24.460   4.360   9.164
  899POPC   GL114509  24.516   4.358   8.864
  899POPC   GL214510  24.371   4.338   8.864
  899POPC   C1A14511  24.456   4.271   8.564
  899POPC   D2A14512  24.462   4.362   8.264
  899POPC   C3A14513  24.536   4.272   7.964
  899POPC   C4A14514  24.498   4.270   7.664
  899POPC   C1B14515  24.286   4.331   8.564
  899POPC   C2B14516  24.211   4.363   8.264
  899POPC   C3B14517  24.291   4.348   7.964
  899POPC   C4B14518  24.216   4.333   7.664
  900POPC   NC314519  40.796   5.890   9.464
  900POPC   PO414520  40.761   5.906   9.164
  900POPC   GL114521  40.747   5.916   8.864
  900POPC   GL214522  40.714   5.932   8.864
  900POPC   C1A14523  40.828   5.882   8.564
  900POPC   D2A14524  40.766   5.888   8.264
  900POPC   C3A14525  40.805   5.901   7.964
  900POPC   C4A14526  40.811   5.831   7.664
  900POPC   C1B14527  40.579   5.971   8.564
  900POPC   C2B14528  40.538   6.014   8.264
  900POPC   C3B14529  40.616   5.964   7.964
  900POPC   C4B14530  40.582   6.028   7.664
  901POPC   NC314531  43.138  43.142   9.464
  901POPC   PO414532  43.102  43.118   9.164
  901POPC   GL114533  43.153  43.072   8.864
  901POPC   GL214534  43.089  42.941   8.864
  901POPC   C1A14535  43.068  43.138   8.564
  901POPC   D2A14536  43.079  43.137   8.264
  901POPC   C3A14537  43.144  43.132   7.964
  901POPC   C4A14538  43.069  43.077   7.664
  901POPC   C1B14539  43.139  42.854   8.564
  901POPC   C2B14540  43.171  42.872   8.264
  901POPC   C3B14541  43.137  42.856   7.964
  901POPC   C4B14542  43.092  42.816   7.664
  902POPC   NC314543  12.838  35.349   9.464
  902POPC   PO414544  12.845  35.313   9.164
  902POPC   GL114545  12.818  35.302   8.864
  902POPC   GL214546  12.983  35.423   8.864
  902POPC   C1A14547  12.896  35.368   8.564
  902POPC   D2A14548  12.818  35.361   8.264
  902POPC   C3A14549  12.806  35.359   7.964
  902POPC   C4A14550  12.875  35.348   7.664
  902POPC   C1B14551  13.035  35.498   8.564
  902POPC   C2B14552  13.023  35.450   8.264
  902POPC   C3B14553  13.075  35.462   7.964
  902POPC   C4B14554  13.104  35.460   7.664
  903POPC   NC314555  36.885  33.835   9.464
  903POPC   PO414556  36.868  33.830   9.164
  903POPC   GL114557  36.917  33.801   8.864
  903POPC   GL214558  36.818  33.920   8.864
  903POPC   C1A14559  36.910  33.794   8.564
  903POPC   D2A14560  36.873  33.836   8.264
  903POPC   C3A14561  36.901  33.834   7.964
  903POPC   C4A14562  36.931  33.806   7.664
  903POPC   C1B14563  36.693  33.924   8.564
  903POPC   C2B14564  36.690  33.959   8.264
  903POPC   C3B14565  36.758  33.958   7.964
  903POPC   C4B14566  36.717  34.011   7.664
  904POPC   NC314567  43.112  13.665   9.464
  904POPC   PO414568  43.124  13.654   9.164
  904POPC   GL114569  43.069  13.594   8.864
  904POPC   GL214570  42.955  13.638   8.864
  904POPC   C1A14571  43.086  13.646   8.564
  904POPC   D2A14572  43.078  13.621   8.264
  904POPC   C3A14573  43.134  13.587   7.964
  904POPC   C4A14574  43.151  13.624   7.664
  904POPC   C1B14575  42.871  13.633   8.564
  904POPC   C2B14576  42.864  13.649   8.264
  904POPC   C3B14577  42.852  13.630   7.964
  904POPC   C4B14578  42.888  13.593   7.664
  905POPC   NC314579  26.830   6.655   9.464
  905POPC   PO414580  26.795   6.637   9.164
  905POPC   GL114581  26.849   6.660   8.864
  905POPC   GL214582  26.808   6.559   8.864
  905POPC   C1A14583  26.843   6.654   8.564
  905POPC   D2A14584  26.811   6.654   8.264
  905POPC   C3A14585  26.784   6.653   7.964
  905POPC   C4A14586  26.803   6.685   7.664
  905POPC   C1B14587  26.860   6.351   8.564
  905POPC   C2B14588  26.805   6.349   8.264
  905POPC   C3B14589  26.859   6.347   7.964
  905POPC   C4B14590  26.840   6.405   7.664
  906POPC   NC314591   8.982  43.843   9.464
  906POPC   PO414592   8.942  43.889   9.164
  906POPC   GL114593   8.952  43.895   8.864
  906POPC   GL214594   8.903  43.932   8.864
  906POPC   C1A14595   9.020  43.894   8.564
  906POPC   D2A14596   9.021  43.925   8.264
  906POPC   C3A14597   9.021  43.917   7.964
  906POPC   C4A14598   8.974  43.922   7.664
  906POPC   C1B14599   8.776  44.096   8.564
  906POPC   C2B14600   8.824  44.037   8.264
  906POPC   C3B14601   8.808  44.040   7.964
  906POPC   C4B14602   8.820  44.111   7.664
  907POPC   NC314603  41.550  43.861   9.464
  907POPC   PO414604  41.551  43.859   9.164
  907POPC   GL114605  41.515  43.861   8.864
  907POPC   GL214606  41.463  43.940   8.864
  907POPC   C1A14607  41.601  43.862   8.564
  907POPC   D2A14608  41.542  43.889   8.264
  907POPC   C3A14609  41.584  43.883   7.964
  907POPC   C4A14610  41.567  43.878   7.664
  907POPC   C1B14611  41.359  44.041   8.564
  907POPC   C2B14612  41.401  44.123   8.264
  907POPC   C3B14613  41.445  44.039   7.964
  907POPC   C4B14614  41.374  44.121   7.664
  908POPC   NC314615  44.647  44.620   9.464
  908POPC   PO414616  44.690  44.637   9.164
  908POPC   GL114617  44.707  44.624   8.864
  908POPC   GL214618  44.766  44.664   8.864
  908POPC   C1A14619  44.672  44.688   8.564
  908POPC   D2A14620  44.635  44.652   8.264
  908POPC   C3A14621  44.672  44.626   7.964
  908POPC   C4A14622  44.688  44.669   7.664
  908POPC   C1B14623  44.879  44.632   8.564
  908POPC   C2B14624  44.923  44.626   8.264
  908POPC   C3B14625  44.880  44.555   7.964
  908POPC   C4B14626  44.894  44.585   7.664
  909POPC   NC314627  31.486  28.402   9.464
  909POPC   PO414628  31.458  28.366   9.164
  909POPC   GL114629  31.471  28.405   8.864
  909POPC   GL214630  31.558  28.488   8.864
  909POPC   C1A14631  31.508  28.382   8.564
  909POPC   D2A14632  31.503  28.392   8.264
  909POPC   C3A14633  31.462  28.371   7.964
  909POPC   C4A14634  31.436  28.368   7.664
  909POPC   C1B14635  31.612  28.574   8.564
  909POPC   C2B14636  31.539  28.561   8.264
  909POPC   C3B14637  31.610  28.570   7.964
  909POPC   C4B14638  31.587  28.571   7.664
  910POPC   NC314639  16.687  12.876   9.464
  910POPC   PO414640  16.712  12.852   9.164
  910POPC   GL114641  16.756  12.878   8.864
  910POPC   GL214642  16.604  12.905   8.864
  910POPC   C1A14643  16.768  12.822   8.564
  910POPC   D2A14644  16.687  12.875   8.264
  910POPC   C3A14645  16.718  12.822   7.964
  910POPC   C4A14646  16.762  12.872   7.664
  910POPC   C1B14647  16.498  12.909   8.564
  910POPC   C2B14648  16.481  12.867   8.264
  910POPC   C3B14649  16.511  12.864   7.964
  910POPC   C4B14650  16.513  12.864   7.664
  911POPC   NC314651  39.238  10.492   9.464
  911POPC   PO414652  39.228  10.557   9.164
  911POPC   GL114653  39.208  10.518   8.864
  911POPC   GL214654  39.187  10.415   8.864
  911POPC   C1A14655  39.189  10.479   8.564
  911POPC   D2A14656  39.202  10.547   8.264
  911POPC   C3A14657  39.236  10.504   7.964
  911POPC   C4A14658  39.220  10.571   7.664
  911POPC   C1B14659  39.203  10.276   8.564
  911POPC   C2B14660  39.154  10.252   8.264
  911POPC   C3B14661  39.194  10.262   7.964
  911POPC   C4B14662  39.164  10.244   7.664
  912POPC   NC314663   8.982  26.074   9.464
  912POPC   PO414664   9.003  26.020   9.164
  912POPC   GL114665   8.947  26.018   8.864
  912POPC   GL214666   8.969  26.166   8.864
  912POPC   C1A14667   8.963  26.074   8.564
  912POPC   D2A14668   8.926  26.009   8.264
  912POPC   C3A14669   9.010  25.995   7.964
  912POPC   C4A14670   8.946  25.997   7.664
  912POPC   C1B14671   9.026  26.329   8.564
  912POPC   C2B14672   9.001  26.303   8.264
  912POPC   C3B14673   9.005  26.269   7.964
  912POPC   C4B14674   9.023  26.260   7.664
  913POPC   NC314675  20.614  39.191   9.464
  913POPC   PO414676  20.636  39.195   9.164
  913POPC   GL114677  20.610  39.192   8.864
  913POPC   GL214678  20.580  39.318   8.864
  913POPC   C1A14679  20.571  39.237   8.564
  913POPC   D2A14680  20.658  39.236   8.264
  913POPC   C3A14681  20.629  39.204   7.964
  913POPC   C4A14682  20.628  39.230   7.664
  913POPC   C1B14683  20.597  39.493   8.564
  913POPC   C2B14684  20.596  39.493   8.264
  913POPC   C3B14685  20.642  39.444   7.964
  913POPC   C4B14686  20.606  39.441   7.664
  914POPC   NC314687   6.645  39.998   9.464
  914POPC   PO414688   6.675  40.042   9.164
  914POPC   GL114689   6.666  40.017   8.864
  914POPC   GL214690   6.521  40.132   8.864
  914POPC   C1A14691   6.689  40.036   8.564
  914POPC   D2A14692   6.694  39.958   8.264
  914POPC   C3A14693   6.635  40.017   7.964
  914POPC   C4A14694   6.630  40.041   7.664
  914POPC   C1B14695   6.437  40.160   8.564
  914POPC   C2B14696   6.511  40.180   8.264
  914POPC   C3B14697   6.449  40.216   7.964
  914POPC   C4B14698   6.470  40.193   7.664
  915POPC   NC314699   5.066   5.113   9.464
  915POPC   PO414700   5.062   5.080   9.164
  915POPC   GL114701   5.131   5.106   8.864
  915POPC   GL214702   5.065   5.245   8.864
  915POPC   C1A14703   5.112   5.143   8.564
  915POPC   D2A14704   5.125   5.052   8.264
  915POPC   C3A14705   5.098   5.082   7.964
  915POPC   C4A14706   5.132   5.088   7.664
  915POPC   C1B14707   5.086   5.355   8.564
  915POPC   C2B14708   5.107   5.360   8.264
  915POPC   C3B14709   5.130   5.301   7.964
  915POPC   C4B14710   5.131   5.342   7.664
  916POPC   NC314711  23.714   5.121   9.464
  916POPC   PO414712  23.706   5.069   9.164
  916POPC   GL114713  23.679   5.134   8.864
  916POPC   GL214714  23.784   5.187   8.864
  916POPC   C1A14715  23.731   5.097   8.564
  916POPC   D2A14716  23.732   5.072   8.264
  916POPC   C3A14717  23.757   5.141   7.964
  916POPC   C4A14718  23.755   5.130   7.664
  916POPC   C1B14719  23.814   5.296   8.564
  916POPC   C2B14720  23.724   5.351   8.264
  916POPC   C3B14721  23.796   5.341   7.964
  916POPC   C4B14722  23.756   5.293   7.664
  917POPC   NC314723  25.313  40.791   9.464
  917POPC   PO414724  25.249  40.748   9.164
  917POPC   GL114725  25.234  40.805   8.864
  917POPC   GL214726  25.095  40.843   8.864
  917POPC   C1A14727  25.261  40.802   8.564
  917POPC   D2A14728  25.285  40.830   8.264
  917POPC   C3A14729  25.283  40.810   7.964
  917POPC   C4A14730  25.302  40.817   7.664
  917POPC   C1B14731  24.981  40.840   8.564
  917POPC   C2B14732  25.004  40.774   8.264
  917POPC   C3B14733  25.038  40.808   7.964
  917POPC   C4B14734  25.031  40.841   7.664
  918POPC   NC314735   1.243  29.943   9.464
  918POPC   PO414736   1.235  29.969   9.164
  918POPC   GL114737   1.233  29.874   8.864
  918POPC   GL214738   1.164  30.056   8.864
  918POPC   C1A14739   1.243  29.876   8.564
  918POPC   D2A14740   1.189  29.884   8.264
  918POPC   C3A14741   1.243  29.889   7.964
  918POPC   C4A14742   1.263  29.906   7.664
  918POPC   C1B14743   1.199  30.188   8.564
  918POPC   C2B14744   1.110  30.143   8.264
  918POPC   C3B14745   1.164  30.188   7.964
  918POPC   C4B14746   1.172  30.188   7.664
  919POPC   NC314747  12.030  39.249   9.464
  919POPC   PO414748  12.093  39.218   9.164
  919POPC   GL114749  12.053  39.236   8.864
  919POPC   GL214750  12.128  39.190   8.864
  919POPC   C1A14751  12.042  39.186   8.564
  919POPC   D2A14752  12.124  39.267   8.264
  919POPC   C3A14753  12.058  39.256   7.964
  919POPC   C4A14754  12.125  39.195   7.664
  919POPC   C1B14755  12.232  39.033   8.564
  919POPC   C2B14756  12.284  39.116   8.264
  919POPC   C3B14757  12.243  39.054   7.964
  919POPC   C4B14758  12.225  39.070   7.664
  920POPC   NC314759  13.623  27.579   9.464
  920POPC   PO414760  13.605  27.633   9.164
  920POPC   GL114761  13.637  27.570   8.864
  920POPC   GL214762  13.669  27.492   8.864
  920POPC   C1A14763  13.583  27.618   8.564
  920POPC   D2A14764  13.601  27.642   8.264
  920POPC   C3A14765  13.606  27.592   7.964
  920POPC   C4A14766  13.654  27.638   7.664
  920POPC   C1B14767  13.693  27.315   8.564
  920POPC   C2B14768  13.677  27.392   8.264
  920POPC   C3B14769  13.710  27.366   7.964
  920POPC   C4B14770  13.674  27.309   7.664
  921POPC   NC314771  33.847  33.068   9.464
  921POPC   PO414772  33.781  33.039   9.164
  921POPC   GL114773  33.802  33.023   8.864
  921POPC   GL214774  33.914  32.888   8.864
  921POPC   C1A14775  33.803  33.023   8.564
  921POPC   D2A14776  33.759  32.976   8.264
  921POPC   C3A14777  33.828  33.051   7.964
  921POPC   C4A14778  33.814  33.028   7.664
  921POPC   C1B14779  33.900  32.836   8.564
  921POPC   C2B14780  33.895  32.769   8.264
  921POPC   C3B14781  33.907  32.770   7.964
  921POPC   C4B14782  33.900  32.825   7.664
  922POPC   NC314783  35.373   0.408   9.464
  922POPC   PO414784  35.353   0.476   9.164
  922POPC   GL114785  35.311   0.485   8.864
  922POPC   GL214786  35.233   0.415   8.864
  922POPC   C1A14787  35.360   0.475   8.564
  922POPC   D2A14788  35.400   0.444   8.264
  922POPC   C3A14789  35.371   0.445   7.964
  922POPC   C4A14790  35.316   0.417   7.664
  922POPC   C1B14791  35.140   0.395   8.564
  922POPC   C2B14792  35.078   0.430   8.264
  922POPC   C3B14793  35.094   0.474   7.964
  922POPC   C4B14794  35.138   0.456   7.664
  923POPC   NC314795  38.504  15.156   9.464
  923POPC   PO414796  38.459  15.133   9.164
  923POPC   GL114797  38.478  15.154   8.864
  923POPC   GL214798  38.500  15.291   8.864
  923POPC   C1A14799  38.475  15.132   8.564
  923POPC   D2A14800  38.460  15.131   8.264
  923POPC   C3A14801  38.501  15.193   7.964
  923POPC   C4A14802  38.452  15.151   7.664
  923POPC   C1B14803  38.474  15.450   8.564
  923POPC   C2B14804  38.460  15.399   8.264
  923POPC   C3B14805  38.521  15.469   7.964
  923POPC   C4B14806  38.447  15.434   7.664
  924POPC   NC314807   6.668   5.138   9.464
  924POPC   PO414808   6.655   5.128   9.164
  924POPC   GL114809   6.627   5.137   8.864
  924POPC   GL214810   6.545   5.070   8.864
  924POPC   C1A14811   6.691   5.073   8.564
  924POPC   D2A14812   6.608   5.047   8.264
  924POPC   C3A14813   6.670   5.134   7.964
  924POPC   C4A14814   6.651   5.079   7.664
  924POPC   C1B14815   6.460   4.995   8.564
  924POPC   C2B14816   6.405   4.930   8.264
  924POPC   C3B14817   6.442   4.922   7.964
  924POPC   C4B14818   6.430   4.969   7.664
  925POPC   NC314819   6.676  36.909   9.464
  925POPC   PO414820   6.602  36.906   9.164
  925POPC   GL114821   6.671  36.880   8.864
  925POPC   GL214822   6.570  36.972   8.864
  925POPC   C1A14823   6.653  36.885   8.564
  925POPC   D2A14824   6.667  36.905   8.264
  925POPC   C3A14825   6.628  36.912   7.964
  925POPC   C4A14826   6.647  36.854   7.664
  925POPC   C1B14827   6.406  36.996   8.564
  925POPC   C2B14828   6.394  36.963   8.264
  925POPC   C3B14829   6.434  36.994   7.964
  925POPC   C4B14830   6.399  37.025   7.664
  926POPC   NC314831  19.063  43.854   9.464
  926POPC   PO414832  19.098  43.853   9.164
  926POPC   GL114833  19.099  43.838   8.864
  926POPC   GL214834  19.183  43.942   8.864
  926POPC   C1A14835  19.060  43.880   8.564
  926POPC   D2A14836  19.026  43.878   8.264
  926POPC   C3A14837  19.032  43.890   7.964
  926POPC   C4A14838  19.063  43.906   7.664
  926POPC   C1B14839  19.346  43.908   8.564
  926POPC   C2B14840  19.292  43.882   8.264
  926POPC   C3B14841  19.265  43.899   7.964
  926POPC   C4B14842  19.327  43.921   7.664
  927POPC   NC314843   5.828  40.808   9.464
  927POPC   PO414844   5.869  40.791   9.164
  927POPC   GL114845   5.848  40.771   8.864
  927POPC   GL214846   5.990  40.729   8.864
  927POPC   C1A14847   5.888  40.736   8.564
  927POPC   D2A14848   5.886  40.742   8.264
  927POPC   C3A14849   5.882  40.771   7.964
  927POPC   C4A14850   5.854  40.754   7.664
  927POPC   C1B14851   6.131  40.779   8.564
  927POPC   C2B14852   6.126  40.739   8.264
  927POPC   C3B14853   6.158  40.753   7.964
  927POPC   C4B14854   6.096  40.721   7.664
  928POPC   NC314855  15.937   9.707   9.464
  928POPC   PO414856  15.940   9.788   9.164
  928POPC   GL114857  15.910   9.726   8.864
  928POPC   GL214858  16.023   9.809   8.864
  928POPC   C1A14859  15.976   9.760   8.564
  928POPC   D2A14860  16.003   9.795   8.264
  928POPC   C3A14861  16.001   9.787   7.964
  928POPC   C4A14862  15.911   9.705   7.664
  928POPC   C1B14863  16.159   9.914   8.564
  928POPC   C2B14864  16.194   9.945   8.264
  928POPC   C3B14865  16.143   9.882   7.964
  928POPC   C4B14866  16.110   9.941   7.664
  929POPC   NC314867   8.203  41.512   9.464
  929POPC   PO414868   8.161  41.522   9.164
  929POPC   GL114869   8.242  41.572   8.864
  929POPC   GL214870   8.145  41.649   8.864
  929POPC   C1A14871   8.203  41.535   8.564
  929POPC   D2A14872   8.179  41.512   8.264
  929POPC   C3A14873   8.150  41.590   7.964
  929POPC   C4A14874   8.163  41.544   7.664
  929POPC   C1B14875   8.029  41.757   8.564
  929POPC   C2B14876   8.090  41.777   8.264
  929POPC   C3B14877   8.002  41.806   7.964
  929POPC   C4B14878   8.080  41.780   7.664
  930POPC   NC314879   3.570  39.964   9.464
  930POPC   PO414880   3.585  39.971   9.164
  930POPC   GL114881   3.524  40.029   8.864
  930POPC   GL214882   3.607  39.916   8.864
  930POPC   C1A14883   3.519  40.042   8.564
  930POPC   D2A14884   3.506  39.972   8.264
  930POPC   C3A14885   3.505  40.039   7.964
  930POPC   C4A14886   3.569  40.039   7.664
  930POPC   C1B14887   3.616  39.734   8.564
  930POPC   C2B14888   3.643  39.762   8.264
  930POPC   C3B14889   3.661  39.819   7.964
  930POPC   C4B14890   3.593  39.825   7.664
  931POPC   NC314891  25.998  35.370   9.464
  931POPC   PO414892  26.023  35.317   9.164
  931POPC   GL114893  25.992  35.317   8.864
  931POPC   GL214894  25.877  35.272   8.864
  931POPC   C1A14895  26.071  35.363   8.564
  931POPC   D2A14896  26.037  35.310   8.264
  931POPC   C3A14897  26.063  35.347   7.964
  931POPC   C4A14898  26.085  35.344   7.664
  931POPC   C1B14899  25.784  35.233   8.564
  931POPC   C2B14900  25.841  35.232   8.264
  931POPC   C3B14901  25.763  35.287   7.964
  931POPC   C4B14902  25.834  35.227   7.664
  932POPC   NC314903  43.133   2.770   9.464
  932POPC   PO414904  43.101   2.758   9.164
  932POPC   GL114905  43.156   2.741   8.864
  932POPC   GL214906  43.069   2.852   8.864
  932POPC   C1A14907  43.132   2.747   8.564
  932POPC   D2A14908  43.095   2.780   8.264
  932POPC   C3A14909  43.133   2.740   7.964
  932POPC   C4A14910  43.134   2.793   7.664
  932POPC   C1B14911  42.923   3.008   8.564
  932POPC   C2B14912  42.951   2.969   8.264
  932POPC   C3B14913  42.995   3.000   7.964
  932POPC   C4B14914  42.944   2.995   7.664
  933POPC   NC314915  19.040  11.302   9.464
  933POPC   PO414916  19.042  11.260   9.164
  933POPC   GL114917  19.089  11.285   8.864
  933POPC   GL214918  19.142  11.255   8.864
  933POPC   C1A14919  19.053  11.307   8.564
  933POPC   D2A14920  19.093  11.287   8.264
  933POPC   C3A14921  19.051  11.347   7.964
  933POPC   C4A14922  19.017  11.324   7.664
  933POPC   C1B14923  19.349  11.295   8.564
  933POPC   C2B14924  19.336  11.246   8.264
  933POPC   C3B14925  19.277  11.259   7.964
  933POPC   C4B14926  19.259  11.264   7.664
  934POPC   NC314927   6.617  27.621   9.464
  934POPC   PO414928   6.687  27.602   9.164
  934POPC   GL114929   6.599  27.563   8.864
  934POPC   GL214930   6.747  27.531   8.864
  934POPC   C1A14931   6.597  27.623   8.564
  934POPC   D2A14932   6.674  27.573   8.264
  934POPC   C3A14933   6.692  27.637   7.964
  934POPC   C4A14934   6.597  27.580   7.664
  934POPC   C1B14935   6.772  27.400   8.564
  934POPC   C2B14936   6.758  27.365   8.264
  934POPC   C3B14937   6.749  27.362   7.964
  934POPC   C4B14938   6.791  27.348   7.664
  935POPC   NC314939  27.588  19.819   9.464
  935POPC   PO414940  27.620  19.818   9.164
  935POPC   GL114941  27.628  19.821   8.864
  935POPC   GL214942  27.441  19.934   8.864
  935POPC   C1A14943  27.572  19.805   8.564
  935POPC   D2A14944  27.604  19.817   8.264
  935POPC   C3A14945  27.597  19.829   7.964
  935POPC   C4A14946  27.548  19.881   7.664
  935POPC   C1B14947  27.381  19.977   8.564
  935POPC   C2B14948  27.345  19.897   8.264
  935POPC   C3B14949  27.364  19.981   7.964
  935POPC   C4B14950  27.354  19.953   7.664
  936POPC   NC314951  35.390  31.495   9.464
  936POPC   PO414952  35.368  31.506   9.164
  936POPC   GL114953  35.358  31.518   8.864
  936POPC   GL214954  35.226  31.452   8.864
  936POPC   C1A14955  35.337  31.512   8.564
  936POPC   D2A14956  35.342  31.460   8.264
  936POPC   C3A14957  35.305  31.472   7.964
  936POPC   C4A14958  35.354  31.462   7.664
  936POPC   C1B14959  35.053  31.497   8.564
  936POPC   C2B14960  35.061  31.444   8.264
  936POPC   C3B14961  35.080  31.475   7.964
  936POPC   C4B14962  35.073  31.492   7.664
  937POPC   NC314963  10.501  30.686   9.464
  937POPC   PO414964  10.485  30.659   9.164
  937POPC   GL114965  10.574  30.746   8.864
  937POPC   GL214966  10.382  30.688   8.864
  937POPC   C1A14967  10.501  30.688   8.564
  937POPC   D2A14968  10.496  30.733   8.264
  937POPC   C3A14969  10.531  30.689   7.964
  937POPC   C4A14970  10.541  30.689   7.664
  937POPC   C1B14971  10.241  30.610   8.564
  937POPC   C2B14972  10.326  30.637   8.264
  937POPC   C3B14973  10.307  30.639   7.964
  937POPC   C4B14974  10.264  30.651   7.664
  938POPC   NC314975  31.464  16.768   9.464
  938POPC   PO414976  31.457  16.689   9.164
  938POPC   GL114977  31.425  16.734   8.864
  938POPC   GL214978  31.368  16.882   8.864
  938POPC   C1A14979  31.443  16.777   8.564
  938POPC   D2A14980  31.474  16.698   8.264
  938POPC   C3A14981  31.517  16.699   7.964
  938POPC   C4A14982  31.470  16.715   7.664
  938POPC   C1B14983  31.289  16.924   8.564
  938POPC   C2B14984  31.333  16.902   8.264
  938POPC   C3B14985  31.378  16.895   7.964
  938POPC   C4B14986  31.327  16.925   7.664
  939POPC   NC314987  21.379   1.185   9.464
  939POPC   PO414988  21.403   1.218   9.164
  939POPC   GL114989  21.380   1.245   8.864
  939POPC   GL214990  21.242   1.135   8.864
  939POPC   C1A14991  21.358   1.261   8.564
  939POPC   D2A14992  21.396   1.227   8.264
  939POPC   C3A14993  21.422   1.215   7.964
  939POPC   C4A14994  21.387   1.240   7.664
  939POPC   C1B14995  21.204   1.097   8.564
  939POPC   C2B14996  21.119   1.098   8.264
  939POPC   C3B14997  21.154   1.106   7.964
  939POPC   C4B14998  21.191   1.158   7.664
  940POPC   NC314999   2.812  34.558   9.464
  940POPC   PO415000   2.721  34.563   9.164
  940POPC   GL115001   2.732  34.555   8.864
  940POPC   GL215002   2.935  34.562   8.864
  940POPC   C1A15003   2.799  34.537   8.564
  940POPC   D2A15004   2.739  34.553   8.264
  940POPC   C3A15005   2.785  34.528   7.964
  940POPC   C4A15006   2.806  34.590   7.664
  940POPC   C1B15007   2.987  34.636   8.564
  940POPC   C2B15008   3.036  34.602   8.264
  940POPC   C3B15009   3.008  34.637   7.964
  940POPC   C4B15010   2.961  34.682   7.664
  941POPC   NC315011  41.526  26.793   9.464
  941POPC   PO415012  41.600  26.790   9.164
  941POPC   GL115013  41.598  26.857   8.864
  941POPC   GL215014  41.547  26.910   8.864
  941POPC   C1A15015  41.546  26.771   8.564
  941POPC   D2A15016  41.551  26.810   8.264
  941POPC   C3A15017  41.597  26.866   7.964
  941POPC   C4A15018  41.595  26.774   7.664
  941POPC   C1B15019  41.547  27.077   8.564
  941POPC   C2B15020  41.620  27.087   8.264
  941POPC   C3B15021  41.569  27.040   7.964
  941POPC   C4B15022  41.570  27.017   7.664
  942POPC   NC315023  22.195  30.728   9.464
  942POPC   PO415024  22.118  30.677   9.164
  942POPC   GL115025  22.113  30.650   8.864
  942POPC   GL215026  22.230  30.560   8.864
  942POPC   C1A15027  22.148  30.650   8.564
  942POPC   D2A15028  22.137  30.724   8.264
  942POPC   C3A15029  22.152  30.719   7.964
  942POPC   C4A15030  22.114  30.680   7.664
  942POPC   C1B15031  22.356  30.532   8.564
  942POPC   C2B15032  22.320  30.466   8.264
  942POPC   C3B15033  22.301  30.514   7.964
  942POPC   C4B15034  22.337  30.468   7.664
  943POPC   NC315035   1.963   7.377   9.464
  943POPC   PO415036   1.979   7.436   9.164
  943POPC   GL115037   2.017   7.384   8.864
  943POPC   GL215038   1.879   7.386   8.864
  943POPC   C1A15039   1.978   7.377   8.564
  943POPC   D2A15040   1.959   7.373   8.264
  943POPC   C3A15041   2.023   7.463   7.964
  943POPC   C4A15042   2.011   7.422   7.664
  943POPC   C1B15043   1.741   7.236   8.564
  943POPC   C2B15044   1.763   7.288   8.264
  943POPC   C3B15045   1.763   7.238   7.964
  943POPC   C4B15046   1.739   7.258   7.664
  944POPC   NC315047  36.085  21.389   9.464
  944POPC   PO415048  36.109  21.425   9.164
  944POPC   GL115049  36.167  21.372   8.864
  944POPC   GL215050  36.264  21.444   8.864
  944POPC   C1A15051  36.127  21.424   8.564
  944POPC   D2A15052  36.164  21.346   8.264
  944POPC   C3A15053  36.151  21.384   7.964
  944POPC   C4A15054  36.093  21.434   7.664
  944POPC   C1B15055  36.389  21.466   8.564
  944POPC   C2B15056  36.333  21.506   8.264
  944POPC   C3B15057  36.357  21.503   7.964
  944POPC   C4B15058  36.357  21.451   7.664
  945POPC   NC315059  42.303  15.217   9.464
  945POPC   PO415060  42.326  15.166   9.164
  945POPC   GL115061  42.319  15.158   8.864
  945POPC   GL215062  42.313  15.328   8.864
  945POPC   C1A15063  42.370  15.138   8.564
  945POPC   D2A15064  42.286  15.226   8.264
  945POPC   C3A15065  42.361  15.136   7.964
  945POPC   C4A15066  42.358  15.186   7.664
  945POPC   C1B15067  42.345  15.434   8.564
  945POPC   C2B15068  42.336  15.464   8.264
  945POPC   C3B15069  42.375  15.436   7.964
  945POPC   C4B15070  42.321  15.412   7.664
  946POPC   NC315071   1.262  26.091   9.464
  946POPC   PO415072   1.220  26.072   9.164
  946POPC   GL115073   1.210  25.997   8.864
  946POPC   GL215074   1.285  25.990   8.864
  946POPC   C1A15075   1.253  26.068   8.564
  946POPC   D2A15076   1.216  26.089   8.264
  946POPC   C3A15077   1.206  26.019   7.964
  946POPC   C4A15078   1.196  26.022   7.664
  946POPC   C1B15079   1.464  25.959   8.564
  946POPC   C2B15080   1.481  25.971   8.264
  946POPC   C3B15081   1.486  25.912   7.964
  946POPC   C4B15082   1.430  25.926   7.664
  947POPC   NC315083   9.722  44.643   9.464
  947POPC   PO415084   9.716  44.640   9.164
  947POPC   GL115085   9.797  44.641   8.864
  947POPC   GL215086   9.798  44.747   8.864
  947POPC   C1A15087   9.715  44.663   8.564
  947POPC   D2A15088   9.778  44.699   8.264
  947POPC   C3A15089   9.753  44.669   7.964
  947POPC   C4A15090   9.703  44.627   7.664
  947POPC   C1B15091   9.877  44.859   8.564
  947POPC   C2B15092   9.899  44.881   8.264
  947POPC   C3B15093   9.951  44.869   7.964
  947POPC   C4B15094   9.946  44.861   7.664
  948POPC   NC315095  12.067  13.621   9.464
  948POPC   PO415096  12.075  13.651   9.164
  948POPC   GL115097  12.120  13.659   8.864
  948POPC   GL215098  12.140  13.494   8.864
  948POPC   C1A15099  12.097  13.615   8.564
  948POPC   D2A15100  12.080  13.595   8.264
  948POPC   C3A15101  12.051  13.580   7.964
  948POPC   C4A15102  12.110  13.635   7.664
  948POPC   C1B15103  12.237  13.403   8.564
  948POPC   C2B15104  12.251  13.451   8.264
  948POPC   C3B15105  12.271  13.410   7.964
  948POPC   C4B15106  12.183  13.449   7.664
  949POPC   NC315107  41.516  15.229   9.464
  949POPC   PO415108  41.519  15.191   9.164
  949POPC   GL115109  41.599  15.133   8.864
  949POPC   GL215110  41.665  15.097   8.864
  949POPC   C1A15111  41.542  15.188   8.564
  949POPC   D2A15112  41.559  15.186   8.264
  949POPC   C3A15113  41.578  15.221   7.964
  949POPC   C4A15114  41.601  15.202   7.664
  949POPC   C1B15115  41.717  14.985   8.564
  949POPC   C2B15116  41.744  14.992   8.264
  949POPC   C3B15117  41.787  15.009   7.964
  949POPC   C4B15118  41.785  15.071   7.664
  950POPC   NC315119   9.721  15.975   9.464
  950POPC   PO415120   9.759  15.916   9.164
  950POPC   GL115121   9.779  15.982   8.864
  950POPC   GL215122   9.829  16.086   8.864
  950POPC   C1A15123   9.781  15.956   8.564
  950POPC   D2A15124   9.767  15.985   8.264
  950POPC   C3A15125   9.794  15.919   7.964
  950POPC   C4A15126   9.721  15.994   7.664
  950POPC   C1B15127   9.773  16.152   8.564
  950POPC   C2B15128   9.820  16.193   8.264
  950POPC   C3B15129   9.845  16.200   7.964
  950POPC   C4B15130   9.785  16.189   7.664
  951POPC   NC315131   4.307  43.860   9.464
  951POPC   PO415132   4.360  43.899   9.164
  951POPC   GL115133   4.321  43.891   8.864
  951POPC   GL215134   4.250  43.762   8.864
  951POPC   C1A15135   4.320  43.936   8.564
  951POPC   D2A15136   4.319  43.901   8.264
  951POPC   C3A15137   4.345  43.885   7.964
  951POPC   C4A15138   4.360  43.861   7.664
  951POPC   C1B15139   4.185  43.665   8.564
  951POPC   C2B15140   4.209  43.678   8.264
  951POPC   C3B15141   4.147  43.659   7.964
  951POPC   C4B15142   4.189  43.714   7.664
  952POPC   NC315143  19.839  33.012   9.464
  952POPC   PO415144  19.795  32.984   9.164
  952POPC   GL115145  19.858  33.024   8.864
  952POPC   GL215146  19.687  33.016   8.864
  952POPC   C1A15147  19.849  33.035   8.564
  952POPC   D2A15148  19.841  33.053   8.264
  952POPC   C3A15149  19.831  33.056   7.964
  952POPC   C4A15150  19.808  33.022   7.664
  952POPC   C1B15151  19.624  32.894   8.564
  952POPC   C2B15152  19.582  32.913   8.264
  952POPC   C3B15153  19.565  32.896   7.964
  952POPC   C4B15154  19.612  32.886   7.664
  953POPC   NC315155  43.841  30.736   9.464
  953POPC   PO415156  43.866  30.671   9.164
  953POPC   GL115157  43.898  30.655   8.864
  953POPC   GL215158  43.938  30.567   8.864
  953POPC   C1A15159  43.932  30.698   8.564
  953POPC   D2A15160  43.925  30.655   8.264
  953POPC   C3A15161  43.914  30.680   7.964
  953POPC   C4A15162  43.870  30.702   7.664
  953POPC   C1B15163  44.056  30.493   8.564
  953POPC   C2B15164  44.012  30.532   8.264
  953POPC   C3B15165  44.003  30.465   7.964
  953POPC   C4B15166  44.064  30.493   7.664
  954POPC   NC315167  29.951  43.083   9.464
  954POPC   PO415168  29.938  43.086   9.164
  954POPC   GL115169  29.904  43.135   8.864
  954POPC   GL215170  29.838  43.072   8.864
  954POPC   C1A15171  29.897  43.115   8.564
  954POPC   D2A15172  29.928  43.140   8.264
  954POPC   C3A15173  29.931  43.120   7.964
  954POPC   C4A15174  29.917  43.113   7.664
  954POPC   C1B15175  29.668  43.032   8.564
  954POPC   C2B15176  29.643  43.065   8.264
  954POPC   C3B15177  29.640  43.044   7.964
  954POPC   C4B15178  29.719  43.034   7.664
  955POPC   NC315179  26.862  18.328   9.464
  955POPC   PO415180  26.845  18.275   9.164
  955POPC   GL115181  26.809  18.256   8.864
  955POPC   GL215182  26.678  18.298   8.864
  955POPC   C1A15183  26.827  18.255   8.564
  955POPC   D2A15184  26.773  18.320   8.264
  955POPC   C3A15185  26.781  18.294   7.964
  955POPC   C4A15186  26.773  18.255   7.664
  955POPC   C1B15187  26.558  18.273   8.564
  955POPC   C2B15188  26.538  18.298   8.264
  955POPC   C3B15189  26.540  18.337   7.964
  955POPC   C4B15190  26.604  18.284   7.664
  956POPC   NC315191  22.984  19.061   9.464
  956POPC   PO415192  22.958  19.093   9.164
  956POPC   GL115193  22.959  19.088   8.864
  956POPC   GL215194  23.094  19.050   8.864
  956POPC   C1A15195  22.927  19.100   8.564
  956POPC   D2A15196  22.983  19.099   8.264
  956POPC   C3A15197  22.950  19.078   7.964
  956POPC   C4A15198  22.986  19.104   7.664
  956POPC   C1B15199  23.188  19.178   8.564
  956POPC   C2B15200  23.190  19.153   8.264
  956POPC   C3B15201  23.143  19.138   7.964
  956POPC   C4B15202  23.187  19.094   7.664
  957POPC   NC315203  38.486  36.877   9.464
  957POPC   PO415204  38.423  36.932   9.164
  957POPC   GL115205  38.440  36.870   8.864
  957POPC   GL215206  38.415  36.998   8.864
  957POPC   C1A15207  38.449  36.927   8.564
  957POPC   D2A15208  38.471  36.911   8.264
  957POPC   C3A15209  38.428  36.924   7.964
  957POPC   C4A15210  38.424  36.872   7.664
  957POPC   C1B15211  38.263  37.050   8.564
  957POPC   C2B15212  38.304  37.102   8.264
  957POPC   C3B15213  38.303  37.096   7.964
  957POPC   C4B15214  38.299  37.038   7.664
  958POPC   NC315215  26.009  24.444   9.464
  958POPC   PO415216  26.074  24.499   9.164
  958POPC   GL115217  26.081  24.481   8.864
  958POPC   GL215218  26.000  24.431   8.864
  958POPC   C1A15219  26.047  24.503   8.564
  958POPC   D2A15220  26.077  24.513   8.264
  958POPC   C3A15221  26.086  24.496   7.964
  958POPC   C4A15222  26.015  24.512   7.664
  958POPC   C1B15223  25.841  24.249   8.564
  958POPC   C2B15224  25.912  24.267   8.264
  958POPC   C3B15225  25.862  24.337   7.964
  958POPC   C4B15226  25.927  24.250   7.664
  959POPC   NC315227  26.039  13.600   9.464
  959POPC   PO415228  26.019  13.579   9.164
  959POPC   GL115229  26.066  13.592   8.864
  959POPC   GL215230  25.993  13.512   8.864
  959POPC   C1A15231  26.027  13.610   8.564
  959POPC   D2A15232  26.059  13.671   8.264
  959POPC   C3A15233  26.068  13.618   7.964
  959POPC   C4A15234  26.066  13.664   7.664
  959POPC   C1B15235  25.958  13.389   8.564
  959POPC   C2B15236  25.915  13.404   8.264
  959POPC   C3B15237  25.990  13.370   7.964
  959POPC   C4B15238  25.953  13.397   7.664
  960POPC   NC315239  29.921   5.070   9.464
  960POPC   PO415240  29.879   5.116   9.164
  960POPC   GL115241  29.964   5.120   8.864
  960POPC   GL215242  29.956   4.973   8.864
  960POPC   C1A15243  29.909   5.060   8.564
  960POPC   D2A15244  29.890   5.114   8.264
  960POPC   C3A15245  29.914   5.106   7.964
  960POPC   C4A15246  29.957   5.105   7.664
  960POPC   C1B15247  29.983   4.809   8.564
  960POPC   C2B15248  29.954   4.847   8.264
  960POPC   C3B15249  29.978   4.862   7.964
  960POPC   C4B15250  30.002   4.820   7.664
  961POPC   NC315251  40.811  18.322   9.464
  961POPC   PO415252  40.827  18.263   9.164
  961POPC   GL115253  40.782  18.294   8.864
  961POPC   GL215254  40.813  18.144   8.864
  961POPC   C1A15255  40.735  18.305   8.564
  961POPC   D2A15256  40.802  18.245   8.264
  961POPC   C3A15257  40.794  18.315   7.964
  961POPC   C4A15258  40.781  18.259   7.664
  961POPC   C1B15259  40.858  18.005   8.564
  961POPC   C2B15260  40.827  18.038   8.264
  961POPC   C3B15261  40.860  18.031   7.964
  961POPC   C4B15262  40.871  18.026   7.664
  962POPC   NC315263   8.943  17.520   9.464
  962POPC   PO415264   8.932  17.510   9.164
  962POPC   GL115265   8.985  17.470   8.864
  962POPC   GL215266   9.139  17.559   8.864
  962POPC   C1A15267   9.000  17.489   8.564
  962POPC   D2A15268   8.985  17.553   8.264
  962POPC   C3A15269   8.943  17.522   7.964
  962POPC   C4A15270   8.980  17.515   7.664
  962POPC   C1B15271   9.214  17.563   8.564
  962POPC   C2B15272   9.209  17.545   8.264
  962POPC   C3B15273   9.223  17.471   7.964
  962POPC   C4B15274   9.202  17.488   7.664
  963POPC   NC315275  32.273   9.014   9.464
  963POPC   PO415276  32.211   8.942   9.164
  963POPC   GL115277  32.257   9.001   8.864
  963POPC   GL215278  32.245   8.805   8.864
  963POPC   C1A15279  32.219   9.017   8.564
  963POPC   D2A15280  32.219   8.943   8.264
  963POPC   C3A15281  32.290   8.970   7.964
  963POPC   C4A15282  32.269   8.966   7.664
  963POPC   C1B15283  32.298   8.746   8.564
  963POPC   C2B15284  32.277   8.781   8.264
  963POPC   C3B15285  32.339   8.774   7.964
  963POPC   C4B15286  32.322   8.720   7.664
  964POPC   NC315287  24.481  42.370   9.464
  964POPC   PO415288  24.483  42.349   9.164
  964POPC   GL115289  24.531  42.302   8.864
  964POPC   GL215290  24.538  42.387   8.864
  964POPC   C1A15291  24.457  42.357   8.564
  964POPC   D2A15292  24.496  42.349   8.264
  964POPC   C3A15293  24.458  42.347   7.964
  964POPC   C4A15294  24.449  42.371   7.664
  964POPC   C1B15295  24.662  42.554   8.564
  964POPC   C2B15296  24.705  42.556   8.264
  964POPC   C3B15297  24.711  42.535   7.964
  964POPC   C4B15298  24.710  42.560   7.664
  965POPC   NC315299  38.475  11.315   9.464
  965POPC   PO415300  38.415  11.280   9.164
  965POPC   GL115301  38.443  11.301   8.864
  965POPC   GL215302  38.613  11.234   8.864
  965POPC   C1A15303  38.493  11.307   8.564
  965POPC   D2A15304  38.450  11.325   8.264
  965POPC   C3A15305  38.504  11.314   7.964
  965POPC   C4A15306  38.434  11.319   7.664
  965POPC   C1B15307  38.656  11.287   8.564
  965POPC   C2B15308  38.671  11.254   8.264
  965POPC   C3B15309  38.727  11.291   7.964
  965POPC   C4B15310  38.714  11.233   7.664
  966POPC   NC315311  36.887  31.494   9.464
  966POPC   PO415312  36.941  31.490   9.164
  966POPC   GL115313  36.921  31.456   8.864
  966POPC   GL215314  37.036  31.495   8.864
  966POPC   C1A15315  36.951  31.485   8.564
  966POPC   D2A15316  36.936  31.506   8.264
  966POPC   C3A15317  36.878  31.425   7.964
  966POPC   C4A15318  36.914  31.436   7.664
  966POPC   C1B15319  37.114  31.473   8.564
  966POPC   C2B15320  37.186  31.451   8.264
  966POPC   C3B15321  37.173  31.549   7.964
  966POPC   C4B15322  37.189  31.502   7.664
  967POPC   NC315323   8.952   7.376   9.464
  967POPC   PO415324   8.937   7.403   9.164
  967POPC   GL115325   9.018   7.404   8.864
  967POPC   GL215326   9.001   7.299   8.864
  967POPC   C1A15327   9.011   7.465   8.564
  967POPC   D2A15328   8.942   7.400   8.264
  967POPC   C3A15329   8.951   7.378   7.964
  967POPC   C4A15330   8.923   7.434   7.664
  967POPC   C1B15331   8.978   7.158   8.564
  967POPC   C2B15332   8.953   7.148   8.264
  967POPC   C3B15333   8.955   7.128   7.964
  967POPC   C4B15334   8.914   7.132   7.664
  968POPC   NC315335  12.106  33.814   9.464
  968POPC   PO415336  12.051  33.777   9.164
  968POPC   GL115337  12.038  33.834   8.864
  968POPC   GL215338  12.027  33.870   8.864
  968POPC   C1A15339  12.106  33.847   8.564
  968POPC   D2A15340  12.035  33.756   8.264
  968POPC   C3A15341  12.074  33.763   7.964
  968POPC   C4A15342  12.119  33.805   7.664
  968POPC   C1B15343  11.957  33.985   8.564
  968POPC   C2B15344  11.951  33.991   8.264
  968POPC   C3B15345  11.887  34.016   7.964
  968POPC   C4B15346  11.911  34.050   7.664
  969POPC   NC315347  21.344  22.907   9.464
  969POPC   PO415348  21.357  22.916   9.164
  969POPC   GL115349  21.379  22.918   8.864
  969POPC   GL215350  21.479  22.857   8.864
  969POPC   C1A15351  21.395  22.930   8.564
  969POPC   D2A15352  21.415  22.957   8.264
  969POPC   C3A15353  21.373  22.914   7.964
  969POPC   C4A15354  21.365  22.966   7.664
  969POPC   C1B15355  21.596  22.780   8.564
  969POPC   C2B15356  21.580  22.805   8.264
  969POPC   C3B15357  21.557  22.822   7.964
  969POPC   C4B15358  21.585  22.863   7.664
  970POPC   NC315359   5.861  20.659   9.464
  970POPC   PO415360   5.885  20.655   9.164
  970POPC   GL115361   5.873  20.633   8.864
  970POPC   GL215362   5.761  20.632   8.864
  970POPC   C1A15363   5.832  20.656   8.564
  970POPC   D2A15364   5.886  20.585   8.264
  970POPC   C3A15365   5.908  20.600   7.964
  970POPC   C4A15366   5.844  20.574   7.664
  970POPC   C1B15367   5.603  20.739   8.564
  970POPC   C2B15368   5.652  20.688   8.264
  970POPC   C3B15369   5.596  20.683   7.964
  970POPC   C4B15370   5.593  20.730   7.664
  971POPC   NC315371  24.501  27.620   9.464
  971POPC   PO415372  24.491  27.560   9.164
  971POPC   GL115373  24.522  27.622   8.864
  971POPC   GL215374  24.429  27.487   8.864
  971POPC   C1A15375  24.509  27.574   8.564
  971POPC   D2A15376  24.502  27.570   8.264
  971POPC   C3A15377  24.492  27.555   7.964
  971POPC   C4A15378  24.487  27.605   7.664
  971POPC   C1B15379  24.371  27.380   8.564
  971POPC   C2B15380  24.374  27.382   8.264
  971POPC   C3B15381  24.382  27.331   7.964
  971POPC   C4B15382  24.376  27.425   7.664
  972POPC   NC315383  21.426  26.023   9.464
  972POPC   PO415384  21.423  26.058   9.164
  972POPC   GL115385  21.368  26.068   8.864
  972POPC   GL215386  21.464  25.922   8.864
  972POPC   C1A15387  21.427  26.075   8.564
  972POPC   D2A15388  21.396  26.085   8.264
  972POPC   C3A15389  21.351  26.085   7.964
  972POPC   C4A15390  21.350  26.063   7.664
  972POPC   C1B15391  21.600  25.905   8.564
  972POPC   C2B15392  21.523  25.850   8.264
  972POPC   C3B15393  21.608  25.898   7.964
  972POPC   C4B15394  21.584  25.864   7.664
  973POPC   NC315395  21.366   4.302   9.464
  973POPC   PO415396  21.422   4.274   9.164
  973POPC   GL115397  21.410   4.333   8.864
  973POPC   GL215398  21.458   4.388   8.864
  973POPC   C1A15399  21.409   4.313   8.564
  973POPC   D2A15400  21.418   4.355   8.264
  973POPC   C3A15401  21.397   4.334   7.964
  973POPC   C4A15402  21.406   4.363   7.664
  973POPC   C1B15403  21.595   4.499   8.564
  973POPC   C2B15404  21.583   4.501   8.264
  973POPC   C3B15405  21.540   4.494   7.964
  973POPC   C4B15406  21.511   4.501   7.664
  974POPC   NC315407  32.246  15.158   9.464
  974POPC   PO415408  32.266  15.178   9.164
  974POPC   GL115409  32.268  15.189   8.864
  974POPC   GL215410  32.307  15.070   8.864
  974POPC   C1A15411  32.210  15.222   8.564
  974POPC   D2A15412  32.246  15.202   8.264
  974POPC   C3A15413  32.257  15.194   7.964
  974POPC   C4A15414  32.207  15.178   7.664
  974POPC   C1B15415  32.436  15.007   8.564
  974POPC   C2B15416  32.499  15.066   8.264
  974POPC   C3B15417  32.509  15.046   7.964
  974POPC   C4B15418  32.413  15.088   7.664
  975POPC   NC315419  35.382  22.180   9.464
  975POPC   PO415420  35.306  22.139   9.164
  975POPC   GL115421  35.327  22.198   8.864
  975POPC   GL215422  35.309  22.015   8.864
  975POPC   C1A15423  35.334  22.185   8.564
  975POPC   D2A15424  35.313  22.183   8.264
  975POPC   C3A15425  35.309  22.179   7.964
  975POPC   C4A15426  35.387  22.143   7.664
  975POPC   C1B15427  35.266  21.920   8.564
  975POPC   C2B15428  35.216  21.943   8.264
  975POPC   C3B15429  35.264  21.956   7.964
  975POPC   C4B15430  35.272  21.898   7.664
  976POPC   NC315431  44.667  23.669   9.464
  976POPC   PO415432  44.673  23.762   9.164
  976POPC   GL115433  44.649  23.709   8.864
  976POPC   GL215434  44.614  23.580   8.864
  976POPC   C1A15435  44.645  23.690   8.564
  976POPC   D2A15436  44.684  23.713   8.264
  976POPC   C3A15437  44.679  23.673   7.964
  976POPC   C4A15438  44.664  23.717   7.664
  976POPC   C1B15439  44.483  23.531   8.564
  976POPC   C2B15440  44.498  23.568   8.264
  976POPC   C3B15441  44.514  23.548   7.964
  976POPC   C4B15442  44.542  23.500   7.664
  977POPC   NC315443  14.399  15.147   9.464
  977POPC   PO415444  14.435  15.178   9.164
  977POPC   GL115445  14.385  15.223   8.864
  977POPC   GL215446  14.282  15.229   8.864
  977POPC   C1A15447  14.429  15.139   8.564
  977POPC   D2A15448  14.422  15.159   8.264
  977POPC   C3A15449  14.395  15.224   7.964
  977POPC   C4A15450  14.357  15.154   7.664
  977POPC   C1B15451  14.149  15.144   8.564
  977POPC   C2B15452  14.174  15.162   8.264
  977POPC   C3B15453  14.159  15.163   7.964
  977POPC   C4B15454  14.116  15.157   7.664
  978POPC   NC315455  29.165   7.456   9.464
  978POPC   PO415456  29.164   7.382   9.164
  978POPC   GL115457  29.096   7.406   8.864
  978POPC   GL215458  29.153   7.282   8.864
  978POPC   C1A15459  29.137   7.442   8.564
  978POPC   D2A15460  29.126   7.441   8.264
  978POPC   C3A15461  29.109   7.448   7.964
  978POPC   C4A15462  29.188   7.374   7.664
  978POPC   C1B15463  29.203   7.210   8.564
  978POPC   C2B15464  29.178   7.130   8.264
  978POPC   C3B15465  29.231   7.208   7.964
  978POPC   C4B15466  29.159   7.190   7.664
  979POPC   NC315467   1.954  33.017   9.464
  979POPC   PO415468   1.948  33.005   9.164
  979POPC   GL115469   1.979  32.977   8.864
  979POPC   GL215470   1.825  32.979   8.864
  979POPC   C1A15471   1.988  33.012   8.564
  979POPC   D2A15472   2.010  32.991   8.264
  979POPC   C3A15473   2.001  32.975   7.964
  979POPC   C4A15474   1.944  32.980   7.664
  979POPC   C1B15475   1.714  32.996   8.564
  979POPC   C2B15476   1.778  33.012   8.264
  979POPC   C3B15477   1.715  33.054   7.964
  979POPC   C4B15478   1.705  32.999   7.664
  980POPC   NC315479  24.517  22.987   9.464
  980POPC   PO415480  24.477  22.942   9.164
  980POPC   GL115481  24.449  22.945   8.864
  980POPC   GL215482  24.550  22.994   8.864
  980POPC   C1A15483  24.498  22.929   8.564
  980POPC   D2A15484  24.507  22.936   8.264
  980POPC   C3A15485  24.526  22.907   7.964
  980POPC   C4A15486  24.483  22.983   7.664
  980POPC   C1B15487  24.638  23.195   8.564
  980POPC   C2B15488  24.588  23.134   8.264
  980POPC   C3B15489  24.577  23.194   7.964
  980POPC   C4B15490  24.616  23.174   7.664
  981POPC   NC315491  36.147   0.444   9.464
  981POPC   PO415492  36.175   0.461   9.164
  981POPC   GL115493  36.153   0.398   8.864
  981POPC   GL215494  36.005   0.468   8.864
  981POPC   C1A15495  36.117   0.462   8.564
  981POPC   D2A15496  36.141   0.412   8.264
  981POPC   C3A15497  36.107   0.410   7.964
  981POPC   C4A15498  36.124   0.458   7.664
  981POPC   C1B15499  35.848   0.500   8.564
  981POPC   C2B15500  35.865   0.518   8.264
  981POPC   C3B15501  35.888   0.491   7.964
  981POPC   C4B15502  35.892   0.480   7.664
  982POPC   NC315503  30.685   2.769   9.464
  982POPC   PO415504  30.692   2.786   9.164
  982POPC   GL115505  30.726   2.778   8.864
  982POPC   GL215506  30.717   2.599   8.864
  982POPC   C1A15507  30.734   2.759   8.564
  982POPC   D2A15508  30.714   2.806   8.264
  982POPC   C3A15509  30.650   2.730   7.964
  982POPC   C4A15510  30.742   2.797   7.664
  982POPC   C1B15511  30.667   2.492   8.564
  982POPC   C2B15512  30.734   2.489   8.264
  982POPC   C3B15513  30.695   2.549   7.964
  982POPC   C4B15514  30.720   2.508   7.664
  983POPC   NC315515   7.373  33.791   9.464
  983POPC   PO415516   7.469  33.829   9.164
  983POPC   GL115517   7.396  33.847   8.864
  983POPC   GL215518   7.476  33.701   8.864
  983POPC   C1A15519   7.456  33.836   8.564
  983POPC   D2A15520   7.469  33.758   8.264
  983POPC   C3A15521   7.377  33.785   7.964
  983POPC   C4A15522   7.434  33.806   7.664
  983POPC   C1B15523   7.574  33.644   8.564
  983POPC   C2B15524   7.563  33.586   8.264
  983POPC   C3B15525   7.587  33.633   7.964
  983POPC   C4B15526   7.565  33.665   7.664
  984POPC   NC315527  43.070  30.709   9.464
  984POPC   PO415528  43.149  30.648   9.164
  984POPC   GL115529  43.104  30.663   8.864
  984POPC   GL215530  43.054  30.618   8.864
  984POPC   C1A15531  43.109  30.727   8.564
  984POPC   D2A15532  43.092  30.717   8.264
  984POPC   C3A15533  43.061  30.683   7.964
  984POPC   C4A15534  43.081  30.706   7.664
  984POPC   C1B15535  42.872  30.501   8.564
  984POPC   C2B15536  42.895  30.487   8.264
  984POPC   C3B15537  42.953  30.536   7.964
  984POPC   C4B15538  42.952  30.496   7.664
  985POPC   NC315539  14.409  29.189   9.464
  985POPC   PO415540  14.427  29.114   9.164
  985POPC   GL115541  14.379  29.097   8.864
  985POPC   GL215542  14.351  29.259   8.864
  985POPC   C1A15543  14.379  29.187   8.564
  985POPC   D2A15544  14.359  29.166   8.264
  985POPC   C3A15545  14.403  29.185   7.964
  985POPC   C4A15546  14.404  29.151   7.664
  985POPC   C1B15547  14.419  29.419   8.564
  985POPC   C2B15548  14.420  29.426   8.264
  985POPC   C3B15549  14.411  29.357   7.964
  985POPC   C4B15550  14.385  29.417   7.664
  986POPC   NC315551  40.785  28.355   9.464
  986POPC   PO415552  40.781  28.379   9.164
  986POPC   GL115553  40.815  28.335   8.864
  986POPC   GL215554  40.928  28.456   8.864
  986POPC   C1A15555  40.766  28.325   8.564
  986POPC   D2A15556  40.745  28.325   8.264
  986POPC   C3A15557  40.824  28.413   7.964
  986POPC   C4A15558  40.794  28.343   7.664
  986POPC   C1B15559  41.035  28.544   8.564
  986POPC   C2B15560  40.981  28.465   8.264
  986POPC   C3B15561  40.991  28.454   7.964
  986POPC   C4B15562  41.044  28.487   7.664
  987POPC   NC315563  10.488   3.525   9.464
  987POPC   PO415564  10.526   3.544   9.164
  987POPC   GL115565  10.574   3.536   8.864
  987POPC   GL215566  10.471   3.643   8.864
  987POPC   C1A15567  10.538   3.499   8.564
  987POPC   D2A15568  10.506   3.540   8.264
  987POPC   C3A15569  10.513   3.526   7.964
  987POPC   C4A15570  10.499   3.497   7.664
  987POPC   C1B15571  10.368   3.684   8.564
  987POPC   C2B15572  10.307   3.678   8.264
  987POPC   C3B15573  10.385   3.678   7.964
  987POPC   C4B15574  10.324   3.701   7.664
  988POPC   NC315575  26.823  23.693   9.464
  988POPC   PO415576  26.809  23.705   9.164
  988POPC   GL115577  26.807  23.738   8.864
  988POPC   GL215578  26.929  23.717   8.864
  988POPC   C1A15579  26.806  23.759   8.564
  988POPC   D2A15580  26.801  23.676   8.264
  988POPC   C3A15581  26.861  23.738   7.964
  988POPC   C4A15582  26.856  23.762   7.664
  988POPC   C1B15583  27.029  23.789   8.564
  988POPC   C2B15584  27.025  23.795   8.264
  988POPC   C3B15585  27.063  23.761   7.964
  988POPC   C4B15586  27.060  23.854   7.664
  989POPC   NC315587  26.042  18.306   9.464
  989POPC   PO415588  26.063  18.279   9.164
  989POPC   GL115589  26.045  18.312   8.864
  989POPC   GL215590  25.970  18.171   8.864
  989POPC   C1A15591  26.003  18.280   8.564
  989POPC   D2A15592  26.022  18.242   8.264
  989POPC   C3A15593  26.026  18.253   7.964
  989POPC   C4A15594  26.066  18.253   7.664
  989POPC   C1B15595  25.965  18.077   8.564
  989POPC   C2B15596  25.879  18.023   8.264
  989POPC   C3B15597  25.913  18.079   7.964
  989POPC   C4B15598  25.924  18.062   7.664
  990POPC   NC315599  19.835  40.820   9.464
  990POPC   PO415600  19.855  40.789   9.164
  990POPC   GL115601  19.802  40.823   8.864
  990POPC   GL215602  19.740  40.769   8.864
  990POPC   C1A15603  19.842  40.796   8.564
  990POPC   D2A15604  19.872  40.790   8.264
  990POPC   C3A15605  19.841  40.796   7.964
  990POPC   C4A15606  19.852  40.801   7.664
  990POPC   C1B15607  19.613  40.688   8.564
  990POPC   C2B15608  19.566  40.674   8.264
  990POPC   C3B15609  19.626  40.641   7.964
  990POPC   C4B15610  19.581  40.669   7.664
  991POPC   NC315611   7.402  19.884   9.464
  991POPC   PO415612   7.426  19.825   9.164
  991POPC   GL115613   7.410  19.821   8.864
  991POPC   GL215614   7.389  19.941   8.864
  991POPC   C1A15615   7.374  19.883   8.564
  991POPC   D2A15616   7.436  19.804   8.264
  991POPC   C3A15617   7.395  19.790   7.964
  991POPC   C4A15618   7.425  19.799   7.664
  991POPC   C1B15619   7.257  20.071   8.564
  991POPC   C2B15620   7.274  20.031   8.264
  991POPC   C3B15621   7.304  20.074   7.964
  991POPC   C4B15622   7.305  20.008   7.664
  992POPC   NC315623  36.130  10.546   9.464
  992POPC   PO415624  36.108  10.560   9.164
  992POPC   GL115625  36.155  10.506   8.864
  992POPC   GL215626  36.151  10.416   8.864
  992POPC   C1A15627  36.084  10.555   8.564
  992POPC   D2A15628  36.162  10.557   8.264
  992POPC   C3A15629  36.078  10.508   7.964
  992POPC   C4A15630  36.170  10.549   7.664
  992POPC   C1B15631  36.236  10.337   8.564
  992POPC   C2B15632  36.236  10.315   8.264
  992POPC   C3B15633  36.240  10.360   7.964
  992POPC   C4B15634  36.269  10.357   7.664
  993POPC   NC315635   0.447  17.487   9.464
  993POPC   PO415636   0.430  17.557   9.164
  993POPC   GL115637   0.446  17.544   8.864
  993POPC   GL215638   0.544  17.429   8.864
  993POPC   C1A15639   0.451  17.464   8.564
  993POPC   D2A15640   0.433  17.541   8.264
  993POPC   C3A15641   0.401  17.511   7.964
  993POPC   C4A15642   0.403  17.479   7.664
  993POPC   C1B15643   0.678  17.425   8.564
  993POPC   C2B15644   0.653  17.394   8.264
  993POPC   C3B15645   0.656  17.411   7.964
  993POPC   C4B15646   0.707  17.389   7.664
  994POPC   NC315647   1.193  37.653   9.464
  994POPC   PO415648   1.234  37.671   9.164
  994POPC   GL115649   1.219  37.666   8.864
  994POPC   GL215650   1.343  37.620   8.864
  994POPC   C1A15651   1.258  37.721   8.564
  994POPC   D2A15652   1.254  37.703   8.264
  994POPC   C3A15653   1.216  37.697   7.964
  994POPC   C4A15654   1.187  37.651   7.664
  994POPC   C1B15655   1.478  37.642   8.564
  994POPC   C2B15656   1.498  37.618   8.264
  994POPC   C3B15657   1.445  37.618   7.964
  994POPC   C4B15658   1.435  37.631   7.664
  995POPC   NC315659  43.152  27.630   9.464
  995POPC   PO415660  43.106  27.555   9.164
  995POPC   GL115661  43.067  27.559   8.864
  995POPC   GL215662  43.242  27.600   8.864
  995POPC   C1A15663  43.093  27.615   8.564
  995POPC   D2A15664  43.151  27.618   8.264
  995POPC   C3A15665  43.093  27.640   7.964
  995POPC   C4A15666  43.136  27.616   7.664
  995POPC   C1B15667  43.331  27.676   8.564
  995POPC   C2B15668  43.325  27.631   8.264
  995POPC   C3B15669  43.392  27.668   7.964
  995POPC   C4B15670  43.313  27.683   7.664
  996POPC   NC315671  36.916  29.106   9.464
  996POPC   PO415672  36.864  29.121   9.164
  996POPC   GL115673  36.857  29.178   8.864
  996POPC   GL215674  37.022  29.100   8.864
  996POPC   C1A15675  36.943  29.144   8.564
  996POPC   D2A15676  36.923  29.099   8.264
  996POPC   C3A15677  36.933  29.127   7.964
  996POPC   C4A15678  36.864  29.139   7.664
  996POPC   C1B15679  37.148  29.086   8.564
  996POPC   C2B15680  37.176  29.154   8.264
  996POPC   C3B15681  37.134  29.143   7.964
  996POPC   C4B15682  37.103  29.066   7.664
  997POPC   NC315683  40.020  41.560   9.464
  997POPC   PO415684  39.982  41.582   9.164
  997POPC   GL115685  40.038  41.577   8.864
  997POPC   GL215686  39.871  41.603   8.864
  997POPC   C1A15687  39.982  41.549   8.564
  997POPC   D2A15688  39.981  41.546   8.264
  997POPC   C3A15689  40.052  41.526   7.964
  997POPC   C4A15690  40.034  41.541   7.664
  997POPC   C1B15691  39.718  41.672   8.564
  997POPC   C2B15692  39.815  41.637   8.264
  997POPC   C3B15693  39.732  41.632   7.964
  997POPC   C4B15694  39.786  41.590   7.664
  998POPC   NC315695   1.978   8.192   9.464
  998POPC   PO415696   2.009   8.180   9.164
  998POPC   GL115697   1.958   8.241   8.864
  998POPC   GL215698   2.126   8.176   8.864
  998POPC   C1A15699   1.993   8.186   8.564
  998POPC   D2A15700   1.986   8.202   8.264
  998POPC   C3A15701   2.023   8.220   7.964
  998POPC   C4A15702   1.956   8.234   7.664
  998POPC   C1B15703   2.202   8.151   8.564
  998POPC   C2B15704   2.261   8.177   8.264
  998POPC   C3B15705   2.252   8.157   7.964
  998POPC   C4B15706   2.260   8.109   7.664
  999POPC   NC315707  26.069  23.760   9.464
  999POPC   PO415708  26.078  23.715   9.164
  999POPC   GL115709  26.067  23.666   8.864
  999POPC   GL215710  25.963  23.720   8.864
  999POPC   C1A15711  26.047  23.713   8.564
  999POPC   D2A15712  26.006  23.695   8.264
  999POPC   C3A15713  26.084  23.679   7.964
  999POPC   C4A15714  25.993  23.694   7.664
  999POPC   C1B15715  25.816  23.752   8.564
  999POPC   C2B15716  25.770  23.730   8.264
  999POPC   C3B15717  25.826  23.799   7.964
  999POPC   C4B15718  25.747  23.793   7.664
 1000POPC   NC315719   9.021  23.718   9.464
 1000POPC   PO415720   8.978  23.696   9.164
 1000POPC   GL115721   8.954  23.700   8.864
 1000POPC   GL215722   8.851  23.758   8.864
 1000POPC   C1A15723   9.022  23.707   8.564
 1000POPC   D2A15724   8.947  23.725   8.264
 1000POPC   C3A15725   8.995  23.714   7.964
 1000POPC   C4A15726   8.996  23.695   7.664
 1000POPC   C1B15727   8.697  23.776   8.564
 1000POPC   C2B15728   8.725  23.788   8.264
 1000POPC   C3B15729   8.759  23.783   7.964
 1000POPC   C4B15730   8.694  23.812   7.664
 1001POPC   NC315731   2.810  33.810   9.464
 1001POPC   PO415732   2.776  33.751   9.164
 1001POPC   GL115733   2.808  33.752   8.864
 1001POPC   GL215734   2.824  33.742   8.864
 1001POPC   C1A15735   2.795  33.761   8.564
 1001POPC   D2A15736   2.804  33.776   8.264
 1001POPC   C3A15737   2.732  33.795   7.964
 1001POPC   C4A15738   2.805  33.840   7.664
 1001POPC   C1B15739   2.975  33.692   8.564
 1001POPC   C2B15740   2.942  33.639   8.264
 1001POPC   C3B15741   2.916  33.696   7.964
 1001POPC   C4B15742   3.014  33.632   7.664
 1002POPC   NC315743   6.649   1.957   9.464
 1002POPC   PO415744   6.677   2.002   9.164
 1002POPC   GL115745   6.668   2.015   8.864
 1002POPC   GL215746   6.501   1.967   8.864
 1002POPC   C1A15747   6.689   1.986   8.564
 1002POPC   D2A15748   6.613   1.986   8.264
 1002POPC   C3A15749   6.655   2.017   7.964
 1002POPC   C4A15750   6.638   2.010   7.664
 1002POPC   C1B15751   6.375   1.916   8.564
 1002POPC   C2B15752   6.445   1.889   8.264
 1002POPC   C3B15753   6.440   1.867   7.964
 1002POPC   C4B15754   6.464   1.852   7.664
 1003POPC   NC315755  12.045  43.924   9.464
 1003POPC   PO415756  12.100  43.916   9.164
 1003POPC   GL115757  12.063  43.845   8.864
 1003POPC   GL215758  12.221  43.949   8.864
 1003POPC   C1A15759  12.114  43.844   8.564
 1003POPC   D2A15760  12.081  43.855   8.264
 1003POPC   C3A15761  12.054  43.893   7.964
 1003POPC   C4A15762  12.104  43.897   7.664
 1003POPC   C1B15763  12.356  43.996   8.564
 1003POPC   C2B15764  12.263  43.927   8.264
 1003POPC   C3B15765  12.345  44.006   7.964
 1003POPC   C4B15766  12.278  43.973   7.664
 1004POPC   NC315767  41.551  39.271   9.464
 1004POPC   PO415768  41.601  39.209   9.164
 1004POPC   GL115769  41.583  39.258   8.864
 1004POPC   GL215770  41.402  39.203   8.864
 1004POPC   C1A15771  41.605  39.270   8.564
 1004POPC   D2A15772  41.593  39.215   8.264
 1004POPC   C3A15773  41.531  39.262   7.964
 1004POPC   C4A15774  41.536  39.202   7.664
 1004POPC   C1B15775  41.286  39.085   8.564
 1004POPC   C2B15776  41.290  39.154   8.264
 1004POPC   C3B15777  41.303  39.089   7.964
 1004POPC   C4B15778  41.320  39.118   7.664
 1005POPC   NC315779  14.415  41.523   9.464
 1005POPC   PO415780  14.372  41.572   9.164
 1005POPC   GL115781  14.453  41.544   8.864
 1005POPC   GL215782  14.541  41.576   8.864
 1005POPC   C1A15783  14.392  41.533   8.564
 1005POPC   D2A15784  14.388  41.564   8.264
 1005POPC   C3A15785  14.441  41.569   7.964
 1005POPC   C4A15786  14.362  41.509   7.664
 1005POPC   C1B15787  14.631  41.634   8.564
 1005POPC   C2B15788  14.652  41.645   8.264
 1005POPC   C3B15789  14.646  41.662   7.964
 1005POPC   C4B15790  14.591  41.648   7.664
 1006POPC   NC315791  29.901  17.470   9.464
 1006POPC   PO415792  29.895  17.555   9.164
 1006POPC   GL115793  29.961  17.544   8.864
 1006POPC   GL215794  29.990  17.519   8.864
 1006POPC   C1A15795  29.888  17.544   8.564
 1006POPC   D2A15796  29.917  17.505   8.264
 1006POPC   C3A15797  29.941  17.507   7.964
 1006POPC   C4A15798  29.958  17.553   7.664
 1006POPC   C1B15799  30.192  17.588   8.564
 1006POPC   C2B15800  30.171  17.551   8.264
 1006POPC   C3B15801  30.177  17.576   7.964
 1006POPC   C4B15802  30.128  17.599   7.664
 1007POPC   NC315803  41.543  39.998   9.464
 1007POPC   PO415804  41.531  39.995   9.164
 1007POPC   GL115805  41.539  40.003   8.864
 1007POPC   GL215806  41.485  40.095   8.864
 1007POPC   C1A15807  41.599  40.015   8.564
 1007POPC   D2A15808  41.513  40.030   8.264
 1007POPC   C3A15809  41.511  39.970   7.964
 1007POPC   C4A15810  41.512  40.012   7.664
 1007POPC   C1B15811  41.513  40.287   8.564
 1007POPC   C2B15812  41.496  40.257   8.264
 1007POPC   C3B15813  41.518  40.278   7.964
 1007POPC   C4B15814  41.494  40.197   7.664
 1008POPC   NC315815  29.945  31.489   9.464
 1008POPC   PO415816  29.955  31.430   9.164
 1008POPC   GL115817  29.965  31.483   8.864
 1008POPC   GL215818  29.939  31.552   8.864
 1008POPC   C1A15819  29.969  31.479   8.564
 1008POPC   D2A15820  29.896  31.443   8.264
 1008POPC   C3A15821  29.872  31.498   7.964
 1008POPC   C4A15822  29.908  31.443   7.664
 1008POPC   C1B15823  30.020  31.747   8.564
 1008POPC   C2B15824  29.983  31.669   8.264
 1008POPC   C3B15825  30.054  31.719   7.964
 1008POPC   C4B15826  30.040  31.717   7.664
 1009POPC   NC315827  38.426  29.146   9.464
 1009POPC   PO415828  38.490  29.183   9.164
 1009POPC   GL115829  38.459  29.117   8.864
 1009POPC   GL215830  38.609  29.221   8.864
 1009POPC   C1A15831  38.448  29.150   8.564
 1009POPC   D2A15832  38.437  29.111   8.264
 1009POPC   C3A15833  38.485  29.180   7.964
 1009POPC   C4A15834  38.414  29.113   7.664
 1009POPC   C1B15835  38.714  29.266   8.564
 1009POPC   C2B15836  38.644  29.299   8.264
 1009POPC   C3B15837  38.655  29.307   7.964
 1009POPC   C4B15838  38.665  29.228   7.664
 1010POPC   NC315839  11.316  10.572   9.464
 1010POPC   PO415840  11.316  10.529   9.164
 1010POPC   GL115841  11.253  10.524   8.864
 1010POPC   GL215842  11.304  10.390   8.864
 1010POPC   C1A15843  11.332  10.517   8.564
 1010POPC   D2A15844  11.288  10.538   8.264
 1010POPC   C3A15845  11.295  10.530   7.964
 1010POPC   C4A15846  11.316  10.482   7.664
 1010POPC   C1B15847  11.252  10.266   8.564
 1010POPC   C2B15848  11.286  10.265   8.264
 1010POPC   C3B15849  11.303  10.324   7.964
 1010POPC   C4B15850  11.241  10.283   7.664
 1011POPC   NC315851  14.374  11.270   9.464
 1011POPC   PO415852  14.398  11.321   9.164
 1011POPC   GL115853  14.383  11.321   8.864
 1011POPC   GL215854  14.442  11.198   8.864
 1011POPC   C1A15855  14.414  11.304   8.564
 1011POPC   D2A15856  14.415  11.344   8.264
 1011POPC   C3A15857  14.441  11.343   7.964
 1011POPC   C4A15858  14.364  11.295   7.664
 1011POPC   C1B15859  14.419  11.052   8.564
 1011POPC   C2B15860  14.451  11.024   8.264
 1011POPC   C3B15861  14.489  11.092   7.964
 1011POPC   C4B15862  14.419  11.072   7.664
 1012POPC   NC315863  37.643  13.580   9.464
 1012POPC   PO415864  37.661  13.645   9.164
 1012POPC   GL115865  37.668  13.677   8.864
 1012POPC   GL215866  37.745  13.623   8.864
 1012POPC   C1A15867  37.723  13.615   8.564
 1012POPC   D2A15868  37.729  13.628   8.264
 1012POPC   C3A15869  37.688  13.668   7.964
 1012POPC   C4A15870  37.673  13.645   7.664
 1012POPC   C1B15871  37.891  13.498   8.564
 1012POPC   C2B15872  37.922  13.482   8.264
 1012POPC   C3B15873  37.871  13.517   7.964
 1012POPC   C4B15874  37.942  13.502   7.664
 1013POPC   NC315875  40.030  11.337   9.464
 1013POPC   PO415876  39.958  11.314   9.164
 1013POPC   GL115877  40.055  11.279   8.864
 1013POPC   GL215878  40.017  11.142   8.864
 1013POPC   C1A15879  40.055  11.287   8.564
 1013POPC   D2A15880  40.007  11.270   8.264
 1013POPC   C3A15881  40.045  11.280   7.964
 1013POPC   C4A15882  40.045  11.296   7.664
 1013POPC   C1B15883  40.164  11.101   8.564
 1013POPC   C2B15884  40.086  11.115   8.264
 1013POPC   C3B15885  40.095  11.086   7.964
 1013POPC   C4B15886  40.116  11.113   7.664
 1014POPC   NC315887  10.533  19.879   9.464
 1014POPC   PO415888  10.508  19.815   9.164
 1014POPC   GL115889  10.565  19.868   8.864
 1014POPC   GL215890  10.538  19.699   8.864
 1014POPC   C1A15891  10.570  19.878   8.564
 1014POPC   D2A15892  10.513  19.868   8.264
 1014POPC   C3A15893  10.501  19.847   7.964
 1014POPC   C4A15894  10.493  19.813   7.664
 1014POPC   C1B15895  10.603  19.599   8.564
 1014POPC   C2B15896  10.548  19.619   8.264
 1014POPC   C3B15897  10.605  19.607   7.964
 1014POPC   C4B15898  10.563  19.639   7.664
 1015POPC   NC315899  33.050  40.802   9.464
 1015POPC   PO415900  33.000  40.752   9.164
 1015POPC   GL115901  33.020  40.773   8.864
 1015POPC   GL215902  33.140  40.708   8.864
 1015POPC   C1A15903  33.007  40.828   8.564
 1015POPC   D2A15904  32.983  40.741   8.264
 1015POPC   C3A15905  33.036  40.772   7.964
 1015POPC   C4A15906  33.051  40.825   7.664
 1015POPC   C1B15907  33.243  40.632   8.564
 1015POPC   C2B15908  33.210  40.609   8.264
 1015POPC   C3B15909  33.206  40.605   7.964
 1015POPC   C4B15910  33.263  40.623   7.664
 1016POPC   NC315911   3.530   8.155   9.464
 1016POPC   PO415912   3.542   8.188   9.164
 1016POPC   GL115913   3.565   8.166   8.864
 1016POPC   GL215914   3.629   8.202   8.864
 1016POPC   C1A15915   3.577   8.184   8.564
 1016POPC   D2A15916   3.571   8.191   8.264
 1016POPC   C3A15917   3.535   8.236   7.964
 1016POPC   C4A15918   3.500   8.172   7.664
 1016POPC   C1B15919   3.734   8.151   8.564
 1016POPC   C2B15920   3.774   8.158   8.264
 1016POPC   C3B15921   3.747   8.110   7.964
 1016POPC   C4B15922   3.807   8.174   7.664
 1017POPC   NC315923  20.626  38.484   9.464
 1017POPC   PO415924  20.624  38.449   9.164
 1017POPC   GL115925  20.599  38.414   8.864
 1017POPC   GL215926  20.602  38.538   8.864
 1017POPC   C1A15927  20.598  38.452   8.564
 1017POPC   D2A15928  20.563  38.496   8.264
 1017POPC   C3A15929  20.572  38.419   7.964
 1017POPC   C4A15930  20.628  38.439   7.664
 1017POPC   C1B15931  20.566  38.722   8.564
 1017POPC   C2B15932  20.586  38.703   8.264
 1017POPC   C3B15933  20.555  38.656   7.964
 1017POPC   C4B15934  20.538  38.706   7.664
 1018POPC   NC315935  20.611  43.925   9.464
 1018POPC   PO415936  20.600  43.919   9.164
 1018POPC   GL115937  20.563  43.927   8.864
 1018POPC   GL215938  20.650  43.992   8.864
 1018POPC   C1A15939  20.619  43.866   8.564
 1018POPC   D2A15940  20.649  43.911   8.264
 1018POPC   C3A15941  20.569  43.932   7.964
 1018POPC   C4A15942  20.591  43.861   7.664
 1018POPC   C1B15943  20.644  44.118   8.564
 1018POPC   C2B15944  20.640  44.113   8.264
 1018POPC   C3B15945  20.639  44.091   7.964
 1018POPC   C4B15946  20.667  44.162   7.664
 1019POPC   NC315947   3.561   4.292   9.464
 1019POPC   PO415948   3.585   4.329   9.164
 1019POPC   GL115949   3.576   4.298   8.864
 1019POPC   GL215950   3.446   4.453   8.864
 1019POPC   C1A15951   3.562   4.304   8.564
 1019POPC   D2A15952   3.545   4.274   8.264
 1019POPC   C3A15953   3.578   4.339   7.964
 1019POPC   C4A15954   3.533   4.277   7.664
 1019POPC   C1B15955   3.381   4.540   8.564
 1019POPC   C2B15956   3.333   4.469   8.264
 1019POPC   C3B15957   3.358   4.494   7.964
 1019POPC   C4B15958   3.347   4.541   7.664
 1020POPC   NC315959  33.790   0.452   9.464
 1020POPC   PO415960  33.770   0.420   9.164
 1020POPC   GL115961  33.812   0.475   8.864
 1020POPC   GL215962  33.893   0.340   8.864
 1020POPC   C1A15963  33.762   0.432   8.564
 1020POPC   D2A15964  33.847   0.410   8.264
 1020POPC   C3A15965  33.848   0.453   7.964
 1020POPC   C4A15966  33.784   0.414   7.664
 1020POPC   C1B15967  33.910   0.185   8.564
 1020POPC   C2B15968  33.885   0.216   8.264
 1020POPC   C3B15969  33.941   0.255   7.964
 1020POPC   C4B15970  33.915   0.232   7.664
 1021POPC   NC315971  12.074  15.996   9.464
 1021POPC   PO415972  12.045  15.946   9.164
 1021POPC   GL115973  12.081  15.943   8.864
 1021POPC   GL215974  12.077  16.095   8.864
 1021POPC   C1A15975  12.084  15.926   8.564
 1021POPC   D2A15976  12.054  15.965   8.264
 1021POPC   C3A15977  12.076  15.985   7.964
 1021POPC   C4A15978  12.057  15.955   7.664
 1021POPC   C1B15979  12.112  16.172   8.564
 1021POPC   C2B15980  12.087  16.221   8.264
 1021POPC   C3B15981  12.037  16.219   7.964
 1021POPC   C4B15982  12.042  16.176   7.664
 1022POPC   NC315983  12.070   6.615   9.464
 1022POPC   PO415984  12.040   6.658   9.164
 1022POPC   GL115985  12.060   6.617   8.864
 1022POPC   GL215986  12.171   6.785   8.864
 1022POPC   C1A15987  12.031   6.632   8.564
 1022POPC   D2A15988  12.034   6.650   8.264
 1022POPC   C3A15989  12.115   6.646   7.964
 1022POPC   C4A15990  12.038   6.645   7.664
 1022POPC   C1B15991  12.264   6.898   8.564
 1022POPC   C2B15992  12.222   6.818   8.264
 1022POPC   C3B15993  12.173   6.823   7.964
 1022POPC   C4B15994  12.215   6.882   7.664
 1023POPC   NC315995  11.317  16.702   9.464
 1023POPC   PO415996  11.304  16.702   9.164
 1023POPC   GL115997  11.295  16.773   8.864
 1023POPC   GL215998  11.242  16.672   8.864
 1023POPC   C1A15999  11.297  16.719   8.564
 1023POPC   D2A16000  11.302  16.754   8.264
 1023POPC   C3A16001  11.325  16.709   7.964
 1023POPC   C4A16002  11.259  16.704   7.664
 1023POPC   C1B16003  11.111  16.565   8.564
 1023POPC   C2B16004  11.069  16.527   8.264
 1023POPC   C3B16005  11.143  16.558   7.964
 1023POPC   C4B16006  11.099  16.612   7.664
 1024POPC   NC316007  14.442  18.256   9.464
 1024POPC   PO416008  14.362  18.313   9.164
 1024POPC   GL116009  14.373  18.287   8.864
 1024POPC   GL216010  14.298  18.323   8.864
 1024POPC   C1A16011  14.356  18.329   8.564
 1024POPC   D2A16012  14.402  18.256   8.264
 1024POPC   C3A16013  14.356  18.254   7.964
 1024POPC   C4A16014  14.447  18.240   7.664
 1024POPC   C1B16015  14.116  18.237   8.564
 1024POPC   C2B16016  14.168  18.304   8.264
 1024POPC   C3B16017  14.117  18.254   7.964
 1024POPC   C4B16018  14.195  18.306   7.664
 1025POPC   NC316019  32.261  13.674   9.464
 1025POPC   PO416020  32.231  13.636   9.164
 1025POPC   GL116021  32.287  13.653   8.864
 1025POPC   GL216022  32.323  13.656   8.864
 1025POPC   C1A16023  32.199  13.626   8.564
 1025POPC   D2A16024  32.294  13.595   8.264
 1025POPC   C3A16025  32.223  13.622   7.964
 1025POPC   C4A16026  32.216  13.579   7.664
 1025POPC   C1B16027  32.471  13.586   8.564
 1025POPC   C2B16028  32.517  13.586   8.264
 1025POPC   C3B16029  32.477  13.656   7.964
 1025POPC   C4B16030  32.455  13.635   7.664
 1026POPC   NC316031  40.750  39.997   9.464
 1026POPC   PO416032  40.734  40.039   9.164
 1026POPC   GL116033  40.820  39.967   8.864
 1026POPC   GL216034  40.806  39.900   8.864
 1026POPC   C1A16035  40.764  40.042   8.564
 1026POPC   D2A16036  40.755  40.031   8.264
 1026POPC   C3A16037  40.757  40.018   7.964
 1026POPC   C4A16038  40.779  40.054   7.664
 1026POPC   C1B16039  40.908  39.821   8.564
 1026POPC   C2B16040  40.899  39.834   8.264
 1026POPC   C3B16041  40.903  39.797   7.964
 1026POPC   C4B16042  40.911  39.823   7.664
 1027POPC   NC316043  40.788  29.921   9.464
 1027POPC   PO416044  40.767  29.888   9.164
 1027POPC   GL116045  40.827  29.937   8.864
 1027POPC   GL216046  40.783  29.776   8.864
 1027POPC   C1A16047  40.825  29.875   8.564
 1027POPC   D2A16048  40.784  29.962   8.264
 1027POPC   C3A16049  40.770  29.961   7.964
 1027POPC   C4A16050  40.776  29.890   7.664
 1027POPC   C1B16051  40.742  29.715   8.564
 1027POPC   C2B16052  40.790  29.696   8.264
 1027POPC   C3B16053  40.733  29.670   7.964
 1027POPC   C4B16054  40.780  29.700   7.664
 1028POPC   NC316055  39.209  13.629   9.464
 1028POPC   PO416056  39.239  13.629   9.164
 1028POPC   GL116057  39.264  13.613   8.864
 1028POPC   GL216058  39.125  13.686   8.864
 1028POPC   C1A16059  39.195  13.627   8.564
 1028POPC   D2A16060  39.189  13.621   8.264
 1028POPC   C3A16061  39.252  13.646   7.964
 1028POPC   C4A16062  39.218  13.614   7.664
 1028POPC   C1B16063  39.093  13.857   8.564
 1028POPC   C2B16064  39.020  13.804   8.264
 1028POPC   C3B16065  39.071  13.786   7.964
 1028POPC   C4B16066  39.088  13.841   7.664
 1029POPC   NC316067   2.786  18.275   9.464
 1029POPC   PO416068   2.798  18.292   9.164
 1029POPC   GL116069   2.769  18.301   8.864
 1029POPC   GL216070   2.749  18.165   8.864
 1029POPC   C1A16071   2.782  18.302   8.564
 1029POPC   D2A16072   2.720  18.262   8.264
 1029POPC   C3A16073   2.738  18.328   7.964
 1029POPC   C4A16074   2.777  18.261   7.664
 1029POPC   C1B16075   2.713  18.046   8.564
 1029POPC   C2B16076   2.704  18.076   8.264
 1029POPC   C3B16077   2.716  18.069   7.964
 1029POPC   C4B16078   2.703  18.075   7.664
 1030POPC   NC316079   5.050   4.328   9.464
 1030POPC   PO416080   5.106   4.290   9.164
 1030POPC   GL116081   5.128   4.324   8.864
 1030POPC   GL216082   5.146   4.200   8.864
 1030POPC   C1A16083   5.142   4.366   8.564
 1030POPC   D2A16084   5.092   4.301   8.264
 1030POPC   C3A16085   5.142   4.363   7.964
 1030POPC   C4A16086   5.065   4.322   7.664
 1030POPC   C1B16087   5.234   4.119   8.564
 1030POPC   C2B16088   5.244   4.145   8.264
 1030POPC   C3B16089   5.253   4.102   7.964
 1030POPC   C4B16090   5.249   4.114   7.664
 1031POPC   NC316091   6.597  36.142   9.464
 1031POPC   PO416092   6.604  36.082   9.164
 1031POPC   GL116093   6.652  36.097   8.864
 1031POPC   GL216094   6.509  36.142   8.864
 1031POPC   C1A16095   6.691  36.105   8.564
 1031POPC   D2A16096   6.679  36.137   8.264
 1031POPC   C3A16097   6.642  36.161   7.964
 1031POPC   C4A16098   6.629  36.147   7.664
 1031POPC   C1B16099   6.428  36.206   8.564
 1031POPC   C2B16100   6.375  36.203   8.264
 1031POPC   C3B16101   6.398  36.144   7.964
 1031POPC   C4B16102   6.362  36.142   7.664
 1032POPC   NC316103  40.014  12.873   9.464
 1032POPC   PO416104  40.038  12.838   9.164
 1032POPC   GL116105  39.995  12.814   8.864
 1032POPC   GL216106  40.057  12.775   8.864
 1032POPC   C1A16107  40.030  12.881   8.564
 1032POPC   D2A16108  39.977  12.881   8.264
 1032POPC   C3A16109  39.996  12.892   7.964
 1032POPC   C4A16110  39.965  12.849   7.664
 1032POPC   C1B16111  40.065  12.661   8.564
 1032POPC   C2B16112  40.081  12.637   8.264
 1032POPC   C3B16113  40.062  12.630   7.964
 1032POPC   C4B16114  40.060  12.601   7.664
 1033POPC   NC316115  36.108  15.193   9.464
 1033POPC   PO416116  36.086  15.205   9.164
 1033POPC   GL116117  36.105  15.150   8.864
 1033POPC   GL216118  36.175  15.067   8.864
 1033POPC   C1A16119  36.175  15.182   8.564
 1033POPC   D2A16120  36.117  15.209   8.264
 1033POPC   C3A16121  36.105  15.192   7.964
 1033POPC   C4A16122  36.123  15.225   7.664
 1033POPC   C1B16123  36.234  14.938   8.564
 1033POPC   C2B16124  36.160  14.933   8.264
 1033POPC   C3B16125  36.162  14.903   7.964
 1033POPC   C4B16126  36.190  14.923   7.664
 1034POPC   NC316127  22.939  22.118   9.464
 1034POPC   PO416128  22.972  22.162   9.164
 1034POPC   GL116129  22.888  22.204   8.864
 1034POPC   GL216130  22.787  22.073   8.864
 1034POPC   C1A16131  22.926  22.161   8.564
 1034POPC   D2A16132  22.916  22.146   8.264
 1034POPC   C3A16133  22.909  22.130   7.964
 1034POPC   C4A16134  22.970  22.129   7.664
 1034POPC   C1B16135  22.695  22.035   8.564
 1034POPC   C2B16136  22.767  22.041   8.264
 1034POPC   C3B16137  22.694  22.006   7.964
 1034POPC   C4B16138  22.737  22.029   7.664
 1035POPC   NC316139   6.630  18.283   9.464
 1035POPC   PO416140   6.656  18.319   9.164
 1035POPC   GL116141   6.628  18.279   8.864
 1035POPC   GL216142   6.553  18.337   8.864
 1035POPC   C1A16143   6.654  18.237   8.564
 1035POPC   D2A16144   6.640  18.234   8.264
 1035POPC   C3A16145   6.643  18.302   7.964
 1035POPC   C4A16146   6.668  18.271   7.664
 1035POPC   C1B16147   6.376  18.439   8.564
 1035POPC   C2B16148   6.388  18.448   8.264
 1035POPC   C3B16149   6.417  18.401   7.964
 1035POPC   C4B16150   6.422  18.390   7.664
 1036POPC   NC316151  30.704  17.548   9.464
 1036POPC   PO416152  30.732  17.506   9.164
 1036POPC   GL116153  30.735  17.458   8.864
 1036POPC   GL216154  30.562  17.563   8.864
 1036POPC   C1A16155  30.738  17.532   8.564
 1036POPC   D2A16156  30.746  17.513   8.264
 1036POPC   C3A16157  30.732  17.506   7.964
 1036POPC   C4A16158  30.731  17.497   7.664
 1036POPC   C1B16159  30.487  17.630   8.564
 1036POPC   C2B16160  30.492  17.684   8.264
 1036POPC   C3B16161  30.520  17.635   7.964
 1036POPC   C4B16162  30.452  17.689   7.664
 1037POPC   NC316163  30.735  27.603   9.464
 1037POPC   PO416164  30.704  27.586   9.164
 1037POPC   GL116165  30.732  27.591   8.864
 1037POPC   GL216166  30.742  27.479   8.864
 1037POPC   C1A16167  30.666  27.582   8.564
 1037POPC   D2A16168  30.680  27.615   8.264
 1037POPC   C3A16169  30.725  27.598   7.964
 1037POPC   C4A16170  30.720  27.544   7.664
 1037POPC   C1B16171  30.843  27.331   8.564
 1037POPC   C2B16172  30.774  27.392   8.264
 1037POPC   C3B16173  30.762  27.410   7.964
 1037POPC   C4B16174  30.829  27.316   7.664
 1038POPC   NC316175  16.689  11.330   9.464
 1038POPC   PO416176  16.686  11.327   9.164
 1038POPC   GL116177  16.691  11.277   8.864
 1038POPC   GL216178  16.787  11.260   8.864
 1038POPC   C1A16179  16.681  11.266   8.564
 1038POPC   D2A16180  16.740  11.334   8.264
 1038POPC   C3A16181  16.744  11.263   7.964
 1038POPC   C4A16182  16.725  11.289   7.664
 1038POPC   C1B16183  16.971  11.162   8.564
 1038POPC   C2B16184  16.938  11.151   8.264
 1038POPC   C3B16185  16.907  11.099   7.964
 1038POPC   C4B16186  16.885  11.125   7.664
 1039POPC   NC316187  15.953  19.066   9.464
 1039POPC   PO416188  16.003  19.063   9.164
 1039POPC   GL116189  15.927  19.013   8.864
 1039POPC   GL216190  16.036  19.015   8.864
 1039POPC   C1A16191  15.921  19.024   8.564
 1039POPC   D2A16192  15.908  19.098   8.264
 1039POPC   C3A16193  15.938  19.044   7.964
 1039POPC   C4A16194  16.003  19.083   7.664
 1039POPC   C1B16195  16.203  18.957   8.564
 1039POPC   C2B16196  16.152  18.969   8.264
 1039POPC   C3B16197  16.169  18.987   7.964
 1039POPC   C4B16198  16.212  18.994   7.664
 1040POPC   NC316199  15.223  23.674   9.464
 1040POPC   PO416200  15.225  23.741   9.164
 1040POPC   GL116201  15.130  23.664   8.864
 1040POPC   GL216202  15.210  23.857   8.864
 1040POPC   C1A16203  15.219  23.679   8.564
 1040POPC   D2A16204  15.186  23.725   8.264
 1040POPC   C3A16205  15.217  23.701   7.964
 1040POPC   C4A16206  15.171  23.732   7.664
 1040POPC   C1B16207  15.293  23.972   8.564
 1040POPC   C2B16208  15.265  23.899   8.264
 1040POPC   C3B16209  15.353  23.902   7.964
 1040POPC   C4B16210  15.349  23.945   7.664
 1041POPC   NC316211  43.073   8.947   9.464
 1041POPC   PO416212  43.140   8.953   9.164
 1041POPC   GL116213  43.134   8.979   8.864
 1041POPC   GL216214  43.201   9.082   8.864
 1041POPC   C1A16215  43.111   8.988   8.564
 1041POPC   D2A16216  43.141   8.948   8.264
 1041POPC   C3A16217  43.103   8.942   7.964
 1041POPC   C4A16218  43.089   8.971   7.664
 1041POPC   C1B16219  43.233   9.201   8.564
 1041POPC   C2B16220  43.159   9.207   8.264
 1041POPC   C3B16221  43.238   9.231   7.964
 1041POPC   C4B16222  43.204   9.196   7.664
 1042POPC   NC316223   6.630   3.539   9.464
 1042POPC   PO416224   6.641   3.568   9.164
 1042POPC   GL116225   6.682   3.536   8.864
 1042POPC   GL216226   6.485   3.472   8.864
 1042POPC   C1A16227   6.644   3.547   8.564
 1042POPC   D2A16228   6.677   3.539   8.264
 1042POPC   C3A16229   6.663   3.510   7.964
 1042POPC   C4A16230   6.665   3.524   7.664
 1042POPC   C1B16231   6.462   3.438   8.564
 1042POPC   C2B16232   6.370   3.387   8.264
 1042POPC   C3B16233   6.425   3.424   7.964
 1042POPC   C4B16234   6.425   3.478   7.664
 1043POPC   NC316235  20.625  25.265   9.464
 1043POPC   PO416236  20.569  25.242   9.164
 1043POPC   GL116237  20.630  25.218   8.864
 1043POPC   GL216238  20.748  25.215   8.864
 1043POPC   C1A16239  20.612  25.221   8.564
 1043POPC   D2A16240  20.601  25.310   8.264
 1043POPC   C3A16241  20.651  25.218   7.964
 1043POPC   C4A16242  20.585  25.247   7.664
 1043POPC   C1B16243  20.872  25.183   8.564
 1043POPC   C2B16244  20.798  25.141   8.264
 1043POPC   C3B16245  20.811  25.201   7.964
 1043POPC   C4B16246  20.837  25.197   7.664
 1044POPC   NC316247  16.756  44.664   9.464
 1044POPC   PO416248  16.774  44.687   9.164
 1044POPC   GL116249  16.726  44.616   8.864
 1044POPC   GL216250  16.810  44.626   8.864
 1044POPC   C1A16251  16.776  44.629   8.564
 1044POPC   D2A16252  16.718  44.681   8.264
 1044POPC   C3A16253  16.748  44.709   7.964
 1044POPC   C4A16254  16.697  44.635   7.664
 1044POPC   C1B16255  16.977  44.487   8.564
 1044POPC   C2B16256  16.911  44.488   8.264
 1044POPC   C3B16257  16.945  44.511   7.964
 1044POPC   C4B16258  16.930  44.494   7.664
 1045POPC   NC316259  32.274   6.601   9.464
 1045POPC   PO416260  32.238   6.680   9.164
 1045POPC   GL116261  32.278   6.621   8.864
 1045POPC   GL216262  32.227   6.736   8.864
 1045POPC   C1A16263  32.287   6.628   8.564
 1045POPC   D2A16264  32.250   6.690   8.264
 1045POPC   C3A16265  32.206   6.618   7.964
 1045POPC   C4A16266  32.222   6.606   7.664
 1045POPC   C1B16267  32.157   6.841   8.564
 1045POPC   C2B16268  32.187   6.912   8.264
 1045POPC   C3B16269  32.194   6.868   7.964
 1045POPC   C4B16270  32.209   6.847   7.664
 1046POPC   NC316271  23.680   2.037   9.464
 1046POPC   PO416272  23.722   2.028   9.164
 1046POPC   GL116273  23.753   1.999   8.864
 1046POPC   GL216274  23.665   1.878   8.864
 1046POPC   C1A16275  23.764   1.982   8.564
 1046POPC   D2A16276  23.733   2.007   8.264
 1046POPC   C3A16277  23.750   1.948   7.964
 1046POPC   C4A16278  23.763   2.018   7.664
 1046POPC   C1B16279  23.529   1.809   8.564
 1046POPC   C2B16280  23.504   1.783   8.264
 1046POPC   C3B16281  23.572   1.801   7.964
 1046POPC   C4B16282  23.494   1.861   7.664
 1047POPC   NC316283  30.713   8.171   9.464
 1047POPC   PO416284  30.685   8.167   9.164
 1047POPC   GL116285  30.719   8.233   8.864
 1047POPC   GL216286  30.638   8.126   8.864
 1047POPC   C1A16287  30.668   8.245   8.564
 1047POPC   D2A16288  30.719   8.219   8.264
 1047POPC   C3A16289  30.714   8.189   7.964
 1047POPC   C4A16290  30.734   8.188   7.664
 1047POPC   C1B16291  30.464   8.010   8.564
 1047POPC   C2B16292  30.463   8.076   8.264
 1047POPC   C3B16293  30.534   8.071   7.964
 1047POPC   C4B16294  30.466   8.055   7.664
 1048POPC   NC316295  28.385  37.638   9.464
 1048POPC   PO416296  28.385  37.650   9.164
 1048POPC   GL116297  28.391  37.699   8.864
 1048POPC   GL216298  28.460  37.686   8.864
 1048POPC   C1A16299  28.357  37.687   8.564
 1048POPC   D2A16300  28.381  37.660   8.264
 1048POPC   C3A16301  28.405  37.671   7.964
 1048POPC   C4A16302  28.344  37.635   7.664
 1048POPC   C1B16303  28.628  37.698   8.564
 1048POPC   C2B16304  28.614  37.743   8.264
 1048POPC   C3B16305  28.605  37.709   7.964
 1048POPC   C4B16306  28.636  37.673   7.664
 1049POPC   NC316307  26.845  16.718   9.464
 1049POPC   PO416308  26.818  16.764   9.164
 1049POPC   GL116309  26.848  16.714   8.864
 1049POPC   GL216310  26.715  16.760   8.864
 1049POPC   C1A16311  26.802  16.758   8.564
 1049POPC   D2A16312  26.812  16.742   8.264
 1049POPC   C3A16313  26.852  16.740   7.964
 1049POPC   C4A16314  26.814  16.769   7.664
 1049POPC   C1B16315  26.601  16.927   8.564
 1049POPC   C2B16316  26.590  16.890   8.264
 1049POPC   C3B16317  26.653  16.842   7.964
 1049POPC   C4B16318  26.584  16.892   7.664
 1050POPC   NC316319  31.485  15.965   9.464
 1050POPC   PO416320  31.461  15.971   9.164
 1050POPC   GL116321  31.424  15.962   8.864
 1050POPC   GL216322  31.582  15.904   8.864
 1050POPC   C1A16323  31.464  15.967   8.564
 1050POPC   D2A16324  31.519  15.992   8.264
 1050POPC   C3A16325  31.495  15.984   7.964
 1050POPC   C4A16326  31.462  15.974   7.664
 1050POPC   C1B16327  31.692  15.909   8.564
 1050POPC   C2B16328  31.719  15.901   8.264
 1050POPC   C3B16329  31.747  15.872   7.964
 1050POPC   C4B16330  31.675  15.857   7.664
 1051POPC   NC316331   9.756  26.074   9.464
 1051POPC   PO416332   9.793  26.069   9.164
 1051POPC   GL116333   9.745  26.064   8.864
 1051POPC   GL216334   9.760  25.897   8.864
 1051POPC   C1A16335   9.757  26.048   8.564
 1051POPC   D2A16336   9.718  26.008   8.264
 1051POPC   C3A16337   9.707  26.059   7.964
 1051POPC   C4A16338   9.757  26.023   7.664
 1051POPC   C1B16339   9.782  25.796   8.564
 1051POPC   C2B16340   9.696  25.800   8.264
 1051POPC   C3B16341   9.737  25.772   7.964
 1051POPC   C4B16342   9.711  25.811   7.664
 1052POPC   NC316343  16.727  29.931   9.464
 1052POPC   PO416344  16.696  29.922   9.164
 1052POPC   GL116345  16.715  29.927   8.864
 1052POPC   GL216346  16.807  29.884   8.864
 1052POPC   C1A16347  16.765  29.918   8.564
 1052POPC   D2A16348  16.709  29.912   8.264
 1052POPC   C3A16349  16.726  29.920   7.964
 1052POPC   C4A16350  16.770  29.927   7.664
 1052POPC   C1B16351  16.944  29.899   8.564
 1052POPC   C2B16352  16.934  29.911   8.264
 1052POPC   C3B16353  16.934  29.948   7.964
 1052POPC   C4B16354  17.004  29.929   7.664
 1053POPC   NC316355  41.605  25.996   9.464
 1053POPC   PO416356  41.534  26.091   9.164
 1053POPC   GL116357  41.526  26.002   8.864
 1053POPC   GL216358  41.410  26.042   8.864
 1053POPC   C1A16359  41.591  26.008   8.564
 1053POPC   D2A16360  41.553  25.992   8.264
 1053POPC   C3A16361  41.579  26.015   7.964
 1053POPC   C4A16362  41.604  26.072   7.664
 1053POPC   C1B16363  41.275  26.144   8.564
 1053POPC   C2B16364  41.358  26.157   8.264
 1053POPC   C3B16365  41.352  26.163   7.964
 1053POPC   C4B16366  41.339  26.119   7.664
 1054POPC   NC316367   5.068  25.296   9.464
 1054POPC   PO416368   5.096  25.279   9.164
 1054POPC   GL116369   5.084  25.290   8.864
 1054POPC   GL216370   5.200  25.399   8.864
 1054POPC   C1A16371   5.140  25.278   8.564
 1054POPC   D2A16372   5.098  25.268   8.264
 1054POPC   C3A16373   5.078  25.232   7.964
 1054POPC   C4A16374   5.103  25.253   7.664
 1054POPC   C1B16375   5.281  25.396   8.564
 1054POPC   C2B16376   5.256  25.440   8.264
 1054POPC   C3B16377   5.241  25.483   7.964
 1054POPC   C4B16378   5.306  25.395   7.664
 1055POPC   NC316379   9.742  33.778   9.464
 1055POPC   PO416380   9.745  33.769   9.164
 1055POPC   GL116381   9.752  33.808   8.864
 1055POPC   GL216382   9.674  33.926   8.864
 1055POPC   C1A16383   9.726  33.814   8.564
 1055POPC   D2A16384   9.752  33.828   8.264
 1055POPC   C3A16385   9.756  33.752   7.964
 1055POPC   C4A16386   9.753  33.796   7.664
 1055POPC   C1B16387   9.688  34.066   8.564
 1055POPC   C2B16388   9.677  34.057   8.264
 1055POPC   C3B16389   9.607  34.060   7.964
 1055POPC   C4B16390   9.605  34.056   7.664
 1056POPC   NC316391  17.550  12.124   9.464
 1056POPC   PO416392  17.542  12.087   9.164
 1056POPC   GL116393  17.542  12.085   8.864
 1056POPC   GL216394  17.417  11.918   8.864
 1056POPC   C1A16395  17.494  12.105   8.564
 1056POPC   D2A16396  17.524  12.058   8.264
 1056POPC   C3A16397  17.522  12.094   7.964
 1056POPC   C4A16398  17.464  12.103   7.664
 1056POPC   C1B16399  17.364  11.864   8.564
 1056POPC   C2B16400  17.406  11.802   8.264
 1056POPC   C3B16401  17.397  11.796   7.964
 1056POPC   C4B16402  17.414  11.886   7.664
 1057POPC   NC316403  24.447   5.065   9.464
 1057POPC   PO416404  24.467   5.115   9.164
 1057POPC   GL116405  24.518   5.087   8.864
 1057POPC   GL216406  24.509   5.196   8.864
 1057POPC   C1A16407  24.478   5.106   8.564
 1057POPC   D2A16408  24.502   5.119   8.264
 1057POPC   C3A16409  24.537   5.111   7.964
 1057POPC   C4A16410  24.456   5.141   7.664
 1057POPC   C1B16411  24.596   5.299   8.564
 1057POPC   C2B16412  24.629   5.323   8.264
 1057POPC   C3B16413  24.617   5.273   7.964
 1057POPC   C4B16414  24.663   5.265   7.664
 1058POPC   NC316415  12.093  38.455   9.464
 1058POPC   PO416416  12.086  38.458   9.164
 1058POPC   GL116417  12.032  38.502   8.864
 1058POPC   GL216418  12.105  38.312   8.864
 1058POPC   C1A16419  12.094  38.430   8.564
 1058POPC   D2A16420  12.101  38.477   8.264
 1058POPC   C3A16421  12.125  38.433   7.964
 1058POPC   C4A16422  12.109  38.407   7.664
 1058POPC   C1B16423  12.173  38.213   8.564
 1058POPC   C2B16424  12.172  38.193   8.264
 1058POPC   C3B16425  12.161  38.254   7.964
 1058POPC   C4B16426  12.146  38.222   7.664
 1059POPC   NC316427  14.415   6.653   9.464
 1059POPC   PO416428  14.362   6.666   9.164
 1059POPC   GL116429  14.431   6.643   8.864
 1059POPC   GL216430  14.570   6.697   8.864
 1059POPC   C1A16431  14.358   6.633   8.564
 1059POPC   D2A16432  14.408   6.667   8.264
 1059POPC   C3A16433  14.418   6.595   7.964
 1059POPC   C4A16434  14.432   6.674   7.664
 1059POPC   C1B16435  14.659   6.690   8.564
 1059POPC   C2B16436  14.649   6.658   8.264
 1059POPC   C3B16437  14.664   6.661   7.964
 1059POPC   C4B16438  14.689   6.696   7.664
 1060POPC   NC316439  28.400  36.148   9.464
 1060POPC   PO416440  28.378  36.120   9.164
 1060POPC   GL116441  28.352  36.134   8.864
 1060POPC   GL216442  28.482  36.042   8.864
 1060POPC   C1A16443  28.334  36.131   8.564
 1060POPC   D2A16444  28.405  36.142   8.264
 1060POPC   C3A16445  28.350  36.160   7.964
 1060POPC   C4A16446  28.376  36.126   7.664
 1060POPC   C1B16447  28.549  35.958   8.564
 1060POPC   C2B16448  28.577  35.942   8.264
 1060POPC   C3B16449  28.539  35.908   7.964
 1060POPC   C4B16450  28.525  35.919   7.664
 1061POPC   NC316451  39.271  39.959   9.464
 1061POPC   PO416452  39.258  40.023   9.164
 1061POPC   GL116453  39.261  40.038   8.864
 1061POPC   GL216454  39.314  39.847   8.864
 1061POPC   C1A16455  39.216  40.001   8.564
 1061POPC   D2A16456  39.194  40.022   8.264
 1061POPC   C3A16457  39.192  40.005   7.964
 1061POPC   C4A16458  39.250  39.985   7.664
 1061POPC   C1B16459  39.280  39.801   8.564
 1061POPC   C2B16460  39.369  39.808   8.264
 1061POPC   C3B16461  39.289  39.806   7.964
 1061POPC   C4B16462  39.304  39.736   7.664
 1062POPC   NC316463  40.821   8.965   9.464
 1062POPC   PO416464  40.754   8.977   9.164
 1062POPC   GL116465  40.761   8.960   8.864
 1062POPC   GL216466  40.739   9.093   8.864
 1062POPC   C1A16467  40.805   8.950   8.564
 1062POPC   D2A16468  40.769   8.956   8.264
 1062POPC   C3A16469  40.750   9.007   7.964
 1062POPC   C4A16470  40.830   8.945   7.664
 1062POPC   C1B16471  40.676   9.203   8.564
 1062POPC   C2B16472  40.663   9.148   8.264
 1062POPC   C3B16473  40.666   9.171   7.964
 1062POPC   C4B16474  40.663   9.177   7.664
 1063POPC   NC316475  10.545  15.906   9.464
 1063POPC   PO416476  10.504  15.977   9.164
 1063POPC   GL116477  10.519  15.979   8.864
 1063POPC   GL216478  10.601  15.821   8.864
 1063POPC   C1A16479  10.512  16.003   8.564
 1063POPC   D2A16480  10.492  15.993   8.264
 1063POPC   C3A16481  10.550  15.933   7.964
 1063POPC   C4A16482  10.502  15.993   7.664
 1063POPC   C1B16483  10.685  15.723   8.564
 1063POPC   C2B16484  10.633  15.781   8.264
 1063POPC   C3B16485  10.611  15.709   7.964
 1063POPC   C4B16486  10.607  15.765   7.664
 1064POPC   NC316487  31.443  13.636   9.464
 1064POPC   PO416488  31.462  13.589   9.164
 1064POPC   GL116489  31.504  13.584   8.864
 1064POPC   GL216490  31.499  13.529   8.864
 1064POPC   C1A16491  31.493  13.667   8.564
 1064POPC   D2A16492  31.520  13.651   8.264
 1064POPC   C3A16493  31.494  13.643   7.964
 1064POPC   C4A16494  31.440  13.650   7.664
 1064POPC   C1B16495  31.510  13.396   8.564
 1064POPC   C2B16496  31.528  13.400   8.264
 1064POPC   C3B16497  31.589  13.429   7.964
 1064POPC   C4B16498  31.528  13.375   7.664
 1065POPC   NC316499  23.717  43.921   9.464
 1065POPC   PO416500  23.735  43.901   9.164
 1065POPC   GL116501  23.673  43.919   8.864
 1065POPC   GL216502  23.618  43.839   8.864
 1065POPC   C1A16503  23.674  43.911   8.564
 1065POPC   D2A16504  23.681  43.842   8.264
 1065POPC   C3A16505  23.693  43.885   7.964
 1065POPC   C4A16506  23.669  43.889   7.664
 1065POPC   C1B16507  23.470  43.921   8.564
 1065POPC   C2B16508  23.440  43.848   8.264
 1065POPC   C3B16509  23.422  43.875   7.964
 1065POPC   C4B16510  23.451  43.860   7.664
 1066POPC   NC316511   1.235   5.844   9.464
 1066POPC   PO416512   1.197   5.823   9.164
 1066POPC   GL116513   1.192   5.875   8.864
 1066POPC   GL216514   1.139   5.886   8.864
 1066POPC   C1A16515   1.218   5.821   8.564
 1066POPC   D2A16516   1.234   5.847   8.264
 1066POPC   C3A16517   1.195   5.912   7.964
 1066POPC   C4A16518   1.170   5.846   7.664
 1066POPC   C1B16519   1.001   5.974   8.564
 1066POPC   C2B16520   1.008   5.959   8.264
 1066POPC   C3B16521   0.971   5.936   7.964
 1066POPC   C4B16522   0.984   5.953   7.664
 1067POPC   NC316523  15.989  39.281   9.464
 1067POPC   PO416524  16.004  39.237   9.164
 1067POPC   GL116525  15.995  39.270   8.864
 1067POPC   GL216526  15.832  39.324   8.864
 1067POPC   C1A16527  15.942  39.232   8.564
 1067POPC   D2A16528  15.928  39.276   8.264
 1067POPC   C3A16529  15.911  39.197   7.964
 1067POPC   C4A16530  15.952  39.215   7.664
 1067POPC   C1B16531  15.721  39.385   8.564
 1067POPC   C2B16532  15.763  39.424   8.264
 1067POPC   C3B16533  15.777  39.385   7.964
 1067POPC   C4B16534  15.753  39.384   7.664
 1068POPC   NC316535  34.587  36.150   9.464
 1068POPC   PO416536  34.616  36.099   9.164
 1068POPC   GL116537  34.542  36.125   8.864
 1068POPC   GL216538  34.662  36.086   8.864
 1068POPC   C1A16539  34.554  36.174   8.564
 1068POPC   D2A16540  34.560  36.094   8.264
 1068POPC   C3A16541  34.614  36.124   7.964
 1068POPC   C4A16542  34.605  36.173   7.664
 1068POPC   C1B16543  34.835  36.093   8.564
 1068POPC   C2B16544  34.787  36.119   8.264
 1068POPC   C3B16545  34.869  36.138   7.964
 1068POPC   C4B16546  34.821  36.128   7.664
 1069POPC   NC316547  35.316   2.786   9.464
 1069POPC   PO416548  35.336   2.803   9.164
 1069POPC   GL116549  35.366   2.778   8.864
 1069POPC   GL216550  35.327   2.670   8.864
 1069POPC   C1A16551  35.374   2.784   8.564
 1069POPC   D2A16552  35.332   2.736   8.264
 1069POPC   C3A16553  35.332   2.800   7.964
 1069POPC   C4A16554  35.303   2.738   7.664
 1069POPC   C1B16555  35.336   2.481   8.564
 1069POPC   C2B16556  35.321   2.536   8.264
 1069POPC   C3B16557  35.368   2.546   7.964
 1069POPC   C4B16558  35.392   2.499   7.664
 1070POPC   NC316559  41.576  35.400   9.464
 1070POPC   PO416560  41.524  35.310   9.164
 1070POPC   GL116561  41.594  35.307   8.864
 1070POPC   GL216562  41.625  35.459   8.864
 1070POPC   C1A16563  41.551  35.396   8.564
 1070POPC   D2A16564  41.519  35.334   8.264
 1070POPC   C3A16565  41.601  35.329   7.964
 1070POPC   C4A16566  41.538  35.323   7.664
 1070POPC   C1B16567  41.711  35.505   8.564
 1070POPC   C2B16568  41.726  35.516   8.264
 1070POPC   C3B16569  41.779  35.515   7.964
 1070POPC   C4B16570  41.765  35.557   7.664
 1071POPC   NC316571  23.740  36.910   9.464
 1071POPC   PO416572  23.722  36.918   9.164
 1071POPC   GL116573  23.673  36.912   8.864
 1071POPC   GL216574  23.846  36.869   8.864
 1071POPC   C1A16575  23.760  36.911   8.564
 1071POPC   D2A16576  23.744  36.857   8.264
 1071POPC   C3A16577  23.729  36.926   7.964
 1071POPC   C4A16578  23.749  36.923   7.664
 1071POPC   C1B16579  23.950  36.752   8.564
 1071POPC   C2B16580  23.932  36.716   8.264
 1071POPC   C3B16581  23.912  36.727   7.964
 1071POPC   C4B16582  23.901  36.737   7.664
 1072POPC   NC316583   8.977  43.080   9.464
 1072POPC   PO416584   8.994  43.099   9.164
 1072POPC   GL116585   8.999  43.154   8.864
 1072POPC   GL216586   9.135  43.077   8.864
 1072POPC   C1A16587   9.019  43.106   8.564
 1072POPC   D2A16588   8.957  43.138   8.264
 1072POPC   C3A16589   9.004  43.087   7.964
 1072POPC   C4A16590   8.948  43.074   7.664
 1072POPC   C1B16591   9.161  43.004   8.564
 1072POPC   C2B16592   9.164  43.039   8.264
 1072POPC   C3B16593   9.246  43.070   7.964
 1072POPC   C4B16594   9.168  42.979   7.664
 1073POPC   NC316595  39.992  19.061   9.464
 1073POPC   PO416596  39.984  19.062   9.164
 1073POPC   GL116597  39.964  19.094   8.864
 1073POPC   GL216598  40.037  19.158   8.864
 1073POPC   C1A16599  40.030  19.011   8.564
 1073POPC   D2A16600  39.967  19.009   8.264
 1073POPC   C3A16601  40.008  19.096   7.964
 1073POPC   C4A16602  40.035  19.064   7.664
 1073POPC   C1B16603  40.103  19.315   8.564
 1073POPC   C2B16604  40.075  19.312   8.264
 1073POPC   C3B16605  40.066  19.315   7.964
 1073POPC   C4B16606  40.074  19.322   7.664
 1074POPC   NC316607  22.200  19.040   9.464
 1074POPC   PO416608  22.195  19.108   9.164
 1074POPC   GL116609  22.157  19.022   8.864
 1074POPC   GL216610  22.097  19.003   8.864
 1074POPC   C1A16611  22.196  19.070   8.564
 1074POPC   D2A16612  22.153  19.050   8.264
 1074POPC   C3A16613  22.117  19.078   7.964
 1074POPC   C4A16614  22.170  19.064   7.664
 1074POPC   C1B16615  21.895  18.920   8.564
 1074POPC   C2B16616  21.988  18.960   8.264
 1074POPC   C3B16617  21.938  18.981   7.964
 1074POPC   C4B16618  21.968  18.939   7.664
 1075POPC   NC316619  41.559  27.605   9.464
 1075POPC   PO416620  41.581  27.566   9.164
 1075POPC   GL116621  41.522  27.584   8.864
 1075POPC   GL216622  41.403  27.591   8.864
 1075POPC   C1A16623  41.541  27.575   8.564
 1075POPC   D2A16624  41.528  27.558   8.264
 1075POPC   C3A16625  41.519  27.612   7.964
 1075POPC   C4A16626  41.588  27.555   7.664
 1075POPC   C1B16627  41.363  27.674   8.564
 1075POPC   C2B16628  41.308  27.673   8.264
 1075POPC   C3B16629  41.284  27.636   7.964
 1075POPC   C4B16630  41.319  27.690   7.664
 1076POPC   NC316631  22.923   8.242   9.464
 1076POPC   PO416632  22.920   8.212   9.164
 1076POPC   GL116633  22.980   8.241   8.864
 1076POPC   GL216634  22.963   8.370   8.864
 1076POPC   C1A16635  22.895   8.176   8.564
 1076POPC   D2A16636  22.987   8.186   8.264
 1076POPC   C3A16637  22.962   8.194   7.964
 1076POPC   C4A16638  22.899   8.214   7.664
 1076POPC   C1B16639  22.960   8.457   8.564
 1076POPC   C2B16640  22.934   8.419   8.264
 1076POPC   C3B16641  22.977   8.440   7.964
 1076POPC   C4B16642  22.990   8.426   7.664
 1077POPC   NC316643  19.057  10.528   9.464
 1077POPC   PO416644  19.100  10.543   9.164
 1077POPC   GL116645  19.039  10.515   8.864
 1077POPC   GL216646  18.907  10.563   8.864
 1077POPC   C1A16647  19.089  10.512   8.564
 1077POPC   D2A16648  19.089  10.549   8.264
 1077POPC   C3A16649  19.080  10.543   7.964
 1077POPC   C4A16650  19.060  10.531   7.664
 1077POPC   C1B16651  18.839  10.621   8.564
 1077POPC   C2B16652  18.800  10.526   8.264
 1077POPC   C3B16653  18.842  10.613   7.964
 1077POPC   C4B16654  18.765  10.536   7.664
 1078POPC   NC316655   9.004  42.339   9.464
 1078POPC   PO416656   9.000  42.328   9.164
 1078POPC   GL116657   8.945  42.305   8.864
 1078POPC   GL216658   8.864  42.373   8.864
 1078POPC   C1A16659   8.927  42.346   8.564
 1078POPC   D2A16660   9.006  42.318   8.264
 1078POPC   C3A16661   8.932  42.318   7.964
 1078POPC   C4A16662   9.001  42.331   7.664
 1078POPC   C1B16663   8.812  42.546   8.564
 1078POPC   C2B16664   8.763  42.497   8.264
 1078POPC   C3B16665   8.750  42.482   7.964
 1078POPC   C4B16666   8.810  42.517   7.664
 1079POPC   NC316667  11.341  34.559   9.464
 1079POPC   PO416668  11.260  34.593   9.164
 1079POPC   GL116669  11.341  34.583   8.864
 1079POPC   GL216670  11.161  34.702   8.864
 1079POPC   C1A16671  11.267  34.533   8.564
 1079POPC   D2A16672  11.323  34.615   8.264
 1079POPC   C3A16673  11.348  34.618   7.964
 1079POPC   C4A16674  11.296  34.600   7.664
 1079POPC   C1B16675  11.104  34.745   8.564
 1079POPC   C2B16676  11.143  34.718   8.264
 1079POPC   C3B16677  11.103  34.707   7.964
 1079POPC   C4B16678  11.077  34.766   7.664
 1080POPC   NC316679  36.861  26.027   9.464
 1080POPC   PO416680  36.897  26.033   9.164
 1080POPC   GL116681  36.901  26.069   8.864
 1080POPC   GL216682  36.866  25.962   8.864
 1080POPC   C1A16683  36.888  26.084   8.564
 1080POPC   D2A16684  36.912  26.077   8.264
 1080POPC   C3A16685  36.899  26.049   7.964
 1080POPC   C4A16686  36.922  26.003   7.664
 1080POPC   C1B16687  36.792  25.828   8.564
 1080POPC   C2B16688  36.809  25.757   8.264
 1080POPC   C3B16689  36.865  25.798   7.964
 1080POPC   C4B16690  36.805  25.809   7.664
 1081POPC   NC316691  12.124   9.725   9.464
 1081POPC   PO416692  12.119   9.703   9.164
 1081POPC   GL116693  12.115   9.778   8.864
 1081POPC   GL216694  12.204   9.804   8.864
 1081POPC   C1A16695  12.058   9.755   8.564
 1081POPC   D2A16696  12.047   9.723   8.264
 1081POPC   C3A16697  12.061   9.707   7.964
 1081POPC   C4A16698  12.092   9.706   7.664
 1081POPC   C1B16699  12.299   9.828   8.564
 1081POPC   C2B16700  12.252   9.843   8.264
 1081POPC   C3B16701  12.312   9.897   7.964
 1081POPC   C4B16702  12.323   9.886   7.664
 1082POPC   NC316703  13.596  29.881   9.464
 1082POPC   PO416704  13.624  29.941   9.164
 1082POPC   GL116705  13.623  29.962   8.864
 1082POPC   GL216706  13.714  30.046   8.864
 1082POPC   C1A16707  13.612  29.875   8.564
 1082POPC   D2A16708  13.625  29.903   8.264
 1082POPC   C3A16709  13.616  29.878   7.964
 1082POPC   C4A16710  13.593  29.959   7.664
 1082POPC   C1B16711  13.794  30.121   8.564
 1082POPC   C2B16712  13.812  30.091   8.264
 1082POPC   C3B16713  13.818  30.106   7.964
 1082POPC   C4B16714  13.787  30.143   7.664
 1083POPC   NC316715  43.880  11.300   9.464
 1083POPC   PO416716  43.919  11.336   9.164
 1083POPC   GL116717  43.864  11.257   8.864
 1083POPC   GL216718  43.811  11.223   8.864
 1083POPC   C1A16719  43.853  11.280   8.564
 1083POPC   D2A16720  43.849  11.287   8.264
 1083POPC   C3A16721  43.925  11.280   7.964
 1083POPC   C4A16722  43.896  11.333   7.664
 1083POPC   C1B16723  43.866  11.066   8.564
 1083POPC   C2B16724  43.845  11.097   8.264
 1083POPC   C3B16725  43.815  11.026   7.964
 1083POPC   C4B16726  43.869  11.060   7.664
 1084POPC   NC316727  33.066   5.908   9.464
 1084POPC   PO416728  33.059   5.824   9.164
 1084POPC   GL116729  33.063   5.914   8.864
 1084POPC   GL216730  33.008   5.713   8.864
 1084POPC   C1A16731  33.072   5.919   8.564
 1084POPC   D2A16732  33.057   5.831   8.264
 1084POPC   C3A16733  32.975   5.846   7.964
 1084POPC   C4A16734  32.985   5.838   7.664
 1084POPC   C1B16735  32.951   5.664   8.564
 1084POPC   C2B16736  32.915   5.646   8.264
 1084POPC   C3B16737  32.968   5.581   7.964
 1084POPC   C4B16738  32.974   5.610   7.664
 1085POPC   NC316739  43.109  23.692   9.464
 1085POPC   PO416740  43.087  23.750   9.164
 1085POPC   GL116741  43.117  23.757   8.864
 1085POPC   GL216742  43.198  23.591   8.864
 1085POPC   C1A16743  43.151  23.702   8.564
 1085POPC   D2A16744  43.121  23.763   8.264
 1085POPC   C3A16745  43.086  23.681   7.964
 1085POPC   C4A16746  43.134  23.745   7.664
 1085POPC   C1B16747  43.271  23.583   8.564
 1085POPC   C2B16748  43.339  23.585   8.264
 1085POPC   C3B16749  43.271  23.495   7.964
 1085POPC   C4B16750  43.270  23.505   7.664
 1086POPC   NC316751  16.771   2.017   9.464
 1086POPC   PO416752  16.717   1.955   9.164
 1086POPC   GL116753  16.755   1.972   8.864
 1086POPC   GL216754  16.689   2.099   8.864
 1086POPC   C1A16755  16.708   2.021   8.564
 1086POPC   D2A16756  16.707   2.001   8.264
 1086POPC   C3A16757  16.778   1.991   7.964
 1086POPC   C4A16758  16.709   1.994   7.664
 1086POPC   C1B16759  16.545   2.164   8.564
 1086POPC   C2B16760  16.606   2.153   8.264
 1086POPC   C3B16761  16.536   2.216   7.964
 1086POPC   C4B16762  16.600   2.212   7.664
 1087POPC   NC316763  22.151  14.426   9.464
 1087POPC   PO416764  22.206  14.372   9.164
 1087POPC   GL116765  22.161  14.421   8.864
 1087POPC   GL216766  22.237  14.279   8.864
 1087POPC   C1A16767  22.124  14.394   8.564
 1087POPC   D2A16768  22.182  14.362   8.264
 1087POPC   C3A16769  22.139  14.440   7.964
 1087POPC   C4A16770  22.121  14.377   7.664
 1087POPC   C1B16771  22.183  14.172   8.564
 1087POPC   C2B16772  22.273  14.156   8.264
 1087POPC   C3B16773  22.247  14.212   7.964
 1087POPC   C4B16774  22.242  14.152   7.664
 1088POPC   NC316775   7.427   9.002   9.464
 1088POPC   PO416776   7.387   9.000   9.164
 1088POPC   GL116777   7.461   8.967   8.864
 1088POPC   GL216778   7.345   9.080   8.864
 1088POPC   C1A16779   7.429   9.017   8.564
 1088POPC   D2A16780   7.427   8.967   8.264
 1088POPC   C3A16781   7.426   8.991   7.964
 1088POPC   C4A16782   7.410   8.973   7.664
 1088POPC   C1B16783   7.302   9.172   8.564
 1088POPC   C2B16784   7.290   9.230   8.264
 1088POPC   C3B16785   7.248   9.212   7.964
 1088POPC   C4B16786   7.287   9.215   7.664
 1089POPC   NC316787  37.692  32.226   9.464
 1089POPC   PO416788  37.704  32.219   9.164
 1089POPC   GL116789  37.684  32.220   8.864
 1089POPC   GL216790  37.799  32.279   8.864
 1089POPC   C1A16791  37.678  32.221   8.564
 1089POPC   D2A16792  37.726  32.206   8.264
 1089POPC   C3A16793  37.720  32.288   7.964
 1089POPC   C4A16794  37.635  32.237   7.664
 1089POPC   C1B16795  37.929  32.240   8.564
 1089POPC   C2B16796  37.973  32.249   8.264
 1089POPC   C3B16797  37.897  32.252   7.964
 1089POPC   C4B16798  37.882  32.200   7.664
 1090POPC   NC316799  21.424  43.855   9.464
 1090POPC   PO416800  21.349  43.926   9.164
 1090POPC   GL116801  21.421  43.841   8.864
 1090POPC   GL216802  21.470  43.987   8.864
 1090POPC   C1A16803  21.341  43.847   8.564
 1090POPC   D2A16804  21.432  43.861   8.264
 1090POPC   C3A16805  21.368  43.871   7.964
 1090POPC   C4A16806  21.388  43.895   7.664
 1090POPC   C1B16807  21.602  44.026   8.564
 1090POPC   C2B16808  21.632  44.011   8.264
 1090POPC   C3B16809  21.579  43.971   7.964
 1090POPC   C4B16810  21.626  43.982   7.664
 1091POPC   NC316811  31.514  38.491   9.464
 1091POPC   PO416812  31.500  38.471   9.164
 1091POPC   GL116813  31.480  38.456   8.864
 1091POPC   GL216814  31.586  38.411   8.864
 1091POPC   C1A16815  31.436  38.499   8.564
 1091POPC   D2A16816  31.489  38.494   8.264
 1091POPC   C3A16817  31.435  38.468   7.964
 1091POPC   C4A16818  31.477  38.407   7.664
 1091POPC   C1B16819  31.702  38.288   8.564
 1091POPC   C2B16820  31.637  38.270   8.264
 1091POPC   C3B16821  31.638  38.338   7.964
 1091POPC   C4B16822  31.625  38.320   7.664
 1092POPC   NC316823   6.686  33.769   9.464
 1092POPC   PO416824   6.692  33.817   9.164
 1092POPC   GL116825   6.622  33.763   8.864
 1092POPC   GL216826   6.588  33.934   8.864
 1092POPC   C1A16827   6.693  33.845   8.564
 1092POPC   D2A16828   6.686  33.845   8.264
 1092POPC   C3A16829   6.654  33.795   7.964
 1092POPC   C4A16830   6.662  33.847   7.664
 1092POPC   C1B16831   6.498  33.996   8.564
 1092POPC   C2B16832   6.484  34.007   8.264
 1092POPC   C3B16833   6.425  34.010   7.964
 1092POPC   C4B16834   6.498  33.937   7.664
 1093POPC   NC316835  22.979  16.004   9.464
 1093POPC   PO416836  22.936  15.910   9.164
 1093POPC   GL116837  22.889  15.913   8.864
 1093POPC   GL216838  23.050  15.942   8.864
 1093POPC   C1A16839  22.924  15.947   8.564
 1093POPC   D2A16840  22.970  15.948   8.264
 1093POPC   C3A16841  22.897  15.936   7.964
 1093POPC   C4A16842  22.960  15.981   7.664
 1093POPC   C1B16843  23.224  15.979   8.564
 1093POPC   C2B16844  23.133  15.985   8.264
 1093POPC   C3B16845  23.152  15.977   7.964
 1093POPC   C4B16846  23.205  16.045   7.664
 1094POPC   NC316847  29.915  32.212   9.464
 1094POPC   PO416848  29.946  32.213   9.164
 1094POPC   GL116849  29.873  32.214   8.864
 1094POPC   GL216850  30.016  32.233   8.864
 1094POPC   C1A16851  29.944  32.212   8.564
 1094POPC   D2A16852  29.908  32.208   8.264
 1094POPC   C3A16853  29.942  32.236   7.964
 1094POPC   C4A16854  29.878  32.229   7.664
 1094POPC   C1B16855  30.149  32.316   8.564
 1094POPC   C2B16856  30.149  32.261   8.264
 1094POPC   C3B16857  30.207  32.298   7.964
 1094POPC   C4B16858  30.176  32.233   7.664
 1095POPC   NC316859  15.961  13.650   9.464
 1095POPC   PO416860  15.917  13.653   9.164
 1095POPC   GL116861  15.981  13.618   8.864
 1095POPC   GL216862  15.927  13.476   8.864
 1095POPC   C1A16863  15.923  13.634   8.564
 1095POPC   D2A16864  15.949  13.654   8.264
 1095POPC   C3A16865  15.965  13.617   7.964
 1095POPC   C4A16866  15.953  13.598   7.664
 1095POPC   C1B16867  15.887  13.389   8.564
 1095POPC   C2B16868  15.877  13.431   8.264
 1095POPC   C3B16869  15.810  13.409   7.964
 1095POPC   C4B16870  15.878  13.426   7.664
 1096POPC   NC316871   4.357  16.769   9.464
 1096POPC   PO416872   4.361  16.729   9.164
 1096POPC   GL116873   4.292  16.729   8.864
 1096POPC   GL216874   4.283  16.815   8.864
 1096POPC   C1A16875   4.306  16.727   8.564
 1096POPC   D2A16876   4.359  16.767   8.264
 1096POPC   C3A16877   4.296  16.682   7.964
 1096POPC   C4A16878   4.276  16.779   7.664
 1096POPC   C1B16879   4.174  16.972   8.564
 1096POPC   C2B16880   4.214  16.973   8.264
 1096POPC   C3B16881   4.163  16.946   7.964
 1096POPC   C4B16882   4.170  16.895   7.664
 1097POPC   NC316883  23.746  12.119   9.464
 1097POPC   PO416884  23.735  12.048   9.164
 1097POPC   GL116885  23.747  12.084   8.864
 1097POPC   GL216886  23.757  11.954   8.864
 1097POPC   C1A16887  23.682  12.033   8.564
 1097POPC   D2A16888  23.689  12.064   8.264
 1097POPC   C3A16889  23.688  12.054   7.964
 1097POPC   C4A16890  23.734  12.052   7.664
 1097POPC   C1B16891  23.739  11.855   8.564
 1097POPC   C2B16892  23.694  11.852   8.264
 1097POPC   C3B16893  23.749  11.846   7.964
 1097POPC   C4B16894  23.745  11.849   7.664
 1098POPC   NC316895  10.509   8.193   9.464
 1098POPC   PO416896  10.534   8.214   9.164
 1098POPC   GL116897  10.486   8.240   8.864
 1098POPC   GL216898  10.377   8.159   8.864
 1098POPC   C1A16899  10.561   8.153   8.564
 1098POPC   D2A16900  10.516   8.217   8.264
 1098POPC   C3A16901  10.535   8.213   7.964
 1098POPC   C4A16902  10.530   8.153   7.664
 1098POPC   C1B16903  10.351   8.016   8.564
 1098POPC   C2B16904  10.314   8.099   8.264
 1098POPC   C3B16905  10.318   8.044   7.964
 1098POPC   C4B16906  10.288   8.040   7.664
 1099POPC   NC316907  37.654  44.636   9.464
 1099POPC   PO416908  37.670  44.677   9.164
 1099POPC   GL116909  37.632  44.706   8.864
 1099POPC   GL216910  37.768  44.556   8.864
 1099POPC   C1A16911  37.659  44.633   8.564
 1099POPC   D2A16912  37.678  44.681   8.264
 1099POPC   C3A16913  37.674  44.685   7.964
 1099POPC   C4A16914  37.681  44.683   7.664
 1099POPC   C1B16915  37.756  44.417   8.564
 1099POPC   C2B16916  37.837  44.482   8.264
 1099POPC   C3B16917  37.832  44.397   7.964
 1099POPC   C4B16918  37.770  44.398   7.664
 1100POPC   NC316919  17.523  42.373   9.464
 1100POPC   PO416920  17.541  42.324   9.164
 1100POPC   GL116921  17.509  42.327   8.864
 1100POPC   GL216922  17.538  42.250   8.864
 1100POPC   C1A16923  17.537  42.345   8.564
 1100POPC   D2A16924  17.523  42.356   8.264
 1100POPC   C3A16925  17.528  42.380   7.964
 1100POPC   C4A16926  17.458  42.296   7.664
 1100POPC   C1B16927  17.574  42.040   8.564
 1100POPC   C2B16928  17.582  42.090   8.264
 1100POPC   C3B16929  17.549  42.113   7.964
 1100POPC   C4B16930  17.548  42.101   7.664
 1101POPC   NC316931  11.296  26.797   9.464
 1101POPC   PO416932  11.278  26.829   9.164
 1101POPC   GL116933  11.257  26.816   8.864
 1101POPC   GL216934  11.171  26.759   8.864
 1101POPC   C1A16935  11.289  26.810   8.564
 1101POPC   D2A16936  11.344  26.845   8.264
 1101POPC   C3A16937  11.307  26.787   7.964
 1101POPC   C4A16938  11.251  26.833   7.664
 1101POPC   C1B16939  11.052  26.824   8.564
 1101POPC   C2B16940  11.101  26.743   8.264
 1101POPC   C3B16941  11.048  26.798   7.964
 1101POPC   C4B16942  11.052  26.798   7.664
 1102POPC   NC316943  17.545   7.405   9.464
 1102POPC   PO416944  17.474   7.427   9.164
 1102POPC   GL116945  17.487   7.376   8.864
 1102POPC   GL216946  17.397   7.505   8.864
 1102POPC   C1A16947  17.505   7.442   8.564
 1102POPC   D2A16948  17.524   7.436   8.264
 1102POPC   C3A16949  17.493   7.468   7.964
 1102POPC   C4A16950  17.515   7.426   7.664
 1102POPC   C1B16951  17.301   7.477   8.564
 1102POPC   C2B16952  17.287   7.474   8.264
 1102POPC   C3B16953  17.276   7.521   7.964
 1102POPC   C4B16954  17.266   7.463   7.664
 1103POPC   NC316955  19.061   5.127   9.464
 1103POPC   PO416956  19.080   5.132   9.164
 1103POPC   GL116957  19.019   5.100   8.864
 1103POPC   GL216958  19.144   5.207   8.864
 1103POPC   C1A16959  19.083   5.045   8.564
 1103POPC   D2A16960  19.015   5.085   8.264
 1103POPC   C3A16961  19.009   5.091   7.964
 1103POPC   C4A16962  19.060   5.121   7.664
 1103POPC   C1B16963  19.219   5.198   8.564
 1103POPC   C2B16964  19.265   5.237   8.264
 1103POPC   C3B16965  19.276   5.229   7.964
 1103POPC   C4B16966  19.216   5.226   7.664
 1104POPC   NC316967  26.050  41.581   9.464
 1104POPC   PO416968  26.073  41.561   9.164
 1104POPC   GL116969  26.072  41.510   8.864
 1104POPC   GL216970  26.068  41.651   8.864
 1104POPC   C1A16971  26.000  41.555   8.564
 1104POPC   D2A16972  26.060  41.517   8.264
 1104POPC   C3A16973  26.049  41.515   7.964
 1104POPC   C4A16974  26.049  41.569   7.664
 1104POPC   C1B16975  26.115  41.760   8.564
 1104POPC   C2B16976  26.105  41.770   8.264
 1104POPC   C3B16977  26.101  41.825   7.964
 1104POPC   C4B16978  26.097  41.822   7.664
 1105POPC   NC316979  18.273  10.486   9.464
 1105POPC   PO416980  18.330  10.552   9.164
 1105POPC   GL116981  18.300  10.557   8.864
 1105POPC   GL216982  18.210  10.394   8.864
 1105POPC   C1A16983  18.237  10.507   8.564
 1105POPC   D2A16984  18.303  10.568   8.264
 1105POPC   C3A16985  18.269  10.510   7.964
 1105POPC   C4A16986  18.293  10.521   7.664
 1105POPC   C1B16987  18.168  10.299   8.564
 1105POPC   C2B16988  18.222  10.288   8.264
 1105POPC   C3B16989  18.228  10.321   7.964
 1105POPC   C4B16990  18.133  10.294   7.664
 1106POPC   NC316991   1.252  22.197   9.464
 1106POPC   PO416992   1.170  22.134   9.164
 1106POPC   GL116993   1.250  22.155   8.864
 1106POPC   GL216994   1.295  22.024   8.864
 1106POPC   C1A16995   1.264  22.157   8.564
 1106POPC   D2A16996   1.244  22.131   8.264
 1106POPC   C3A16997   1.238  22.122   7.964
 1106POPC   C4A16998   1.260  22.184   7.664
 1106POPC   C1B16999   1.270  21.941   8.564
 1106POPC   C2B17000   1.276  21.970   8.264
 1106POPC   C3B17001   1.331  21.908   7.964
 1106POPC   C4B17002   1.318  21.883   7.664
 1107POPC   NC317003  17.470  25.255   9.464
 1107POPC   PO417004  17.546  25.280   9.164
 1107POPC   GL117005  17.477  25.292   8.864
 1107POPC   GL217006  17.579  25.230   8.864
 1107POPC   C1A17007  17.554  25.230   8.564
 1107POPC   D2A17008  17.555  25.309   8.264
 1107POPC   C3A17009  17.533  25.305   7.964
 1107POPC   C4A17010  17.492  25.303   7.664
 1107POPC   C1B17011  17.711  25.234   8.564
 1107POPC   C2B17012  17.718  25.196   8.264
 1107POPC   C3B17013  17.786  25.205   7.964
 1107POPC   C4B17014  17.752  25.173   7.664
 1108POPC   NC317015  40.002  43.096   9.464
 1108POPC   PO417016  39.996  43.098   9.164
 1108POPC   GL117017  40.052  43.124   8.864
 1108POPC   GL217018  40.073  43.045   8.864
 1108POPC   C1A17019  39.980  43.106   8.564
 1108POPC   D2A17020  40.013  43.073   8.264
 1108POPC   C3A17021  39.978  43.101   7.964
 1108POPC   C4A17022  40.009  43.086   7.664
 1108POPC   C1B17023  40.125  42.875   8.564
 1108POPC   C2B17024  40.100  42.909   8.264
 1108POPC   C3B17025  40.113  42.920   7.964
 1108POPC   C4B17026  40.069  42.912   7.664
 1109POPC   NC317027  43.915   5.113   9.464
 1109POPC   PO417028  43.875   5.058   9.164
 1109POPC   GL117029  43.894   5.045   8.864
 1109POPC   GL217030  43.894   4.988   8.864
 1109POPC   C1A17031  43.897   5.053   8.564
 1109POPC   D2A17032  43.839   5.059   8.264
 1109POPC   C3A17033  43.875   5.132   7.964
 1109POPC   C4A17034  43.883   5.133   7.664
 1109POPC   C1B17035  43.857   4.837   8.564
 1109POPC   C2B17036  43.793   4.829   8.264
 1109POPC   C3B17037  43.794   4.888   7.964
 1109POPC   C4B17038  43.776   4.893   7.664
 1110POPC   NC317039  19.803  41.590   9.464
 1110POPC   PO417040  19.805  41.579   9.164
 1110POPC   GL117041  19.863  41.576   8.864
 1110POPC   GL217042  19.931  41.509   8.864
 1110POPC   C1A17043  19.833  41.603   8.564
 1110POPC   D2A17044  19.785  41.529   8.264
 1110POPC   C3A17045  19.831  41.556   7.964
 1110POPC   C4A17046  19.881  41.563   7.664
 1110POPC   C1B17047  20.010  41.404   8.564
 1110POPC   C2B17048  20.006  41.368   8.264
 1110POPC   C3B17049  20.020  41.432   7.964
 1110POPC   C4B17050  19.978  41.390   7.664
 1111POPC   NC317051   8.242  14.406   9.464
 1111POPC   PO417052   8.184  14.451   9.164
 1111POPC   GL117053   8.179  14.449   8.864
 1111POPC   GL217054   8.139  14.349   8.864
 1111POPC   C1A17055   8.184  14.442   8.564
 1111POPC   D2A17056   8.175  14.407   8.264
 1111POPC   C3A17057   8.203  14.355   7.964
 1111POPC   C4A17058   8.217  14.363   7.664
 1111POPC   C1B17059   7.987  14.180   8.564
 1111POPC   C2B17060   8.037  14.209   8.264
 1111POPC   C3B17061   8.022  14.228   7.964
 1111POPC   C4B17062   8.044  14.236   7.664
 1112POPC   NC317063  19.086  18.278   9.464
 1112POPC   PO417064  19.086  18.273   9.164
 1112POPC   GL117065  19.047  18.238   8.864
 1112POPC   GL217066  18.893  18.250   8.864
 1112POPC   C1A17067  19.109  18.282   8.564
 1112POPC   D2A17068  19.045  18.277   8.264
 1112POPC   C3A17069  19.047  18.309   7.964
 1112POPC   C4A17070  19.082  18.257   7.664
 1112POPC   C1B17071  18.829  18.319   8.564
 1112POPC   C2B17072  18.771  18.292   8.264
 1112POPC   C3B17073  18.852  18.239   7.964
 1112POPC   C4B17074  18.821  18.265   7.664
 1113POPC   NC317075  19.838  17.472   9.464
 1113POPC   PO417076  19.800  17.479   9.164
 1113POPC   GL117077  19.854  17.553   8.864
 1113POPC   GL217078  19.747  17.398   8.864
 1113POPC   C1A17079  19.812  17.551   8.564
 1113POPC   D2A17080  19.793  17.535   8.264
 1113POPC   C3A17081  19.804  17.511   7.964
 1113POPC   C4A17082  19.848  17.553   7.664
 1113POPC   C1B17083  19.634  17.369   8.564
 1113POPC   C2B17084  19.623  17.376   8.264
 1113POPC   C3B17085  19.650  17.316   7.964
 1113POPC   C4B17086  19.696  17.383   7.664
 1114POPC   NC317087  27.641   2.025   9.464
 1114POPC   PO417088  27.574   1.989   9.164
 1114POPC   GL117089  27.587   1.965   8.864
 1114POPC   GL217090  27.490   2.112   8.864
 1114POPC   C1A17091  27.638   2.018   8.564
 1114POPC   D2A17092  27.634   1.951   8.264
 1114POPC   C3A17093  27.586   1.945   7.964
 1114POPC   C4A17094  27.618   2.014   7.664
 1114POPC   C1B17095  27.510   2.215   8.564
 1114POPC   C2B17096  27.471   2.196   8.264
 1114POPC   C3B17097  27.471   2.172   7.964
 1114POPC   C4B17098  27.479   2.232   7.664
 1115POPC   NC317099  17.471  30.653   9.464
 1115POPC   PO417100  17.550  30.648   9.164
 1115POPC   GL117101  17.548  30.718   8.864
 1115POPC   GL217102  17.441  30.666   8.864
 1115POPC   C1A17103  17.491  30.741   8.564
 1115POPC   D2A17104  17.488  30.687   8.264
 1115POPC   C3A17105  17.463  30.667   7.964
 1115POPC   C4A17106  17.467  30.680   7.664
 1115POPC   C1B17107  17.269  30.500   8.564
 1115POPC   C2B17108  17.319  30.585   8.264
 1115POPC   C3B17109  17.285  30.577   7.964
 1115POPC   C4B17110  17.343  30.503   7.664
 1116POPC   NC317111   7.463  21.358   9.464
 1116POPC   PO417112   7.448  21.419   9.164
 1116POPC   GL117113   7.451  21.418   8.864
 1116POPC   GL217114   7.295  21.329   8.864
 1116POPC   C1A17115   7.414  21.423   8.564
 1116POPC   D2A17116   7.467  21.395   8.264
 1116POPC   C3A17117   7.387  21.421   7.964
 1116POPC   C4A17118   7.378  21.360   7.664
 1116POPC   C1B17119   7.158  21.294   8.564
 1116POPC   C2B17120   7.189  21.272   8.264
 1116POPC   C3B17121   7.142  21.272   7.964
 1116POPC   C4B17122   7.147  21.340   7.664
 1117POPC   NC317123  43.151  31.468   9.464
 1117POPC   PO417124  43.113  31.443   9.164
 1117POPC   GL117125  43.100  31.459   8.864
 1117POPC   GL217126  43.268  31.479   8.864
 1117POPC   C1A17127  43.118  31.461   8.564
 1117POPC   D2A17128  43.102  31.505   8.264
 1117POPC   C3A17129  43.094  31.456   7.964
 1117POPC   C4A17130  43.084  31.509   7.664
 1117POPC   C1B17131  43.355  31.544   8.564
 1117POPC   C2B17132  43.348  31.612   8.264
 1117POPC   C3B17133  43.353  31.541   7.964
 1117POPC   C4B17134  43.380  31.612   7.664
 1118POPC   NC317135  44.631  39.189   9.464
 1118POPC   PO417136  44.661  39.253   9.164
 1118POPC   GL117137  44.660  39.183   8.864
 1118POPC   GL217138  44.764  39.129   8.864
 1118POPC   C1A17139  44.698  39.258   8.564
 1118POPC   D2A17140  44.647  39.249   8.264
 1118POPC   C3A17141  44.617  39.240   7.964
 1118POPC   C4A17142  44.679  39.269   7.664
 1118POPC   C1B17143  44.787  39.043   8.564
 1118POPC   C2B17144  44.771  39.073   8.264
 1118POPC   C3B17145  44.773  39.064   7.964
 1118POPC   C4B17146  44.774  38.982   7.664
 1119POPC   NC317147  15.202   7.469   9.464
 1119POPC   PO417148  15.209   7.422   9.164
 1119POPC   GL117149  15.141   7.390   8.864
 1119POPC   GL217150  15.036   7.439   8.864
 1119POPC   C1A17151  15.216   7.466   8.564
 1119POPC   D2A17152  15.205   7.437   8.264
 1119POPC   C3A17153  15.165   7.463   7.964
 1119POPC   C4A17154  15.159   7.381   7.664
 1119POPC   C1B17155  14.904   7.518   8.564
 1119POPC   C2B17156  14.898   7.497   8.264
 1119POPC   C3B17157  14.934   7.524   7.964
 1119POPC   C4B17158  14.989   7.515   7.664
 1120POPC   NC317159   8.943  14.435   9.464
 1120POPC   PO417160   8.931  14.384   9.164
 1120POPC   GL117161   8.956  14.388   8.864
 1120POPC   GL217162   9.097  14.300   8.864
 1120POPC   C1A17163   9.011  14.453   8.564
 1120POPC   D2A17164   8.971  14.423   8.264
 1120POPC   C3A17165   8.976  14.405   7.964
 1120POPC   C4A17166   8.943  14.445   7.664
 1120POPC   C1B17167   9.168  14.220   8.564
 1120POPC   C2B17168   9.085  14.189   8.264
 1120POPC   C3B17169   9.168  14.168   7.964
 1120POPC   C4B17170   9.145  14.233   7.664
 1121POPC   NC317171   1.233  23.740   9.464
 1121POPC   PO417172   1.243  23.686   9.164
 1121POPC   GL117173   1.209  23.679   8.864
 1121POPC   GL217174   1.332  23.800   8.864
 1121POPC   C1A17175   1.169  23.740   8.564
 1121POPC   D2A17176   1.229  23.714   8.264
 1121POPC   C3A17177   1.239  23.716   7.964
 1121POPC   C4A17178   1.204  23.687   7.664
 1121POPC   C1B17179   1.375  23.908   8.564
 1121POPC   C2B17180   1.366  23.929   8.264
 1121POPC   C3B17181   1.343  23.915   7.964
 1121POPC   C4B17182   1.401  23.899   7.664
 1122POPC   NC317183   5.870  15.955   9.464
 1122POPC   PO417184   5.912  15.973   9.164
 1122POPC   GL117185   5.919  15.950   8.864
 1122POPC   GL217186   5.934  15.944   8.864
 1122POPC   C1A17187   5.841  15.986   8.564
 1122POPC   D2A17188   5.913  16.000   8.264
 1122POPC   C3A17189   5.829  15.982   7.964
 1122POPC   C4A17190   5.819  15.984   7.664
 1122POPC   C1B17191   6.083  15.863   8.564
 1122POPC   C2B17192   6.071  15.872   8.264
 1122POPC   C3B17193   6.074  15.789   7.964
 1122POPC   C4B17194   6.108  15.832   7.664
 1123POPC   NC317195  29.131  17.534   9.464
 1123POPC   PO417196  29.131  17.535   9.164
 1123POPC   GL117197  29.109  17.543   8.864
 1123POPC   GL217198  29.061  17.440   8.864
 1123POPC   C1A17199  29.126  17.535   8.564
 1123POPC   D2A17200  29.096  17.504   8.264
 1123POPC   C3A17201  29.127  17.539   7.964
 1123POPC   C4A17202  29.122  17.510   7.664
 1123POPC   C1B17203  28.932  17.297   8.564
 1123POPC   C2B17204  28.999  17.387   8.264
 1123POPC   C3B17205  29.001  17.298   7.964
 1123POPC   C4B17206  28.913  17.351   7.664
 1124POPC   NC317207  23.704   1.168   9.464
 1124POPC   PO417208  23.704   1.225   9.164
 1124POPC   GL117209  23.748   1.237   8.864
 1124POPC   GL217210  23.851   1.187   8.864
 1124POPC   C1A17211  23.758   1.243   8.564
 1124POPC   D2A17212  23.732   1.208   8.264
 1124POPC   C3A17213  23.742   1.178   7.964
 1124POPC   C4A17214  23.709   1.182   7.664
 1124POPC   C1B17215  23.897   1.086   8.564
 1124POPC   C2B17216  23.992   1.088   8.264
 1124POPC   C3B17217  23.988   1.149   7.964
 1124POPC   C4B17218  23.972   1.122   7.664
 1125POPC   NC317219  43.897   8.224   9.464
 1125POPC   PO417220  43.908   8.168   9.164
 1125POPC   GL117221  43.890   8.215   8.864
 1125POPC   GL217222  44.029   8.267   8.864
 1125POPC   C1A17223  43.920   8.190   8.564
 1125POPC   D2A17224  43.921   8.172   8.264
 1125POPC   C3A17225  43.934   8.209   7.964
 1125POPC   C4A17226  43.917   8.235   7.664
 1125POPC   C1B17227  44.132   8.269   8.564
 1125POPC   C2B17228  44.138   8.315   8.264
 1125POPC   C3B17229  44.109   8.343   7.964
 1125POPC   C4B17230  44.084   8.336   7.664
 1126POPC   NC317231  35.307  16.682   9.464
 1126POPC   PO417232  35.382  16.689   9.164
 1126POPC   GL117233  35.310  16.740   8.864
 1126POPC   GL217234  35.331  16.863   8.864
 1126POPC   C1A17235  35.305  16.705   8.564
 1126POPC   D2A17236  35.330  16.759   8.264
 1126POPC   C3A17237  35.398  16.773   7.964
 1126POPC   C4A17238  35.331  16.772   7.664
 1126POPC   C1B17239  35.358  16.938   8.564
 1126POPC   C2B17240  35.325  16.970   8.264
 1126POPC   C3B17241  35.328  16.937   7.964
 1126POPC   C4B17242  35.375  16.951   7.664
 1127POPC   NC317243  11.337  43.846   9.464
 1127POPC   PO417244  11.333  43.846   9.164
 1127POPC   GL117245  11.328  43.860   8.864
 1127POPC   GL217246  11.354  43.794   8.864
 1127POPC   C1A17247  11.348  43.924   8.564
 1127POPC   D2A17248  11.307  43.869   8.264
 1127POPC   C3A17249  11.326  43.903   7.964
 1127POPC   C4A17250  11.262  43.860   7.664
 1127POPC   C1B17251  11.363  43.657   8.564
 1127POPC   C2B17252  11.383  43.670   8.264
 1127POPC   C3B17253  11.349  43.635   7.964
 1127POPC   C4B17254  11.370  43.595   7.664
 1128POPC   NC317255   6.630  42.363   9.464
 1128POPC   PO417256   6.643  42.311   9.164
 1128POPC   GL117257   6.671  42.378   8.864
 1128POPC   GL217258   6.690  42.433   8.864
 1128POPC   C1A17259   6.681  42.287   8.564
 1128POPC   D2A17260   6.637  42.327   8.264
 1128POPC   C3A17261   6.619  42.310   7.964
 1128POPC   C4A17262   6.630  42.382   7.664
 1128POPC   C1B17263   6.769  42.599   8.564
 1128POPC   C2B17264   6.741  42.529   8.264
 1128POPC   C3B17265   6.708  42.550   7.964
 1128POPC   C4B17266   6.776  42.617   7.664
 1129POPC   NC317267  36.860   2.777   9.464
 1129POPC   PO417268  36.859   2.771   9.164
 1129POPC   GL117269  36.860   2.760   8.864
 1129POPC   GL217270  36.996   2.704   8.864
 1129POPC   C1A17271  36.873   2.807   8.564
 1129POPC   D2A17272  36.861   2.813   8.264
 1129POPC   C3A17273  36.899   2.780   7.964
 1129POPC   C4A17274  36.871   2.729   7.664
 1129POPC   C1B17275  37.126   2.716   8.564
 1129POPC   C2B17276  37.110   2.707   8.264
 1129POPC   C3B17277  37.149   2.753   7.964
 1129POPC   C4B17278  37.133   2.745   7.664
 1130POPC   NC317279   8.159  37.666   9.464
 1130POPC   PO417280   8.181  37.645   9.164
 1130POPC   GL117281   8.218  37.659   8.864
 1130POPC   GL217282   8.328  37.599   8.864
 1130POPC   C1A17283   8.183  37.683   8.564
 1130POPC   D2A17284   8.212  37.669   8.264
 1130POPC   C3A17285   8.170  37.674   7.964
 1130POPC   C4A17286   8.171  37.686   7.664
 1130POPC   C1B17287   8.428  37.590   8.564
 1130POPC   C2B17288   8.450  37.632   8.264
 1130POPC   C3B17289   8.394  37.578   7.964
 1130POPC   C4B17290   8.463  37.583   7.664
 1131POPC   NC317291  15.130   4.363   9.464
 1131POPC   PO417292  15.153   4.327   9.164
 1131POPC   GL117293  15.131   4.305   8.864
 1131POPC   GL217294  15.342   4.276   8.864
 1131POPC   C1A17295  15.194   4.366   8.564
 1131POPC   D2A17296  15.159   4.296   8.264
 1131POPC   C3A17297  15.207   4.285   7.964
 1131POPC   C4A17298  15.138   4.322   7.664
 1131POPC   C1B17299  15.468   4.223   8.564
 1131POPC   C2B17300  15.461   4.230   8.264
 1131POPC   C3B17301  15.396   4.268   7.964
 1131POPC   C4B17302  15.446   4.238   7.664
 1132POPC   NC317303   4.319  33.070   9.464
 1132POPC   PO417304   4.361  33.033   9.164
 1132POPC   GL117305   4.363  33.041   8.864
 1132POPC   GL217306   4.165  33.014   8.864
 1132POPC   C1A17307   4.316  33.042   8.564
 1132POPC   D2A17308   4.311  33.034   8.264
 1132POPC   C3A17309   4.356  33.027   7.964
 1132POPC   C4A17310   4.320  33.073   7.664
 1132POPC   C1B17311   4.080  32.985   8.564
 1132POPC   C2B17312   4.106  33.007   8.264
 1132POPC   C3B17313   4.062  33.034   7.964
 1132POPC   C4B17314   4.033  33.040   7.664
 1133POPC   NC317315  32.981  24.536   9.464
 1133POPC   PO417316  33.020  24.531   9.164
 1133POPC   GL117317  32.975  24.515   8.864
 1133POPC   GL217318  33.166  24.514   8.864
 1133POPC   C1A17319  33.068  24.482   8.564
 1133POPC   D2A17320  33.054  24.535   8.264
 1133POPC   C3A17321  33.031  24.502   7.964
 1133POPC   C4A17322  33.070  24.442   7.664
 1133POPC   C1B17323  33.262  24.533   8.564
 1133POPC   C2B17324  33.270  24.530   8.264
 1133POPC   C3B17325  33.233  24.557   7.964
 1133POPC   C4B17326  33.212  24.585   7.664
 1134POPC   NC317327  21.364  42.301   9.464
 1134POPC   PO417328  21.371  42.382   9.164
 1134POPC   GL117329  21.367  42.292   8.864
 1134POPC   GL217330  21.456  42.413   8.864
 1134POPC   C1A17331  21.422  42.367   8.564
 1134POPC   D2A17332  21.342  42.312   8.264
 1134POPC   C3A17333  21.389  42.314   7.964
 1134POPC   C4A17334  21.354  42.297   7.664
 1134POPC   C1B17335  21.618  42.448   8.564
 1134POPC   C2B17336  21.627  42.418   8.264
 1134POPC   C3B17337  21.613  42.409   7.964
 1134POPC   C4B17338  21.568  42.396   7.664
 1135POPC   NC317339  17.472  15.929   9.464
 1135POPC   PO417340  17.494  15.931   9.164
 1135POPC   GL117341  17.462  15.984   8.864
 1135POPC   GL217342  17.506  15.815   8.864
 1135POPC   C1A17343  17.519  15.971   8.564
 1135POPC   D2A17344  17.532  15.973   8.264
 1135POPC   C3A17345  17.490  15.930   7.964
 1135POPC   C4A17346  17.551  15.989   7.664
 1135POPC   C1B17347  17.395  15.745   8.564
 1135POPC   C2B17348  17.381  15.701   8.264
 1135POPC   C3B17349  17.470  15.678   7.964
 1135POPC   C4B17350  17.440  15.703   7.664
 1136POPC   NC317351  29.943  19.040   9.464
 1136POPC   PO417352  29.923  19.076   9.164
 1136POPC   GL117353  29.888  19.105   8.864
 1136POPC   GL217354  29.819  19.134   8.864
 1136POPC   C1A17355  29.952  19.077   8.564
 1136POPC   D2A17356  29.937  19.095   8.264
 1136POPC   C3A17357  29.876  19.106   7.964
 1136POPC   C4A17358  29.930  19.045   7.664
 1136POPC   C1B17359  29.730  19.213   8.564
 1136POPC   C2B17360  29.744  19.238   8.264
 1136POPC   C3B17361  29.766  19.247   7.964
 1136POPC   C4B17362  29.679  19.179   7.664
 1137POPC   NC317363   4.351   7.371   9.464
 1137POPC   PO417364   4.353   7.404   9.164
 1137POPC   GL117365   4.290   7.399   8.864
 1137POPC   GL217366   4.286   7.318   8.864
 1137POPC   C1A17367   4.330   7.409   8.564
 1137POPC   D2A17368   4.347   7.407   8.264
 1137POPC   C3A17369   4.321   7.457   7.964
 1137POPC   C4A17370   4.327   7.428   7.664
 1137POPC   C1B17371   4.320   7.197   8.564
 1137POPC   C2B17372   4.310   7.212   8.264
 1137POPC   C3B17373   4.307   7.137   7.964
 1137POPC   C4B17374   4.329   7.192   7.664
 1138POPC   NC317375   7.440  22.971   9.464
 1138POPC   PO417376   7.455  22.937   9.164
 1138POPC   GL117377   7.425  22.941   8.864
 1138POPC   GL217378   7.572  23.016   8.864
 1138POPC   C1A17379   7.376  22.961   8.564
 1138POPC   D2A17380   7.467  22.911   8.264
 1138POPC   C3A17381   7.462  22.916   7.964
 1138POPC   C4A17382   7.463  22.980   7.664
 1138POPC   C1B17383   7.636  23.029   8.564
 1138POPC   C2B17384   7.624  23.079   8.264
 1138POPC   C3B17385   7.602  23.038   7.964
 1138POPC   C4B17386   7.633  23.054   7.664
 1139POPC   NC317387  37.712  19.795   9.464
 1139POPC   PO417388  37.693  19.801   9.164
 1139POPC   GL117389  37.648  19.860   8.864
 1139POPC   GL217390  37.813  19.755   8.864
 1139POPC   C1A17391  37.719  19.810   8.564
 1139POPC   D2A17392  37.669  19.866   8.264
 1139POPC   C3A17393  37.697  19.805   7.964
 1139POPC   C4A17394  37.712  19.810   7.664
 1139POPC   C1B17395  37.883  19.716   8.564
 1139POPC   C2B17396  37.891  19.756   8.264
 1139POPC   C3B17397  37.919  19.707   7.964
 1139POPC   C4B17398  37.924  19.763   7.664
 1140POPC   NC317399  43.863  41.538   9.464
 1140POPC   PO417400  43.854  41.606   9.164
 1140POPC   GL117401  43.901  41.561   8.864
 1140POPC   GL217402  43.975  41.536   8.864
 1140POPC   C1A17403  43.925  41.591   8.564
 1140POPC   D2A17404  43.901  41.532   8.264
 1140POPC   C3A17405  43.907  41.542   7.964
 1140POPC   C4A17406  43.924  41.544   7.664
 1140POPC   C1B17407  44.124  41.413   8.564
 1140POPC   C2B17408  44.150  41.391   8.264
 1140POPC   C3B17409  44.141  41.408   7.964
 1140POPC   C4B17410  44.071  41.394   7.664
 1141POPC   NC317411  17.486  19.805   9.464
 1141POPC   PO417412  17.554  19.789   9.164
 1141POPC   GL117413  17.511  19.816   8.864
 1141POPC   GL217414  17.500  19.924   8.864
 1141POPC   C1A17415  17.526  19.879   8.564
 1141POPC   D2A17416  17.544  19.826   8.264
 1141POPC   C3A17417  17.500  19.873   7.964
 1141POPC   C4A17418  17.501  19.810   7.664
 1141POPC   C1B17419  17.415  20.044   8.564
 1141POPC   C2B17420  17.361  20.035   8.264
 1141POPC   C3B17421  17.432  20.102   7.964
 1141POPC   C4B17422  17.380  20.039   7.664
 1142POPC   NC317423  15.907   2.015   9.464
 1142POPC   PO417424  15.999   2.002   9.164
 1142POPC   GL117425  15.984   1.984   8.864
 1142POPC   GL217426  15.783   2.000   8.864
 1142POPC   C1A17427  15.961   1.959   8.564
 1142POPC   D2A17428  15.943   1.995   8.264
 1142POPC   C3A17429  15.938   1.996   7.964
 1142POPC   C4A17430  15.998   2.011   7.664
 1142POPC   C1B17431  15.666   1.981   8.564
 1142POPC   C2B17432  15.734   1.990   8.264
 1142POPC   C3B17433  15.696   1.967   7.964
 1142POPC   C4B17434  15.746   1.994   7.664
 1143POPC   NC317435  34.617  12.881   9.464
 1143POPC   PO417436  34.526  12.849   9.164
 1143POPC   GL117437  34.593  12.809   8.864
 1143POPC   GL217438  34.538  12.938   8.864
 1143POPC   C1A17439  34.554  12.861   8.564
 1143POPC   D2A17440  34.602  12.836   8.264
 1143POPC   C3A17441  34.541  12.849   7.964
 1143POPC   C4A17442  34.560  12.828   7.664
 1143POPC   C1B17443  34.503  13.114   8.564
 1143POPC   C2B17444  34.448  13.061   8.264
 1143POPC   C3B17445  34.476  13.093   7.964
 1143POPC   C4B17446  34.493  13.100   7.664
 1144POPC   NC317447  27.560   6.672   9.464
 1144POPC   PO417448  27.635   6.627   9.164
 1144POPC   GL117449  27.620   6.685   8.864
 1144POPC   GL217450  27.602   6.766   8.864
 1144POPC   C1A17451  27.570   6.669   8.564
 1144POPC   D2A17452  27.601   6.626   8.264
 1144POPC   C3A17453  27.613   6.633   7.964
 1144POPC   C4A17454  27.585   6.661   7.664
 1144POPC   C1B17455  27.524   6.898   8.564
 1144POPC   C2B17456  27.547   6.866   8.264
 1144POPC   C3B17457  27.540   6.920   7.964
 1144POPC   C4B17458  27.519   6.928   7.664
 1145POPC   NC317459  36.893  15.151   9.464
 1145POPC   PO417460  36.860  15.170   9.164
 1145POPC   GL117461  36.926  15.167   8.864
 1145POPC   GL217462  36.960  15.070   8.864
 1145POPC   C1A17463  36.892  15.207   8.564
 1145POPC   D2A17464  36.890  15.203   8.264
 1145POPC   C3A17465  36.867  15.150   7.964
 1145POPC   C4A17466  36.931  15.159   7.664
 1145POPC   C1B17467  37.138  15.039   8.564
 1145POPC   C2B17468  37.115  15.042   8.264
 1145POPC   C3B17469  37.109  15.068   7.964
 1145POPC   C4B17470  37.128  15.014   7.664
 1146POPC   NC317471  19.843  34.593   9.464
 1146POPC   PO417472  19.819  34.543   9.164
 1146POPC   GL117473  19.789  34.555   8.864
 1146POPC   GL217474  19.940  34.713   8.864
 1146POPC   C1A17475  19.872  34.601   8.564
 1146POPC   D2A17476  19.815  34.545   8.264
 1146POPC   C3A17477  19.833  34.543   7.964
 1146POPC   C4A17478  19.799  34.549   7.664
 1146POPC   C1B17479  19.998  34.785   8.564
 1146POPC   C2B17480  19.980  34.780   8.264
 1146POPC   C3B17481  20.041  34.814   7.964
 1146POPC   C4B17482  20.035  34.790   7.664
 1147POPC   NC317483  26.810  44.661   9.464
 1147POPC   PO417484  26.805  44.683   9.164
 1147POPC   GL117485  26.795  44.666   8.864
 1147POPC   GL217486  26.868  44.741   8.864
 1147POPC   C1A17487  26.780  44.651   8.564
 1147POPC   D2A17488  26.831  44.681   8.264
 1147POPC   C3A17489  26.793  44.629   7.964
 1147POPC   C4A17490  26.811  44.641   7.664
 1147POPC   C1B17491  26.994  44.917   8.564
 1147POPC   C2B17492  26.910  44.870   8.264
 1147POPC   C3B17493  26.926  44.865   7.964
 1147POPC   C4B17494  26.927  44.864   7.664
 1148POPC   NC317495   1.966  34.593   9.464
 1148POPC   PO417496   2.002  34.529   9.164
 1148POPC   GL117497   2.008  34.604   8.864
 1148POPC   GL217498   1.946  34.672   8.864
 1148POPC   C1A17499   2.038  34.547   8.564
 1148POPC   D2A17500   1.946  34.556   8.264
 1148POPC   C3A17501   2.028  34.544   7.964
 1148POPC   C4A17502   2.012  34.570   7.664
 1148POPC   C1B17503   1.992  34.841   8.564
 1148POPC   C2B17504   1.978  34.855   8.264
 1148POPC   C3B17505   1.970  34.826   7.964
 1148POPC   C4B17506   2.003  34.866   7.664
 1149POPC   NC317507  29.115  31.501   9.464
 1149POPC   PO417508  29.119  31.462   9.164
 1149POPC   GL117509  29.167  31.447   8.864
 1149POPC   GL217510  29.248  31.456   8.864
 1149POPC   C1A17511  29.109  31.514   8.564
 1149POPC   D2A17512  29.116  31.461   8.264
 1149POPC   C3A17513  29.108  31.433   7.964
 1149POPC   C4A17514  29.182  31.460   7.664
 1149POPC   C1B17515  29.329  31.320   8.564
 1149POPC   C2B17516  29.330  31.352   8.264
 1149POPC   C3B17517  29.367  31.390   7.964
 1149POPC   C4B17518  29.409  31.344   7.664
 1150POPC   NC317519  19.089   8.936   9.464
 1150POPC   PO417520  19.065   8.986   9.164
 1150POPC   GL117521  19.103   8.946   8.864
 1150POPC   GL217522  19.146   9.032   8.864
 1150POPC   C1A17523  19.041   9.013   8.564
 1150POPC   D2A17524  19.061   9.002   8.264
 1150POPC   C3A17525  19.061   8.930   7.964
 1150POPC   C4A17526  19.024   8.974   7.664
 1150POPC   C1B17527  19.220   9.140   8.564
 1150POPC   C2B17528  19.249   9.127   8.264
 1150POPC   C3B17529  19.273   9.149   7.964
 1150POPC   C4B17530  19.242   9.148   7.664
 1151POPC   NC317531   3.546   7.459   9.464
 1151POPC   PO417532   3.545   7.407   9.164
 1151POPC   GL117533   3.502   7.380   8.864
 1151POPC   GL217534   3.642   7.538   8.864
 1151POPC   C1A17535   3.568   7.413   8.564
 1151POPC   D2A17536   3.498   7.456   8.264
 1151POPC   C3A17537   3.506   7.441   7.964
 1151POPC   C4A17538   3.496   7.459   7.664
 1151POPC   C1B17539   3.658   7.591   8.564
 1151POPC   C2B17540   3.707   7.629   8.264
 1151POPC   C3B17541   3.675   7.598   7.964
 1151POPC   C4B17542   3.728   7.668   7.664
 1152POPC   NC317543  36.146  36.144   9.464
 1152POPC   PO417544  36.120  36.122   9.164
 1152POPC   GL117545  36.088  36.150   8.864
 1152POPC   GL217546  36.116  36.225   8.864
 1152POPC   C1A17547  36.146  36.082   8.564
 1152POPC   D2A17548  36.131  36.154   8.264
 1152POPC   C3A17549  36.118  36.115   7.964
 1152POPC   C4A17550  36.122  36.138   7.664
 1152POPC   C1B17551  36.110  36.395   8.564
 1152POPC   C2B17552  36.080  36.326   8.264
 1152POPC   C3B17553  36.093  36.380   7.964
 1152POPC   C4B17554  36.061  36.338   7.664
 1153POPC   NC317555  16.749  30.738   9.464
 1153POPC   PO417556  16.773  30.696   9.164
 1153POPC   GL117557  16.728  30.707   8.864
 1153POPC   GL217558  16.773  30.580   8.864
 1153POPC   C1A17559  16.759  30.719   8.564
 1153POPC   D2A17560  16.703  30.647   8.264
 1153POPC   C3A17561  16.720  30.661   7.964
 1153POPC   C4A17562  16.718  30.708   7.664
 1153POPC   C1B17563  16.815  30.472   8.564
 1153POPC   C2B17564  16.848  30.484   8.264
 1153POPC   C3B17565  16.873  30.439   7.964
 1153POPC   C4B17566  16.819  30.449   7.664
 1154POPC   NC317567  26.825  41.550   9.464
 1154POPC   PO417568  26.802  41.539   9.164
 1154POPC   GL117569  26.851  41.531   8.864
 1154POPC   GL217570  26.875  41.457   8.864
 1154POPC   C1A17571  26.769  41.581   8.564
 1154POPC   D2A17572  26.808  41.589   8.264
 1154POPC   C3A17573  26.842  41.591   7.964
 1154POPC   C4A17574  26.803  41.527   7.664
 1154POPC   C1B17575  26.992  41.347   8.564
 1154POPC   C2B17576  27.008  41.323   8.264
 1154POPC   C3B17577  26.989  41.362   7.964
 1154POPC   C4B17578  26.973  41.382   7.664
 1155POPC   NC317579  33.039  15.184   9.464
 1155POPC   PO417580  32.982  15.154   9.164
 1155POPC   GL117581  33.042  15.184   8.864
 1155POPC   GL217582  33.021  15.281   8.864
 1155POPC   C1A17583  33.066  15.177   8.564
 1155POPC   D2A17584  33.010  15.222   8.264
 1155POPC   C3A17585  32.997  15.204   7.964
 1155POPC   C4A17586  33.014  15.192   7.664
 1155POPC   C1B17587  32.924  15.446   8.564
 1155POPC   C2B17588  32.983  15.449   8.264
 1155POPC   C3B17589  32.974  15.405   7.964
 1155POPC   C4B17590  32.935  15.413   7.664
 1156POPC   NC317591  32.994   1.227   9.464
 1156POPC   PO417592  33.060   1.231   9.164
 1156POPC   GL117593  33.064   1.217   8.864
 1156POPC   GL217594  32.997   1.320   8.864
 1156POPC   C1A17595  33.014   1.218   8.564
 1156POPC   D2A17596  33.010   1.240   8.264
 1156POPC   C3A17597  32.987   1.225   7.964
 1156POPC   C4A17598  32.986   1.262   7.664
 1156POPC   C1B17599  32.957   1.479   8.564
 1156POPC   C2B17600  33.032   1.446   8.264
 1156POPC   C3B17601  33.027   1.465   7.964
 1156POPC   C4B17602  32.974   1.498   7.664
 1157POPC   NC317603  15.940  30.686   9.464
 1157POPC   PO417604  15.991  30.686   9.164
 1157POPC   GL117605  15.933  30.737   8.864
 1157POPC   GL217606  16.106  30.656   8.864
 1157POPC   C1A17607  15.989  30.736   8.564
 1157POPC   D2A17608  15.957  30.694   8.264
 1157POPC   C3A17609  15.964  30.740   7.964
 1157POPC   C4A17610  15.993  30.662   7.664
 1157POPC   C1B17611  16.183  30.639   8.564
 1157POPC   C2B17612  16.219  30.599   8.264
 1157POPC   C3B17613  16.221  30.589   7.964
 1157POPC   C4B17614  16.151  30.559   7.664
 1158POPC   NC317615  38.460  13.616   9.464
 1158POPC   PO417616  38.432  13.634   9.164
 1158POPC   GL117617  38.417  13.587   8.864
 1158POPC   GL217618  38.326  13.589   8.864
 1158POPC   C1A17619  38.502  13.602   8.564
 1158POPC   D2A17620  38.406  13.637   8.264
 1158POPC   C3A17621  38.489  13.578   7.964
 1158POPC   C4A17622  38.484  13.590   7.664
 1158POPC   C1B17623  38.265  13.545   8.564
 1158POPC   C2B17624  38.253  13.476   8.264
 1158POPC   C3B17625  38.224  13.561   7.964
 1158POPC   C4B17626  38.266  13.499   7.664
 1159POPC   NC317627  26.003   6.687   9.464
 1159POPC   PO417628  26.077   6.659   9.164
 1159POPC   GL117629  26.079   6.619   8.864
 1159POPC   GL217630  25.912   6.653   8.864
 1159POPC   C1A17631  26.029   6.629   8.564
 1159POPC   D2A17632  26.003   6.656   8.264
 1159POPC   C3A17633  26.035   6.604   7.964
 1159POPC   C4A17634  26.029   6.619   7.664
 1159POPC   C1B17635  25.755   6.596   8.564
 1159POPC   C2B17636  25.760   6.612   8.264
 1159POPC   C3B17637  25.805   6.595   7.964
 1159POPC   C4B17638  25.772   6.541   7.664
 1160POPC   NC317639  43.110   0.484   9.464
 1160POPC   PO417640  43.076   0.445   9.164
 1160POPC   GL117641  43.136   0.468   8.864
 1160POPC   GL217642  42.959   0.373   8.864
 1160POPC   C1A17643  43.090   0.429   8.564
 1160POPC   D2A17644  43.067   0.474   8.264
 1160POPC   C3A17645  43.075   0.419   7.964
 1160POPC   C4A17646  43.150   0.412   7.664
 1160POPC   C1B17647  42.892   0.345   8.564
 1160POPC   C2B17648  42.905   0.295   8.264
 1160POPC   C3B17649  42.854   0.318   7.964
 1160POPC   C4B17650  42.875   0.309   7.664
 1161POPC   NC317651  42.316  17.478   9.464
 1161POPC   PO417652  42.316  17.527   9.164
 1161POPC   GL117653  42.365  17.465   8.864
 1161POPC   GL217654  42.417  17.441   8.864
 1161POPC   C1A17655  42.287  17.552   8.564
 1161POPC   D2A17656  42.340  17.502   8.264
 1161POPC   C3A17657  42.295  17.473   7.964
 1161POPC   C4A17658  42.304  17.471   7.664
 1161POPC   C1B17659  42.540  17.361   8.564
 1161POPC   C2B17660  42.519  17.337   8.264
 1161POPC   C3B17661  42.505  17.420   7.964
 1161POPC   C4B17662  42.589  17.367   7.664
 1162POPC   NC317663  14.429  36.933   9.464
 1162POPC   PO417664  14.422  36.892   9.164
 1162POPC   GL117665  14.377  36.924   8.864
 1162POPC   GL217666  14.246  36.963   8.864
 1162POPC   C1A17667  14.365  36.944   8.564
 1162POPC   D2A17668  14.442  36.880   8.264
 1162POPC   C3A17669  14.373  36.870   7.964
 1162POPC   C4A17670  14.435  36.947   7.664
 1162POPC   C1B17671  14.179  37.039   8.564
 1162POPC   C2B17672  14.174  36.993   8.264
 1162POPC   C3B17673  14.225  36.983   7.964
 1162POPC   C4B17674  14.182  37.060   7.664
 1163POPC   NC317675  39.198  38.495   9.464
 1163POPC   PO417676  39.225  38.408   9.164
 1163POPC   GL117677  39.275  38.486   8.864
 1163POPC   GL217678  39.288  38.572   8.864
 1163POPC   C1A17679  39.210  38.494   8.564
 1163POPC   D2A17680  39.221  38.447   8.264
 1163POPC   C3A17681  39.254  38.424   7.964
 1163POPC   C4A17682  39.252  38.495   7.664
 1163POPC   C1B17683  39.438  38.560   8.564
 1163POPC   C2B17684  39.386  38.633   8.264
 1163POPC   C3B17685  39.449  38.591   7.964
 1163POPC   C4B17686  39.400  38.653   7.664
 1164POPC   NC317687   1.984  31.432   9.464
 1164POPC   PO417688   1.952  31.461   9.164
 1164POPC   GL117689   2.030  31.455   8.864
 1164POPC   GL217690   2.085  31.466   8.864
 1164POPC   C1A17691   1.977  31.513   8.564
 1164POPC   D2A17692   1.981  31.509   8.264
 1164POPC   C3A17693   1.951  31.516   7.964
 1164POPC   C4A17694   1.948  31.449   7.664
 1164POPC   C1B17695   2.204  31.417   8.564
 1164POPC   C2B17696   2.241  31.441   8.264
 1164POPC   C3B17697   2.208  31.458   7.964
 1164POPC   C4B17698   2.199  31.430   7.664
 1165POPC   NC317699   1.186  12.048   9.464
 1165POPC   PO417700   1.249  12.089   9.164
 1165POPC   GL117701   1.209  12.083   8.864
 1165POPC   GL217702   1.242  11.956   8.864
 1165POPC   C1A17703   1.244  12.107   8.564
 1165POPC   D2A17704   1.246  12.112   8.264
 1165POPC   C3A17705   1.173  12.076   7.964
 1165POPC   C4A17706   1.186  12.084   7.664
 1165POPC   C1B17707   1.244  11.808   8.564
 1165POPC   C2B17708   1.257  11.825   8.264
 1165POPC   C3B17709   1.204  11.868   7.964
 1165POPC   C4B17710   1.282  11.809   7.664
 1166POPC   NC317711  19.798  35.329   9.464
 1166POPC   PO417712  19.799  35.340   9.164
 1166POPC   GL117713  19.789  35.368   8.864
 1166POPC   GL217714  19.695  35.259   8.864
 1166POPC   C1A17715  19.872  35.388   8.564
 1166POPC   D2A17716  19.822  35.362   8.264
 1166POPC   C3A17717  19.845  35.333   7.964
 1166POPC   C4A17718  19.802  35.377   7.664
 1166POPC   C1B17719  19.642  35.162   8.564
 1166POPC   C2B17720  19.611  35.225   8.264
 1166POPC   C3B17721  19.656  35.192   7.964
 1166POPC   C4B17722  19.599  35.140   7.664
 1167POPC   NC317723  23.737  39.972   9.464
 1167POPC   PO417724  23.745  39.984   9.164
 1167POPC   GL117725  23.762  40.003   8.864
 1167POPC   GL217726  23.618  40.122   8.864
 1167POPC   C1A17727  23.695  40.052   8.564
 1167POPC   D2A17728  23.759  39.984   8.264
 1167POPC   C3A17729  23.715  39.996   7.964
 1167POPC   C4A17730  23.665  40.045   7.664
 1167POPC   C1B17731  23.599  40.274   8.564
 1167POPC   C2B17732  23.594  40.248   8.264
 1167POPC   C3B17733  23.636  40.210   7.964
 1167POPC   C4B17734  23.559  40.199   7.664
 1168POPC   NC317735  42.370  18.315   9.464
 1168POPC   PO417736  42.308  18.321   9.164
 1168POPC   GL117737  42.383  18.273   8.864
 1168POPC   GL217738  42.209  18.241   8.864
 1168POPC   C1A17739  42.325  18.314   8.564
 1168POPC   D2A17740  42.351  18.308   8.264
 1168POPC   C3A17741  42.293  18.326   7.964
 1168POPC   C4A17742  42.341  18.281   7.664
 1168POPC   C1B17743  42.122  18.117   8.564
 1168POPC   C2B17744  42.142  18.149   8.264
 1168POPC   C3B17745  42.120  18.173   7.964
 1168POPC   C4B17746  42.105  18.100   7.664
 1169POPC   NC317747  29.919   8.970   9.464
 1169POPC   PO417748  29.881   8.968   9.164
 1169POPC   GL117749  29.964   9.014   8.864
 1169POPC   GL217750  29.893   9.103   8.864
 1169POPC   C1A17751  29.929   8.960   8.564
 1169POPC   D2A17752  29.875   8.972   8.264
 1169POPC   C3A17753  29.911   8.960   7.964
 1169POPC   C4A17754  29.919   8.962   7.664
 1169POPC   C1B17755  29.797   9.138   8.564
 1169POPC   C2B17756  29.763   9.133   8.264
 1169POPC   C3B17757  29.770   9.132   7.964
 1169POPC   C4B17758  29.811   9.136   7.664
 1170POPC   NC317759  12.857  27.617   9.464
 1170POPC   PO417760  12.896  27.577   9.164
 1170POPC   GL117761  12.884  27.586   8.864
 1170POPC   GL217762  12.974  27.517   8.864
 1170POPC   C1A17763  12.852  27.573   8.564
 1170POPC   D2A17764  12.826  27.628   8.264
 1170POPC   C3A17765  12.844  27.591   7.964
 1170POPC   C4A17766  12.818  27.583   7.664
 1170POPC   C1B17767  13.022  27.430   8.564
 1170POPC   C2B17768  13.080  27.430   8.264
 1170POPC   C3B17769  13.025  27.437   7.964
 1170POPC   C4B17770  13.067  27.418   7.664
 1171POPC   NC317771  44.622   7.446   9.464
 1171POPC   PO417772  44.616   7.400   9.164
 1171POPC   GL117773  44.697   7.386   8.864
 1171POPC   GL217774  44.662   7.253   8.864
 1171POPC   C1A17775  44.629   7.411   8.564
 1171POPC   D2A17776  44.639   7.450   8.264
 1171POPC   C3A17777  44.694   7.391   7.964
 1171POPC   C4A17778  44.703   7.383   7.664
 1171POPC   C1B17779  44.654   7.147   8.564
 1171POPC   C2B17780  44.587   7.144   8.264
 1171POPC   C3B17781  44.595   7.149   7.964
 1171POPC   C4B17782  44.613   7.210   7.664
 1172POPC   NC317783   7.390  12.900   9.464
 1172POPC   PO417784   7.419  12.813   9.164
 1172POPC   GL117785   7.466  12.823   8.864
 1172POPC   GL217786   7.430  12.925   8.864
 1172POPC   C1A17787   7.381  12.843   8.564
 1172POPC   D2A17788   7.425  12.810   8.264
 1172POPC   C3A17789   7.401  12.872   7.964
 1172POPC   C4A17790   7.379  12.821   7.664
 1172POPC   C1B17791   7.548  13.122   8.564
 1172POPC   C2B17792   7.550  13.035   8.264
 1172POPC   C3B17793   7.566  13.082   7.964
 1172POPC   C4B17794   7.514  13.035   7.664
 1173POPC   NC317795   4.321  14.450   9.464
 1173POPC   PO417796   4.311  14.390   9.164
 1173POPC   GL117797   4.354  14.395   8.864
 1173POPC   GL217798   4.478  14.391   8.864
 1173POPC   C1A17799   4.269  14.442   8.564
 1173POPC   D2A17800   4.366  14.423   8.264
 1173POPC   C3A17801   4.295  14.420   7.964
 1173POPC   C4A17802   4.274  14.421   7.664
 1173POPC   C1B17803   4.607  14.480   8.564
 1173POPC   C2B17804   4.587  14.448   8.264
 1173POPC   C3B17805   4.597  14.491   7.964
 1173POPC   C4B17806   4.570  14.504   7.664
 1174POPC   NC317807  43.908  23.757   9.464
 1174POPC   PO417808  43.930  23.693   9.164
 1174POPC   GL117809  43.849  23.747   8.864
 1174POPC   GL217810  43.981  23.654   8.864
 1174POPC   C1A17811  43.852  23.682   8.564
 1174POPC   D2A17812  43.919  23.705   8.264
 1174POPC   C3A17813  43.933  23.754   7.964
 1174POPC   C4A17814  43.879  23.710   7.664
 1174POPC   C1B17815  43.998  23.533   8.564
 1174POPC   C2B17816  43.997  23.527   8.264
 1174POPC   C3B17817  44.048  23.489   7.964
 1174POPC   C4B17818  44.055  23.484   7.664
 1175POPC   NC317819  22.174  15.132   9.464
 1175POPC   PO417820  22.191  15.198   9.164
 1175POPC   GL117821  22.128  15.157   8.864
 1175POPC   GL217822  22.111  15.308   8.864
 1175POPC   C1A17823  22.169  15.187   8.564
 1175POPC   D2A17824  22.201  15.134   8.264
 1175POPC   C3A17825  22.179  15.217   7.964
 1175POPC   C4A17826  22.203  15.145   7.664
 1175POPC   C1B17827  22.149  15.449   8.564
 1175POPC   C2B17828  22.132  15.420   8.264
 1175POPC   C3B17829  22.083  15.432   7.964
 1175POPC   C4B17830  22.134  15.382   7.664
 1176POPC   NC317831   8.175  22.911   9.464
 1176POPC   PO417832   8.204  22.954   9.164
 1176POPC   GL117833   8.201  22.963   8.864
 1176POPC   GL217834   8.198  22.804   8.864
 1176POPC   C1A17835   8.207  22.962   8.564
 1176POPC   D2A17836   8.240  22.951   8.264
 1176POPC   C3A17837   8.226  22.901   7.964
 1176POPC   C4A17838   8.232  22.909   7.664
 1176POPC   C1B17839   8.269  22.751   8.564
 1176POPC   C2B17840   8.259  22.725   8.264
 1176POPC   C3B17841   8.254  22.701   7.964
 1176POPC   C4B17842   8.295  22.670   7.664
 1177POPC   NC317843  35.385  27.583   9.464
 1177POPC   PO417844  35.400  27.582   9.164
 1177POPC   GL117845  35.366  27.594   8.864
 1177POPC   GL217846  35.211  27.687   8.864
 1177POPC   C1A17847  35.327  27.583   8.564
 1177POPC   D2A17848  35.376  27.615   8.264
 1177POPC   C3A17849  35.319  27.555   7.964
 1177POPC   C4A17850  35.368  27.555   7.664
 1177POPC   C1B17851  35.137  27.736   8.564
 1177POPC   C2B17852  35.114  27.641   8.264
 1177POPC   C3B17853  35.164  27.683   7.964
 1177POPC   C4B17854  35.158  27.700   7.664
 1178POPC   NC317855  44.628   1.173   9.464
 1178POPC   PO417856  44.668   1.201   9.164
 1178POPC   GL117857  44.652   1.254   8.864
 1178POPC   GL217858  44.551   1.205   8.864
 1178POPC   C1A17859  44.627   1.210   8.564
 1178POPC   D2A17860  44.616   1.248   8.264
 1178POPC   C3A17861  44.697   1.170   7.964
 1178POPC   C4A17862  44.685   1.176   7.664
 1178POPC   C1B17863  44.394   1.166   8.564
 1178POPC   C2B17864  44.419   1.101   8.264
 1178POPC   C3B17865  44.379   1.151   7.964
 1178POPC   C4B17866  44.442   1.177   7.664
 1179POPC   NC317867   6.661  29.167   9.464
 1179POPC   PO417868   6.619  29.176   9.164
 1179POPC   GL117869   6.610  29.141   8.864
 1179POPC   GL217870   6.793  29.045   8.864
 1179POPC   C1A17871   6.645  29.135   8.564
 1179POPC   D2A17872   6.681  29.187   8.264
 1179POPC   C3A17873   6.595  29.163   7.964
 1179POPC   C4A17874   6.627  29.178   7.664
 1179POPC   C1B17875   6.806  29.043   8.564
 1179POPC   C2B17876   6.868  28.956   8.264
 1179POPC   C3B17877   6.827  28.969   7.964
 1179POPC   C4B17878   6.829  29.027   7.664
 1180POPC   NC317879  38.473  22.205   9.464
 1180POPC   PO417880  38.415  22.149   9.164
 1180POPC   GL117881  38.435  22.117   8.864
 1180POPC   GL217882  38.494  22.288   8.864
 1180POPC   C1A17883  38.501  22.184   8.564
 1180POPC   D2A17884  38.433  22.131   8.264
 1180POPC   C3A17885  38.482  22.152   7.964
 1180POPC   C4A17886  38.446  22.164   7.664
 1180POPC   C1B17887  38.589  22.400   8.564
 1180POPC   C2B17888  38.597  22.378   8.264
 1180POPC   C3B17889  38.597  22.352   7.964
 1180POPC   C4B17890  38.528  22.363   7.664
 1181POPC   NC317891   1.214  18.261   9.464
 1181POPC   PO417892   1.173  18.266   9.164
 1181POPC   GL117893   1.247  18.308   8.864
 1181POPC   GL217894   1.157  18.197   8.864
 1181POPC   C1A17895   1.165  18.272   8.564
 1181POPC   D2A17896   1.222  18.239   8.264
 1181POPC   C3A17897   1.217  18.273   7.964
 1181POPC   C4A17898   1.233  18.263   7.664
 1181POPC   C1B17899   1.127  18.010   8.564
 1181POPC   C2B17900   1.133  18.044   8.264
 1181POPC   C3B17901   1.134  18.016   7.964
 1181POPC   C4B17902   1.128  18.089   7.664
 1182POPC   NC317903  18.296  32.282   9.464
 1182POPC   PO417904  18.254  32.237   9.164
 1182POPC   GL117905  18.241  32.293   8.864
 1182POPC   GL217906  18.184  32.286   8.864
 1182POPC   C1A17907  18.288  32.262   8.564
 1182POPC   D2A17908  18.262  32.216   8.264
 1182POPC   C3A17909  18.273  32.279   7.964
 1182POPC   C4A17910  18.266  32.237   7.664
 1182POPC   C1B17911  18.063  32.429   8.564
 1182POPC   C2B17912  18.062  32.397   8.264
 1182POPC   C3B17913  18.043  32.378   7.964
 1182POPC   C4B17914  18.109  32.388   7.664
 1183POPC   NC317915  29.143  15.925   9.464
 1183POPC   PO417916  29.097  15.923   9.164
 1183POPC   GL117917  29.104  15.969   8.864
 1183POPC   GL217918  29.272  15.963   8.864
 1183POPC   C1A17919  29.167  15.924   8.564
 1183POPC   D2A17920  29.110  15.986   8.264
 1183POPC   C3A17921  29.179  15.950   7.964
 1183POPC   C4A17922  29.135  15.906   7.664
 1183POPC   C1B17923  29.425  15.960   8.564
 1183POPC   C2B17924  29.356  15.929   8.264
 1183POPC   C3B17925  29.387  15.959   7.964
 1183POPC   C4B17926  29.381  15.966   7.664
 1184POPC   NC317927   9.698  28.400   9.464
 1184POPC   PO417928   9.739  28.403   9.164
 1184POPC   GL117929   9.784  28.354   8.864
 1184POPC   GL217930   9.778  28.230   8.864
 1184POPC   C1A17931   9.719  28.394   8.564
 1184POPC   D2A17932   9.708  28.338   8.264
 1184POPC   C3A17933   9.736  28.401   7.964
 1184POPC   C4A17934   9.714  28.350   7.664
 1184POPC   C1B17935   9.733  28.140   8.564
 1184POPC   C2B17936   9.781  28.125   8.264
 1184POPC   C3B17937   9.732  28.108   7.964
 1184POPC   C4B17938   9.810  28.096   7.664
 1185POPC   NC317939  44.635   5.118   9.464
 1185POPC   PO417940  44.623   5.058   9.164
 1185POPC   GL117941  44.613   5.053   8.864
 1185POPC   GL217942  44.619   4.938   8.864
 1185POPC   C1A17943  44.708   5.056   8.564
 1185POPC   D2A17944  44.653   5.094   8.264
 1185POPC   C3A17945  44.708   5.130   7.964
 1185POPC   C4A17946  44.624   5.084   7.664
 1185POPC   C1B17947  44.584   4.884   8.564
 1185POPC   C2B17948  44.560   4.881   8.264
 1185POPC   C3B17949  44.559   4.884   7.964
 1185POPC   C4B17950  44.619   4.819   7.664
 1186POPC   NC317951  29.130  29.170   9.464
 1186POPC   PO417952  29.183  29.114   9.164
 1186POPC   GL117953  29.139  29.186   8.864
 1186POPC   GL217954  29.200  29.044   8.864
 1186POPC   C1A17955  29.190  29.106   8.564
 1186POPC   D2A17956  29.133  29.175   8.264
 1186POPC   C3A17957  29.150  29.179   7.964
 1186POPC   C4A17958  29.135  29.134   7.664
 1186POPC   C1B17959  29.320  28.953   8.564
 1186POPC   C2B17960  29.306  28.976   8.264
 1186POPC   C3B17961  29.276  28.906   7.964
 1186POPC   C4B17962  29.261  28.946   7.664
 1187POPC   NC317963  19.063  12.816   9.464
 1187POPC   PO417964  19.074  12.879   9.164
 1187POPC   GL117965  19.089  12.838   8.864
 1187POPC   GL217966  19.108  12.758   8.864
 1187POPC   C1A17967  19.079  12.805   8.564
 1187POPC   D2A17968  19.081  12.899   8.264
 1187POPC   C3A17969  19.094  12.887   7.964
 1187POPC   C4A17970  19.094  12.826   7.664
 1187POPC   C1B17971  19.207  12.599   8.564
 1187POPC   C2B17972  19.160  12.606   8.264
 1187POPC   C3B17973  19.146  12.647   7.964
 1187POPC   C4B17974  19.189  12.628   7.664
 1188POPC   NC317975   7.469  36.902   9.464
 1188POPC   PO417976   7.457  36.855   9.164
 1188POPC   GL117977   7.424  36.887   8.864
 1188POPC   GL217978   7.484  36.758   8.864
 1188POPC   C1A17979   7.400  36.899   8.564
 1188POPC   D2A17980   7.382  36.917   8.264
 1188POPC   C3A17981   7.376  36.893   7.964
 1188POPC   C4A17982   7.465  36.939   7.664
 1188POPC   C1B17983   7.466  36.612   8.564
 1188POPC   C2B17984   7.485  36.700   8.264
 1188POPC   C3B17985   7.497  36.693   7.964
 1188POPC   C4B17986   7.451  36.618   7.664
 1189POPC   NC317987  40.770  31.455   9.464
 1189POPC   PO417988  40.792  31.517   9.164
 1189POPC   GL117989  40.810  31.484   8.864
 1189POPC   GL217990  40.862  31.537   8.864
 1189POPC   C1A17991  40.810  31.496   8.564
 1189POPC   D2A17992  40.810  31.484   8.264
 1189POPC   C3A17993  40.750  31.510   7.964
 1189POPC   C4A17994  40.754  31.474   7.664
 1189POPC   C1B17995  40.948  31.608   8.564
 1189POPC   C2B17996  40.961  31.596   8.264
 1189POPC   C3B17997  40.972  31.654   7.964
 1189POPC   C4B17998  40.953  31.651   7.664
 1190POPC   NC317999  43.102  12.835   9.464
 1190POPC   PO418000  43.110  12.854   9.164
 1190POPC   GL118001  43.118  12.873   8.864
 1190POPC   GL218002  43.033  12.966   8.864
 1190POPC   C1A18003  43.105  12.870   8.564
 1190POPC   D2A18004  43.084  12.876   8.264
 1190POPC   C3A18005  43.084  12.870   7.964
 1190POPC   C4A18006  43.096  12.813   7.664
 1190POPC   C1B18007  42.987  13.043   8.564
 1190POPC   C2B18008  42.923  13.040   8.264
 1190POPC   C3B18009  42.924  13.020   7.964
 1190POPC   C4B18010  42.976  13.024   7.664
 1191POPC   NC318011   9.749  36.878   9.464
 1191POPC   PO418012   9.794  36.869   9.164
 1191POPC   GL118013   9.742  36.925   8.864
 1191POPC   GL218014   9.689  36.984   8.864
 1191POPC   C1A18015   9.735  36.877   8.564
 1191POPC   D2A18016   9.790  36.858   8.264
 1191POPC   C3A18017   9.791  36.885   7.964
 1191POPC   C4A18018   9.722  36.892   7.664
 1191POPC   C1B18019   9.599  37.075   8.564
 1191POPC   C2B18020   9.581  37.069   8.264
 1191POPC   C3B18021   9.518  37.046   7.964
 1191POPC   C4B18022   9.537  37.074   7.664
 1192POPC   NC318023  18.234  40.790   9.464
 1192POPC   PO418024  18.319  40.791   9.164
 1192POPC   GL118025  18.269  40.810   8.864
 1192POPC   GL218026  18.213  40.718   8.864
 1192POPC   C1A18027  18.254  40.773   8.564
 1192POPC   D2A18028  18.327  40.793   8.264
 1192POPC   C3A18029  18.301  40.830   7.964
 1192POPC   C4A18030  18.280  40.786   7.664
 1192POPC   C1B18031  18.103  40.633   8.564
 1192POPC   C2B18032  18.057  40.693   8.264
 1192POPC   C3B18033  18.075  40.657   7.964
 1192POPC   C4B18034  18.090  40.702   7.664
 1193POPC   NC318035  31.448   0.463   9.464
 1193POPC   PO418036  31.493   0.407   9.164
 1193POPC   GL118037  31.465   0.417   8.864
 1193POPC   GL218038  31.459   0.267   8.864
 1193POPC   C1A18039  31.447   0.483   8.564
 1193POPC   D2A18040  31.468   0.416   8.264
 1193POPC   C3A18041  31.484   0.461   7.964
 1193POPC   C4A18042  31.511   0.398   7.664
 1193POPC   C1B18043  31.382   0.196   8.564
 1193POPC   C2B18044  31.392   0.210   8.264
 1193POPC   C3B18045  31.441   0.173   7.964
 1193POPC   C4B18046  31.396   0.244   7.664
 1194POPC   NC318047   3.567  43.929   9.464
 1194POPC   PO418048   3.590  43.839   9.164
 1194POPC   GL118049   3.504  43.838   8.864
 1194POPC   GL218050   3.533  43.719   8.864
 1194POPC   C1A18051   3.522  43.838   8.564
 1194POPC   D2A18052   3.529  43.918   8.264
 1194POPC   C3A18053   3.555  43.877   7.964
 1194POPC   C4A18054   3.515  43.897   7.664
 1194POPC   C1B18055   3.530  43.642   8.564
 1194POPC   C2B18056   3.513  43.632   8.264
 1194POPC   C3B18057   3.489  43.628   7.964
 1194POPC   C4B18058   3.494  43.669   7.664
 1195POPC   NC318059   5.821   8.995   9.464
 1195POPC   PO418060   5.904   9.006   9.164
 1195POPC   GL118061   5.822   9.014   8.864
 1195POPC   GL218062   5.748   9.025   8.864
 1195POPC   C1A18063   5.885   9.003   8.564
 1195POPC   D2A18064   5.909   8.956   8.264
 1195POPC   C3A18065   5.822   8.953   7.964
 1195POPC   C4A18066   5.835   8.927   7.664
 1195POPC   C1B18067   5.622   9.109   8.564
 1195POPC   C2B18068   5.653   9.054   8.264
 1195POPC   C3B18069   5.665   9.138   7.964
 1195POPC   C4B18070   5.636   9.046   7.664
 1196POPC   NC318071   8.169   5.059   9.464
 1196POPC   PO418072   8.187   5.081   9.164
 1196POPC   GL118073   8.197   5.130   8.864
 1196POPC   GL218074   8.295   5.042   8.864
 1196POPC   C1A18075   8.231   5.113   8.564
 1196POPC   D2A18076   8.222   5.130   8.264
 1196POPC   C3A18077   8.173   5.124   7.964
 1196POPC   C4A18078   8.165   5.079   7.664
 1196POPC   C1B18079   8.444   5.024   8.564
 1196POPC   C2B18080   8.446   5.047   8.264
 1196POPC   C3B18081   8.478   5.014   7.964
 1196POPC   C4B18082   8.432   5.040   7.664
 1197POPC   NC318083  26.774   5.851   9.464
 1197POPC   PO418084  26.805   5.837   9.164
 1197POPC   GL118085  26.809   5.850   8.864
 1197POPC   GL218086  26.713   5.729   8.864
 1197POPC   C1A18087  26.812   5.910   8.564
 1197POPC   D2A18088  26.833   5.827   8.264
 1197POPC   C3A18089  26.789   5.855   7.964
 1197POPC   C4A18090  26.861   5.823   7.664
 1197POPC   C1B18091  26.654   5.621   8.564
 1197POPC   C2B18092  26.696   5.679   8.264
 1197POPC   C3B18093  26.679   5.669   7.964
 1197POPC   C4B18094  26.652   5.701   7.664
 1198POPC   NC318095   3.532  18.250   9.464
 1198POPC   PO418096   3.546  18.257   9.164
 1198POPC   GL118097   3.575  18.233   8.864
 1198POPC   GL218098   3.594  18.426   8.864
 1198POPC   C1A18099   3.522  18.260   8.564
 1198POPC   D2A18100   3.551  18.238   8.264
 1198POPC   C3A18101   3.523  18.286   7.964
 1198POPC   C4A18102   3.523  18.274   7.664
 1198POPC   C1B18103   3.674  18.461   8.564
 1198POPC   C2B18104   3.670  18.527   8.264
 1198POPC   C3B18105   3.623  18.466   7.964
 1198POPC   C4B18106   3.699  18.551   7.664
 1199POPC   NC318107   9.783  35.331   9.464
 1199POPC   PO418108   9.740  35.355   9.164
 1199POPC   GL118109   9.738  35.355   8.864
 1199POPC   GL218110   9.674  35.278   8.864
 1199POPC   C1A18111   9.791  35.325   8.564
 1199POPC   D2A18112   9.786  35.310   8.264
 1199POPC   C3A18113   9.757  35.316   7.964
 1199POPC   C4A18114   9.737  35.374   7.664
 1199POPC   C1B18115   9.589  35.214   8.564
 1199POPC   C2B18116   9.571  35.223   8.264
 1199POPC   C3B18117   9.592  35.177   7.964
 1199POPC   C4B18118   9.531  35.195   7.664
 1200POPC   NC318119  27.552  41.569   9.464
 1200POPC   PO418120  27.616  41.536   9.164
 1200POPC   GL118121  27.604  41.558   8.864
 1200POPC   GL218122  27.476  41.650   8.864
 1200POPC   C1A18123  27.602  41.588   8.564
 1200POPC   D2A18124  27.590  41.581   8.264
 1200POPC   C3A18125  27.590  41.585   7.964
 1200POPC   C4A18126  27.599  41.588   7.664
 1200POPC   C1B18127  27.404  41.692   8.564
 1200POPC   C2B18128  27.445  41.701   8.264
 1200POPC   C3B18129  27.400  41.733   7.964
 1200POPC   C4B18130  27.452  41.738   7.664
 1201POPC   NC318131  44.683  29.953   9.464
 1201POPC   PO418132  44.711  29.905   9.164
 1201POPC   GL118133  44.614  29.961   8.864
 1201POPC   GL218134  44.604  30.081   8.864
 1201POPC   C1A18135  44.709  29.934   8.564
 1201POPC   D2A18136  44.667  29.898   8.264
 1201POPC   C3A18137  44.672  29.929   7.964
 1201POPC   C4A18138  44.699  29.968   7.664
 1201POPC   C1B18139  44.558  30.124   8.564
 1201POPC   C2B18140  44.544  30.120   8.264
 1201POPC   C3B18141  44.545  30.153   7.964
 1201POPC   C4B18142  44.591  30.149   7.664
 1202POPC   NC318143  40.771  15.143   9.464
 1202POPC   PO418144  40.750  15.165   9.164
 1202POPC   GL118145  40.800  15.196   8.864
 1202POPC   GL218146  40.880  15.244   8.864
 1202POPC   C1A18147  40.768  15.222   8.564
 1202POPC   D2A18148  40.763  15.133   8.264
 1202POPC   C3A18149  40.832  15.147   7.964
 1202POPC   C4A18150  40.827  15.151   7.664
 1202POPC   C1B18151  41.021  15.281   8.564
 1202POPC   C2B18152  40.967  15.312   8.264
 1202POPC   C3B18153  40.969  15.228   7.964
 1202POPC   C4B18154  40.972  15.326   7.664
 1203POPC   NC318155  37.630  15.202   9.464
 1203POPC   PO418156  37.672  15.218   9.164
 1203POPC   GL118157  37.685  15.209   8.864
 1203POPC   GL218158  37.705  15.289   8.864
 1203POPC   C1A18159  37.694  15.159   8.564
 1203POPC   D2A18160  37.697  15.220   8.264
 1203POPC   C3A18161  37.630  15.223   7.964
 1203POPC   C4A18162  37.642  15.157   7.664
 1203POPC   C1B18163  37.743  15.447   8.564
 1203POPC   C2B18164  37.662  15.414   8.264
 1203POPC   C3B18165  37.725  15.422   7.964
 1203POPC   C4B18166  37.719  15.387   7.664
 1204POPC   NC318167  34.557   9.746   9.464
 1204POPC   PO418168  34.529   9.712   9.164
 1204POPC   GL118169  34.599   9.718   8.864
 1204POPC   GL218170  34.570   9.685   8.864
 1204POPC   C1A18171  34.588   9.783   8.564
 1204POPC   D2A18172  34.582   9.797   8.264
 1204POPC   C3A18173  34.612   9.753   7.964
 1204POPC   C4A18174  34.577   9.724   7.664
 1204POPC   C1B18175  34.500   9.537   8.564
 1204POPC   C2B18176  34.492   9.527   8.264
 1204POPC   C3B18177  34.510   9.570   7.964
 1204POPC   C4B18178  34.495   9.478   7.664
 1205POPC   NC318179  43.068  36.942   9.464
 1205POPC   PO418180  43.132  36.857   9.164
 1205POPC   GL118181  43.094  36.919   8.864
 1205POPC   GL218182  42.995  36.813   8.864
 1205POPC   C1A18183  43.154  36.896   8.564
 1205POPC   D2A18184  43.144  36.918   8.264
 1205POPC   C3A18185  43.150  36.855   7.964
 1205POPC   C4A18186  43.098  36.869   7.664
 1205POPC   C1B18187  42.937  36.726   8.564
 1205POPC   C2B18188  42.914  36.813   8.264
 1205POPC   C3B18189  42.917  36.822   7.964
 1205POPC   C4B18190  42.856  36.812   7.664
 1206POPC   NC318191   2.721  43.922   9.464
 1206POPC   PO418192   2.767  43.903   9.164
 1206POPC   GL118193   2.800  43.856   8.864
 1206POPC   GL218194   2.666  43.784   8.864
 1206POPC   C1A18195   2.742  43.854   8.564
 1206POPC   D2A18196   2.796  43.861   8.264
 1206POPC   C3A18197   2.735  43.888   7.964
 1206POPC   C4A18198   2.722  43.861   7.664
 1206POPC   C1B18199   2.596  43.678   8.564
 1206POPC   C2B18200   2.597  43.710   8.264
 1206POPC   C3B18201   2.561  43.745   7.964
 1206POPC   C4B18202   2.589  43.672   7.664
 1207POPC   NC318203  25.271  33.780   9.464
 1207POPC   PO418204  25.235  33.824   9.164
 1207POPC   GL118205  25.223  33.769   8.864
 1207POPC   GL218206  25.308  33.888   8.864
 1207POPC   C1A18207  25.217  33.773   8.564
 1207POPC   D2A18208  25.225  33.837   8.264
 1207POPC   C3A18209  25.276  33.832   7.964
 1207POPC   C4A18210  25.246  33.838   7.664
 1207POPC   C1B18211  25.248  34.031   8.564
 1207POPC   C2B18212  25.237  34.002   8.264
 1207POPC   C3B18213  25.270  34.003   7.964
 1207POPC   C4B18214  25.286  34.033   7.664
 1208POPC   NC318215   7.404   5.137   9.464
 1208POPC   PO418216   7.383   5.061   9.164
 1208POPC   GL118217   7.427   5.054   8.864
 1208POPC   GL218218   7.550   5.010   8.864
 1208POPC   C1A18219   7.443   5.058   8.564
 1208POPC   D2A18220   7.446   5.098   8.264
 1208POPC   C3A18221   7.450   5.055   7.964
 1208POPC   C4A18222   7.460   5.118   7.664
 1208POPC   C1B18223   7.649   5.024   8.564
 1208POPC   C2B18224   7.630   4.981   8.264
 1208POPC   C3B18225   7.708   5.041   7.964
 1208POPC   C4B18226   7.670   5.057   7.664
 1209POPC   NC318227   1.228   1.190   9.464
 1209POPC   PO418228   1.215   1.241   9.164
 1209POPC   GL118229   1.180   1.237   8.864
 1209POPC   GL218230   1.292   1.150   8.864
 1209POPC   C1A18231   1.240   1.198   8.564
 1209POPC   D2A18232   1.263   1.234   8.264
 1209POPC   C3A18233   1.182   1.173   7.964
 1209POPC   C4A18234   1.202   1.194   7.664
 1209POPC   C1B18235   1.394   1.083   8.564
 1209POPC   C2B18236   1.393   1.078   8.264
 1209POPC   C3B18237   1.455   1.099   7.964
 1209POPC   C4B18238   1.391   1.109   7.664
 1210POPC   NC318239   7.379  20.567   9.464
 1210POPC   PO418240   7.418  20.570   9.164
 1210POPC   GL118241   7.454  20.643   8.864
 1210POPC   GL218242   7.474  20.665   8.864
 1210POPC   C1A18243   7.393  20.605   8.564
 1210POPC   D2A18244   7.437  20.618   8.264
 1210POPC   C3A18245   7.452  20.613   7.964
 1210POPC   C4A18246   7.427  20.575   7.664
 1210POPC   C1B18247   7.602  20.791   8.564
 1210POPC   C2B18248   7.570  20.811   8.264
 1210POPC   C3B18249   7.520  20.850   7.964
 1210POPC   C4B18250   7.573  20.857   7.664
 1211POPC   NC318251   4.320  22.210   9.464
 1211POPC   PO418252   4.287  22.177   9.164
 1211POPC   GL118253   4.335  22.142   8.864
 1211POPC   GL218254   4.209  22.176   8.864
 1211POPC   C1A18255   4.298  22.134   8.564
 1211POPC   D2A18256   4.333  22.198   8.264
 1211POPC   C3A18257   4.311  22.197   7.964
 1211POPC   C4A18258   4.357  22.143   7.664
 1211POPC   C1B18259   4.099  22.202   8.564
 1211POPC   C2B18260   4.096  22.251   8.264
 1211POPC   C3B18261   4.089  22.213   7.964
 1211POPC   C4B18262   4.055  22.221   7.664
 1212POPC   NC318263  33.797  15.187   9.464
 1212POPC   PO418264  33.765  15.200   9.164
 1212POPC   GL118265  33.783  15.193   8.864
 1212POPC   GL218266  33.724  15.058   8.864
 1212POPC   C1A18267  33.778  15.203   8.564
 1212POPC   D2A18268  33.846  15.168   8.264
 1212POPC   C3A18269  33.827  15.196   7.964
 1212POPC   C4A18270  33.797  15.177   7.664
 1212POPC   C1B18271  33.676  14.962   8.564
 1212POPC   C2B18272  33.639  15.007   8.264
 1212POPC   C3B18273  33.673  15.018   7.964
 1212POPC   C4B18274  33.601  14.964   7.664
 1213POPC   NC318275  36.117  43.068   9.464
 1213POPC   PO418276  36.161  43.080   9.164
 1213POPC   GL118277  36.124  43.117   8.864
 1213POPC   GL218278  36.211  43.075   8.864
 1213POPC   C1A18279  36.169  43.155   8.564
 1213POPC   D2A18280  36.107  43.118   8.264
 1213POPC   C3A18281  36.157  43.144   7.964
 1213POPC   C4A18282  36.132  43.080   7.664
 1213POPC   C1B18283  36.351  43.060   8.564
 1213POPC   C2B18284  36.355  43.098   8.264
 1213POPC   C3B18285  36.417  43.097   7.964
 1213POPC   C4B18286  36.339  43.132   7.664
 1214POPC   NC318287  37.666  22.976   9.464
 1214POPC   PO418288  37.722  22.954   9.164
 1214POPC   GL118289  37.725  22.971   8.864
 1214POPC   GL218290  37.567  22.811   8.864
 1214POPC   C1A18291  37.705  22.986   8.564
 1214POPC   D2A18292  37.692  22.900   8.264
 1214POPC   C3A18293  37.648  22.985   7.964
 1214POPC   C4A18294  37.631  22.892   7.664
 1214POPC   C1B18295  37.491  22.798   8.564
 1214POPC   C2B18296  37.473  22.761   8.264
 1214POPC   C3B18297  37.505  22.718   7.964
 1214POPC   C4B18298  37.466  22.763   7.664
 1215POPC   NC318299   6.648  32.285   9.464
 1215POPC   PO418300   6.673  32.253   9.164
 1215POPC   GL118301   6.649  32.288   8.864
 1215POPC   GL218302   6.685  32.386   8.864
 1215POPC   C1A18303   6.684  32.204   8.564
 1215POPC   D2A18304   6.627  32.241   8.264
 1215POPC   C3A18305   6.621  32.291   7.964
 1215POPC   C4A18306   6.623  32.228   7.664
 1215POPC   C1B18307   6.713  32.436   8.564
 1215POPC   C2B18308   6.725  32.460   8.264
 1215POPC   C3B18309   6.728  32.474   7.964
 1215POPC   C4B18310   6.716  32.465   7.664
 1216POPC   NC318311  19.087  36.082   9.464
 1216POPC   PO418312  19.091  36.137   9.164
 1216POPC   GL118313  19.080  36.124   8.864
 1216POPC   GL218314  18.973  36.204   8.864
 1216POPC   C1A18315  19.011  36.158   8.564
 1216POPC   D2A18316  19.064  36.110   8.264
 1216POPC   C3A18317  19.011  36.158   7.964
 1216POPC   C4A18318  19.078  36.136   7.664
 1216POPC   C1B18319  18.922  36.330   8.564
 1216POPC   C2B18320  18.915  36.292   8.264
 1216POPC   C3B18321  18.894  36.371   7.964
 1216POPC   C4B18322  18.879  36.321   7.664
 1217POPC   NC318323  37.663  26.811   9.464
 1217POPC   PO418324  37.711  26.780   9.164
 1217POPC   GL118325  37.634  26.861   8.864
 1217POPC   GL218326  37.771  26.668   8.864
 1217POPC   C1A18327  37.697  26.832   8.564
 1217POPC   D2A18328  37.636  26.768   8.264
 1217POPC   C3A18329  37.630  26.800   7.964
 1217POPC   C4A18330  37.669  26.800   7.664
 1217POPC   C1B18331  37.847  26.648   8.564
 1217POPC   C2B18332  37.853  26.594   8.264
 1217POPC   C3B18333  37.813  26.605   7.964
 1217POPC   C4B18334  37.784  26.660   7.664
 1218POPC   NC318335  36.153  42.323   9.464
 1218POPC   PO418336  36.159  42.308   9.164
 1218POPC   GL118337  36.175  42.332   8.864
 1218POPC   GL218338  36.159  42.233   8.864
 1218POPC   C1A18339  36.167  42.310   8.564
 1218POPC   D2A18340  36.160  42.294   8.264
 1218POPC   C3A18341  36.086  42.313   7.964
 1218POPC   C4A18342  36.130  42.285   7.664
 1218POPC   C1B18343  36.227  42.110   8.564
 1218POPC   C2B18344  36.205  42.084   8.264
 1218POPC   C3B18345  36.138  42.117   7.964
 1218POPC   C4B18346  36.167  42.064   7.664
 1219POPC   NC318347  21.435   3.541   9.464
 1219POPC   PO418348  21.369   3.499   9.164
 1219POPC   GL118349  21.357   3.523   8.864
 1219POPC   GL218350  21.385   3.667   8.864
 1219POPC   C1A18351  21.369   3.591   8.564
 1219POPC   D2A18352  21.360   3.510   8.264
 1219POPC   C3A18353  21.388   3.537   7.964
 1219POPC   C4A18354  21.418   3.590   7.664
 1219POPC   C1B18355  21.446   3.758   8.564
 1219POPC   C2B18356  21.399   3.773   8.264
 1219POPC   C3B18357  21.393   3.798   7.964
 1219POPC   C4B18358  21.447   3.777   7.664
 1220POPC   NC318359  36.901  43.101   9.464
 1220POPC   PO418360  36.926  43.150   9.164
 1220POPC   GL118361  36.953  43.149   8.864
 1220POPC   GL218362  36.819  43.181   8.864
 1220POPC   C1A18363  36.946  43.158   8.564
 1220POPC   D2A18364  36.858  43.078   8.264
 1220POPC   C3A18365  36.937  43.133   7.964
 1220POPC   C4A18366  36.938  43.077   7.664
 1220POPC   C1B18367  36.755  43.321   8.564
 1220POPC   C2B18368  36.755  43.365   8.264
 1220POPC   C3B18369  36.751  43.319   7.964
 1220POPC   C4B18370  36.719  43.269   7.664
 1221POPC   NC318371  41.567  10.537   9.464
 1221POPC   PO418372  41.538  10.565   9.164
 1221POPC   GL118373  41.542  10.492   8.864
 1221POPC   GL218374  41.659  10.586   8.864
 1221POPC   C1A18375  41.518  10.566   8.564
 1221POPC   D2A18376  41.600  10.490   8.264
 1221POPC   C3A18377  41.522  10.523   7.964
 1221POPC   C4A18378  41.530  10.550   7.664
 1221POPC   C1B18379  41.777  10.566   8.564
 1221POPC   C2B18380  41.761  10.578   8.264
 1221POPC   C3B18381  41.785  10.598   7.964
 1221POPC   C4B18382  41.796  10.577   7.664
 1222POPC   NC318383  19.815  36.870   9.464
 1222POPC   PO418384  19.848  36.947   9.164
 1222POPC   GL118385  19.848  36.935   8.864
 1222POPC   GL218386  19.949  37.035   8.864
 1222POPC   C1A18387  19.803  36.889   8.564
 1222POPC   D2A18388  19.786  36.884   8.264
 1222POPC   C3A18389  19.828  36.863   7.964
 1222POPC   C4A18390  19.862  36.876   7.664
 1222POPC   C1B18391  20.053  37.054   8.564
 1222POPC   C2B18392  20.053  37.095   8.264
 1222POPC   C3B18393  20.025  37.116   7.964
 1222POPC   C4B18394  20.069  37.111   7.664
 1223POPC   NC318395  10.553  37.671   9.464
 1223POPC   PO418396  10.542  37.697   9.164
 1223POPC   GL118397  10.515  37.635   8.864
 1223POPC   GL218398  10.522  37.775   8.864
 1223POPC   C1A18399  10.537  37.637   8.564
 1223POPC   D2A18400  10.518  37.694   8.264
 1223POPC   C3A18401  10.537  37.673   7.964
 1223POPC   C4A18402  10.476  37.674   7.664
 1223POPC   C1B18403  10.504  37.920   8.564
 1223POPC   C2B18404  10.498  37.885   8.264
 1223POPC   C3B18405  10.484  37.928   7.964
 1223POPC   C4B18406  10.466  37.954   7.664
 1224POPC   NC318407   2.796  26.790   9.464
 1224POPC   PO418408   2.784  26.840   9.164
 1224POPC   GL118409   2.760  26.826   8.864
 1224POPC   GL218410   2.818  26.929   8.864
 1224POPC   C1A18411   2.802  26.793   8.564
 1224POPC   D2A18412   2.791  26.857   8.264
 1224POPC   C3A18413   2.716  26.813   7.964
 1224POPC   C4A18414   2.796  26.787   7.664
 1224POPC   C1B18415   2.768  27.101   8.564
 1224POPC   C2B18416   2.760  27.027   8.264
 1224POPC   C3B18417   2.726  27.103   7.964
 1224POPC   C4B18418   2.818  27.022   7.664
 1225POPC   NC318419  20.659  31.505   9.464
 1225POPC   PO418420  20.621  31.465   9.164
 1225POPC   GL118421  20.603  31.472   8.864
 1225POPC   GL218422  20.525  31.415   8.864
 1225POPC   C1A18423  20.620  31.451   8.564
 1225POPC   D2A18424  20.582  31.424   8.264
 1225POPC   C3A18425  20.596  31.499   7.964
 1225POPC   C4A18426  20.570  31.442   7.664
 1225POPC   C1B18427  20.428  31.288   8.564
 1225POPC   C2B18428  20.449  31.344   8.264
 1225POPC   C3B18429  20.437  31.374   7.964
 1225POPC   C4B18430  20.413  31.367   7.664
 1226POPC   NC318431   0.486  42.345   9.464
 1226POPC   PO418432   0.479  42.297   9.164
 1226POPC   GL118433   0.439  42.344   8.864
 1226POPC   GL218434   0.444  42.423   8.864
 1226POPC   C1A18435   0.426  42.342   8.564
 1226POPC   D2A18436   0.430  42.335   8.264
 1226POPC   C3A18437   0.427  42.316   7.964
 1226POPC   C4A18438   0.470  42.295   7.664
 1226POPC   C1B18439   0.448  42.621   8.564
 1226POPC   C2B18440   0.482  42.535   8.264
 1226POPC   C3B18441   0.447  42.611   7.964
 1226POPC   C4B18442   0.531  42.539   7.664
 1227POPC   NC318443  28.356  12.119   9.464
 1227POPC   PO418444  28.337  12.030   9.164
 1227POPC   GL118445  28.408  12.078   8.864
 1227POPC   GL218446  28.269  12.164   8.864
 1227POPC   C1A18447  28.413  12.120   8.564
 1227POPC   D2A18448  28.366  12.041   8.264
 1227POPC   C3A18449  28.322  12.095   7.964
 1227POPC   C4A18450  28.383  12.063   7.664
 1227POPC   C1B18451  28.191  12.214   8.564
 1227POPC   C2B18452  28.153  12.299   8.264
 1227POPC   C3B18453  28.218  12.271   7.964
 1227POPC   C4B18454  28.162  12.252   7.664
 1228POPC   NC318455  39.969   2.038   9.464
 1228POPC   PO418456  40.042   2.037   9.164
 1228POPC   GL118457  39.964   2.017   8.864
 1228POPC   GL218458  40.101   1.909   8.864
 1228POPC   C1A18459  40.011   1.961   8.564
 1228POPC   D2A18460  40.044   1.961   8.264
 1228POPC   C3A18461  39.963   2.008   7.964
 1228POPC   C4A18462  40.002   2.019   7.664
 1228POPC   C1B18463  40.166   1.822   8.564
 1228POPC   C2B18464  40.130   1.816   8.264
 1228POPC   C3B18465  40.161   1.780   7.964
 1228POPC   C4B18466  40.181   1.831   7.664
 1229POPC   NC318467  11.308  15.216   9.464
 1229POPC   PO418468  11.290  15.154   9.164
 1229POPC   GL118469  11.291  15.217   8.864
 1229POPC   GL218470  11.420  15.299   8.864
 1229POPC   C1A18471  11.308  15.205   8.564
 1229POPC   D2A18472  11.331  15.192   8.264
 1229POPC   C3A18473  11.315  15.188   7.964
 1229POPC   C4A18474  11.311  15.179   7.664
 1229POPC   C1B18475  11.493  15.329   8.564
 1229POPC   C2B18476  11.505  15.348   8.264
 1229POPC   C3B18477  11.409  15.327   7.964
 1229POPC   C4B18478  11.460  15.387   7.664
 1230POPC   NC318479  13.656  33.060   9.464
 1230POPC   PO418480  13.635  33.067   9.164
 1230POPC   GL118481  13.612  32.996   8.864
 1230POPC   GL218482  13.458  33.047   8.864
 1230POPC   C1A18483  13.601  32.981   8.564
 1230POPC   D2A18484  13.651  33.057   8.264
 1230POPC   C3A18485  13.598  33.052   7.964
 1230POPC   C4A18486  13.636  32.988   7.664
 1230POPC   C1B18487  13.373  33.049   8.564
 1230POPC   C2B18488  13.430  33.094   8.264
 1230POPC   C3B18489  13.391  33.117   7.964
 1230POPC   C4B18490  13.367  33.082   7.664
 1231POPC   NC318491   8.202  15.909   9.464
 1231POPC   PO418492   8.199  15.920   9.164
 1231POPC   GL118493   8.214  15.931   8.864
 1231POPC   GL218494   8.084  15.906   8.864
 1231POPC   C1A18495   8.203  15.992   8.564
 1231POPC   D2A18496   8.189  15.962   8.264
 1231POPC   C3A18497   8.184  15.994   7.964
 1231POPC   C4A18498   8.194  16.004   7.664
 1231POPC   C1B18499   8.063  15.788   8.564
 1231POPC   C2B18500   8.043  15.748   8.264
 1231POPC   C3B18501   7.989  15.790   7.964
 1231POPC   C4B18502   8.063  15.803   7.664
 1232POPC   NC318503  35.357  36.088   9.464
 1232POPC   PO418504  35.315  36.152   9.164
 1232POPC   GL118505  35.366  36.078   8.864
 1232POPC   GL218506  35.456  36.247   8.864
 1232POPC   C1A18507  35.328  36.097   8.564
 1232POPC   D2A18508  35.346  36.084   8.264
 1232POPC   C3A18509  35.337  36.166   7.964
 1232POPC   C4A18510  35.396  36.138   7.664
 1232POPC   C1B18511  35.509  36.365   8.564
 1232POPC   C2B18512  35.529  36.306   8.264
 1232POPC   C3B18513  35.490  36.368   7.964
 1232POPC   C4B18514  35.463  36.347   7.664
 1233POPC   NC318515   8.225  16.779   9.464
 1233POPC   PO418516   8.170  16.688   9.164
 1233POPC   GL118517   8.221  16.775   8.864
 1233POPC   GL218518   8.348  16.627   8.864
 1233POPC   C1A18519   8.165  16.721   8.564
 1233POPC   D2A18520   8.217  16.697   8.264
 1233POPC   C3A18521   8.194  16.722   7.964
 1233POPC   C4A18522   8.222  16.725   7.664
 1233POPC   C1B18523   8.377  16.582   8.564
 1233POPC   C2B18524   8.401  16.623   8.264
 1233POPC   C3B18525   8.376  16.586   7.964
 1233POPC   C4B18526   8.445  16.618   7.664
 1234POPC   NC318527  31.520  15.215   9.464
 1234POPC   PO418528  31.425  15.187   9.164
 1234POPC   GL118529  31.515  15.143   8.864
 1234POPC   GL218530  31.592  15.124   8.864
 1234POPC   C1A18531  31.462  15.162   8.564
 1234POPC   D2A18532  31.510  15.130   8.264
 1234POPC   C3A18533  31.500  15.228   7.964
 1234POPC   C4A18534  31.462  15.206   7.664
 1234POPC   C1B18535  31.725  15.090   8.564
 1234POPC   C2B18536  31.676  15.019   8.264
 1234POPC   C3B18537  31.695  15.023   7.964
 1234POPC   C4B18538  31.659  15.023   7.664
 1235POPC   NC318539  13.658  28.377   9.464
 1235POPC   PO418540  13.636  28.360   9.164
 1235POPC   GL118541  13.622  28.327   8.864
 1235POPC   GL218542  13.662  28.211   8.864
 1235POPC   C1A18543  13.671  28.403   8.564
 1235POPC   D2A18544  13.616  28.377   8.264
 1235POPC   C3A18545  13.636  28.379   7.964
 1235POPC   C4A18546  13.586  28.418   7.664
 1235POPC   C1B18547  13.605  28.097   8.564
 1235POPC   C2B18548  13.606  28.165   8.264
 1235POPC   C3B18549  13.553  28.124   7.964
 1235POPC   C4B18550  13.622  28.074   7.664
 1236POPC   NC318551   8.974   4.321   9.464
 1236POPC   PO418552   8.999   4.289   9.164
 1236POPC   GL118553   9.006   4.354   8.864
 1236POPC   GL218554   9.055   4.350   8.864
 1236POPC   C1A18555   8.964   4.284   8.564
 1236POPC   D2A18556   8.950   4.280   8.264
 1236POPC   C3A18557   8.927   4.279   7.964
 1236POPC   C4A18558   8.968   4.324   7.664
 1236POPC   C1B18559   9.161   4.353   8.564
 1236POPC   C2B18560   9.197   4.397   8.264
 1236POPC   C3B18561   9.189   4.364   7.964
 1236POPC   C4B18562   9.166   4.350   7.664
 1237POPC   NC318563  33.072  22.954   9.464
 1237POPC   PO418564  32.991  22.964   9.164
 1237POPC   GL118565  33.013  22.986   8.864
 1237POPC   GL218566  33.107  22.824   8.864
 1237POPC   C1A18567  33.015  22.967   8.564
 1237POPC   D2A18568  33.061  22.961   8.264
 1237POPC   C3A18569  32.978  22.924   7.964
 1237POPC   C4A18570  33.065  22.963   7.664
 1237POPC   C1B18571  33.204  22.766   8.564
 1237POPC   C2B18572  33.114  22.687   8.264
 1237POPC   C3B18573  33.174  22.746   7.964
 1237POPC   C4B18574  33.172  22.724   7.664
 1238POPC   NC318575  33.816  32.250   9.464
 1238POPC   PO418576  33.781  32.200   9.164
 1238POPC   GL118577  33.849  32.244   8.864
 1238POPC   GL218578  33.781  32.416   8.864
 1238POPC   C1A18579  33.789  32.281   8.564
 1238POPC   D2A18580  33.763  32.298   8.264
 1238POPC   C3A18581  33.834  32.210   7.964
 1238POPC   C4A18582  33.832  32.248   7.664
 1238POPC   C1B18583  33.715  32.481   8.564
 1238POPC   C2B18584  33.754  32.480   8.264
 1238POPC   C3B18585  33.743  32.476   7.964
 1238POPC   C4B18586  33.737  32.515   7.664
 1239POPC   NC318587   1.204  28.368   9.464
 1239POPC   PO418588   1.172  28.321   9.164
 1239POPC   GL118589   1.213  28.345   8.864
 1239POPC   GL218590   1.335  28.451   8.864
 1239POPC   C1A18591   1.250  28.323   8.564
 1239POPC   D2A18592   1.177  28.322   8.264
 1239POPC   C3A18593   1.254  28.377   7.964
 1239POPC   C4A18594   1.165  28.416   7.664
 1239POPC   C1B18595   1.470  28.476   8.564
 1239POPC   C2B18596   1.456  28.534   8.264
 1239POPC   C3B18597   1.472  28.474   7.964
 1239POPC   C4B18598   1.471  28.546   7.664
 1240POPC   NC318599  15.222  30.698   9.464
 1240POPC   PO418600  15.138  30.698   9.164
 1240POPC   GL118601  15.210  30.738   8.864
 1240POPC   GL218602  15.030  30.674   8.864
 1240POPC   C1A18603  15.203  30.717   8.564
 1240POPC   D2A18604  15.190  30.719   8.264
 1240POPC   C3A18605  15.181  30.711   7.964
 1240POPC   C4A18606  15.170  30.669   7.664
 1240POPC   C1B18607  14.917  30.674   8.564
 1240POPC   C2B18608  14.898  30.664   8.264
 1240POPC   C3B18609  14.961  30.580   7.964
 1240POPC   C4B18610  14.924  30.586   7.664
 1241POPC   NC318611  21.362  29.178   9.464
 1241POPC   PO418612  21.432  29.158   9.164
 1241POPC   GL118613  21.375  29.105   8.864
 1241POPC   GL218614  21.305  29.185   8.864
 1241POPC   C1A18615  21.395  29.126   8.564
 1241POPC   D2A18616  21.385  29.165   8.264
 1241POPC   C3A18617  21.340  29.184   7.964
 1241POPC   C4A18618  21.385  29.174   7.664
 1241POPC   C1B18619  21.128  29.287   8.564
 1241POPC   C2B18620  21.131  29.207   8.264
 1241POPC   C3B18621  21.190  29.241   7.964
 1241POPC   C4B18622  21.143  29.209   7.664
 1242POPC   NC318623  12.075  41.597   9.464
 1242POPC   PO418624  12.111  41.564   9.164
 1242POPC   GL118625  12.041  41.535   8.864
 1242POPC   GL218626  11.961  41.508   8.864
 1242POPC   C1A18627  12.039  41.579   8.564
 1242POPC   D2A18628  12.059  41.535   8.264
 1242POPC   C3A18629  12.100  41.569   7.964
 1242POPC   C4A18630  12.114  41.552   7.664
 1242POPC   C1B18631  11.863  41.413   8.564
 1242POPC   C2B18632  11.879  41.402   8.264
 1242POPC   C3B18633  11.904  41.417   7.964
 1242POPC   C4B18634  11.897  41.364   7.664
 1243POPC   NC318635  29.888  15.911   9.464
 1243POPC   PO418636  29.916  15.986   9.164
 1243POPC   GL118637  29.938  15.941   8.864
 1243POPC   GL218638  30.043  15.848   8.864
 1243POPC   C1A18639  29.952  15.992   8.564
 1243POPC   D2A18640  29.888  15.937   8.264
 1243POPC   C3A18641  29.899  15.987   7.964
 1243POPC   C4A18642  29.952  16.003   7.664
 1243POPC   C1B18643  30.108  15.805   8.564
 1243POPC   C2B18644  30.107  15.869   8.264
 1243POPC   C3B18645  30.132  15.805   7.964
 1243POPC   C4B18646  30.163  15.793   7.664
 1244POPC   NC318647  34.542  32.979   9.464
 1244POPC   PO418648  34.607  33.004   9.164
 1244POPC   GL118649  34.540  33.012   8.864
 1244POPC   GL218650  34.550  32.888   8.864
 1244POPC   C1A18651  34.592  32.989   8.564
 1244POPC   D2A18652  34.596  33.005   8.264
 1244POPC   C3A18653  34.571  33.061   7.964
 1244POPC   C4A18654  34.541  32.990   7.664
 1244POPC   C1B18655  34.526  32.805   8.564
 1244POPC   C2B18656  34.449  32.749   8.264
 1244POPC   C3B18657  34.514  32.740   7.964
 1244POPC   C4B18658  34.461  32.834   7.664
 1245POPC   NC318659  15.210  28.410   9.464
 1245POPC   PO418660  15.165  28.327   9.164
 1245POPC   GL118661  15.175  28.347   8.864
 1245POPC   GL218662  15.078  28.251   8.864
 1245POPC   C1A18663  15.213  28.410   8.564
 1245POPC   D2A18664  15.179  28.360   8.264
 1245POPC   C3A18665  15.172  28.345   7.964
 1245POPC   C4A18666  15.163  28.341   7.664
 1245POPC   C1B18667  14.959  28.161   8.564
 1245POPC   C2B18668  15.044  28.221   8.264
 1245POPC   C3B18669  14.957  28.146   7.964
 1245POPC   C4B18670  15.012  28.192   7.664
 1246POPC   NC318671  19.064  34.623   9.464
 1246POPC   PO418672  19.036  34.607   9.164
 1246POPC   GL118673  19.019  34.594   8.864
 1246POPC   GL218674  19.150  34.528   8.864
 1246POPC   C1A18675  19.026  34.615   8.564
 1246POPC   D2A18676  19.050  34.534   8.264
 1246POPC   C3A18677  19.012  34.546   7.964
 1246POPC   C4A18678  19.036  34.561   7.664
 1246POPC   C1B18679  19.355  34.547   8.564
 1246POPC   C2B18680  19.317  34.528   8.264
 1246POPC   C3B18681  19.316  34.582   7.964
 1246POPC   C4B18682  19.357  34.583   7.664
 1247POPC   NC318683  26.777  40.012   9.464
 1247POPC   PO418684  26.802  39.992   9.164
 1247POPC   GL118685  26.861  40.016   8.864
 1247POPC   GL218686  26.662  40.068   8.864
 1247POPC   C1A18687  26.773  39.964   8.564
 1247POPC   D2A18688  26.774  40.043   8.264
 1247POPC   C3A18689  26.789  39.986   7.964
 1247POPC   C4A18690  26.844  40.043   7.664
 1247POPC   C1B18691  26.550  40.056   8.564
 1247POPC   C2B18692  26.564  40.078   8.264
 1247POPC   C3B18693  26.535  40.077   7.964
 1247POPC   C4B18694  26.573  40.032   7.664
 1248POPC   NC318695  38.418  44.705   9.464
 1248POPC   PO418696  38.475  44.687   9.164
 1248POPC   GL118697  38.485  44.705   8.864
 1248POPC   GL218698  38.494  44.578   8.864
 1248POPC   C1A18699  38.481  44.653   8.564
 1248POPC   D2A18700  38.409  44.703   8.264
 1248POPC   C3A18701  38.429  44.646   7.964
 1248POPC   C4A18702  38.457  44.654   7.664
 1248POPC   C1B18703  38.633  44.511   8.564
 1248POPC   C2B18704  38.647  44.487   8.264
 1248POPC   C3B18705  38.617  44.455   7.964
 1248POPC   C4B18706  38.648  44.494   7.664
 1249POPC   NC318707  28.332  31.424   9.464
 1249POPC   PO418708  28.360  31.488   9.164
 1249POPC   GL118709  28.364  31.444   8.864
 1249POPC   GL218710  28.461  31.372   8.864
 1249POPC   C1A18711  28.383  31.430   8.564
 1249POPC   D2A18712  28.381  31.450   8.264
 1249POPC   C3A18713  28.320  31.459   7.964
 1249POPC   C4A18714  28.340  31.466   7.664
 1249POPC   C1B18715  28.545  31.351   8.564
 1249POPC   C2B18716  28.550  31.303   8.264
 1249POPC   C3B18717  28.600  31.371   7.964
 1249POPC   C4B18718  28.545  31.352   7.664
 1250POPC   NC318719  39.270  23.695   9.464
 1250POPC   PO418720  39.233  23.759   9.164
 1250POPC   GL118721  39.222  23.744   8.864
 1250POPC   GL218722  39.288  23.779   8.864
 1250POPC   C1A18723  39.226  23.739   8.564
 1250POPC   D2A18724  39.270  23.706   8.264
 1250POPC   C3A18725  39.247  23.759   7.964
 1250POPC   C4A18726  39.241  23.745   7.664
 1250POPC   C1B18727  39.398  23.868   8.564
 1250POPC   C2B18728  39.403  23.892   8.264
 1250POPC   C3B18729  39.470  23.889   7.964
 1250POPC   C4B18730  39.422  23.861   7.664
 1251POPC   NC318731  30.694  37.636   9.464
 1251POPC   PO418732  30.691  37.664   9.164
 1251POPC   GL118733  30.653  37.658   8.864
 1251POPC   GL218734  30.752  37.731   8.864
 1251POPC   C1A18735  30.683  37.660   8.564
 1251POPC   D2A18736  30.660  37.704   8.264
 1251POPC   C3A18737  30.731  37.708   7.964
 1251POPC   C4A18738  30.718  37.678   7.664
 1251POPC   C1B18739  30.821  37.839   8.564
 1251POPC   C2B18740  30.858  37.838   8.264
 1251POPC   C3B18741  30.819  37.874   7.964
 1251POPC   C4B18742  30.864  37.854   7.664
 1252POPC   NC318743  30.693  24.486   9.464
 1252POPC   PO418744  30.647  24.463   9.164
 1252POPC   GL118745  30.720  24.507   8.864
 1252POPC   GL218746  30.812  24.433   8.864
 1252POPC   C1A18747  30.724  24.511   8.564
 1252POPC   D2A18748  30.658  24.493   8.264
 1252POPC   C3A18749  30.656  24.491   7.964
 1252POPC   C4A18750  30.687  24.497   7.664
 1252POPC   C1B18751  30.925  24.496   8.564
 1252POPC   C2B18752  30.913  24.435   8.264
 1252POPC   C3B18753  30.974  24.412   7.964
 1252POPC   C4B18754  30.942  24.406   7.664
 1253POPC   NC318755  27.637  20.613   9.464
 1253POPC   PO418756  27.638  20.572   9.164
 1253POPC   GL118757  27.634  20.581   8.864
 1253POPC   GL218758  27.613  20.771   8.864
 1253POPC   C1A18759  27.549  20.566   8.564
 1253POPC   D2A18760  27.598  20.578   8.264
 1253POPC   C3A18761  27.582  20.657   7.964
 1253POPC   C4A18762  27.597  20.624   7.664
 1253POPC   C1B18763  27.696  20.871   8.564
 1253POPC   C2B18764  27.610  20.823   8.264
 1253POPC   C3B18765  27.628  20.900   7.964
 1253POPC   C4B18766  27.691  20.811   7.664
 1254POPC   NC318767  31.496   3.511   9.464
 1254POPC   PO418768  31.515   3.541   9.164
 1254POPC   GL118769  31.435   3.565   8.864
 1254POPC   GL218770  31.301   3.533   8.864
 1254POPC   C1A18771  31.517   3.582   8.564
 1254POPC   D2A18772  31.497   3.507   8.264
 1254POPC   C3A18773  31.425   3.557   7.964
 1254POPC   C4A18774  31.481   3.554   7.664
 1254POPC   C1B18775  31.191   3.576   8.564
 1254POPC   C2B18776  31.188   3.555   8.264
 1254POPC   C3B18777  31.271   3.545   7.964
 1254POPC   C4B18778  31.174   3.536   7.664
 1255POPC   NC318779  11.308   9.727   9.464
 1255POPC   PO418780  11.251   9.735   9.164
 1255POPC   GL118781  11.291   9.755   8.864
 1255POPC   GL218782  11.224   9.740   8.864
 1255POPC   C1A18783  11.318   9.725   8.564
 1255POPC   D2A18784  11.298   9.774   8.264
 1255POPC   C3A18785  11.286   9.736   7.964
 1255POPC   C4A18786  11.285   9.706   7.664
 1255POPC   C1B18787  11.094   9.661   8.564
 1255POPC   C2B18788  11.074   9.732   8.264
 1255POPC   C3B18789  11.027   9.722   7.964
 1255POPC   C4B18790  11.094   9.686   7.664
 1256POPC   NC318791  43.131   5.082   9.464
 1256POPC   PO418792  43.082   5.046   9.164
 1256POPC   GL118793  43.131   5.103   8.864
 1256POPC   GL218794  43.206   5.142   8.864
 1256POPC   C1A18795  43.073   5.094   8.564
 1256POPC   D2A18796  43.111   5.122   8.264
 1256POPC   C3A18797  43.126   5.062   7.964
 1256POPC   C4A18798  43.104   5.085   7.664
 1256POPC   C1B18799  43.301   5.182   8.564
 1256POPC   C2B18800  43.363   5.231   8.264
 1256POPC   C3B18801  43.364   5.185   7.964
 1256POPC   C4B18802  43.369   5.180   7.664
 1257POPC   NC318803  22.949  20.569   9.464
 1257POPC   PO418804  22.960  20.566   9.164
 1257POPC   GL118805  22.896  20.659   8.864
 1257POPC   GL218806  23.014  20.503   8.864
 1257POPC   C1A18807  22.953  20.632   8.564
 1257POPC   D2A18808  22.983  20.650   8.264
 1257POPC   C3A18809  22.905  20.623   7.964
 1257POPC   C4A18810  22.889  20.583   7.664
 1257POPC   C1B18811  23.076  20.471   8.564
 1257POPC   C2B18812  23.152  20.407   8.264
 1257POPC   C3B18813  23.088  20.465   7.964
 1257POPC   C4B18814  23.135  20.401   7.664
 1258POPC   NC318815   2.795  32.207   9.464
 1258POPC   PO418816   2.781  32.264   9.164
 1258POPC   GL118817   2.763  32.215   8.864
 1258POPC   GL218818   2.871  32.163   8.864
 1258POPC   C1A18819   2.720  32.236   8.564
 1258POPC   D2A18820   2.725  32.202   8.264
 1258POPC   C3A18821   2.769  32.262   7.964
 1258POPC   C4A18822   2.764  32.219   7.664
 1258POPC   C1B18823   2.909  32.070   8.564
 1258POPC   C2B18824   2.905  32.031   8.264
 1258POPC   C3B18825   2.928  32.030   7.964
 1258POPC   C4B18826   2.921  32.089   7.664
 1259POPC   NC318827  11.327  27.631   9.464
 1259POPC   PO418828  11.268  27.624   9.164
 1259POPC   GL118829  11.348  27.584   8.864
 1259POPC   GL218830  11.328  27.494   8.864
 1259POPC   C1A18831  11.261  27.636   8.564
 1259POPC   D2A18832  11.269  27.640   8.264
 1259POPC   C3A18833  11.256  27.564   7.964
 1259POPC   C4A18834  11.328  27.633   7.664
 1259POPC   C1B18835  11.356  27.379   8.564
 1259POPC   C2B18836  11.309  27.393   8.264
 1259POPC   C3B18837  11.345  27.362   7.964
 1259POPC   C4B18838  11.336  27.359   7.664
 1260POPC   NC318839  22.973  26.020   9.464
 1260POPC   PO418840  22.888  26.009   9.164
 1260POPC   GL118841  22.958  26.023   8.864
 1260POPC   GL218842  23.042  26.143   8.864
 1260POPC   C1A18843  22.939  26.067   8.564
 1260POPC   D2A18844  22.975  26.005   8.264
 1260POPC   C3A18845  22.898  26.039   7.964
 1260POPC   C4A18846  22.967  26.089   7.664
 1260POPC   C1B18847  23.149  26.201   8.564
 1260POPC   C2B18848  23.097  26.232   8.264
 1260POPC   C3B18849  23.095  26.174   7.964
 1260POPC   C4B18850  23.127  26.264   7.664
 1261POPC   NC318851  33.756  39.258   9.464
 1261POPC   PO418852  33.797  39.278   9.164
 1261POPC   GL118853  33.792  39.215   8.864
 1261POPC   GL218854  33.707  39.229   8.864
 1261POPC   C1A18855  33.782  39.247   8.564
 1261POPC   D2A18856  33.766  39.259   8.264
 1261POPC   C3A18857  33.779  39.192   7.964
 1261POPC   C4A18858  33.777  39.260   7.664
 1261POPC   C1B18859  33.534  39.267   8.564
 1261POPC   C2B18860  33.609  39.331   8.264
 1261POPC   C3B18861  33.570  39.335   7.964
 1261POPC   C4B18862  33.521  39.295   7.664
 1262POPC   NC318863  44.673  29.171   9.464
 1262POPC   PO418864  44.689  29.136   9.164
 1262POPC   GL118865  44.659  29.111   8.864
 1262POPC   GL218866  44.550  29.213   8.864
 1262POPC   C1A18867  44.681  29.143   8.564
 1262POPC   D2A18868  44.633  29.166   8.264
 1262POPC   C3A18869  44.635  29.150   7.964
 1262POPC   C4A18870  44.693  29.142   7.664
 1262POPC   C1B18871  44.523  29.372   8.564
 1262POPC   C2B18872  44.514  29.334   8.264
 1262POPC   C3B18873  44.550  29.394   7.964
 1262POPC   C4B18874  44.566  29.336   7.664
 1263POPC   NC318875  35.349  29.134   9.464
 1263POPC   PO418876  35.391  29.100   9.164
 1263POPC   GL118877  35.384  29.186   8.864
 1263POPC   GL218878  35.306  29.021   8.864
 1263POPC   C1A18879  35.360  29.154   8.564
 1263POPC   D2A18880  35.375  29.191   8.264
 1263POPC   C3A18881  35.353  29.155   7.964
 1263POPC   C4A18882  35.386  29.126   7.664
 1263POPC   C1B18883  35.184  28.945   8.564
 1263POPC   C2B18884  35.193  28.964   8.264
 1263POPC   C3B18885  35.195  28.941   7.964
 1263POPC   C4B18886  35.209  28.894   7.664
 1264POPC   NC318887  33.035  38.444   9.464
 1264POPC   PO418888  33.070  38.421   9.164
 1264POPC   GL118889  33.014  38.448   8.864
 1264POPC   GL218890  33.102  38.609   8.864
 1264POPC   C1A18891  33.057  38.471   8.564
 1264POPC   D2A18892  33.028  38.455   8.264
 1264POPC   C3A18893  32.981  38.475   7.964
 1264POPC   C4A18894  33.047  38.420   7.664
 1264POPC   C1B18895  33.140  38.702   8.564
 1264POPC   C2B18896  33.048  38.726   8.264
 1264POPC   C3B18897  33.098  38.724   7.964
 1264POPC   C4B18898  33.069  38.667   7.664
 1265POPC   NC318899  19.800  29.116   9.464
 1265POPC   PO418900  19.850  29.149   9.164
 1265POPC   GL118901  19.815  29.126   8.864
 1265POPC   GL218902  19.851  29.269   8.864
 1265POPC   C1A18903  19.814  29.115   8.564
 1265POPC   D2A18904  19.796  29.159   8.264
 1265POPC   C3A18905  19.794  29.157   7.964
 1265POPC   C4A18906  19.829  29.137   7.664
 1265POPC   C1B18907  19.921  29.354   8.564
 1265POPC   C2B18908  19.833  29.432   8.264
 1265POPC   C3B18909  19.890  29.357   7.964
 1265POPC   C4B18910  19.892  29.410   7.664
 1266POPC   NC318911  35.398  37.651   9.464
 1266POPC   PO418912  35.346  37.703   9.164
 1266POPC   GL118913  35.355  37.725   8.864
 1266POPC   GL218914  35.306  37.609   8.864
 1266POPC   C1A18915  35.371  37.639   8.564
 1266POPC   D2A18916  35.368  37.680   8.264
 1266POPC   C3A18917  35.358  37.630   7.964
 1266POPC   C4A18918  35.361  37.649   7.664
 1266POPC   C1B18919  35.228  37.454   8.564
 1266POPC   C2B18920  35.223  37.490   8.264
 1266POPC   C3B18921  35.219  37.529   7.964
 1266POPC   C4B18922  35.214  37.517   7.664
 1267POPC   NC318923  44.700  17.482   9.464
 1267POPC   PO418924  44.687  17.541   9.164
 1267POPC   GL118925  44.636  17.496   8.864
 1267POPC   GL218926  44.727  17.386   8.864
 1267POPC   C1A18927  44.672  17.476   8.564
 1267POPC   D2A18928  44.673  17.535   8.264
 1267POPC   C3A18929  44.699  17.486   7.964
 1267POPC   C4A18930  44.672  17.538   7.664
 1267POPC   C1B18931  44.711  17.265   8.564
 1267POPC   C2B18932  44.719  17.305   8.264
 1267POPC   C3B18933  44.754  17.264   7.964
 1267POPC   C4B18934  44.746  17.235   7.664
 1268POPC   NC318935   8.945  31.492   9.464
 1268POPC   PO418936   8.978  31.466   9.164
 1268POPC   GL118937   8.994  31.455   8.864
 1268POPC   GL218938   8.902  31.507   8.864
 1268POPC   C1A18939   8.932  31.468   8.564
 1268POPC   D2A18940   8.992  31.456   8.264
 1268POPC   C3A18941   8.944  31.449   7.964
 1268POPC   C4A18942   8.949  31.431   7.664
 1268POPC   C1B18943   8.739  31.602   8.564
 1268POPC   C2B18944   8.784  31.614   8.264
 1268POPC   C3B18945   8.806  31.623   7.964
 1268POPC   C4B18946   8.749  31.611   7.664
 1269POPC   NC318947  27.612  37.693   9.464
 1269POPC   PO418948  27.572  37.682   9.164
 1269POPC   GL118949  27.553  37.650   8.864
 1269POPC   GL218950  27.586  37.546   8.864
 1269POPC   C1A18951  27.593  37.634   8.564
 1269POPC   D2A18952  27.550  37.666   8.264
 1269POPC   C3A18953  27.562  37.700   7.964
 1269POPC   C4A18954  27.569  37.684   7.664
 1269POPC   C1B18955  27.616  37.479   8.564
 1269POPC   C2B18956  27.558  37.477   8.264
 1269POPC   C3B18957  27.611  37.460   7.964
 1269POPC   C4B18958  27.540  37.399   7.664
 1270POPC   NC318959  10.525  35.341   9.464
 1270POPC   PO418960  10.536  35.348   9.164
 1270POPC   GL118961  10.568  35.393   8.864
 1270POPC   GL218962  10.417  35.318   8.864
 1270POPC   C1A18963  10.551  35.389   8.564
 1270POPC   D2A18964  10.490  35.338   8.264
 1270POPC   C3A18965  10.488  35.304   7.964
 1270POPC   C4A18966  10.550  35.311   7.664
 1270POPC   C1B18967  10.231  35.400   8.564
 1270POPC   C2B18968  10.287  35.306   8.264
 1270POPC   C3B18969  10.323  35.400   7.964
 1270POPC   C4B18970  10.308  35.354   7.664
 1271POPC   NC318971  12.083  11.264   9.464
 1271POPC   PO418972  12.097  11.323   9.164
 1271POPC   GL118973  12.088  11.325   8.864
 1271POPC   GL218974  12.040  11.178   8.864
 1271POPC   C1A18975  12.044  11.332   8.564
 1271POPC   D2A18976  12.078  11.314   8.264
 1271POPC   C3A18977  12.045  11.302   7.964
 1271POPC   C4A18978  12.044  11.268   7.664
 1271POPC   C1B18979  11.947  11.122   8.564
 1271POPC   C2B18980  11.948  11.088   8.264
 1271POPC   C3B18981  11.927  11.099   7.964
 1271POPC   C4B18982  11.901  11.119   7.664
 1272POPC   NC318983  30.648   7.373   9.464
 1272POPC   PO418984  30.715   7.408   9.164
 1272POPC   GL118985  30.736   7.467   8.864
 1272POPC   GL218986  30.544   7.496   8.864
 1272POPC   C1A18987  30.728   7.401   8.564
 1272POPC   D2A18988  30.685   7.405   8.264
 1272POPC   C3A18989  30.650   7.389   7.964
 1272POPC   C4A18990  30.720   7.430   7.664
 1272POPC   C1B18991  30.472   7.479   8.564
 1272POPC   C2B18992  30.494   7.476   8.264
 1272POPC   C3B18993  30.471   7.515   7.964
 1272POPC   C4B18994  30.448   7.494   7.664
 1273POPC   NC318995  17.543  35.388   9.464
 1273POPC   PO418996  17.531  35.368   9.164
 1273POPC   GL118997  17.526  35.382   8.864
 1273POPC   GL218998  17.394  35.291   8.864
 1273POPC   C1A18999  17.529  35.390   8.564
 1273POPC   D2A19000  17.465  35.378   8.264
 1273POPC   C3A19001  17.477  35.355   7.964
 1273POPC   C4A19002  17.527  35.360   7.664
 1273POPC   C1B19003  17.299  35.130   8.564
 1273POPC   C2B19004  17.382  35.198   8.264
 1273POPC   C3B19005  17.353  35.130   7.964
 1273POPC   C4B19006  17.313  35.166   7.664
 1274POPC   NC319007  31.486  36.924   9.464
 1274POPC   PO419008  31.499  36.920   9.164
 1274POPC   GL119009  31.503  36.949   8.864
 1274POPC   GL219010  31.349  36.976   8.864
 1274POPC   C1A19011  31.428  36.912   8.564
 1274POPC   D2A19012  31.502  36.856   8.264
 1274POPC   C3A19013  31.518  36.933   7.964
 1274POPC   C4A19014  31.424  36.935   7.664
 1274POPC   C1B19015  31.226  37.045   8.564
 1274POPC   C2B19016  31.234  36.992   8.264
 1274POPC   C3B19017  31.195  36.982   7.964
 1274POPC   C4B19018  31.263  37.016   7.664
 1275POPC   NC319019  27.579  27.630   9.464
 1275POPC   PO419020  27.627  27.555   9.164
 1275POPC   GL119021  27.583  27.555   8.864
 1275POPC   GL219022  27.716  27.583   8.864
 1275POPC   C1A19023  27.604  27.578   8.564
 1275POPC   D2A19024  27.639  27.633   8.264
 1275POPC   C3A19025  27.620  27.576   7.964
 1275POPC   C4A19026  27.616  27.562   7.664
 1275POPC   C1B19027  27.849  27.645   8.564
 1275POPC   C2B19028  27.892  27.647   8.264
 1275POPC   C3B19029  27.889  27.608   7.964
 1275POPC   C4B19030  27.880  27.572   7.664
 1276POPC   NC319031   0.409  26.033   9.464
 1276POPC   PO419032   0.411  26.028   9.164
 1276POPC   GL119033   0.412  26.050   8.864
 1276POPC   GL219034   0.542  26.046   8.864
 1276POPC   C1A19035   0.392  26.084   8.564
 1276POPC   D2A19036   0.419  26.024   8.264
 1276POPC   C3A19037   0.445  26.030   7.964
 1276POPC   C4A19038   0.458  26.082   7.664
 1276POPC   C1B19039   0.686  25.994   8.564
 1276POPC   C2B19040   0.694  25.960   8.264
 1276POPC   C3B19041   0.645  25.993   7.964
 1276POPC   C4B19042   0.681  25.954   7.664
 1277POPC   NC319043   2.751   8.154   9.464
 1277POPC   PO419044   2.749   8.155   9.164
 1277POPC   GL119045   2.720   8.197   8.864
 1277POPC   GL219046   2.825   8.115   8.864
 1277POPC   C1A19047   2.785   8.166   8.564
 1277POPC   D2A19048   2.721   8.167   8.264
 1277POPC   C3A19049   2.765   8.157   7.964
 1277POPC   C4A19050   2.751   8.243   7.664
 1277POPC   C1B19051   2.778   7.957   8.564
 1277POPC   C2B19052   2.829   7.927   8.264
 1277POPC   C3B19053   2.792   7.996   7.964
 1277POPC   C4B19054   2.793   7.929   7.664
 1278POPC   NC319055   2.801  35.360   9.464
 1278POPC   PO419056   2.738  35.355   9.164
 1278POPC   GL119057   2.760  35.400   8.864
 1278POPC   GL219058   2.711  35.278   8.864
 1278POPC   C1A19059   2.725  35.348   8.564
 1278POPC   D2A19060   2.764  35.366   8.264
 1278POPC   C3A19061   2.742  35.373   7.964
 1278POPC   C4A19062   2.769  35.385   7.664
 1278POPC   C1B19063   2.701  35.069   8.564
 1278POPC   C2B19064   2.732  35.137   8.264
 1278POPC   C3B19065   2.755  35.126   7.964
 1278POPC   C4B19066   2.683  35.113   7.664
 1279POPC   NC319067  40.025  31.481   9.464
 1279POPC   PO419068  39.975  31.447   9.164
 1279POPC   GL119069  39.971  31.453   8.864
 1279POPC   GL219070  39.941  31.404   8.864
 1279POPC   C1A19071  40.034  31.427   8.564
 1279POPC   D2A19072  40.051  31.443   8.264
 1279POPC   C3A19073  40.037  31.463   7.964
 1279POPC   C4A19074  39.961  31.499   7.664
 1279POPC   C1B19075  39.787  31.340   8.564
 1279POPC   C2B19076  39.743  31.300   8.264
 1279POPC   C3B19077  39.828  31.348   7.964
 1279POPC   C4B19078  39.776  31.372   7.664
 1280POPC   NC319079  19.070  37.649   9.464
 1280POPC   PO419080  19.084  37.674   9.164
 1280POPC   GL119081  19.068  37.659   8.864
 1280POPC   GL219082  19.156  37.796   8.864
 1280POPC   C1A19083  19.103  37.715   8.564
 1280POPC   D2A19084  19.020  37.723   8.264
 1280POPC   C3A19085  19.025  37.693   7.964
 1280POPC   C4A19086  19.017  37.726   7.664
 1280POPC   C1B19087  19.191  37.865   8.564
 1280POPC   C2B19088  19.249  37.834   8.264
 1280POPC   C3B19089  19.211  37.870   7.964
 1280POPC   C4B19090  19.187  37.832   7.664
 1281POPC   NC319091   0.408  39.964   9.464
 1281POPC   PO419092   0.401  39.996   9.164
 1281POPC   GL119093   0.471  39.979   8.864
 1281POPC   GL219094   0.582  40.079   8.864
 1281POPC   C1A19095   0.459  40.029   8.564
 1281POPC   D2A19096   0.388  39.968   8.264
 1281POPC   C3A19097   0.464  40.022   7.964
 1281POPC   C4A19098   0.444  39.977   7.664
 1281POPC   C1B19099   0.632  40.161   8.564
 1281POPC   C2B19100   0.616  40.188   8.264
 1281POPC   C3B19101   0.644  40.129   7.964
 1281POPC   C4B19102   0.652  40.129   7.664
 1282POPC   NC319103  34.558  20.580   9.464
 1282POPC   PO419104  34.531  20.627   9.164
 1282POPC   GL119105  34.608  20.621   8.864
 1282POPC   GL219106  34.422  20.600   8.864
 1282POPC   C1A19107  34.541  20.608   8.564
 1282POPC   D2A19108  34.549  20.563   8.264
 1282POPC   C3A19109  34.545  20.613   7.964
 1282POPC   C4A19110  34.593  20.619   7.664
 1282POPC   C1B19111  34.321  20.551   8.564
 1282POPC   C2B19112  34.371  20.465   8.264
 1282POPC   C3B19113  34.308  20.467   7.964
 1282POPC   C4B19114  34.316  20.543   7.664
 1283POPC   NC319115  40.813  32.998   9.464
 1283POPC   PO419116  40.760  33.073   9.164
 1283POPC   GL119117  40.776  33.035   8.864
 1283POPC   GL219118  40.624  33.035   8.864
 1283POPC   C1A19119  40.801  33.031   8.564
 1283POPC   D2A19120  40.804  32.998   8.264
 1283POPC   C3A19121  40.773  33.025   7.964
 1283POPC   C4A19122  40.749  33.016   7.664
 1283POPC   C1B19123  40.589  32.999   8.564
 1283POPC   C2B19124  40.509  32.947   8.264
 1283POPC   C3B19125  40.500  32.904   7.964
 1283POPC   C4B19126  40.539  32.997   7.664
 1284POPC   NC319127   1.960  30.670   9.464
 1284POPC   PO419128   1.963  30.677   9.164
 1284POPC   GL119129   2.020  30.729   8.864
 1284POPC   GL219130   2.016  30.553   8.864
 1284POPC   C1A19131   1.971  30.733   8.564
 1284POPC   D2A19132   1.971  30.680   8.264
 1284POPC   C3A19133   2.029  30.713   7.964
 1284POPC   C4A19134   1.982  30.689   7.664
 1284POPC   C1B19135   1.953  30.456   8.564
 1284POPC   C2B19136   1.932  30.446   8.264
 1284POPC   C3B19137   1.903  30.482   7.964
 1284POPC   C4B19138   1.914  30.421   7.664
 1285POPC   NC319139   2.785  17.482   9.464
 1285POPC   PO419140   2.724  17.552   9.164
 1285POPC   GL119141   2.771  17.494   8.864
 1285POPC   GL219142   2.814  17.403   8.864
 1285POPC   C1A19143   2.753  17.499   8.564
 1285POPC   D2A19144   2.801  17.497   8.264
 1285POPC   C3A19145   2.758  17.487   7.964
 1285POPC   C4A19146   2.786  17.479   7.664
 1285POPC   C1B19147   2.753  17.214   8.564
 1285POPC   C2B19148   2.819  17.241   8.264
 1285POPC   C3B19149   2.750  17.236   7.964
 1285POPC   C4B19150   2.773  17.303   7.664
 1286POPC   NC319151  36.120  12.057   9.464
 1286POPC   PO419152  36.083  12.032   9.164
 1286POPC   GL119153  36.142  12.055   8.864
 1286POPC   GL219154  35.984  12.035   8.864
 1286POPC   C1A19155  36.090  12.089   8.564
 1286POPC   D2A19156  36.082  12.081   8.264
 1286POPC   C3A19157  36.154  12.044   7.964
 1286POPC   C4A19158  36.118  12.116   7.664
 1286POPC   C1B19159  35.937  11.889   8.564
 1286POPC   C2B19160  35.965  11.930   8.264
 1286POPC   C3B19161  35.916  11.903   7.964
 1286POPC   C4B19162  35.964  11.881   7.664
 1287POPC   NC319163  37.661  10.514   9.464
 1287POPC   PO419164  37.720  10.546   9.164
 1287POPC   GL119165  37.649  10.565   8.864
 1287POPC   GL219166  37.649  10.626   8.864
 1287POPC   C1A19167  37.690  10.572   8.564
 1287POPC   D2A19168  37.705  10.557   8.264
 1287POPC   C3A19169  37.717  10.565   7.964
 1287POPC   C4A19170  37.684  10.572   7.664
 1287POPC   C1B19171  37.478  10.725   8.564
 1287POPC   C2B19172  37.512  10.740   8.264
 1287POPC   C3B19173  37.479  10.746   7.964
 1287POPC   C4B19174  37.488  10.723   7.664
 1288POPC   NC319175  16.738  16.765   9.464
 1288POPC   PO419176  16.768  16.709   9.164
 1288POPC   GL119177  16.704  16.740   8.864
 1288POPC   GL219178  16.616  16.795   8.864
 1288POPC   C1A19179  16.703  16.710   8.564
 1288POPC   D2A19180  16.778  16.769   8.264
 1288POPC   C3A19181  16.722  16.728   7.964
 1288POPC   C4A19182  16.705  16.774   7.664
 1288POPC   C1B19183  16.532  16.762   8.564
 1288POPC   C2B19184  16.484  16.810   8.264
 1288POPC   C3B19185  16.515  16.776   7.964
 1288POPC   C4B19186  16.446  16.751   7.664
 1289POPC   NC319187   3.538  15.923   9.464
 1289POPC   PO419188   3.580  15.987   9.164
 1289POPC   GL119189   3.588  15.982   8.864
 1289POPC   GL219190   3.489  15.850   8.864
 1289POPC   C1A19191   3.509  15.925   8.564
 1289POPC   D2A19192   3.500  15.918   8.264
 1289POPC   C3A19193   3.542  15.942   7.964
 1289POPC   C4A19194   3.584  15.952   7.664
 1289POPC   C1B19195   3.476  15.683   8.564
 1289POPC   C2B19196   3.483  15.680   8.264
 1289POPC   C3B19197   3.512  15.671   7.964
 1289POPC   C4B19198   3.451  15.732   7.664
 1290POPC   NC319199  35.399  19.098   9.464
 1290POPC   PO419200  35.323  19.046   9.164
 1290POPC   GL119201  35.323  19.037   8.864
 1290POPC   GL219202  35.457  18.926   8.864
 1290POPC   C1A19203  35.391  19.020   8.564
 1290POPC   D2A19204  35.334  19.075   8.264
 1290POPC   C3A19205  35.362  19.017   7.964
 1290POPC   C4A19206  35.336  19.097   7.664
 1290POPC   C1B19207  35.514  18.912   8.564
 1290POPC   C2B19208  35.490  18.870   8.264
 1290POPC   C3B19209  35.552  18.901   7.964
 1290POPC   C4B19210  35.492  18.870   7.664
 1291POPC   NC319211  10.573  12.850   9.464
 1291POPC   PO419212  10.547  12.836   9.164
 1291POPC   GL119213  10.478  12.885   8.864
 1291POPC   GL219214  10.412  12.832   8.864
 1291POPC   C1A19215  10.486  12.850   8.564
 1291POPC   D2A19216  10.492  12.804   8.264
 1291POPC   C3A19217  10.574  12.802   7.964
 1291POPC   C4A19218  10.477  12.846   7.664
 1291POPC   C1B19219  10.243  12.879   8.564
 1291POPC   C2B19220  10.273  12.878   8.264
 1291POPC   C3B19221  10.252  12.874   7.964
 1291POPC   C4B19222  10.304  12.869   7.664
 1292POPC   NC319223  19.037  29.908   9.464
 1292POPC   PO419224  19.052  29.924   9.164
 1292POPC   GL119225  19.018  29.958   8.864
 1292POPC   GL219226  19.041  29.839   8.864
 1292POPC   C1A19227  19.098  29.962   8.564
 1292POPC   D2A19228  19.028  29.920   8.264
 1292POPC   C3A19229  19.057  29.899   7.964
 1292POPC   C4A19230  19.058  29.956   7.664
 1292POPC   C1B19231  19.022  29.669   8.564
 1292POPC   C2B19232  19.020  29.707   8.264
 1292POPC   C3B19233  18.976  29.686   7.964
 1292POPC   C4B19234  18.970  29.709   7.664
 1293POPC   NC319235  22.982  24.452   9.464
 1293POPC   PO419236  22.900  24.480   9.164
 1293POPC   GL119237  22.921  24.527   8.864
 1293POPC   GL219238  23.020  24.582   8.864
 1293POPC   C1A19239  22.903  24.478   8.564
 1293POPC   D2A19240  22.946  24.535   8.264
 1293POPC   C3A19241  22.967  24.531   7.964
 1293POPC   C4A19242  22.932  24.466   7.664
 1293POPC   C1B19243  23.091  24.704   8.564
 1293POPC   C2B19244  23.102  24.682   8.264
 1293POPC   C3B19245  23.075  24.652   7.964
 1293POPC   C4B19246  23.070  24.682   7.664
 1294POPC   NC319247  32.239  29.116   9.464
 1294POPC   PO419248  32.269  29.095   9.164
 1294POPC   GL119249  32.288  29.122   8.864
 1294POPC   GL219250  32.117  29.141   8.864
 1294POPC   C1A19251  32.230  29.173   8.564
 1294POPC   D2A19252  32.293  29.144   8.264
 1294POPC   C3A19253  32.260  29.184   7.964
 1294POPC   C4A19254  32.264  29.095   7.664
 1294POPC   C1B19255  32.042  29.028   8.564
 1294POPC   C2B19256  31.962  29.112   8.264
 1294POPC   C3B19257  32.041  29.071   7.964
 1294POPC   C4B19258  31.962  29.058   7.664
 1295POPC   NC319259  20.642  22.189   9.464
 1295POPC   PO419260  20.632  22.150   9.164
 1295POPC   GL119261  20.570  22.194   8.864
 1295POPC   GL219262  20.457  22.103   8.864
 1295POPC   C1A19263  20.625  22.152   8.564
 1295POPC   D2A19264  20.604  22.183   8.264
 1295POPC   C3A19265  20.585  22.123   7.964
 1295POPC   C4A19266  20.577  22.211   7.664
 1295POPC   C1B19267  20.373  22.066   8.564
 1295POPC   C2B19268  20.390  21.996   8.264
 1295POPC   C3B19269  20.432  22.028   7.964
 1295POPC   C4B19270  20.368  22.040   7.664
 1296POPC   NC319271   8.163  29.922   9.464
 1296POPC   PO419272   8.148  29.959   9.164
 1296POPC   GL119273   8.222  29.951   8.864
 1296POPC   GL219274   8.210  29.787   8.864
 1296POPC   C1A19275   8.183  29.899   8.564
 1296POPC   D2A19276   8.187  29.923   8.264
 1296POPC   C3A19277   8.229  29.902   7.964
 1296POPC   C4A19278   8.221  29.889   7.664
 1296POPC   C1B19279   8.333  29.707   8.564
 1296POPC   C2B19280   8.266  29.671   8.264
 1296POPC   C3B19281   8.251  29.728   7.964
 1296POPC   C4B19282   8.326  29.736   7.664
 1297POPC   NC319283  36.931  23.726   9.464
 1297POPC   PO419284  36.940  23.675   9.164
 1297POPC   GL119285  36.864  23.746   8.864
 1297POPC   GL219286  36.802  23.660   8.864
 1297POPC   C1A19287  36.914  23.718   8.564
 1297POPC   D2A19288  36.928  23.689   8.264
 1297POPC   C3A19289  36.947  23.743   7.964
 1297POPC   C4A19290  36.882  23.748   7.664
 1297POPC   C1B19291  36.729  23.509   8.564
 1297POPC   C2B19292  36.767  23.465   8.264
 1297POPC   C3B19293  36.766  23.517   7.964
 1297POPC   C4B19294  36.714  23.483   7.664
 1298POPC   NC319295  22.199  40.773   9.464
 1298POPC   PO419296  22.175  40.733   9.164
 1298POPC   GL119297  22.113  40.756   8.864
 1298POPC   GL219298  22.197  40.651   8.864
 1298POPC   C1A19299  22.155  40.785   8.564
 1298POPC   D2A19300  22.192  40.756   8.264
 1298POPC   C3A19301  22.203  40.740   7.964
 1298POPC   C4A19302  22.174  40.733   7.664
 1298POPC   C1B19303  22.316  40.544   8.564
 1298POPC   C2B19304  22.286  40.537   8.264
 1298POPC   C3B19305  22.334  40.604   7.964
 1298POPC   C4B19306  22.342  40.546   7.664
 1299POPC   NC319307  13.615  26.051   9.464
 1299POPC   PO419308  13.630  26.019   9.164
 1299POPC   GL119309  13.578  26.085   8.864
 1299POPC   GL219310  13.575  25.988   8.864
 1299POPC   C1A19311  13.651  26.065   8.564
 1299POPC   D2A19312  13.581  26.032   8.264
 1299POPC   C3A19313  13.635  26.004   7.964
 1299POPC   C4A19314  13.676  26.027   7.664
 1299POPC   C1B19315  13.511  25.879   8.564
 1299POPC   C2B19316  13.498  25.830   8.264
 1299POPC   C3B19317  13.488  25.868   7.964
 1299POPC   C4B19318  13.511  25.812   7.664
 1300POPC   NC319319  35.357  24.520   9.464
 1300POPC   PO419320  35.337  24.532   9.164
 1300POPC   GL119321  35.373  24.494   8.864
 1300POPC   GL219322  35.429  24.380   8.864
 1300POPC   C1A19323  35.385  24.463   8.564
 1300POPC   D2A19324  35.369  24.471   8.264
 1300POPC   C3A19325  35.373  24.540   7.964
 1300POPC   C4A19326  35.347  24.453   7.664
 1300POPC   C1B19327  35.519  24.264   8.564
 1300POPC   C2B19328  35.548  24.313   8.264
 1300POPC   C3B19329  35.547  24.284   7.964
 1300POPC   C4B19330  35.498  24.293   7.664
 1301POPC   NC319331  25.308  17.463   9.464
 1301POPC   PO419332  25.251  17.501   9.164
 1301POPC   GL119333  25.250  17.490   8.864
 1301POPC   GL219334  25.124  17.463   8.864
 1301POPC   C1A19335  25.313  17.464   8.564
 1301POPC   D2A19336  25.281  17.461   8.264
 1301POPC   C3A19337  25.298  17.481   7.964
 1301POPC   C4A19338  25.311  17.495   7.664
 1301POPC   C1B19339  25.023  17.398   8.564
 1301POPC   C2B19340  25.033  17.418   8.264
 1301POPC   C3B19341  24.983  17.412   7.964
 1301POPC   C4B19342  25.012  17.464   7.664
 1302POPC   NC319343  39.964   2.748   9.464
 1302POPC   PO419344  39.959   2.793   9.164
 1302POPC   GL119345  39.965   2.795   8.864
 1302POPC   GL219346  39.950   2.656   8.864
 1302POPC   C1A19347  39.979   2.806   8.564
 1302POPC   D2A19348  40.041   2.724   8.264
 1302POPC   C3A19349  40.052   2.754   7.964
 1302POPC   C4A19350  40.045   2.732   7.664
 1302POPC   C1B19351  39.902   2.542   8.564
 1302POPC   C2B19352  39.905   2.519   8.264
 1302POPC   C3B19353  39.912   2.533   7.964
 1302POPC   C4B19354  39.901   2.473   7.664
 1303POPC   NC319355  41.602  38.484   9.464
 1303POPC   PO419356  41.521  38.495   9.164
 1303POPC   GL119357  41.579  38.455   8.864
 1303POPC   GL219358  41.453  38.340   8.864
 1303POPC   C1A19359  41.559  38.443   8.564
 1303POPC   D2A19360  41.516  38.490   8.264
 1303POPC   C3A19361  41.579  38.467   7.964
 1303POPC   C4A19362  41.572  38.414   7.664
 1303POPC   C1B19363  41.350  38.244   8.564
 1303POPC   C2B19364  41.383  38.324   8.264
 1303POPC   C3B19365  41.336  38.248   7.964
 1303POPC   C4B19366  41.360  38.260   7.664
 1304POPC   NC319367   2.743  40.055   9.464
 1304POPC   PO419368   2.757  40.002   9.164
 1304POPC   GL119369   2.787  40.018   8.864
 1304POPC   GL219370   2.918  39.948   8.864
 1304POPC   C1A19371   2.723  40.009   8.564
 1304POPC   D2A19372   2.797  40.014   8.264
 1304POPC   C3A19373   2.740  40.053   7.964
 1304POPC   C4A19374   2.729  39.962   7.664
 1304POPC   C1B19375   2.958  39.862   8.564
 1304POPC   C2B19376   3.028  39.909   8.264
 1304POPC   C3B19377   3.015  39.903   7.964
 1304POPC   C4B19378   2.944  39.861   7.664
 1305POPC   NC319379  27.576  36.117   9.464
 1305POPC   PO419380  27.582  36.133   9.164
 1305POPC   GL119381  27.634  36.160   8.864
 1305POPC   GL219382  27.643  36.246   8.864
 1305POPC   C1A19383  27.598  36.096   8.564
 1305POPC   D2A19384  27.560  36.134   8.264
 1305POPC   C3A19385  27.573  36.169   7.964
 1305POPC   C4A19386  27.608  36.086   7.664
 1305POPC   C1B19387  27.781  36.355   8.564
 1305POPC   C2B19388  27.742  36.318   8.264
 1305POPC   C3B19389  27.781  36.331   7.964
 1305POPC   C4B19390  27.787  36.321   7.664
 1306POPC   NC319391  15.187   5.050   9.464
 1306POPC   PO419392  15.192   5.070   9.164
 1306POPC   GL119393  15.134   5.114   8.864
 1306POPC   GL219394  15.022   5.064   8.864
 1306POPC   C1A19395  15.149   5.095   8.564
 1306POPC   D2A19396  15.169   5.142   8.264
 1306POPC   C3A19397  15.218   5.117   7.964
 1306POPC   C4A19398  15.191   5.067   7.664
 1306POPC   C1B19399  14.958   5.181   8.564
 1306POPC   C2B19400  14.976   5.101   8.264
 1306POPC   C3B19401  14.898   5.122   7.964
 1306POPC   C4B19402  14.923   5.173   7.664
 1307POPC   NC319403  23.678  34.529   9.464
 1307POPC   PO419404  23.743  34.587   9.164
 1307POPC   GL119405  23.751  34.605   8.864
 1307POPC   GL219406  23.865  34.577   8.864
 1307POPC   C1A19407  23.739  34.581   8.564
 1307POPC   D2A19408  23.750  34.570   8.264
 1307POPC   C3A19409  23.665  34.535   7.964
 1307POPC   C4A19410  23.677  34.615   7.664
 1307POPC   C1B19411  23.946  34.527   8.564
 1307POPC   C2B19412  23.999  34.542   8.264
 1307POPC   C3B19413  23.995  34.530   7.964
 1307POPC   C4B19414  23.930  34.544   7.664
 1308POPC   NC319415   5.884  39.957   9.464
 1308POPC   PO419416   5.820  39.989   9.164
 1308POPC   GL119417   5.903  39.985   8.864
 1308POPC   GL219418   5.827  39.869   8.864
 1308POPC   C1A19419   5.820  40.051   8.564
 1308POPC   D2A19420   5.915  39.980   8.264
 1308POPC   C3A19421   5.858  39.993   7.964
 1308POPC   C4A19422   5.821  40.017   7.664
 1308POPC   C1B19423   5.813  39.813   8.564
 1308POPC   C2B19424   5.797  39.820   8.264
 1308POPC   C3B19425   5.819  39.744   7.964
 1308POPC   C4B19426   5.761  39.793   7.664
 1309POPC   NC319427  12.086  16.712   9.464
 1309POPC   PO419428  12.043  16.765   9.164
 1309POPC   GL119429  12.079  16.728   8.864
 1309POPC   GL219430  11.918  16.738   8.864
 1309POPC   C1A19431  12.047  16.714   8.564
 1309POPC   D2A19432  12.085  16.686   8.264
 1309POPC   C3A19433  12.093  16.736   7.964
 1309POPC   C4A19434  12.047  16.729   7.664
 1309POPC   C1B19435  11.814  16.810   8.564
 1309POPC   C2B19436  11.811  16.730   8.264
 1309POPC   C3B19437  11.869  16.798   7.964
 1309POPC   C4B19438  11.864  16.784   7.664
 1310POPC   NC319439  16.708  36.166   9.464
 1310POPC   PO419440  16.714  36.155   9.164
 1310POPC   GL119441  16.688  36.130   8.864
 1310POPC   GL219442  16.828  36.054   8.864
 1310POPC   C1A19443  16.766  36.135   8.564
 1310POPC   D2A19444  16.684  36.159   8.264
 1310POPC   C3A19445  16.746  36.117   7.964
 1310POPC   C4A19446  16.715  36.106   7.664
 1310POPC   C1B19447  16.813  35.946   8.564
 1310POPC   C2B19448  16.868  35.944   8.264
 1310POPC   C3B19449  16.884  35.858   7.964
 1310POPC   C4B19450  16.882  35.875   7.664
 1311POPC   NC319451  32.262  43.902   9.464
 1311POPC   PO419452  32.210  43.927   9.164
 1311POPC   GL119453  32.297  43.841   8.864
 1311POPC   GL219454  32.217  44.041   8.864
 1311POPC   C1A19455  32.205  43.903   8.564
 1311POPC   D2A19456  32.277  43.900   8.264
 1311POPC   C3A19457  32.243  43.851   7.964
 1311POPC   C4A19458  32.277  43.881   7.664
 1311POPC   C1B19459  32.268  44.118   8.564
 1311POPC   C2B19460  32.253  44.122   8.264
 1311POPC   C3B19461  32.283  44.129   7.964
 1311POPC   C4B19462  32.297  44.146   7.664
 1312POPC   NC319463  44.668  15.178   9.464
 1312POPC   PO419464  44.710  15.163   9.164
 1312POPC   GL119465  44.621  15.206   8.864
 1312POPC   GL219466  44.815  15.211   8.864
 1312POPC   C1A19467  44.663  15.139   8.564
 1312POPC   D2A19468  44.695  15.188   8.264
 1312POPC   C3A19469  44.617  15.132   7.964
 1312POPC   C4A19470  44.631  15.227   7.664
 1312POPC   C1B19471  44.905  15.241   8.564
 1312POPC   C2B19472  44.959  15.223   8.264
 1312POPC   C3B19473  44.904  15.221   7.964
 1312POPC   C4B19474  44.918  15.153   7.664
 1313POPC   NC319475  42.335   9.791   9.464
 1313POPC   PO419476  42.303   9.749   9.164
 1313POPC   GL119477  42.351   9.723   8.864
 1313POPC   GL219478  42.263   9.885   8.864
 1313POPC   C1A19479  42.317   9.771   8.564
 1313POPC   D2A19480  42.341   9.711   8.264
 1313POPC   C3A19481  42.300   9.795   7.964
 1313POPC   C4A19482  42.291   9.787   7.664
 1313POPC   C1B19483  42.166   9.948   8.564
 1313POPC   C2B19484  42.168   9.951   8.264
 1313POPC   C3B19485  42.157   9.947   7.964
 1313POPC   C4B19486  42.180   9.935   7.664
 1314POPC   NC319487  33.813   9.738   9.464
 1314POPC   PO419488  33.847   9.765   9.164
 1314POPC   GL119489  33.824   9.718   8.864
 1314POPC   GL219490  33.781   9.660   8.864
 1314POPC   C1A19491  33.804   9.735   8.564
 1314POPC   D2A19492  33.820   9.754   8.264
 1314POPC   C3A19493  33.815   9.725   7.964
 1314POPC   C4A19494  33.821   9.753   7.664
 1314POPC   C1B19495  33.767   9.504   8.564
 1314POPC   C2B19496  33.819   9.545   8.264
 1314POPC   C3B19497  33.791   9.512   7.964
 1314POPC   C4B19498  33.833   9.546   7.664
 1315POPC   NC319499  33.017  12.117   9.464
 1315POPC   PO419500  33.017  12.117   9.164
 1315POPC   GL119501  32.987  12.052   8.864
 1315POPC   GL219502  32.999  11.953   8.864
 1315POPC   C1A19503  32.981  12.093   8.564
 1315POPC   D2A19504  33.061  12.101   8.264
 1315POPC   C3A19505  33.043  12.123   7.964
 1315POPC   C4A19506  33.059  12.085   7.664
 1315POPC   C1B19507  33.031  11.852   8.564
 1315POPC   C2B19508  33.079  11.871   8.264
 1315POPC   C3B19509  33.053  11.811   7.964
 1315POPC   C4B19510  33.059  11.875   7.664
 1316POPC   NC319511  24.517  15.151   9.464
 1316POPC   PO419512  24.527  15.133   9.164
 1316POPC   GL119513  24.514  15.145   8.864
 1316POPC   GL219514  24.488  15.033   8.864
 1316POPC   C1A19515  24.485  15.188   8.564
 1316POPC   D2A19516  24.533  15.173   8.264
 1316POPC   C3A19517  24.486  15.136   7.964
 1316POPC   C4A19518  24.462  15.141   7.664
 1316POPC   C1B19519  24.426  14.895   8.564
 1316POPC   C2B19520  24.488  14.966   8.264
 1316POPC   C3B19521  24.486  14.929   7.964
 1316POPC   C4B19522  24.463  14.958   7.664
 1317POPC   NC319523  36.163   2.777   9.464
 1317POPC   PO419524  36.158   2.811   9.164
 1317POPC   GL119525  36.118   2.776   8.864
 1317POPC   GL219526  35.987   2.818   8.864
 1317POPC   C1A19527  36.147   2.734   8.564
 1317POPC   D2A19528  36.102   2.744   8.264
 1317POPC   C3A19529  36.126   2.725   7.964
 1317POPC   C4A19530  36.172   2.801   7.664
 1317POPC   C1B19531  35.885   2.888   8.564
 1317POPC   C2B19532  35.926   2.939   8.264
 1317POPC   C3B19533  35.940   2.968   7.964
 1317POPC   C4B19534  35.894   2.901   7.664
 1318POPC   NC319535  28.323   1.963   9.464
 1318POPC   PO419536  28.320   1.991   9.164
 1318POPC   GL119537  28.365   2.030   8.864
 1318POPC   GL219538  28.470   1.881   8.864
 1318POPC   C1A19539  28.403   1.947   8.564
 1318POPC   D2A19540  28.330   2.012   8.264
 1318POPC   C3A19541  28.416   1.940   7.964
 1318POPC   C4A19542  28.371   2.012   7.664
 1318POPC   C1B19543  28.599   1.805   8.564
 1318POPC   C2B19544  28.562   1.824   8.264
 1318POPC   C3B19545  28.558   1.890   7.964
 1318POPC   C4B19546  28.525   1.870   7.664
 1319POPC   NC319547  11.269  38.433   9.464
 1319POPC   PO419548  11.276  38.430   9.164
 1319POPC   GL119549  11.317  38.463   8.864
 1319POPC   GL219550  11.339  38.544   8.864
 1319POPC   C1A19551  11.339  38.467   8.564
 1319POPC   D2A19552  11.276  38.451   8.264
 1319POPC   C3A19553  11.257  38.409   7.964
 1319POPC   C4A19554  11.323  38.495   7.664
 1319POPC   C1B19555  11.424  38.671   8.564
 1319POPC   C2B19556  11.487  38.604   8.264
 1319POPC   C3B19557  11.462  38.678   7.964
 1319POPC   C4B19558  11.446  38.639   7.664
 1320POPC   NC319559   3.506  40.796   9.464
 1320POPC   PO419560   3.507  40.806   9.164
 1320POPC   GL119561   3.529  40.751   8.864
 1320POPC   GL219562   3.386  40.699   8.864
 1320POPC   C1A19563   3.566  40.796   8.564
 1320POPC   D2A19564   3.536  40.756   8.264
 1320POPC   C3A19565   3.528  40.734   7.964
 1320POPC   C4A19566   3.502  40.815   7.664
 1320POPC   C1B19567   3.306  40.755   8.564
 1320POPC   C2B19568   3.345  40.729   8.264
 1320POPC   C3B19569   3.327  40.695   7.964
 1320POPC   C4B19570   3.316  40.699   7.664
 1321POPC   NC319571  26.035  16.709   9.464
 1321POPC   PO419572  26.072  16.771   9.164
 1321POPC   GL119573  26.056  16.750   8.864
 1321POPC   GL219574  26.082  16.801   8.864
 1321POPC   C1A19575  25.992  16.734   8.564
 1321POPC   D2A19576  26.005  16.699   8.264
 1321POPC   C3A19577  26.037  16.721   7.964
 1321POPC   C4A19578  26.027  16.725   7.664
 1321POPC   C1B19579  26.124  16.912   8.564
 1321POPC   C2B19580  26.162  16.917   8.264
 1321POPC   C3B19581  26.088  16.920   7.964
 1321POPC   C4B19582  26.119  16.971   7.664
 1322POPC   NC319583   2.032  32.227   9.464
 1322POPC   PO419584   1.964  32.245   9.164
 1322POPC   GL119585   1.964  32.240   8.864
 1322POPC   GL219586   1.991  32.118   8.864
 1322POPC   C1A19587   1.966  32.210   8.564
 1322POPC   D2A19588   1.947  32.239   8.264
 1322POPC   C3A19589   2.030  32.265   7.964
 1322POPC   C4A19590   1.954  32.210   7.664
 1322POPC   C1B19591   2.035  31.997   8.564
 1322POPC   C2B19592   2.010  32.016   8.264
 1322POPC   C3B19593   2.066  32.030   7.964
 1322POPC   C4B19594   2.087  32.032   7.664
 1323POPC   NC319595   7.426  18.239   9.464
 1323POPC   PO419596   7.462  18.324   9.164
 1323POPC   GL119597   7.387  18.292   8.864
 1323POPC   GL219598   7.463  18.425   8.864
 1323POPC   C1A19599   7.376  18.250   8.564
 1323POPC   D2A19600   7.386  18.264   8.264
 1323POPC   C3A19601   7.451  18.279   7.964
 1323POPC   C4A19602   7.420  18.276   7.664
 1323POPC   C1B19603   7.560  18.466   8.564
 1323POPC   C2B19604   7.579  18.467   8.264
 1323POPC   C3B19605   7.510  18.526   7.964
 1323POPC   C4B19606   7.520  18.496   7.664
 1324POPC   NC319607  28.378   6.642   9.464
 1324POPC   PO419608  28.412   6.683   9.164
 1324POPC   GL119609  28.321   6.650   8.864
 1324POPC   GL219610  28.474   6.652   8.864
 1324POPC   C1A19611  28.326   6.598   8.564
 1324POPC   D2A19612  28.382   6.629   8.264
 1324POPC   C3A19613  28.408   6.633   7.964
 1324POPC   C4A19614  28.335   6.674   7.664
 1324POPC   C1B19615  28.641   6.606   8.564
 1324POPC   C2B19616  28.630   6.616   8.264
 1324POPC   C3B19617  28.637   6.610   7.964
 1324POPC   C4B19618  28.578   6.571   7.664
 1325POPC   NC319619  26.793   5.081   9.464
 1325POPC   PO419620  26.809   5.062   9.164
 1325POPC   GL119621  26.832   5.099   8.864
 1325POPC   GL219622  26.760   5.120   8.864
 1325POPC   C1A19623  26.817   5.100   8.564
 1325POPC   D2A19624  26.813   5.088   8.264
 1325POPC   C3A19625  26.831   5.085   7.964
 1325POPC   C4A19626  26.795   5.044   7.664
 1325POPC   C1B19627  26.617   5.276   8.564
 1325POPC   C2B19628  26.564   5.224   8.264
 1325POPC   C3B19629  26.654   5.239   7.964
 1325POPC   C4B19630  26.598   5.209   7.664
 1326POPC   NC319631   4.316  30.711   9.464
 1326POPC   PO419632   4.325  30.678   9.164
 1326POPC   GL119633   4.329  30.697   8.864
 1326POPC   GL219634   4.402  30.661   8.864
 1326POPC   C1A19635   4.320  30.698   8.564
 1326POPC   D2A19636   4.317  30.720   8.264
 1326POPC   C3A19637   4.332  30.651   7.964
 1326POPC   C4A19638   4.327  30.673   7.664
 1326POPC   C1B19639   4.581  30.737   8.564
 1326POPC   C2B19640   4.549  30.690   8.264
 1326POPC   C3B19641   4.541  30.654   7.964
 1326POPC   C4B19642   4.523  30.731   7.664
 1327POPC   NC319643  36.861  30.710   9.464
 1327POPC   PO419644  36.854  30.718   9.164
 1327POPC   GL119645  36.917  30.691   8.864
 1327POPC   GL219646  36.990  30.766   8.864
 1327POPC   C1A19647  36.883  30.699   8.564
 1327POPC   D2A19648  36.908  30.667   8.264
 1327POPC   C3A19649  36.928  30.739   7.964
 1327POPC   C4A19650  36.857  30.663   7.664
 1327POPC   C1B19651  37.117  30.873   8.564
 1327POPC   C2B19652  37.127  30.798   8.264
 1327POPC   C3B19653  37.132  30.832   7.964
 1327POPC   C4B19654  37.070  30.878   7.664
 1328POPC   NC319655  35.302  12.892   9.464
 1328POPC   PO419656  35.364  12.862   9.164
 1328POPC   GL119657  35.342  12.898   8.864
 1328POPC   GL219658  35.305  12.951   8.864
 1328POPC   C1A19659  35.353  12.876   8.564
 1328POPC   D2A19660  35.325  12.855   8.264
 1328POPC   C3A19661  35.319  12.888   7.964
 1328POPC   C4A19662  35.358  12.875   7.664
 1328POPC   C1B19663  35.253  13.112   8.564
 1328POPC   C2B19664  35.255  13.079   8.264
 1328POPC   C3B19665  35.231  13.070   7.964
 1328POPC   C4B19666  35.254  13.074   7.664
 1329POPC   NC319667  21.407   8.221   9.464
 1329POPC   PO419668  21.416   8.193   9.164
 1329POPC   GL119669  21.377   8.154   8.864
 1329POPC   GL219670  21.416   8.323   8.864
 1329POPC   C1A19671  21.341   8.169   8.564
 1329POPC   D2A19672  21.431   8.147   8.264
 1329POPC   C3A19673  21.432   8.200   7.964
 1329POPC   C4A19674  21.371   8.164   7.664
 1329POPC   C1B19675  21.358   8.490   8.564
 1329POPC   C2B19676  21.361   8.448   8.264
 1329POPC   C3B19677  21.413   8.474   7.964
 1329POPC   C4B19678  21.411   8.408   7.664
 1330POPC   NC319679  30.677  18.286   9.464
 1330POPC   PO419680  30.653  18.287   9.164
 1330POPC   GL119681  30.693  18.294   8.864
 1330POPC   GL219682  30.818  18.312   8.864
 1330POPC   C1A19683  30.655  18.323   8.564
 1330POPC   D2A19684  30.652  18.316   8.264
 1330POPC   C3A19685  30.697  18.263   7.964
 1330POPC   C4A19686  30.679  18.329   7.664
 1330POPC   C1B19687  30.986  18.260   8.564
 1330POPC   C2B19688  30.937  18.263   8.264
 1330POPC   C3B19689  30.981  18.242   7.964
 1330POPC   C4B19690  30.900  18.295   7.664
 1331POPC   NC319691  15.138   8.999   9.464
 1331POPC   PO419692  15.227   9.016   9.164
 1331POPC   GL119693  15.204   8.923   8.864
 1331POPC   GL219694  15.149   9.065   8.864
 1331POPC   C1A19695  15.175   8.938   8.564
 1331POPC   D2A19696  15.191   8.954   8.264
 1331POPC   C3A19697  15.227   9.010   7.964
 1331POPC   C4A19698  15.194   8.933   7.664
 1331POPC   C1B19699  15.076   9.187   8.564
 1331POPC   C2B19700  15.031   9.148   8.264
 1331POPC   C3B19701  15.068   9.172   7.964
 1331POPC   C4B19702  15.038   9.225   7.664
 1332POPC   NC319703  12.101  36.858   9.464
 1332POPC   PO419704  12.084  36.904   9.164
 1332POPC   GL119705  12.026  36.863   8.864
 1332POPC   GL219706  12.161  36.901   8.864
 1332POPC   C1A19707  12.039  36.898   8.564
 1332POPC   D2A19708  12.118  36.901   8.264
 1332POPC   C3A19709  12.052  36.869   7.964
 1332POPC   C4A19710  12.111  36.880   7.664
 1332POPC   C1B19711  12.336  36.974   8.564
 1332POPC   C2B19712  12.318  36.924   8.264
 1332POPC   C3B19713  12.311  36.980   7.964
 1332POPC   C4B19714  12.305  36.974   7.664
 1333POPC   NC319715  42.332  42.342   9.464
 1333POPC   PO419716  42.337  42.310   9.164
 1333POPC   GL119717  42.337  42.372   8.864
 1333POPC   GL219718  42.293  42.279   8.864
 1333POPC   C1A19719  42.364  42.310   8.564
 1333POPC   D2A19720  42.355  42.362   8.264
 1333POPC   C3A19721  42.352  42.293   7.964
 1333POPC   C4A19722  42.383  42.305   7.664
 1333POPC   C1B19723  42.180  42.131   8.564
 1333POPC   C2B19724  42.166  42.157   8.264
 1333POPC   C3B19725  42.195  42.143   7.964
 1333POPC   C4B19726  42.220  42.092   7.664
 1334POPC   NC319727  42.343  37.658   9.464
 1334POPC   PO419728  42.332  37.676   9.164
 1334POPC   GL119729  42.378  37.685   8.864
 1334POPC   GL219730  42.410  37.610   8.864
 1334POPC   C1A19731  42.357  37.713   8.564
 1334POPC   D2A19732  42.306  37.714   8.264
 1334POPC   C3A19733  42.312  37.656   7.964
 1334POPC   C4A19734  42.373  37.699   7.664
 1334POPC   C1B19735  42.496  37.533   8.564
 1334POPC   C2B19736  42.493  37.524   8.264
 1334POPC   C3B19737  42.542  37.472   7.964
 1334POPC   C4B19738  42.518  37.502   7.664
 1335POPC   NC319739  38.474  40.743   9.464
 1335POPC   PO419740  38.415  40.747   9.164
 1335POPC   GL119741  38.465  40.792   8.864
 1335POPC   GL219742  38.373  40.892   8.864
 1335POPC   C1A19743  38.448  40.819   8.564
 1335POPC   D2A19744  38.434  40.739   8.264
 1335POPC   C3A19745  38.468  40.766   7.964
 1335POPC   C4A19746  38.461  40.791   7.664
 1335POPC   C1B19747  38.361  41.045   8.564
 1335POPC   C2B19748  38.311  40.987   8.264
 1335POPC   C3B19749  38.366  41.022   7.964
 1335POPC   C4B19750  38.351  40.972   7.664
 1336POPC   NC319751  22.200  21.347   9.464
 1336POPC   PO419752  22.202  21.348   9.164
 1336POPC   GL119753  22.160  21.381   8.864
 1336POPC   GL219754  22.274  21.331   8.864
 1336POPC   C1A19755  22.186  21.396   8.564
 1336POPC   D2A19756  22.114  21.370   8.264
 1336POPC   C3A19757  22.188  21.373   7.964
 1336POPC   C4A19758  22.171  21.409   7.664
 1336POPC   C1B19759  22.384  21.271   8.564
 1336POPC   C2B19760  22.381  21.294   8.264
 1336POPC   C3B19761  22.358  21.259   7.964
 1336POPC   C4B19762  22.414  21.270   7.664
 1337POPC   NC319763  18.300  17.529   9.464
 1337POPC   PO419764  18.239  17.462   9.164
 1337POPC   GL119765  18.281  17.529   8.864
 1337POPC   GL219766  18.258  17.401   8.864
 1337POPC   C1A19767  18.280  17.472   8.564
 1337POPC   D2A19768  18.293  17.539   8.264
 1337POPC   C3A19769  18.250  17.548   7.964
 1337POPC   C4A19770  18.259  17.463   7.664
 1337POPC   C1B19771  18.161  17.279   8.564
 1337POPC   C2B19772  18.217  17.259   8.264
 1337POPC   C3B19773  18.255  17.261   7.964
 1337POPC   C4B19774  18.227  17.241   7.664
 1338POPC   NC319775   0.481  15.915   9.464
 1338POPC   PO419776   0.483  15.983   9.164
 1338POPC   GL119777   0.444  16.002   8.864
 1338POPC   GL219778   0.567  15.973   8.864
 1338POPC   C1A19779   0.427  15.920   8.564
 1338POPC   D2A19780   0.450  15.941   8.264
 1338POPC   C3A19781   0.473  15.968   7.964
 1338POPC   C4A19782   0.417  16.000   7.664
 1338POPC   C1B19783   0.661  15.932   8.564
 1338POPC   C2B19784   0.662  15.940   8.264
 1338POPC   C3B19785   0.644  15.918   7.964
 1338POPC   C4B19786   0.644  15.896   7.664
 1339POPC   NC319787  29.955   6.615   9.464
 1339POPC   PO419788  29.956   6.669   9.164
 1339POPC   GL119789  29.883   6.677   8.864
 1339POPC   GL219790  29.755   6.693   8.864
 1339POPC   C1A19791  29.935   6.607   8.564
 1339POPC   D2A19792  29.903   6.636   8.264
 1339POPC   C3A19793  29.928   6.631   7.964
 1339POPC   C4A19794  29.900   6.664   7.664
 1339POPC   C1B19795  29.647   6.697   8.564
 1339POPC   C2B19796  29.703   6.662   8.264
 1339POPC   C3B19797  29.672   6.669   7.964
 1339POPC   C4B19798  29.651   6.659   7.664
 1340POPC   NC319799  12.061  26.034   9.464
 1340POPC   PO419800  12.059  26.010   9.164
 1340POPC   GL119801  12.031  26.034   8.864
 1340POPC   GL219802  12.122  26.187   8.864
 1340POPC   C1A19803  12.084  26.017   8.564
 1340POPC   D2A19804  12.029  26.053   8.264
 1340POPC   C3A19805  12.057  26.051   7.964
 1340POPC   C4A19806  12.075  26.026   7.664
 1340POPC   C1B19807  12.211  26.250   8.564
 1340POPC   C2B19808  12.217  26.228   8.264
 1340POPC   C3B19809  12.179  26.284   7.964
 1340POPC   C4B19810  12.182  26.270   7.664
 1341POPC   NC319811  26.045   9.743   9.464
 1341POPC   PO419812  26.036   9.788   9.164
 1341POPC   GL119813  26.020   9.705   8.864
 1341POPC   GL219814  25.917   9.714   8.864
 1341POPC   C1A19815  26.054   9.774   8.564
 1341POPC   D2A19816  26.070   9.717   8.264
 1341POPC   C3A19817  26.055   9.760   7.964
 1341POPC   C4A19818  26.038   9.765   7.664
 1341POPC   C1B19819  25.791   9.752   8.564
 1341POPC   C2B19820  25.812   9.751   8.264
 1341POPC   C3B19821  25.787   9.818   7.964
 1341POPC   C4B19822  25.744   9.806   7.664
 1342POPC   NC319823  31.484  43.879   9.464
 1342POPC   PO419824  31.444  43.918   9.164
 1342POPC   GL119825  31.487  43.936   8.864
 1342POPC   GL219826  31.450  43.770   8.864
 1342POPC   C1A19827  31.467  43.845   8.564
 1342POPC   D2A19828  31.519  43.936   8.264
 1342POPC   C3A19829  31.501  43.859   7.964
 1342POPC   C4A19830  31.454  43.851   7.664
 1342POPC   C1B19831  31.463  43.639   8.564
 1342POPC   C2B19832  31.436  43.594   8.264
 1342POPC   C3B19833  31.431  43.644   7.964
 1342POPC   C4B19834  31.484  43.607   7.664
 1343POPC   NC319835  20.579   7.418   9.464
 1343POPC   PO419836  20.612   7.470   9.164
 1343POPC   GL119837  20.571   7.416   8.864
 1343POPC   GL219838  20.476   7.375   8.864
 1343POPC   C1A19839  20.595   7.376   8.564
 1343POPC   D2A19840  20.643   7.384   8.264
 1343POPC   C3A19841  20.599   7.392   7.964
 1343POPC   C4A19842  20.659   7.396   7.664
 1343POPC   C1B19843  20.390   7.348   8.564
 1343POPC   C2B19844  20.405   7.256   8.264
 1343POPC   C3B19845  20.383   7.307   7.964
 1343POPC   C4B19846  20.355   7.340   7.664
 1344POPC   NC319847  26.044  40.768   9.464
 1344POPC   PO419848  26.059  40.742   9.164
 1344POPC   GL119849  26.060  40.772   8.864
 1344POPC   GL219850  26.043  40.667   8.864
 1344POPC   C1A19851  26.067  40.788   8.564
 1344POPC   D2A19852  26.052  40.798   8.264
 1344POPC   C3A19853  26.077  40.818   7.964
 1344POPC   C4A19854  26.014  40.767   7.664
 1344POPC   C1B19855  25.993  40.576   8.564
 1344POPC   C2B19856  25.982  40.558   8.264
 1344POPC   C3B19857  26.008  40.526   7.964
 1344POPC   C4B19858  25.932  40.540   7.664
 1345POPC   NC319859  19.104  40.742   9.464
 1345POPC   PO419860  19.023  40.779   9.164
 1345POPC   GL119861  19.072  40.764   8.864
 1345POPC   GL219862  19.162  40.871   8.864
 1345POPC   C1A19863  19.032  40.813   8.564
 1345POPC   D2A19864  19.071  40.814   8.264
 1345POPC   C3A19865  19.098  40.758   7.964
 1345POPC   C4A19866  19.070  40.811   7.664
 1345POPC   C1B19867  19.256  40.973   8.564
 1345POPC   C2B19868  19.236  41.005   8.264
 1345POPC   C3B19869  19.174  40.992   7.964
 1345POPC   C4B19870  19.203  41.009   7.664
 1346POPC   NC319871  12.896   5.128   9.464
 1346POPC   PO419872  12.821   5.046   9.164
 1346POPC   GL119873  12.879   5.133   8.864
 1346POPC   GL219874  12.784   5.202   8.864
 1346POPC   C1A19875  12.814   5.111   8.564
 1346POPC   D2A19876  12.874   5.121   8.264
 1346POPC   C3A19877  12.898   5.044   7.964
 1346POPC   C4A19878  12.867   5.097   7.664
 1346POPC   C1B19879  12.620   5.219   8.564
 1346POPC   C2B19880  12.617   5.269   8.264
 1346POPC   C3B19881  12.641   5.202   7.964
 1346POPC   C4B19882  12.695   5.229   7.664
 1347POPC   NC319883  43.857  37.674   9.464
 1347POPC   PO419884  43.921  37.691   9.164
 1347POPC   GL119885  43.840  37.696   8.864
 1347POPC   GL219886  43.894  37.839   8.864
 1347POPC   C1A19887  43.929  37.694   8.564
 1347POPC   D2A19888  43.852  37.672   8.264
 1347POPC   C3A19889  43.883  37.707   7.964
 1347POPC   C4A19890  43.889  37.722   7.664
 1347POPC   C1B19891  43.771  37.922   8.564
 1347POPC   C2B19892  43.806  37.908   8.264
 1347POPC   C3B19893  43.805  37.897   7.964
 1347POPC   C4B19894  43.764  37.955   7.664
 1348POPC   NC319895  18.252   1.962   9.464
 1348POPC   PO419896  18.271   1.970   9.164
 1348POPC   GL119897  18.270   1.981   8.864
 1348POPC   GL219898  18.164   2.067   8.864
 1348POPC   C1A19899  18.236   1.958   8.564
 1348POPC   D2A19900  18.274   1.968   8.264
 1348POPC   C3A19901  18.253   1.951   7.964
 1348POPC   C4A19902  18.281   2.034   7.664
 1348POPC   C1B19903  18.125   2.186   8.564
 1348POPC   C2B19904  18.108   2.159   8.264
 1348POPC   C3B19905  18.125   2.114   7.964
 1348POPC   C4B19906  18.037   2.102   7.664
 1349POPC   NC319907   8.172  12.892   9.464
 1349POPC   PO419908   8.195  12.848   9.164
 1349POPC   GL119909   8.233  12.843   8.864
 1349POPC   GL219910   8.282  12.889   8.864
 1349POPC   C1A19911   8.218  12.819   8.564
 1349POPC   D2A19912   8.174  12.875   8.264
 1349POPC   C3A19913   8.179  12.869   7.964
 1349POPC   C4A19914   8.178  12.871   7.664
 1349POPC   C1B19915   8.407  12.900   8.564
 1349POPC   C2B19916   8.491  12.850   8.264
 1349POPC   C3B19917   8.491  12.934   7.964
 1349POPC   C4B19918   8.450  12.910   7.664
 1350POPC   NC319919   5.829  25.271   9.464
 1350POPC   PO419920   5.898  25.286   9.164
 1350POPC   GL119921   5.829  25.291   8.864
 1350POPC   GL219922   5.751  25.209   8.864
 1350POPC   C1A19923   5.839  25.248   8.564
 1350POPC   D2A19924   5.853  25.242   8.264
 1350POPC   C3A19925   5.892  25.261   7.964
 1350POPC   C4A19926   5.850  25.280   7.664
 1350POPC   C1B19927   5.628  25.177   8.564
 1350POPC   C2B19928   5.603  25.270   8.264
 1350POPC   C3B19929   5.648  25.212   7.964
 1350POPC   C4B19930   5.592  25.207   7.664
 1351POPC   NC319931  15.930   1.177   9.464
 1351POPC   PO419932  15.983   1.232   9.164
 1351POPC   GL119933  15.917   1.234   8.864
 1351POPC   GL219934  16.093   1.193   8.864
 1351POPC   C1A19935  16.005   1.199   8.564
 1351POPC   D2A19936  15.939   1.216   8.264
 1351POPC   C3A19937  15.988   1.216   7.964
 1351POPC   C4A19938  15.926   1.221   7.664
 1351POPC   C1B19939  16.159   1.158   8.564
 1351POPC   C2B19940  16.217   1.180   8.264
 1351POPC   C3B19941  16.157   1.235   7.964
 1351POPC   C4B19942  16.222   1.247   7.664
 1352POPC   NC319943   1.241   8.231   9.464
 1352POPC   PO419944   1.191   8.240   9.164
 1352POPC   GL119945   1.165   8.245   8.864
 1352POPC   GL219946   1.290   8.096   8.864
 1352POPC   C1A19947   1.258   8.194   8.564
 1352POPC   D2A19948   1.208   8.157   8.264
 1352POPC   C3A19949   1.185   8.211   7.964
 1352POPC   C4A19950   1.170   8.187   7.664
 1352POPC   C1B19951   1.301   7.920   8.564
 1352POPC   C2B19952   1.285   7.953   8.264
 1352POPC   C3B19953   1.280   7.920   7.964
 1352POPC   C4B19954   1.335   7.959   7.664
 1353POPC   NC319955  40.011   4.357   9.464
 1353POPC   PO419956  40.035   4.314   9.164
 1353POPC   GL119957  39.990   4.277   8.864
 1353POPC   GL219958  39.940   4.227   8.864
 1353POPC   C1A19959  39.991   4.305   8.564
 1353POPC   D2A19960  40.032   4.345   8.264
 1353POPC   C3A19961  40.034   4.270   7.964
 1353POPC   C4A19962  40.037   4.279   7.664
 1353POPC   C1B19963  39.850   4.176   8.564
 1353POPC   C2B19964  39.774   4.156   8.264
 1353POPC   C3B19965  39.867   4.140   7.964
 1353POPC   C4B19966  39.785   4.147   7.664
 1354POPC   NC319967   5.859  15.215   9.464
 1354POPC   PO419968   5.881  15.212   9.164
 1354POPC   GL119969   5.862  15.181   8.864
 1354POPC   GL219970   5.895  15.050   8.864
 1354POPC   C1A19971   5.913  15.222   8.564
 1354POPC   D2A19972   5.820  15.186   8.264
 1354POPC   C3A19973   5.887  15.131   7.964
 1354POPC   C4A19974   5.841  15.212   7.664
 1354POPC   C1B19975   5.917  14.954   8.564
 1354POPC   C2B19976   5.906  14.978   8.264
 1354POPC   C3B19977   5.930  14.899   7.964
 1354POPC   C4B19978   5.887  14.959   7.664
 1355POPC   NC319979  13.590  19.800   9.464
 1355POPC   PO419980  13.629  19.869   9.164
 1355POPC   GL119981  13.672  19.824   8.864
 1355POPC   GL219982  13.645  19.706   8.864
 1355POPC   C1A19983  13.588  19.809   8.564
 1355POPC   D2A19984  13.602  19.818   8.264
 1355POPC   C3A19985  13.676  19.846   7.964
 1355POPC   C4A19986  13.581  19.861   7.664
 1355POPC   C1B19987  13.674  19.568   8.564
 1355POPC   C2B19988  13.689  19.566   8.264
 1355POPC   C3B19989  13.739  19.622   7.964
 1355POPC   C4B19990  13.690  19.562   7.664
 1356POPC   NC319991   8.161  43.145   9.464
 1356POPC   PO419992   8.211  43.062   9.164
 1356POPC   GL119993   8.235  43.138   8.864
 1356POPC   GL219994   8.222  42.969   8.864
 1356POPC   C1A19995   8.196  43.126   8.564
 1356POPC   D2A19996   8.237  43.134   8.264
 1356POPC   C3A19997   8.159  43.130   7.964
 1356POPC   C4A19998   8.233  43.105   7.664
 1356POPC   C1B19999   8.284  42.911   8.564
 1356POPC   C2B20000   8.255  42.873   8.264
 1356POPC   C3B20001   8.314  42.831   7.964
 1356POPC   C4B20002   8.237  42.853   7.664
 1357POPC   NC320003  43.130   1.210   9.464
 1357POPC   PO420004  43.150   1.230   9.164
 1357POPC   GL120005  43.141   1.188   8.864
 1357POPC   GL220006  43.053   1.122   8.864
 1357POPC   C1A20007  43.115   1.235   8.564
 1357POPC   D2A20008  43.114   1.249   8.264
 1357POPC   C3A20009  43.114   1.235   7.964
 1357POPC   C4A20010  43.107   1.225   7.664
 1357POPC   C1B20011  42.918   1.069   8.564
 1357POPC   C2B20012  42.887   1.023   8.264
 1357POPC   C3B20013  42.959   1.107   7.964
 1357POPC   C4B20014  42.938   1.018   7.664
 1358POPC   NC320015  15.952  19.868   9.464
 1358POPC   PO420016  15.951  19.795   9.164
 1358POPC   GL120017  15.962  19.842   8.864
 1358POPC   GL220018  15.956  19.982   8.864
 1358POPC   C1A20019  15.988  19.798   8.564
 1358POPC   D2A20020  15.912  19.820   8.264
 1358POPC   C3A20021  15.934  19.792   7.964
 1358POPC   C4A20022  15.929  19.868   7.664
 1358POPC   C1B20023  15.982  20.117   8.564
 1358POPC   C2B20024  15.959  20.073   8.264
 1358POPC   C3B20025  15.986  20.074   7.964
 1358POPC   C4B20026  15.942  20.050   7.664
 1359POPC   NC320027  13.633  36.916   9.464
 1359POPC   PO420028  13.648  36.876   9.164
 1359POPC   GL120029  13.634  36.915   8.864
 1359POPC   GL220030  13.599  37.019   8.864
 1359POPC   C1A20031  13.613  36.864   8.564
 1359POPC   D2A20032  13.596  36.907   8.264
 1359POPC   C3A20033  13.611  36.894   7.964
 1359POPC   C4A20034  13.653  36.912   7.664
 1359POPC   C1B20035  13.487  37.154   8.564
 1359POPC   C2B20036  13.491  37.120   8.264
 1359POPC   C3B20037  13.535  37.082   7.964
 1359POPC   C4B20038  13.534  37.143   7.664
 1360POPC   NC320039  14.431  10.550   9.464
 1360POPC   PO420040  14.395  10.557   9.164
 1360POPC   GL120041  14.443  10.540   8.864
 1360POPC   GL220042  14.392  10.407   8.864
 1360POPC   C1A20043  14.430  10.544   8.564
 1360POPC   D2A20044  14.423  10.523   8.264
 1360POPC   C3A20045  14.416  10.552   7.964
 1360POPC   C4A20046  14.355  10.480   7.664
 1360POPC   C1B20047  14.461  10.259   8.564
 1360POPC   C2B20048  14.401  10.257   8.264
 1360POPC   C3B20049  14.447  10.282   7.964
 1360POPC   C4B20050  14.429  10.298   7.664
 1361POPC   NC320051  31.512  12.120   9.464
 1361POPC   PO420052  31.433  12.051   9.164
 1361POPC   GL120053  31.476  12.060   8.864
 1361POPC   GL220054  31.517  11.953   8.864
 1361POPC   C1A20055  31.518  12.027   8.564
 1361POPC   D2A20056  31.519  12.030   8.264
 1361POPC   C3A20057  31.481  12.042   7.964
 1361POPC   C4A20058  31.460  12.076   7.664
 1361POPC   C1B20059  31.564  11.825   8.564
 1361POPC   C2B20060  31.579  11.861   8.264
 1361POPC   C3B20061  31.553  11.808   7.964
 1361POPC   C4B20062  31.573  11.850   7.664
 1362POPC   NC320063  11.268  31.467   9.464
 1362POPC   PO420064  11.302  31.509   9.164
 1362POPC   GL120065  11.333  31.425   8.864
 1362POPC   GL220066  11.320  31.371   8.864
 1362POPC   C1A20067  11.320  31.454   8.564
 1362POPC   D2A20068  11.279  31.475   8.264
 1362POPC   C3A20069  11.313  31.433   7.964
 1362POPC   C4A20070  11.339  31.493   7.664
 1362POPC   C1B20071  11.345  31.213   8.564
 1362POPC   C2B20072  11.404  31.192   8.264
 1362POPC   C3B20073  11.350  31.219   7.964
 1362POPC   C4B20074  11.353  31.201   7.664
 1363POPC   NC320075  15.942  26.047   9.464
 1363POPC   PO420076  15.973  26.054   9.164
 1363POPC   GL120077  15.907  26.001   8.864
 1363POPC   GL220078  15.996  25.959   8.864
 1363POPC   C1A20079  15.908  26.064   8.564
 1363POPC   D2A20080  15.908  26.040   8.264
 1363POPC   C3A20081  15.923  25.997   7.964
 1363POPC   C4A20082  15.998  26.062   7.664
 1363POPC   C1B20083  16.091  25.881   8.564
 1363POPC   C2B20084  16.176  25.898   8.264
 1363POPC   C3B20085  16.156  25.901   7.964
 1363POPC   C4B20086  16.116  25.876   7.664
 1364POPC   NC320087  28.378  16.751   9.464
 1364POPC   PO420088  28.321  16.697   9.164
 1364POPC   GL120089  28.362  16.721   8.864
 1364POPC   GL220090  28.278  16.750   8.864
 1364POPC   C1A20091  28.390  16.729   8.564
 1364POPC   D2A20092  28.408  16.719   8.264
 1364POPC   C3A20093  28.414  16.764   7.964
 1364POPC   C4A20094  28.345  16.755   7.664
 1364POPC   C1B20095  28.176  16.751   8.564
 1364POPC   C2B20096  28.138  16.848   8.264
 1364POPC   C3B20097  28.115  16.825   7.964
 1364POPC   C4B20098  28.092  16.800   7.664
 1365POPC   NC320099  18.271  41.553   9.464
 1365POPC   PO420100  18.245  41.567   9.164
 1365POPC   GL120101  18.245  41.539   8.864
 1365POPC   GL220102  18.339  41.619   8.864
 1365POPC   C1A20103  18.287  41.561   8.564
 1365POPC   D2A20104  18.238  41.524   8.264
 1365POPC   C3A20105  18.265  41.552   7.964
 1365POPC   C4A20106  18.332  41.577   7.664
 1365POPC   C1B20107  18.446  41.782   8.564
 1365POPC   C2B20108  18.487  41.758   8.264
 1365POPC   C3B20109  18.498  41.695   7.964
 1365POPC   C4B20110  18.502  41.751   7.664
 1366POPC   NC320111  11.345  39.975   9.464
 1366POPC   PO420112  11.289  40.042   9.164
 1366POPC   GL120113  11.336  39.969   8.864
 1366POPC   GL220114  11.337  40.165   8.864
 1366POPC   C1A20115  11.289  39.960   8.564
 1366POPC   D2A20116  11.299  40.021   8.264
 1366POPC   C3A20117  11.310  40.000   7.964
 1366POPC   C4A20118  11.276  40.020   7.664
 1366POPC   C1B20119  11.393  40.237   8.564
 1366POPC   C2B20120  11.340  40.285   8.264
 1366POPC   C3B20121  11.371  40.228   7.964
 1366POPC   C4B20122  11.367  40.287   7.664
 1367POPC   NC320123  19.073  12.050   9.464
 1367POPC   PO420124  19.053  12.076   9.164
 1367POPC   GL120125  19.089  12.125   8.864
 1367POPC   GL220126  18.990  12.026   8.864
 1367POPC   C1A20127  19.104  12.101   8.564
 1367POPC   D2A20128  19.077  12.045   8.264
 1367POPC   C3A20129  19.088  12.115   7.964
 1367POPC   C4A20130  19.035  12.055   7.664
 1367POPC   C1B20131  18.845  11.879   8.564
 1367POPC   C2B20132  18.892  11.952   8.264
 1367POPC   C3B20133  18.850  11.913   7.964
 1367POPC   C4B20134  18.888  11.959   7.664
 1368POPC   NC320135   7.451   7.392   9.464
 1368POPC   PO420136   7.401   7.421   9.164
 1368POPC   GL120137   7.391   7.393   8.864
 1368POPC   GL220138   7.261   7.396   8.864
 1368POPC   C1A20139   7.383   7.419   8.564
 1368POPC   D2A20140   7.373   7.389   8.264
 1368POPC   C3A20141   7.443   7.386   7.964
 1368POPC   C4A20142   7.435   7.382   7.664
 1368POPC   C1B20143   7.224   7.278   8.564
 1368POPC   C2B20144   7.200   7.339   8.264
 1368POPC   C3B20145   7.191   7.339   7.964
 1368POPC   C4B20146   7.196   7.340   7.664
 1369POPC   NC320147  43.873  35.395   9.464
 1369POPC   PO420148  43.929  35.316   9.164
 1369POPC   GL120149  43.838  35.368   8.864
 1369POPC   GL220150  43.838  35.474   8.864
 1369POPC   C1A20151  43.874  35.348   8.564
 1369POPC   D2A20152  43.861  35.389   8.264
 1369POPC   C3A20153  43.924  35.372   7.964
 1369POPC   C4A20154  43.856  35.363   7.664
 1369POPC   C1B20155  43.868  35.552   8.564
 1369POPC   C2B20156  43.826  35.562   8.264
 1369POPC   C3B20157  43.820  35.559   7.964
 1369POPC   C4B20158  43.912  35.613   7.664
 1370POPC   NC320159  15.958  37.644   9.464
 1370POPC   PO420160  15.906  37.669   9.164
 1370POPC   GL120161  15.955  37.642   8.864
 1370POPC   GL220162  16.048  37.611   8.864
 1370POPC   C1A20163  16.001  37.726   8.564
 1370POPC   D2A20164  15.998  37.692   8.264
 1370POPC   C3A20165  15.943  37.661   7.964
 1370POPC   C4A20166  15.913  37.681   7.664
 1370POPC   C1B20167  16.163  37.486   8.564
 1370POPC   C2B20168  16.188  37.486   8.264
 1370POPC   C3B20169  16.174  37.496   7.964
 1370POPC   C4B20170  16.197  37.560   7.664
 1371POPC   NC320171  38.484   5.055   9.464
 1371POPC   PO420172  38.497   5.099   9.164
 1371POPC   GL120173  38.418   5.055   8.864
 1371POPC   GL220174  38.399   5.244   8.864
 1371POPC   C1A20175  38.459   5.125   8.564
 1371POPC   D2A20176  38.428   5.105   8.264
 1371POPC   C3A20177  38.470   5.116   7.964
 1371POPC   C4A20178  38.439   5.117   7.664
 1371POPC   C1B20179  38.405   5.346   8.564
 1371POPC   C2B20180  38.376   5.384   8.264
 1371POPC   C3B20181  38.386   5.362   7.964
 1371POPC   C4B20182  38.404   5.300   7.664
 1372POPC   NC320183   7.404  22.209   9.464
 1372POPC   PO420184   7.379  22.135   9.164
 1372POPC   GL120185   7.407  22.115   8.864
 1372POPC   GL220186   7.267  22.079   8.864
 1372POPC   C1A20187   7.385  22.151   8.564
 1372POPC   D2A20188   7.432  22.209   8.264
 1372POPC   C3A20189   7.453  22.158   7.964
 1372POPC   C4A20190   7.445  22.205   7.664
 1372POPC   C1B20191   7.227  22.063   8.564
 1372POPC   C2B20192   7.228  22.034   8.264
 1372POPC   C3B20193   7.209  22.046   7.964
 1372POPC   C4B20194   7.242  21.985   7.664
 1373POPC   NC320195  18.296   9.769   9.464
 1373POPC   PO420196  18.250   9.768   9.164
 1373POPC   GL120197  18.311   9.787   8.864
 1373POPC   GL220198  18.265   9.655   8.864
 1373POPC   C1A20199  18.249   9.711   8.564
 1373POPC   D2A20200  18.268   9.718   8.264
 1373POPC   C3A20201  18.317   9.749   7.964
 1373POPC   C4A20202  18.277   9.717   7.664
 1373POPC   C1B20203  18.225   9.518   8.564
 1373POPC   C2B20204  18.176   9.520   8.264
 1373POPC   C3B20205  18.199   9.554   7.964
 1373POPC   C4B20206  18.160   9.508   7.664
 1374POPC   NC320207   8.164  32.246   9.464
 1374POPC   PO420208   8.182  32.214   9.164
 1374POPC   GL120209   8.155  32.216   8.864
 1374POPC   GL220210   8.146  32.370   8.864
 1374POPC   C1A20211   8.213  32.228   8.564
 1374POPC   D2A20212   8.221  32.201   8.264
 1374POPC   C3A20213   8.169  32.207   7.964
 1374POPC   C4A20214   8.232  32.223   7.664
 1374POPC   C1B20215   8.095  32.425   8.564
 1374POPC   C2B20216   8.098  32.451   8.264
 1374POPC   C3B20217   8.107  32.452   7.964
 1374POPC   C4B20218   8.038  32.428   7.664
 1375POPC   NC320219   6.678  26.069   9.464
 1375POPC   PO420220   6.674  25.993   9.164
 1375POPC   GL120221   6.644  26.088   8.864
 1375POPC   GL220222   6.643  26.139   8.864
 1375POPC   C1A20223   6.625  26.062   8.564
 1375POPC   D2A20224   6.695  26.034   8.264
 1375POPC   C3A20225   6.659  26.070   7.964
 1375POPC   C4A20226   6.628  26.056   7.664
 1375POPC   C1B20227   6.633  26.287   8.564
 1375POPC   C2B20228   6.632  26.242   8.264
 1375POPC   C3B20229   6.720  26.291   7.964
 1375POPC   C4B20230   6.657  26.321   7.664
 1376POPC   NC320231   4.324  38.416   9.464
 1376POPC   PO420232   4.347  38.483   9.164
 1376POPC   GL120233   4.339  38.456   8.864
 1376POPC   GL220234   4.184  38.407   8.864
 1376POPC   C1A20235   4.346  38.448   8.564
 1376POPC   D2A20236   4.313  38.451   8.264
 1376POPC   C3A20237   4.319  38.491   7.964
 1376POPC   C4A20238   4.333  38.412   7.664
 1376POPC   C1B20239   4.104  38.456   8.564
 1376POPC   C2B20240   4.113  38.483   8.264
 1376POPC   C3B20241   4.058  38.461   7.964
 1376POPC   C4B20242   4.065  38.430   7.664
 1377POPC   NC320243  15.939  12.855   9.464
 1377POPC   PO420244  15.934  12.866   9.164
 1377POPC   GL120245  15.915  12.880   8.864
 1377POPC   GL220246  16.042  12.707   8.864
 1377POPC   C1A20247  15.978  12.876   8.564
 1377POPC   D2A20248  15.981  12.802   8.264
 1377POPC   C3A20249  15.919  12.886   7.964
 1377POPC   C4A20250  15.956  12.895   7.664
 1377POPC   C1B20251  16.138  12.614   8.564
 1377POPC   C2B20252  16.096  12.688   8.264
 1377POPC   C3B20253  16.090  12.652   7.964
 1377POPC   C4B20254  16.075  12.615   7.664
 1378POPC   NC320255  14.417  12.030   9.464
 1378POPC   PO420256  14.355  12.123   9.164
 1378POPC   GL120257  14.391  12.125   8.864
 1378POPC   GL220258  14.354  12.212   8.864
 1378POPC   C1A20259  14.378  12.031   8.564
 1378POPC   D2A20260  14.385  12.120   8.264
 1378POPC   C3A20261  14.425  12.091   7.964
 1378POPC   C4A20262  14.436  12.088   7.664
 1378POPC   C1B20263  14.249  12.285   8.564
 1378POPC   C2B20264  14.306  12.283   8.264
 1378POPC   C3B20265  14.286  12.346   7.964
 1378POPC   C4B20266  14.248  12.252   7.664
 1379POPC   NC320267  13.615  25.244   9.464
 1379POPC   PO420268  13.673  25.245   9.164
 1379POPC   GL120269  13.608  25.270   8.864
 1379POPC   GL220270  13.705  25.419   8.864
 1379POPC   C1A20271  13.670  25.273   8.564
 1379POPC   D2A20272  13.637  25.314   8.264
 1379POPC   C3A20273  13.635  25.299   7.964
 1379POPC   C4A20274  13.594  25.283   7.664
 1379POPC   C1B20275  13.748  25.530   8.564
 1379POPC   C2B20276  13.665  25.532   8.264
 1379POPC   C3B20277  13.676  25.512   7.964
 1379POPC   C4B20278  13.659  25.496   7.664
 1380POPC   NC320279   8.926  27.624   9.464
 1380POPC   PO420280   8.927  27.546   9.164
 1380POPC   GL120281   8.971  27.613   8.864
 1380POPC   GL220282   9.013  27.705   8.864
 1380POPC   C1A20283   8.991  27.620   8.564
 1380POPC   D2A20284   9.003  27.564   8.264
 1380POPC   C3A20285   8.961  27.576   7.964
 1380POPC   C4A20286   8.937  27.557   7.664
 1380POPC   C1B20287   9.051  27.800   8.564
 1380POPC   C2B20288   9.038  27.839   8.264
 1380POPC   C3B20289   9.068  27.866   7.964
 1380POPC   C4B20290   9.030  27.834   7.664
 1381POPC   NC320291  39.192  12.052   9.464
 1381POPC   PO420292  39.266  12.106   9.164
 1381POPC   GL120293  39.230  12.040   8.864
 1381POPC   GL220294  39.218  12.142   8.864
 1381POPC   C1A20295  39.244  12.062   8.564
 1381POPC   D2A20296  39.217  12.041   8.264
 1381POPC   C3A20297  39.231  12.096   7.964
 1381POPC   C4A20298  39.189  12.119   7.664
 1381POPC   C1B20299  39.126  12.257   8.564
 1381POPC   C2B20300  39.103  12.290   8.264
 1381POPC   C3B20301  39.082  12.321   7.964
 1381POPC   C4B20302  39.138  12.286   7.664
 1382POPC   NC320303  23.695  26.833   9.464
 1382POPC   PO420304  23.699  26.838   9.164
 1382POPC   GL120305  23.733  26.859   8.864
 1382POPC   GL220306  23.628  26.821   8.864
 1382POPC   C1A20307  23.761  26.854   8.564
 1382POPC   D2A20308  23.732  26.775   8.264
 1382POPC   C3A20309  23.677  26.777   7.964
 1382POPC   C4A20310  23.747  26.837   7.664
 1382POPC   C1B20311  23.518  26.898   8.564
 1382POPC   C2B20312  23.527  26.913   8.264
 1382POPC   C3B20313  23.452  26.876   7.964
 1382POPC   C4B20314  23.484  26.917   7.664
 1383POPC   NC320315   6.657  34.544   9.464
 1383POPC   PO420316   6.655  34.541   9.164
 1383POPC   GL120317   6.632  34.551   8.864
 1383POPC   GL220318   6.628  34.739   8.864
 1383POPC   C1A20319   6.670  34.621   8.564
 1383POPC   D2A20320   6.658  34.622   8.264
 1383POPC   C3A20321   6.599  34.532   7.964
 1383POPC   C4A20322   6.616  34.608   7.664
 1383POPC   C1B20323   6.642  34.856   8.564
 1383POPC   C2B20324   6.627  34.779   8.264
 1383POPC   C3B20325   6.698  34.779   7.964
 1383POPC   C4B20326   6.657  34.814   7.664
 1384POPC   NC320327  13.655  33.838   9.464
 1384POPC   PO420328  13.598  33.772   9.164
 1384POPC   GL120329  13.586  33.789   8.864
 1384POPC   GL220330  13.735  33.876   8.864
 1384POPC   C1A20331  13.607  33.764   8.564
 1384POPC   D2A20332  13.591  33.753   8.264
 1384POPC   C3A20333  13.632  33.759   7.964
 1384POPC   C4A20334  13.598  33.803   7.664
 1384POPC   C1B20335  13.809  33.881   8.564
 1384POPC   C2B20336  13.860  33.899   8.264
 1384POPC   C3B20337  13.833  33.854   7.964
 1384POPC   C4B20338  13.847  33.853   7.664
 1385POPC   NC320339   9.701  23.746   9.464
 1385POPC   PO420340   9.705  23.748   9.164
 1385POPC   GL120341   9.733  23.759   8.864
 1385POPC   GL220342   9.717  23.632   8.864
 1385POPC   C1A20343   9.761  23.668   8.564
 1385POPC   D2A20344   9.731  23.672   8.264
 1385POPC   C3A20345   9.733  23.666   7.964
 1385POPC   C4A20346   9.714  23.718   7.664
 1385POPC   C1B20347   9.687  23.528   8.564
 1385POPC   C2B20348   9.691  23.482   8.264
 1385POPC   C3B20349   9.608  23.444   7.964
 1385POPC   C4B20350   9.619  23.511   7.664
 1386POPC   NC320351  40.745  23.750   9.464
 1386POPC   PO420352  40.738  23.714   9.164
 1386POPC   GL120353  40.813  23.668   8.864
 1386POPC   GL220354  40.728  23.635   8.864
 1386POPC   C1A20355  40.803  23.743   8.564
 1386POPC   D2A20356  40.733  23.750   8.264
 1386POPC   C3A20357  40.735  23.743   7.964
 1386POPC   C4A20358  40.779  23.763   7.664
 1386POPC   C1B20359  40.603  23.616   8.564
 1386POPC   C2B20360  40.531  23.561   8.264
 1386POPC   C3B20361  40.584  23.580   7.964
 1386POPC   C4B20362  40.622  23.565   7.664
 1387POPC   NC320363  25.272  34.537   9.464
 1387POPC   PO420364  25.307  34.618   9.164
 1387POPC   GL120365  25.246  34.570   8.864
 1387POPC   GL220366  25.408  34.592   8.864
 1387POPC   C1A20367  25.229  34.572   8.564
 1387POPC   D2A20368  25.257  34.564   8.264
 1387POPC   C3A20369  25.216  34.608   7.964
 1387POPC   C4A20370  25.287  34.529   7.664
 1387POPC   C1B20371  25.506  34.698   8.564
 1387POPC   C2B20372  25.528  34.688   8.264
 1387POPC   C3B20373  25.457  34.722   7.964
 1387POPC   C4B20374  25.531  34.675   7.664
 1388POPC   NC320375  21.429  44.651   9.464
 1388POPC   PO420376  21.343  44.635   9.164
 1388POPC   GL120377  21.347  44.710   8.864
 1388POPC   GL220378  21.297  44.661   8.864
 1388POPC   C1A20379  21.420  44.666   8.564
 1388POPC   D2A20380  21.410  44.620   8.264
 1388POPC   C3A20381  21.347  44.619   7.964
 1388POPC   C4A20382  21.364  44.670   7.664
 1388POPC   C1B20383  21.093  44.668   8.564
 1388POPC   C2B20384  21.184  44.692   8.264
 1388POPC   C3B20385  21.172  44.672   7.964
 1388POPC   C4B20386  21.152  44.719   7.664
 1389POPC   NC320387   8.185   4.307   9.464
 1389POPC   PO420388   8.212   4.352   9.164
 1389POPC   GL120389   8.150   4.344   8.864
 1389POPC   GL220390   8.253   4.213   8.864
 1389POPC   C1A20391   8.240   4.278   8.564
 1389POPC   D2A20392   8.154   4.335   8.264
 1389POPC   C3A20393   8.164   4.284   7.964
 1389POPC   C4A20394   8.164   4.291   7.664
 1389POPC   C1B20395   8.331   4.085   8.564
 1389POPC   C2B20396   8.332   4.099   8.264
 1389POPC   C3B20397   8.302   4.132   7.964
 1389POPC   C4B20398   8.325   4.137   7.664
 1390POPC   NC320399  11.312  41.545   9.464
 1390POPC   PO420400  11.259  41.570   9.164
 1390POPC   GL120401  11.350  41.517   8.864
 1390POPC   GL220402  11.148  41.589   8.864
 1390POPC   C1A20403  11.271  41.516   8.564
 1390POPC   D2A20404  11.309  41.512   8.264
 1390POPC   C3A20405  11.295  41.524   7.964
 1390POPC   C4A20406  11.318  41.603   7.664
 1390POPC   C1B20407  11.092  41.667   8.564
 1390POPC   C2B20408  11.074  41.678   8.264
 1390POPC   C3B20409  11.108  41.712   7.964
 1390POPC   C4B20410  11.043  41.674   7.664
 1391POPC   NC320411   4.283  19.833   9.464
 1391POPC   PO420412   4.309  19.862   9.164
 1391POPC   GL120413   4.331  19.860   8.864
 1391POPC   GL220414   4.442  19.731   8.864
 1391POPC   C1A20415   4.343  19.810   8.564
 1391POPC   D2A20416   4.347  19.817   8.264
 1391POPC   C3A20417   4.282  19.787   7.964
 1391POPC   C4A20418   4.347  19.827   7.664
 1391POPC   C1B20419   4.554  19.731   8.564
 1391POPC   C2B20420   4.552  19.678   8.264
 1391POPC   C3B20421   4.521  19.672   7.964
 1391POPC   C4B20422   4.504  19.718   7.664
 1392POPC   NC320423  39.260  16.747   9.464
 1392POPC   PO420424  39.193  16.749   9.164
 1392POPC   GL120425  39.225  16.728   8.864
 1392POPC   GL220426  39.370  16.812   8.864
 1392POPC   C1A20427  39.233  16.716   8.564
 1392POPC   D2A20428  39.255  16.725   8.264
 1392POPC   C3A20429  39.280  16.773   7.964
 1392POPC   C4A20430  39.251  16.747   7.664
 1392POPC   C1B20431  39.470  16.780   8.564
 1392POPC   C2B20432  39.469  16.773   8.264
 1392POPC   C3B20433  39.494  16.864   7.964
 1392POPC   C4B20434  39.501  16.836   7.664
 1393POPC   NC320435  44.627  10.495   9.464
 1393POPC   PO420436  44.661  10.487   9.164
 1393POPC   GL120437  44.668  10.551   8.864
 1393POPC   GL220438  44.564  10.437   8.864
 1393POPC   C1A20439  44.618  10.553   8.564
 1393POPC   D2A20440  44.642  10.537   8.264
 1393POPC   C3A20441  44.629  10.521   7.964
 1393POPC   C4A20442  44.648  10.524   7.664
 1393POPC   C1B20443  44.438  10.414   8.564
 1393POPC   C2B20444  44.457  10.405   8.264
 1393POPC   C3B20445  44.506  10.333   7.964
 1393POPC   C4B20446  44.491  10.361   7.664
 1394POPC   NC320447  42.344  38.450   9.464
 1394POPC   PO420448  42.361  38.445   9.164
 1394POPC   GL120449  42.339  38.432   8.864
 1394POPC   GL220450  42.263  38.437   8.864
 1394POPC   C1A20451  42.383  38.429   8.564
 1394POPC   D2A20452  42.314  38.467   8.264
 1394POPC   C3A20453  42.324  38.429   7.964
 1394POPC   C4A20454  42.292  38.439   7.664
 1394POPC   C1B20455  42.057  38.388   8.564
 1394POPC   C2B20456  42.102  38.348   8.264
 1394POPC   C3B20457  42.079  38.375   7.964
 1394POPC   C4B20458  42.141  38.381   7.664
 1395POPC   NC320459  26.782  26.063   9.464
 1395POPC   PO420460  26.827  26.086   9.164
 1395POPC   GL120461  26.823  26.091   8.864
 1395POPC   GL220462  26.764  26.132   8.864
 1395POPC   C1A20463  26.801  26.088   8.564
 1395POPC   D2A20464  26.845  26.037   8.264
 1395POPC   C3A20465  26.863  26.013   7.964
 1395POPC   C4A20466  26.800  26.012   7.664
 1395POPC   C1B20467  26.725  26.241   8.564
 1395POPC   C2B20468  26.770  26.270   8.264
 1395POPC   C3B20469  26.774  26.309   7.964
 1395POPC   C4B20470  26.763  26.229   7.664
 1396POPC   NC320471  27.635   5.118   9.464
 1396POPC   PO420472  27.549   5.109   9.164
 1396POPC   GL120473  27.592   5.114   8.864
 1396POPC   GL220474  27.535   5.034   8.864
 1396POPC   C1A20475  27.640   5.079   8.564
 1396POPC   D2A20476  27.623   5.132   8.264
 1396POPC   C3A20477  27.563   5.075   7.964
 1396POPC   C4A20478  27.622   5.123   7.664
 1396POPC   C1B20479  27.470   4.883   8.564
 1396POPC   C2B20480  27.394   4.875   8.264
 1396POPC   C3B20481  27.459   4.914   7.964
 1396POPC   C4B20482  27.448   4.880   7.664
 1397POPC   NC320483  36.149  20.645   9.464
 1397POPC   PO420484  36.158  20.644   9.164
 1397POPC   GL120485  36.115  20.611   8.864
 1397POPC   GL220486  36.195  20.481   8.864
 1397POPC   C1A20487  36.101  20.586   8.564
 1397POPC   D2A20488  36.132  20.563   8.264
 1397POPC   C3A20489  36.140  20.604   7.964
 1397POPC   C4A20490  36.152  20.609   7.664
 1397POPC   C1B20491  36.248  20.434   8.564
 1397POPC   C2B20492  36.323  20.384   8.264
 1397POPC   C3B20493  36.286  20.451   7.964
 1397POPC   C4B20494  36.241  20.372   7.664
 1398POPC   NC320495  43.867  36.921   9.464
 1398POPC   PO420496  43.928  36.865   9.164
 1398POPC   GL120497  43.856  36.896   8.864
 1398POPC   GL220498  43.763  36.921   8.864
 1398POPC   C1A20499  43.925  36.941   8.564
 1398POPC   D2A20500  43.856  36.904   8.264
 1398POPC   C3A20501  43.936  36.859   7.964
 1398POPC   C4A20502  43.838  36.935   7.664
 1398POPC   C1B20503  43.654  36.855   8.564
 1398POPC   C2B20504  43.654  36.865   8.264
 1398POPC   C3B20505  43.676  36.846   7.964
 1398POPC   C4B20506  43.647  36.898   7.664
 1399POPC   NC320507  12.867   9.709   9.464
 1399POPC   PO420508  12.818   9.741   9.164
 1399POPC   GL120509  12.848   9.797   8.864
 1399POPC   GL220510  12.782   9.850   8.864
 1399POPC   C1A20511  12.886   9.791   8.564
 1399POPC   D2A20512  12.820   9.710   8.264
 1399POPC   C3A20513  12.827   9.736   7.964
 1399POPC   C4A20514  12.868   9.704   7.664
 1399POPC   C1B20515  12.641   9.861   8.564
 1399POPC   C2B20516  12.676   9.868   8.264
 1399POPC   C3B20517  12.684   9.875   7.964
 1399POPC   C4B20518  12.621   9.897   7.664
 1400POPC   NC320519  27.544  43.846   9.464
 1400POPC   PO420520  27.615  43.898   9.164
 1400POPC   GL120521  27.602  43.852   8.864
 1400POPC   GL220522  27.464  43.868   8.864
 1400POPC   C1A20523  27.640  43.846   8.564
 1400POPC   D2A20524  27.635  43.913   8.264
 1400POPC   C3A20525  27.566  43.849   7.964
 1400POPC   C4A20526  27.592  43.859   7.664
 1400POPC   C1B20527  27.295  43.870   8.564
 1400POPC   C2B20528  27.310  43.879   8.264
 1400POPC   C3B20529  27.322  43.902   7.964
 1400POPC   C4B20530  27.349  43.871   7.664
 1401POPC   NC320531  26.065   7.448   9.464
 1401POPC   PO420532  26.051   7.465   9.164
 1401POPC   GL120533  25.993   7.386   8.864
 1401POPC   GL220534  25.970   7.508   8.864
 1401POPC   C1A20535  26.019   7.446   8.564
 1401POPC   D2A20536  26.044   7.373   8.264
 1401POPC   C3A20537  26.032   7.440   7.964
 1401POPC   C4A20538  26.019   7.374   7.664
 1401POPC   C1B20539  25.986   7.647   8.564
 1401POPC   C2B20540  26.002   7.667   8.264
 1401POPC   C3B20541  26.011   7.691   7.964
 1401POPC   C4B20542  25.970   7.707   7.664
 1402POPC   NC320543  29.105  25.310   9.464
 1402POPC   PO420544  29.147  25.309   9.164
 1402POPC   GL120545  29.177  25.304   8.864
 1402POPC   GL220546  29.224  25.394   8.864
 1402POPC   C1A20547  29.163  25.262   8.564
 1402POPC   D2A20548  29.099  25.281   8.264
 1402POPC   C3A20549  29.114  25.242   7.964
 1402POPC   C4A20550  29.137  25.224   7.664
 1402POPC   C1B20551  29.341  25.432   8.564
 1402POPC   C2B20552  29.317  25.448   8.264
 1402POPC   C3B20553  29.343  25.493   7.964
 1402POPC   C4B20554  29.312  25.450   7.664
 1403POPC   NC320555  39.253  28.415   9.464
 1403POPC   PO420556  39.212  28.368   9.164
 1403POPC   GL120557  39.208  28.390   8.864
 1403POPC   GL220558  39.255  28.222   8.864
 1403POPC   C1A20559  39.266  28.334   8.564
 1403POPC   D2A20560  39.187  28.398   8.264
 1403POPC   C3A20561  39.193  28.345   7.964
 1403POPC   C4A20562  39.213  28.373   7.664
 1403POPC   C1B20563  39.238  28.105   8.564
 1403POPC   C2B20564  39.224  28.172   8.264
 1403POPC   C3B20565  39.145  28.167   7.964
 1403POPC   C4B20566  39.218  28.106   7.664
 1404POPC   NC320567   4.334  17.492   9.464
 1404POPC   PO420568   4.324  17.508   9.164
 1404POPC   GL120569   4.327  17.461   8.864
 1404POPC   GL220570   4.404  17.585   8.864
 1404POPC   C1A20571   4.344  17.533   8.564
 1404POPC   D2A20572   4.277  17.489   8.264
 1404POPC   C3A20573   4.359  17.481   7.964
 1404POPC   C4A20574   4.321  17.495   7.664
 1404POPC   C1B20575   4.503  17.699   8.564
 1404POPC   C2B20576   4.504  17.755   8.264
 1404POPC   C3B20577   4.510  17.662   7.964
 1404POPC   C4B20578   4.492  17.701   7.664
 1405POPC   NC320579   1.253  29.187   9.464
 1405POPC   PO420580   1.215  29.113   9.164
 1405POPC   GL120581   1.234  29.123   8.864
 1405POPC   GL220582   1.134  29.046   8.864
 1405POPC   C1A20583   1.249  29.150   8.564
 1405POPC   D2A20584   1.195  29.102   8.264
 1405POPC   C3A20585   1.240  29.149   7.964
 1405POPC   C4A20586   1.245  29.168   7.664
 1405POPC   C1B20587   1.051  28.942   8.564
 1405POPC   C2B20588   1.095  28.899   8.264
 1405POPC   C3B20589   1.034  28.965   7.964
 1405POPC   C4B20590   1.026  28.915   7.664
 1406POPC   NC320591  21.340  27.636   9.464
 1406POPC   PO420592  21.380  27.567   9.164
 1406POPC   GL120593  21.388  27.633   8.864
 1406POPC   GL220594  21.274  27.665   8.864
 1406POPC   C1A20595  21.428  27.568   8.564
 1406POPC   D2A20596  21.374  27.566   8.264
 1406POPC   C3A20597  21.371  27.628   7.964
 1406POPC   C4A20598  21.425  27.546   7.664
 1406POPC   C1B20599  21.145  27.703   8.564
 1406POPC   C2B20600  21.148  27.716   8.264
 1406POPC   C3B20601  21.124  27.692   7.964
 1406POPC   C4B20602  21.203  27.728   7.664
 1407POPC   NC320603  19.837  43.075   9.464
 1407POPC   PO420604  19.840  43.140   9.164
 1407POPC   GL120605  19.846  43.133   8.864
 1407POPC   GL220606  19.867  43.218   8.864
 1407POPC   C1A20607  19.792  43.134   8.564
 1407POPC   D2A20608  19.852  43.068   8.264
 1407POPC   C3A20609  19.844  43.113   7.964
 1407POPC   C4A20610  19.839  43.128   7.664
 1407POPC   C1B20611  19.893  43.352   8.564
 1407POPC   C2B20612  19.861  43.332   8.264
 1407POPC   C3B20613  19.864  43.382   7.964
 1407POPC   C4B20614  19.947  43.343   7.664
 1408POPC   NC320615  35.350  13.631   9.464
 1408POPC   PO420616  35.353  13.578   9.164
 1408POPC   GL120617  35.336  13.670   8.864
 1408POPC   GL220618  35.465  13.682   8.864
 1408POPC   C1A20619  35.349  13.580   8.564
 1408POPC   D2A20620  35.316  13.590   8.264
 1408POPC   C3A20621  35.362  13.625   7.964
 1408POPC   C4A20622  35.333  13.614   7.664
 1408POPC   C1B20623  35.504  13.851   8.564
 1408POPC   C2B20624  35.523  13.797   8.264
 1408POPC   C3B20625  35.462  13.877   7.964
 1408POPC   C4B20626  35.490  13.806   7.664
 1409POPC   NC320627   1.970  12.880   9.464
 1409POPC   PO420628   1.965  12.873   9.164
 1409POPC   GL120629   1.942  12.899   8.864
 1409POPC   GL220630   2.104  12.746   8.864
 1409POPC   C1A20631   1.955  12.828   8.564
 1409POPC   D2A20632   1.961  12.896   8.264
 1409POPC   C3A20633   2.014  12.831   7.964
 1409POPC   C4A20634   1.958  12.868   7.664
 1409POPC   C1B20635   2.158  12.702   8.564
 1409POPC   C2B20636   2.160  12.648   8.264
 1409POPC   C3B20637   2.111  12.613   7.964
 1409POPC   C4B20638   2.138  12.685   7.664
 1410POPC   NC320639  10.483  25.297   9.464
 1410POPC   PO420640  10.524  25.249   9.164
 1410POPC   GL120641  10.538  25.235   8.864
 1410POPC   GL220642  10.420  25.187   8.864
 1410POPC   C1A20643  10.531  25.261   8.564
 1410POPC   D2A20644  10.503  25.218   8.264
 1410POPC   C3A20645  10.496  25.284   7.964
 1410POPC   C4A20646  10.493  25.266   7.664
 1410POPC   C1B20647  10.366  25.085   8.564
 1410POPC   C2B20648  10.385  25.037   8.264
 1410POPC   C3B20649  10.429  25.027   7.964
 1410POPC   C4B20650  10.351  25.095   7.664
 1411POPC   NC320651  43.071  17.477   9.464
 1411POPC   PO420652  43.113  17.465   9.164
 1411POPC   GL120653  43.098  17.527   8.864
 1411POPC   GL220654  43.022  17.399   8.864
 1411POPC   C1A20655  43.068  17.544   8.564
 1411POPC   D2A20656  43.121  17.487   8.264
 1411POPC   C3A20657  43.064  17.527   7.964
 1411POPC   C4A20658  43.149  17.530   7.664
 1411POPC   C1B20659  42.932  17.314   8.564
 1411POPC   C2B20660  42.978  17.335   8.264
 1411POPC   C3B20661  43.008  17.322   7.964
 1411POPC   C4B20662  42.951  17.273   7.664
 1412POPC   NC320663  12.837  12.858   9.464
 1412POPC   PO420664  12.802  12.847   9.164
 1412POPC   GL120665  12.856  12.810   8.864
 1412POPC   GL220666  12.855  12.942   8.864
 1412POPC   C1A20667  12.859  12.862   8.564
 1412POPC   D2A20668  12.809  12.828   8.264
 1412POPC   C3A20669  12.880  12.891   7.964
 1412POPC   C4A20670  12.896  12.822   7.664
 1412POPC   C1B20671  12.929  13.072   8.564
 1412POPC   C2B20672  12.959  13.038   8.264
 1412POPC   C3B20673  12.991  13.122   7.964
 1412POPC   C4B20674  12.915  13.084   7.664
 1413POPC   NC320675  37.702  19.095   9.464
 1413POPC   PO420676  37.697  19.024   9.164
 1413POPC   GL120677  37.674  19.073   8.864
 1413POPC   GL220678  37.557  18.990   8.864
 1413POPC   C1A20679  37.723  19.040   8.564
 1413POPC   D2A20680  37.696  19.039   8.264
 1413POPC   C3A20681  37.708  19.081   7.964
 1413POPC   C4A20682  37.728  19.060   7.664
 1413POPC   C1B20683  37.525  18.845   8.564
 1413POPC   C2B20684  37.475  18.909   8.264
 1413POPC   C3B20685  37.532  18.898   7.964
 1413POPC   C4B20686  37.500  18.908   7.664
 1414POPC   NC320687   8.231   8.988   9.464
 1414POPC   PO420688   8.190   8.976   9.164
 1414POPC   GL120689   8.157   8.957   8.864
 1414POPC   GL220690   8.241   9.058   8.864
 1414POPC   C1A20691   8.192   8.937   8.564
 1414POPC   D2A20692   8.192   8.968   8.264
 1414POPC   C3A20693   8.164   8.962   7.964
 1414POPC   C4A20694   8.202   8.960   7.664
 1414POPC   C1B20695   8.245   9.175   8.564
 1414POPC   C2B20696   8.279   9.247   8.264
 1414POPC   C3B20697   8.232   9.205   7.964
 1414POPC   C4B20698   8.220   9.178   7.664
 1415POPC   NC320699  22.933  42.308   9.464
 1415POPC   PO420700  22.956  42.325   9.164
 1415POPC   GL120701  22.956  42.292   8.864
 1415POPC   GL220702  23.049  42.363   8.864
 1415POPC   C1A20703  22.960  42.345   8.564
 1415POPC   D2A20704  22.892  42.334   8.264
 1415POPC   C3A20705  22.917  42.309   7.964
 1415POPC   C4A20706  22.913  42.352   7.664
 1415POPC   C1B20707  23.204  42.364   8.564
 1415POPC   C2B20708  23.137  42.426   8.264
 1415POPC   C3B20709  23.137  42.426   7.964
 1415POPC   C4B20710  23.190  42.438   7.664
 1416POPC   NC320711  20.584  36.125   9.464
 1416POPC   PO420712  20.567  36.128   9.164
 1416POPC   GL120713  20.647  36.118   8.864
 1416POPC   GL220714  20.767  36.190   8.864
 1416POPC   C1A20715  20.650  36.093   8.564
 1416POPC   D2A20716  20.612  36.113   8.264
 1416POPC   C3A20717  20.590  36.102   7.964
 1416POPC   C4A20718  20.615  36.170   7.664
 1416POPC   C1B20719  20.894  36.196   8.564
 1416POPC   C2B20720  20.882  36.245   8.264
 1416POPC   C3B20721  20.881  36.198   7.964
 1416POPC   C4B20722  20.804  36.161   7.664
 1417POPC   NC320723  16.712  19.803   9.464
 1417POPC   PO420724  16.739  19.871   9.164
 1417POPC   GL120725  16.702  19.846   8.864
 1417POPC   GL220726  16.738  19.945   8.864
 1417POPC   C1A20727  16.700  19.823   8.564
 1417POPC   D2A20728  16.759  19.854   8.264
 1417POPC   C3A20729  16.745  19.803   7.964
 1417POPC   C4A20730  16.726  19.818   7.664
 1417POPC   C1B20731  16.842  20.083   8.564
 1417POPC   C2B20732  16.788  20.081   8.264
 1417POPC   C3B20733  16.839  20.110   7.964
 1417POPC   C4B20734  16.816  20.093   7.664
 1418POPC   NC320735  36.102   5.121   9.464
 1418POPC   PO420736  36.148   5.118   9.164
 1418POPC   GL120737  36.163   5.103   8.864
 1418POPC   GL220738  36.004   4.983   8.864
 1418POPC   C1A20739  36.129   5.057   8.564
 1418POPC   D2A20740  36.157   5.125   8.264
 1418POPC   C3A20741  36.175   5.045   7.964
 1418POPC   C4A20742  36.108   5.134   7.664
 1418POPC   C1B20743  35.946   4.865   8.564
 1418POPC   C2B20744  35.975   4.897   8.264
 1418POPC   C3B20745  35.988   4.870   7.964
 1418POPC   C4B20746  35.934   4.947   7.664
 1419POPC   NC320747  16.714   9.758   9.464
 1419POPC   PO420748  16.740   9.703   9.164
 1419POPC   GL120749  16.745   9.780   8.864
 1419POPC   GL220750  16.762   9.659   8.864
 1419POPC   C1A20751  16.689   9.711   8.564
 1419POPC   D2A20752  16.733   9.762   8.264
 1419POPC   C3A20753  16.758   9.782   7.964
 1419POPC   C4A20754  16.736   9.741   7.664
 1419POPC   C1B20755  16.812   9.551   8.564
 1419POPC   C2B20756  16.792   9.533   8.264
 1419POPC   C3B20757  16.744   9.460   7.964
 1419POPC   C4B20758  16.789   9.453   7.664
 1420POPC   NC320759   2.752  29.166   9.464
 1420POPC   PO420760   2.755  29.194   9.164
 1420POPC   GL120761   2.716  29.116   8.864
 1420POPC   GL220762   2.802  29.219   8.864
 1420POPC   C1A20763   2.721  29.095   8.564
 1420POPC   D2A20764   2.787  29.189   8.264
 1420POPC   C3A20765   2.780  29.151   7.964
 1420POPC   C4A20766   2.745  29.131   7.664
 1420POPC   C1B20767   2.963  29.347   8.564
 1420POPC   C2B20768   2.921  29.386   8.264
 1420POPC   C3B20769   2.877  29.294   7.964
 1420POPC   C4B20770   2.909  29.361   7.664
 1421POPC   NC320771  19.786  44.673   9.464
 1421POPC   PO420772  19.796  44.653   9.164
 1421POPC   GL120773  19.836  44.637   8.864
 1421POPC   GL220774  19.865  44.743   8.864
 1421POPC   C1A20775  19.831  44.643   8.564
 1421POPC   D2A20776  19.818  44.694   8.264
 1421POPC   C3A20777  19.866  44.639   7.964
 1421POPC   C4A20778  19.862  44.707   7.664
 1421POPC   C1B20779  19.891  44.854   8.564
 1421POPC   C2B20780  19.886  44.901   8.264
 1421POPC   C3B20781  19.946  44.895   7.964
 1421POPC   C4B20782  19.947  44.902   7.664
 1422POPC   NC320783  31.442  24.477   9.464
 1422POPC   PO420784  31.494  24.502   9.164
 1422POPC   GL120785  31.431  24.489   8.864
 1422POPC   GL220786  31.400  24.413   8.864
 1422POPC   C1A20787  31.439  24.517   8.564
 1422POPC   D2A20788  31.436  24.472   8.264
 1422POPC   C3A20789  31.481  24.518   7.964
 1422POPC   C4A20790  31.457  24.495   7.664
 1422POPC   C1B20791  31.249  24.406   8.564
 1422POPC   C2B20792  31.251  24.340   8.264
 1422POPC   C3B20793  31.291  24.343   7.964
 1422POPC   C4B20794  31.253  24.349   7.664
 1423POPC   NC320795  10.483  21.386   9.464
 1423POPC   PO420796  10.528  21.409   9.164
 1423POPC   GL120797  10.541  21.419   8.864
 1423POPC   GL220798  10.601  21.449   8.864
 1423POPC   C1A20799  10.512  21.421   8.564
 1423POPC   D2A20800  10.547  21.376   8.264
 1423POPC   C3A20801  10.482  21.397   7.964
 1423POPC   C4A20802  10.565  21.339   7.664
 1423POPC   C1B20803  10.759  21.445   8.564
 1423POPC   C2B20804  10.721  21.451   8.264
 1423POPC   C3B20805  10.801  21.448   7.964
 1423POPC   C4B20806  10.797  21.458   7.664
 1424POPC   NC320807  36.904  12.053   9.464
 1424POPC   PO420808  36.892  12.028   9.164
 1424POPC   GL120809  36.895  12.092   8.864
 1424POPC   GL220810  37.015  12.020   8.864
 1424POPC   C1A20811  36.888  12.095   8.564
 1424POPC   D2A20812  36.919  12.064   8.264
 1424POPC   C3A20813  36.895  12.077   7.964
 1424POPC   C4A20814  36.917  12.098   7.664
 1424POPC   C1B20815  37.098  11.884   8.564
 1424POPC   C2B20816  37.091  11.861   8.264
 1424POPC   C3B20817  37.049  11.839   7.964
 1424POPC   C4B20818  37.084  11.858   7.664
 1425POPC   NC320819  28.374  17.479   9.464
 1425POPC   PO420820  28.397  17.485   9.164
 1425POPC   GL120821  28.321  17.504   8.864
 1425POPC   GL220822  28.371  17.387   8.864
 1425POPC   C1A20823  28.348  17.513   8.564
 1425POPC   D2A20824  28.378  17.493   8.264
 1425POPC   C3A20825  28.353  17.475   7.964
 1425POPC   C4A20826  28.361  17.550   7.664
 1425POPC   C1B20827  28.273  17.229   8.564
 1425POPC   C2B20828  28.326  17.272   8.264
 1425POPC   C3B20829  28.314  17.238   7.964
 1425POPC   C4B20830  28.335  17.262   7.664
 1426POPC   NC320831   1.958  17.519   9.464
 1426POPC   PO420832   1.988  17.530   9.164
 1426POPC   GL120833   1.969  17.483   8.864
 1426POPC   GL220834   2.048  17.595   8.864
 1426POPC   C1A20835   2.019  17.484   8.564
 1426POPC   D2A20836   1.998  17.516   8.264
 1426POPC   C3A20837   1.989  17.483   7.964
 1426POPC   C4A20838   2.010  17.518   7.664
 1426POPC   C1B20839   1.978  17.723   8.564
 1426POPC   C2B20840   2.033  17.706   8.264
 1426POPC   C3B20841   2.069  17.726   7.964
 1426POPC   C4B20842   2.051  17.750   7.664
 1427POPC   NC320843  43.840   9.004   9.464
 1427POPC   PO420844  43.908   8.971   9.164
 1427POPC   GL120845  43.892   8.926   8.864
 1427POPC   GL220846  43.729   9.018   8.864
 1427POPC   C1A20847  43.911   8.994   8.564
 1427POPC   D2A20848  43.916   9.016   8.264
 1427POPC   C3A20849  43.913   8.967   7.964
 1427POPC   C4A20850  43.864   8.941   7.664
 1427POPC   C1B20851  43.621   9.059   8.564
 1427POPC   C2B20852  43.698   9.107   8.264
 1427POPC   C3B20853  43.616   9.083   7.964
 1427POPC   C4B20854  43.633   9.072   7.664
 1428POPC   NC320855  23.738  14.379   9.464
 1428POPC   PO420856  23.676  14.443   9.164
 1428POPC   GL120857  23.699  14.357   8.864
 1428POPC   GL220858  23.592  14.441   8.864
 1428POPC   C1A20859  23.693  14.368   8.564
 1428POPC   D2A20860  23.686  14.377   8.264
 1428POPC   C3A20861  23.750  14.388   7.964
 1428POPC   C4A20862  23.700  14.427   7.664
 1428POPC   C1B20863  23.483  14.382   8.564
 1428POPC   C2B20864  23.477  14.440   8.264
 1428POPC   C3B20865  23.484  14.377   7.964
 1428POPC   C4B20866  23.432  14.381   7.664
 1429POPC   NC320867  14.374  19.056   9.464
 1429POPC   PO420868  14.364  19.084   9.164
 1429POPC   GL120869  14.442  19.084   8.864
 1429POPC   GL220870  14.532  18.946   8.864
 1429POPC   C1A20871  14.358  19.074   8.564
 1429POPC   D2A20872  14.378  19.058   8.264
 1429POPC   C3A20873  14.396  19.040   7.964
 1429POPC   C4A20874  14.453  19.099   7.664
 1429POPC   C1B20875  14.576  18.920   8.564
 1429POPC   C2B20876  14.645  18.932   8.264
 1429POPC   C3B20877  14.600  18.875   7.964
 1429POPC   C4B20878  14.645  18.895   7.664
 1430POPC   NC320879  13.599  35.371   9.464
 1430POPC   PO420880  13.581  35.383   9.164
 1430POPC   GL120881  13.657  35.391   8.864
 1430POPC   GL220882  13.563  35.507   8.864
 1430POPC   C1A20883  13.657  35.384   8.564
 1430POPC   D2A20884  13.653  35.370   8.264
 1430POPC   C3A20885  13.607  35.347   7.964
 1430POPC   C4A20886  13.662  35.388   7.664
 1430POPC   C1B20887  13.513  35.572   8.564
 1430POPC   C2B20888  13.534  35.557   8.264
 1430POPC   C3B20889  13.518  35.609   7.964
 1430POPC   C4B20890  13.582  35.578   7.664
 1431POPC   NC320891   6.652  40.798   9.464
 1431POPC   PO420892   6.631  40.780   9.164
 1431POPC   GL120893   6.617  40.795   8.864
 1431POPC   GL220894   6.508  40.713   8.864
 1431POPC   C1A20895   6.599  40.797   8.564
 1431POPC   D2A20896   6.664  40.795   8.264
 1431POPC   C3A20897   6.693  40.799   7.964
 1431POPC   C4A20898   6.615  40.821   7.664
 1431POPC   C1B20899   6.484  40.624   8.564
 1431POPC   C2B20900   6.483  40.630   8.264
 1431POPC   C3B20901   6.410  40.653   7.964
 1431POPC   C4B20902   6.443  40.651   7.664
 1432POPC   NC320903  19.849  36.100   9.464
 1432POPC   PO420904  19.870  36.079   9.164
 1432POPC   GL120905  19.790  36.168   8.864
 1432POPC   GL220906  19.950  36.123   8.864
 1432POPC   C1A20907  19.798  36.093   8.564
 1432POPC   D2A20908  19.792  36.174   8.264
 1432POPC   C3A20909  19.838  36.080   7.964
 1432POPC   C4A20910  19.785  36.094   7.664
 1432POPC   C1B20911  20.058  36.123   8.564
 1432POPC   C2B20912  20.117  36.040   8.264
 1432POPC   C3B20913  20.104  36.101   7.964
 1432POPC   C4B20914  20.034  36.116   7.664
 1433POPC   NC320915  29.892  43.931   9.464
 1433POPC   PO420916  29.926  43.847   9.164
 1433POPC   GL120917  29.957  43.851   8.864
 1433POPC   GL220918  29.976  43.799   8.864
 1433POPC   C1A20919  29.891  43.888   8.564
 1433POPC   D2A20920  29.916  43.897   8.264
 1433POPC   C3A20921  29.913  43.897   7.964
 1433POPC   C4A20922  29.911  43.901   7.664
 1433POPC   C1B20923  30.012  43.676   8.564
 1433POPC   C2B20924  29.999  43.670   8.264
 1433POPC   C3B20925  29.976  43.698   7.964
 1433POPC   C4B20926  29.990  43.645   7.664
 1434POPC   NC320927  32.278  21.404   9.464
 1434POPC   PO420928  32.200  21.422   9.164
 1434POPC   GL120929  32.225  21.416   8.864
 1434POPC   GL220930  32.162  21.444   8.864
 1434POPC   C1A20931  32.262  21.407   8.564
 1434POPC   D2A20932  32.241  21.393   8.264
 1434POPC   C3A20933  32.283  21.380   7.964
 1434POPC   C4A20934  32.211  21.402   7.664
 1434POPC   C1B20935  32.040  21.471   8.564
 1434POPC   C2B20936  32.009  21.520   8.264
 1434POPC   C3B20937  31.967  21.472   7.964
 1434POPC   C4B20938  32.000  21.456   7.664
 1435POPC   NC320939  23.666  38.472   9.464
 1435POPC   PO420940  23.731  38.405   9.164
 1435POPC   GL120941  23.713  38.461   8.864
 1435POPC   GL220942  23.592  38.553   8.864
 1435POPC   C1A20943  23.763  38.408   8.564
 1435POPC   D2A20944  23.698  38.491   8.264
 1435POPC   C3A20945  23.728  38.422   7.964
 1435POPC   C4A20946  23.744  38.426   7.664
 1435POPC   C1B20947  23.555  38.660   8.564
 1435POPC   C2B20948  23.534  38.687   8.264
 1435POPC   C3B20949  23.529  38.682   7.964
 1435POPC   C4B20950  23.548  38.665   7.664
 1436POPC   NC320951  35.343  19.793   9.464
 1436POPC   PO420952  35.360  19.798   9.164
 1436POPC   GL120953  35.390  19.856   8.864
 1436POPC   GL220954  35.224  19.871   8.864
 1436POPC   C1A20955  35.332  19.848   8.564
 1436POPC   D2A20956  35.368  19.802   8.264
 1436POPC   C3A20957  35.346  19.884   7.964
 1436POPC   C4A20958  35.388  19.866   7.664
 1436POPC   C1B20959  35.138  19.851   8.564
 1436POPC   C2B20960  35.129  19.915   8.264
 1436POPC   C3B20961  35.084  19.911   7.964
 1436POPC   C4B20962  35.121  19.863   7.664
 1437POPC   NC320963   8.215  33.052   9.464
 1437POPC   PO420964   8.193  32.986   9.164
 1437POPC   GL120965   8.180  33.030   8.864
 1437POPC   GL220966   8.106  32.957   8.864
 1437POPC   C1A20967   8.237  33.062   8.564
 1437POPC   D2A20968   8.225  32.990   8.264
 1437POPC   C3A20969   8.233  32.978   7.964
 1437POPC   C4A20970   8.179  33.051   7.664
 1437POPC   C1B20971   8.077  32.816   8.564
 1437POPC   C2B20972   8.023  32.811   8.264
 1437POPC   C3B20973   8.000  32.785   7.964
 1437POPC   C4B20974   8.017  32.794   7.664
 1438POPC   NC320975  34.553  22.956   9.464
 1438POPC   PO420976  34.570  22.944   9.164
 1438POPC   GL120977  34.606  22.979   8.864
 1438POPC   GL220978  34.424  22.985   8.864
 1438POPC   C1A20979  34.581  22.957   8.564
 1438POPC   D2A20980  34.607  22.978   8.264
 1438POPC   C3A20981  34.598  22.973   7.964
 1438POPC   C4A20982  34.560  22.939   7.664
 1438POPC   C1B20983  34.288  22.960   8.564
 1438POPC   C2B20984  34.316  22.950   8.264
 1438POPC   C3B20985  34.288  22.975   7.964
 1438POPC   C4B20986  34.329  23.037   7.664
 1439POPC   NC320987  19.864  33.784   9.464
 1439POPC   PO420988  19.884  33.811   9.164
 1439POPC   GL120989  19.878  33.760   8.864
 1439POPC   GL220990  19.885  33.634   8.864
 1439POPC   C1A20991  19.817  33.804   8.564
 1439POPC   D2A20992  19.834  33.757   8.264
 1439POPC   C3A20993  19.803  33.782   7.964
 1439POPC   C4A20994  19.852  33.810   7.664
 1439POPC   C1B20995  19.936  33.564   8.564
 1439POPC   C2B20996  19.918  33.531   8.264
 1439POPC   C3B20997  19.867  33.581   7.964
 1439POPC   C4B20998  19.886  33.514   7.664
 1440POPC   NC320999   7.377  43.138   9.464
 1440POPC   PO421000   7.389  43.139   9.164
 1440POPC   GL121001   7.470  43.138   8.864
 1440POPC   GL221002   7.546  43.106   8.864
 1440POPC   C1A21003   7.387  43.063   8.564
 1440POPC   D2A21004   7.427  43.157   8.264
 1440POPC   C3A21005   7.403  43.136   7.964
 1440POPC   C4A21006   7.388  43.127   7.664
 1440POPC   C1B21007   7.617  43.173   8.564
 1440POPC   C2B21008   7.654  43.197   8.264
 1440POPC   C3B21009   7.631  43.156   7.964
 1440POPC   C4B21010   7.655  43.213   7.664
 1441POPC   NC321011  15.159  40.041   9.464
 1441POPC   PO421012  15.184  39.964   9.164
 1441POPC   GL121013  15.138  40.053   8.864
 1441POPC   GL221014  15.300  39.907   8.864
 1441POPC   C1A21015  15.209  39.993   8.564
 1441POPC   D2A21016  15.155  40.027   8.264
 1441POPC   C3A21017  15.176  40.033   7.964
 1441POPC   C4A21018  15.181  40.049   7.664
 1441POPC   C1B21019  15.400  39.843   8.564
 1441POPC   C2B21020  15.381  39.837   8.264
 1441POPC   C3B21021  15.359  39.878   7.964
 1441POPC   C4B21022  15.381  39.835   7.664
 1442POPC   NC321023   1.969  14.444   9.464
 1442POPC   PO421024   2.032  14.411   9.164
 1442POPC   GL121025   2.020  14.439   8.864
 1442POPC   GL221026   2.128  14.320   8.864
 1442POPC   C1A21027   1.946  14.429   8.564
 1442POPC   D2A21028   1.949  14.374   8.264
 1442POPC   C3A21029   2.008  14.443   7.964
 1442POPC   C4A21030   1.970  14.407   7.664
 1442POPC   C1B21031   2.157  14.298   8.564
 1442POPC   C2B21032   2.156  14.272   8.264
 1442POPC   C3B21033   2.144  14.226   7.964
 1442POPC   C4B21034   2.142  14.282   7.664
 1443POPC   NC321035  40.025  15.203   9.464
 1443POPC   PO421036  39.979  15.220   9.164
 1443POPC   GL121037  40.003  15.131   8.864
 1443POPC   GL221038  40.013  15.289   8.864
 1443POPC   C1A21039  39.993  15.192   8.564
 1443POPC   D2A21040  39.990  15.152   8.264
 1443POPC   C3A21041  40.032  15.194   7.964
 1443POPC   C4A21042  39.982  15.164   7.664
 1443POPC   C1B21043  40.028  15.393   8.564
 1443POPC   C2B21044  39.940  15.395   8.264
 1443POPC   C3B21045  39.966  15.435   7.964
 1443POPC   C4B21046  39.991  15.439   7.664
 1444POPC   NC321047  11.334  19.861   9.464
 1444POPC   PO421048  11.267  19.802   9.164
 1444POPC   GL121049  11.327  19.810   8.864
 1444POPC   GL221050  11.216  19.745   8.864
 1444POPC   C1A21051  11.316  19.791   8.564
 1444POPC   D2A21052  11.260  19.838   8.264
 1444POPC   C3A21053  11.273  19.815   7.964
 1444POPC   C4A21054  11.334  19.805   7.664
 1444POPC   C1B21055  11.131  19.622   8.564
 1444POPC   C2B21056  11.143  19.675   8.264
 1444POPC   C3B21057  11.095  19.692   7.964
 1444POPC   C4B21058  11.153  19.679   7.664
 1445POPC   NC321059   5.086  22.917   9.464
 1445POPC   PO421060   5.062  22.938   9.164
 1445POPC   GL121061   5.079  22.963   8.864
 1445POPC   GL221062   4.984  23.034   8.864
 1445POPC   C1A21063   5.068  22.946   8.564
 1445POPC   D2A21064   5.050  22.918   8.264
 1445POPC   C3A21065   5.129  22.931   7.964
 1445POPC   C4A21066   5.071  22.891   7.664
 1445POPC   C1B21067   4.879  23.050   8.564
 1445POPC   C2B21068   4.880  23.130   8.264
 1445POPC   C3B21069   4.916  23.135   7.964
 1445POPC   C4B21070   4.904  23.121   7.664
 1446POPC   NC321071  23.696  33.034   9.464
 1446POPC   PO421072  23.680  33.030   9.164
 1446POPC   GL121073  23.749  33.059   8.864
 1446POPC   GL221074  23.686  32.921   8.864
 1446POPC   C1A21075  23.671  33.039   8.564
 1446POPC   D2A21076  23.753  33.015   8.264
 1446POPC   C3A21077  23.763  33.060   7.964
 1446POPC   C4A21078  23.745  33.043   7.664
 1446POPC   C1B21079  23.711  32.764   8.564
 1446POPC   C2B21080  23.639  32.761   8.264
 1446POPC   C3B21081  23.716  32.761   7.964
 1446POPC   C4B21082  23.673  32.741   7.664
 1447POPC   NC321083  19.073  22.905   9.464
 1447POPC   PO421084  19.074  22.890   9.164
 1447POPC   GL121085  19.032  22.964   8.864
 1447POPC   GL221086  19.209  22.925   8.864
 1447POPC   C1A21087  19.094  22.928   8.564
 1447POPC   D2A21088  19.100  22.891   8.264
 1447POPC   C3A21089  19.039  22.895   7.964
 1447POPC   C4A21090  19.044  22.904   7.664
 1447POPC   C1B21091  19.329  22.807   8.564
 1447POPC   C2B21092  19.294  22.896   8.264
 1447POPC   C3B21093  19.278  22.875   7.964
 1447POPC   C4B21094  19.331  22.887   7.664
 1448POPC   NC321095  36.089  32.297   9.464
 1448POPC   PO421096  36.090  32.228   9.164
 1448POPC   GL121097  36.136  32.284   8.864
 1448POPC   GL221098  36.206  32.334   8.864
 1448POPC   C1A21099  36.135  32.264   8.564
 1448POPC   D2A21100  36.142  32.222   8.264
 1448POPC   C3A21101  36.127  32.252   7.964
 1448POPC   C4A21102  36.177  32.247   7.664
 1448POPC   C1B21103  36.300  32.419   8.564
 1448POPC   C2B21104  36.298  32.466   8.264
 1448POPC   C3B21105  36.292  32.408   7.964
 1448POPC   C4B21106  36.291  32.376   7.664
 1449POPC   NC321107  43.887  43.115   9.464
 1449POPC   PO421108  43.836  43.126   9.164
 1449POPC   GL121109  43.878  43.093   8.864
 1449POPC   GL221110  44.018  43.010   8.864
 1449POPC   C1A21111  43.924  43.092   8.564
 1449POPC   D2A21112  43.884  43.078   8.264
 1449POPC   C3A21113  43.888  43.147   7.964
 1449POPC   C4A21114  43.871  43.107   7.664
 1449POPC   C1B21115  44.094  42.919   8.564
 1449POPC   C2B21116  44.031  42.912   8.264
 1449POPC   C3B21117  44.016  42.943   7.964
 1449POPC   C4B21118  44.049  42.883   7.664
 1450POPC   NC321119   9.790   8.171   9.464
 1450POPC   PO421120   9.783   8.220   9.164
 1450POPC   GL121121   9.763   8.220   8.864
 1450POPC   GL221122   9.690   8.088   8.864
 1450POPC   C1A21123   9.715   8.244   8.564
 1450POPC   D2A21124   9.763   8.192   8.264
 1450POPC   C3A21125   9.719   8.193   7.964
 1450POPC   C4A21126   9.714   8.210   7.664
 1450POPC   C1B21127   9.699   7.962   8.564
 1450POPC   C2B21128   9.680   7.949   8.264
 1450POPC   C3B21129   9.682   7.977   7.964
 1450POPC   C4B21130   9.681   7.942   7.664
 1451POPC   NC321131  17.487  38.450   9.464
 1451POPC   PO421132  17.526  38.431   9.164
 1451POPC   GL121133  17.494  38.455   8.864
 1451POPC   GL221134  17.452  38.594   8.864
 1451POPC   C1A21135  17.481  38.427   8.564
 1451POPC   D2A21136  17.508  38.502   8.264
 1451POPC   C3A21137  17.481  38.414   7.964
 1451POPC   C4A21138  17.497  38.437   7.664
 1451POPC   C1B21139  17.393  38.642   8.564
 1451POPC   C2B21140  17.339  38.622   8.264
 1451POPC   C3B21141  17.382  38.634   7.964
 1451POPC   C4B21142  17.417  38.648   7.664
 1452POPC   NC321143  43.848   9.741   9.464
 1452POPC   PO421144  43.901   9.710   9.164
 1452POPC   GL121145  43.892   9.728   8.864
 1452POPC   GL221146  43.978   9.637   8.864
 1452POPC   C1A21147  43.844   9.734   8.564
 1452POPC   D2A21148  43.913   9.737   8.264
 1452POPC   C3A21149  43.933   9.711   7.964
 1452POPC   C4A21150  43.902   9.745   7.664
 1452POPC   C1B21151  44.097   9.653   8.564
 1452POPC   C2B21152  44.113   9.619   8.264
 1452POPC   C3B21153  44.131   9.654   7.964
 1452POPC   C4B21154  44.088   9.571   7.664
 1453POPC   NC321155  37.670   5.073   9.464
 1453POPC   PO421156  37.707   5.130   9.164
 1453POPC   GL121157  37.671   5.103   8.864
 1453POPC   GL221158  37.567   5.056   8.864
 1453POPC   C1A21159  37.729   5.135   8.564
 1453POPC   D2A21160  37.639   5.076   8.264
 1453POPC   C3A21161  37.679   5.054   7.964
 1453POPC   C4A21162  37.635   5.051   7.664
 1453POPC   C1B21163  37.510   4.897   8.564
 1453POPC   C2B21164  37.536   4.905   8.264
 1453POPC   C3B21165  37.446   4.883   7.964
 1453POPC   C4B21166  37.480   4.928   7.664
 1454POPC   NC321167  30.706  13.675   9.464
 1454POPC   PO421168  30.678  13.594   9.164
 1454POPC   GL121169  30.708  13.592   8.864
 1454POPC   GL221170  30.778  13.560   8.864
 1454POPC   C1A21171  30.706  13.615   8.564
 1454POPC   D2A21172  30.716  13.672   8.264
 1454POPC   C3A21173  30.699  13.613   7.964
 1454POPC   C4A21174  30.690  13.593   7.664
 1454POPC   C1B21175  30.890  13.404   8.564
 1454POPC   C2B21176  30.905  13.421   8.264
 1454POPC   C3B21177  30.837  13.433   7.964
 1454POPC   C4B21178  30.807  13.433   7.664
 1455POPC   NC321179   8.175  15.215   9.464
 1455POPC   PO421180   8.195  15.195   9.164
 1455POPC   GL121181   8.213  15.214   8.864
 1455POPC   GL221182   8.112  15.130   8.864
 1455POPC   C1A21183   8.236  15.162   8.564
 1455POPC   D2A21184   8.213  15.198   8.264
 1455POPC   C3A21185   8.179  15.130   7.964
 1455POPC   C4A21186   8.212  15.217   7.664
 1455POPC   C1B21187   7.983  15.061   8.564
 1455POPC   C2B21188   7.942  15.133   8.264
 1455POPC   C3B21189   7.925  15.091   7.964
 1455POPC   C4B21190   7.938  15.124   7.664
 1456POPC   NC321191   5.063  19.076   9.464
 1456POPC   PO421192   5.126  19.078   9.164
 1456POPC   GL121193   5.082  19.081   8.864
 1456POPC   GL221194   4.967  19.028   8.864
 1456POPC   C1A21195   5.044  19.073   8.564
 1456POPC   D2A21196   5.063  19.106   8.264
 1456POPC   C3A21197   5.052  19.051   7.964
 1456POPC   C4A21198   5.066  19.098   7.664
 1456POPC   C1B21199   4.824  19.006   8.564
 1456POPC   C2B21200   4.811  18.996   8.264
 1456POPC   C3B21201   4.826  18.999   7.964
 1456POPC   C4B21202   4.829  19.038   7.664
 1457POPC   NC321203  14.411  30.687   9.464
 1457POPC   PO421204  14.452  30.744   9.164
 1457POPC   GL121205  14.394  30.672   8.864
 1457POPC   GL221206  14.499  30.751   8.864
 1457POPC   C1A21207  14.373  30.729   8.564
 1457POPC   D2A21208  14.383  30.670   8.264
 1457POPC   C3A21209  14.374  30.699   7.964
 1457POPC   C4A21210  14.370  30.745   7.664
 1457POPC   C1B21211  14.575  30.919   8.564
 1457POPC   C2B21212  14.588  30.892   8.264
 1457POPC   C3B21213  14.494  30.854   7.964
 1457POPC   C4B21214  14.564  30.895   7.664
 1458POPC   NC321215  43.096  39.995   9.464
 1458POPC   PO421216  43.096  40.009   9.164
 1458POPC   GL121217  43.076  39.961   8.864
 1458POPC   GL221218  43.052  40.131   8.864
 1458POPC   C1A21219  43.094  39.968   8.564
 1458POPC   D2A21220  43.129  40.037   8.264
 1458POPC   C3A21221  43.146  39.979   7.964
 1458POPC   C4A21222  43.076  40.057   7.664
 1458POPC   C1B21223  43.095  40.223   8.564
 1458POPC   C2B21224  43.099  40.292   8.264
 1458POPC   C3B21225  43.117  40.239   7.964
 1458POPC   C4B21226  43.056  40.257   7.664
 1459POPC   NC321227  13.644   9.747   9.464
 1459POPC   PO421228  13.661   9.724   9.164
 1459POPC   GL121229  13.675   9.711   8.864
 1459POPC   GL221230  13.524   9.719   8.864
 1459POPC   C1A21231  13.652   9.711   8.564
 1459POPC   D2A21232  13.582   9.775   8.264
 1459POPC   C3A21233  13.653   9.709   7.964
 1459POPC   C4A21234  13.655   9.716   7.664
 1459POPC   C1B21235  13.383   9.779   8.564
 1459POPC   C2B21236  13.380   9.779   8.264
 1459POPC   C3B21237  13.406   9.770   7.964
 1459POPC   C4B21238  13.340   9.781   7.664
 1460POPC   NC321239   3.520  29.121   9.464
 1460POPC   PO421240   3.578  29.163   9.164
 1460POPC   GL121241   3.532  29.104   8.864
 1460POPC   GL221242   3.572  29.289   8.864
 1460POPC   C1A21243   3.578  29.173   8.564
 1460POPC   D2A21244   3.556  29.160   8.264
 1460POPC   C3A21245   3.519  29.173   7.964
 1460POPC   C4A21246   3.510  29.152   7.664
 1460POPC   C1B21247   3.644  29.351   8.564
 1460POPC   C2B21248   3.666  29.359   8.264
 1460POPC   C3B21249   3.663  29.336   7.964
 1460POPC   C4B21250   3.697  29.313   7.664
 1461POPC   NC321251  14.445  39.197   9.464
 1461POPC   PO421252  14.399  39.211   9.164
 1461POPC   GL121253  14.393  39.191   8.864
 1461POPC   GL221254  14.315  39.341   8.864
 1461POPC   C1A21255  14.374  39.194   8.564
 1461POPC   D2A21256  14.393  39.270   8.264
 1461POPC   C3A21257  14.401  39.219   7.964
 1461POPC   C4A21258  14.410  39.200   7.664
 1461POPC   C1B21259  14.292  39.460   8.564
 1461POPC   C2B21260  14.282  39.503   8.264
 1461POPC   C3B21261  14.275  39.454   7.964
 1461POPC   C4B21262  14.335  39.452   7.664
 1462POPC   NC321263  22.971   5.067   9.464
 1462POPC   PO421264  22.970   5.115   9.164
 1462POPC   GL121265  22.986   5.068   8.864
 1462POPC   GL221266  22.958   5.197   8.864
 1462POPC   C1A21267  22.979   5.136   8.564
 1462POPC   D2A21268  22.896   5.140   8.264
 1462POPC   C3A21269  22.927   5.047   7.964
 1462POPC   C4A21270  22.899   5.102   7.664
 1462POPC   C1B21271  23.011   5.321   8.564
 1462POPC   C2B21272  23.083   5.344   8.264
 1462POPC   C3B21273  23.096   5.349   7.964
 1462POPC   C4B21274  23.053   5.278   7.664
 1463POPC   NC321275  26.032   2.763   9.464
 1463POPC   PO421276  26.047   2.802   9.164
 1463POPC   GL121277  26.090   2.800   8.864
 1463POPC   GL221278  26.129   2.753   8.864
 1463POPC   C1A21279  26.019   2.723   8.564
 1463POPC   D2A21280  26.078   2.787   8.264
 1463POPC   C3A21281  26.064   2.776   7.964
 1463POPC   C4A21282  25.996   2.745   7.664
 1463POPC   C1B21283  26.297   2.657   8.564
 1463POPC   C2B21284  26.286   2.743   8.264
 1463POPC   C3B21285  26.292   2.739   7.964
 1463POPC   C4B21286  26.306   2.755   7.664
 1464POPC   NC321287  22.896  29.959   9.464
 1464POPC   PO421288  22.919  29.936   9.164
 1464POPC   GL121289  22.944  29.877   8.864
 1464POPC   GL221290  23.052  30.006   8.864
 1464POPC   C1A21291  22.974  29.901   8.564
 1464POPC   D2A21292  22.940  29.898   8.264
 1464POPC   C3A21293  22.943  29.914   7.964
 1464POPC   C4A21294  22.935  29.967   7.664
 1464POPC   C1B21295  23.066  30.067   8.564
 1464POPC   C2B21296  23.115  30.115   8.264
 1464POPC   C3B21297  23.143  30.076   7.964
 1464POPC   C4B21298  23.142  30.153   7.664
 1465POPC   NC321299   4.362  23.754   9.464
 1465POPC   PO421300   4.276  23.736   9.164
 1465POPC   GL121301   4.296  23.710   8.864
 1465POPC   GL221302   4.259  23.851   8.864
 1465POPC   C1A21303   4.323  23.751   8.564
 1465POPC   D2A21304   4.267  23.760   8.264
 1465POPC   C3A21305   4.296  23.682   7.964
 1465POPC   C4A21306   4.296  23.681   7.664
 1465POPC   C1B21307   4.306  23.980   8.564
 1465POPC   C2B21308   4.316  23.937   8.264
 1465POPC   C3B21309   4.291  23.915   7.964
 1465POPC   C4B21310   4.247  23.998   7.664
 1466POPC   NC321311  40.817  36.131   9.464
 1466POPC   PO421312  40.748  36.169   9.164
 1466POPC   GL121313  40.784  36.175   8.864
 1466POPC   GL221314  40.894  36.025   8.864
 1466POPC   C1A21315  40.733  36.174   8.564
 1466POPC   D2A21316  40.821  36.168   8.264
 1466POPC   C3A21317  40.763  36.156   7.964
 1466POPC   C4A21318  40.775  36.160   7.664
 1466POPC   C1B21319  40.907  35.911   8.564
 1466POPC   C2B21320  40.897  35.867   8.264
 1466POPC   C3B21321  40.889  35.963   7.964
 1466POPC   C4B21322  40.946  35.962   7.664
 1467POPC   NC321323  24.444   8.953   9.464
 1467POPC   PO421324  24.505   8.971   9.164
 1467POPC   GL121325  24.468   8.944   8.864
 1467POPC   GL221326  24.539   9.143   8.864
 1467POPC   C1A21327  24.539   8.976   8.564
 1467POPC   D2A21328  24.530   9.003   8.264
 1467POPC   C3A21329  24.500   8.984   7.964
 1467POPC   C4A21330  24.456   8.986   7.664
 1467POPC   C1B21331  24.504   9.183   8.564
 1467POPC   C2B21332  24.547   9.212   8.264
 1467POPC   C3B21333  24.550   9.235   7.964
 1467POPC   C4B21334  24.538   9.168   7.664
 1468POPC   NC321335  33.753  38.471   9.464
 1468POPC   PO421336  33.793  38.505   9.164
 1468POPC   GL121337  33.807  38.476   8.864
 1468POPC   GL221338  33.802  38.568   8.864
 1468POPC   C1A21339  33.831  38.480   8.564
 1468POPC   D2A21340  33.838  38.438   8.264
 1468POPC   C3A21341  33.784  38.456   7.964
 1468POPC   C4A21342  33.799  38.407   7.664
 1468POPC   C1B21343  33.673  38.721   8.564
 1468POPC   C2B21344  33.763  38.671   8.264
 1468POPC   C3B21345  33.722  38.659   7.964
 1468POPC   C4B21346  33.675  38.641   7.664
 1469POPC   NC321347  33.819  18.252   9.464
 1469POPC   PO421348  33.771  18.268   9.164
 1469POPC   GL121349  33.785  18.277   8.864
 1469POPC   GL221350  33.908  18.196   8.864
 1469POPC   C1A21351  33.793  18.258   8.564
 1469POPC   D2A21352  33.835  18.324   8.264
 1469POPC   C3A21353  33.752  18.286   7.964
 1469POPC   C4A21354  33.794  18.321   7.664
 1469POPC   C1B21355  33.913  18.096   8.564
 1469POPC   C2B21356  33.989  18.050   8.264
 1469POPC   C3B21357  34.000  18.087   7.964
 1469POPC   C4B21358  33.950  18.093   7.664
 1470POPC   NC321359  25.238  22.173   9.464
 1470POPC   PO421360  25.239  22.130   9.164
 1470POPC   GL121361  25.267  22.128   8.864
 1470POPC   GL221362  25.215  21.992   8.864
 1470POPC   C1A21363  25.218  22.114   8.564
 1470POPC   D2A21364  25.271  22.115   8.264
 1470POPC   C3A21365  25.259  22.155   7.964
 1470POPC   C4A21366  25.231  22.142   7.664
 1470POPC   C1B21367  25.219  21.888   8.564
 1470POPC   C2B21368  25.209  21.927   8.264
 1470POPC   C3B21369  25.191  21.913   7.964
 1470POPC   C4B21370  25.232  21.907   7.664
 1471POPC   NC321371  21.400  35.379   9.464
 1471POPC   PO421372  21.348  35.363   9.164
 1471POPC   GL121373  21.360  35.347   8.864
 1471POPC   GL221374  21.400  35.446   8.864
 1471POPC   C1A21375  21.406  35.325   8.564
 1471POPC   D2A21376  21.428  35.350   8.264
 1471POPC   C3A21377  21.343  35.347   7.964
 1471POPC   C4A21378  21.344  35.371   7.664
 1471POPC   C1B21379  21.368  35.555   8.564
 1471POPC   C2B21380  21.372  35.571   8.264
 1471POPC   C3B21381  21.347  35.623   7.964
 1471POPC   C4B21382  21.280  35.618   7.664
 1472POPC   NC321383  17.467  39.195   9.464
 1472POPC   PO421384  17.505  39.203   9.164
 1472POPC   GL121385  17.463  39.238   8.864
 1472POPC   GL221386  17.426  39.296   8.864
 1472POPC   C1A21387  17.496  39.265   8.564
 1472POPC   D2A21388  17.554  39.217   8.264
 1472POPC   C3A21389  17.552  39.244   7.964
 1472POPC   C4A21390  17.527  39.274   7.664
 1472POPC   C1B21391  17.246  39.321   8.564
 1472POPC   C2B21392  17.234  39.314   8.264
 1472POPC   C3B21393  17.280  39.294   7.964
 1472POPC   C4B21394  17.280  39.308   7.664
 1473POPC   NC321395  31.450   5.882   9.464
 1473POPC   PO421396  31.500   5.897   9.164
 1473POPC   GL121397  31.479   5.885   8.864
 1473POPC   GL221398  31.307   5.893   8.864
 1473POPC   C1A21399  31.507   5.833   8.564
 1473POPC   D2A21400  31.507   5.887   8.264
 1473POPC   C3A21401  31.518   5.847   7.964
 1473POPC   C4A21402  31.488   5.839   7.664
 1473POPC   C1B21403  31.193   5.962   8.564
 1473POPC   C2B21404  31.191   5.921   8.264
 1473POPC   C3B21405  31.243   5.984   7.964
 1473POPC   C4B21406  31.276   5.920   7.664
 1474POPC   NC321407  15.163  29.915   9.464
 1474POPC   PO421408  15.169  29.955   9.164
 1474POPC   GL121409  15.179  29.872   8.864
 1474POPC   GL221410  15.118  29.824   8.864
 1474POPC   C1A21411  15.200  29.969   8.564
 1474POPC   D2A21412  15.136  29.919   8.264
 1474POPC   C3A21413  15.135  29.921   7.964
 1474POPC   C4A21414  15.140  29.875   7.664
 1474POPC   C1B21415  15.011  29.739   8.564
 1474POPC   C2B21416  15.099  29.692   8.264
 1474POPC   C3B21417  15.050  29.705   7.964
 1474POPC   C4B21418  15.106  29.667   7.664
 1475POPC   NC321419   5.136   1.243   9.464
 1475POPC   PO421420   5.117   1.214   9.164
 1475POPC   GL121421   5.109   1.241   8.864
 1475POPC   GL221422   4.946   1.265   8.864
 1475POPC   C1A21423   5.079   1.239   8.564
 1475POPC   D2A21424   5.095   1.209   8.264
 1475POPC   C3A21425   5.050   1.182   7.964
 1475POPC   C4A21426   5.130   1.228   7.664
 1475POPC   C1B21427   4.878   1.290   8.564
 1475POPC   C2B21428   4.848   1.314   8.264
 1475POPC   C3B21429   4.871   1.323   7.964
 1475POPC   C4B21430   4.884   1.333   7.664
 1476POPC   NC321431  11.324  15.931   9.464
 1476POPC   PO421432  11.288  15.945   9.164
 1476POPC   GL121433  11.348  15.997   8.864
 1476POPC   GL221434  11.424  16.015   8.864
 1476POPC   C1A21435  11.256  15.908   8.564
 1476POPC   D2A21436  11.319  15.946   8.264
 1476POPC   C3A21437  11.281  15.966   7.964
 1476POPC   C4A21438  11.275  15.959   7.664
 1476POPC   C1B21439  11.529  15.939   8.564
 1476POPC   C2B21440  11.498  15.957   8.264
 1476POPC   C3B21441  11.575  16.007   7.964
 1476POPC   C4B21442  11.505  16.012   7.664
 1477POPC   NC321443  34.594   4.334   9.464
 1477POPC   PO421444  34.604   4.313   9.164
 1477POPC   GL121445  34.595   4.318   8.864
 1477POPC   GL221446  34.660   4.393   8.864
 1477POPC   C1A21447  34.559   4.285   8.564
 1477POPC   D2A21448  34.585   4.283   8.264
 1477POPC   C3A21449  34.566   4.348   7.964
 1477POPC   C4A21450  34.588   4.289   7.664
 1477POPC   C1B21451  34.766   4.395   8.564
 1477POPC   C2B21452  34.771   4.392   8.264
 1477POPC   C3B21453  34.845   4.411   7.964
 1477POPC   C4B21454  34.790   4.426   7.664
 1478POPC   NC321455  26.842  36.923   9.464
 1478POPC   PO421456  26.830  36.936   9.164
 1478POPC   GL121457  26.831  36.863   8.864
 1478POPC   GL221458  26.733  37.014   8.864
 1478POPC   C1A21459  26.816  36.868   8.564
 1478POPC   D2A21460  26.838  36.917   8.264
 1478POPC   C3A21461  26.813  36.870   7.964
 1478POPC   C4A21462  26.802  36.911   7.664
 1478POPC   C1B21463  26.693  37.110   8.564
 1478POPC   C2B21464  26.702  37.109   8.264
 1478POPC   C3B21465  26.733  37.142   7.964
 1478POPC   C4B21466  26.766  37.143   7.664
 1479POPC   NC321467   7.417   1.963   9.464
 1479POPC   PO421468   7.424   1.986   9.164
 1479POPC   GL121469   7.428   1.940   8.864
 1479POPC   GL221470   7.399   2.104   8.864
 1479POPC   C1A21471   7.429   2.029   8.564
 1479POPC   D2A21472   7.464   1.970   8.264
 1479POPC   C3A21473   7.383   2.003   7.964
 1479POPC   C4A21474   7.378   2.014   7.664
 1479POPC   C1B21475   7.391   2.211   8.564
 1479POPC   C2B21476   7.345   2.276   8.264
 1479POPC   C3B21477   7.337   2.253   7.964
 1479POPC   C4B21478   7.414   2.236   7.664
 1480POPC   NC321479   8.961   1.969   9.464
 1480POPC   PO421480   8.945   1.964   9.164
 1480POPC   GL121481   8.974   1.976   8.864
 1480POPC   GL221482   8.864   1.935   8.864
 1480POPC   C1A21483   9.019   2.018   8.564
 1480POPC   D2A21484   8.929   1.948   8.264
 1480POPC   C3A21485   8.975   2.035   7.964
 1480POPC   C4A21486   8.923   2.022   7.664
 1480POPC   C1B21487   8.708   1.886   8.564
 1480POPC   C2B21488   8.725   1.873   8.264
 1480POPC   C3B21489   8.729   1.864   7.964
 1480POPC   C4B21490   8.747   1.949   7.664
 1481POPC   NC321491  27.591  15.953   9.464
 1481POPC   PO421492  27.571  15.910   9.164
 1481POPC   GL121493  27.567  15.961   8.864
 1481POPC   GL221494  27.606  16.061   8.864
 1481POPC   C1A21495  27.577  15.993   8.564
 1481POPC   D2A21496  27.614  15.995   8.264
 1481POPC   C3A21497  27.641  15.979   7.964
 1481POPC   C4A21498  27.567  15.972   7.664
 1481POPC   C1B21499  27.731  16.169   8.564
 1481POPC   C2B21500  27.719  16.202   8.264
 1481POPC   C3B21501  27.734  16.213   7.964
 1481POPC   C4B21502  27.709  16.181   7.664
 1482POPC   NC321503   9.791  17.492   9.464
 1482POPC   PO421504   9.758  17.550   9.164
 1482POPC   GL121505   9.754  17.542   8.864
 1482POPC   GL221506   9.592  17.497   8.864
 1482POPC   C1A21507   9.740  17.546   8.564
 1482POPC   D2A21508   9.718  17.529   8.264
 1482POPC   C3A21509   9.716  17.486   7.964
 1482POPC   C4A21510   9.717  17.508   7.664
 1482POPC   C1B21511   9.461  17.442   8.564
 1482POPC   C2B21512   9.537  17.396   8.264
 1482POPC   C3B21513   9.505  17.480   7.964
 1482POPC   C4B21514   9.548  17.461   7.664
 1483POPC   NC321515   2.749  40.736   9.464
 1483POPC   PO421516   2.795  40.748   9.164
 1483POPC   GL121517   2.726  40.776   8.864
 1483POPC   GL221518   2.806  40.924   8.864
 1483POPC   C1A21519   2.785  40.765   8.564
 1483POPC   D2A21520   2.721  40.787   8.264
 1483POPC   C3A21521   2.756  40.780   7.964
 1483POPC   C4A21522   2.798  40.802   7.664
 1483POPC   C1B21523   2.918  40.956   8.564
 1483POPC   C2B21524   2.926  40.988   8.264
 1483POPC   C3B21525   2.916  40.955   7.964
 1483POPC   C4B21526   2.931  40.994   7.664
 1484POPC   NC321527  41.550  43.089   9.464
 1484POPC   PO421528  41.536  43.095   9.164
 1484POPC   GL121529  41.550  43.158   8.864
 1484POPC   GL221530  41.598  42.943   8.864
 1484POPC   C1A21531  41.545  43.129   8.564
 1484POPC   D2A21532  41.528  43.061   8.264
 1484POPC   C3A21533  41.544  43.084   7.964
 1484POPC   C4A21534  41.556  43.131   7.664
 1484POPC   C1B21535  41.549  42.844   8.564
 1484POPC   C2B21536  41.568  42.891   8.264
 1484POPC   C3B21537  41.617  42.834   7.964
 1484POPC   C4B21538  41.636  42.871   7.664
 1485POPC   NC321539  18.244  16.769   9.464
 1485POPC   PO421540  18.297  16.781   9.164
 1485POPC   GL121541  18.315  16.750   8.864
 1485POPC   GL221542  18.364  16.789   8.864
 1485POPC   C1A21543  18.247  16.733   8.564
 1485POPC   D2A21544  18.253  16.758   8.264
 1485POPC   C3A21545  18.294  16.696   7.964
 1485POPC   C4A21546  18.323  16.746   7.664
 1485POPC   C1B21547  18.513  16.922   8.564
 1485POPC   C2B21548  18.484  16.931   8.264
 1485POPC   C3B21549  18.487  16.908   7.964
 1485POPC   C4B21550  18.480  16.913   7.664
 1486POPC   NC321551  40.741  33.760   9.464
 1486POPC   PO421552  40.805  33.781   9.164
 1486POPC   GL121553  40.823  33.820   8.864
 1486POPC   GL221554  40.922  33.715   8.864
 1486POPC   C1A21555  40.756  33.834   8.564
 1486POPC   D2A21556  40.813  33.764   8.264
 1486POPC   C3A21557  40.740  33.843   7.964
 1486POPC   C4A21558  40.783  33.774   7.664
 1486POPC   C1B21559  40.971  33.601   8.564
 1486POPC   C2B21560  40.926  33.651   8.264
 1486POPC   C3B21561  40.997  33.654   7.964
 1486POPC   C4B21562  41.012  33.674   7.664
 1487POPC   NC321563  35.330   5.099   9.464
 1487POPC   PO421564  35.377   5.130   9.164
 1487POPC   GL121565  35.357   5.077   8.864
 1487POPC   GL221566  35.478   4.983   8.864
 1487POPC   C1A21567  35.382   5.116   8.564
 1487POPC   D2A21568  35.355   5.089   8.264
 1487POPC   C3A21569  35.336   5.058   7.964
 1487POPC   C4A21570  35.336   5.132   7.664
 1487POPC   C1B21571  35.541   4.880   8.564
 1487POPC   C2B21572  35.515   4.944   8.264
 1487POPC   C3B21573  35.524   4.972   7.964
 1487POPC   C4B21574  35.572   4.952   7.664
 1488POPC   NC321575  23.684  13.586   9.464
 1488POPC   PO421576  23.726  13.675   9.164
 1488POPC   GL121577  23.736  13.580   8.864
 1488POPC   GL221578  23.836  13.568   8.864
 1488POPC   C1A21579  23.701  13.645   8.564
 1488POPC   D2A21580  23.760  13.651   8.264
 1488POPC   C3A21581  23.671  13.652   7.964
 1488POPC   C4A21582  23.690  13.652   7.664
 1488POPC   C1B21583  23.947  13.531   8.564
 1488POPC   C2B21584  23.927  13.452   8.264
 1488POPC   C3B21585  23.960  13.519   7.964
 1488POPC   C4B21586  23.956  13.534   7.664
 1489POPC   NC321587   5.128  28.336   9.464
 1489POPC   PO421588   5.123  28.406   9.164
 1489POPC   GL121589   5.079  28.363   8.864
 1489POPC   GL221590   5.039  28.318   8.864
 1489POPC   C1A21591   5.069  28.399   8.564
 1489POPC   D2A21592   5.136  28.383   8.264
 1489POPC   C3A21593   5.110  28.335   7.964
 1489POPC   C4A21594   5.139  28.342   7.664
 1489POPC   C1B21595   4.942  28.133   8.564
 1489POPC   C2B21596   4.971  28.193   8.264
 1489POPC   C3B21597   4.922  28.175   7.964
 1489POPC   C4B21598   4.979  28.210   7.664
 1490POPC   NC321599  13.585  40.007   9.464
 1490POPC   PO421600  13.579  40.005   9.164
 1490POPC   GL121601  13.595  40.024   8.864
 1490POPC   GL221602  13.713  40.049   8.864
 1490POPC   C1A21603  13.615  39.984   8.564
 1490POPC   D2A21604  13.658  40.029   8.264
 1490POPC   C3A21605  13.607  39.988   7.964
 1490POPC   C4A21606  13.655  40.015   7.664
 1490POPC   C1B21607  13.847  40.047   8.564
 1490POPC   C2B21608  13.885  40.061   8.264
 1490POPC   C3B21609  13.836  40.128   7.964
 1490POPC   C4B21610  13.884  40.121   7.664
 1491POPC   NC321611  27.592  38.466   9.464
 1491POPC   PO421612  27.584  38.476   9.164
 1491POPC   GL121613  27.572  38.478   8.864
 1491POPC   GL221614  27.510  38.453   8.864
 1491POPC   C1A21615  27.546  38.451   8.564
 1491POPC   D2A21616  27.611  38.463   8.264
 1491POPC   C3A21617  27.566  38.498   7.964
 1491POPC   C4A21618  27.564  38.493   7.664
 1491POPC   C1B21619  27.320  38.477   8.564
 1491POPC   C2B21620  27.371  38.408   8.264
 1491POPC   C3B21621  27.370  38.411   7.964
 1491POPC   C4B21622  27.349  38.396   7.664
 1492POPC   NC321623  36.900  33.025   9.464
 1492POPC   PO421624  36.914  33.044   9.164
 1492POPC   GL121625  36.904  33.069   8.864
 1492POPC   GL221626  37.048  32.921   8.864
 1492POPC   C1A21627  36.867  33.056   8.564
 1492POPC   D2A21628  36.898  33.003   8.264
 1492POPC   C3A21629  36.927  33.022   7.964
 1492POPC   C4A21630  36.888  33.036   7.664
 1492POPC   C1B21631  37.094  32.935   8.564
 1492POPC   C2B21632  37.122  32.910   8.264
 1492POPC   C3B21633  37.109  32.892   7.964
 1492POPC   C4B21634  37.102  32.861   7.664
 1493POPC   NC321635  22.969  43.110   9.464
 1493POPC   PO421636  22.908  43.063   9.164
 1493POPC   GL121637  22.980  43.154   8.864
 1493POPC   GL221638  23.069  43.094   8.864
 1493POPC   C1A21639  22.893  43.067   8.564
 1493POPC   D2A21640  22.896  43.124   8.264
 1493POPC   C3A21641  22.961  43.119   7.964
 1493POPC   C4A21642  22.938  43.119   7.664
 1493POPC   C1B21643  23.218  43.006   8.564
 1493POPC   C2B21644  23.182  43.054   8.264
 1493POPC   C3B21645  23.188  43.046   7.964
 1493POPC   C4B21646  23.211  42.979   7.664
 1494POPC   NC321647  14.421  43.113   9.464
 1494POPC   PO421648  14.425  43.123   9.164
 1494POPC   GL121649  14.362  43.144   8.864
 1494POPC   GL221650  14.474  43.070   8.864
 1494POPC   C1A21651  14.360  43.067   8.564
 1494POPC   D2A21652  14.375  43.067   8.264
 1494POPC   C3A21653  14.440  43.077   7.964
 1494POPC   C4A21654  14.372  43.139   7.664
 1494POPC   C1B21655  14.631  43.036   8.564
 1494POPC   C2B21656  14.622  43.075   8.264
 1494POPC   C3B21657  14.620  43.037   7.964
 1494POPC   C4B21658  14.660  43.027   7.664
 1495POPC   NC321659  36.909   4.348   9.464
 1495POPC   PO421660  36.861   4.292   9.164
 1495POPC   GL121661  36.928   4.318   8.864
 1495POPC   GL221662  36.842   4.411   8.864
 1495POPC   C1A21663  36.907   4.288   8.564
 1495POPC   D2A21664  36.913   4.280   8.264
 1495POPC   C3A21665  36.932   4.359   7.964
 1495POPC   C4A21666  36.929   4.272   7.664
 1495POPC   C1B21667  36.910   4.606   8.564
 1495POPC   C2B21668  36.871   4.600   8.264
 1495POPC   C3B21669  36.894   4.550   7.964
 1495POPC   C4B21670  36.829   4.522   7.664
 1496POPC   NC321671  43.882  28.333   9.464
 1496POPC   PO421672  43.838  28.364   9.164
 1496POPC   GL121673  43.930  28.349   8.864
 1496POPC   GL221674  43.857  28.225   8.864
 1496POPC   C1A21675  43.866  28.399   8.564
 1496POPC   D2A21676  43.914  28.382   8.264
 1496POPC   C3A21677  43.840  28.408   7.964
 1496POPC   C4A21678  43.869  28.354   7.664
 1496POPC   C1B21679  43.726  28.158   8.564
 1496POPC   C2B21680  43.771  28.156   8.264
 1496POPC   C3B21681  43.714  28.120   7.964
 1496POPC   C4B21682  43.723  28.179   7.664
 1497POPC   NC321683  17.556  22.141   9.464
 1497POPC   PO421684  17.524  22.128   9.164
 1497POPC   GL121685  17.469  22.136   8.864
 1497POPC   GL221686  17.580  22.192   8.864
 1497POPC   C1A21687  17.529  22.150   8.564
 1497POPC   D2A21688  17.470  22.130   8.264
 1497POPC   C3A21689  17.497  22.116   7.964
 1497POPC   C4A21690  17.495  22.154   7.664
 1497POPC   C1B21691  17.711  22.305   8.564
 1497POPC   C2B21692  17.720  22.274   8.264
 1497POPC   C3B21693  17.691  22.362   7.964
 1497POPC   C4B21694  17.714  22.294   7.664
 1498POPC   NC321695  30.677  29.127   9.464
 1498POPC   PO421696  30.723  29.109   9.164
 1498POPC   GL121697  30.657  29.135   8.864
 1498POPC   GL221698  30.822  29.137   8.864
 1498POPC   C1A21699  30.720  29.180   8.564
 1498POPC   D2A21700  30.649  29.177   8.264
 1498POPC   C3A21701  30.701  29.136   7.964
 1498POPC   C4A21702  30.682  29.173   7.664
 1498POPC   C1B21703  30.960  29.147   8.564
 1498POPC   C2B21704  30.915  29.135   8.264
 1498POPC   C3B21705  30.944  29.154   7.964
 1498POPC   C4B21706  30.910  29.069   7.664
 1499POPC   NC321707   9.742  12.829   9.464
 1499POPC   PO421708   9.797  12.861   9.164
 1499POPC   GL121709   9.734  12.873   8.864
 1499POPC   GL221710   9.698  13.007   8.864
 1499POPC   C1A21711   9.711  12.807   8.564
 1499POPC   D2A21712   9.712  12.842   8.264
 1499POPC   C3A21713   9.724  12.818   7.964
 1499POPC   C4A21714   9.748  12.839   7.664
 1499POPC   C1B21715   9.751  13.085   8.564
 1499POPC   C2B21716   9.749  13.062   8.264
 1499POPC   C3B21717   9.751  13.122   7.964
 1499POPC   C4B21718   9.740  13.066   7.664
 1500POPC   NC321719   0.430  43.855   9.464
 1500POPC   PO421720   0.482  43.924   9.164
 1500POPC   GL121721   0.437  43.855   8.864
 1500POPC   GL221722   0.594  43.874   8.864
 1500POPC   C1A21723   0.482  43.890   8.564
 1500POPC   D2A21724   0.432  43.900   8.264
 1500POPC   C3A21725   0.431  43.922   7.964
 1500POPC   C4A21726   0.482  43.855   7.664
 1500POPC   C1B21727   0.723  43.808   8.564
 1500POPC   C2B21728   0.689  43.790   8.264
 1500POPC   C3B21729   0.697  43.864   7.964
 1500POPC   C4B21730   0.710  43.856   7.664
 1501POPC   NC321731  33.818   5.853   9.464
 1501POPC   PO421732  33.830   5.902   9.164
 1501POPC   GL121733  33.777   5.842   8.864
 1501POPC   GL221734  33.793   5.773   8.864
 1501POPC   C1A21735  33.813   5.832   8.564
 1501POPC   D2A21736  33.758   5.905   8.264
 1501POPC   C3A21737  33.837   5.829   7.964
 1501POPC   C4A21738  33.753   5.893   7.664
 1501POPC   C1B21739  33.760   5.661   8.564
 1501POPC   C2B21740  33.821   5.584   8.264
 1501POPC   C3B21741  33.794   5.571   7.964
 1501POPC   C4B21742  33.821   5.651   7.664
 1502POPC   NC321743  22.184  18.309   9.464
 1502POPC   PO421744  22.169  18.252   9.164
 1502POPC   GL121745  22.115  18.283   8.864
 1502POPC   GL221746  22.114  18.122   8.864
 1502POPC   C1A21747  22.201  18.280   8.564
 1502POPC   D2A21748  22.137  18.287   8.264
 1502POPC   C3A21749  22.193  18.253   7.964
 1502POPC   C4A21750  22.178  18.311   7.664
 1502POPC   C1B21751  22.039  18.089   8.564
 1502POPC   C2B21752  22.103  18.042   8.264
 1502POPC   C3B21753  22.071  18.070   7.964
 1502POPC   C4B21754  22.086  18.049   7.664
 1503POPC   NC321755  22.965  21.434   9.464
 1503POPC   PO421756  22.946  21.361   9.164
 1503POPC   GL121757  22.986  21.362   8.864
 1503POPC   GL221758  23.012  21.495   8.864
 1503POPC   C1A21759  22.898  21.380   8.564
 1503POPC   D2A21760  22.925  21.371   8.264
 1503POPC   C3A21761  22.936  21.424   7.964
 1503POPC   C4A21762  22.925  21.376   7.664
 1503POPC   C1B21763  23.129  21.545   8.564
 1503POPC   C2B21764  23.124  21.511   8.264
 1503POPC   C3B21765  23.200  21.461   7.964
 1503POPC   C4B21766  23.111  21.456   7.664
 1504POPC   NC321767   3.514  22.910   9.464
 1504POPC   PO421768   3.511  22.931   9.164
 1504POPC   GL121769   3.501  22.968   8.864
 1504POPC   GL221770   3.710  22.955   8.864
 1504POPC   C1A21771   3.584  22.892   8.564
 1504POPC   D2A21772   3.517  22.920   8.264
 1504POPC   C3A21773   3.566  22.911   7.964
 1504POPC   C4A21774   3.516  22.969   7.664
 1504POPC   C1B21775   3.787  22.942   8.564
 1504POPC   C2B21776   3.753  22.932   8.264
 1504POPC   C3B21777   3.792  22.999   7.964
 1504POPC   C4B21778   3.831  22.961   7.664
 1505POPC   NC321779   1.994   5.101   9.464
 1505POPC   PO421780   2.007   5.141   9.164
 1505POPC   GL121781   2.039   5.064   8.864
 1505POPC   GL221782   1.922   5.186   8.864
 1505POPC   C1A21783   2.032   5.048   8.564
 1505POPC   D2A21784   2.002   5.128   8.264
 1505POPC   C3A21785   1.946   5.108   7.964
 1505POPC   C4A21786   1.992   5.045   7.664
 1505POPC   C1B21787   1.887   5.288   8.564
 1505POPC   C2B21788   1.888   5.362   8.264
 1505POPC   C3B21789   1.901   5.289   7.964
 1505POPC   C4B21790   1.876   5.302   7.664
 1506POPC   NC321791   8.200   2.012   9.464
 1506POPC   PO421792   8.205   2.002   9.164
 1506POPC   GL121793   8.158   1.950   8.864
 1506POPC   GL221794   8.087   1.840   8.864
 1506POPC   C1A21795   8.158   1.975   8.564
 1506POPC   D2A21796   8.164   1.995   8.264
 1506POPC   C3A21797   8.193   1.983   7.964
 1506POPC   C4A21798   8.147   1.940   7.664
 1506POPC   C1B21799   8.081   1.737   8.564
 1506POPC   C2B21800   8.076   1.737   8.264
 1506POPC   C3B21801   8.065   1.755   7.964
 1506POPC   C4B21802   8.031   1.801   7.664
 1507POPC   NC321803  40.002  33.830   9.464
 1507POPC   PO421804  39.977  33.790   9.164
 1507POPC   GL121805  39.996  33.784   8.864
 1507POPC   GL221806  39.999  33.890   8.864
 1507POPC   C1A21807  40.016  33.779   8.564
 1507POPC   D2A21808  40.004  33.765   8.264
 1507POPC   C3A21809  40.055  33.802   7.964
 1507POPC   C4A21810  40.056  33.804   7.664
 1507POPC   C1B21811  40.015  34.081   8.564
 1507POPC   C2B21812  40.028  34.023   8.264
 1507POPC   C3B21813  40.011  34.033   7.964
 1507POPC   C4B21814  39.959  34.089   7.664
 1508POPC   NC321815  13.583  11.256   9.464
 1508POPC   PO421816  13.648  11.330   9.164
 1508POPC   GL121817  13.654  11.302   8.864
 1508POPC   GL221818  13.709  11.325   8.864
 1508POPC   C1A21819  13.638  11.256   8.564
 1508POPC   D2A21820  13.614  11.280   8.264
 1508POPC   C3A21821  13.627  11.348   7.964
 1508POPC   C4A21822  13.580  11.307   7.664
 1508POPC   C1B21823  13.837  11.255   8.564
 1508POPC   C2B21824  13.924  11.247   8.264
 1508POPC   C3B21825  13.864  11.278   7.964
 1508POPC   C4B21826  13.900  11.223   7.664
 1509POPC   NC321827  44.649  39.970   9.464
 1509POPC   PO421828  44.653  40.015   9.164
 1509POPC   GL121829  44.673  40.032   8.864
 1509POPC   GL221830  44.771  40.025   8.864
 1509POPC   C1A21831  44.669  40.052   8.564
 1509POPC   D2A21832  44.696  39.988   8.264
 1509POPC   C3A21833  44.617  40.026   7.964
 1509POPC   C4A21834  44.700  40.052   7.664
 1509POPC   C1B21835  44.951  39.968   8.564
 1509POPC   C2B21836  44.928  39.942   8.264
 1509POPC   C3B21837  44.863  39.969   7.964
 1509POPC   C4B21838  44.880  39.950   7.664
 1510POPC   NC321839  10.531  34.542   9.464
 1510POPC   PO421840  10.550  34.619   9.164
 1510POPC   GL121841  10.514  34.534   8.864
 1510POPC   GL221842  10.584  34.502   8.864
 1510POPC   C1A21843  10.565  34.607   8.564
 1510POPC   D2A21844  10.503  34.561   8.264
 1510POPC   C3A21845  10.522  34.561   7.964
 1510POPC   C4A21846  10.550  34.604   7.664
 1510POPC   C1B21847  10.696  34.324   8.564
 1510POPC   C2B21848  10.616  34.399   8.264
 1510POPC   C3B21849  10.672  34.403   7.964
 1510POPC   C4B21850  10.634  34.334   7.664
 1511POPC   NC321851  29.887  18.238   9.464
 1511POPC   PO421852  29.905  18.245   9.164
 1511POPC   GL121853  29.912  18.287   8.864
 1511POPC   GL221854  29.910  18.416   8.864
 1511POPC   C1A21855  29.905  18.288   8.564
 1511POPC   D2A21856  29.937  18.328   8.264
 1511POPC   C3A21857  29.946  18.245   7.964
 1511POPC   C4A21858  29.879  18.264   7.664
 1511POPC   C1B21859  29.951  18.509   8.564
 1511POPC   C2B21860  29.934  18.578   8.264
 1511POPC   C3B21861  29.941  18.534   7.964
 1511POPC   C4B21862  29.980  18.579   7.664
 1512POPC   NC321863  34.534  39.256   9.464
 1512POPC   PO421864  34.582  39.276   9.164
 1512POPC   GL121865  34.626  39.205   8.864
 1512POPC   GL221866  34.546  39.153   8.864
 1512POPC   C1A21867  34.558  39.262   8.564
 1512POPC   D2A21868  34.602  39.244   8.264
 1512POPC   C3A21869  34.549  39.198   7.964
 1512POPC   C4A21870  34.531  39.247   7.664
 1512POPC   C1B21871  34.444  38.979   8.564
 1512POPC   C2B21872  34.511  39.002   8.264
 1512POPC   C3B21873  34.480  39.030   7.964
 1512POPC   C4B21874  34.440  39.027   7.664
 1513POPC   NC321875  38.424  41.554   9.464
 1513POPC   PO421876  38.420  41.576   9.164
 1513POPC   GL121877  38.407  41.594   8.864
 1513POPC   GL221878  38.401  41.665   8.864
 1513POPC   C1A21879  38.501  41.549   8.564
 1513POPC   D2A21880  38.424  41.564   8.264
 1513POPC   C3A21881  38.463  41.533   7.964
 1513POPC   C4A21882  38.504  41.576   7.664
 1513POPC   C1B21883  38.309  41.745   8.564
 1513POPC   C2B21884  38.225  41.763   8.264
 1513POPC   C3B21885  38.264  41.740   7.964
 1513POPC   C4B21886  38.262  41.745   7.664
 1514POPC   NC321887  14.376  17.469   9.464
 1514POPC   PO421888  14.406  17.501   9.164
 1514POPC   GL121889  14.359  17.548   8.864
 1514POPC   GL221890  14.362  17.619   8.864
 1514POPC   C1A21891  14.453  17.530   8.564
 1514POPC   D2A21892  14.412  17.543   8.264
 1514POPC   C3A21893  14.370  17.469   7.964
 1514POPC   C4A21894  14.445  17.535   7.664
 1514POPC   C1B21895  14.356  17.741   8.564
 1514POPC   C2B21896  14.359  17.805   8.264
 1514POPC   C3B21897  14.378  17.725   7.964
 1514POPC   C4B21898  14.408  17.749   7.664
 1515POPC   NC321899  23.757   6.668   9.464
 1515POPC   PO421900  23.702   6.676   9.164
 1515POPC   GL121901  23.687   6.665   8.864
 1515POPC   GL221902  23.599   6.535   8.864
 1515POPC   C1A21903  23.741   6.636   8.564
 1515POPC   D2A21904  23.725   6.673   8.264
 1515POPC   C3A21905  23.728   6.667   7.964
 1515POPC   C4A21906  23.680   6.610   7.664
 1515POPC   C1B21907  23.515   6.473   8.564
 1515POPC   C2B21908  23.482   6.454   8.264
 1515POPC   C3B21909  23.484   6.443   7.964
 1515POPC   C4B21910  23.490   6.486   7.664
 1516POPC   NC321911  23.688  22.139   9.464
 1516POPC   PO421912  23.758  22.163   9.164
 1516POPC   GL121913  23.674  22.193   8.864
 1516POPC   GL221914  23.635  22.048   8.864
 1516POPC   C1A21915  23.698  22.173   8.564
 1516POPC   D2A21916  23.664  22.172   8.264
 1516POPC   C3A21917  23.745  22.188   7.964
 1516POPC   C4A21918  23.684  22.165   7.664
 1516POPC   C1B21919  23.545  21.985   8.564
 1516POPC   C2B21920  23.606  21.971   8.264
 1516POPC   C3B21921  23.568  21.986   7.964
 1516POPC   C4B21922  23.559  21.972   7.664
 1517POPC   NC321923  29.141  19.024   9.464
 1517POPC   PO421924  29.188  19.077   9.164
 1517POPC   GL121925  29.136  19.046   8.864
 1517POPC   GL221926  29.185  18.940   8.864
 1517POPC   C1A21927  29.173  19.041   8.564
 1517POPC   D2A21928  29.108  19.097   8.264
 1517POPC   C3A21929  29.128  19.064   7.964
 1517POPC   C4A21930  29.107  19.066   7.664
 1517POPC   C1B21931  29.278  18.826   8.564
 1517POPC   C2B21932  29.351  18.896   8.264
 1517POPC   C3B21933  29.289  18.860   7.964
 1517POPC   C4B21934  29.355  18.843   7.664
 1518POPC   NC321935  38.421   4.270   9.464
 1518POPC   PO421936  38.456   4.282   9.164
 1518POPC   GL121937  38.496   4.294   8.864
 1518POPC   GL221938  38.614   4.374   8.864
 1518POPC   C1A21939  38.444   4.326   8.564
 1518POPC   D2A21940  38.484   4.287   8.264
 1518POPC   C3A21941  38.472   4.325   7.964
 1518POPC   C4A21942  38.497   4.273   7.664
 1518POPC   C1B21943  38.695   4.336   8.564
 1518POPC   C2B21944  38.742   4.352   8.264
 1518POPC   C3B21945  38.734   4.332   7.964
 1518POPC   C4B21946  38.662   4.370   7.664
 1519POPC   NC321947  35.335  42.290   9.464
 1519POPC   PO421948  35.394  42.379   9.164
 1519POPC   GL121949  35.345  42.330   8.864
 1519POPC   GL221950  35.452  42.258   8.864
 1519POPC   C1A21951  35.322  42.290   8.564
 1519POPC   D2A21952  35.304  42.357   8.264
 1519POPC   C3A21953  35.375  42.295   7.964
 1519POPC   C4A21954  35.308  42.373   7.664
 1519POPC   C1B21955  35.560  42.165   8.564
 1519POPC   C2B21956  35.560  42.157   8.264
 1519POPC   C3B21957  35.512  42.209   7.964
 1519POPC   C4B21958  35.575  42.199   7.664
 1520POPC   NC321959  32.242  30.686   9.464
 1520POPC   PO421960  32.205  30.649   9.164
 1520POPC   GL121961  32.218  30.731   8.864
 1520POPC   GL221962  32.137  30.731   8.864
 1520POPC   C1A21963  32.229  30.729   8.564
 1520POPC   D2A21964  32.249  30.709   8.264
 1520POPC   C3A21965  32.219  30.719   7.964
 1520POPC   C4A21966  32.221  30.717   7.664
 1520POPC   C1B21967  31.983  30.682   8.564
 1520POPC   C2B21968  31.957  30.691   8.264
 1520POPC   C3B21969  32.022  30.687   7.964
 1520POPC   C4B21970  32.009  30.740   7.664
 1521POPC   NC321971  28.393   1.166   9.464
 1521POPC   PO421972  28.396   1.223   9.164
 1521POPC   GL121973  28.328   1.178   8.864
 1521POPC   GL221974  28.419   1.299   8.864
 1521POPC   C1A21975  28.401   1.214   8.564
 1521POPC   D2A21976  28.351   1.186   8.264
 1521POPC   C3A21977  28.320   1.248   7.964
 1521POPC   C4A21978  28.395   1.261   7.664
 1521POPC   C1B21979  28.376   1.438   8.564
 1521POPC   C2B21980  28.438   1.477   8.264
 1521POPC   C3B21981  28.378   1.434   7.964
 1521POPC   C4B21982  28.452   1.464   7.664
 1522POPC   NC321983  22.183  43.142   9.464
 1522POPC   PO421984  22.160  43.082   9.164
 1522POPC   GL121985  22.212  43.102   8.864
 1522POPC   GL221986  22.028  43.084   8.864
 1522POPC   C1A21987  22.147  43.131   8.564
 1522POPC   D2A21988  22.175  43.145   8.264
 1522POPC   C3A21989  22.132  43.159   7.964
 1522POPC   C4A21990  22.132  43.078   7.664
 1522POPC   C1B21991  21.910  43.030   8.564
 1522POPC   C2B21992  21.936  43.007   8.264
 1522POPC   C3B21993  21.948  43.053   7.964
 1522POPC   C4B21994  21.891  42.989   7.664
 1523POPC   NC321995   2.732   2.765   9.464
 1523POPC   PO421996   2.733   2.750   9.164
 1523POPC   GL121997   2.784   2.744   8.864
 1523POPC   GL221998   2.935   2.798   8.864
 1523POPC   C1A21999   2.799   2.723   8.564
 1523POPC   D2A22000   2.773   2.816   8.264
 1523POPC   C3A22001   2.777   2.790   7.964
 1523POPC   C4A22002   2.726   2.794   7.664
 1523POPC   C1B22003   3.037   2.822   8.564
 1523POPC   C2B22004   3.017   2.778   8.264
 1523POPC   C3B22005   2.988   2.837   7.964
 1523POPC   C4B22006   2.959   2.797   7.664
 1524POPC   NC322007  39.210  20.575   9.464
 1524POPC   PO422008  39.206  20.565   9.164
 1524POPC   GL122009  39.227  20.591   8.864
 1524POPC   GL222010  39.105  20.468   8.864
 1524POPC   C1A22011  39.254  20.636   8.564
 1524POPC   D2A22012  39.222  20.635   8.264
 1524POPC   C3A22013  39.246  20.660   7.964
 1524POPC   C4A22014  39.279  20.595   7.664
 1524POPC   C1B22015  39.065  20.426   8.564
 1524POPC   C2B22016  39.072  20.442   8.264
 1524POPC   C3B22017  39.109  20.427   7.964
 1524POPC   C4B22018  39.065  20.396   7.664
 1525POPC   NC322019  40.828  27.597   9.464
 1525POPC   PO422020  40.777  27.613   9.164
 1525POPC   GL122021  40.830  27.576   8.864
 1525POPC   GL222022  40.915  27.494   8.864
 1525POPC   C1A22023  40.749  27.549   8.564
 1525POPC   D2A22024  40.812  27.595   8.264
 1525POPC   C3A22025  40.808  27.620   7.964
 1525POPC   C4A22026  40.742  27.582   7.664
 1525POPC   C1B22027  40.935  27.363   8.564
 1525POPC   C2B22028  40.933  27.398   8.264
 1525POPC   C3B22029  40.952  27.375   7.964
 1525POPC   C4B22030  40.983  27.379   7.664
 1526POPC   NC322031   9.711   5.821   9.464
 1526POPC   PO422032   9.725   5.903   9.164
 1526POPC   GL122033   9.720   5.841   8.864
 1526POPC   GL222034   9.656   5.960   8.864
 1526POPC   C1A22035   9.736   5.835   8.564
 1526POPC   D2A22036   9.725   5.851   8.264
 1526POPC   C3A22037   9.746   5.833   7.964
 1526POPC   C4A22038   9.797   5.906   7.664
 1526POPC   C1B22039   9.632   6.048   8.564
 1526POPC   C2B22040   9.639   6.048   8.264
 1526POPC   C3B22041   9.590   6.114   7.964
 1526POPC   C4B22042   9.605   6.104   7.664
 1527POPC   NC322043   3.559  29.873   9.464
 1527POPC   PO422044   3.534  29.899   9.164
 1527POPC   GL122045   3.578  29.902   8.864
 1527POPC   GL222046   3.478  29.764   8.864
 1527POPC   C1A22047   3.544  29.924   8.564
 1527POPC   D2A22048   3.501  29.928   8.264
 1527POPC   C3A22049   3.550  29.955   7.964
 1527POPC   C4A22050   3.521  29.900   7.664
 1527POPC   C1B22051   3.427  29.682   8.564
 1527POPC   C2B22052   3.461  29.645   8.264
 1527POPC   C3B22053   3.497  29.715   7.964
 1527POPC   C4B22054   3.477  29.666   7.664
 1528POPC   NC322055  22.923  38.496   9.464
 1528POPC   PO422056  22.924  38.458   9.164
 1528POPC   GL122057  22.954  38.485   8.864
 1528POPC   GL222058  23.033  38.524   8.864
 1528POPC   C1A22059  22.917  38.471   8.564
 1528POPC   D2A22060  22.919  38.504   8.264
 1528POPC   C3A22061  22.924  38.425   7.964
 1528POPC   C4A22062  22.909  38.407   7.664
 1528POPC   C1B22063  23.130  38.571   8.564
 1528POPC   C2B22064  23.142  38.610   8.264
 1528POPC   C3B22065  23.120  38.549   7.964
 1528POPC   C4B22066  23.196  38.612   7.664
 1529POPC   NC322067  44.646  25.308   9.464
 1529POPC   PO422068  44.639  25.247   9.164
 1529POPC   GL122069  44.634  25.276   8.864
 1529POPC   GL222070  44.548  25.229   8.864
 1529POPC   C1A22071  44.699  25.288   8.564
 1529POPC   D2A22072  44.646  25.307   8.264
 1529POPC   C3A22073  44.657  25.312   7.964
 1529POPC   C4A22074  44.626  25.262   7.664
 1529POPC   C1B22075  44.427  25.264   8.564
 1529POPC   C2B22076  44.431  25.310   8.264
 1529POPC   C3B22077  44.393  25.241   7.964
 1529POPC   C4B22078  44.450  25.279   7.664
 1530POPC   NC322079   5.843   5.869   9.464
 1530POPC   PO422080   5.824   5.916   9.164
 1530POPC   GL122081   5.869   5.831   8.864
 1530POPC   GL222082   5.818   5.793   8.864
 1530POPC   C1A22083   5.858   5.897   8.564
 1530POPC   D2A22084   5.842   5.847   8.264
 1530POPC   C3A22085   5.848   5.833   7.964
 1530POPC   C4A22086   5.850   5.893   7.664
 1530POPC   C1B22087   5.792   5.690   8.564
 1530POPC   C2B22088   5.720   5.687   8.264
 1530POPC   C3B22089   5.758   5.683   7.964
 1530POPC   C4B22090   5.792   5.632   7.664
 1531POPC   NC322091  21.366   5.906   9.464
 1531POPC   PO422092  21.434   5.913   9.164
 1531POPC   GL122093  21.435   5.895   8.864
 1531POPC   GL222094  21.262   5.940   8.864
 1531POPC   C1A22095  21.411   5.907   8.564
 1531POPC   D2A22096  21.353   5.916   8.264
 1531POPC   C3A22097  21.422   5.898   7.964
 1531POPC   C4A22098  21.379   5.821   7.664
 1531POPC   C1B22099  21.256   6.086   8.564
 1531POPC   C2B22100  21.228   6.069   8.264
 1531POPC   C3B22101  21.207   6.032   7.964
 1531POPC   C4B22102  21.249   6.064   7.664
 1532POPC   NC322103  28.380  36.891   9.464
 1532POPC   PO422104  28.350  36.940   9.164
 1532POPC   GL122105  28.406  36.868   8.864
 1532POPC   GL222106  28.441  36.885   8.864
 1532POPC   C1A22107  28.386  36.887   8.564
 1532POPC   D2A22108  28.332  36.878   8.264
 1532POPC   C3A22109  28.369  36.938   7.964
 1532POPC   C4A22110  28.355  36.943   7.664
 1532POPC   C1B22111  28.619  36.755   8.564
 1532POPC   C2B22112  28.615  36.797   8.264
 1532POPC   C3B22113  28.543  36.740   7.964
 1532POPC   C4B22114  28.561  36.818   7.664
 1533POPC   NC322115  31.460   7.444   9.464
 1533POPC   PO422116  31.456   7.375   9.164
 1533POPC   GL122117  31.494   7.430   8.864
 1533POPC   GL222118  31.476   7.498   8.864
 1533POPC   C1A22119  31.489   7.419   8.564
 1533POPC   D2A22120  31.466   7.396   8.264
 1533POPC   C3A22121  31.438   7.407   7.964
 1533POPC   C4A22122  31.522   7.408   7.664
 1533POPC   C1B22123  31.459   7.715   8.564
 1533POPC   C2B22124  31.493   7.693   8.264
 1533POPC   C3B22125  31.499   7.634   7.964
 1533POPC   C4B22126  31.420   7.703   7.664
 1534POPC   NC322127  22.203  26.860   9.464
 1534POPC   PO422128  22.187  26.791   9.164
 1534POPC   GL122129  22.211  26.809   8.864
 1534POPC   GL222130  22.162  26.888   8.864
 1534POPC   C1A22131  22.189  26.769   8.564
 1534POPC   D2A22132  22.141  26.781   8.264
 1534POPC   C3A22133  22.184  26.795   7.964
 1534POPC   C4A22134  22.171  26.798   7.664
 1534POPC   C1B22135  22.100  27.046   8.564
 1534POPC   C2B22136  22.118  27.015   8.264
 1534POPC   C3B22137  22.072  27.059   7.964
 1534POPC   C4B22138  22.126  27.028   7.664
 1535POPC   NC322139   9.777   9.700   9.464
 1535POPC   PO422140   9.762   9.790   9.164
 1535POPC   GL122141   9.720   9.791   8.864
 1535POPC   GL222142   9.907   9.741   8.864
 1535POPC   C1A22143   9.778   9.781   8.564
 1535POPC   D2A22144   9.757   9.765   8.264
 1535POPC   C3A22145   9.699   9.751   7.964
 1535POPC   C4A22146   9.740   9.729   7.664
 1535POPC   C1B22147   9.969   9.759   8.564
 1535POPC   C2B22148  10.020   9.800   8.264
 1535POPC   C3B22149  10.045   9.786   7.964
 1535POPC   C4B22150  10.030   9.796   7.664
 1536POPC   NC322151  33.052   8.166   9.464
 1536POPC   PO422152  33.021   8.182   9.164
 1536POPC   GL122153  33.027   8.210   8.864
 1536POPC   GL222154  32.938   8.197   8.864
 1536POPC   C1A22155  33.072   8.190   8.564
 1536POPC   D2A22156  33.053   8.243   8.264
 1536POPC   C3A22157  33.042   8.182   7.964
 1536POPC   C4A22158  33.050   8.235   7.664
 1536POPC   C1B22159  32.769   8.342   8.564
 1536POPC   C2B22160  32.824   8.273   8.264
 1536POPC   C3B22161  32.834   8.336   7.964
 1536POPC   C4B22162  32.809   8.294   7.664
 1537POPC   NC322163  20.575   2.778   9.464
 1537POPC   PO422164  20.623   2.815   9.164
 1537POPC   GL122165  20.650   2.753   8.864
 1537POPC   GL222166  20.744   2.701   8.864
 1537POPC   C1A22167  20.618   2.717   8.564
 1537POPC   D2A22168  20.648   2.775   8.264
 1537POPC   C3A22169  20.636   2.791   7.964
 1537POPC   C4A22170  20.632   2.794   7.664
 1537POPC   C1B22171  20.824   2.681   8.564
 1537POPC   C2B22172  20.834   2.673   8.264
 1537POPC   C3B22173  20.852   2.736   7.964
 1537POPC   C4B22174  20.838   2.674   7.664
 1538POPC   NC322175  22.123  25.219   9.464
 1538POPC   PO422176  22.195  25.295   9.164
 1538POPC   GL122177  22.200  25.238   8.864
 1538POPC   GL222178  22.028  25.162   8.864
 1538POPC   C1A22179  22.178  25.264   8.564
 1538POPC   D2A22180  22.201  25.272   8.264
 1538POPC   C3A22181  22.211  25.274   7.964
 1538POPC   C4A22182  22.134  25.262   7.664
 1538POPC   C1B22183  21.949  25.141   8.564
 1538POPC   C2B22184  21.914  25.110   8.264
 1538POPC   C3B22185  21.923  25.138   7.964
 1538POPC   C4B22186  21.894  25.135   7.664
 1539POPC   NC322187  37.714  12.853   9.464
 1539POPC   PO422188  37.649  12.836   9.164
 1539POPC   GL122189  37.663  12.883   8.864
 1539POPC   GL222190  37.818  12.947   8.864
 1539POPC   C1A22191  37.641  12.824   8.564
 1539POPC   D2A22192  37.644  12.884   8.264
 1539POPC   C3A22193  37.675  12.821   7.964
 1539POPC   C4A22194  37.698  12.896   7.664
 1539POPC   C1B22195  37.853  12.972   8.564
 1539POPC   C2B22196  37.927  12.978   8.264
 1539POPC   C3B22197  37.907  13.041   7.964
 1539POPC   C4B22198  37.877  12.970   7.664
 1540POPC   NC322199  15.195  17.480   9.464
 1540POPC   PO422200  15.221  17.497   9.164
 1540POPC   GL122201  15.159  17.471   8.864
 1540POPC   GL222202  15.246  17.412   8.864
 1540POPC   C1A22203  15.173  17.465   8.564
 1540POPC   D2A22204  15.147  17.466   8.264
 1540POPC   C3A22205  15.172  17.480   7.964
 1540POPC   C4A22206  15.187  17.534   7.664
 1540POPC   C1B22207  15.380  17.353   8.564
 1540POPC   C2B22208  15.301  17.345   8.264
 1540POPC   C3B22209  15.310  17.346   7.964
 1540POPC   C4B22210  15.322  17.260   7.664
 1541POPC   NC322211  10.536   1.946   9.464
 1541POPC   PO422212  10.479   1.988   9.164
 1541POPC   GL122213  10.477   1.942   8.864
 1541POPC   GL222214  10.608   2.096   8.864
 1541POPC   C1A22215  10.491   2.010   8.564
 1541POPC   D2A22216  10.538   2.038   8.264
 1541POPC   C3A22217  10.496   1.996   7.964
 1541POPC   C4A22218  10.495   2.004   7.664
 1541POPC   C1B22219  10.604   2.266   8.564
 1541POPC   C2B22220  10.557   2.259   8.264
 1541POPC   C3B22221  10.590   2.204   7.964
 1541POPC   C4B22222  10.617   2.273   7.664
 1542POPC   NC322223   3.493  26.058   9.464
 1542POPC   PO422224   3.569  26.029   9.164
 1542POPC   GL122225   3.548  26.077   8.864
 1542POPC   GL222226   3.530  25.936   8.864
 1542POPC   C1A22227   3.539  26.046   8.564
 1542POPC   D2A22228   3.513  26.037   8.264
 1542POPC   C3A22229   3.545  26.015   7.964
 1542POPC   C4A22230   3.540  26.002   7.664
 1542POPC   C1B22231   3.600  25.778   8.564
 1542POPC   C2B22232   3.600  25.774   8.264
 1542POPC   C3B22233   3.578  25.842   7.964
 1542POPC   C4B22234   3.650  25.780   7.664
 1543POPC   NC322235  32.234  24.498   9.464
 1543POPC   PO422236  32.246  24.497   9.164
 1543POPC   GL122237  32.226  24.462   8.864
 1543POPC   GL222238  32.346  24.608   8.864
 1543POPC   C1A22239  32.228  24.501   8.564
 1543POPC   D2A22240  32.255  24.453   8.264
 1543POPC   C3A22241  32.291  24.453   7.964
 1543POPC   C4A22242  32.212  24.456   7.664
 1543POPC   C1B22243  32.477  24.660   8.564
 1543POPC   C2B22244  32.438  24.678   8.264
 1543POPC   C3B22245  32.443  24.668   7.964
 1543POPC   C4B22246  32.430  24.706   7.664
 1544POPC   NC322247  26.806  24.469   9.464
 1544POPC   PO422248  26.843  24.514   9.164
 1544POPC   GL122249  26.789  24.537   8.864
 1544POPC   GL222250  26.795  24.376   8.864
 1544POPC   C1A22251  26.846  24.479   8.564
 1544POPC   D2A22252  26.841  24.504   8.264
 1544POPC   C3A22253  26.865  24.511   7.964
 1544POPC   C4A22254  26.801  24.510   7.664
 1544POPC   C1B22255  26.685  24.273   8.564
 1544POPC   C2B22256  26.648  24.297   8.264
 1544POPC   C3B22257  26.726  24.268   7.964
 1544POPC   C4B22258  26.731  24.227   7.664
 1545POPC   NC322259  40.051  32.282   9.464
 1545POPC   PO422260  40.035  32.274   9.164
 1545POPC   GL122261  40.053  32.258   8.864
 1545POPC   GL222262  40.157  32.320   8.864
 1545POPC   C1A22263  40.050  32.287   8.564
 1545POPC   D2A22264  40.009  32.240   8.264
 1545POPC   C3A22265  39.970  32.266   7.964
 1545POPC   C4A22266  40.026  32.247   7.664
 1545POPC   C1B22267  40.247  32.352   8.564
 1545POPC   C2B22268  40.208  32.380   8.264
 1545POPC   C3B22269  40.224  32.383   7.964
 1545POPC   C4B22270  40.240  32.382   7.664
 1546POPC   NC322271  40.817   8.189   9.464
 1546POPC   PO422272  40.735   8.167   9.164
 1546POPC   GL122273  40.746   8.227   8.864
 1546POPC   GL222274  40.707   8.301   8.864
 1546POPC   C1A22275  40.812   8.149   8.564
 1546POPC   D2A22276  40.754   8.179   8.264
 1546POPC   C3A22277  40.828   8.242   7.964
 1546POPC   C4A22278  40.785   8.189   7.664
 1546POPC   C1B22279  40.641   8.359   8.564
 1546POPC   C2B22280  40.605   8.434   8.264
 1546POPC   C3B22281  40.601   8.373   7.964
 1546POPC   C4B22282  40.676   8.341   7.664
 1547POPC   NC322283  25.250  39.247   9.464
 1547POPC   PO422284  25.236  39.271   9.164
 1547POPC   GL122285  25.245  39.244   8.864
 1547POPC   GL222286  25.389  39.262   8.864
 1547POPC   C1A22287  25.270  39.260   8.564
 1547POPC   D2A22288  25.235  39.234   8.264
 1547POPC   C3A22289  25.242  39.190   7.964
 1547POPC   C4A22290  25.292  39.236   7.664
 1547POPC   C1B22291  25.479  39.263   8.564
 1547POPC   C2B22292  25.486  39.180   8.264
 1547POPC   C3B22293  25.488  39.209   7.964
 1547POPC   C4B22294  25.563  39.238   7.664
 1548POPC   NC322295  40.751   7.470   9.464
 1548POPC   PO422296  40.824   7.452   9.164
 1548POPC   GL122297  40.767   7.467   8.864
 1548POPC   GL222298  40.854   7.344   8.864
 1548POPC   C1A22299  40.769   7.462   8.564
 1548POPC   D2A22300  40.822   7.448   8.264
 1548POPC   C3A22301  40.742   7.385   7.964
 1548POPC   C4A22302  40.813   7.468   7.664
 1548POPC   C1B22303  41.035   7.324   8.564
 1548POPC   C2B22304  40.983   7.313   8.264
 1548POPC   C3B22305  40.954   7.296   7.964
 1548POPC   C4B22306  41.015   7.319   7.664
 1549POPC   NC322307  18.313  36.099   9.464
 1549POPC   PO422308  18.243  36.103   9.164
 1549POPC   GL122309  18.320  36.171   8.864
 1549POPC   GL222310  18.340  36.251   8.864
 1549POPC   C1A22311  18.316  36.118   8.564
 1549POPC   D2A22312  18.248  36.144   8.264
 1549POPC   C3A22313  18.298  36.097   7.964
 1549POPC   C4A22314  18.235  36.096   7.664
 1549POPC   C1B22315  18.500  36.282   8.564
 1549POPC   C2B22316  18.463  36.323   8.264
 1549POPC   C3B22317  18.407  36.263   7.964
 1549POPC   C4B22318  18.448  36.292   7.664
 1550POPC   NC322319  19.874   1.234   9.464
 1550POPC   PO422320  19.861   1.172   9.164
 1550POPC   GL122321  19.865   1.165   8.864
 1550POPC   GL222322  19.945   1.135   8.864
 1550POPC   C1A22323  19.821   1.249   8.564
 1550POPC   D2A22324  19.878   1.253   8.264
 1550POPC   C3A22325  19.843   1.256   7.964
 1550POPC   C4A22326  19.828   1.250   7.664
 1550POPC   C1B22327  20.035   1.043   8.564
 1550POPC   C2B22328  20.002   1.015   8.264
 1550POPC   C3B22329  20.001   1.038   7.964
 1550POPC   C4B22330  19.992   1.044   7.664
 1551POPC   NC322331  25.238  40.029   9.464
 1551POPC   PO422332  25.306  40.010   9.164
 1551POPC   GL122333  25.228  40.015   8.864
 1551POPC   GL222334  25.138  39.926   8.864
 1551POPC   C1A22335  25.260  40.049   8.564
 1551POPC   D2A22336  25.269  40.008   8.264
 1551POPC   C3A22337  25.224  40.018   7.964
 1551POPC   C4A22338  25.241  40.009   7.664
 1551POPC   C1B22339  25.063  39.870   8.564
 1551POPC   C2B22340  25.074  39.802   8.264
 1551POPC   C3B22341  25.073  39.802   7.964
 1551POPC   C4B22342  25.098  39.811   7.664
 1552POPC   NC322343  35.351  15.910   9.464
 1552POPC   PO422344  35.387  15.953   9.164
 1552POPC   GL122345  35.331  15.970   8.864
 1552POPC   GL222346  35.467  15.997   8.864
 1552POPC   C1A22347  35.345  15.919   8.564
 1552POPC   D2A22348  35.362  15.938   8.264
 1552POPC   C3A22349  35.354  15.925   7.964
 1552POPC   C4A22350  35.332  15.977   7.664
 1552POPC   C1B22351  35.634  16.076   8.564
 1552POPC   C2B22352  35.549  16.084   8.264
 1552POPC   C3B22353  35.604  16.030   7.964
 1552POPC   C4B22354  35.559  16.079   7.664
 1553POPC   NC322355   0.440   2.002   9.464
 1553POPC   PO422356   0.487   1.980   9.164
 1553POPC   GL122357   0.399   2.011   8.864
 1553POPC   GL222358   0.571   1.888   8.864
 1553POPC   C1A22359   0.471   1.958   8.564
 1553POPC   D2A22360   0.451   2.002   8.264
 1553POPC   C3A22361   0.472   1.981   7.964
 1553POPC   C4A22362   0.444   1.959   7.664
 1553POPC   C1B22363   0.614   1.846   8.564
 1553POPC   C2B22364   0.611   1.827   8.264
 1553POPC   C3B22365   0.629   1.839   7.964
 1553POPC   C4B22366   0.675   1.894   7.664
 1554POPC   NC322367   0.477   5.858   9.464
 1554POPC   PO422368   0.449   5.893   9.164
 1554POPC   GL122369   0.396   5.824   8.864
 1554POPC   GL222370   0.472   5.948   8.864
 1554POPC   C1A22371   0.412   5.842   8.564
 1554POPC   D2A22372   0.425   5.866   8.264
 1554POPC   C3A22373   0.448   5.842   7.964
 1554POPC   C4A22374   0.418   5.896   7.664
 1554POPC   C1B22375   0.599   6.016   8.564
 1554POPC   C2B22376   0.576   6.030   8.264
 1554POPC   C3B22377   0.641   6.105   7.964
 1554POPC   C4B22378   0.638   6.075   7.664
 1555POPC   NC322379  11.285  40.803   9.464
 1555POPC   PO422380  11.253  40.820   9.164
 1555POPC   GL122381  11.262  40.810   8.864
 1555POPC   GL222382  11.163  40.854   8.864
 1555POPC   C1A22383  11.347  40.831   8.564
 1555POPC   D2A22384  11.292  40.785   8.264
 1555POPC   C3A22385  11.338  40.770   7.964
 1555POPC   C4A22386  11.333  40.813   7.664
 1555POPC   C1B22387  11.048  40.877   8.564
 1555POPC   C2B22388  11.018  40.886   8.264
 1555POPC   C3B22389  11.047  40.854   7.964
 1555POPC   C4B22390  11.010  40.841   7.664
 1556POPC   NC322391  26.840  29.165   9.464
 1556POPC   PO422392  26.854  29.186   9.164
 1556POPC   GL122393  26.857  29.161   8.864
 1556POPC   GL222394  26.926  29.212   8.864
 1556POPC   C1A22395  26.844  29.174   8.564
 1556POPC   D2A22396  26.862  29.099   8.264
 1556POPC   C3A22397  26.852  29.192   7.964
 1556POPC   C4A22398  26.847  29.137   7.664
 1556POPC   C1B22399  27.050  29.158   8.564
 1556POPC   C2B22400  27.057  29.166   8.264
 1556POPC   C3B22401  27.093  29.195   7.964
 1556POPC   C4B22402  27.094  29.239   7.664
 1557POPC   NC322403  21.415  31.447   9.464
 1557POPC   PO422404  21.403  31.494   9.164
 1557POPC   GL122405  21.421  31.515   8.864
 1557POPC   GL222406  21.216  31.494   8.864
 1557POPC   C1A22407  21.358  31.436   8.564
 1557POPC   D2A22408  21.380  31.496   8.264
 1557POPC   C3A22409  21.397  31.471   7.964
 1557POPC   C4A22410  21.350  31.423   7.664
 1557POPC   C1B22411  21.121  31.423   8.564
 1557POPC   C2B22412  21.090  31.496   8.264
 1557POPC   C3B22413  21.136  31.507   7.964
 1557POPC   C4B22414  21.135  31.489   7.664
 1558POPC   NC322415  40.818  12.882   9.464
 1558POPC   PO422416  40.801  12.870   9.164
 1558POPC   GL122417  40.788  12.835   8.864
 1558POPC   GL222418  40.776  12.779   8.864
 1558POPC   C1A22419  40.831  12.814   8.564
 1558POPC   D2A22420  40.776  12.844   8.264
 1558POPC   C3A22421  40.755  12.865   7.964
 1558POPC   C4A22422  40.829  12.809   7.664
 1558POPC   C1B22423  40.729  12.625   8.564
 1558POPC   C2B22424  40.695  12.636   8.264
 1558POPC   C3B22425  40.716  12.647   7.964
 1558POPC   C4B22426  40.662  12.657   7.664
 1559POPC   NC322427  39.959  12.096   9.464
 1559POPC   PO422428  40.024  12.055   9.164
 1559POPC   GL122429  40.014  12.117   8.864
 1559POPC   GL222430  39.903  12.102   8.864
 1559POPC   C1A22431  39.993  12.032   8.564
 1559POPC   D2A22432  39.991  12.097   8.264
 1559POPC   C3A22433  39.972  12.106   7.964
 1559POPC   C4A22434  40.008  12.120   7.664
 1559POPC   C1B22435  39.737  12.174   8.564
 1559POPC   C2B22436  39.802  12.182   8.264
 1559POPC   C3B22437  39.788  12.201   7.964
 1559POPC   C4B22438  39.812  12.201   7.664
 1560POPC   NC322439  15.181  22.910   9.464
 1560POPC   PO422440  15.217  22.985   9.164
 1560POPC   GL122441  15.185  22.921   8.864
 1560POPC   GL222442  15.040  22.918   8.864
 1560POPC   C1A22443  15.206  22.891   8.564
 1560POPC   D2A22444  15.174  22.908   8.264
 1560POPC   C3A22445  15.203  22.904   7.964
 1560POPC   C4A22446  15.166  22.959   7.664
 1560POPC   C1B22447  14.940  22.972   8.564
 1560POPC   C2B22448  14.952  22.950   8.264
 1560POPC   C3B22449  14.940  22.963   7.964
 1560POPC   C4B22450  14.977  22.952   7.664
 1561POPC   NC322451  19.075   3.532   9.464
 1561POPC   PO422452  19.031   3.578   9.164
 1561POPC   GL122453  19.039   3.515   8.864
 1561POPC   GL222454  19.029   3.465   8.864
 1561POPC   C1A22455  19.035   3.544   8.564
 1561POPC   D2A22456  19.093   3.580   8.264
 1561POPC   C3A22457  19.078   3.560   7.964
 1561POPC   C4A22458  19.051   3.527   7.664
 1561POPC   C1B22459  18.948   3.381   8.564
 1561POPC   C2B22460  18.873   3.352   8.264
 1561POPC   C3B22461  18.886   3.296   7.964
 1561POPC   C4B22462  18.871   3.367   7.664
 1562POPC   NC322463  29.874   1.175   9.464
 1562POPC   PO422464  29.915   1.246   9.164
 1562POPC   GL122465  29.969   1.192   8.864
 1562POPC   GL222466  29.826   1.065   8.864
 1562POPC   C1A22467  29.905   1.232   8.564
 1562POPC   D2A22468  29.949   1.174   8.264
 1562POPC   C3A22469  29.932   1.242   7.964
 1562POPC   C4A22470  29.888   1.237   7.664
 1562POPC   C1B22471  29.851   1.023   8.564
 1562POPC   C2B22472  29.800   0.974   8.264
 1562POPC   C3B22473  29.808   1.023   7.964
 1562POPC   C4B22474  29.795   0.998   7.664
 1563POPC   NC322475  21.392  36.899   9.464
 1563POPC   PO422476  21.412  36.856   9.164
 1563POPC   GL122477  21.350  36.873   8.864
 1563POPC   GL222478  21.457  36.938   8.864
 1563POPC   C1A22479  21.355  36.872   8.564
 1563POPC   D2A22480  21.352  36.918   8.264
 1563POPC   C3A22481  21.429  36.871   7.964
 1563POPC   C4A22482  21.381  36.905   7.664
 1563POPC   C1B22483  21.571  37.030   8.564
 1563POPC   C2B22484  21.558  37.021   8.264
 1563POPC   C3B22485  21.598  37.026   7.964
 1563POPC   C4B22486  21.620  37.079   7.664
 1564POPC   NC322487  12.118  36.098   9.464
 1564POPC   PO422488  12.123  36.124   9.164
 1564POPC   GL122489  12.033  36.124   8.864
 1564POPC   GL222490  12.035  36.253   8.864
 1564POPC   C1A22491  12.051  36.140   8.564
 1564POPC   D2A22492  12.085  36.097   8.264
 1564POPC   C3A22493  12.082  36.081   7.964
 1564POPC   C4A22494  12.107  36.149   7.664
 1564POPC   C1B22495  12.128  36.373   8.564
 1564POPC   C2B22496  12.052  36.421   8.264
 1564POPC   C3B22497  12.060  36.338   7.964
 1564POPC   C4B22498  12.047  36.353   7.664
 1565POPC   NC322499   1.249  34.566   9.464
 1565POPC   PO422500   1.182  34.548   9.164
 1565POPC   GL122501   1.244  34.567   8.864
 1565POPC   GL222502   1.325  34.628   8.864
 1565POPC   C1A22503   1.222  34.571   8.564
 1565POPC   D2A22504   1.168  34.545   8.264
 1565POPC   C3A22505   1.224  34.593   7.964
 1565POPC   C4A22506   1.205  34.543   7.664
 1565POPC   C1B22507   1.489  34.604   8.564
 1565POPC   C2B22508   1.426  34.675   8.264
 1565POPC   C3B22509   1.491  34.695   7.964
 1565POPC   C4B22510   1.474  34.677   7.664
 1566POPC   NC322511  11.262  32.241   9.464
 1566POPC   PO422512  11.263  32.244   9.164
 1566POPC   GL122513  11.299  32.258   8.864
 1566POPC   GL222514  11.326  32.357   8.864
 1566POPC   C1A22515  11.324  32.291   8.564
 1566POPC   D2A22516  11.344  32.249   8.264
 1566POPC   C3A22517  11.306  32.215   7.964
 1566POPC   C4A22518  11.259  32.220   7.664
 1566POPC   C1B22519  11.213  32.495   8.564
 1566POPC   C2B22520  11.225  32.502   8.264
 1566POPC   C3B22521  11.249  32.462   7.964
 1566POPC   C4B22522  11.252  32.496   7.664
 1567POPC   NC322523  26.807  34.531   9.464
 1567POPC   PO422524  26.817  34.600   9.164
 1567POPC   GL122525  26.815  34.597   8.864
 1567POPC   GL222526  26.835  34.672   8.864
 1567POPC   C1A22527  26.786  34.545   8.564
 1567POPC   D2A22528  26.768  34.596   8.264
 1567POPC   C3A22529  26.803  34.594   7.964
 1567POPC   C4A22530  26.830  34.554   7.664
 1567POPC   C1B22531  26.828  34.871   8.564
 1567POPC   C2B22532  26.868  34.786   8.264
 1567POPC   C3B22533  26.813  34.825   7.964
 1567POPC   C4B22534  26.812  34.828   7.664
 1568POPC   NC322535  39.183  30.693   9.464
 1568POPC   PO422536  39.226  30.668   9.164
 1568POPC   GL122537  39.203  30.731   8.864
 1568POPC   GL222538  39.123  30.693   8.864
 1568POPC   C1A22539  39.248  30.742   8.564
 1568POPC   D2A22540  39.252  30.695   8.264
 1568POPC   C3A22541  39.195  30.702   7.964
 1568POPC   C4A22542  39.245  30.648   7.664
 1568POPC   C1B22543  38.989  30.644   8.564
 1568POPC   C2B22544  38.960  30.617   8.264
 1568POPC   C3B22545  38.945  30.625   7.964
 1568POPC   C4B22546  38.946  30.643   7.664
 1569POPC   NC322547   5.899  32.203   9.464
 1569POPC   PO422548   5.875  32.253   9.164
 1569POPC   GL122549   5.857  32.244   8.864
 1569POPC   GL222550   6.021  32.229   8.864
 1569POPC   C1A22551   5.863  32.244   8.564
 1569POPC   D2A22552   5.868  32.236   8.264
 1569POPC   C3A22553   5.853  32.237   7.964
 1569POPC   C4A22554   5.868  32.234   7.664
 1569POPC   C1B22555   6.094  32.156   8.564
 1569POPC   C2B22556   6.092  32.135   8.264
 1569POPC   C3B22557   6.092  32.098   7.964
 1569POPC   C4B22558   6.057  32.157   7.664
 1570POPC   NC322559  39.276   0.472   9.464
 1570POPC   PO422560  39.236   0.460   9.164
 1570POPC   GL122561  39.230   0.460   8.864
 1570POPC   GL222562  39.358   0.437   8.864
 1570POPC   C1A22563  39.190   0.397   8.564
 1570POPC   D2A22564  39.270   0.479   8.264
 1570POPC   C3A22565  39.233   0.405   7.964
 1570POPC   C4A22566  39.198   0.486   7.664
 1570POPC   C1B22567  39.509   0.433   8.564
 1570POPC   C2B22568  39.510   0.446   8.264
 1570POPC   C3B22569  39.504   0.417   7.964
 1570POPC   C4B22570  39.507   0.406   7.664
 1571POPC   NC322571  29.924  33.821   9.464
 1571POPC   PO422572  29.908  33.815   9.164
 1571POPC   GL122573  29.921  33.828   8.864
 1571POPC   GL222574  29.854  33.672   8.864
 1571POPC   C1A22575  29.900  33.753   8.564
 1571POPC   D2A22576  29.934  33.836   8.264
 1571POPC   C3A22577  29.927  33.813   7.964
 1571POPC   C4A22578  29.955  33.807   7.664
 1571POPC   C1B22579  29.738  33.570   8.564
 1571POPC   C2B22580  29.822  33.544   8.264
 1571POPC   C3B22581  29.826  33.569   7.964
 1571POPC   C4B22582  29.746  33.617   7.664
 1572POPC   NC322583  15.200  15.942   9.464
 1572POPC   PO422584  15.141  15.963   9.164
 1572POPC   GL122585  15.219  15.917   8.864
 1572POPC   GL222586  15.180  16.064   8.864
 1572POPC   C1A22587  15.152  15.922   8.564
 1572POPC   D2A22588  15.206  15.976   8.264
 1572POPC   C3A22589  15.175  15.975   7.964
 1572POPC   C4A22590  15.218  15.999   7.664
 1572POPC   C1B22591  15.240  16.208   8.564
 1572POPC   C2B22592  15.155  16.229   8.264
 1572POPC   C3B22593  15.209  16.181   7.964
 1572POPC   C4B22594  15.177  16.247   7.664
 1573POPC   NC322595  33.835  30.684   9.464
 1573POPC   PO422596  33.827  30.664   9.164
 1573POPC   GL122597  33.776  30.731   8.864
 1573POPC   GL222598  33.904  30.809   8.864
 1573POPC   C1A22599  33.828  30.711   8.564
 1573POPC   D2A22600  33.832  30.728   8.264
 1573POPC   C3A22601  33.795  30.716   7.964
 1573POPC   C4A22602  33.822  30.678   7.664
 1573POPC   C1B22603  33.980  30.883   8.564
 1573POPC   C2B22604  33.978  30.853   8.264
 1573POPC   C3B22605  34.038  30.862   7.964
 1573POPC   C4B22606  33.973  30.883   7.664
 1574POPC   NC322607   1.983  19.883   9.464
 1574POPC   PO422608   1.985  19.882   9.164
 1574POPC   GL122609   1.997  19.879   8.864
 1574POPC   GL222610   1.875  19.828   8.864
 1574POPC   C1A22611   1.954  19.811   8.564
 1574POPC   D2A22612   2.031  19.869   8.264
 1574POPC   C3A22613   1.962  19.790   7.964
 1574POPC   C4A22614   1.994  19.814   7.664
 1574POPC   C1B22615   1.752  19.892   8.564
 1574POPC   C2B22616   1.782  19.954   8.264
 1574POPC   C3B22617   1.759  19.927   7.964
 1574POPC   C4B22618   1.710  19.892   7.664
 1575POPC   NC322619   7.455  34.572   9.464
 1575POPC   PO422620   7.428  34.578   9.164
 1575POPC   GL122621   7.462  34.530   8.864
 1575POPC   GL222622   7.352  34.496   8.864
 1575POPC   C1A22623   7.429  34.544   8.564
 1575POPC   D2A22624   7.443  34.541   8.264
 1575POPC   C3A22625   7.457  34.544   7.964
 1575POPC   C4A22626   7.412  34.620   7.664
 1575POPC   C1B22627   7.291  34.321   8.564
 1575POPC   C2B22628   7.310  34.399   8.264
 1575POPC   C3B22629   7.307  34.369   7.964
 1575POPC   C4B22630   7.292  34.328   7.664
 1576POPC   NC322631  12.876  44.706   9.464
 1576POPC   PO422632  12.881  44.623   9.164
 1576POPC   GL122633  12.838  44.643   8.864
 1576POPC   GL222634  12.825  44.551   8.864
 1576POPC   C1A22635  12.887  44.682   8.564
 1576POPC   D2A22636  12.827  44.709   8.264
 1576POPC   C3A22637  12.835  44.694   7.964
 1576POPC   C4A22638  12.826  44.706   7.664
 1576POPC   C1B22639  12.724  44.439   8.564
 1576POPC   C2B22640  12.758  44.469   8.264
 1576POPC   C3B22641  12.749  44.397   7.964
 1576POPC   C4B22642  12.747  44.432   7.664
 1577POPC   NC322643  21.352  14.453   9.464
 1577POPC   PO422644  21.368  14.440   9.164
 1577POPC   GL122645  21.417  14.395   8.864
 1577POPC   GL222646  21.438  14.274   8.864
 1577POPC   C1A22647  21.378  14.379   8.564
 1577POPC   D2A22648  21.389  14.399   8.264
 1577POPC   C3A22649  21.394  14.389   7.964
 1577POPC   C4A22650  21.339  14.396   7.664
 1577POPC   C1B22651  21.438  14.185   8.564
 1577POPC   C2B22652  21.477  14.160   8.264
 1577POPC   C3B22653  21.444  14.210   7.964
 1577POPC   C4B22654  21.441  14.183   7.664
 1578POPC   NC322655   4.335  31.469   9.464
 1578POPC   PO422656   4.268  31.440   9.164
 1578POPC   GL122657   4.300  31.434   8.864
 1578POPC   GL222658   4.375  31.612   8.864
 1578POPC   C1A22659   4.302  31.494   8.564
 1578POPC   D2A22660   4.287  31.471   8.264
 1578POPC   C3A22661   4.363  31.442   7.964
 1578POPC   C4A22662   4.287  31.479   7.664
 1578POPC   C1B22663   4.409  31.663   8.564
 1578POPC   C2B22664   4.409  31.745   8.264
 1578POPC   C3B22665   4.415  31.729   7.964
 1578POPC   C4B22666   4.469  31.711   7.664
 1579POPC   NC322667  33.755  42.337   9.464
 1579POPC   PO422668  33.755  42.290   9.164
 1579POPC   GL122669  33.755  42.302   8.864
 1579POPC   GL222670  33.728  42.319   8.864
 1579POPC   C1A22671  33.762  42.305   8.564
 1579POPC   D2A22672  33.778  42.287   8.264
 1579POPC   C3A22673  33.812  42.360   7.964
 1579POPC   C4A22674  33.775  42.368   7.664
 1579POPC   C1B22675  33.557  42.284   8.564
 1579POPC   C2B22676  33.562  42.226   8.264
 1579POPC   C3B22677  33.522  42.299   7.964
 1579POPC   C4B22678  33.545  42.225   7.664
 1580POPC   NC322679  12.816  39.225   9.464
 1580POPC   PO422680  12.844  39.278   9.164
 1580POPC   GL122681  12.868  39.262   8.864
 1580POPC   GL222682  12.922  39.368   8.864
 1580POPC   C1A22683  12.881  39.247   8.564
 1580POPC   D2A22684  12.894  39.268   8.264
 1580POPC   C3A22685  12.884  39.195   7.964
 1580POPC   C4A22686  12.898  39.224   7.664
 1580POPC   C1B22687  12.907  39.480   8.564
 1580POPC   C2B22688  12.899  39.461   8.264
 1580POPC   C3B22689  12.953  39.480   7.964
 1580POPC   C4B22690  12.951  39.454   7.664
 1581POPC   NC322691   8.227   2.770   9.464
 1581POPC   PO422692   8.224   2.737   9.164
 1581POPC   GL122693   8.227   2.756   8.864
 1581POPC   GL222694   8.175   2.821   8.864
 1581POPC   C1A22695   8.246   2.764   8.564
 1581POPC   D2A22696   8.191   2.764   8.264
 1581POPC   C3A22697   8.229   2.732   7.964
 1581POPC   C4A22698   8.207   2.723   7.664
 1581POPC   C1B22699   8.035   2.999   8.564
 1581POPC   C2B22700   8.015   2.991   8.264
 1581POPC   C3B22701   8.089   2.928   7.964
 1581POPC   C4B22702   8.035   3.001   7.664
 1582POPC   NC322703  41.586  41.545   9.464
 1582POPC   PO422704  41.551  41.580   9.164
 1582POPC   GL122705  41.558  41.562   8.864
 1582POPC   GL222706  41.648  41.532   8.864
 1582POPC   C1A22707  41.553  41.602   8.564
 1582POPC   D2A22708  41.519  41.568   8.264
 1582POPC   C3A22709  41.518  41.572   7.964
 1582POPC   C4A22710  41.582  41.531   7.664
 1582POPC   C1B22711  41.792  41.487   8.564
 1582POPC   C2B22712  41.765  41.482   8.264
 1582POPC   C3B22713  41.825  41.567   7.964
 1582POPC   C4B22714  41.797  41.522   7.664
 1583POPC   NC322715  36.914  32.279   9.464
 1583POPC   PO422716  36.885  32.287   9.164
 1583POPC   GL122717  36.862  32.219   8.864
 1583POPC   GL222718  37.009  32.284   8.864
 1583POPC   C1A22719  36.926  32.272   8.564
 1583POPC   D2A22720  36.878  32.298   8.264
 1583POPC   C3A22721  36.911  32.255   7.964
 1583POPC   C4A22722  36.907  32.208   7.664
 1583POPC   C1B22723  37.177  32.295   8.564
 1583POPC   C2B22724  37.110  32.254   8.264
 1583POPC   C3B22725  37.134  32.307   7.964
 1583POPC   C4B22726  37.164  32.233   7.664
 1584POPC   NC322727  42.361   5.064   9.464
 1584POPC   PO422728  42.302   5.141   9.164
 1584POPC   GL122729  42.327   5.142   8.864
 1584POPC   GL222730  42.349   4.981   8.864
 1584POPC   C1A22731  42.347   5.048   8.564
 1584POPC   D2A22732  42.294   5.129   8.264
 1584POPC   C3A22733  42.363   5.125   7.964
 1584POPC   C4A22734  42.334   5.142   7.664
 1584POPC   C1B22735  42.412   4.909   8.564
 1584POPC   C2B22736  42.426   4.846   8.264
 1584POPC   C3B22737  42.455   4.903   7.964
 1584POPC   C4B22738  42.448   4.918   7.664
 1585POPC   NC322739  31.446  36.115   9.464
 1585POPC   PO422740  31.518  36.097   9.164
 1585POPC   GL122741  31.466  36.136   8.864
 1585POPC   GL222742  31.379  36.047   8.864
 1585POPC   C1A22743  31.469  36.155   8.564
 1585POPC   D2A22744  31.462  36.142   8.264
 1585POPC   C3A22745  31.479  36.157   7.964
 1585POPC   C4A22746  31.482  36.177   7.664
 1585POPC   C1B22747  31.389  35.962   8.564
 1585POPC   C2B22748  31.349  35.948   8.264
 1585POPC   C3B22749  31.297  35.869   7.964
 1585POPC   C4B22750  31.306  35.869   7.664
 1586POPC   NC322751   1.999  19.102   9.464
 1586POPC   PO422752   1.942  19.019   9.164
 1586POPC   GL122753   2.023  19.055   8.864
 1586POPC   GL222754   1.935  19.153   8.864
 1586POPC   C1A22755   1.958  19.042   8.564
 1586POPC   D2A22756   1.952  19.082   8.264
 1586POPC   C3A22757   1.951  19.078   7.964
 1586POPC   C4A22758   2.013  19.102   7.664
 1586POPC   C1B22759   2.012  19.358   8.564
 1586POPC   C2B22760   2.028  19.312   8.264
 1586POPC   C3B22761   1.952  19.287   7.964
 1586POPC   C4B22762   1.976  19.296   7.664
 1587POPC   NC322763  31.450  26.851   9.464
 1587POPC   PO422764  31.465  26.777   9.164
 1587POPC   GL122765  31.483  26.780   8.864
 1587POPC   GL222766  31.410  26.947   8.864
 1587POPC   C1A22767  31.464  26.841   8.564
 1587POPC   D2A22768  31.469  26.786   8.264
 1587POPC   C3A22769  31.500  26.857   7.964
 1587POPC   C4A22770  31.498  26.789   7.664
 1587POPC   C1B22771  31.445  27.030   8.564
 1587POPC   C2B22772  31.466  27.110   8.264
 1587POPC   C3B22773  31.437  27.052   7.964
 1587POPC   C4B22774  31.386  27.070   7.664
 1588POPC   NC322775  15.161   6.607   9.464
 1588POPC   PO422776  15.181   6.650   9.164
 1588POPC   GL122777  15.164   6.654   8.864
 1588POPC   GL222778  15.244   6.585   8.864
 1588POPC   C1A22779  15.152   6.631   8.564
 1588POPC   D2A22780  15.223   6.596   8.264
 1588POPC   C3A22781  15.141   6.615   7.964
 1588POPC   C4A22782  15.136   6.646   7.664
 1588POPC   C1B22783  15.307   6.447   8.564
 1588POPC   C2B22784  15.348   6.403   8.264
 1588POPC   C3B22785  15.276   6.406   7.964
 1588POPC   C4B22786  15.345   6.447   7.664
 1589POPC   NC322787  28.355   9.778   9.464
 1589POPC   PO422788  28.377   9.790   9.164
 1589POPC   GL122789  28.334   9.720   8.864
 1589POPC   GL222790  28.462   9.806   8.864
 1589POPC   C1A22791  28.385   9.783   8.564
 1589POPC   D2A22792  28.340   9.789   8.264
 1589POPC   C3A22793  28.402   9.752   7.964
 1589POPC   C4A22794  28.345   9.733   7.664
 1589POPC   C1B22795  28.486   9.940   8.564
 1589POPC   C2B22796  28.487   9.961   8.264
 1589POPC   C3B22797  28.467   9.909   7.964
 1589POPC   C4B22798  28.513  10.003   7.664
 1590POPC   NC322799  15.952  11.316   9.464
 1590POPC   PO422800  15.935  11.257   9.164
 1590POPC   GL122801  15.970  11.305   8.864
 1590POPC   GL222802  16.041  11.367   8.864
 1590POPC   C1A22803  15.920  11.315   8.564
 1590POPC   D2A22804  15.963  11.253   8.264
 1590POPC   C3A22805  15.991  11.275   7.964
 1590POPC   C4A22806  15.956  11.321   7.664
 1590POPC   C1B22807  16.154  11.506   8.564
 1590POPC   C2B22808  16.126  11.482   8.264
 1590POPC   C3B22809  16.168  11.468   7.964
 1590POPC   C4B22810  16.097  11.456   7.664
 1591POPC   NC322811  36.869  40.774   9.464
 1591POPC   PO422812  36.902  40.739   9.164
 1591POPC   GL122813  36.897  40.821   8.864
 1591POPC   GL222814  36.956  40.697   8.864
 1591POPC   C1A22815  36.860  40.764   8.564
 1591POPC   D2A22816  36.920  40.817   8.264
 1591POPC   C3A22817  36.876  40.826   7.964
 1591POPC   C4A22818  36.892  40.809   7.664
 1591POPC   C1B22819  37.083  40.590   8.564
 1591POPC   C2B22820  37.064  40.587   8.264
 1591POPC   C3B22821  37.099  40.635   7.964
 1591POPC   C4B22822  37.050  40.593   7.664
 1592POPC   NC322823   8.946  40.832   9.464
 1592POPC   PO422824   8.978  40.748   9.164
 1592POPC   GL122825   8.969  40.819   8.864
 1592POPC   GL222826   8.856  40.786   8.864
 1592POPC   C1A22827   8.962  40.758   8.564
 1592POPC   D2A22828   8.923  40.768   8.264
 1592POPC   C3A22829   8.964  40.743   7.964
 1592POPC   C4A22830   8.962  40.754   7.664
 1592POPC   C1B22831   8.740  40.878   8.564
 1592POPC   C2B22832   8.708  40.798   8.264
 1592POPC   C3B22833   8.737  40.790   7.964
 1592POPC   C4B22834   8.718  40.801   7.664
 1593POPC   NC322835  35.364  40.028   9.464
 1593POPC   PO422836  35.377  40.026   9.164
 1593POPC   GL122837  35.354  40.040   8.864
 1593POPC   GL222838  35.212  40.054   8.864
 1593POPC   C1A22839  35.382  40.037   8.564
 1593POPC   D2A22840  35.397  39.985   8.264
 1593POPC   C3A22841  35.346  39.990   7.964
 1593POPC   C4A22842  35.389  39.993   7.664
 1593POPC   C1B22843  35.121  40.106   8.564
 1593POPC   C2B22844  35.110  40.085   8.264
 1593POPC   C3B22845  35.154  40.025   7.964
 1593POPC   C4B22846  35.152  40.083   7.664
 1594POPC   NC322847  27.568  44.668   9.464
 1594POPC   PO422848  27.614  44.688   9.164
 1594POPC   GL122849  27.622  44.686   8.864
 1594POPC   GL222850  27.634  44.521   8.864
 1594POPC   C1A22851  27.549  44.666   8.564
 1594POPC   D2A22852  27.578  44.680   8.264
 1594POPC   C3A22853  27.604  44.669   7.964
 1594POPC   C4A22854  27.552  44.632   7.664
 1594POPC   C1B22855  27.785  44.427   8.564
 1594POPC   C2B22856  27.718  44.500   8.264
 1594POPC   C3B22857  27.767  44.498   7.964
 1594POPC   C4B22858  27.702  44.486   7.664
 1595POPC   NC322859  25.255  36.907   9.464
 1595POPC   PO422860  25.236  36.854   9.164
 1595POPC   GL122861  25.264  36.920   8.864
 1595POPC   GL222862  25.109  36.915   8.864
 1595POPC   C1A22863  25.240  36.908   8.564
 1595POPC   D2A22864  25.232  36.889   8.264
 1595POPC   C3A22865  25.250  36.926   7.964
 1595POPC   C4A22866  25.237  36.910   7.664
 1595POPC   C1B22867  25.022  36.968   8.564
 1595POPC   C2B22868  24.972  36.940   8.264
 1595POPC   C3B22869  25.037  36.964   7.964
 1595POPC   C4B22870  25.013  36.952   7.664
 1596POPC   NC322871  39.246  15.190   9.464
 1596POPC   PO422872  39.207  15.204   9.164
 1596POPC   GL122873  39.206  15.208   8.864
 1596POPC   GL222874  39.160  15.282   8.864
 1596POPC   C1A22875  39.217  15.149   8.564
 1596POPC   D2A22876  39.227  15.148   8.264
 1596POPC   C3A22877  39.217  15.228   7.964
 1596POPC   C4A22878  39.278  15.203   7.664
 1596POPC   C1B22879  39.040  15.251   8.564
 1596POPC   C2B22880  38.978  15.309   8.264
 1596POPC   C3B22881  39.034  15.282   7.964
 1596POPC   C4B22882  39.014  15.294   7.664
 1597POPC   NC322883   8.178  43.882   9.464
 1597POPC   PO422884   8.181  43.916   9.164
 1597POPC   GL122885   8.218  43.877   8.864
 1597POPC   GL222886   8.106  43.837   8.864
 1597POPC   C1A22887   8.232  43.928   8.564
 1597POPC   D2A22888   8.171  43.891   8.264
 1597POPC   C3A22889   8.181  43.871   7.964
 1597POPC   C4A22890   8.230  43.844   7.664
 1597POPC   C1B22891   7.978  43.747   8.564
 1597POPC   C2B22892   7.994  43.805   8.264
 1597POPC   C3B22893   7.995  43.801   7.964
 1597POPC   C4B22894   7.991  43.754   7.664
 1598POPC   NC322895  24.453  29.130   9.464
 1598POPC   PO422896  24.474  29.158   9.164
 1598POPC   GL122897  24.458  29.193   8.864
 1598POPC   GL222898  24.616  29.066   8.864
 1598POPC   C1A22899  24.486  29.159   8.564
 1598POPC   D2A22900  24.531  29.181   8.264
 1598POPC   C3A22901  24.517  29.133   7.964
 1598POPC   C4A22902  24.441  29.182   7.664
 1598POPC   C1B22903  24.735  29.049   8.564
 1598POPC   C2B22904  24.677  29.003   8.264
 1598POPC   C3B22905  24.666  29.011   7.964
 1598POPC   C4B22906  24.735  29.058   7.664
 1599POPC   NC322907  21.411  29.961   9.464
 1599POPC   PO422908  21.343  29.925   9.164
 1599POPC   GL122909  21.372  29.889   8.864
 1599POPC   GL222910  21.272  29.916   8.864
 1599POPC   C1A22911  21.352  29.960   8.564
 1599POPC   D2A22912  21.341  29.877   8.264
 1599POPC   C3A22913  21.340  29.892   7.964
 1599POPC   C4A22914  21.416  29.927   7.664
 1599POPC   C1B22915  21.147  29.939   8.564
 1599POPC   C2B22916  21.184  29.892   8.264
 1599POPC   C3B22917  21.153  29.965   7.964
 1599POPC   C4B22918  21.144  29.968   7.664
 1600POPC   NC322919   6.661  37.682   9.464
 1600POPC   PO422920   6.616  37.717   9.164
 1600POPC   GL122921   6.649  37.666   8.864
 1600POPC   GL222922   6.621  37.601   8.864
 1600POPC   C1A22923   6.626  37.700   8.564
 1600POPC   D2A22924   6.629  37.634   8.264
 1600POPC   C3A22925   6.652  37.648   7.964
 1600POPC   C4A22926   6.625  37.671   7.664
 1600POPC   C1B22927   6.575  37.482   8.564
 1600POPC   C2B22928   6.522  37.428   8.264
 1600POPC   C3B22929   6.492  37.496   7.964
 1600POPC   C4B22930   6.550  37.455   7.664
 1601POPC   NC322931  25.300   6.678   9.464
 1601POPC   PO422932  25.288   6.693   9.164
 1601POPC   GL122933  25.249   6.616   8.864
 1601POPC   GL222934  25.188   6.709   8.864
 1601POPC   C1A22935  25.292   6.665   8.564
 1601POPC   D2A22936  25.262   6.624   8.264
 1601POPC   C3A22937  25.278   6.687   7.964
 1601POPC   C4A22938  25.275   6.671   7.664
 1601POPC   C1B22939  25.054   6.866   8.564
 1601POPC   C2B22940  25.112   6.798   8.264
 1601POPC   C3B22941  25.087   6.851   7.964
 1601POPC   C4B22942  25.101   6.820   7.664
 1602POPC   NC322943  16.730  41.546   9.464
 1602POPC   PO422944  16.694  41.607   9.164
 1602POPC   GL122945  16.683  41.584   8.864
 1602POPC   GL222946  16.762  41.693   8.864
 1602POPC   C1A22947  16.738  41.525   8.564
 1602POPC   D2A22948  16.769  41.583   8.264
 1602POPC   C3A22949  16.691  41.586   7.964
 1602POPC   C4A22950  16.732  41.551   7.664
 1602POPC   C1B22951  16.709  41.808   8.564
 1602POPC   C2B22952  16.665  41.815   8.264
 1602POPC   C3B22953  16.663  41.781   7.964
 1602POPC   C4B22954  16.709  41.804   7.664
 1603POPC   NC322955  22.150   2.721   9.464
 1603POPC   PO422956  22.190   2.791   9.164
 1603POPC   GL122957  22.187   2.779   8.864
 1603POPC   GL222958  22.094   2.834   8.864
 1603POPC   C1A22959  22.130   2.737   8.564
 1603POPC   D2A22960  22.125   2.778   8.264
 1603POPC   C3A22961  22.149   2.738   7.964
 1603POPC   C4A22962  22.193   2.756   7.664
 1603POPC   C1B22963  21.958   2.963   8.564
 1603POPC   C2B22964  21.995   2.895   8.264
 1603POPC   C3B22965  22.021   2.909   7.964
 1603POPC   C4B22966  21.954   2.906   7.664
 1604POPC   NC322967  20.644   5.080   9.464
 1604POPC   PO422968  20.641   5.074   9.164
 1604POPC   GL122969  20.590   5.045   8.864
 1604POPC   GL222970  20.783   5.067   8.864
 1604POPC   C1A22971  20.585   5.074   8.564
 1604POPC   D2A22972  20.649   5.077   8.264
 1604POPC   C3A22973  20.654   5.080   7.964
 1604POPC   C4A22974  20.609   5.067   7.664
 1604POPC   C1B22975  20.865   5.083   8.564
 1604POPC   C2B22976  20.857   5.115   8.264
 1604POPC   C3B22977  20.892   5.091   7.964
 1604POPC   C4B22978  20.883   5.101   7.664
 1605POPC   NC322979  41.516  13.643   9.464
 1605POPC   PO422980  41.550  13.634   9.164
 1605POPC   GL122981  41.534  13.580   8.864
 1605POPC   GL222982  41.499  13.562   8.864
 1605POPC   C1A22983  41.513  13.649   8.564
 1605POPC   D2A22984  41.558  13.601   8.264
 1605POPC   C3A22985  41.552  13.665   7.964
 1605POPC   C4A22986  41.524  13.597   7.664
 1605POPC   C1B22987  41.424  13.438   8.564
 1605POPC   C2B22988  41.401  13.383   8.264
 1605POPC   C3B22989  41.444  13.375   7.964
 1605POPC   C4B22990  41.396  13.421   7.664
 1606POPC   NC322991   5.898  23.730   9.464
 1606POPC   PO422992   5.845  23.753   9.164
 1606POPC   GL122993   5.897  23.723   8.864
 1606POPC   GL222994   5.907  23.834   8.864
 1606POPC   C1A22995   5.836  23.709   8.564
 1606POPC   D2A22996   5.862  23.700   8.264
 1606POPC   C3A22997   5.840  23.730   7.964
 1606POPC   C4A22998   5.839  23.752   7.664
 1606POPC   C1B22999   5.933  23.996   8.564
 1606POPC   C2B23000   5.862  23.961   8.264
 1606POPC   C3B23001   5.895  23.919   7.964
 1606POPC   C4B23002   5.892  23.955   7.664
 1607POPC   NC323003  29.129   1.195   9.464
 1607POPC   PO423004  29.178   1.192   9.164
 1607POPC   GL123005  29.161   1.171   8.864
 1607POPC   GL223006  29.030   1.297   8.864
 1607POPC   C1A23007  29.104   1.164   8.564
 1607POPC   D2A23008  29.184   1.206   8.264
 1607POPC   C3A23009  29.160   1.234   7.964
 1607POPC   C4A23010  29.098   1.215   7.664
 1607POPC   C1B23011  28.972   1.375   8.564
 1607POPC   C2B23012  28.988   1.395   8.264
 1607POPC   C3B23013  28.927   1.377   7.964
 1607POPC   C4B23014  28.966   1.366   7.664
 1608POPC   NC323015  24.490  13.604   9.464
 1608POPC   PO423016  24.483  13.580   9.164
 1608POPC   GL123017  24.477  13.676   8.864
 1608POPC   GL223018  24.577  13.757   8.864
 1608POPC   C1A23019  24.445  13.633   8.564
 1608POPC   D2A23020  24.465  13.642   8.264
 1608POPC   C3A23021  24.453  13.628   7.964
 1608POPC   C4A23022  24.480  13.655   7.664
 1608POPC   C1B23023  24.636  13.828   8.564
 1608POPC   C2B23024  24.609  13.899   8.264
 1608POPC   C3B23025  24.596  13.808   7.964
 1608POPC   C4B23026  24.628  13.808   7.664
 1609POPC   NC323027  39.220  21.349   9.464
 1609POPC   PO423028  39.276  21.388   9.164
 1609POPC   GL123029  39.260  21.371   8.864
 1609POPC   GL223030  39.228  21.537   8.864
 1609POPC   C1A23031  39.237  21.392   8.564
 1609POPC   D2A23032  39.224  21.409   8.264
 1609POPC   C3A23033  39.270  21.420   7.964
 1609POPC   C4A23034  39.232  21.363   7.664
 1609POPC   C1B23035  39.329  21.659   8.564
 1609POPC   C2B23036  39.316  21.608   8.264
 1609POPC   C3B23037  39.327  21.592   7.964
 1609POPC   C4B23038  39.306  21.594   7.664
 1610POPC   NC323039   2.019  43.886   9.464
 1610POPC   PO423040   2.013  43.882   9.164
 1610POPC   GL123041   1.979  43.888   8.864
 1610POPC   GL223042   1.937  43.758   8.864
 1610POPC   C1A23043   1.968  43.848   8.564
 1610POPC   D2A23044   1.990  43.902   8.264
 1610POPC   C3A23045   1.941  43.872   7.964
 1610POPC   C4A23046   2.016  43.872   7.664
 1610POPC   C1B23047   1.939  43.623   8.564
 1610POPC   C2B23048   1.890  43.677   8.264
 1610POPC   C3B23049   1.878  43.683   7.964
 1610POPC   C4B23050   1.953  43.613   7.664
 1611POPC   NC323051   0.466  38.417   9.464
 1611POPC   PO423052   0.422  38.491   9.164
 1611POPC   GL123053   0.453  38.429   8.864
 1611POPC   GL223054   0.501  38.540   8.864
 1611POPC   C1A23055   0.398  38.460   8.564
 1611POPC   D2A23056   0.461  38.424   8.264
 1611POPC   C3A23057   0.392  38.485   7.964
 1611POPC   C4A23058   0.437  38.458   7.664
 1611POPC   C1B23059   0.540  38.715   8.564
 1611POPC   C2B23060   0.514  38.738   8.264
 1611POPC   C3B23061   0.541  38.649   7.964
 1611POPC   C4B23062   0.561  38.660   7.664
 1612POPC   NC323063  25.240   8.233   9.464
 1612POPC   PO423064  25.247   8.216   9.164
 1612POPC   GL123065  25.259   8.173   8.864
 1612POPC   GL223066  25.417   8.283   8.864
 1612POPC   C1A23067  25.268   8.228   8.564
 1612POPC   D2A23068  25.250   8.212   8.264
 1612POPC   C3A23069  25.313   8.233   7.964
 1612POPC   C4A23070  25.227   8.159   7.664
 1612POPC   C1B23071  25.483   8.257   8.564
 1612POPC   C2B23072  25.500   8.246   8.264
 1612POPC   C3B23073  25.466   8.247   7.964
 1612POPC   C4B23074  25.470   8.298   7.664
 1613POPC   NC323075  10.480  11.329   9.464
 1613POPC   PO423076  10.548  11.318   9.164
 1613POPC   GL123077  10.537  11.343   8.864
 1613POPC   GL223078  10.644  11.200   8.864
 1613POPC   C1A23079  10.476  11.333   8.564
 1613POPC   D2A23080  10.562  11.291   8.264
 1613POPC   C3A23081  10.562  11.344   7.964
 1613POPC   C4A23082  10.520  11.266   7.664
 1613POPC   C1B23083  10.696  11.128   8.564
 1613POPC   C2B23084  10.712  11.090   8.264
 1613POPC   C3B23085  10.641  11.060   7.964
 1613POPC   C4B23086  10.666  11.132   7.664
 1614POPC   NC323087   7.413  11.336   9.464
 1614POPC   PO423088   7.379  11.335   9.164
 1614POPC   GL123089   7.454  11.251   8.864
 1614POPC   GL223090   7.548  11.366   8.864
 1614POPC   C1A23091   7.385  11.262   8.564
 1614POPC   D2A23092   7.439  11.261   8.264
 1614POPC   C3A23093   7.385  11.292   7.964
 1614POPC   C4A23094   7.456  11.324   7.664
 1614POPC   C1B23095   7.657  11.410   8.564
 1614POPC   C2B23096   7.625  11.436   8.264
 1614POPC   C3B23097   7.680  11.375   7.964
 1614POPC   C4B23098   7.606  11.378   7.664
 1615POPC   NC323099  17.507  44.707   9.464
 1615POPC   PO423100  17.501  44.649   9.164
 1615POPC   GL123101  17.507  44.685   8.864
 1615POPC   GL223102  17.445  44.614   8.864
 1615POPC   C1A23103  17.487  44.667   8.564
 1615POPC   D2A23104  17.500  44.694   8.264
 1615POPC   C3A23105  17.502  44.701   7.964
 1615POPC   C4A23106  17.550  44.702   7.664
 1615POPC   C1B23107  17.262  44.512   8.564
 1615POPC   C2B23108  17.314  44.581   8.264
 1615POPC   C3B23109  17.245  44.585   7.964
 1615POPC   C4B23110  17.315  44.519   7.664
 1616POPC   NC323111   5.063  42.291   9.464
 1616POPC   PO423112   5.045  42.332   9.164
 1616POPC   GL123113   5.116  42.343   8.864
 1616POPC   GL223114   5.024  42.222   8.864
 1616POPC   C1A23115   5.056  42.325   8.564
 1616POPC   D2A23116   5.122  42.357   8.264
 1616POPC   C3A23117   5.130  42.302   7.964
 1616POPC   C4A23118   5.120  42.361   7.664
 1616POPC   C1B23119   4.897  42.226   8.564
 1616POPC   C2B23120   4.849  42.219   8.264
 1616POPC   C3B23121   4.923  42.177   7.964
 1616POPC   C4B23122   4.848  42.170   7.664
 1617POPC   NC323123  29.113  12.090   9.464
 1617POPC   PO423124  29.095  12.107   9.164
 1617POPC   GL123125  29.136  12.122   8.864
 1617POPC   GL223126  29.140  12.195   8.864
 1617POPC   C1A23127  29.169  12.040   8.564
 1617POPC   D2A23128  29.111  12.079   8.264
 1617POPC   C3A23129  29.157  12.121   7.964
 1617POPC   C4A23130  29.127  12.112   7.664
 1617POPC   C1B23131  29.168  12.318   8.564
 1617POPC   C2B23132  29.109  12.366   8.264
 1617POPC   C3B23133  29.176  12.342   7.964
 1617POPC   C4B23134  29.163  12.369   7.664
 1618POPC   NC323135  18.296   6.662   9.464
 1618POPC   PO423136  18.247   6.667   9.164
 1618POPC   GL123137  18.259   6.652   8.864
 1618POPC   GL223138  18.401   6.709   8.864
 1618POPC   C1A23139  18.308   6.598   8.564
 1618POPC   D2A23140  18.234   6.629   8.264
 1618POPC   C3A23141  18.313   6.609   7.964
 1618POPC   C4A23142  18.257   6.596   7.664
 1618POPC   C1B23143  18.450   6.844   8.564
 1618POPC   C2B23144  18.484   6.834   8.264
 1618POPC   C3B23145  18.459   6.844   7.964
 1618POPC   C4B23146  18.500   6.775   7.664
 1619POPC   NC323147   4.354  22.976   9.464
 1619POPC   PO423148   4.277  22.920   9.164
 1619POPC   GL123149   4.355  22.958   8.864
 1619POPC   GL223150   4.304  22.838   8.864
 1619POPC   C1A23151   4.336  22.904   8.564
 1619POPC   D2A23152   4.296  22.895   8.264
 1619POPC   C3A23153   4.282  22.935   7.964
 1619POPC   C4A23154   4.333  22.891   7.664
 1619POPC   C1B23155   4.185  22.729   8.564
 1619POPC   C2B23156   4.170  22.747   8.264
 1619POPC   C3B23157   4.216  22.757   7.964
 1619POPC   C4B23158   4.165  22.762   7.664
 1620POPC   NC323159  13.663  10.551   9.464
 1620POPC   PO423160  13.671  10.523   9.164
 1620POPC   GL123161  13.592  10.491   8.864
 1620POPC   GL223162  13.778  10.464   8.864
 1620POPC   C1A23163  13.628  10.562   8.564
 1620POPC   D2A23164  13.627  10.511   8.264
 1620POPC   C3A23165  13.602  10.501   7.964
 1620POPC   C4A23166  13.668  10.476   7.664
 1620POPC   C1B23167  13.892  10.394   8.564
 1620POPC   C2B23168  13.845  10.420   8.264
 1620POPC   C3B23169  13.879  10.420   7.964
 1620POPC   C4B23170  13.872  10.415   7.664
 1621POPC   NC323171  18.262  11.343   9.464
 1621POPC   PO423172  18.313  11.272   9.164
 1621POPC   GL123173  18.283  11.262   8.864
 1621POPC   GL223174  18.411  11.407   8.864
 1621POPC   C1A23175  18.281  11.325   8.564
 1621POPC   D2A23176  18.281  11.255   8.264
 1621POPC   C3A23177  18.250  11.308   7.964
 1621POPC   C4A23178  18.310  11.306   7.664
 1621POPC   C1B23179  18.450  11.461   8.564
 1621POPC   C2B23180  18.505  11.405   8.264
 1621POPC   C3B23181  18.469  11.460   7.964
 1621POPC   C4B23182  18.452  11.473   7.664
 1622POPC   NC323183  39.965  26.843   9.464
 1622POPC   PO423184  39.965  26.796   9.164
 1622POPC   GL123185  39.994  26.858   8.864
 1622POPC   GL223186  39.934  26.788   8.864
 1622POPC   C1A23187  39.961  26.770   8.564
 1622POPC   D2A23188  40.009  26.830   8.264
 1622POPC   C3A23189  40.005  26.809   7.964
 1622POPC   C4A23190  40.027  26.776   7.664
 1622POPC   C1B23191  39.764  26.750   8.564
 1622POPC   C2B23192  39.736  26.692   8.264
 1622POPC   C3B23193  39.809  26.691   7.964
 1622POPC   C4B23194  39.764  26.682   7.664
 1623POPC   NC323195  22.116  34.621   9.464
 1623POPC   PO423196  22.198  34.580   9.164
 1623POPC   GL123197  22.148  34.601   8.864
 1623POPC   GL223198  22.001  34.650   8.864
 1623POPC   C1A23199  22.157  34.565   8.564
 1623POPC   D2A23200  22.195  34.532   8.264
 1623POPC   C3A23201  22.146  34.622   7.964
 1623POPC   C4A23202  22.135  34.625   7.664
 1623POPC   C1B23203  21.963  34.662   8.564
 1623POPC   C2B23204  21.940  34.663   8.264
 1623POPC   C3B23205  21.926  34.636   7.964
 1623POPC   C4B23206  21.885  34.618   7.664
 1624POPC   NC323207   9.782   1.980   9.464
 1624POPC   PO423208   9.797   1.984   9.164
 1624POPC   GL123209   9.789   2.024   8.864
 1624POPC   GL223210   9.789   1.933   8.864
 1624POPC   C1A23211   9.754   1.958   8.564
 1624POPC   D2A23212   9.754   1.958   8.264
 1624POPC   C3A23213   9.746   1.989   7.964
 1624POPC   C4A23214   9.728   1.949   7.664
 1624POPC   C1B23215   9.958   1.799   8.564
 1624POPC   C2B23216   9.977   1.813   8.264
 1624POPC   C3B23217   9.947   1.804   7.964
 1624POPC   C4B23218   9.884   1.810   7.664
 1625POPC   NC323219  34.617  10.548   9.464
 1625POPC   PO423220  34.616  10.477   9.164
 1625POPC   GL123221  34.558  10.479   8.864
 1625POPC   GL223222  34.714  10.481   8.864
 1625POPC   C1A23223  34.605  10.484   8.564
 1625POPC   D2A23224  34.530  10.515   8.264
 1625POPC   C3A23225  34.581  10.528   7.964
 1625POPC   C4A23226  34.529  10.501   7.664
 1625POPC   C1B23227  34.786  10.454   8.564
 1625POPC   C2B23228  34.805  10.436   8.264
 1625POPC   C3B23229  34.843  10.422   7.964
 1625POPC   C4B23230  34.791  10.458   7.664
 1626POPC   NC323231  40.034   8.980   9.464
 1626POPC   PO423232  40.046   9.019   9.164
 1626POPC   GL123233  39.958   8.983   8.864
 1626POPC   GL223234  40.040   9.089   8.864
 1626POPC   C1A23235  40.047   8.952   8.564
 1626POPC   D2A23236  39.987   8.972   8.264
 1626POPC   C3A23237  39.969   8.990   7.964
 1626POPC   C4A23238  39.981   8.937   7.664
 1626POPC   C1B23239  40.103   9.220   8.564
 1626POPC   C2B23240  40.074   9.168   8.264
 1626POPC   C3B23241  40.143   9.204   7.964
 1626POPC   C4B23242  40.088   9.223   7.664
 1627POPC   NC323243   1.249   8.957   9.464
 1627POPC   PO423244   1.170   9.016   9.164
 1627POPC   GL123245   1.236   8.998   8.864
 1627POPC   GL223246   1.211   9.101   8.864
 1627POPC   C1A23247   1.164   8.934   8.564
 1627POPC   D2A23248   1.168   8.945   8.264
 1627POPC   C3A23249   1.237   8.925   7.964
 1627POPC   C4A23250   1.206   9.010   7.664
 1627POPC   C1B23251   1.183   9.212   8.564
 1627POPC   C2B23252   1.196   9.208   8.264
 1627POPC   C3B23253   1.207   9.233   7.964
 1627POPC   C4B23254   1.257   9.217   7.664
 1628POPC   NC323255  19.033  42.311   9.464
 1628POPC   PO423256  19.106  42.376   9.164
 1628POPC   GL123257  19.025  42.355   8.864
 1628POPC   GL223258  19.040  42.436   8.864
 1628POPC   C1A23259  19.045  42.367   8.564
 1628POPC   D2A23260  19.052  42.382   8.264
 1628POPC   C3A23261  19.083  42.324   7.964
 1628POPC   C4A23262  19.014  42.329   7.664
 1628POPC   C1B23263  18.980  42.586   8.564
 1628POPC   C2B23264  18.983  42.604   8.264
 1628POPC   C3B23265  19.017  42.597   7.964
 1628POPC   C4B23266  18.985  42.614   7.664
 1629POPC   NC323267  37.727  38.448   9.464
 1629POPC   PO423268  37.679  38.466   9.164
 1629POPC   GL123269  37.630  38.423   8.864
 1629POPC   GL223270  37.556  38.549   8.864
 1629POPC   C1A23271  37.673  38.422   8.564
 1629POPC   D2A23272  37.640  38.486   8.264
 1629POPC   C3A23273  37.677  38.475   7.964
 1629POPC   C4A23274  37.670  38.488   7.664
 1629POPC   C1B23275  37.462  38.593   8.564
 1629POPC   C2B23276  37.459  38.580   8.264
 1629POPC   C3B23277  37.466  38.602   7.964
 1629POPC   C4B23278  37.505  38.525   7.664
 1630POPC   NC323279  38.427  14.395   9.464
 1630POPC   PO423280  38.485  14.386   9.164
 1630POPC   GL123281  38.497  14.424   8.864
 1630POPC   GL223282  38.342  14.429   8.864
 1630POPC   C1A23283  38.465  14.450   8.564
 1630POPC   D2A23284  38.441  14.441   8.264
 1630POPC   C3A23285  38.451  14.385   7.964
 1630POPC   C4A23286  38.440  14.379   7.664
 1630POPC   C1B23287  38.229  14.376   8.564
 1630POPC   C2B23288  38.209  14.327   8.264
 1630POPC   C3B23289  38.184  14.327   7.964
 1630POPC   C4B23290  38.157  14.386   7.664
 1631POPC   NC323291  32.239  33.008   9.464
 1631POPC   PO423292  32.284  33.064   9.164
 1631POPC   GL123293  32.270  33.011   8.864
 1631POPC   GL223294  32.230  33.161   8.864
 1631POPC   C1A23295  32.251  33.025   8.564
 1631POPC   D2A23296  32.212  33.050   8.264
 1631POPC   C3A23297  32.260  32.979   7.964
 1631POPC   C4A23298  32.255  33.061   7.664
 1631POPC   C1B23299  32.170  33.196   8.564
 1631POPC   C2B23300  32.163  33.215   8.264
 1631POPC   C3B23301  32.133  33.284   7.964
 1631POPC   C4B23302  32.175  33.281   7.664
 1632POPC   NC323303  12.050  37.672   9.464
 1632POPC   PO423304  12.064  37.666   9.164
 1632POPC   GL123305  12.060  37.632   8.864
 1632POPC   GL223306  12.126  37.568   8.864
 1632POPC   C1A23307  12.037  37.656   8.564
 1632POPC   D2A23308  12.046  37.667   8.264
 1632POPC   C3A23309  12.107  37.632   7.964
 1632POPC   C4A23310  12.034  37.704   7.664
 1632POPC   C1B23311  12.283  37.487   8.564
 1632POPC   C2B23312  12.269  37.507   8.264
 1632POPC   C3B23313  12.245  37.544   7.964
 1632POPC   C4B23314  12.245  37.495   7.664
 1633POPC   NC323315  15.184  42.347   9.464
 1633POPC   PO423316  15.223  42.338   9.164
 1633POPC   GL123317  15.143  42.290   8.864
 1633POPC   GL223318  15.173  42.422   8.864
 1633POPC   C1A23319  15.188  42.285   8.564
 1633POPC   D2A23320  15.171  42.362   8.264
 1633POPC   C3A23321  15.145  42.355   7.964
 1633POPC   C4A23322  15.183  42.312   7.664
 1633POPC   C1B23323  15.198  42.558   8.564
 1633POPC   C2B23324  15.176  42.588   8.264
 1633POPC   C3B23325  15.178  42.631   7.964
 1633POPC   C4B23326  15.206  42.634   7.664
 1634POPC   NC323327  40.012  10.502   9.464
 1634POPC   PO423328  39.984  10.562   9.164
 1634POPC   GL123329  39.994  10.563   8.864
 1634POPC   GL223330  39.992  10.694   8.864
 1634POPC   C1A23331  40.009  10.541   8.564
 1634POPC   D2A23332  39.986  10.567   8.264
 1634POPC   C3A23333  39.975  10.511   7.964
 1634POPC   C4A23334  39.966  10.510   7.664
 1634POPC   C1B23335  39.910  10.787   8.564
 1634POPC   C2B23336  39.939  10.795   8.264
 1634POPC   C3B23337  39.926  10.756   7.964
 1634POPC   C4B23338  39.927  10.751   7.664
 1635POPC   NC323339  10.553  27.574   9.464
 1635POPC   PO423340  10.489  27.586   9.164
 1635POPC   GL123341  10.491  27.557   8.864
 1635POPC   GL223342  10.656  27.608   8.864
 1635POPC   C1A23343  10.541  27.588   8.564
 1635POPC   D2A23344  10.546  27.594   8.264
 1635POPC   C3A23345  10.520  27.623   7.964
 1635POPC   C4A23346  10.561  27.596   7.664
 1635POPC   C1B23347  10.747  27.542   8.564
 1635POPC   C2B23348  10.808  27.561   8.264
 1635POPC   C3B23349  10.726  27.491   7.964
 1635POPC   C4B23350  10.757  27.582   7.664
 1636POPC   NC323351  34.540  42.306   9.464
 1636POPC   PO423352  34.544  42.375   9.164
 1636POPC   GL123353  34.563  42.375   8.864
 1636POPC   GL223354  34.472  42.416   8.864
 1636POPC   C1A23355  34.580  42.305   8.564
 1636POPC   D2A23356  34.596  42.317   8.264
 1636POPC   C3A23357  34.560  42.288   7.964
 1636POPC   C4A23358  34.591  42.319   7.664
 1636POPC   C1B23359  34.396  42.533   8.564
 1636POPC   C2B23360  34.450  42.586   8.264
 1636POPC   C3B23361  34.428  42.537   7.964
 1636POPC   C4B23362  34.443  42.565   7.664
 1637POPC   NC323363  16.753  40.001   9.464
 1637POPC   PO423364  16.731  40.016   9.164
 1637POPC   GL123365  16.708  39.976   8.864
 1637POPC   GL223366  16.592  39.999   8.864
 1637POPC   C1A23367  16.763  40.008   8.564
 1637POPC   D2A23368  16.762  40.015   8.264
 1637POPC   C3A23369  16.687  39.967   7.964
 1637POPC   C4A23370  16.736  40.013   7.664
 1637POPC   C1B23371  16.454  39.987   8.564
 1637POPC   C2B23372  16.526  40.022   8.264
 1637POPC   C3B23373  16.481  39.939   7.964
 1637POPC   C4B23374  16.513  39.972   7.664
 1638POPC   NC323375  16.742  27.630   9.464
 1638POPC   PO423376  16.704  27.566   9.164
 1638POPC   GL123377  16.717  27.560   8.864
 1638POPC   GL223378  16.633  27.533   8.864
 1638POPC   C1A23379  16.738  27.614   8.564
 1638POPC   D2A23380  16.702  27.572   8.264
 1638POPC   C3A23381  16.774  27.558   7.964
 1638POPC   C4A23382  16.750  27.638   7.664
 1638POPC   C1B23383  16.571  27.386   8.564
 1638POPC   C2B23384  16.509  27.460   8.264
 1638POPC   C3B23385  16.590  27.461   7.964
 1638POPC   C4B23386  16.528  27.430   7.664
 1639POPC   NC323387   4.288  32.281   9.464
 1639POPC   PO423388   4.316  32.214   9.164
 1639POPC   GL123389   4.344  32.205   8.864
 1639POPC   GL223390   4.421  32.308   8.864
 1639POPC   C1A23391   4.343  32.224   8.564
 1639POPC   D2A23392   4.299  32.250   8.264
 1639POPC   C3A23393   4.363  32.221   7.964
 1639POPC   C4A23394   4.353  32.274   7.664
 1639POPC   C1B23395   4.609  32.287   8.564
 1639POPC   C2B23396   4.511  32.280   8.264
 1639POPC   C3B23397   4.546  32.275   7.964
 1639POPC   C4B23398   4.581  32.286   7.664
 1640POPC   NC323399  18.311   1.224   9.464
 1640POPC   PO423400  18.299   1.174   9.164
 1640POPC   GL123401  18.318   1.182   8.864
 1640POPC   GL223402  18.323   1.334   8.864
 1640POPC   C1A23403  18.280   1.175   8.564
 1640POPC   D2A23404  18.267   1.223   8.264
 1640POPC   C3A23405  18.321   1.245   7.964
 1640POPC   C4A23406  18.237   1.190   7.664
 1640POPC   C1B23407  18.398   1.403   8.564
 1640POPC   C2B23408  18.345   1.453   8.264
 1640POPC   C3B23409  18.442   1.471   7.964
 1640POPC   C4B23410  18.396   1.445   7.664
 1641POPC   NC323411  43.070  28.334   9.464
 1641POPC   PO423412  43.133  28.334   9.164
 1641POPC   GL123413  43.086  28.362   8.864
 1641POPC   GL223414  43.186  28.423   8.864
 1641POPC   C1A23415  43.098  28.366   8.564
 1641POPC   D2A23416  43.114  28.374   8.264
 1641POPC   C3A23417  43.099  28.386   7.964
 1641POPC   C4A23418  43.100  28.376   7.664
 1641POPC   C1B23419  43.326  28.530   8.564
 1641POPC   C2B23420  43.311  28.548   8.264
 1641POPC   C3B23421  43.342  28.489   7.964
 1641POPC   C4B23422  43.286  28.567   7.664
 1642POPC   NC323423   7.419  12.055   9.464
 1642POPC   PO423424   7.428  12.065   9.164
 1642POPC   GL123425   7.423  12.044   8.864
 1642POPC   GL223426   7.321  12.035   8.864
 1642POPC   C1A23427   7.392  12.117   8.564
 1642POPC   D2A23428   7.386  12.076   8.264
 1642POPC   C3A23429   7.401  12.124   7.964
 1642POPC   C4A23430   7.396  12.125   7.664
 1642POPC   C1B23431   7.203  12.017   8.564
 1642POPC   C2B23432   7.204  12.010   8.264
 1642POPC   C3B23433   7.167  11.994   7.964
 1642POPC   C4B23434   7.133  11.999   7.664
 1643POPC   NC323435  30.688  16.765   9.464
 1643POPC   PO423436  30.656  16.710   9.164
 1643POPC   GL123437  30.722  16.694   8.864
 1643POPC   GL223438  30.572  16.704   8.864
 1643POPC   C1A23439  30.739  16.722   8.564
 1643POPC   D2A23440  30.702  16.709   8.264
 1643POPC   C3A23441  30.679  16.759   7.964
 1643POPC   C4A23442  30.724  16.774   7.664
 1643POPC   C1B23443  30.413  16.718   8.564
 1643POPC   C2B23444  30.439  16.693   8.264
 1643POPC   C3B23445  30.453  16.656   7.964
 1643POPC   C4B23446  30.438  16.699   7.664
 1644POPC   NC323447  40.740  43.920   9.464
 1644POPC   PO423448  40.775  43.880   9.164
 1644POPC   GL123449  40.745  43.883   8.864
 1644POPC   GL223450  40.668  43.790   8.864
 1644POPC   C1A23451  40.765  43.859   8.564
 1644POPC   D2A23452  40.766  43.847   8.264
 1644POPC   C3A23453  40.771  43.924   7.964
 1644POPC   C4A23454  40.802  43.892   7.664
 1644POPC   C1B23455  40.526  43.794   8.564
 1644POPC   C2B23456  40.505  43.800   8.264
 1644POPC   C3B23457  40.589  43.780   7.964
 1644POPC   C4B23458  40.558  43.835   7.664
 1645POPC   NC323459  26.084   1.197   9.464
 1645POPC   PO423460  26.075   1.256   9.164
 1645POPC   GL123461  26.057   1.184   8.864
 1645POPC   GL223462  26.035   1.060   8.864
 1645POPC   C1A23463  26.014   1.211   8.564
 1645POPC   D2A23464  26.035   1.255   8.264
 1645POPC   C3A23465  26.055   1.223   7.964
 1645POPC   C4A23466  26.014   1.206   7.664
 1645POPC   C1B23467  26.026   0.995   8.564
 1645POPC   C2B23468  26.030   0.947   8.264
 1645POPC   C3B23469  26.048   0.980   7.964
 1645POPC   C4B23470  26.015   0.947   7.664
 1646POPC   NC323471   7.440  14.370   9.464
 1646POPC   PO423472   7.419  14.428   9.164
 1646POPC   GL123473   7.440  14.355   8.864
 1646POPC   GL223474   7.294  14.473   8.864
 1646POPC   C1A23475   7.423  14.448   8.564
 1646POPC   D2A23476   7.447  14.398   8.264
 1646POPC   C3A23477   7.420  14.440   7.964
 1646POPC   C4A23478   7.446  14.365   7.664
 1646POPC   C1B23479   7.221  14.622   8.564
 1646POPC   C2B23480   7.208  14.553   8.264
 1646POPC   C3B23481   7.283  14.566   7.964
 1646POPC   C4B23482   7.222  14.574   7.664
 1647POPC   NC323483  32.243  15.992   9.464
 1647POPC   PO423484  32.261  15.979   9.164
 1647POPC   GL123485  32.214  15.987   8.864
 1647POPC   GL223486  32.353  15.831   8.864
 1647POPC   C1A23487  32.232  15.964   8.564
 1647POPC   D2A23488  32.215  15.970   8.264
 1647POPC   C3A23489  32.220  15.983   7.964
 1647POPC   C4A23490  32.234  15.998   7.664
 1647POPC   C1B23491  32.471  15.793   8.564
 1647POPC   C2B23492  32.466  15.776   8.264
 1647POPC   C3B23493  32.467  15.793   7.964
 1647POPC   C4B23494  32.443  15.802   7.664
 1648POPC   NC323495  40.777  25.254   9.464
 1648POPC   PO423496  40.802  25.267   9.164
 1648POPC   GL123497  40.786  25.310   8.864
 1648POPC   GL223498  40.927  25.309   8.864
 1648POPC   C1A23499  40.768  25.282   8.564
 1648POPC   D2A23500  40.751  25.236   8.264
 1648POPC   C3A23501  40.750  25.257   7.964
 1648POPC   C4A23502  40.831  25.246   7.664
 1648POPC   C1B23503  41.056  25.229   8.564
 1648POPC   C2B23504  41.067  25.217   8.264
 1648POPC   C3B23505  40.994  25.298   7.964
 1648POPC   C4B23506  41.056  25.286   7.664
 1649POPC   NC323507  36.917  39.211   9.464
 1649POPC   PO423508  36.915  39.206   9.164
 1649POPC   GL123509  36.939  39.201   8.864
 1649POPC   GL223510  36.925  39.405   8.864
 1649POPC   C1A23511  36.864  39.227   8.564
 1649POPC   D2A23512  36.940  39.264   8.264
 1649POPC   C3A23513  36.867  39.272   7.964
 1649POPC   C4A23514  36.900  39.186   7.664
 1649POPC   C1B23515  36.970  39.472   8.564
 1649POPC   C2B23516  36.957  39.463   8.264
 1649POPC   C3B23517  36.973  39.502   7.964
 1649POPC   C4B23518  36.896  39.436   7.664
 1650POPC   NC323519  20.588  27.619   9.464
 1650POPC   PO423520  20.609  27.553   9.164
 1650POPC   GL123521  20.565  27.601   8.864
 1650POPC   GL223522  20.660  27.739   8.864
 1650POPC   C1A23523  20.618  27.588   8.564
 1650POPC   D2A23524  20.616  27.584   8.264
 1650POPC   C3A23525  20.582  27.603   7.964
 1650POPC   C4A23526  20.581  27.550   7.664
 1650POPC   C1B23527  20.752  27.829   8.564
 1650POPC   C2B23528  20.736  27.763   8.264
 1650POPC   C3B23529  20.708  27.808   7.964
 1650POPC   C4B23530  20.715  27.757   7.664
 1651POPC   NC323531  22.164  35.340   9.464
 1651POPC   PO423532  22.118  35.382   9.164
 1651POPC   GL123533  22.172  35.385   8.864
 1651POPC   GL223534  22.064  35.330   8.864
 1651POPC   C1A23535  22.201  35.329   8.564
 1651POPC   D2A23536  22.157  35.338   8.264
 1651POPC   C3A23537  22.189  35.393   7.964
 1651POPC   C4A23538  22.184  35.375   7.664
 1651POPC   C1B23539  21.895  35.290   8.564
 1651POPC   C2B23540  21.967  35.252   8.264
 1651POPC   C3B23541  21.912  35.275   7.964
 1651POPC   C4B23542  21.876  35.325   7.664
 1652POPC   NC323543  29.180   8.925   9.464
 1652POPC   PO423544  29.171   8.966   9.164
 1652POPC   GL123545  29.122   8.973   8.864
 1652POPC   GL223546  29.185   9.070   8.864
 1652POPC   C1A23547  29.137   9.011   8.564
 1652POPC   D2A23548  29.117   8.978   8.264
 1652POPC   C3A23549  29.189   8.981   7.964
 1652POPC   C4A23550  29.114   8.991   7.664
 1652POPC   C1B23551  29.350   9.154   8.564
 1652POPC   C2B23552  29.364   9.111   8.264
 1652POPC   C3B23553  29.284   9.137   7.964
 1652POPC   C4B23554  29.318   9.140   7.664
 1653POPC   NC323555  32.980  10.525   9.464
 1653POPC   PO423556  33.016  10.478   9.164
 1653POPC   GL123557  33.032  10.539   8.864
 1653POPC   GL223558  32.892  10.599   8.864
 1653POPC   C1A23559  33.060  10.528   8.564
 1653POPC   D2A23560  33.002  10.519   8.264
 1653POPC   C3A23561  32.984  10.511   7.964
 1653POPC   C4A23562  33.022  10.561   7.664
 1653POPC   C1B23563  32.751  10.609   8.564
 1653POPC   C2B23564  32.813  10.642   8.264
 1653POPC   C3B23565  32.752  10.603   7.964
 1653POPC   C4B23566  32.761  10.625   7.664
 1654POPC   NC323567  36.940  13.637   9.464
 1654POPC   PO423568  36.910  13.585   9.164
 1654POPC   GL123569  36.867  13.668   8.864
 1654POPC   GL223570  36.927  13.508   8.864
 1654POPC   C1A23571  36.913  13.654   8.564
 1654POPC   D2A23572  36.877  13.647   8.264
 1654POPC   C3A23573  36.867  13.599   7.964
 1654POPC   C4A23574  36.924  13.623   7.664
 1654POPC   C1B23575  36.935  13.381   8.564
 1654POPC   C2B23576  36.872  13.365   8.264
 1654POPC   C3B23577  36.837  13.350   7.964
 1654POPC   C4B23578  36.874  13.369   7.664
 1655POPC   NC323579  13.593  43.891   9.464
 1655POPC   PO423580  13.592  43.842   9.164
 1655POPC   GL123581  13.587  43.930   8.864
 1655POPC   GL223582  13.773  43.858   8.864
 1655POPC   C1A23583  13.646  43.905   8.564
 1655POPC   D2A23584  13.642  43.854   8.264
 1655POPC   C3A23585  13.595  43.838   7.964
 1655POPC   C4A23586  13.620  43.876   7.664
 1655POPC   C1B23587  13.821  43.833   8.564
 1655POPC   C2B23588  13.825  43.860   8.264
 1655POPC   C3B23589  13.875  43.844   7.964
 1655POPC   C4B23590  13.894  43.783   7.664
 1656POPC   NC323591  32.212  40.789   9.464
 1656POPC   PO423592  32.233  40.756   9.164
 1656POPC   GL123593  32.265  40.826   8.864
 1656POPC   GL223594  32.216  40.939   8.864
 1656POPC   C1A23595  32.231  40.773   8.564
 1656POPC   D2A23596  32.289  40.734   8.264
 1656POPC   C3A23597  32.247  40.793   7.964
 1656POPC   C4A23598  32.280  40.743   7.664
 1656POPC   C1B23599  32.188  41.047   8.564
 1656POPC   C2B23600  32.185  41.051   8.264
 1656POPC   C3B23601  32.188  41.003   7.964
 1656POPC   C4B23602  32.194  41.034   7.664
 1657POPC   NC323603  21.402  43.108   9.464
 1657POPC   PO423604  21.359  43.074   9.164
 1657POPC   GL123605  21.360  43.106   8.864
 1657POPC   GL223606  21.479  43.180   8.864
 1657POPC   C1A23607  21.419  43.092   8.564
 1657POPC   D2A23608  21.402  43.087   8.264
 1657POPC   C3A23609  21.337  43.117   7.964
 1657POPC   C4A23610  21.394  43.094   7.664
 1657POPC   C1B23611  21.459  43.295   8.564
 1657POPC   C2B23612  21.492  43.333   8.264
 1657POPC   C3B23613  21.453  43.335   7.964
 1657POPC   C4B23614  21.496  43.302   7.664
 1658POPC   NC323615  44.711  21.409   9.464
 1658POPC   PO423616  44.667  21.433   9.164
 1658POPC   GL123617  44.691  21.399   8.864
 1658POPC   GL223618  44.620  21.219   8.864
 1658POPC   C1A23619  44.624  21.393   8.564
 1658POPC   D2A23620  44.696  21.395   8.264
 1658POPC   C3A23621  44.645  21.353   7.964
 1658POPC   C4A23622  44.646  21.430   7.664
 1658POPC   C1B23623  44.649  21.160   8.564
 1658POPC   C2B23624  44.601  21.107   8.264
 1658POPC   C3B23625  44.666  21.110   7.964
 1658POPC   C4B23626  44.683  21.105   7.664
 1659POPC   NC323627  26.071  26.023   9.464
 1659POPC   PO423628  25.995  26.012   9.164
 1659POPC   GL123629  26.070  26.019   8.864
 1659POPC   GL223630  26.040  25.926   8.864
 1659POPC   C1A23631  26.045  26.014   8.564
 1659POPC   D2A23632  26.063  26.049   8.264
 1659POPC   C3A23633  26.034  26.054   7.964
 1659POPC   C4A23634  26.039  25.993   7.664
 1659POPC   C1B23635  26.087  25.786   8.564
 1659POPC   C2B23636  26.035  25.789   8.264
 1659POPC   C3B23637  26.096  25.831   7.964
 1659POPC   C4B23638  26.032  25.770   7.664
 1660POPC   NC323639  20.622  26.036   9.464
 1660POPC   PO423640  20.660  26.003   9.164
 1660POPC   GL123641  20.602  26.069   8.864
 1660POPC   GL223642  20.670  26.141   8.864
 1660POPC   C1A23643  20.561  26.027   8.564
 1660POPC   D2A23644  20.603  26.057   8.264
 1660POPC   C3A23645  20.565  26.080   7.964
 1660POPC   C4A23646  20.630  26.090   7.664
 1660POPC   C1B23647  20.672  26.229   8.564
 1660POPC   C2B23648  20.677  26.300   8.264
 1660POPC   C3B23649  20.645  26.291   7.964
 1660POPC   C4B23650  20.714  26.295   7.664
 1661POPC   NC323651  13.581  44.627   9.464
 1661POPC   PO423652  13.670  44.662   9.164
 1661POPC   GL123653  13.643  44.681   8.864
 1661POPC   GL223654  13.742  44.616   8.864
 1661POPC   C1A23655  13.612  44.652   8.564
 1661POPC   D2A23656  13.624  44.675   8.264
 1661POPC   C3A23657  13.603  44.660   7.964
 1661POPC   C4A23658  13.651  44.626   7.664
 1661POPC   C1B23659  13.818  44.446   8.564
 1661POPC   C2B23660  13.768  44.483   8.264
 1661POPC   C3B23661  13.792  44.448   7.964
 1661POPC   C4B23662  13.834  44.514   7.664
 1662POPC   NC323663  38.494   1.193   9.464
 1662POPC   PO423664  38.461   1.239   9.164
 1662POPC   GL123665  38.435   1.221   8.864
 1662POPC   GL223666  38.364   1.055   8.864
 1662POPC   C1A23667  38.422   1.238   8.564
 1662POPC   D2A23668  38.503   1.248   8.264
 1662POPC   C3A23669  38.473   1.247   7.964
 1662POPC   C4A23670  38.491   1.206   7.664
 1662POPC   C1B23671  38.380   1.007   8.564
 1662POPC   C2B23672  38.318   0.954   8.264
 1662POPC   C3B23673  38.382   0.936   7.964
 1662POPC   C4B23674  38.317   1.012   7.664
 1663POPC   NC323675  39.201  19.050   9.464
 1663POPC   PO423676  39.202  19.081   9.164
 1663POPC   GL123677  39.263  19.090   8.864
 1663POPC   GL223678  39.340  18.987   8.864
 1663POPC   C1A23679  39.217  19.099   8.564
 1663POPC   D2A23680  39.273  19.091   8.264
 1663POPC   C3A23681  39.185  19.057   7.964
 1663POPC   C4A23682  39.190  19.024   7.664
 1663POPC   C1B23683  39.463  18.987   8.564
 1663POPC   C2B23684  39.431  19.001   8.264
 1663POPC   C3B23685  39.479  18.958   7.964
 1663POPC   C4B23686  39.433  19.019   7.664
 1664POPC   NC323687   5.045  34.530   9.464
 1664POPC   PO423688   5.115  34.597   9.164
 1664POPC   GL123689   5.044  34.602   8.864
 1664POPC   GL223690   5.053  34.480   8.864
 1664POPC   C1A23691   5.068  34.622   8.564
 1664POPC   D2A23692   5.127  34.613   8.264
 1664POPC   C3A23693   5.075  34.599   7.964
 1664POPC   C4A23694   5.122  34.576   7.664
 1664POPC   C1B23695   5.088  34.288   8.564
 1664POPC   C2B23696   5.045  34.313   8.264
 1664POPC   C3B23697   5.048  34.362   7.964
 1664POPC   C4B23698   5.012  34.374   7.664
 1665POPC   NC323699  16.753  19.034   9.464
 1665POPC   PO423700  16.775  19.063   9.164
 1665POPC   GL123701  16.729  19.059   8.864
 1665POPC   GL223702  16.698  19.174   8.864
 1665POPC   C1A23703  16.741  19.038   8.564
 1665POPC   D2A23704  16.719  19.106   8.264
 1665POPC   C3A23705  16.757  19.019   7.964
 1665POPC   C4A23706  16.729  19.090   7.664
 1665POPC   C1B23707  16.577  19.290   8.564
 1665POPC   C2B23708  16.605  19.246   8.264
 1665POPC   C3B23709  16.589  19.264   7.964
 1665POPC   C4B23710  16.560  19.269   7.664
 1666POPC   NC323711  37.672  34.621   9.464
 1666POPC   PO423712  37.682  34.570   9.164
 1666POPC   GL123713  37.654  34.537   8.864
 1666POPC   GL223714  37.590  34.589   8.864
 1666POPC   C1A23715  37.729  34.527   8.564
 1666POPC   D2A23716  37.702  34.601   8.264
 1666POPC   C3A23717  37.720  34.573   7.964
 1666POPC   C4A23718  37.680  34.555   7.664
 1666POPC   C1B23719  37.382  34.553   8.564
 1666POPC   C2B23720  37.428  34.510   8.264
 1666POPC   C3B23721  37.391  34.513   7.964
 1666POPC   C4B23722  37.481  34.510   7.664
 1667POPC   NC323723  43.081   3.558   9.464
 1667POPC   PO423724  43.158   3.572   9.164
 1667POPC   GL123725  43.082   3.531   8.864
 1667POPC   GL223726  43.127   3.428   8.864
 1667POPC   C1A23727  43.124   3.575   8.564
 1667POPC   D2A23728  43.084   3.589   8.264
 1667POPC   C3A23729  43.120   3.564   7.964
 1667POPC   C4A23730  43.106   3.508   7.664
 1667POPC   C1B23731  43.039   3.320   8.564
 1667POPC   C2B23732  43.092   3.260   8.264
 1667POPC   C3B23733  43.060   3.292   7.964
 1667POPC   C4B23734  43.079   3.263   7.664
 1668POPC   NC323735  26.840  12.859   9.464
 1668POPC   PO423736  26.785  12.861   9.164
 1668POPC   GL123737  26.859  12.879   8.864
 1668POPC   GL223738  26.715  12.741   8.864
 1668POPC   C1A23739  26.781  12.840   8.564
 1668POPC   D2A23740  26.844  12.883   8.264
 1668POPC   C3A23741  26.794  12.831   7.964
 1668POPC   C4A23742  26.827  12.876   7.664
 1668POPC   C1B23743  26.619  12.747   8.564
 1668POPC   C2B23744  26.612  12.694   8.264
 1668POPC   C3B23745  26.595  12.772   7.964
 1668POPC   C4B23746  26.559  12.738   7.664
 1669POPC   NC323747  34.534  12.067   9.464
 1669POPC   PO423748  34.538  12.039   9.164
 1669POPC   GL123749  34.547  12.045   8.864
 1669POPC   GL223750  34.560  12.000   8.864
 1669POPC   C1A23751  34.620  12.066   8.564
 1669POPC   D2A23752  34.564  12.066   8.264
 1669POPC   C3A23753  34.537  12.044   7.964
 1669POPC   C4A23754  34.566  12.051   7.664
 1669POPC   C1B23755  34.600  11.861   8.564
 1669POPC   C2B23756  34.576  11.786   8.264
 1669POPC   C3B23757  34.609  11.821   7.964
 1669POPC   C4B23758  34.634  11.867   7.664
 1670POPC   NC323759  42.320  41.535   9.464
 1670POPC   PO423760  42.382  41.521   9.164
 1670POPC   GL123761  42.286  41.517   8.864
 1670POPC   GL223762  42.278  41.498   8.864
 1670POPC   C1A23763  42.324  41.557   8.564
 1670POPC   D2A23764  42.332  41.556   8.264
 1670POPC   C3A23765  42.305  41.573   7.964
 1670POPC   C4A23766  42.352  41.512   7.664
 1670POPC   C1B23767  42.124  41.413   8.564
 1670POPC   C2B23768  42.196  41.352   8.264
 1670POPC   C3B23769  42.142  41.415   7.964
 1670POPC   C4B23770  42.151  41.403   7.664
 1671POPC   NC323771   9.707  22.905   9.464
 1671POPC   PO423772   9.705  22.932   9.164
 1671POPC   GL123773   9.742  22.926   8.864
 1671POPC   GL223774   9.657  22.880   8.864
 1671POPC   C1A23775   9.798  22.966   8.564
 1671POPC   D2A23776   9.730  22.897   8.264
 1671POPC   C3A23777   9.782  22.935   7.964
 1671POPC   C4A23778   9.735  22.967   7.664
 1671POPC   C1B23779   9.488  22.886   8.564
 1671POPC   C2B23780   9.548  22.863   8.264
 1671POPC   C3B23781   9.481  22.799   7.964
 1671POPC   C4B23782   9.480  22.876   7.664
 1672POPC   NC323783  27.580   4.285   9.464
 1672POPC   PO423784  27.561   4.300   9.164
 1672POPC   GL123785  27.639   4.362   8.864
 1672POPC   GL223786  27.463   4.285   8.864
 1672POPC   C1A23787  27.620   4.344   8.564
 1672POPC   D2A23788  27.588   4.308   8.264
 1672POPC   C3A23789  27.554   4.328   7.964
 1672POPC   C4A23790  27.558   4.343   7.664
 1672POPC   C1B23791  27.370   4.185   8.564
 1672POPC   C2B23792  27.367   4.122   8.264
 1672POPC   C3B23793  27.356   4.132   7.964
 1672POPC   C4B23794  27.395   4.121   7.664
 1673POPC   NC323795  12.851   5.873   9.464
 1673POPC   PO423796  12.877   5.829   9.164
 1673POPC   GL123797  12.858   5.893   8.864
 1673POPC   GL223798  12.832   5.778   8.864
 1673POPC   C1A23799  12.892   5.915   8.564
 1673POPC   D2A23800  12.892   5.877   8.264
 1673POPC   C3A23801  12.877   5.857   7.964
 1673POPC   C4A23802  12.843   5.834   7.664
 1673POPC   C1B23803  12.798   5.661   8.564
 1673POPC   C2B23804  12.831   5.619   8.264
 1673POPC   C3B23805  12.820   5.580   7.964
 1673POPC   C4B23806  12.815   5.637   7.664
 1674POPC   NC323807  39.261  22.937   9.464
 1674POPC   PO423808  39.188  22.961   9.164
 1674POPC   GL123809  39.198  22.911   8.864
 1674POPC   GL223810  39.311  22.890   8.864
 1674POPC   C1A23811  39.237  22.905   8.564
 1674POPC   D2A23812  39.222  22.928   8.264
 1674POPC   C3A23813  39.240  22.947   7.964
 1674POPC   C4A23814  39.204  22.977   7.664
 1674POPC   C1B23815  39.471  22.771   8.564
 1674POPC   C2B23816  39.478  22.781   8.264
 1674POPC   C3B23817  39.417  22.791   7.964
 1674POPC   C4B23818  39.445  22.775   7.664
 1675POPC   NC323819  15.995   3.580   9.464
 1675POPC   PO423820  15.919   3.539   9.164
 1675POPC   GL123821  15.995   3.512   8.864
 1675POPC   GL223822  15.974   3.662   8.864
 1675POPC   C1A23823  16.005   3.499   8.564
 1675POPC   D2A23824  15.947   3.530   8.264
 1675POPC   C3A23825  15.975   3.509   7.964
 1675POPC   C4A23826  16.002   3.492   7.664
 1675POPC   C1B23827  15.980   3.803   8.564
 1675POPC   C2B23828  15.899   3.823   8.264
 1675POPC   C3B23829  15.924   3.754   7.964
 1675POPC   C4B23830  15.933   3.776   7.664
 1676POPC   NC323831  44.659  42.305   9.464
 1676POPC   PO423832  44.615  42.303   9.164
 1676POPC   GL123833  44.708  42.356   8.864
 1676POPC   GL223834  44.736  42.193   8.864
 1676POPC   C1A23835  44.654  42.347   8.564
 1676POPC   D2A23836  44.664  42.339   8.264
 1676POPC   C3A23837  44.617  42.287   7.964
 1676POPC   C4A23838  44.702  42.355   7.664
 1676POPC   C1B23839  44.706  42.084   8.564
 1676POPC   C2B23840  44.750  42.091   8.264
 1676POPC   C3B23841  44.716  42.115   7.964
 1676POPC   C4B23842  44.773  42.071   7.664
 1677POPC   NC323843  16.740  17.515   9.464
 1677POPC   PO423844  16.748  17.495   9.164
 1677POPC   GL123845  16.753  17.469   8.864
 1677POPC   GL223846  16.717  17.364   8.864
 1677POPC   C1A23847  16.747  17.551   8.564
 1677POPC   D2A23848  16.732  17.524   8.264
 1677POPC   C3A23849  16.766  17.542   7.964
 1677POPC   C4A23850  16.752  17.531   7.664
 1677POPC   C1B23851  16.603  17.259   8.564
 1677POPC   C2B23852  16.609  17.267   8.264
 1677POPC   C3B23853  16.665  17.278   7.964
 1677POPC   C4B23854  16.662  17.253   7.664
 1678POPC   NC323855  16.693   3.532   9.464
 1678POPC   PO423856  16.750   3.516   9.164
 1678POPC   GL123857  16.729   3.514   8.864
 1678POPC   GL223858  16.850   3.505   8.864
 1678POPC   C1A23859  16.776   3.501   8.564
 1678POPC   D2A23860  16.732   3.544   8.264
 1678POPC   C3A23861  16.719   3.547   7.964
 1678POPC   C4A23862  16.704   3.521   7.664
 1678POPC   C1B23863  16.984   3.432   8.564
 1678POPC   C2B23864  16.906   3.418   8.264
 1678POPC   C3B23865  16.934   3.425   7.964
 1678POPC   C4B23866  16.972   3.436   7.664
 1679POPC   NC323867   2.717   7.413   9.464
 1679POPC   PO423868   2.773   7.422   9.164
 1679POPC   GL123869   2.758   7.373   8.864
 1679POPC   GL223870   2.888   7.393   8.864
 1679POPC   C1A23871   2.800   7.375   8.564
 1679POPC   D2A23872   2.797   7.446   8.264
 1679POPC   C3A23873   2.760   7.412   7.964
 1679POPC   C4A23874   2.773   7.397   7.664
 1679POPC   C1B23875   3.024   7.292   8.564
 1679POPC   C2B23876   2.949   7.288   8.264
 1679POPC   C3B23877   3.005   7.333   7.964
 1679POPC   C4B23878   2.984   7.311   7.664
 1680POPC   NC323879  15.193   5.895   9.464
 1680POPC   PO423880  15.200   5.830   9.164
 1680POPC   GL123881  15.144   5.913   8.864
 1680POPC   GL223882  15.083   5.802   8.864
 1680POPC   C1A23883  15.192   5.906   8.564
 1680POPC   D2A23884  15.129   5.870   8.264
 1680POPC   C3A23885  15.168   5.871   7.964
 1680POPC   C4A23886  15.173   5.897   7.664
 1680POPC   C1B23887  14.907   5.829   8.564
 1680POPC   C2B23888  14.923   5.807   8.264
 1680POPC   C3B23889  14.964   5.785   7.964
 1680POPC   C4B23890  14.991   5.753   7.664
 1681POPC   NC323891   8.224  12.105   9.464
 1681POPC   PO423892   8.147  12.104   9.164
 1681POPC   GL123893   8.174  12.082   8.864
 1681POPC   GL223894   8.365  12.070   8.864
 1681POPC   C1A23895   8.241  12.125   8.564
 1681POPC   D2A23896   8.183  12.103   8.264
 1681POPC   C3A23897   8.225  12.080   7.964
 1681POPC   C4A23898   8.149  12.046   7.664
 1681POPC   C1B23899   8.414  12.067   8.564
 1681POPC   C2B23900   8.441  12.043   8.264
 1681POPC   C3B23901   8.431  12.023   7.964
 1681POPC   C4B23902   8.447  12.029   7.664
 1682POPC   NC323903   7.449   5.892   9.464
 1682POPC   PO423904   7.469   5.824   9.164
 1682POPC   GL123905   7.419   5.894   8.864
 1682POPC   GL223906   7.452   5.767   8.864
 1682POPC   C1A23907   7.383   5.858   8.564
 1682POPC   D2A23908   7.439   5.865   8.264
 1682POPC   C3A23909   7.441   5.834   7.964
 1682POPC   C4A23910   7.418   5.885   7.664
 1682POPC   C1B23911   7.476   5.679   8.564
 1682POPC   C2B23912   7.530   5.663   8.264
 1682POPC   C3B23913   7.507   5.653   7.964
 1682POPC   C4B23914   7.491   5.681   7.664
 1683POPC   NC323915   7.383  15.190   9.464
 1683POPC   PO423916   7.402  15.176   9.164
 1683POPC   GL123917   7.440  15.181   8.864
 1683POPC   GL223918   7.506  15.250   8.864
 1683POPC   C1A23919   7.401  15.187   8.564
 1683POPC   D2A23920   7.446  15.156   8.264
 1683POPC   C3A23921   7.404  15.135   7.964
 1683POPC   C4A23922   7.405  15.225   7.664
 1683POPC   C1B23923   7.645  15.267   8.564
 1683POPC   C2B23924   7.688  15.254   8.264
 1683POPC   C3B23925   7.633  15.207   7.964
 1683POPC   C4B23926   7.679  15.288   7.664
 1684POPC   NC323927  25.274  27.615   9.464
 1684POPC   PO423928  25.246  27.636   9.164
 1684POPC   GL123929  25.272  27.563   8.864
 1684POPC   GL223930  25.342  27.561   8.864
 1684POPC   C1A23931  25.267  27.578   8.564
 1684POPC   D2A23932  25.300  27.549   8.264
 1684POPC   C3A23933  25.240  27.606   7.964
 1684POPC   C4A23934  25.277  27.613   7.664
 1684POPC   C1B23935  25.529  27.585   8.564
 1684POPC   C2B23936  25.554  27.567   8.264
 1684POPC   C3B23937  25.480  27.602   7.964
 1684POPC   C4B23938  25.476  27.591   7.664
 1685POPC   NC323939  19.016  32.273   9.464
 1685POPC   PO423940  19.021  32.252   9.164
 1685POPC   GL123941  19.071  32.198   8.864
 1685POPC   GL223942  19.150  32.177   8.864
 1685POPC   C1A23943  19.025  32.287   8.564
 1685POPC   D2A23944  19.089  32.240   8.264
 1685POPC   C3A23945  19.078  32.250   7.964
 1685POPC   C4A23946  19.027  32.238   7.664
 1685POPC   C1B23947  19.273  32.142   8.564
 1685POPC   C2B23948  19.316  32.154   8.264
 1685POPC   C3B23949  19.254  32.146   7.964
 1685POPC   C4B23950  19.291  32.115   7.664
 1686POPC   NC323951  41.546  42.365   9.464
 1686POPC   PO423952  41.580  42.306   9.164
 1686POPC   GL123953  41.563  42.338   8.864
 1686POPC   GL223954  41.413  42.358   8.864
 1686POPC   C1A23955  41.526  42.369   8.564
 1686POPC   D2A23956  41.549  42.328   8.264
 1686POPC   C3A23957  41.591  42.364   7.964
 1686POPC   C4A23958  41.608  42.369   7.664
 1686POPC   C1B23959  41.362  42.468   8.564
 1686POPC   C2B23960  41.348  42.442   8.264
 1686POPC   C3B23961  41.315  42.508   7.964
 1686POPC   C4B23962  41.372  42.484   7.664
 1687POPC   NC323963  40.035  36.895   9.464
 1687POPC   PO423964  39.991  36.945   9.164
 1687POPC   GL123965  39.970  36.945   8.864
 1687POPC   GL223966  39.882  36.850   8.864
 1687POPC   C1A23967  39.980  36.910   8.564
 1687POPC   D2A23968  40.007  36.940   8.264
 1687POPC   C3A23969  39.966  36.917   7.964
 1687POPC   C4A23970  40.053  36.895   7.664
 1687POPC   C1B23971  39.844  36.772   8.564
 1687POPC   C2B23972  39.836  36.748   8.264
 1687POPC   C3B23973  39.780  36.788   7.964
 1687POPC   C4B23974  39.787  36.715   7.664
 1688POPC   NC323975  19.107  39.191   9.464
 1688POPC   PO423976  19.095  39.212   9.164
 1688POPC   GL123977  19.036  39.200   8.864
 1688POPC   GL223978  19.039  39.385   8.864
 1688POPC   C1A23979  19.050  39.202   8.564
 1688POPC   D2A23980  19.097  39.197   8.264
 1688POPC   C3A23981  19.096  39.262   7.964
 1688POPC   C4A23982  19.075  39.214   7.664
 1688POPC   C1B23983  19.129  39.521   8.564
 1688POPC   C2B23984  19.125  39.492   8.264
 1688POPC   C3B23985  19.051  39.468   7.964
 1688POPC   C4B23986  19.143  39.486   7.664
 1689POPC   NC323987   5.063  40.749   9.464
 1689POPC   PO423988   5.064  40.792   9.164
 1689POPC   GL123989   5.134  40.758   8.864
 1689POPC   GL223990   5.196  40.716   8.864
 1689POPC   C1A23991   5.047  40.759   8.564
 1689POPC   D2A23992   5.074  40.769   8.264
 1689POPC   C3A23993   5.056  40.742   7.964
 1689POPC   C4A23994   5.079  40.760   7.664
 1689POPC   C1B23995   5.286  40.705   8.564
 1689POPC   C2B23996   5.298  40.687   8.264
 1689POPC   C3B23997   5.356  40.623   7.964
 1689POPC   C4B23998   5.276  40.625   7.664
 1690POPC   NC323999  36.171  38.413   9.464
 1690POPC   PO424000  36.106  38.452   9.164
 1690POPC   GL124001  36.150  38.437   8.864
 1690POPC   GL224002  36.033  38.478   8.864
 1690POPC   C1A24003  36.125  38.491   8.564
 1690POPC   D2A24004  36.093  38.418   8.264
 1690POPC   C3A24005  36.095  38.436   7.964
 1690POPC   C4A24006  36.120  38.454   7.664
 1690POPC   C1B24007  35.888  38.586   8.564
 1690POPC   C2B24008  35.928  38.572   8.264
 1690POPC   C3B24009  35.874  38.579   7.964
 1690POPC   C4B24010  35.902  38.553   7.664
 1691POPC   NC324011  17.494  11.306   9.464
 1691POPC   PO424012  17.485  11.321   9.164
 1691POPC   GL124013  17.518  11.349   8.864
 1691POPC   GL224014  17.622  11.304   8.864
 1691POPC   C1A24015  17.541  11.260   8.564
 1691POPC   D2A24016  17.506  11.297   8.264
 1691POPC   C3A24017  17.550  11.299   7.964
 1691POPC   C4A24018  17.521  11.290   7.664
 1691POPC   C1B24019  17.739  11.371   8.564
 1691POPC   C2B24020  17.768  11.374   8.264
 1691POPC   C3B24021  17.788  11.381   7.964
 1691POPC   C4B24022  17.793  11.372   7.664
 1692POPC   NC324023  36.156  18.273   9.464
 1692POPC   PO424024  36.159  18.312   9.164
 1692POPC   GL124025  36.108  18.251   8.864
 1692POPC   GL224026  36.265  18.221   8.864
 1692POPC   C1A24027  36.175  18.260   8.564
 1692POPC   D2A24028  36.097  18.268   8.264
 1692POPC   C3A24029  36.093  18.324   7.964
 1692POPC   C4A24030  36.161  18.315   7.664
 1692POPC   C1B24031  36.314  18.111   8.564
 1692POPC   C2B24032  36.322  18.108   8.264
 1692POPC   C3B24033  36.319  18.112   7.964
 1692POPC   C4B24034  36.385  18.121   7.664
 1693POPC   NC324035   2.021  21.347   9.464
 1693POPC   PO424036   2.000  21.345   9.164
 1693POPC   GL124037   1.970  21.374   8.864
 1693POPC   GL224038   1.957  21.303   8.864
 1693POPC   C1A24039   2.008  21.351   8.564
 1693POPC   D2A24040   2.011  21.336   8.264
 1693POPC   C3A24041   1.942  21.355   7.964
 1693POPC   C4A24042   2.034  21.406   7.664
 1693POPC   C1B24043   1.866  21.163   8.564
 1693POPC   C2B24044   1.936  21.169   8.264
 1693POPC   C3B24045   1.906  21.163   7.964
 1693POPC   C4B24046   1.921  21.140   7.664
 1694POPC   NC324047  32.281   3.496   9.464
 1694POPC   PO424048  32.231   3.573   9.164
 1694POPC   GL124049  32.257   3.494   8.864
 1694POPC   GL224050  32.381   3.606   8.864
 1694POPC   C1A24051  32.262   3.522   8.564
 1694POPC   D2A24052  32.227   3.529   8.264
 1694POPC   C3A24053  32.203   3.583   7.964
 1694POPC   C4A24054  32.225   3.549   7.664
 1694POPC   C1B24055  32.435   3.713   8.564
 1694POPC   C2B24056  32.445   3.730   8.264
 1694POPC   C3B24057  32.438   3.747   7.964
 1694POPC   C4B24058  32.433   3.695   7.664
 1695POPC   NC324059  28.402  43.067   9.464
 1695POPC   PO424060  28.356  43.107   9.164
 1695POPC   GL124061  28.349  43.151   8.864
 1695POPC   GL224062  28.485  43.153   8.864
 1695POPC   C1A24063  28.377  43.127   8.564
 1695POPC   D2A24064  28.386  43.129   8.264
 1695POPC   C3A24065  28.357  43.097   7.964
 1695POPC   C4A24066  28.338  43.158   7.664
 1695POPC   C1B24067  28.529  43.257   8.564
 1695POPC   C2B24068  28.570  43.312   8.264
 1695POPC   C3B24069  28.578  43.299   7.964
 1695POPC   C4B24070  28.519  43.234   7.664
 1696POPC   NC324071  18.243  23.670   9.464
 1696POPC   PO424072  18.319  23.705   9.164
 1696POPC   GL124073  18.284  23.739   8.864
 1696POPC   GL224074  18.342  23.572   8.864
 1696POPC   C1A24075  18.303  23.688   8.564
 1696POPC   D2A24076  18.250  23.756   8.264
 1696POPC   C3A24077  18.291  23.730   7.964
 1696POPC   C4A24078  18.285  23.714   7.664
 1696POPC   C1B24079  18.405  23.459   8.564
 1696POPC   C2B24080  18.316  23.519   8.264
 1696POPC   C3B24081  18.322  23.517   7.964
 1696POPC   C4B24082  18.341  23.486   7.664
 1697POPC   NC324083   5.870  33.830   9.464
 1697POPC   PO424084   5.909  33.777   9.164
 1697POPC   GL124085   5.908  33.830   8.864
 1697POPC   GL224086   5.743  33.938   8.864
 1697POPC   C1A24087   5.824  33.767   8.564
 1697POPC   D2A24088   5.877  33.758   8.264
 1697POPC   C3A24089   5.851  33.811   7.964
 1697POPC   C4A24090   5.912  33.792   7.664
 1697POPC   C1B24091   5.673  34.043   8.564
 1697POPC   C2B24092   5.666  34.023   8.264
 1697POPC   C3B24093   5.725  34.000   7.964
 1697POPC   C4B24094   5.737  33.972   7.664
 1698POPC   NC324095  22.936   2.772   9.464
 1698POPC   PO424096  22.915   2.743   9.164
 1698POPC   GL124097  22.984   2.808   8.864
 1698POPC   GL224098  23.077   2.802   8.864
 1698POPC   C1A24099  22.916   2.755   8.564
 1698POPC   D2A24100  22.894   2.720   8.264
 1698POPC   C3A24101  22.984   2.764   7.964
 1698POPC   C4A24102  22.944   2.774   7.664
 1698POPC   C1B24103  23.085   2.973   8.564
 1698POPC   C2B24104  23.087   2.937   8.264
 1698POPC   C3B24105  23.095   2.890   7.964
 1698POPC   C4B24106  23.110   2.975   7.664
 1699POPC   NC324107  39.966  16.002   9.464
 1699POPC   PO424108  40.019  15.911   9.164
 1699POPC   GL124109  40.046  15.923   8.864
 1699POPC   GL224110  40.058  15.865   8.864
 1699POPC   C1A24111  40.011  15.916   8.564
 1699POPC   D2A24112  39.986  15.977   8.264
 1699POPC   C3A24113  39.979  15.940   7.964
 1699POPC   C4A24114  40.050  16.004   7.664
 1699POPC   C1B24115  40.108  15.699   8.564
 1699POPC   C2B24116  40.134  15.729   8.264
 1699POPC   C3B24117  40.091  15.749   7.964
 1699POPC   C4B24118  40.060  15.725   7.664
 1700POPC   NC324119   0.452   8.938   9.464
 1700POPC   PO424120   0.466   9.017   9.164
 1700POPC   GL124121   0.429   8.983   8.864
 1700POPC   GL224122   0.371   9.106   8.864
 1700POPC   C1A24123   0.483   9.014   8.564
 1700POPC   D2A24124   0.478   9.017   8.264
 1700POPC   C3A24125   0.477   8.929   7.964
 1700POPC   C4A24126   0.400   8.942   7.664
 1700POPC   C1B24127   0.248   9.163   8.564
 1700POPC   C2B24128   0.302   9.125   8.264
 1700POPC   C3B24129   0.289   9.122   7.964
 1700POPC   C4B24130   0.281   9.125   7.664
 1701POPC   NC324131  12.885  19.849   9.464
 1701POPC   PO424132  12.895  19.877   9.164
 1701POPC   GL124133  12.808  19.785   8.864
 1701POPC   GL224134  12.779  19.883   8.864
 1701POPC   C1A24135  12.883  19.845   8.564
 1701POPC   D2A24136  12.866  19.829   8.264
 1701POPC   C3A24137  12.878  19.807   7.964
 1701POPC   C4A24138  12.891  19.852   7.664
 1701POPC   C1B24139  12.657  19.990   8.564
 1701POPC   C2B24140  12.689  19.995   8.264
 1701POPC   C3B24141  12.659  20.045   7.964
 1701POPC   C4B24142  12.646  20.046   7.664
 1702POPC   NC324143  29.943  34.591   9.464
 1702POPC   PO424144  29.906  34.573   9.164
 1702POPC   GL124145  29.949  34.625   8.864
 1702POPC   GL224146  29.984  34.476   8.864
 1702POPC   C1A24147  29.888  34.580   8.564
 1702POPC   D2A24148  29.914  34.613   8.264
 1702POPC   C3A24149  29.885  34.584   7.964
 1702POPC   C4A24150  29.886  34.596   7.664
 1702POPC   C1B24151  30.073  34.405   8.564
 1702POPC   C2B24152  30.069  34.389   8.264
 1702POPC   C3B24153  30.139  34.357   7.964
 1702POPC   C4B24154  30.121  34.439   7.664
 1703POPC   NC324155  40.821  41.535   9.464
 1703POPC   PO424156  40.763  41.535   9.164
 1703POPC   GL124157  40.819  41.522   8.864
 1703POPC   GL224158  40.828  41.679   8.864
 1703POPC   C1A24159  40.768  41.559   8.564
 1703POPC   D2A24160  40.787  41.513   8.264
 1703POPC   C3A24161  40.810  41.603   7.964
 1703POPC   C4A24162  40.812  41.585   7.664
 1703POPC   C1B24163  40.956  41.771   8.564
 1703POPC   C2B24164  40.988  41.755   8.264
 1703POPC   C3B24165  40.999  41.721   7.964
 1703POPC   C4B24166  40.985  41.686   7.664
 1704POPC   NC324167  17.497  29.926   9.464
 1704POPC   PO424168  17.499  29.879   9.164
 1704POPC   GL124169  17.516  29.930   8.864
 1704POPC   GL224170  17.612  29.823   8.864
 1704POPC   C1A24171  17.516  29.953   8.564
 1704POPC   D2A24172  17.550  29.958   8.264
 1704POPC   C3A24173  17.537  29.895   7.964
 1704POPC   C4A24174  17.480  29.902   7.664
 1704POPC   C1B24175  17.589  29.737   8.564
 1704POPC   C2B24176  17.680  29.710   8.264
 1704POPC   C3B24177  17.688  29.729   7.964
 1704POPC   C4B24178  17.678  29.669   7.664
 1705POPC   NC324179  21.407  19.840   9.464
 1705POPC   PO424180  21.409  19.787   9.164
 1705POPC   GL124181  21.348  19.794   8.864
 1705POPC   GL224182  21.484  19.888   8.864
 1705POPC   C1A24183  21.392  19.852   8.564
 1705POPC   D2A24184  21.388  19.859   8.264
 1705POPC   C3A24185  21.427  19.870   7.964
 1705POPC   C4A24186  21.354  19.804   7.664
 1705POPC   C1B24187  21.672  19.849   8.564
 1705POPC   C2B24188  21.601  19.842   8.264
 1705POPC   C3B24189  21.654  19.830   7.964
 1705POPC   C4B24190  21.595  19.912   7.664
 1706POPC   NC324191  36.112  35.394   9.464
 1706POPC   PO424192  36.132  35.393   9.164
 1706POPC   GL124193  36.151  35.338   8.864
 1706POPC   GL224194  36.298  35.345   8.864
 1706POPC   C1A24195  36.166  35.368   8.564
 1706POPC   D2A24196  36.095  35.320   8.264
 1706POPC   C3A24197  36.093  35.368   7.964
 1706POPC   C4A24198  36.139  35.372   7.664
 1706POPC   C1B24199  36.384  35.316   8.564
 1706POPC   C2B24200  36.398  35.241   8.264
 1706POPC   C3B24201  36.357  35.312   7.964
 1706POPC   C4B24202  36.415  35.273   7.664
 1707POPC   NC324203  29.883   0.418   9.464
 1707POPC   PO424204  29.950   0.403   9.164
 1707POPC   GL124205  29.944   0.408   8.864
 1707POPC   GL224206  29.884   0.339   8.864
 1707POPC   C1A24207  29.945   0.457   8.564
 1707POPC   D2A24208  29.898   0.396   8.264
 1707POPC   C3A24209  29.968   0.454   7.964
 1707POPC   C4A24210  29.886   0.470   7.664
 1707POPC   C1B24211  29.923   0.230   8.564
 1707POPC   C2B24212  29.841   0.172   8.264
 1707POPC   C3B24213  29.900   0.195   7.964
 1707POPC   C4B24214  29.856   0.195   7.664
 1708POPC   NC324215   8.952  12.047   9.464
 1708POPC   PO424216   8.983  12.061   9.164
 1708POPC   GL124217   8.963  12.041   8.864
 1708POPC   GL224218   9.018  12.241   8.864
 1708POPC   C1A24219   9.020  12.121   8.564
 1708POPC   D2A24220   9.014  12.033   8.264
 1708POPC   C3A24221   8.961  12.084   7.964
 1708POPC   C4A24222   8.928  12.106   7.664
 1708POPC   C1B24223   8.995  12.292   8.564
 1708POPC   C2B24224   8.950  12.340   8.264
 1708POPC   C3B24225   8.924  12.277   7.964
 1708POPC   C4B24226   8.963  12.311   7.664
 1709POPC   NC324227  35.364  39.275   9.464
 1709POPC   PO424228  35.304  39.232   9.164
 1709POPC   GL124229  35.344  39.255   8.864
 1709POPC   GL224230  35.486  39.146   8.864
 1709POPC   C1A24231  35.382  39.260   8.564
 1709POPC   D2A24232  35.388  39.206   8.264
 1709POPC   C3A24233  35.308  39.249   7.964
 1709POPC   C4A24234  35.308  39.272   7.664
 1709POPC   C1B24235  35.563  39.139   8.564
 1709POPC   C2B24236  35.537  39.095   8.264
 1709POPC   C3B24237  35.547  39.131   7.964
 1709POPC   C4B24238  35.587  39.058   7.664
 1710POPC   NC324239  36.889  21.353   9.464
 1710POPC   PO424240  36.935  21.374   9.164
 1710POPC   GL124241  36.925  21.375   8.864
 1710POPC   GL224242  36.873  21.270   8.864
 1710POPC   C1A24243  36.942  21.374   8.564
 1710POPC   D2A24244  36.862  21.366   8.264
 1710POPC   C3A24245  36.937  21.397   7.964
 1710POPC   C4A24246  36.885  21.422   7.664
 1710POPC   C1B24247  36.793  21.169   8.564
 1710POPC   C2B24248  36.792  21.148   8.264
 1710POPC   C3B24249  36.779  21.198   7.964
 1710POPC   C4B24250  36.854  21.159   7.664
 1711POPC   NC324251   8.231   6.635   9.464
 1711POPC   PO424252   8.175   6.666   9.164
 1711POPC   GL124253   8.241   6.653   8.864
 1711POPC   GL224254   8.136   6.762   8.864
 1711POPC   C1A24255   8.200   6.639   8.564
 1711POPC   D2A24256   8.182   6.673   8.264
 1711POPC   C3A24257   8.230   6.666   7.964
 1711POPC   C4A24258   8.238   6.679   7.664
 1711POPC   C1B24259   8.010   6.867   8.564
 1711POPC   C2B24260   8.060   6.865   8.264
 1711POPC   C3B24261   7.995   6.845   7.964
 1711POPC   C4B24262   7.995   6.837   7.664
 1712POPC   NC324263  44.694  38.488   9.464
 1712POPC   PO424264  44.626  38.443   9.164
 1712POPC   GL124265  44.657  38.438   8.864
 1712POPC   GL224266  44.737  38.382   8.864
 1712POPC   C1A24267  44.642  38.450   8.564
 1712POPC   D2A24268  44.676  38.492   8.264
 1712POPC   C3A24269  44.644  38.428   7.964
 1712POPC   C4A24270  44.689  38.405   7.664
 1712POPC   C1B24271  44.794  38.242   8.564
 1712POPC   C2B24272  44.752  38.291   8.264
 1712POPC   C3B24273  44.793  38.203   7.964
 1712POPC   C4B24274  44.828  38.228   7.664
 1713POPC   NC324275  41.577  17.486   9.464
 1713POPC   PO424276  41.555  17.507   9.164
 1713POPC   GL124277  41.519  17.546   8.864
 1713POPC   GL224278  41.650  17.477   8.864
 1713POPC   C1A24279  41.515  17.556   8.564
 1713POPC   D2A24280  41.584  17.535   8.264
 1713POPC   C3A24281  41.572  17.468   7.964
 1713POPC   C4A24282  41.527  17.482   7.664
 1713POPC   C1B24283  41.819  17.409   8.564
 1713POPC   C2B24284  41.799  17.479   8.264
 1713POPC   C3B24285  41.770  17.447   7.964
 1713POPC   C4B24286  41.761  17.414   7.664
 1714POPC   NC324287  40.795  44.634   9.464
 1714POPC   PO424288  40.813  44.638   9.164
 1714POPC   GL124289  40.813  44.699   8.864
 1714POPC   GL224290  40.791  44.762   8.864
 1714POPC   C1A24291  40.742  44.649   8.564
 1714POPC   D2A24292  40.772  44.689   8.264
 1714POPC   C3A24293  40.754  44.632   7.964
 1714POPC   C4A24294  40.783  44.626   7.664
 1714POPC   C1B24295  40.772  44.878   8.564
 1714POPC   C2B24296  40.744  44.869   8.264
 1714POPC   C3B24297  40.774  44.950   7.964
 1714POPC   C4B24298  40.772  44.953   7.664
 1715POPC   NC324299   3.550  19.855   9.464
 1715POPC   PO424300   3.532  19.794   9.164
 1715POPC   GL124301   3.558  19.814   8.864
 1715POPC   GL224302   3.557  19.739   8.864
 1715POPC   C1A24303   3.585  19.855   8.564
 1715POPC   D2A24304   3.575  19.873   8.264
 1715POPC   C3A24305   3.509  19.810   7.964
 1715POPC   C4A24306   3.564  19.819   7.664
 1715POPC   C1B24307   3.625  19.640   8.564
 1715POPC   C2B24308   3.618  19.652   8.264
 1715POPC   C3B24309   3.692  19.580   7.964
 1715POPC   C4B24310   3.624  19.648   7.664
 1716POPC   NC324311  16.690  25.216   9.464
 1716POPC   PO424312  16.692  25.221   9.164
 1716POPC   GL124313  16.681  25.281   8.864
 1716POPC   GL224314  16.568  25.240   8.864
 1716POPC   C1A24315  16.745  25.258   8.564
 1716POPC   D2A24316  16.696  25.282   8.264
 1716POPC   C3A24317  16.694  25.257   7.964
 1716POPC   C4A24318  16.698  25.218   7.664
 1716POPC   C1B24319  16.524  25.262   8.564
 1716POPC   C2B24320  16.453  25.324   8.264
 1716POPC   C3B24321  16.471  25.257   7.964
 1716POPC   C4B24322  16.454  25.327   7.664
 1717POPC   NC324323  36.952  27.573   9.464
 1717POPC   PO424324  36.871  27.549   9.164
 1717POPC   GL124325  36.939  27.569   8.864
 1717POPC   GL224326  37.017  27.678   8.864
 1717POPC   C1A24327  36.892  27.579   8.564
 1717POPC   D2A24328  36.903  27.557   8.264
 1717POPC   C3A24329  36.862  27.617   7.964
 1717POPC   C4A24330  36.929  27.634   7.664
 1717POPC   C1B24331  37.132  27.713   8.564
 1717POPC   C2B24332  37.148  27.729   8.264
 1717POPC   C3B24333  37.094  27.721   7.964
 1717POPC   C4B24334  37.096  27.682   7.664
 1718POPC   NC324335  38.435  22.910   9.464
 1718POPC   PO424336  38.417  22.947   9.164
 1718POPC   GL124337  38.489  22.929   8.864
 1718POPC   GL224338  38.489  23.093   8.864
 1718POPC   C1A24339  38.489  22.974   8.564
 1718POPC   D2A24340  38.442  22.919   8.264
 1718POPC   C3A24341  38.428  22.974   7.964
 1718POPC   C4A24342  38.491  22.986   7.664
 1718POPC   C1B24343  38.481  23.160   8.564
 1718POPC   C2B24344  38.445  23.203   8.264
 1718POPC   C3B24345  38.502  23.200   7.964
 1718POPC   C4B24346  38.450  23.142   7.664
 1719POPC   NC324347  26.860  26.792   9.464
 1719POPC   PO424348  26.861  26.821   9.164
 1719POPC   GL124349  26.799  26.807   8.864
 1719POPC   GL224350  26.897  26.720   8.864
 1719POPC   C1A24351  26.799  26.794   8.564
 1719POPC   D2A24352  26.774  26.812   8.264
 1719POPC   C3A24353  26.838  26.799   7.964
 1719POPC   C4A24354  26.779  26.862   7.664
 1719POPC   C1B24355  26.912  26.543   8.564
 1719POPC   C2B24356  26.925  26.603   8.264
 1719POPC   C3B24357  26.896  26.526   7.964
 1719POPC   C4B24358  26.904  26.549   7.664
 1720POPC   NC324359  26.797  10.566   9.464
 1720POPC   PO424360  26.808  10.511   9.164
 1720POPC   GL124361  26.800  10.573   8.864
 1720POPC   GL224362  26.673  10.507   8.864
 1720POPC   C1A24363  26.807  10.540   8.564
 1720POPC   D2A24364  26.839  10.507   8.264
 1720POPC   C3A24365  26.839  10.500   7.964
 1720POPC   C4A24366  26.777  10.519   7.664
 1720POPC   C1B24367  26.613  10.425   8.564
 1720POPC   C2B24368  26.588  10.412   8.264
 1720POPC   C3B24369  26.596  10.439   7.964
 1720POPC   C4B24370  26.599  10.377   7.664
 1721POPC   NC324371  29.136   8.194   9.464
 1721POPC   PO424372  29.112   8.245   9.164
 1721POPC   GL124373  29.189   8.180   8.864
 1721POPC   GL224374  29.317   8.196   8.864
 1721POPC   C1A24375  29.172   8.147   8.564
 1721POPC   D2A24376  29.172   8.147   8.264
 1721POPC   C3A24377  29.172   8.150   7.964
 1721POPC   C4A24378  29.112   8.157   7.664
 1721POPC   C1B24379  29.344   8.228   8.564
 1721POPC   C2B24380  29.348   8.240   8.264
 1721POPC   C3B24381  29.352   8.261   7.964
 1721POPC   C4B24382  29.375   8.175   7.664
 1722POPC   NC324383  38.436   3.574   9.464
 1722POPC   PO424384  38.409   3.529   9.164
 1722POPC   GL124385  38.477   3.567   8.864
 1722POPC   GL224386  38.377   3.541   8.864
 1722POPC   C1A24387  38.467   3.511   8.564
 1722POPC   D2A24388  38.422   3.517   8.264
 1722POPC   C3A24389  38.415   3.560   7.964
 1722POPC   C4A24390  38.423   3.587   7.664
 1722POPC   C1B24391  38.235   3.602   8.564
 1722POPC   C2B24392  38.228   3.529   8.264
 1722POPC   C3B24393  38.246   3.542   7.964
 1722POPC   C4B24394  38.167   3.584   7.664
 1723POPC   NC324395  43.909  20.610   9.464
 1723POPC   PO424396  43.854  20.618   9.164
 1723POPC   GL124397  43.920  20.586   8.864
 1723POPC   GL224398  43.910  20.440   8.864
 1723POPC   C1A24399  43.922  20.623   8.564
 1723POPC   D2A24400  43.839  20.571   8.264
 1723POPC   C3A24401  43.882  20.563   7.964
 1723POPC   C4A24402  43.898  20.654   7.664
 1723POPC   C1B24403  43.859  20.323   8.564
 1723POPC   C2B24404  43.836  20.371   8.264
 1723POPC   C3B24405  43.869  20.409   7.964
 1723POPC   C4B24406  43.881  20.319   7.664
 1724POPC   NC324407  43.077  37.653   9.464
 1724POPC   PO424408  43.117  37.686   9.164
 1724POPC   GL124409  43.160  37.694   8.864
 1724POPC   GL224410  43.085  37.542   8.864
 1724POPC   C1A24411  43.084  37.716   8.564
 1724POPC   D2A24412  43.079  37.703   8.264
 1724POPC   C3A24413  43.091  37.717   7.964
 1724POPC   C4A24414  43.106  37.685   7.664
 1724POPC   C1B24415  43.051  37.469   8.564
 1724POPC   C2B24416  43.031  37.418   8.264
 1724POPC   C3B24417  43.020  37.417   7.964
 1724POPC   C4B24418  43.040  37.421   7.664
 1725POPC   NC324419  38.409  43.083   9.464
 1725POPC   PO424420  38.494  43.067   9.164
 1725POPC   GL124421  38.501  43.098   8.864
 1725POPC   GL224422  38.570  43.002   8.864
 1725POPC   C1A24423  38.414  43.158   8.564
 1725POPC   D2A24424  38.450  43.126   8.264
 1725POPC   C3A24425  38.439  43.152   7.964
 1725POPC   C4A24426  38.477  43.123   7.664
 1725POPC   C1B24427  38.547  42.942   8.564
 1725POPC   C2B24428  38.592  42.921   8.264
 1725POPC   C3B24429  38.634  42.947   7.964
 1725POPC   C4B24430  38.576  42.877   7.664
 1726POPC   NC324431   1.968  20.601   9.464
 1726POPC   PO424432   2.012  20.612   9.164
 1726POPC   GL124433   1.941  20.636   8.864
 1726POPC   GL224434   1.982  20.533   8.864
 1726POPC   C1A24435   2.011  20.646   8.564
 1726POPC   D2A24436   1.971  20.635   8.264
 1726POPC   C3A24437   1.999  20.659   7.964
 1726POPC   C4A24438   2.035  20.595   7.664
 1726POPC   C1B24439   2.029  20.327   8.564
 1726POPC   C2B24440   2.008  20.324   8.264
 1726POPC   C3B24441   2.062  20.404   7.964
 1726POPC   C4B24442   2.028  20.389   7.664
 1727POPC   NC324443   0.435  29.102   9.464
 1727POPC   PO424444   0.483  29.140   9.164
 1727POPC   GL124445   0.484  29.191   8.864
 1727POPC   GL224446   0.401  28.980   8.864
 1727POPC   C1A24447   0.460  29.185   8.564
 1727POPC   D2A24448   0.422  29.152   8.264
 1727POPC   C3A24449   0.417  29.187   7.964
 1727POPC   C4A24450   0.431  29.126   7.664
 1727POPC   C1B24451   0.477  28.874   8.564
 1727POPC   C2B24452   0.429  28.939   8.264
 1727POPC   C3B24453   0.445  28.847   7.964
 1727POPC   C4B24454   0.475  28.855   7.664
 1728POPC   NC324455  18.315   4.285   9.464
 1728POPC   PO424456  18.330   4.309   9.164
 1728POPC   GL124457  18.282   4.269   8.864
 1728POPC   GL224458  18.208   4.396   8.864
 1728POPC   C1A24459  18.312   4.292   8.564
 1728POPC   D2A24460  18.287   4.292   8.264
 1728POPC   C3A24461  18.312   4.280   7.964
 1728POPC   C4A24462  18.291   4.306   7.664
 1728POPC   C1B24463  18.064   4.428   8.564
 1728POPC   C2B24464  18.018   4.364   8.264
 1728POPC   C3B24465  18.082   4.399   7.964
 1728POPC   C4B24466  18.001   4.453   7.664
 1729POPC   NC324467   4.308   2.752   9.464
 1729POPC   PO424468   4.288   2.721   9.164
 1729POPC   GL124469   4.303   2.732   8.864
 1729POPC   GL224470   4.213   2.867   8.864
 1729POPC   C1A24471   4.301   2.732   8.564
 1729POPC   D2A24472   4.327   2.728   8.264
 1729POPC   C3A24473   4.355   2.738   7.964
 1729POPC   C4A24474   4.303   2.748   7.664
 1729POPC   C1B24475   4.087   2.974   8.564
 1729POPC   C2B24476   4.163   2.937   8.264
 1729POPC   C3B24477   4.093   2.924   7.964
 1729POPC   C4B24478   4.117   2.959   7.664
 1730POPC   NC324479  17.517  29.102   9.464
 1730POPC   PO424480  17.556  29.130   9.164
 1730POPC   GL124481  17.548  29.167   8.864
 1730POPC   GL224482  17.536  29.029   8.864
 1730POPC   C1A24483  17.526  29.155   8.564
 1730POPC   D2A24484  17.539  29.101   8.264
 1730POPC   C3A24485  17.490  29.146   7.964
 1730POPC   C4A24486  17.466  29.179   7.664
 1730POPC   C1B24487  17.611  28.886   8.564
 1730POPC   C2B24488  17.609  28.902   8.264
 1730POPC   C3B24489  17.660  28.963   7.964
 1730POPC   C4B24490  17.640  28.945   7.664
 1731POPC   NC324491  23.679  19.848   9.464
 1731POPC   PO424492  23.746  19.882   9.164
 1731POPC   GL124493  23.701  19.829   8.864
 1731POPC   GL224494  23.579  19.831   8.864
 1731POPC   C1A24495  23.690  19.795   8.564
 1731POPC   D2A24496  23.702  19.810   8.264
 1731POPC   C3A24497  23.738  19.871   7.964
 1731POPC   C4A24498  23.722  19.857   7.664
 1731POPC   C1B24499  23.466  19.904   8.564
 1731POPC   C2B24500  23.424  19.863   8.264
 1731POPC   C3B24501  23.488  19.905   7.964
 1731POPC   C4B24502  23.457  19.851   7.664
 1732POPC   NC324503  19.046  19.044   9.464
 1732POPC   PO424504  19.046  19.039   9.164
 1732POPC   GL124505  19.064  19.075   8.864
 1732POPC   GL224506  19.127  18.951   8.864
 1732POPC   C1A24507  19.031  19.011   8.564
 1732POPC   D2A24508  19.018  19.086   8.264
 1732POPC   C3A24509  19.040  19.030   7.964
 1732POPC   C4A24510  19.079  19.077   7.664
 1732POPC   C1B24511  19.090  18.820   8.564
 1732POPC   C2B24512  19.150  18.832   8.264
 1732POPC   C3B24513  19.137  18.779   7.964
 1732POPC   C4B24514  19.113  18.778   7.664
 1733POPC   NC324515  30.677  12.806   9.464
 1733POPC   PO424516  30.693  12.866   9.164
 1733POPC   GL124517  30.714  12.854   8.864
 1733POPC   GL224518  30.583  12.834   8.864
 1733POPC   C1A24519  30.702  12.885   8.564
 1733POPC   D2A24520  30.728  12.806   8.264
 1733POPC   C3A24521  30.654  12.872   7.964
 1733POPC   C4A24522  30.728  12.852   7.664
 1733POPC   C1B24523  30.431  12.755   8.564
 1733POPC   C2B24524  30.471  12.784   8.264
 1733POPC   C3B24525  30.420  12.793   7.964
 1733POPC   C4B24526  30.471  12.762   7.664
 1734POPC   NC324527  43.133  26.784   9.464
 1734POPC   PO424528  43.159  26.862   9.164
 1734POPC   GL124529  43.114  26.784   8.864
 1734POPC   GL224530  42.971  26.917   8.864
 1734POPC   C1A24531  43.105  26.811   8.564
 1734POPC   D2A24532  43.079  26.853   8.264
 1734POPC   C3A24533  43.136  26.773   7.964
 1734POPC   C4A24534  43.111  26.797   7.664
 1734POPC   C1B24535  42.909  26.965   8.564
 1734POPC   C2B24536  42.881  26.985   8.264
 1734POPC   C3B24537  42.861  26.986   7.964
 1734POPC   C4B24538  42.936  26.933   7.664
 1735POPC   NC324539  28.384  44.639   9.464
 1735POPC   PO424540  28.355  44.621   9.164
 1735POPC   GL124541  28.351  44.674   8.864
 1735POPC   GL224542  28.516  44.563   8.864
 1735POPC   C1A24543  28.363  44.699   8.564
 1735POPC   D2A24544  28.387  44.619   8.264
 1735POPC   C3A24545  28.335  44.631   7.964
 1735POPC   C4A24546  28.326  44.690   7.664
 1735POPC   C1B24547  28.548  44.533   8.564
 1735POPC   C2B24548  28.606  44.574   8.264
 1735POPC   C3B24549  28.588  44.578   7.964
 1735POPC   C4B24550  28.621  44.532   7.664
 1736POPC   NC324551  34.614  34.585   9.464
 1736POPC   PO424552  34.625  34.540   9.164
 1736POPC   GL124553  34.592  34.603   8.864
 1736POPC   GL224554  34.604  34.689   8.864
 1736POPC   C1A24555  34.557  34.621   8.564
 1736POPC   D2A24556  34.604  34.602   8.264
 1736POPC   C3A24557  34.620  34.559   7.964
 1736POPC   C4A24558  34.606  34.555   7.664
 1736POPC   C1B24559  34.694  34.821   8.564
 1736POPC   C2B24560  34.695  34.758   8.264
 1736POPC   C3B24561  34.733  34.759   7.964
 1736POPC   C4B24562  34.671  34.794   7.664
 1737POPC   NC324563  36.946  15.955   9.464
 1737POPC   PO424564  36.896  15.935   9.164
 1737POPC   GL124565  36.919  15.928   8.864
 1737POPC   GL224566  36.894  16.064   8.864
 1737POPC   C1A24567  36.902  15.919   8.564
 1737POPC   D2A24568  36.899  15.950   8.264
 1737POPC   C3A24569  36.898  15.940   7.964
 1737POPC   C4A24570  36.934  15.925   7.664
 1737POPC   C1B24571  36.971  16.179   8.564
 1737POPC   C2B24572  36.936  16.246   8.264
 1737POPC   C3B24573  36.946  16.210   7.964
 1737POPC   C4B24574  36.994  16.237   7.664
 1738POPC   NC324575  29.871  32.992   9.464
 1738POPC   PO424576  29.902  32.992   9.164
 1738POPC   GL124577  29.948  33.003   8.864
 1738POPC   GL224578  29.856  32.994   8.864
 1738POPC   C1A24579  29.930  32.988   8.564
 1738POPC   D2A24580  29.964  33.021   8.264
 1738POPC   C3A24581  29.871  33.068   7.964
 1738POPC   C4A24582  29.960  33.051   7.664
 1738POPC   C1B24583  29.690  32.879   8.564
 1738POPC   C2B24584  29.658  32.920   8.264
 1738POPC   C3B24585  29.673  32.910   7.964
 1738POPC   C4B24586  29.734  32.907   7.664
 1739POPC   NC324587   6.596  43.125   9.464
 1739POPC   PO424588   6.661  43.114   9.164
 1739POPC   GL124589   6.598  43.129   8.864
 1739POPC   GL224590   6.558  43.008   8.864
 1739POPC   C1A24591   6.682  43.103   8.564
 1739POPC   D2A24592   6.599  43.088   8.264
 1739POPC   C3A24593   6.648  43.062   7.964
 1739POPC   C4A24594   6.627  43.159   7.664
 1739POPC   C1B24595   6.516  42.894   8.564
 1739POPC   C2B24596   6.479  42.877   8.264
 1739POPC   C3B24597   6.568  42.926   7.964
 1739POPC   C4B24598   6.489  42.916   7.664
 1740POPC   NC324599  31.484  34.574   9.464
 1740POPC   PO424600  31.503  34.592   9.164
 1740POPC   GL124601  31.472  34.618   8.864
 1740POPC   GL224602  31.522  34.668   8.864
 1740POPC   C1A24603  31.440  34.575   8.564
 1740POPC   D2A24604  31.514  34.527   8.264
 1740POPC   C3A24605  31.441  34.548   7.964
 1740POPC   C4A24606  31.477  34.585   7.664
 1740POPC   C1B24607  31.707  34.752   8.564
 1740POPC   C2B24608  31.663  34.775   8.264
 1740POPC   C3B24609  31.657  34.745   7.964
 1740POPC   C4B24610  31.696  34.759   7.664
 1741POPC   NC324611   0.408  22.914   9.464
 1741POPC   PO424612   0.447  22.980   9.164
 1741POPC   GL124613   0.409  22.948   8.864
 1741POPC   GL224614   0.420  22.844   8.864
 1741POPC   C1A24615   0.434  22.974   8.564
 1741POPC   D2A24616   0.396  22.942   8.264
 1741POPC   C3A24617   0.446  22.920   7.964
 1741POPC   C4A24618   0.437  22.971   7.664
 1741POPC   C1B24619   0.334  22.677   8.564
 1741POPC   C2B24620   0.284  22.702   8.264
 1741POPC   C3B24621   0.275  22.727   7.964
 1741POPC   C4B24622   0.316  22.759   7.664
 1742POPC   NC324623   2.727   4.344   9.464
 1742POPC   PO424624   2.753   4.310   9.164
 1742POPC   GL124625   2.754   4.297   8.864
 1742POPC   GL224626   2.613   4.297   8.864
 1742POPC   C1A24627   2.773   4.289   8.564
 1742POPC   D2A24628   2.778   4.335   8.264
 1742POPC   C3A24629   2.773   4.321   7.964
 1742POPC   C4A24630   2.770   4.297   7.664
 1742POPC   C1B24631   2.487   4.245   8.564
 1742POPC   C2B24632   2.490   4.225   8.264
 1742POPC   C3B24633   2.534   4.186   7.964
 1742POPC   C4B24634   2.501   4.220   7.664
 1743POPC   NC324635  26.822   1.994   9.464
 1743POPC   PO424636  26.795   1.940   9.164
 1743POPC   GL124637  26.816   1.984   8.864
 1743POPC   GL224638  26.819   1.836   8.864
 1743POPC   C1A24639  26.783   1.968   8.564
 1743POPC   D2A24640  26.847   2.008   8.264
 1743POPC   C3A24641  26.867   1.965   7.964
 1743POPC   C4A24642  26.783   1.992   7.664
 1743POPC   C1B24643  26.812   1.698   8.564
 1743POPC   C2B24644  26.863   1.773   8.264
 1743POPC   C3B24645  26.850   1.693   7.964
 1743POPC   C4B24646  26.895   1.777   7.664
 1744POPC   NC324647  23.698  16.754   9.464
 1744POPC   PO424648  23.675  16.728   9.164
 1744POPC   GL124649  23.691  16.719   8.864
 1744POPC   GL224650  23.776  16.822   8.864
 1744POPC   C1A24651  23.746  16.697   8.564
 1744POPC   D2A24652  23.719  16.704   8.264
 1744POPC   C3A24653  23.689  16.723   7.964
 1744POPC   C4A24654  23.664  16.688   7.664
 1744POPC   C1B24655  23.840  16.943   8.564
 1744POPC   C2B24656  23.870  16.944   8.264
 1744POPC   C3B24657  23.893  16.925   7.964
 1744POPC   C4B24658  23.852  16.973   7.664
 1745POPC   NC324659   5.061  21.419   9.464
 1745POPC   PO424660   5.091  21.431   9.164
 1745POPC   GL124661   5.101  21.435   8.864
 1745POPC   GL224662   4.960  21.520   8.864
 1745POPC   C1A24663   5.131  21.405   8.564
 1745POPC   D2A24664   5.108  21.385   8.264
 1745POPC   C3A24665   5.053  21.342   7.964
 1745POPC   C4A24666   5.072  21.410   7.664
 1745POPC   C1B24667   4.884  21.591   8.564
 1745POPC   C2B24668   4.876  21.549   8.264
 1745POPC   C3B24669   4.946  21.512   7.964
 1745POPC   C4B24670   4.883  21.546   7.664
 1746POPC   NC324671   5.840  13.664   9.464
 1746POPC   PO424672   5.884  13.611   9.164
 1746POPC   GL124673   5.867  13.593   8.864
 1746POPC   GL224674   5.958  13.699   8.864
 1746POPC   C1A24675   5.840  13.668   8.564
 1746POPC   D2A24676   5.897  13.594   8.264
 1746POPC   C3A24677   5.868  13.590   7.964
 1746POPC   C4A24678   5.878  13.608   7.664
 1746POPC   C1B24679   6.095  13.776   8.564
 1746POPC   C2B24680   6.131  13.736   8.264
 1746POPC   C3B24681   6.106  13.732   7.964
 1746POPC   C4B24682   6.075  13.727   7.664
 1747POPC   NC324683  23.754  15.915   9.464
 1747POPC   PO424684  23.754  15.981   9.164
 1747POPC   GL124685  23.698  15.998   8.864
 1747POPC   GL224686  23.635  16.017   8.864
 1747POPC   C1A24687  23.676  15.915   8.564
 1747POPC   D2A24688  23.700  15.955   8.264
 1747POPC   C3A24689  23.708  15.923   7.964
 1747POPC   C4A24690  23.750  15.920   7.664
 1747POPC   C1B24691  23.513  16.016   8.564
 1747POPC   C2B24692  23.444  16.048   8.264
 1747POPC   C3B24693  23.525  16.060   7.964
 1747POPC   C4B24694  23.488  16.052   7.664
 1748POPC   NC324695  12.895   0.402   9.464
 1748POPC   PO424696  12.879   0.466   9.164
 1748POPC   GL124697  12.862   0.451   8.864
 1748POPC   GL224698  12.995   0.418   8.864
 1748POPC   C1A24699  12.897   0.401   8.564
 1748POPC   D2A24700  12.861   0.487   8.264
 1748POPC   C3A24701  12.854   0.436   7.964
 1748POPC   C4A24702  12.845   0.391   7.664
 1748POPC   C1B24703  13.054   0.414   8.564
 1748POPC   C2B24704  13.139   0.464   8.264
 1748POPC   C3B24705  13.137   0.439   7.964
 1748POPC   C4B24706  13.094   0.420   7.664
 1749POPC   NC324707  15.197  43.861   9.464
 1749POPC   PO424708  15.224  43.864   9.164
 1749POPC   GL124709  15.213  43.867   8.864
 1749POPC   GL224710  15.168  43.983   8.864
 1749POPC   C1A24711  15.227  43.901   8.564
 1749POPC   D2A24712  15.221  43.860   8.264
 1749POPC   C3A24713  15.172  43.901   7.964
 1749POPC   C4A24714  15.166  43.925   7.664
 1749POPC   C1B24715  15.188  44.180   8.564
 1749POPC   C2B24716  15.240  44.109   8.264
 1749POPC   C3B24717  15.190  44.166   7.964
 1749POPC   C4B24718  15.239  44.103   7.664
 1750POPC   NC324719   5.847  34.528   9.464
 1750POPC   PO424720   5.884  34.543   9.164
 1750POPC   GL124721   5.820  34.566   8.864
 1750POPC   GL224722   5.717  34.594   8.864
 1750POPC   C1A24723   5.909  34.550   8.564
 1750POPC   D2A24724   5.828  34.612   8.264
 1750POPC   C3A24725   5.867  34.621   7.964
 1750POPC   C4A24726   5.905  34.596   7.664
 1750POPC   C1B24727   5.583  34.533   8.564
 1750POPC   C2B24728   5.611  34.547   8.264
 1750POPC   C3B24729   5.601  34.576   7.964
 1750POPC   C4B24730   5.635  34.569   7.664
 1751POPC   NC324731  15.978  28.365   9.464
 1751POPC   PO424732  15.941  28.390   9.164
 1751POPC   GL124733  15.958  28.379   8.864
 1751POPC   GL224734  15.831  28.447   8.864
 1751POPC   C1A24735  15.999  28.369   8.564
 1751POPC   D2A24736  15.951  28.340   8.264
 1751POPC   C3A24737  16.002  28.338   7.964
 1751POPC   C4A24738  15.956  28.322   7.664
 1751POPC   C1B24739  15.754  28.534   8.564
 1751POPC   C2B24740  15.804  28.611   8.264
 1751POPC   C3B24741  15.762  28.611   7.964
 1751POPC   C4B24742  15.815  28.527   7.664
 1752POPC   NC324743  23.742  21.429   9.464
 1752POPC   PO424744  23.677  21.416   9.164
 1752POPC   GL124745  23.713  21.344   8.864
 1752POPC   GL224746  23.677  21.259   8.864
 1752POPC   C1A24747  23.707  21.339   8.564
 1752POPC   D2A24748  23.667  21.431   8.264
 1752POPC   C3A24749  23.710  21.405   7.964
 1752POPC   C4A24750  23.706  21.358   7.664
 1752POPC   C1B24751  23.666  21.135   8.564
 1752POPC   C2B24752  23.661  21.170   8.264
 1752POPC   C3B24753  23.723  21.146   7.964
 1752POPC   C4B24754  23.726  21.133   7.664
 1753POPC   NC324755  26.001  15.178   9.464
 1753POPC   PO424756  26.049  15.147   9.164
 1753POPC   GL124757  26.024  15.149   8.864
 1753POPC   GL224758  25.997  15.096   8.864
 1753POPC   C1A24759  26.033  15.215   8.564
 1753POPC   D2A24760  25.996  15.133   8.264
 1753POPC   C3A24761  25.994  15.224   7.964
 1753POPC   C4A24762  26.043  15.210   7.664
 1753POPC   C1B24763  26.001  14.947   8.564
 1753POPC   C2B24764  26.053  14.895   8.264
 1753POPC   C3B24765  25.991  14.929   7.964
 1753POPC   C4B24766  26.041  14.887   7.664
 1754POPC   NC324767  28.409  14.415   9.464
 1754POPC   PO424768  28.367  14.361   9.164
 1754POPC   GL124769  28.396  14.391   8.864
 1754POPC   GL224770  28.431  14.531   8.864
 1754POPC   C1A24771  28.364  14.421   8.564
 1754POPC   D2A24772  28.333  14.428   8.264
 1754POPC   C3A24773  28.403  14.438   7.964
 1754POPC   C4A24774  28.382  14.427   7.664
 1754POPC   C1B24775  28.432  14.638   8.564
 1754POPC   C2B24776  28.448  14.666   8.264
 1754POPC   C3B24777  28.405  14.687   7.964
 1754POPC   C4B24778  28.431  14.600   7.664
 1755POPC   NC324779  35.344  36.927   9.464
 1755POPC   PO424780  35.376  36.944   9.164
 1755POPC   GL124781  35.347  36.935   8.864
 1755POPC   GL224782  35.339  37.068   8.864
 1755POPC   C1A24783  35.399  36.914   8.564
 1755POPC   D2A24784  35.336  36.944   8.264
 1755POPC   C3A24785  35.302  36.899   7.964
 1755POPC   C4A24786  35.323  36.878   7.664
 1755POPC   C1B24787  35.287  37.192   8.564
 1755POPC   C2B24788  35.354  37.157   8.264
 1755POPC   C3B24789  35.271  37.150   7.964
 1755POPC   C4B24790  35.343  37.165   7.664
 1756POPC   NC324791  12.831  13.625   9.464
 1756POPC   PO424792  12.867  13.648   9.164
 1756POPC   GL124793  12.861  13.607   8.864
 1756POPC   GL224794  12.884  13.547   8.864
 1756POPC   C1A24795  12.838  13.589   8.564
 1756POPC   D2A24796  12.807  13.637   8.264
 1756POPC   C3A24797  12.887  13.606   7.964
 1756POPC   C4A24798  12.865  13.629   7.664
 1756POPC   C1B24799  13.025  13.465   8.564
 1756POPC   C2B24800  12.953  13.407   8.264
 1756POPC   C3B24801  12.989  13.449   7.964
 1756POPC   C4B24802  13.010  13.403   7.664
 1757POPC   NC324803  39.208   9.788   9.464
 1757POPC   PO424804  39.196   9.757   9.164
 1757POPC   GL124805  39.253   9.775   8.864
 1757POPC   GL224806  39.123   9.667   8.864
 1757POPC   C1A24807  39.275   9.796   8.564
 1757POPC   D2A24808  39.277   9.770   8.264
 1757POPC   C3A24809  39.228   9.713   7.964
 1757POPC   C4A24810  39.221   9.793   7.664
 1757POPC   C1B24811  39.108   9.530   8.564
 1757POPC   C2B24812  39.056   9.563   8.264
 1757POPC   C3B24813  39.069   9.519   7.964
 1757POPC   C4B24814  39.138   9.525   7.664
 1758POPC   NC324815  11.302  35.387   9.464
 1758POPC   PO424816  11.308  35.373   9.164
 1758POPC   GL124817  11.342  35.387   8.864
 1758POPC   GL224818  11.381  35.370   8.864
 1758POPC   C1A24819  11.271  35.391   8.564
 1758POPC   D2A24820  11.344  35.383   8.264
 1758POPC   C3A24821  11.293  35.343   7.964
 1758POPC   C4A24822  11.253  35.340   7.664
 1758POPC   C1B24823  11.577  35.303   8.564
 1758POPC   C2B24824  11.550  35.298   8.264
 1758POPC   C3B24825  11.546  35.295   7.964
 1758POPC   C4B24826  11.510  35.351   7.664
 1759POPC   NC324827  35.372   1.980   9.464
 1759POPC   PO424828  35.320   2.003   9.164
 1759POPC   GL124829  35.379   1.958   8.864
 1759POPC   GL224830  35.432   1.945   8.864
 1759POPC   C1A24831  35.374   2.009   8.564
 1759POPC   D2A24832  35.329   1.978   8.264
 1759POPC   C3A24833  35.339   1.967   7.964
 1759POPC   C4A24834  35.324   1.952   7.664
 1759POPC   C1B24835  35.579   1.867   8.564
 1759POPC   C2B24836  35.583   1.773   8.264
 1759POPC   C3B24837  35.526   1.859   7.964
 1759POPC   C4B24838  35.574   1.783   7.664
 1760POPC   NC324839  40.015  13.672   9.464
 1760POPC   PO424840  39.963  13.662   9.164
 1760POPC   GL124841  40.026  13.595   8.864
 1760POPC   GL224842  40.069  13.521   8.864
 1760POPC   C1A24843  40.006  13.587   8.564
 1760POPC   D2A24844  39.976  13.648   8.264
 1760POPC   C3A24845  40.046  13.624   7.964
 1760POPC   C4A24846  40.052  13.672   7.664
 1760POPC   C1B24847  40.177  13.514   8.564
 1760POPC   C2B24848  40.257  13.521   8.264
 1760POPC   C3B24849  40.248  13.449   7.964
 1760POPC   C4B24850  40.177  13.496   7.664
 1761POPC   NC324851  10.568  13.627   9.464
 1761POPC   PO424852  10.514  13.619   9.164
 1761POPC   GL124853  10.566  13.644   8.864
 1761POPC   GL224854  10.620  13.697   8.864
 1761POPC   C1A24855  10.503  13.671   8.564
 1761POPC   D2A24856  10.536  13.668   8.264
 1761POPC   C3A24857  10.561  13.599   7.964
 1761POPC   C4A24858  10.574  13.599   7.664
 1761POPC   C1B24859  10.731  13.643   8.564
 1761POPC   C2B24860  10.815  13.659   8.264
 1761POPC   C3B24861  10.751  13.708   7.964
 1761POPC   C4B24862  10.774  13.628   7.664
 1762POPC   NC324863  28.325   8.983   9.464
 1762POPC   PO424864  28.377   8.964   9.164
 1762POPC   GL124865  28.363   9.003   8.864
 1762POPC   GL224866  28.291   8.946   8.864
 1762POPC   C1A24867  28.416   8.950   8.564
 1762POPC   D2A24868  28.401   8.998   8.264
 1762POPC   C3A24869  28.359   8.976   7.964
 1762POPC   C4A24870  28.334   8.968   7.664
 1762POPC   C1B24871  28.185   8.841   8.564
 1762POPC   C2B24872  28.167   8.877   8.264
 1762POPC   C3B24873  28.102   8.831   7.964
 1762POPC   C4B24874  28.164   8.847   7.664
 1763POPC   NC324875   2.734  26.038   9.464
 1763POPC   PO424876   2.776  26.024   9.164
 1763POPC   GL124877   2.803  26.089   8.864
 1763POPC   GL224878   2.832  26.160   8.864
 1763POPC   C1A24879   2.796  26.083   8.564
 1763POPC   D2A24880   2.779  26.002   8.264
 1763POPC   C3A24881   2.768  26.039   7.964
 1763POPC   C4A24882   2.786  26.039   7.664
 1763POPC   C1B24883   2.810  26.284   8.564
 1763POPC   C2B24884   2.801  26.261   8.264
 1763POPC   C3B24885   2.808  26.313   7.964
 1763POPC   C4B24886   2.795  26.293   7.664
 1764POPC   NC324887   5.126  35.394   9.464
 1764POPC   PO424888   5.059  35.374   9.164
 1764POPC   GL124889   5.111  35.330   8.864
 1764POPC   GL224890   5.145  35.252   8.864
 1764POPC   C1A24891   5.114  35.361   8.564
 1764POPC   D2A24892   5.115  35.378   8.264
 1764POPC   C3A24893   5.093  35.371   7.964
 1764POPC   C4A24894   5.094  35.394   7.664
 1764POPC   C1B24895   5.243  35.205   8.564
 1764POPC   C2B24896   5.299  35.203   8.264
 1764POPC   C3B24897   5.287  35.220   7.964
 1764POPC   C4B24898   5.274  35.180   7.664
 1765POPC   NC324899   4.341  29.939   9.464
 1765POPC   PO424900   4.289  29.929   9.164
 1765POPC   GL124901   4.345  29.891   8.864
 1765POPC   GL224902   4.262  29.997   8.864
 1765POPC   C1A24903   4.363  29.945   8.564
 1765POPC   D2A24904   4.354  29.935   8.264
 1765POPC   C3A24905   4.303  29.929   7.964
 1765POPC   C4A24906   4.361  29.904   7.664
 1765POPC   C1B24907   4.163  30.126   8.564
 1765POPC   C2B24908   4.124  30.067   8.264
 1765POPC   C3B24909   4.095  30.085   7.964
 1765POPC   C4B24910   4.139  30.100   7.664
 1766POPC   NC324911  40.735  30.730   9.464
 1766POPC   PO424912  40.819  30.669   9.164
 1766POPC   GL124913  40.775  30.729   8.864
 1766POPC   GL224914  40.633  30.678   8.864
 1766POPC   C1A24915  40.795  30.724   8.564
 1766POPC   D2A24916  40.767  30.695   8.264
 1766POPC   C3A24917  40.748  30.693   7.964
 1766POPC   C4A24918  40.738  30.683   7.664
 1766POPC   C1B24919  40.581  30.633   8.564
 1766POPC   C2B24920  40.496  30.653   8.264
 1766POPC   C3B24921  40.506  30.697   7.964
 1766POPC   C4B24922  40.495  30.664   7.664
 1767POPC   NC324923  30.694  26.066   9.464
 1767POPC   PO424924  30.729  25.996   9.164
 1767POPC   GL124925  30.672  26.019   8.864
 1767POPC   GL224926  30.632  26.183   8.864
 1767POPC   C1A24927  30.671  26.071   8.564
 1767POPC   D2A24928  30.701  26.084   8.264
 1767POPC   C3A24929  30.683  26.012   7.964
 1767POPC   C4A24930  30.720  26.007   7.664
 1767POPC   C1B24931  30.616  26.242   8.564
 1767POPC   C2B24932  30.599  26.303   8.264
 1767POPC   C3B24933  30.576  26.285   7.964
 1767POPC   C4B24934  30.544  26.305   7.664
 1768POPC   NC324935  28.394  19.846   9.464
 1768POPC   PO424936  28.410  19.866   9.164
 1768POPC   GL124937  28.344  19.826   8.864
 1768POPC   GL224938  28.324  19.774   8.864
 1768POPC   C1A24939  28.358  19.881   8.564
 1768POPC   D2A24940  28.362  19.834   8.264
 1768POPC   C3A24941  28.394  19.837   7.964
 1768POPC   C4A24942  28.335  19.874   7.664
 1768POPC   C1B24943  28.221  19.615   8.564
 1768POPC   C2B24944  28.217  19.652   8.264
 1768POPC   C3B24945  28.208  19.654   7.964
 1768POPC   C4B24946  28.275  19.665   7.664
 1769POPC   NC324947   5.892  29.899   9.464
 1769POPC   PO424948   5.877  29.919   9.164
 1769POPC   GL124949   5.865  29.915   8.864
 1769POPC   GL224950   5.703  29.899   8.864
 1769POPC   C1A24951   5.823  29.885   8.564
 1769POPC   D2A24952   5.832  29.905   8.264
 1769POPC   C3A24953   5.843  29.887   7.964
 1769POPC   C4A24954   5.853  29.941   7.664
 1769POPC   C1B24955   5.631  29.915   8.564
 1769POPC   C2B24956   5.668  29.923   8.264
 1769POPC   C3B24957   5.574  29.925   7.964
 1769POPC   C4B24958   5.613  29.893   7.664
 1770POPC   NC324959  24.454   6.598   9.464
 1770POPC   PO424960  24.480   6.620   9.164
 1770POPC   GL124961  24.537   6.604   8.864
 1770POPC   GL224962  24.409   6.537   8.864
 1770POPC   C1A24963  24.441   6.613   8.564
 1770POPC   D2A24964  24.446   6.687   8.264
 1770POPC   C3A24965  24.441   6.650   7.964
 1770POPC   C4A24966  24.530   6.692   7.664
 1770POPC   C1B24967  24.325   6.462   8.564
 1770POPC   C2B24968  24.287   6.470   8.264
 1770POPC   C3B24969  24.277   6.497   7.964
 1770POPC   C4B24970  24.302   6.494   7.664
 1771POPC   NC324971   8.153   0.487   9.464
 1771POPC   PO424972   8.179   0.420   9.164
 1771POPC   GL124973   8.161   0.430   8.864
 1771POPC   GL224974   8.158   0.311   8.864
 1771POPC   C1A24975   8.235   0.410   8.564
 1771POPC   D2A24976   8.201   0.465   8.264
 1771POPC   C3A24977   8.182   0.432   7.964
 1771POPC   C4A24978   8.214   0.405   7.664
 1771POPC   C1B24979   8.088   0.167   8.564
 1771POPC   C2B24980   8.104   0.202   8.264
 1771POPC   C3B24981   8.098   0.209   7.964
 1771POPC   C4B24982   8.096   0.197   7.664
 1772POPC   NC324983  41.601   1.196   9.464
 1772POPC   PO424984  41.608   1.193   9.164
 1772POPC   GL124985  41.539   1.242   8.864
 1772POPC   GL224986  41.482   1.162   8.864
 1772POPC   C1A24987  41.604   1.173   8.564
 1772POPC   D2A24988  41.511   1.188   8.264
 1772POPC   C3A24989  41.516   1.212   7.964
 1772POPC   C4A24990  41.530   1.260   7.664
 1772POPC   C1B24991  41.321   1.126   8.564
 1772POPC   C2B24992  41.317   1.067   8.264
 1772POPC   C3B24993  41.304   1.102   7.964
 1772POPC   C4B24994  41.368   1.114   7.664
 1773POPC   NC324995  20.659  21.368   9.464
 1773POPC   PO424996  20.633  21.401   9.164
 1773POPC   GL124997  20.619  21.381   8.864
 1773POPC   GL224998  20.578  21.467   8.864
 1773POPC   C1A24999  20.577  21.337   8.564
 1773POPC   D2A25000  20.647  21.368   8.264
 1773POPC   C3A25001  20.605  21.342   7.964
 1773POPC   C4A25002  20.597  21.379   7.664
 1773POPC   C1B25003  20.486  21.575   8.564
 1773POPC   C2B25004  20.454  21.595   8.264
 1773POPC   C3B25005  20.510  21.613   7.964
 1773POPC   C4B25006  20.487  21.627   7.664
 1774POPC   NC325007   5.118  26.794   9.464
 1774POPC   PO425008   5.124  26.776   9.164
 1774POPC   GL125009   5.104  26.821   8.864
 1774POPC   GL225010   5.238  26.914   8.864
 1774POPC   C1A25011   5.048  26.812   8.564
 1774POPC   D2A25012   5.134  26.855   8.264
 1774POPC   C3A25013   5.093  26.773   7.964
 1774POPC   C4A25014   5.101  26.780   7.664
 1774POPC   C1B25015   5.363  26.935   8.564
 1774POPC   C2B25016   5.352  26.922   8.264
 1774POPC   C3B25017   5.287  26.887   7.964
 1774POPC   C4B25018   5.326  26.952   7.664
 1775POPC   NC325019  12.814   7.405   9.464
 1775POPC   PO425020  12.810   7.416   9.164
 1775POPC   GL125021  12.816   7.439   8.864
 1775POPC   GL225022  12.894   7.564   8.864
 1775POPC   C1A25023  12.873   7.459   8.564
 1775POPC   D2A25024  12.873   7.397   8.264
 1775POPC   C3A25025  12.873   7.409   7.964
 1775POPC   C4A25026  12.806   7.461   7.664
 1775POPC   C1B25027  12.834   7.623   8.564
 1775POPC   C2B25028  12.795   7.635   8.264
 1775POPC   C3B25029  12.799   7.667   7.964
 1775POPC   C4B25030  12.859   7.693   7.664
 1776POPC   NC325031   1.258  25.291   9.464
 1776POPC   PO425032   1.254  25.217   9.164
 1776POPC   GL125033   1.191  25.216   8.864
 1776POPC   GL225034   1.078  25.312   8.864
 1776POPC   C1A25035   1.211  25.222   8.564
 1776POPC   D2A25036   1.204  25.245   8.264
 1776POPC   C3A25037   1.247  25.250   7.964
 1776POPC   C4A25038   1.209  25.244   7.664
 1776POPC   C1B25039   0.980  25.322   8.564
 1776POPC   C2B25040   0.958  25.299   8.264
 1776POPC   C3B25041   1.005  25.275   7.964
 1776POPC   C4B25042   0.952  25.312   7.664
 1777POPC   NC325043   8.233  28.394   9.464
 1777POPC   PO425044   8.197  28.369   9.164
 1777POPC   GL125045   8.183  28.371   8.864
 1777POPC   GL225046   8.143  28.476   8.864
 1777POPC   C1A25047   8.234  28.342   8.564
 1777POPC   D2A25048   8.174  28.376   8.264
 1777POPC   C3A25049   8.197  28.407   7.964
 1777POPC   C4A25050   8.218  28.382   7.664
 1777POPC   C1B25051   8.019  28.560   8.564
 1777POPC   C2B25052   7.958  28.539   8.264
 1777POPC   C3B25053   7.967  28.524   7.964
 1777POPC   C4B25054   7.967  28.482   7.664
 1778POPC   NC325055  16.772  26.013   9.464
 1778POPC   PO425056  16.742  26.012   9.164
 1778POPC   GL125057  16.699  26.013   8.864
 1778POPC   GL225058  16.874  26.028   8.864
 1778POPC   C1A25059  16.738  26.091   8.564
 1778POPC   D2A25060  16.736  26.023   8.264
 1778POPC   C3A25061  16.754  26.024   7.964
 1778POPC   C4A25062  16.753  26.042   7.664
 1778POPC   C1B25063  16.903  25.966   8.564
 1778POPC   C2B25064  16.906  25.929   8.264
 1778POPC   C3B25065  16.976  25.900   7.964
 1778POPC   C4B25066  16.917  25.892   7.664
 1779POPC   NC325067  11.267  39.257   9.464
 1779POPC   PO425068  11.340  39.241   9.164
 1779POPC   GL125069  11.338  39.248   8.864
 1779POPC   GL225070  11.223  39.291   8.864
 1779POPC   C1A25071  11.251  39.216   8.564
 1779POPC   D2A25072  11.344  39.245   8.264
 1779POPC   C3A25073  11.260  39.260   7.964
 1779POPC   C4A25074  11.289  39.274   7.664
 1779POPC   C1B25075  11.108  39.455   8.564
 1779POPC   C2B25076  11.118  39.370   8.264
 1779POPC   C3B25077  11.148  39.430   7.964
 1779POPC   C4B25078  11.153  39.391   7.664
 1780POPC   NC325079  43.140  39.201   9.464
 1780POPC   PO425080  43.124  39.229   9.164
 1780POPC   GL125081  43.138  39.250   8.864
 1780POPC   GL225082  43.187  39.139   8.864
 1780POPC   C1A25083  43.122  39.226   8.564
 1780POPC   D2A25084  43.097  39.183   8.264
 1780POPC   C3A25085  43.088  39.244   7.964
 1780POPC   C4A25086  43.144  39.268   7.664
 1780POPC   C1B25087  43.206  39.020   8.564
 1780POPC   C2B25088  43.227  39.060   8.264
 1780POPC   C3B25089  43.283  38.988   7.964
 1780POPC   C4B25090  43.204  38.975   7.664
 1781POPC   NC325091  43.868  29.914   9.464
 1781POPC   PO425092  43.928  29.931   9.164
 1781POPC   GL125093  43.870  29.905   8.864
 1781POPC   GL225094  43.727  29.932   8.864
 1781POPC   C1A25095  43.855  29.912   8.564
 1781POPC   D2A25096  43.917  29.898   8.264
 1781POPC   C3A25097  43.879  29.928   7.964
 1781POPC   C4A25098  43.878  29.941   7.664
 1781POPC   C1B25099  43.636  29.918   8.564
 1781POPC   C2B25100  43.659  29.905   8.264
 1781POPC   C3B25101  43.662  29.929   7.964
 1781POPC   C4B25102  43.590  29.936   7.664
 1782POPC   NC325103  12.880  17.542   9.464
 1782POPC   PO425104  12.833  17.471   9.164
 1782POPC   GL125105  12.900  17.457   8.864
 1782POPC   GL225106  12.952  17.416   8.864
 1782POPC   C1A25107  12.891  17.498   8.564
 1782POPC   D2A25108  12.826  17.494   8.264
 1782POPC   C3A25109  12.886  17.545   7.964
 1782POPC   C4A25110  12.834  17.529   7.664
 1782POPC   C1B25111  12.971  17.279   8.564
 1782POPC   C2B25112  13.056  17.266   8.264
 1782POPC   C3B25113  13.057  17.333   7.964
 1782POPC   C4B25114  13.036  17.313   7.664
 1783POPC   NC325115   5.823  19.019   9.464
 1783POPC   PO425116   5.898  19.021   9.164
 1783POPC   GL125117   5.883  19.047   8.864
 1783POPC   GL225118   5.965  19.119   8.864
 1783POPC   C1A25119   5.857  19.079   8.564
 1783POPC   D2A25120   5.861  19.016   8.264
 1783POPC   C3A25121   5.902  19.033   7.964
 1783POPC   C4A25122   5.892  19.027   7.664
 1783POPC   C1B25123   6.069  19.130   8.564
 1783POPC   C2B25124   6.069  19.174   8.264
 1783POPC   C3B25125   6.061  19.211   7.964
 1783POPC   C4B25126   6.077  19.187   7.664
 1784POPC   NC325127  38.448   9.770   9.464
 1784POPC   PO425128  38.426   9.739   9.164
 1784POPC   GL125129  38.431   9.715   8.864
 1784POPC   GL225130  38.580   9.734   8.864
 1784POPC   C1A25131  38.488   9.727   8.564
 1784POPC   D2A25132  38.432   9.795   8.264
 1784POPC   C3A25133  38.421   9.782   7.964
 1784POPC   C4A25134  38.474   9.760   7.664
 1784POPC   C1B25135  38.732   9.789   8.564
 1784POPC   C2B25136  38.735   9.728   8.264
 1784POPC   C3B25137  38.713   9.737   7.964
 1784POPC   C4B25138  38.665   9.760   7.664
 1785POPC   NC325139  27.573  43.107   9.464
 1785POPC   PO425140  27.590  43.107   9.164
 1785POPC   GL125141  27.621  43.084   8.864
 1785POPC   GL225142  27.497  43.131   8.864
 1785POPC   C1A25143  27.568  43.112   8.564
 1785POPC   D2A25144  27.601  43.123   8.264
 1785POPC   C3A25145  27.555  43.076   7.964
 1785POPC   C4A25146  27.571  43.066   7.664
 1785POPC   C1B25147  27.294  43.126   8.564
 1785POPC   C2B25148  27.298  43.075   8.264
 1785POPC   C3B25149  27.371  43.126   7.964
 1785POPC   C4B25150  27.307  43.101   7.664
 1786POPC   NC325151  22.940   2.032   9.464
 1786POPC   PO425152  22.977   1.952   9.164
 1786POPC   GL125153  22.898   2.022   8.864
 1786POPC   GL225154  23.011   1.985   8.864
 1786POPC   C1A25155  22.983   1.999   8.564
 1786POPC   D2A25156  22.922   2.004   8.264
 1786POPC   C3A25157  22.939   1.968   7.964
 1786POPC   C4A25158  22.961   2.027   7.664
 1786POPC   C1B25159  23.209   1.904   8.564
 1786POPC   C2B25160  23.197   1.991   8.264
 1786POPC   C3B25161  23.192   1.987   7.964
 1786POPC   C4B25162  23.162   1.919   7.664
 1787POPC   NC325163   8.150  40.052   9.464
 1787POPC   PO425164   8.208  39.977   9.164
 1787POPC   GL125165   8.170  39.983   8.864
 1787POPC   GL225166   8.313  40.121   8.864
 1787POPC   C1A25167   8.171  40.004   8.564
 1787POPC   D2A25168   8.183  40.010   8.264
 1787POPC   C3A25169   8.216  40.044   7.964
 1787POPC   C4A25170   8.226  40.052   7.664
 1787POPC   C1B25171   8.351  40.154   8.564
 1787POPC   C2B25172   8.423  40.163   8.264
 1787POPC   C3B25173   8.389  40.163   7.964
 1787POPC   C4B25174   8.410  40.125   7.664
 1788POPC   NC325175   3.551  25.249   9.464
 1788POPC   PO425176   3.547  25.239   9.164
 1788POPC   GL125177   3.516  25.261   8.864
 1788POPC   GL225178   3.434  25.283   8.864
 1788POPC   C1A25179   3.528  25.250   8.564
 1788POPC   D2A25180   3.509  25.254   8.264
 1788POPC   C3A25181   3.530  25.233   7.964
 1788POPC   C4A25182   3.494  25.290   7.664
 1788POPC   C1B25183   3.288  25.379   8.564
 1788POPC   C2B25184   3.267  25.328   8.264
 1788POPC   C3B25185   3.324  25.345   7.964
 1788POPC   C4B25186   3.262  25.317   7.664
 1789POPC   NC325187   1.193   6.664   9.464
 1789POPC   PO425188   1.234   6.662   9.164
 1789POPC   GL125189   1.214   6.626   8.864
 1789POPC   GL225190   1.181   6.578   8.864
 1789POPC   C1A25191   1.246   6.667   8.564
 1789POPC   D2A25192   1.167   6.617   8.264
 1789POPC   C3A25193   1.229   6.693   7.964
 1789POPC   C4A25194   1.188   6.606   7.664
 1789POPC   C1B25195   1.051   6.460   8.564
 1789POPC   C2B25196   1.082   6.455   8.264
 1789POPC   C3B25197   1.136   6.417   7.964
 1789POPC   C4B25198   1.069   6.420   7.664
 1790POPC   NC325199  36.913  10.501   9.464
 1790POPC   PO425200  36.857  10.484   9.164
 1790POPC   GL125201  36.895  10.485   8.864
 1790POPC   GL225202  36.800  10.472   8.864
 1790POPC   C1A25203  36.944  10.551   8.564
 1790POPC   D2A25204  36.923  10.512   8.264
 1790POPC   C3A25205  36.943  10.494   7.964
 1790POPC   C4A25206  36.907  10.493   7.664
 1790POPC   C1B25207  36.759  10.320   8.564
 1790POPC   C2B25208  36.721  10.273   8.264
 1790POPC   C3B25209  36.769  10.351   7.964
 1790POPC   C4B25210  36.786  10.273   7.664
 1791POPC   NC325211  24.482  41.524   9.464
 1791POPC   PO425212  24.499  41.524   9.164
 1791POPC   GL125213  24.529  41.534   8.864
 1791POPC   GL225214  24.493  41.410   8.864
 1791POPC   C1A25215  24.533  41.605   8.564
 1791POPC   D2A25216  24.491  41.543   8.264
 1791POPC   C3A25217  24.461  41.527   7.964
 1791POPC   C4A25218  24.515  41.596   7.664
 1791POPC   C1B25219  24.585  41.356   8.564
 1791POPC   C2B25220  24.599  41.339   8.264
 1791POPC   C3B25221  24.584  41.287   7.964
 1791POPC   C4B25222  24.524  41.285   7.664
 1792POPC   NC325223   3.560   8.924   9.464
 1792POPC   PO425224   3.510   9.022   9.164
 1792POPC   GL125225   3.589   8.929   8.864
 1792POPC   GL225226   3.465   9.104   8.864
 1792POPC   C1A25227   3.548   8.958   8.564
 1792POPC   D2A25228   3.516   9.003   8.264
 1792POPC   C3A25229   3.553   8.964   7.964
 1792POPC   C4A25230   3.527   9.007   7.664
 1792POPC   C1B25231   3.504   9.228   8.564
 1792POPC   C2B25232   3.466   9.165   8.264
 1792POPC   C3B25233   3.440   9.244   7.964
 1792POPC   C4B25234   3.454   9.219   7.664
 1793POPC   NC325235  19.078   8.163   9.464
 1793POPC   PO425236  19.048   8.229   9.164
 1793POPC   GL125237  19.038   8.180   8.864
 1793POPC   GL225238  18.908   8.195   8.864
 1793POPC   C1A25239  19.031   8.242   8.564
 1793POPC   D2A25240  19.041   8.187   8.264
 1793POPC   C3A25241  19.014   8.174   7.964
 1793POPC   C4A25242  19.034   8.199   7.664
 1793POPC   C1B25243  18.855   8.218   8.564
 1793POPC   C2B25244  18.831   8.229   8.264
 1793POPC   C3B25245  18.777   8.247   7.964
 1793POPC   C4B25246  18.864   8.238   7.664
 1794POPC   NC325247  40.820  24.458   9.464
 1794POPC   PO425248  40.808  24.492   9.164
 1794POPC   GL125249  40.819  24.510   8.864
 1794POPC   GL225250  40.768  24.326   8.864
 1794POPC   C1A25251  40.752  24.518   8.564
 1794POPC   D2A25252  40.809  24.446   8.264
 1794POPC   C3A25253  40.792  24.468   7.964
 1794POPC   C4A25254  40.810  24.441   7.664
 1794POPC   C1B25255  40.721  24.192   8.564
 1794POPC   C2B25256  40.719  24.262   8.264
 1794POPC   C3B25257  40.728  24.277   7.964
 1794POPC   C4B25258  40.810  24.290   7.664
 1795POPC   NC325259   8.155  39.188   9.464
 1795POPC   PO425260   8.228  39.263   9.164
 1795POPC   GL125261   8.203  39.259   8.864
 1795POPC   GL225262   8.324  39.295   8.864
 1795POPC   C1A25263   8.239  39.217   8.564
 1795POPC   D2A25264   8.199  39.256   8.264
 1795POPC   C3A25265   8.205  39.243   7.964
 1795POPC   C4A25266   8.189  39.270   7.664
 1795POPC   C1B25267   8.357  39.336   8.564
 1795POPC   C2B25268   8.374  39.399   8.264
 1795POPC   C3B25269   8.368  39.393   7.964
 1795POPC   C4B25270   8.415  39.375   7.664
 1796POPC   NC325271  22.969  27.578   9.464
 1796POPC   PO425272  22.954  27.558   9.164
 1796POPC   GL125273  22.936  27.545   8.864
 1796POPC   GL225274  22.933  27.710   8.864
 1796POPC   C1A25275  22.901  27.593   8.564
 1796POPC   D2A25276  22.914  27.611   8.264
 1796POPC   C3A25277  22.955  27.620   7.964
 1796POPC   C4A25278  22.978  27.640   7.664
 1796POPC   C1B25279  22.847  27.830   8.564
 1796POPC   C2B25280  22.861  27.806   8.264
 1796POPC   C3B25281  22.820  27.794   7.964
 1796POPC   C4B25282  22.809  27.856   7.664
 1797POPC   NC325283  28.359  13.586   9.464
 1797POPC   PO425284  28.328  13.616   9.164
 1797POPC   GL125285  28.348  13.626   8.864
 1797POPC   GL225286  28.487  13.533   8.864
 1797POPC   C1A25287  28.325  13.583   8.564
 1797POPC   D2A25288  28.335  13.592   8.264
 1797POPC   C3A25289  28.405  13.637   7.964
 1797POPC   C4A25290  28.359  13.643   7.664
 1797POPC   C1B25291  28.574  13.500   8.564
 1797POPC   C2B25292  28.545  13.499   8.264
 1797POPC   C3B25293  28.561  13.470   7.964
 1797POPC   C4B25294  28.573  13.482   7.664
 1798POPC   NC325295  26.850  22.180   9.464
 1798POPC   PO425296  26.844  22.203   9.164
 1798POPC   GL125297  26.824  22.171   8.864
 1798POPC   GL225298  26.796  22.302   8.864
 1798POPC   C1A25299  26.848  22.168   8.564
 1798POPC   D2A25300  26.859  22.143   8.264
 1798POPC   C3A25301  26.817  22.158   7.964
 1798POPC   C4A25302  26.775  22.138   7.664
 1798POPC   C1B25303  26.892  22.444   8.564
 1798POPC   C2B25304  26.900  22.451   8.264
 1798POPC   C3B25305  26.849  22.411   7.964
 1798POPC   C4B25306  26.855  22.434   7.664
 1799POPC   NC325307  43.111  35.315   9.464
 1799POPC   PO425308  43.081  35.316   9.164
 1799POPC   GL125309  43.093  35.315   8.864
 1799POPC   GL225310  43.280  35.337   8.864
 1799POPC   C1A25311  43.069  35.362   8.564
 1799POPC   D2A25312  43.156  35.355   8.264
 1799POPC   C3A25313  43.114  35.399   7.964
 1799POPC   C4A25314  43.080  35.385   7.664
 1799POPC   C1B25315  43.346  35.370   8.564
 1799POPC   C2B25316  43.375  35.362   8.264
 1799POPC   C3B25317  43.403  35.322   7.964
 1799POPC   C4B25318  43.344  35.381   7.664
 1800POPC   NC325319  42.379  39.274   9.464
 1800POPC   PO425320  42.373  39.261   9.164
 1800POPC   GL125321  42.307  39.273   8.864
 1800POPC   GL225322  42.373  39.153   8.864
 1800POPC   C1A25323  42.382  39.197   8.564
 1800POPC   D2A25324  42.326  39.249   8.264
 1800POPC   C3A25325  42.315  39.185   7.964
 1800POPC   C4A25326  42.286  39.189   7.664
 1800POPC   C1B25327  42.445  38.983   8.564
 1800POPC   C2B25328  42.465  38.947   8.264
 1800POPC   C3B25329  42.425  39.012   7.964
 1800POPC   C4B25330  42.383  38.958   7.664
 1801POPC   NC325331   2.723   1.171   9.464
 1801POPC   PO425332   2.789   1.213   9.164
 1801POPC   GL125333   2.724   1.231   8.864
 1801POPC   GL225334   2.787   1.333   8.864
 1801POPC   C1A25335   2.726   1.262   8.564
 1801POPC   D2A25336   2.750   1.244   8.264
 1801POPC   C3A25337   2.744   1.236   7.964
 1801POPC   C4A25338   2.771   1.218   7.664
 1801POPC   C1B25339   2.829   1.407   8.564
 1801POPC   C2B25340   2.834   1.469   8.264
 1801POPC   C3B25341   2.901   1.467   7.964
 1801POPC   C4B25342   2.859   1.454   7.664
 1802POPC   NC325343  19.018   9.798   9.464
 1802POPC   PO425344  19.019   9.791   9.164
 1802POPC   GL125345  19.022   9.725   8.864
 1802POPC   GL225346  19.180   9.786   8.864
 1802POPC   C1A25347  19.022   9.723   8.564
 1802POPC   D2A25348  19.099   9.704   8.264
 1802POPC   C3A25349  19.096   9.746   7.964
 1802POPC   C4A25350  19.053   9.747   7.664
 1802POPC   C1B25351  19.271   9.775   8.564
 1802POPC   C2B25352  19.322   9.715   8.264
 1802POPC   C3B25353  19.343   9.748   7.964
 1802POPC   C4B25354  19.287   9.694   7.664
 1803POPC   NC325355  14.354  21.382   9.464
 1803POPC   PO425356  14.392  21.383   9.164
 1803POPC   GL125357  14.453  21.403   8.864
 1803POPC   GL225358  14.275  21.295   8.864
 1803POPC   C1A25359  14.419  21.400   8.564
 1803POPC   D2A25360  14.447  21.416   8.264
 1803POPC   C3A25361  14.360  21.358   7.964
 1803POPC   C4A25362  14.354  21.347   7.664
 1803POPC   C1B25363  14.144  21.276   8.564
 1803POPC   C2B25364  14.178  21.264   8.264
 1803POPC   C3B25365  14.153  21.268   7.964
 1803POPC   C4B25366  14.127  21.285   7.664
 1804POPC   NC325367  38.423  39.191   9.464
 1804POPC   PO425368  38.495  39.195   9.164
 1804POPC   GL125369  38.473  39.271   8.864
 1804POPC   GL225370  38.602  39.243   8.864
 1804POPC   C1A25371  38.424  39.199   8.564
 1804POPC   D2A25372  38.463  39.239   8.264
 1804POPC   C3A25373  38.471  39.280   7.964
 1804POPC   C4A25374  38.422  39.247   7.664
 1804POPC   C1B25375  38.670  39.399   8.564
 1804POPC   C2B25376  38.703  39.323   8.264
 1804POPC   C3B25377  38.685  39.334   7.964
 1804POPC   C4B25378  38.654  39.330   7.664
 1805POPC   NC325379  10.538  16.772   9.464
 1805POPC   PO425380  10.491  16.772   9.164
 1805POPC   GL125381  10.544  16.695   8.864
 1805POPC   GL225382  10.472  16.662   8.864
 1805POPC   C1A25383  10.494  16.733   8.564
 1805POPC   D2A25384  10.489  16.695   8.264
 1805POPC   C3A25385  10.483  16.743   7.964
 1805POPC   C4A25386  10.551  16.683   7.664
 1805POPC   C1B25387  10.363  16.519   8.564
 1805POPC   C2B25388  10.343  16.543   8.264
 1805POPC   C3B25389  10.333  16.555   7.964
 1805POPC   C4B25390  10.338  16.512   7.664
 1806POPC   NC325391  32.290  28.410   9.464
 1806POPC   PO425392  32.211  28.393   9.164
 1806POPC   GL125393  32.202  28.323   8.864
 1806POPC   GL225394  32.305  28.239   8.864
 1806POPC   C1A25395  32.283  28.413   8.564
 1806POPC   D2A25396  32.219  28.341   8.264
 1806POPC   C3A25397  32.214  28.390   7.964
 1806POPC   C4A25398  32.213  28.333   7.664
 1806POPC   C1B25399  32.277  28.094   8.564
 1806POPC   C2B25400  32.261  28.091   8.264
 1806POPC   C3B25401  32.269  28.160   7.964
 1806POPC   C4B25402  32.254  28.133   7.664
 1807POPC   NC325403  40.800  11.282   9.464
 1807POPC   PO425404  40.809  11.319   9.164
 1807POPC   GL125405  40.801  11.276   8.864
 1807POPC   GL225406  40.850  11.326   8.864
 1807POPC   C1A25407  40.752  11.344   8.564
 1807POPC   D2A25408  40.825  11.292   8.264
 1807POPC   C3A25409  40.769  11.343   7.964
 1807POPC   C4A25410  40.777  11.270   7.664
 1807POPC   C1B25411  41.045  11.464   8.564
 1807POPC   C2B25412  40.973  11.418   8.264
 1807POPC   C3B25413  40.997  11.403   7.964
 1807POPC   C4B25414  40.987  11.398   7.664
 1808POPC   NC325415  25.314  15.951   9.464
 1808POPC   PO425416  25.314  15.946   9.164
 1808POPC   GL125417  25.230  15.998   8.864
 1808POPC   GL225418  25.198  15.924   8.864
 1808POPC   C1A25419  25.307  15.980   8.564
 1808POPC   D2A25420  25.278  15.999   8.264
 1808POPC   C3A25421  25.286  15.966   7.964
 1808POPC   C4A25422  25.302  15.931   7.664
 1808POPC   C1B25423  25.062  15.799   8.564
 1808POPC   C2B25424  25.072  15.830   8.264
 1808POPC   C3B25425  25.011  15.836   7.964
 1808POPC   C4B25426  25.046  15.890   7.664
 1809POPC   NC325427  43.130  16.697   9.464
 1809POPC   PO425428  43.069  16.723   9.164
 1809POPC   GL125429  43.147  16.739   8.864
 1809POPC   GL225430  43.063  16.828   8.864
 1809POPC   C1A25431  43.152  16.714   8.564
 1809POPC   D2A25432  43.075  16.780   8.264
 1809POPC   C3A25433  43.073  16.752   7.964
 1809POPC   C4A25434  43.088  16.758   7.664
 1809POPC   C1B25435  42.911  16.974   8.564
 1809POPC   C2B25436  42.924  16.881   8.264
 1809POPC   C3B25437  42.953  16.953   7.964
 1809POPC   C4B25438  42.919  16.959   7.664
 1810POPC   NC325439  33.028  36.123   9.464
 1810POPC   PO425440  33.046  36.089   9.164
 1810POPC   GL125441  32.984  36.151   8.864
 1810POPC   GL225442  32.893  35.994   8.864
 1810POPC   C1A25443  33.028  36.150   8.564
 1810POPC   D2A25444  33.063  36.143   8.264
 1810POPC   C3A25445  32.990  36.122   7.964
 1810POPC   C4A25446  32.975  36.139   7.664
 1810POPC   C1B25447  32.837  35.910   8.564
 1810POPC   C2B25448  32.867  35.958   8.264
 1810POPC   C3B25449  32.860  35.941   7.964
 1810POPC   C4B25450  32.809  35.984   7.664
 1811POPC   NC325451  27.569  10.563   9.464
 1811POPC   PO425452  27.580  10.548   9.164
 1811POPC   GL125453  27.590  10.527   8.864
 1811POPC   GL225454  27.641  10.610   8.864
 1811POPC   C1A25455  27.549  10.544   8.564
 1811POPC   D2A25456  27.582  10.518   8.264
 1811POPC   C3A25457  27.554  10.516   7.964
 1811POPC   C4A25458  27.612  10.484   7.664
 1811POPC   C1B25459  27.605  10.725   8.564
 1811POPC   C2B25460  27.670  10.813   8.264
 1811POPC   C3B25461  27.657  10.768   7.964
 1811POPC   C4B25462  27.643  10.754   7.664
 1812POPC   NC325463  23.703  18.247   9.464
 1812POPC   PO425464  23.702  18.267   9.164
 1812POPC   GL125465  23.715  18.243   8.864
 1812POPC   GL225466  23.603  18.407   8.864
 1812POPC   C1A25467  23.676  18.273   8.564
 1812POPC   D2A25468  23.704  18.311   8.264
 1812POPC   C3A25469  23.728  18.312   7.964
 1812POPC   C4A25470  23.684  18.274   7.664
 1812POPC   C1B25471  23.556  18.446   8.564
 1812POPC   C2B25472  23.529  18.513   8.264
 1812POPC   C3B25473  23.600  18.446   7.964
 1812POPC   C4B25474  23.584  18.496   7.664
 1813POPC   NC325475  17.477  36.930   9.464
 1813POPC   PO425476  17.477  36.943   9.164
 1813POPC   GL125477  17.486  36.939   8.864
 1813POPC   GL225478  17.533  37.040   8.864
 1813POPC   C1A25479  17.530  36.920   8.564
 1813POPC   D2A25480  17.529  36.884   8.264
 1813POPC   C3A25481  17.495  36.865   7.964
 1813POPC   C4A25482  17.508  36.903   7.664
 1813POPC   C1B25483  17.617  37.080   8.564
 1813POPC   C2B25484  17.655  37.107   8.264
 1813POPC   C3B25485  17.668  37.083   7.964
 1813POPC   C4B25486  17.628  37.135   7.664
 1814POPC   NC325487  19.793   4.359   9.464
 1814POPC   PO425488  19.829   4.309   9.164
 1814POPC   GL125489  19.819   4.325   8.864
 1814POPC   GL225490  19.783   4.201   8.864
 1814POPC   C1A25491  19.823   4.304   8.564
 1814POPC   D2A25492  19.793   4.282   8.264
 1814POPC   C3A25493  19.847   4.318   7.964
 1814POPC   C4A25494  19.844   4.320   7.664
 1814POPC   C1B25495  19.678   4.080   8.564
 1814POPC   C2B25496  19.704   4.081   8.264
 1814POPC   C3B25497  19.675   4.119   7.964
 1814POPC   C4B25498  19.733   4.056   7.664
 1815POPC   NC325499  15.142  37.714   9.464
 1815POPC   PO425500  15.206  37.674   9.164
 1815POPC   GL125501  15.175  37.726   8.864
 1815POPC   GL225502  15.272  37.549   8.864
 1815POPC   C1A25503  15.219  37.635   8.564
 1815POPC   D2A25504  15.167  37.687   8.264
 1815POPC   C3A25505  15.158  37.702   7.964
 1815POPC   C4A25506  15.179  37.682   7.664
 1815POPC   C1B25507  15.389  37.532   8.564
 1815POPC   C2B25508  15.374  37.495   8.264
 1815POPC   C3B25509  15.315  37.500   7.964
 1815POPC   C4B25510  15.367  37.533   7.664
 1816POPC   NC325511  33.800  40.778   9.464
 1816POPC   PO425512  33.833  40.809   9.164
 1816POPC   GL125513  33.845  40.741   8.864
 1816POPC   GL225514  33.718  40.628   8.864
 1816POPC   C1A25515  33.778  40.745   8.564
 1816POPC   D2A25516  33.763  40.740   8.264
 1816POPC   C3A25517  33.820  40.818   7.964
 1816POPC   C4A25518  33.758  40.758   7.664
 1816POPC   C1B25519  33.657  40.512   8.564
 1816POPC   C2B25520  33.691  40.528   8.264
 1816POPC   C3B25521  33.678  40.571   7.964
 1816POPC   C4B25522  33.737  40.520   7.664
 1817POPC   NC325523  33.759  41.527   9.464
 1817POPC   PO425524  33.812  41.595   9.164
 1817POPC   GL125525  33.790  41.517   8.864
 1817POPC   GL225526  33.674  41.696   8.864
 1817POPC   C1A25527  33.837  41.547   8.564
 1817POPC   D2A25528  33.815  41.606   8.264
 1817POPC   C3A25529  33.798  41.537   7.964
 1817POPC   C4A25530  33.841  41.517   7.664
 1817POPC   C1B25531  33.666  41.786   8.564
 1817POPC   C2B25532  33.605  41.780   8.264
 1817POPC   C3B25533  33.668  41.803   7.964
 1817POPC   C4B25534  33.648  41.730   7.664
 1818POPC   NC325535  30.665  25.276   9.464
 1818POPC   PO425536  30.674  25.277   9.164
 1818POPC   GL125537  30.677  25.230   8.864
 1818POPC   GL225538  30.852  25.242   8.864
 1818POPC   C1A25539  30.648  25.249   8.564
 1818POPC   D2A25540  30.649  25.285   8.264
 1818POPC   C3A25541  30.719  25.299   7.964
 1818POPC   C4A25542  30.655  25.233   7.664
 1818POPC   C1B25543  30.913  25.181   8.564
 1818POPC   C2B25544  30.936  25.099   8.264
 1818POPC   C3B25545  30.896  25.123   7.964
 1818POPC   C4B25546  30.869  25.101   7.664
 1819POPC   NC325547   8.209  20.599   9.464
 1819POPC   PO425548   8.237  20.609   9.164
 1819POPC   GL125549   8.186  20.618   8.864
 1819POPC   GL225550   8.152  20.748   8.864
 1819POPC   C1A25551   8.223  20.615   8.564
 1819POPC   D2A25552   8.147  20.581   8.264
 1819POPC   C3A25553   8.148  20.574   7.964
 1819POPC   C4A25554   8.184  20.640   7.664
 1819POPC   C1B25555   8.168  20.896   8.564
 1819POPC   C2B25556   8.159  20.869   8.264
 1819POPC   C3B25557   8.141  20.812   7.964
 1819POPC   C4B25558   8.106  20.811   7.664
 1820POPC   NC325559  17.533  18.333   9.464
 1820POPC   PO425560  17.503  18.249   9.164
 1820POPC   GL125561  17.475  18.283   8.864
 1820POPC   GL225562  17.455  18.131   8.864
 1820POPC   C1A25563  17.548  18.239   8.564
 1820POPC   D2A25564  17.477  18.300   8.264
 1820POPC   C3A25565  17.515  18.295   7.964
 1820POPC   C4A25566  17.483  18.298   7.664
 1820POPC   C1B25567  17.449  18.008   8.564
 1820POPC   C2B25568  17.514  17.995   8.264
 1820POPC   C3B25569  17.514  18.017   7.964
 1820POPC   C4B25570  17.454  18.000   7.664
 1821POPC   NC325571   2.024   0.391   9.464
 1821POPC   PO425572   1.988   0.476   9.164
 1821POPC   GL125573   1.949   0.416   8.864
 1821POPC   GL225574   1.945   0.520   8.864
 1821POPC   C1A25575   1.961   0.479   8.564
 1821POPC   D2A25576   1.985   0.418   8.264
 1821POPC   C3A25577   2.025   0.417   7.964
 1821POPC   C4A25578   1.986   0.451   7.664
 1821POPC   C1B25579   1.924   0.671   8.564
 1821POPC   C2B25580   1.890   0.690   8.264
 1821POPC   C3B25581   1.831   0.624   7.964
 1821POPC   C4B25582   1.876   0.667   7.664
 1822POPC   NC325583   6.686   2.779   9.464
 1822POPC   PO425584   6.685   2.748   9.164
 1822POPC   GL125585   6.685   2.804   8.864
 1822POPC   GL225586   6.553   2.681   8.864
 1822POPC   C1A25587   6.693   2.763   8.564
 1822POPC   D2A25588   6.606   2.722   8.264
 1822POPC   C3A25589   6.604   2.743   7.964
 1822POPC   C4A25590   6.658   2.773   7.664
 1822POPC   C1B25591   6.471   2.655   8.564
 1822POPC   C2B25592   6.467   2.661   8.264
 1822POPC   C3B25593   6.413   2.685   7.964
 1822POPC   C4B25594   6.467   2.685   7.664
 1823POPC   NC325595  10.538  41.559   9.464
 1823POPC   PO425596  10.541  41.516   9.164
 1823POPC   GL125597  10.503  41.585   8.864
 1823POPC   GL225598  10.606  41.661   8.864
 1823POPC   C1A25599  10.482  41.517   8.564
 1823POPC   D2A25600  10.478  41.583   8.264
 1823POPC   C3A25601  10.532  41.538   7.964
 1823POPC   C4A25602  10.516  41.597   7.664
 1823POPC   C1B25603  10.642  41.750   8.564
 1823POPC   C2B25604  10.614  41.758   8.264
 1823POPC   C3B25605  10.660  41.807   7.964
 1823POPC   C4B25606  10.698  41.743   7.664
 1824POPC   NC325607  25.274  44.680   9.464
 1824POPC   PO425608  25.294  44.662   9.164
 1824POPC   GL125609  25.259  44.698   8.864
 1824POPC   GL225610  25.299  44.526   8.864
 1824POPC   C1A25611  25.258  44.698   8.564
 1824POPC   D2A25612  25.280  44.670   8.264
 1824POPC   C3A25613  25.254  44.706   7.964
 1824POPC   C4A25614  25.220  44.694   7.664
 1824POPC   C1B25615  25.252  44.393   8.564
 1824POPC   C2B25616  25.232  44.452   8.264
 1824POPC   C3B25617  25.238  44.397   7.964
 1824POPC   C4B25618  25.236  44.376   7.664
 1825POPC   NC325619  26.800  35.356   9.464
 1825POPC   PO425620  26.807  35.326   9.164
 1825POPC   GL125621  26.838  35.313   8.864
 1825POPC   GL225622  26.914  35.289   8.864
 1825POPC   C1A25623  26.852  35.363   8.564
 1825POPC   D2A25624  26.814  35.311   8.264
 1825POPC   C3A25625  26.849  35.378   7.964
 1825POPC   C4A25626  26.833  35.366   7.664
 1825POPC   C1B25627  27.024  35.278   8.564
 1825POPC   C2B25628  27.057  35.276   8.264
 1825POPC   C3B25629  27.013  35.341   7.964
 1825POPC   C4B25630  27.080  35.296   7.664
 1826POPC   NC325631   4.310   4.359   9.464
 1826POPC   PO425632   4.268   4.306   9.164
 1826POPC   GL125633   4.329   4.320   8.864
 1826POPC   GL225634   4.373   4.421   8.864
 1826POPC   C1A25635   4.324   4.284   8.564
 1826POPC   D2A25636   4.300   4.309   8.264
 1826POPC   C3A25637   4.357   4.339   7.964
 1826POPC   C4A25638   4.326   4.291   7.664
 1826POPC   C1B25639   4.367   4.547   8.564
 1826POPC   C2B25640   4.295   4.611   8.264
 1826POPC   C3B25641   4.342   4.571   7.964
 1826POPC   C4B25642   4.310   4.532   7.664
 1827POPC   NC325643  18.263  27.636   9.464
 1827POPC   PO425644  18.306  27.595   9.164
 1827POPC   GL125645  18.307  27.553   8.864
 1827POPC   GL225646  18.184  27.621   8.864
 1827POPC   C1A25647  18.328  27.630   8.564
 1827POPC   D2A25648  18.323  27.629   8.264
 1827POPC   C3A25649  18.333  27.611   7.964
 1827POPC   C4A25650  18.308  27.639   7.664
 1827POPC   C1B25651  18.035  27.524   8.564
 1827POPC   C2B25652  18.007  27.562   8.264
 1827POPC   C3B25653  18.072  27.578   7.964
 1827POPC   C4B25654  18.009  27.511   7.664
 1828POPC   NC325655  36.932  42.355   9.464
 1828POPC   PO425656  36.880  42.345   9.164
 1828POPC   GL125657  36.855  42.333   8.864
 1828POPC   GL225658  36.920  42.163   8.864
 1828POPC   C1A25659  36.879  42.293   8.564
 1828POPC   D2A25660  36.917  42.356   8.264
 1828POPC   C3A25661  36.953  42.331   7.964
 1828POPC   C4A25662  36.952  42.285   7.664
 1828POPC   C1B25663  36.943  42.044   8.564
 1828POPC   C2B25664  36.921  42.050   8.264
 1828POPC   C3B25665  36.892  42.039   7.964
 1828POPC   C4B25666  36.954  42.087   7.664
 1829POPC   NC325667  33.820  11.261   9.464
 1829POPC   PO425668  33.825  11.304   9.164
 1829POPC   GL125669  33.772  11.265   8.864
 1829POPC   GL225670  33.886  11.303   8.864
 1829POPC   C1A25671  33.847  11.280   8.564
 1829POPC   D2A25672  33.789  11.331   8.264
 1829POPC   C3A25673  33.781  11.334   7.964
 1829POPC   C4A25674  33.790  11.314   7.664
 1829POPC   C1B25675  34.023  11.428   8.564
 1829POPC   C2B25676  34.018  11.428   8.264
 1829POPC   C3B25677  34.027  11.394   7.964
 1829POPC   C4B25678  34.078  11.399   7.664
 1830POPC   NC325679  26.843   7.467   9.464
 1830POPC   PO425680  26.815   7.451   9.164
 1830POPC   GL125681  26.828   7.458   8.864
 1830POPC   GL225682  26.721   7.380   8.864
 1830POPC   C1A25683  26.856   7.447   8.564
 1830POPC   D2A25684  26.862   7.417   8.264
 1830POPC   C3A25685  26.856   7.431   7.964
 1830POPC   C4A25686  26.837   7.466   7.664
 1830POPC   C1B25687  26.566   7.270   8.564
 1830POPC   C2B25688  26.548   7.358   8.264
 1830POPC   C3B25689  26.604   7.345   7.964
 1830POPC   C4B25690  26.577   7.300   7.664
 1831POPC   NC325691  34.584  43.124   9.464
 1831POPC   PO425692  34.565  43.109   9.164
 1831POPC   GL125693  34.531  43.107   8.864
 1831POPC   GL225694  34.508  43.204   8.864
 1831POPC   C1A25695  34.546  43.069   8.564
 1831POPC   D2A25696  34.585  43.065   8.264
 1831POPC   C3A25697  34.529  43.127   7.964
 1831POPC   C4A25698  34.544  43.126   7.664
 1831POPC   C1B25699  34.485  43.354   8.564
 1831POPC   C2B25700  34.474  43.351   8.264
 1831POPC   C3B25701  34.496  43.309   7.964
 1831POPC   C4B25702  34.479  43.296   7.664
 1832POPC   NC325703  33.753  37.665   9.464
 1832POPC   PO425704  33.837  37.719   9.164
 1832POPC   GL125705  33.795  37.714   8.864
 1832POPC   GL225706  33.692  37.820   8.864
 1832POPC   C1A25707  33.825  37.712   8.564
 1832POPC   D2A25708  33.821  37.684   8.264
 1832POPC   C3A25709  33.802  37.671   7.964
 1832POPC   C4A25710  33.778  37.700   7.664
 1832POPC   C1B25711  33.593  37.838   8.564
 1832POPC   C2B25712  33.658  37.841   8.264
 1832POPC   C3B25713  33.601  37.859   7.964
 1832POPC   C4B25714  33.645  37.835   7.664
 1833POPC   NC325715   2.769  21.365   9.464
 1833POPC   PO425716   2.723  21.340   9.164
 1833POPC   GL125717   2.803  21.345   8.864
 1833POPC   GL225718   2.737  21.280   8.864
 1833POPC   C1A25719   2.814  21.415   8.564
 1833POPC   D2A25720   2.758  21.355   8.264
 1833POPC   C3A25721   2.808  21.348   7.964
 1833POPC   C4A25722   2.780  21.362   7.664
 1833POPC   C1B25723   2.780  21.185   8.564
 1833POPC   C2B25724   2.783  21.187   8.264
 1833POPC   C3B25725   2.818  21.089   7.964
 1833POPC   C4B25726   2.823  21.096   7.664
 1834POPC   NC325727   7.420  29.182   9.464
 1834POPC   PO425728   7.414  29.165   9.164
 1834POPC   GL125729   7.454  29.128   8.864
 1834POPC   GL225730   7.525  29.287   8.864
 1834POPC   C1A25731   7.425  29.141   8.564
 1834POPC   D2A25732   7.433  29.108   8.264
 1834POPC   C3A25733   7.397  29.123   7.964
 1834POPC   C4A25734   7.384  29.123   7.664
 1834POPC   C1B25735   7.536  29.346   8.564
 1834POPC   C2B25736   7.626  29.366   8.264
 1834POPC   C3B25737   7.554  29.300   7.964
 1834POPC   C4B25738   7.580  29.306   7.664
 1835POPC   NC325739  33.787  25.228   9.464
 1835POPC   PO425740  33.827  25.224   9.164
 1835POPC   GL125741  33.826  25.220   8.864
 1835POPC   GL225742  33.832  25.106   8.864
 1835POPC   C1A25743  33.811  25.301   8.564
 1835POPC   D2A25744  33.793  25.254   8.264
 1835POPC   C3A25745  33.772  25.256   7.964
 1835POPC   C4A25746  33.757  25.309   7.664
 1835POPC   C1B25747  33.902  25.009   8.564
 1835POPC   C2B25748  33.905  25.056   8.264
 1835POPC   C3B25749  33.878  25.018   7.964
 1835POPC   C4B25750  33.916  25.012   7.664
 1836POPC   NC325751  36.109  39.961   9.464
 1836POPC   PO425752  36.130  39.981   9.164
 1836POPC   GL125753  36.106  40.007   8.864
 1836POPC   GL225754  35.999  40.100   8.864
 1836POPC   C1A25755  36.109  40.053   8.564
 1836POPC   D2A25756  36.078  39.959   8.264
 1836POPC   C3A25757  36.111  40.001   7.964
 1836POPC   C4A25758  36.156  40.024   7.664
 1836POPC   C1B25759  35.957  40.227   8.564
 1836POPC   C2B25760  35.939  40.233   8.264
 1836POPC   C3B25761  35.987  40.203   7.964
 1836POPC   C4B25762  35.959  40.226   7.664
 1837POPC   NC325763  16.758  38.476   9.464
 1837POPC   PO425764  16.777  38.492   9.164
 1837POPC   GL125765  16.749  38.441   8.864
 1837POPC   GL225766  16.734  38.557   8.864
 1837POPC   C1A25767  16.752  38.433   8.564
 1837POPC   D2A25768  16.688  38.493   8.264
 1837POPC   C3A25769  16.732  38.497   7.964
 1837POPC   C4A25770  16.737  38.461   7.664
 1837POPC   C1B25771  16.778  38.675   8.564
 1837POPC   C2B25772  16.787  38.684   8.264
 1837POPC   C3B25773  16.768  38.668   7.964
 1837POPC   C4B25774  16.830  38.707   7.664
 1838POPC   NC325775  32.980  15.910   9.464
 1838POPC   PO425776  33.045  15.972   9.164
 1838POPC   GL125777  33.006  15.934   8.864
 1838POPC   GL225778  32.967  15.855   8.864
 1838POPC   C1A25779  33.043  15.923   8.564
 1838POPC   D2A25780  33.066  15.985   8.264
 1838POPC   C3A25781  33.023  15.911   7.964
 1838POPC   C4A25782  33.058  15.933   7.664
 1838POPC   C1B25783  33.013  15.706   8.564
 1838POPC   C2B25784  32.956  15.664   8.264
 1838POPC   C3B25785  32.946  15.698   7.964
 1838POPC   C4B25786  32.981  15.711   7.664
 1839POPC   NC325787  24.446  19.833   9.464
 1839POPC   PO425788  24.450  19.809   9.164
 1839POPC   GL125789  24.475  19.817   8.864
 1839POPC   GL225790  24.337  19.811   8.864
 1839POPC   C1A25791  24.495  19.850   8.564
 1839POPC   D2A25792  24.538  19.849   8.264
 1839POPC   C3A25793  24.486  19.791   7.964
 1839POPC   C4A25794  24.533  19.880   7.664
 1839POPC   C1B25795  24.208  19.763   8.564
 1839POPC   C2B25796  24.198  19.740   8.264
 1839POPC   C3B25797  24.261  19.830   7.964
 1839POPC   C4B25798  24.268  19.829   7.664
 1840POPC   NC325799  18.268  30.703   9.464
 1840POPC   PO425800  18.300  30.676   9.164
 1840POPC   GL125801  18.237  30.679   8.864
 1840POPC   GL225802  18.310  30.595   8.864
 1840POPC   C1A25803  18.315  30.694   8.564
 1840POPC   D2A25804  18.257  30.694   8.264
 1840POPC   C3A25805  18.256  30.691   7.964
 1840POPC   C4A25806  18.323  30.701   7.664
 1840POPC   C1B25807  18.363  30.491   8.564
 1840POPC   C2B25808  18.356  30.438   8.264
 1840POPC   C3B25809  18.412  30.452   7.964
 1840POPC   C4B25810  18.412  30.474   7.664
 1841POPC   NC325811   6.614  30.654   9.464
 1841POPC   PO425812   6.609  30.666   9.164
 1841POPC   GL125813   6.653  30.746   8.864
 1841POPC   GL225814   6.495  30.651   8.864
 1841POPC   C1A25815   6.630  30.708   8.564
 1841POPC   D2A25816   6.630  30.667   8.264
 1841POPC   C3A25817   6.618  30.674   7.964
 1841POPC   C4A25818   6.628  30.675   7.664
 1841POPC   C1B25819   6.420  30.593   8.564
 1841POPC   C2B25820   6.354  30.680   8.264
 1841POPC   C3B25821   6.443  30.623   7.964
 1841POPC   C4B25822   6.424  30.673   7.664
 1842POPC   NC325823   5.106  17.504   9.464
 1842POPC   PO425824   5.113  17.495   9.164
 1842POPC   GL125825   5.049  17.493   8.864
 1842POPC   GL225826   5.130  17.681   8.864
 1842POPC   C1A25827   5.049  17.497   8.564
 1842POPC   D2A25828   5.073  17.459   8.264
 1842POPC   C3A25829   5.080  17.497   7.964
 1842POPC   C4A25830   5.048  17.513   7.664
 1842POPC   C1B25831   5.165  17.738   8.564
 1842POPC   C2B25832   5.118  17.786   8.264
 1842POPC   C3B25833   5.167  17.718   7.964
 1842POPC   C4B25834   5.103  17.789   7.664
 1843POPC   NC325835  19.839  43.926   9.464
 1843POPC   PO425836  19.881  43.863   9.164
 1843POPC   GL125837  19.804  43.907   8.864
 1843POPC   GL225838  19.900  43.966   8.864
 1843POPC   C1A25839  19.865  43.863   8.564
 1843POPC   D2A25840  19.824  43.836   8.264
 1843POPC   C3A25841  19.857  43.874   7.964
 1843POPC   C4A25842  19.794  43.853   7.664
 1843POPC   C1B25843  19.901  44.115   8.564
 1843POPC   C2B25844  19.847  44.166   8.264
 1843POPC   C3B25845  19.919  44.144   7.964
 1843POPC   C4B25846  19.940  44.155   7.664
 1844POPC   NC325847  43.878  19.100   9.464
 1844POPC   PO425848  43.917  19.096   9.164
 1844POPC   GL125849  43.879  19.040   8.864
 1844POPC   GL225850  43.943  18.968   8.864
 1844POPC   C1A25851  43.881  19.026   8.564
 1844POPC   D2A25852  43.920  19.061   8.264
 1844POPC   C3A25853  43.884  19.070   7.964
 1844POPC   C4A25854  43.860  19.043   7.664
 1844POPC   C1B25855  44.092  18.902   8.564
 1844POPC   C2B25856  44.134  18.910   8.264
 1844POPC   C3B25857  44.067  18.921   7.964
 1844POPC   C4B25858  44.099  18.964   7.664
 1845POPC   NC325859   3.541  36.084   9.464
 1845POPC   PO425860   3.525  36.107   9.164
 1845POPC   GL125861   3.531  36.159   8.864
 1845POPC   GL225862   3.669  36.255   8.864
 1845POPC   C1A25863   3.579  36.144   8.564
 1845POPC   D2A25864   3.512  36.080   8.264
 1845POPC   C3A25865   3.536  36.117   7.964
 1845POPC   C4A25866   3.551  36.156   7.664
 1845POPC   C1B25867   3.732  36.326   8.564
 1845POPC   C2B25868   3.698  36.352   8.264
 1845POPC   C3B25869   3.693  36.335   7.964
 1845POPC   C4B25870   3.744  36.269   7.664
 1846POPC   NC325871  18.250  42.286   9.464
 1846POPC   PO425872  18.271  42.359   9.164
 1846POPC   GL125873  18.323  42.301   8.864
 1846POPC   GL225874  18.234  42.484   8.864
 1846POPC   C1A25875  18.234  42.287   8.564
 1846POPC   D2A25876  18.291  42.366   8.264
 1846POPC   C3A25877  18.254  42.356   7.964
 1846POPC   C4A25878  18.238  42.354   7.664
 1846POPC   C1B25879  18.168  42.570   8.564
 1846POPC   C2B25880  18.195  42.552   8.264
 1846POPC   C3B25881  18.217  42.580   7.964
 1846POPC   C4B25882  18.138  42.572   7.664
 1847POPC   NC325883   4.270  35.360   9.464
 1847POPC   PO425884   4.284  35.331   9.164
 1847POPC   GL125885   4.310  35.304   8.864
 1847POPC   GL225886   4.389  35.510   8.864
 1847POPC   C1A25887   4.276  35.376   8.564
 1847POPC   D2A25888   4.321  35.400   8.264
 1847POPC   C3A25889   4.345  35.305   7.964
 1847POPC   C4A25890   4.323  35.391   7.664
 1847POPC   C1B25891   4.413  35.572   8.564
 1847POPC   C2B25892   4.418  35.603   8.264
 1847POPC   C3B25893   4.392  35.595   7.964
 1847POPC   C4B25894   4.363  35.594   7.664
 1848POPC   NC325895  13.610  15.960   9.464
 1848POPC   PO425896  13.620  15.913   9.164
 1848POPC   GL125897  13.646  15.937   8.864
 1848POPC   GL225898  13.571  15.915   8.864
 1848POPC   C1A25899  13.641  15.984   8.564
 1848POPC   D2A25900  13.627  15.989   8.264
 1848POPC   C3A25901  13.623  15.993   7.964
 1848POPC   C4A25902  13.656  15.906   7.664
 1848POPC   C1B25903  13.429  15.772   8.564
 1848POPC   C2B25904  13.455  15.767   8.264
 1848POPC   C3B25905  13.417  15.813   7.964
 1848POPC   C4B25906  13.405  15.841   7.664
 1849POPC   NC325907  37.677  36.869   9.464
 1849POPC   PO425908  37.706  36.925   9.164
 1849POPC   GL125909  37.719  36.932   8.864
 1849POPC   GL225910  37.536  36.819   8.864
 1849POPC   C1A25911  37.690  36.888   8.564
 1849POPC   D2A25912  37.677  36.877   8.264
 1849POPC   C3A25913  37.711  36.857   7.964
 1849POPC   C4A25914  37.690  36.906   7.664
 1849POPC   C1B25915  37.491  36.759   8.564
 1849POPC   C2B25916  37.436  36.820   8.264
 1849POPC   C3B25917  37.495  36.830   7.964
 1849POPC   C4B25918  37.487  36.767   7.664
 1850POPC   NC325919  25.248  41.559   9.464
 1850POPC   PO425920  25.273  41.600   9.164
 1850POPC   GL125921  25.281  41.550   8.864
 1850POPC   GL225922  25.288  41.638   8.864
 1850POPC   C1A25923  25.229  41.590   8.564
 1850POPC   D2A25924  25.314  41.576   8.264
 1850POPC   C3A25925  25.267  41.527   7.964
 1850POPC   C4A25926  25.221  41.587   7.664
 1850POPC   C1B25927  25.314  41.820   8.564
 1850POPC   C2B25928  25.307  41.804   8.264
 1850POPC   C3B25929  25.309  41.751   7.964
 1850POPC   C4B25930  25.317  41.825   7.664
 1851POPC   NC325931   2.766   0.429   9.464
 1851POPC   PO425932   2.723   0.447   9.164
 1851POPC   GL125933   2.766   0.442   8.864
 1851POPC   GL225934   2.889   0.493   8.864
 1851POPC   C1A25935   2.759   0.420   8.564
 1851POPC   D2A25936   2.756   0.449   8.264
 1851POPC   C3A25937   2.724   0.478   7.964
 1851POPC   C4A25938   2.737   0.452   7.664
 1851POPC   C1B25939   3.019   0.438   8.564
 1851POPC   C2B25940   2.990   0.475   8.264
 1851POPC   C3B25941   3.022   0.448   7.964
 1851POPC   C4B25942   2.992   0.445   7.664
 1852POPC   NC325943   5.839  31.442   9.464
 1852POPC   PO425944   5.867  31.449   9.164
 1852POPC   GL125945   5.863  31.459   8.864
 1852POPC   GL225946   5.874  31.393   8.864
 1852POPC   C1A25947   5.916  31.474   8.564
 1852POPC   D2A25948   5.909  31.496   8.264
 1852POPC   C3A25949   5.885  31.476   7.964
 1852POPC   C4A25950   5.880  31.521   7.664
 1852POPC   C1B25951   6.003  31.257   8.564
 1852POPC   C2B25952   5.979  31.198   8.264
 1852POPC   C3B25953   5.972  31.212   7.964
 1852POPC   C4B25954   5.982  31.281   7.664
 1853POPC   NC325955  36.868  22.169   9.464
 1853POPC   PO425956  36.873  22.184   9.164
 1853POPC   GL125957  36.939  22.117   8.864
 1853POPC   GL225958  37.043  22.164   8.864
 1853POPC   C1A25959  36.940  22.169   8.564
 1853POPC   D2A25960  36.863  22.129   8.264
 1853POPC   C3A25961  36.927  22.204   7.964
 1853POPC   C4A25962  36.949  22.160   7.664
 1853POPC   C1B25963  37.150  22.109   8.564
 1853POPC   C2B25964  37.181  22.131   8.264
 1853POPC   C3B25965  37.153  22.152   7.964
 1853POPC   C4B25966  37.156  22.177   7.664
 1854POPC   NC325967  40.037   5.849   9.464
 1854POPC   PO425968  40.012   5.890   9.164
 1854POPC   GL125969  40.023   5.857   8.864
 1854POPC   GL225970  40.087   5.762   8.864
 1854POPC   C1A25971  39.992   5.883   8.564
 1854POPC   D2A25972  39.995   5.843   8.264
 1854POPC   C3A25973  39.970   5.847   7.964
 1854POPC   C4A25974  40.018   5.832   7.664
 1854POPC   C1B25975  40.251   5.723   8.564
 1854POPC   C2B25976  40.252   5.751   8.264
 1854POPC   C3B25977  40.217   5.770   7.964
 1854POPC   C4B25978  40.181   5.760   7.664
 1855POPC   NC325979  10.483  15.152   9.464
 1855POPC   PO425980  10.534  15.225   9.164
 1855POPC   GL125981  10.520  15.153   8.864
 1855POPC   GL225982  10.650  15.164   8.864
 1855POPC   C1A25983  10.510  15.145   8.564
 1855POPC   D2A25984  10.521  15.149   8.264
 1855POPC   C3A25985  10.567  15.158   7.964
 1855POPC   C4A25986  10.533  15.150   7.664
 1855POPC   C1B25987  10.809  15.134   8.564
 1855POPC   C2B25988  10.805  15.203   8.264
 1855POPC   C3B25989  10.806  15.202   7.964
 1855POPC   C4B25990  10.793  15.178   7.664
 1856POPC   NC325991  43.091  22.897   9.464
 1856POPC   PO425992  43.153  22.918   9.164
 1856POPC   GL125993  43.157  22.933   8.864
 1856POPC   GL225994  43.165  22.841   8.864
 1856POPC   C1A25995  43.152  22.975   8.564
 1856POPC   D2A25996  43.098  22.913   8.264
 1856POPC   C3A25997  43.137  22.939   7.964
 1856POPC   C4A25998  43.110  22.913   7.664
 1856POPC   C1B25999  43.275  22.710   8.564
 1856POPC   C2B26000  43.197  22.693   8.264
 1856POPC   C3B26001  43.249  22.691   7.964
 1856POPC   C4B26002  43.282  22.712   7.664
 1857POPC   NC326003  43.122  34.553   9.464
 1857POPC   PO426004  43.112  34.535   9.164
 1857POPC   GL126005  43.135  34.549   8.864
 1857POPC   GL226006  43.024  34.659   8.864
 1857POPC   C1A26007  43.146  34.622   8.564
 1857POPC   D2A26008  43.075  34.532   8.264
 1857POPC   C3A26009  43.089  34.582   7.964
 1857POPC   C4A26010  43.094  34.568   7.664
 1857POPC   C1B26011  42.875  34.687   8.564
 1857POPC   C2B26012  42.902  34.700   8.264
 1857POPC   C3B26013  42.860  34.738   7.964
 1857POPC   C4B26014  42.895  34.710   7.664
 1858POPC   NC326015  11.274   8.976   9.464
 1858POPC   PO426016  11.337   8.940   9.164
 1858POPC   GL126017  11.332   8.989   8.864
 1858POPC   GL226018  11.154   8.919   8.864
 1858POPC   C1A26019  11.336   8.979   8.564
 1858POPC   D2A26020  11.324   8.979   8.264
 1858POPC   C3A26021  11.254   8.977   7.964
 1858POPC   C4A26022  11.251   8.923   7.664
 1858POPC   C1B26023  11.092   8.843   8.564
 1858POPC   C2B26024  11.062   8.853   8.264
 1858POPC   C3B26025  11.123   8.875   7.964
 1858POPC   C4B26026  11.088   8.820   7.664
 1859POPC   NC326027  19.797  23.720   9.464
 1859POPC   PO426028  19.866  23.725   9.164
 1859POPC   GL126029  19.803  23.680   8.864
 1859POPC   GL226030  19.854  23.833   8.864
 1859POPC   C1A26031  19.804  23.745   8.564
 1859POPC   D2A26032  19.785  23.733   8.264
 1859POPC   C3A26033  19.871  23.670   7.964
 1859POPC   C4A26034  19.868  23.723   7.664
 1859POPC   C1B26035  19.952  23.908   8.564
 1859POPC   C2B26036  19.962  23.929   8.264
 1859POPC   C3B26037  19.957  23.993   7.964
 1859POPC   C4B26038  19.921  23.922   7.664
 1860POPC   NC326039  33.830  17.514   9.464
 1860POPC   PO426040  33.760  17.487   9.164
 1860POPC   GL126041  33.832  17.467   8.864
 1860POPC   GL226042  33.781  17.405   8.864
 1860POPC   C1A26043  33.816  17.530   8.564
 1860POPC   D2A26044  33.819  17.527   8.264
 1860POPC   C3A26045  33.797  17.469   7.964
 1860POPC   C4A26046  33.812  17.475   7.664
 1860POPC   C1B26047  33.695  17.279   8.564
 1860POPC   C2B26048  33.646  17.296   8.264
 1860POPC   C3B26049  33.693  17.275   7.964
 1860POPC   C4B26050  33.654  17.249   7.664
 1861POPC   NC326051   8.955  32.236   9.464
 1861POPC   PO426052   8.993  32.213   9.164
 1861POPC   GL126053   8.988  32.298   8.864
 1861POPC   GL226054   8.972  32.154   8.864
 1861POPC   C1A26055   8.995  32.258   8.564
 1861POPC   D2A26056   9.010  32.239   8.264
 1861POPC   C3A26057   8.988  32.199   7.964
 1861POPC   C4A26058   8.933  32.243   7.664
 1861POPC   C1B26059   8.852  31.970   8.564
 1861POPC   C2B26060   8.866  32.039   8.264
 1861POPC   C3B26061   8.907  32.010   7.964
 1861POPC   C4B26062   8.835  32.017   7.664
 1862POPC   NC326063  28.380  29.928   9.464
 1862POPC   PO426064  28.366  29.937   9.164
 1862POPC   GL126065  28.321  29.950   8.864
 1862POPC   GL226066  28.429  30.011   8.864
 1862POPC   C1A26067  28.354  29.884   8.564
 1862POPC   D2A26068  28.403  29.897   8.264
 1862POPC   C3A26069  28.333  29.942   7.964
 1862POPC   C4A26070  28.415  29.903   7.664
 1862POPC   C1B26071  28.489  30.102   8.564
 1862POPC   C2B26072  28.461  30.142   8.264
 1862POPC   C3B26073  28.466  30.157   7.964
 1862POPC   C4B26074  28.470  30.177   7.664
 1863POPC   NC326075  20.636  34.536   9.464
 1863POPC   PO426076  20.573  34.575   9.164
 1863POPC   GL126077  20.619  34.577   8.864
 1863POPC   GL226078  20.588  34.725   8.864
 1863POPC   C1A26079  20.594  34.551   8.564
 1863POPC   D2A26080  20.636  34.528   8.264
 1863POPC   C3A26081  20.607  34.564   7.964
 1863POPC   C4A26082  20.613  34.570   7.664
 1863POPC   C1B26083  20.457  34.821   8.564
 1863POPC   C2B26084  20.465  34.788   8.264
 1863POPC   C3B26085  20.457  34.734   7.964
 1863POPC   C4B26086  20.440  34.826   7.664
 1864POPC   NC326087  26.831   3.531   9.464
 1864POPC   PO426088  26.801   3.529   9.164
 1864POPC   GL126089  26.815   3.556   8.864
 1864POPC   GL226090  26.728   3.658   8.864
 1864POPC   C1A26091  26.802   3.502   8.564
 1864POPC   D2A26092  26.825   3.566   8.264
 1864POPC   C3A26093  26.780   3.505   7.964
 1864POPC   C4A26094  26.804   3.532   7.664
 1864POPC   C1B26095  26.665   3.675   8.564
 1864POPC   C2B26096  26.612   3.686   8.264
 1864POPC   C3B26097  26.657   3.673   7.964
 1864POPC   C4B26098  26.689   3.734   7.664
 1865POPC   NC326099  12.897  15.191   9.464
 1865POPC   PO426100  12.863  15.146   9.164
 1865POPC   GL126101  12.897  15.224   8.864
 1865POPC   GL226102  12.867  15.345   8.864
 1865POPC   C1A26103  12.882  15.217   8.564
 1865POPC   D2A26104  12.803  15.184   8.264
 1865POPC   C3A26105  12.818  15.194   7.964
 1865POPC   C4A26106  12.820  15.200   7.664
 1865POPC   C1B26107  12.755  15.399   8.564
 1865POPC   C2B26108  12.824  15.436   8.264
 1865POPC   C3B26109  12.760  15.415   7.964
 1865POPC   C4B26110  12.834  15.402   7.664
 1866POPC   NC326111   8.208   8.200   9.464
 1866POPC   PO426112   8.179   8.184   9.164
 1866POPC   GL126113   8.178   8.239   8.864
 1866POPC   GL226114   8.267   8.073   8.864
 1866POPC   C1A26115   8.207   8.165   8.564
 1866POPC   D2A26116   8.186   8.213   8.264
 1866POPC   C3A26117   8.192   8.163   7.964
 1866POPC   C4A26118   8.149   8.223   7.664
 1866POPC   C1B26119   8.376   8.089   8.564
 1866POPC   C2B26120   8.429   8.044   8.264
 1866POPC   C3B26121   8.375   8.008   7.964
 1866POPC   C4B26122   8.437   8.066   7.664
 1867POPC   NC326123  33.765  36.119   9.464
 1867POPC   PO426124  33.796  36.097   9.164
 1867POPC   GL126125  33.767  36.119   8.864
 1867POPC   GL226126  33.708  36.210   8.864
 1867POPC   C1A26127  33.821  36.136   8.564
 1867POPC   D2A26128  33.844  36.123   8.264
 1867POPC   C3A26129  33.819  36.102   7.964
 1867POPC   C4A26130  33.807  36.143   7.664
 1867POPC   C1B26131  33.645  36.339   8.564
 1867POPC   C2B26132  33.729  36.387   8.264
 1867POPC   C3B26133  33.649  36.338   7.964
 1867POPC   C4B26134  33.695  36.331   7.664
 1868POPC   NC326135  33.014  39.992   9.464
 1868POPC   PO426136  33.014  39.980   9.164
 1868POPC   GL126137  33.000  39.958   8.864
 1868POPC   GL226138  33.016  40.156   8.864
 1868POPC   C1A26139  33.010  40.051   8.564
 1868POPC   D2A26140  33.059  40.009   8.264
 1868POPC   C3A26141  33.004  40.032   7.964
 1868POPC   C4A26142  33.050  40.019   7.664
 1868POPC   C1B26143  33.033  40.278   8.564
 1868POPC   C2B26144  32.974  40.255   8.264
 1868POPC   C3B26145  33.022  40.238   7.964
 1868POPC   C4B26146  32.963  40.225   7.664
 1869POPC   NC326147   8.205  31.511   9.464
 1869POPC   PO426148   8.239  31.480   9.164
 1869POPC   GL126149   8.147  31.453   8.864
 1869POPC   GL226150   8.185  31.316   8.864
 1869POPC   C1A26151   8.210  31.430   8.564
 1869POPC   D2A26152   8.153  31.522   8.264
 1869POPC   C3A26153   8.182  31.482   7.964
 1869POPC   C4A26154   8.162  31.500   7.664
 1869POPC   C1B26155   8.103  31.259   8.564
 1869POPC   C2B26156   8.198  31.236   8.264
 1869POPC   C3B26157   8.168  31.254   7.964
 1869POPC   C4B26158   8.130  31.190   7.664
 1870POPC   NC326159  36.924  19.835   9.464
 1870POPC   PO426160  36.907  19.840   9.164
 1870POPC   GL126161  36.935  19.879   8.864
 1870POPC   GL226162  36.841  19.948   8.864
 1870POPC   C1A26163  36.881  19.857   8.564
 1870POPC   D2A26164  36.912  19.785   8.264
 1870POPC   C3A26165  36.924  19.796   7.964
 1870POPC   C4A26166  36.866  19.817   7.664
 1870POPC   C1B26167  36.688  20.042   8.564
 1870POPC   C2B26168  36.752  20.022   8.264
 1870POPC   C3B26169  36.698  20.042   7.964
 1870POPC   C4B26170  36.762  20.048   7.664
 1871POPC   NC326171   2.730   6.648   9.464
 1871POPC   PO426172   2.788   6.627   9.164
 1871POPC   GL126173   2.785   6.682   8.864
 1871POPC   GL226174   2.778   6.753   8.864
 1871POPC   C1A26175   2.767   6.677   8.564
 1871POPC   D2A26176   2.780   6.617   8.264
 1871POPC   C3A26177   2.807   6.600   7.964
 1871POPC   C4A26178   2.795   6.612   7.664
 1871POPC   C1B26179   2.799   6.875   8.564
 1871POPC   C2B26180   2.856   6.893   8.264
 1871POPC   C3B26181   2.846   6.886   7.964
 1871POPC   C4B26182   2.821   6.875   7.664
 1872POPC   NC326183   2.779  16.754   9.464
 1872POPC   PO426184   2.733  16.754   9.164
 1872POPC   GL126185   2.782  16.755   8.864
 1872POPC   GL226186   2.604  16.798   8.864
 1872POPC   C1A26187   2.732  16.684   8.564
 1872POPC   D2A26188   2.734  16.699   8.264
 1872POPC   C3A26189   2.757  16.700   7.964
 1872POPC   C4A26190   2.749  16.694   7.664
 1872POPC   C1B26191   2.574  16.800   8.564
 1872POPC   C2B26192   2.564  16.795   8.264
 1872POPC   C3B26193   2.567  16.855   7.964
 1872POPC   C4B26194   2.508  16.854   7.664
 1873POPC   NC326195  31.490  33.835   9.464
 1873POPC   PO426196  31.500  33.842   9.164
 1873POPC   GL126197  31.460  33.777   8.864
 1873POPC   GL226198  31.365  33.664   8.864
 1873POPC   C1A26199  31.431  33.768   8.564
 1873POPC   D2A26200  31.461  33.771   8.264
 1873POPC   C3A26201  31.462  33.781   7.964
 1873POPC   C4A26202  31.519  33.810   7.664
 1873POPC   C1B26203  31.314  33.665   8.564
 1873POPC   C2B26204  31.299  33.610   8.264
 1873POPC   C3B26205  31.330  33.576   7.964
 1873POPC   C4B26206  31.319  33.582   7.664
 1874POPC   NC326207  12.107  10.477   9.464
 1874POPC   PO426208  12.098  10.516   9.164
 1874POPC   GL126209  12.040  10.509   8.864
 1874POPC   GL226210  11.979  10.558   8.864
 1874POPC   C1A26211  12.108  10.481   8.564
 1874POPC   D2A26212  12.064  10.502   8.264
 1874POPC   C3A26213  12.121  10.569   7.964
 1874POPC   C4A26214  12.059  10.528   7.664
 1874POPC   C1B26215  11.810  10.651   8.564
 1874POPC   C2B26216  11.870  10.652   8.264
 1874POPC   C3B26217  11.848  10.635   7.964
 1874POPC   C4B26218  11.891  10.635   7.664
 1875POPC   NC326219   0.435   9.732   9.464
 1875POPC   PO426220   0.452   9.784   9.164
 1875POPC   GL126221   0.401   9.767   8.864
 1875POPC   GL226222   0.303   9.718   8.864
 1875POPC   C1A26223   0.472   9.729   8.564
 1875POPC   D2A26224   0.396   9.783   8.264
 1875POPC   C3A26225   0.395   9.773   7.964
 1875POPC   C4A26226   0.418   9.788   7.664
 1875POPC   C1B26227   0.237   9.724   8.564
 1875POPC   C2B26228   0.216   9.808   8.264
 1875POPC   C3B26229   0.190   9.804   7.964
 1875POPC   C4B26230   0.189   9.765   7.664
 1876POPC   NC326231   9.725  19.106   9.464
 1876POPC   PO426232   9.731  19.048   9.164
 1876POPC   GL126233   9.738  19.025   8.864
 1876POPC   GL226234   9.659  19.074   8.864
 1876POPC   C1A26235   9.746  19.018   8.564
 1876POPC   D2A26236   9.796  19.066   8.264
 1876POPC   C3A26237   9.757  19.080   7.964
 1876POPC   C4A26238   9.730  19.071   7.664
 1876POPC   C1B26239   9.495  19.203   8.564
 1876POPC   C2B26240   9.494  19.119   8.264
 1876POPC   C3B26241   9.569  19.197   7.964
 1876POPC   C4B26242   9.493  19.212   7.664
 1877POPC   NC326243  19.022   6.597   9.464
 1877POPC   PO426244  19.087   6.662   9.164
 1877POPC   GL126245  19.014   6.670   8.864
 1877POPC   GL226246  19.070   6.559   8.864
 1877POPC   C1A26247  19.012   6.688   8.564
 1877POPC   D2A26248  19.074   6.679   8.264
 1877POPC   C3A26249  19.092   6.674   7.964
 1877POPC   C4A26250  19.077   6.692   7.664
 1877POPC   C1B26251  19.128   6.405   8.564
 1877POPC   C2B26252  19.062   6.385   8.264
 1877POPC   C3B26253  19.032   6.427   7.964
 1877POPC   C4B26254  19.098   6.445   7.664
 1878POPC   NC326255  33.812  10.543   9.464
 1878POPC   PO426256  33.848  10.520   9.164
 1878POPC   GL126257  33.840  10.547   8.864
 1878POPC   GL226258  33.922  10.470   8.864
 1878POPC   C1A26259  33.784  10.544   8.564
 1878POPC   D2A26260  33.834  10.478   8.264
 1878POPC   C3A26261  33.787  10.554   7.964
 1878POPC   C4A26262  33.823  10.536   7.664
 1878POPC   C1B26263  34.021  10.500   8.564
 1878POPC   C2B26264  34.049  10.458   8.264
 1878POPC   C3B26265  34.095  10.467   7.964
 1878POPC   C4B26266  34.004  10.498   7.664
 1879POPC   NC326267  14.422  19.804   9.464
 1879POPC   PO426268  14.403  19.845   9.164
 1879POPC   GL126269  14.374  19.884   8.864
 1879POPC   GL226270  14.534  19.887   8.864
 1879POPC   C1A26271  14.362  19.858   8.564
 1879POPC   D2A26272  14.419  19.791   8.264
 1879POPC   C3A26273  14.435  19.813   7.964
 1879POPC   C4A26274  14.410  19.856   7.664
 1879POPC   C1B26275  14.614  19.958   8.564
 1879POPC   C2B26276  14.579  19.955   8.264
 1879POPC   C3B26277  14.564  19.961   7.964
 1879POPC   C4B26278  14.549  19.979   7.664
 1880POPC   NC326279  40.746  37.694   9.464
 1880POPC   PO426280  40.772  37.638   9.164
 1880POPC   GL126281  40.752  37.697   8.864
 1880POPC   GL226282  40.686  37.697   8.864
 1880POPC   C1A26283  40.811  37.629   8.564
 1880POPC   D2A26284  40.748  37.658   8.264
 1880POPC   C3A26285  40.740  37.679   7.964
 1880POPC   C4A26286  40.797  37.652   7.664
 1880POPC   C1B26287  40.560  37.735   8.564
 1880POPC   C2B26288  40.535  37.700   8.264
 1880POPC   C3B26289  40.587  37.737   7.964
 1880POPC   C4B26290  40.494  37.744   7.664
 1881POPC   NC326291  44.622  43.138   9.464
 1881POPC   PO426292  44.707  43.136   9.164
 1881POPC   GL126293  44.658  43.100   8.864
 1881POPC   GL226294  44.528  43.076   8.864
 1881POPC   C1A26295  44.656  43.142   8.564
 1881POPC   D2A26296  44.642  43.136   8.264
 1881POPC   C3A26297  44.641  43.154   7.964
 1881POPC   C4A26298  44.710  43.084   7.664
 1881POPC   C1B26299  44.417  42.906   8.564
 1881POPC   C2B26300  44.510  43.005   8.264
 1881POPC   C3B26301  44.444  42.984   7.964
 1881POPC   C4B26302  44.480  42.931   7.664
 1882POPC   NC326303  38.456  18.298   9.464
 1882POPC   PO426304  38.421  18.273   9.164
 1882POPC   GL126305  38.431  18.251   8.864
 1882POPC   GL226306  38.305  18.252   8.864
 1882POPC   C1A26307  38.467  18.321   8.564
 1882POPC   D2A26308  38.462  18.311   8.264
 1882POPC   C3A26309  38.466  18.331   7.964
 1882POPC   C4A26310  38.485  18.325   7.664
 1882POPC   C1B26311  38.177  18.233   8.564
 1882POPC   C2B26312  38.180  18.175   8.264
 1882POPC   C3B26313  38.258  18.160   7.964
 1882POPC   C4B26314  38.198  18.163   7.664
 1883POPC   NC326315   7.425  30.706   9.464
 1883POPC   PO426316   7.399  30.675   9.164
 1883POPC   GL126317   7.459  30.657   8.864
 1883POPC   GL226318   7.432  30.764   8.864
 1883POPC   C1A26319   7.468  30.746   8.564
 1883POPC   D2A26320   7.424  30.680   8.264
 1883POPC   C3A26321   7.402  30.695   7.964
 1883POPC   C4A26322   7.393  30.702   7.664
 1883POPC   C1B26323   7.574  30.907   8.564
 1883POPC   C2B26324   7.558  30.920   8.264
 1883POPC   C3B26325   7.564  30.963   7.964
 1883POPC   C4B26326   7.562  30.871   7.664
 1884POPC   NC326327  27.581  28.415   9.464
 1884POPC   PO426328  27.591  28.319   9.164
 1884POPC   GL126329  27.609  28.322   8.864
 1884POPC   GL226330  27.465  28.295   8.864
 1884POPC   C1A26331  27.579  28.416   8.564
 1884POPC   D2A26332  27.584  28.346   8.264
 1884POPC   C3A26333  27.583  28.390   7.964
 1884POPC   C4A26334  27.614  28.342   7.664
 1884POPC   C1B26335  27.339  28.331   8.564
 1884POPC   C2B26336  27.329  28.261   8.264
 1884POPC   C3B26337  27.368  28.246   7.964
 1884POPC   C4B26338  27.319  28.288   7.664
 1885POPC   NC326339  44.663   2.769   9.464
 1885POPC   PO426340  44.710   2.807   9.164
 1885POPC   GL126341  44.616   2.781   8.864
 1885POPC   GL226342  44.808   2.853   8.864
 1885POPC   C1A26343  44.709   2.770   8.564
 1885POPC   D2A26344  44.623   2.788   8.264
 1885POPC   C3A26345  44.651   2.778   7.964
 1885POPC   C4A26346  44.693   2.754   7.664
 1885POPC   C1B26347  44.869   2.802   8.564
 1885POPC   C2B26348  44.936   2.821   8.264
 1885POPC   C3B26349  44.908   2.898   7.964
 1885POPC   C4B26350  44.941   2.891   7.664
 1886POPC   NC326351  32.211   9.774   9.464
 1886POPC   PO426352  32.204   9.739   9.164
 1886POPC   GL126353  32.222   9.741   8.864
 1886POPC   GL226354  32.285   9.670   8.864
 1886POPC   C1A26355  32.276   9.767   8.564
 1886POPC   D2A26356  32.247   9.729   8.264
 1886POPC   C3A26357  32.254   9.784   7.964
 1886POPC   C4A26358  32.269   9.741   7.664
 1886POPC   C1B26359  32.199   9.516   8.564
 1886POPC   C2B26360  32.260   9.495   8.264
 1886POPC   C3B26361  32.221   9.501   7.964
 1886POPC   C4B26362  32.251   9.507   7.664
 1887POPC   NC326363   3.498   2.725   9.464
 1887POPC   PO426364   3.542   2.773   9.164
 1887POPC   GL126365   3.548   2.801   8.864
 1887POPC   GL226366   3.432   2.689   8.864
 1887POPC   C1A26367   3.525   2.774   8.564
 1887POPC   D2A26368   3.513   2.719   8.264
 1887POPC   C3A26369   3.520   2.785   7.964
 1887POPC   C4A26370   3.579   2.807   7.664
 1887POPC   C1B26371   3.356   2.630   8.564
 1887POPC   C2B26372   3.350   2.630   8.264
 1887POPC   C3B26373   3.314   2.643   7.964
 1887POPC   C4B26374   3.329   2.620   7.664
 1888POPC   NC326375  12.122  32.232   9.464
 1888POPC   PO426376  12.082  32.208   9.164
 1888POPC   GL126377  12.107  32.243   8.864
 1888POPC   GL226378  11.931  32.297   8.864
 1888POPC   C1A26379  12.040  32.198   8.564
 1888POPC   D2A26380  12.101  32.205   8.264
 1888POPC   C3A26381  12.091  32.273   7.964
 1888POPC   C4A26382  12.081  32.297   7.664
 1888POPC   C1B26383  11.828  32.364   8.564
 1888POPC   C2B26384  11.923  32.358   8.264
 1888POPC   C3B26385  11.863  32.393   7.964
 1888POPC   C4B26386  11.883  32.414   7.664
 1889POPC   NC326387  36.143  11.306   9.464
 1889POPC   PO426388  36.083  11.253   9.164
 1889POPC   GL126389  36.108  11.314   8.864
 1889POPC   GL226390  36.181  11.135   8.864
 1889POPC   C1A26391  36.172  11.256   8.564
 1889POPC   D2A26392  36.149  11.265   8.264
 1889POPC   C3A26393  36.122  11.334   7.964
 1889POPC   C4A26394  36.095  11.340   7.664
 1889POPC   C1B26395  36.159  11.098   8.564
 1889POPC   C2B26396  36.188  11.083   8.264
 1889POPC   C3B26397  36.171  11.102   7.964
 1889POPC   C4B26398  36.179  11.066   7.664
 1890POPC   NC326399   5.841   9.755   9.464
 1890POPC   PO426400   5.860   9.773   9.164
 1890POPC   GL126401   5.832   9.790   8.864
 1890POPC   GL226402   5.752   9.827   8.864
 1890POPC   C1A26403   5.851   9.710   8.564
 1890POPC   D2A26404   5.862   9.789   8.264
 1890POPC   C3A26405   5.841   9.738   7.964
 1890POPC   C4A26406   5.842   9.794   7.664
 1890POPC   C1B26407   5.694   9.965   8.564
 1890POPC   C2B26408   5.713   9.894   8.264
 1890POPC   C3B26409   5.742   9.914   7.964
 1890POPC   C4B26410   5.696   9.895   7.664
 1891POPC   NC326411  30.707  32.262   9.464
 1891POPC   PO426412  30.728  32.295   9.164
 1891POPC   GL126413  30.724  32.276   8.864
 1891POPC   GL226414  30.823  32.198   8.864
 1891POPC   C1A26415  30.677  32.278   8.564
 1891POPC   D2A26416  30.724  32.230   8.264
 1891POPC   C3A26417  30.706  32.276   7.964
 1891POPC   C4A26418  30.734  32.233   7.664
 1891POPC   C1B26419  30.859  32.098   8.564
 1891POPC   C2B26420  30.880  32.155   8.264
 1891POPC   C3B26421  30.879  32.078   7.964
 1891POPC   C4B26422  30.912  32.068   7.664
 1892POPC   NC326423  43.094   7.451   9.464
 1892POPC   PO426424  43.155   7.375   9.164
 1892POPC   GL126425  43.094   7.465   8.864
 1892POPC   GL226426  43.019   7.372   8.864
 1892POPC   C1A26427  43.081   7.419   8.564
 1892POPC   D2A26428  43.082   7.422   8.264
 1892POPC   C3A26429  43.069   7.403   7.964
 1892POPC   C4A26430  43.106   7.435   7.664
 1892POPC   C1B26431  42.916   7.235   8.564
 1892POPC   C2B26432  42.959   7.302   8.264
 1892POPC   C3B26433  42.910   7.238   7.964
 1892POPC   C4B26434  42.900   7.245   7.664
 1893POPC   NC326435   9.739  29.190   9.464
 1893POPC   PO426436   9.763  29.101   9.164
 1893POPC   GL126437   9.707  29.127   8.864
 1893POPC   GL226438   9.883  29.180   8.864
 1893POPC   C1A26439   9.747  29.191   8.564
 1893POPC   D2A26440   9.721  29.106   8.264
 1893POPC   C3A26441   9.767  29.116   7.964
 1893POPC   C4A26442   9.731  29.191   7.664
 1893POPC   C1B26443   9.954  29.201   8.564
 1893POPC   C2B26444  10.040  29.189   8.264
 1893POPC   C3B26445   9.998  29.181   7.964
 1893POPC   C4B26446  10.029  29.154   7.664
 1894POPC   NC326447  24.537  35.381   9.464
 1894POPC   PO426448  24.464  35.315   9.164
 1894POPC   GL126449  24.483  35.341   8.864
 1894POPC   GL226450  24.533  35.234   8.864
 1894POPC   C1A26451  24.511  35.343   8.564
 1894POPC   D2A26452  24.495  35.387   8.264
 1894POPC   C3A26453  24.515  35.343   7.964
 1894POPC   C4A26454  24.512  35.308   7.664
 1894POPC   C1B26455  24.627  35.115   8.564
 1894POPC   C2B26456  24.633  35.132   8.264
 1894POPC   C3B26457  24.604  35.151   7.964
 1894POPC   C4B26458  24.599  35.098   7.664
 1895POPC   NC326459   8.160  27.579   9.464
 1895POPC   PO426460   8.155  27.635   9.164
 1895POPC   GL126461   8.149  27.595   8.864
 1895POPC   GL226462   8.075  27.683   8.864
 1895POPC   C1A26463   8.160  27.635   8.564
 1895POPC   D2A26464   8.226  27.586   8.264
 1895POPC   C3A26465   8.199  27.552   7.964
 1895POPC   C4A26466   8.223  27.575   7.664
 1895POPC   C1B26467   7.978  27.706   8.564
 1895POPC   C2B26468   8.007  27.774   8.264
 1895POPC   C3B26469   8.020  27.760   7.964
 1895POPC   C4B26470   7.939  27.743   7.664
 1896POPC   NC326471  29.872   9.772   9.464
 1896POPC   PO426472  29.905   9.797   9.164
 1896POPC   GL126473  29.935   9.760   8.864
 1896POPC   GL226474  29.816   9.796   8.864
 1896POPC   C1A26475  29.968   9.777   8.564
 1896POPC   D2A26476  29.882   9.776   8.264
 1896POPC   C3A26477  29.892   9.754   7.964
 1896POPC   C4A26478  29.881   9.728   7.664
 1896POPC   C1B26479  29.722   9.929   8.564
 1896POPC   C2B26480  29.720   9.912   8.264
 1896POPC   C3B26481  29.735   9.952   7.964
 1896POPC   C4B26482  29.723   9.946   7.664
 1897POPC   NC326483   5.103  12.901   9.464
 1897POPC   PO426484   5.114  12.822   9.164
 1897POPC   GL126485   5.080  12.873   8.864
 1897POPC   GL226486   4.995  12.776   8.864
 1897POPC   C1A26487   5.141  12.828   8.564
 1897POPC   D2A26488   5.112  12.900   8.264
 1897POPC   C3A26489   5.076  12.832   7.964
 1897POPC   C4A26490   5.121  12.860   7.664
 1897POPC   C1B26491   4.901  12.665   8.564
 1897POPC   C2B26492   4.929  12.714   8.264
 1897POPC   C3B26493   4.878  12.655   7.964
 1897POPC   C4B26494   4.874  12.706   7.664
 1898POPC   NC326495  15.994  15.923   9.464
 1898POPC   PO426496  15.909  15.936   9.164
 1898POPC   GL126497  15.992  15.955   8.864
 1898POPC   GL226498  15.841  15.933   8.864
 1898POPC   C1A26499  15.972  15.941   8.564
 1898POPC   D2A26500  15.932  15.985   8.264
 1898POPC   C3A26501  15.907  15.934   7.964
 1898POPC   C4A26502  15.984  15.972   7.664
 1898POPC   C1B26503  15.710  15.866   8.564
 1898POPC   C2B26504  15.717  15.776   8.264
 1898POPC   C3B26505  15.699  15.792   7.964
 1898POPC   C4B26506  15.786  15.790   7.664
 1899POPC   NC326507  42.368  10.545   9.464
 1899POPC   PO426508  42.310  10.551   9.164
 1899POPC   GL126509  42.383  10.534   8.864
 1899POPC   GL226510  42.339  10.676   8.864
 1899POPC   C1A26511  42.378  10.513   8.564
 1899POPC   D2A26512  42.303  10.515   8.264
 1899POPC   C3A26513  42.336  10.527   7.964
 1899POPC   C4A26514  42.349  10.493   7.664
 1899POPC   C1B26515  42.299  10.787   8.564
 1899POPC   C2B26516  42.290  10.816   8.264
 1899POPC   C3B26517  42.299  10.751   7.964
 1899POPC   C4B26518  42.350  10.739   7.664
 1900POPC   NC326519  23.696  17.542   9.464
 1900POPC   PO426520  23.757  17.517   9.164
 1900POPC   GL126521  23.709  17.509   8.864
 1900POPC   GL226522  23.579  17.478   8.864
 1900POPC   C1A26523  23.752  17.545   8.564
 1900POPC   D2A26524  23.698  17.496   8.264
 1900POPC   C3A26525  23.683  17.554   7.964
 1900POPC   C4A26526  23.697  17.540   7.664
 1900POPC   C1B26527  23.508  17.444   8.564
 1900POPC   C2B26528  23.514  17.398   8.264
 1900POPC   C3B26529  23.492  17.435   7.964
 1900POPC   C4B26530  23.485  17.413   7.664
 1901POPC   NC326531  32.227   5.874   9.464
 1901POPC   PO426532  32.284   5.892   9.164
 1901POPC   GL126533  32.218   5.913   8.864
 1901POPC   GL226534  32.108   5.928   8.864
 1901POPC   C1A26535  32.241   5.822   8.564
 1901POPC   D2A26536  32.217   5.859   8.264
 1901POPC   C3A26537  32.218   5.880   7.964
 1901POPC   C4A26538  32.224   5.871   7.664
 1901POPC   C1B26539  32.023   5.967   8.564
 1901POPC   C2B26540  32.052   5.979   8.264
 1901POPC   C3B26541  32.004   5.967   7.964
 1901POPC   C4B26542  32.064   5.983   7.664
 1902POPC   NC326543   9.731   4.297   9.464
 1902POPC   PO426544   9.765   4.291   9.164
 1902POPC   GL126545   9.723   4.288   8.864
 1902POPC   GL226546   9.694   4.406   8.864
 1902POPC   C1A26547   9.722   4.322   8.564
 1902POPC   D2A26548   9.794   4.300   8.264
 1902POPC   C3A26549   9.712   4.301   7.964
 1902POPC   C4A26550   9.704   4.267   7.664
 1902POPC   C1B26551   9.687   4.573   8.564
 1902POPC   C2B26552   9.753   4.532   8.264
 1902POPC   C3B26553   9.705   4.613   7.964
 1902POPC   C4B26554   9.731   4.590   7.664
 1903POPC   NC326555   5.838  35.312   9.464
 1903POPC   PO426556   5.832  35.321   9.164
 1903POPC   GL126557   5.878  35.317   8.864
 1903POPC   GL226558   5.810  35.419   8.864
 1903POPC   C1A26559   5.838  35.398   8.564
 1903POPC   D2A26560   5.873  35.387   8.264
 1903POPC   C3A26561   5.847  35.400   7.964
 1903POPC   C4A26562   5.904  35.327   7.664
 1903POPC   C1B26563   5.666  35.504   8.564
 1903POPC   C2B26564   5.628  35.486   8.264
 1903POPC   C3B26565   5.715  35.482   7.964
 1903POPC   C4B26566   5.686  35.465   7.664
 1904POPC   NC326567  32.244  44.703   9.464
 1904POPC   PO426568  32.247  44.627   9.164
 1904POPC   GL126569  32.230  44.702   8.864
 1904POPC   GL226570  32.242  44.823   8.864
 1904POPC   C1A26571  32.232  44.712   8.564
 1904POPC   D2A26572  32.292  44.696   8.264
 1904POPC   C3A26573  32.227  44.619   7.964
 1904POPC   C4A26574  32.282  44.667   7.664
 1904POPC   C1B26575  32.253  44.948   8.564
 1904POPC   C2B26576  32.260  44.956   8.264
 1904POPC   C3B26577  32.234  44.899   7.964
 1904POPC   C4B26578  32.249  44.897   7.664
 1905POPC   NC326579  38.488  26.040   9.464
 1905POPC   PO426580  38.494  26.011   9.164
 1905POPC   GL126581  38.431  26.019   8.864
 1905POPC   GL226582  38.306  26.073   8.864
 1905POPC   C1A26583  38.477  26.037   8.564
 1905POPC   D2A26584  38.440  26.013   8.264
 1905POPC   C3A26585  38.416  26.080   7.964
 1905POPC   C4A26586  38.481  26.052   7.664
 1905POPC   C1B26587  38.188  26.043   8.564
 1905POPC   C2B26588  38.192  26.001   8.264
 1905POPC   C3B26589  38.243  26.064   7.964
 1905POPC   C4B26590  38.164  26.013   7.664
 1906POPC   NC326591  32.983  35.312   9.464
 1906POPC   PO426592  32.980  35.354   9.164
 1906POPC   GL126593  33.025  35.371   8.864
 1906POPC   GL226594  32.926  35.401   8.864
 1906POPC   C1A26595  33.005  35.392   8.564
 1906POPC   D2A26596  33.060  35.360   8.264
 1906POPC   C3A26597  33.031  35.373   7.964
 1906POPC   C4A26598  32.977  35.330   7.664
 1906POPC   C1B26599  32.797  35.327   8.564
 1906POPC   C2B26600  32.753  35.316   8.264
 1906POPC   C3B26601  32.748  35.335   7.964
 1906POPC   C4B26602  32.734  35.403   7.664
 1907POPC   NC326603  39.970  34.526   9.464
 1907POPC   PO426604  40.018  34.583   9.164
 1907POPC   GL126605  40.024  34.561   8.864
 1907POPC   GL226606  40.108  34.663   8.864
 1907POPC   C1A26607  40.037  34.592   8.564
 1907POPC   D2A26608  40.026  34.596   8.264
 1907POPC   C3A26609  40.033  34.618   7.964
 1907POPC   C4A26610  39.970  34.573   7.664
 1907POPC   C1B26611  40.254  34.689   8.564
 1907POPC   C2B26612  40.288  34.681   8.264
 1907POPC   C3B26613  40.241  34.649   7.964
 1907POPC   C4B26614  40.258  34.704   7.664
 1908POPC   NC326615  28.402  33.050   9.464
 1908POPC   PO426616  28.375  33.046   9.164
 1908POPC   GL126617  28.383  32.976   8.864
 1908POPC   GL226618  28.515  33.094   8.864
 1908POPC   C1A26619  28.386  33.045   8.564
 1908POPC   D2A26620  28.397  33.021   8.264
 1908POPC   C3A26621  28.417  33.012   7.964
 1908POPC   C4A26622  28.375  33.000   7.664
 1908POPC   C1B26623  28.642  33.103   8.564
 1908POPC   C2B26624  28.645  33.087   8.264
 1908POPC   C3B26625  28.563  33.153   7.964
 1908POPC   C4B26626  28.592  33.139   7.664
 1909POPC   NC326627  41.579  18.251   9.464
 1909POPC   PO426628  41.535  18.298   9.164
 1909POPC   GL126629  41.558  18.326   8.864
 1909POPC   GL226630  41.698  18.202   8.864
 1909POPC   C1A26631  41.532  18.266   8.564
 1909POPC   D2A26632  41.515  18.247   8.264
 1909POPC   C3A26633  41.520  18.331   7.964
 1909POPC   C4A26634  41.593  18.279   7.664
 1909POPC   C1B26635  41.849  18.242   8.564
 1909POPC   C2B26636  41.805  18.194   8.264
 1909POPC   C3B26637  41.782  18.268   7.964
 1909POPC   C4B26638  41.827  18.170   7.664
 1910POPC   NC326639  32.201   8.219   9.464
 1910POPC   PO426640  32.231   8.170   9.164
 1910POPC   GL126641  32.286   8.222   8.864
 1910POPC   GL226642  32.363   8.251   8.864
 1910POPC   C1A26643  32.273   8.225   8.564
 1910POPC   D2A26644  32.226   8.199   8.264
 1910POPC   C3A26645  32.296   8.200   7.964
 1910POPC   C4A26646  32.262   8.191   7.664
 1910POPC   C1B26647  32.469   8.337   8.564
 1910POPC   C2B26648  32.470   8.292   8.264
 1910POPC   C3B26649  32.437   8.321   7.964
 1910POPC   C4B26650  32.458   8.364   7.664
 1911POPC   NC326651  12.901  19.100   9.464
 1911POPC   PO426652  12.874  19.102   9.164
 1911POPC   GL126653  12.815  19.084   8.864
 1911POPC   GL226654  12.779  18.908   8.864
 1911POPC   C1A26655  12.898  19.026   8.564
 1911POPC   D2A26656  12.883  19.104   8.264
 1911POPC   C3A26657  12.845  19.062   7.964
 1911POPC   C4A26658  12.864  19.039   7.664
 1911POPC   C1B26659  12.750  18.832   8.564
 1911POPC   C2B26660  12.835  18.794   8.264
 1911POPC   C3B26661  12.821  18.861   7.964
 1911POPC   C4B26662  12.802  18.814   7.664
 1912POPC   NC326663  40.048  25.225   9.464
 1912POPC   PO426664  39.984  25.314   9.164
 1912POPC   GL126665  39.972  25.308   8.864
 1912POPC   GL226666  39.876  25.191   8.864
 1912POPC   C1A26667  39.978  25.278   8.564
 1912POPC   D2A26668  39.966  25.277   8.264
 1912POPC   C3A26669  40.004  25.246   7.964
 1912POPC   C4A26670  39.998  25.245   7.664
 1912POPC   C1B26671  39.802  25.195   8.564
 1912POPC   C2B26672  39.750  25.119   8.264
 1912POPC   C3B26673  39.781  25.185   7.964
 1912POPC   C4B26674  39.747  25.188   7.664
 1913POPC   NC326675  14.438  27.565   9.464
 1913POPC   PO426676  14.364  27.640   9.164
 1913POPC   GL126677  14.452  27.557   8.864
 1913POPC   GL226678  14.282  27.733   8.864
 1913POPC   C1A26679  14.389  27.577   8.564
 1913POPC   D2A26680  14.444  27.572   8.264
 1913POPC   C3A26681  14.410  27.590   7.964
 1913POPC   C4A26682  14.386  27.555   7.664
 1913POPC   C1B26683  14.219  27.764   8.564
 1913POPC   C2B26684  14.265  27.751   8.264
 1913POPC   C3B26685  14.228  27.798   7.964
 1913POPC   C4B26686  14.231  27.794   7.664
 1914POPC   NC326687  33.057   3.497   9.464
 1914POPC   PO426688  32.981   3.557   9.164
 1914POPC   GL126689  33.034   3.493   8.864
 1914POPC   GL226690  33.138   3.645   8.864
 1914POPC   C1A26691  33.047   3.558   8.564
 1914POPC   D2A26692  32.987   3.588   8.264
 1914POPC   C3A26693  33.041   3.573   7.964
 1914POPC   C4A26694  33.048   3.542   7.664
 1914POPC   C1B26695  33.220   3.716   8.564
 1914POPC   C2B26696  33.236   3.727   8.264
 1914POPC   C3B26697  33.213   3.689   7.964
 1914POPC   C4B26698  33.214   3.750   7.664
 1915POPC   NC326699  40.783  16.695   9.464
 1915POPC   PO426700  40.776  16.774   9.164
 1915POPC   GL126701  40.745  16.757   8.864
 1915POPC   GL226702  40.818  16.614   8.864
 1915POPC   C1A26703  40.800  16.709   8.564
 1915POPC   D2A26704  40.751  16.739   8.264
 1915POPC   C3A26705  40.770  16.694   7.964
 1915POPC   C4A26706  40.780  16.718   7.664
 1915POPC   C1B26707  40.932  16.522   8.564
 1915POPC   C2B26708  40.901  16.482   8.264
 1915POPC   C3B26709  40.944  16.508   7.964
 1915POPC   C4B26710  40.871  16.501   7.664
 1916POPC   NC326711  27.622  42.384   9.464
 1916POPC   PO426712  27.595  42.332   9.164
 1916POPC   GL126713  27.619  42.290   8.864
 1916POPC   GL226714  27.572  42.400   8.864
 1916POPC   C1A26715  27.639  42.321   8.564
 1916POPC   D2A26716  27.611  42.315   8.264
 1916POPC   C3A26717  27.631  42.345   7.964
 1916POPC   C4A26718  27.602  42.368   7.664
 1916POPC   C1B26719  27.446  42.564   8.564
 1916POPC   C2B26720  27.447  42.512   8.264
 1916POPC   C3B26721  27.458  42.517   7.964
 1916POPC   C4B26722  27.425  42.513   7.664
 1917POPC   NC326723  30.715  30.661   9.464
 1917POPC   PO426724  30.648  30.683   9.164
 1917POPC   GL126725  30.654  30.708   8.864
 1917POPC   GL226726  30.785  30.597   8.864
 1917POPC   C1A26727  30.732  30.716   8.564
 1917POPC   D2A26728  30.655  30.660   8.264
 1917POPC   C3A26729  30.708  30.679   7.964
 1917POPC   C4A26730  30.731  30.696   7.664
 1917POPC   C1B26731  30.796  30.462   8.564
 1917POPC   C2B26732  30.859  30.427   8.264
 1917POPC   C3B26733  30.828  30.440   7.964
 1917POPC   C4B26734  30.776  30.491   7.664
 1918POPC   NC326735  13.598  34.532   9.464
 1918POPC   PO426736  13.580  34.612   9.164
 1918POPC   GL126737  13.666  34.591   8.864
 1918POPC   GL226738  13.748  34.667   8.864
 1918POPC   C1A26739  13.650  34.597   8.564
 1918POPC   D2A26740  13.607  34.529   8.264
 1918POPC   C3A26741  13.593  34.527   7.964
 1918POPC   C4A26742  13.620  34.537   7.664
 1918POPC   C1B26743  13.823  34.620   8.564
 1918POPC   C2B26744  13.900  34.654   8.264
 1918POPC   C3B26745  13.894  34.621   7.964
 1918POPC   C4B26746  13.861  34.696   7.664
 1919POPC   NC326747  34.593   2.777   9.464
 1919POPC   PO426748  34.610   2.759   9.164
 1919POPC   GL126749  34.549   2.798   8.864
 1919POPC   GL226750  34.636   2.693   8.864
 1919POPC   C1A26751  34.612   2.719   8.564
 1919POPC   D2A26752  34.620   2.781   8.264
 1919POPC   C3A26753  34.582   2.756   7.964
 1919POPC   C4A26754  34.594   2.783   7.664
 1919POPC   C1B26755  34.693   2.512   8.564
 1919POPC   C2B26756  34.689   2.495   8.264
 1919POPC   C3B26757  34.607   2.552   7.964
 1919POPC   C4B26758  34.661   2.556   7.664
 1920POPC   NC326759  15.921  26.802   9.464
 1920POPC   PO426760  15.984  26.852   9.164
 1920POPC   GL126761  15.971  26.784   8.864
 1920POPC   GL226762  16.047  26.954   8.864
 1920POPC   C1A26763  15.935  26.799   8.564
 1920POPC   D2A26764  15.923  26.855   8.264
 1920POPC   C3A26765  15.984  26.848   7.964
 1920POPC   C4A26766  15.992  26.830   7.664
 1920POPC   C1B26767  16.111  27.052   8.564
 1920POPC   C2B26768  16.079  27.055   8.264
 1920POPC   C3B26769  16.067  27.011   7.964
 1920POPC   C4B26770  16.128  27.038   7.664
 1921POPC   NC326771  14.435  42.287   9.464
 1921POPC   PO426772  14.368  42.369   9.164
 1921POPC   GL126773  14.426  42.329   8.864
 1921POPC   GL226774  14.426  42.432   8.864
 1921POPC   C1A26775  14.426  42.380   8.564
 1921POPC   D2A26776  14.355  42.376   8.264
 1921POPC   C3A26777  14.447  42.353   7.964
 1921POPC   C4A26778  14.381  42.289   7.664
 1921POPC   C1B26779  14.506  42.573   8.564
 1921POPC   C2B26780  14.542  42.521   8.264
 1921POPC   C3B26781  14.534  42.581   7.964
 1921POPC   C4B26782  14.568  42.518   7.664
 1922POPC   NC326783  41.581  44.650   9.464
 1922POPC   PO426784  41.533  44.636   9.164
 1922POPC   GL126785  41.579  44.678   8.864
 1922POPC   GL226786  41.672  44.744   8.864
 1922POPC   C1A26787  41.606  44.639   8.564
 1922POPC   D2A26788  41.570  44.622   8.264
 1922POPC   C3A26789  41.590  44.674   7.964
 1922POPC   C4A26790  41.548  44.691   7.664
 1922POPC   C1B26791  41.752  44.808   8.564
 1922POPC   C2B26792  41.686  44.901   8.264
 1922POPC   C3B26793  41.715  44.900   7.964
 1922POPC   C4B26794  41.702  44.831   7.664
 1923POPC   NC326795   5.888  33.032   9.464
 1923POPC   PO426796   5.890  32.982   9.164
 1923POPC   GL126797   5.885  32.992   8.864
 1923POPC   GL226798   5.752  33.070   8.864
 1923POPC   C1A26799   5.908  32.984   8.564
 1923POPC   D2A26800   5.833  33.064   8.264
 1923POPC   C3A26801   5.875  33.000   7.964
 1923POPC   C4A26802   5.908  33.069   7.664
 1923POPC   C1B26803   5.659  33.143   8.564
 1923POPC   C2B26804   5.649  33.075   8.264
 1923POPC   C3B26805   5.643  33.117   7.964
 1923POPC   C4B26806   5.590  33.125   7.664
 1924POPC   NC326807   2.800  29.893   9.464
 1924POPC   PO426808   2.786  29.908   9.164
 1924POPC   GL126809   2.748  29.924   8.864
 1924POPC   GL226810   2.636  29.934   8.864
 1924POPC   C1A26811   2.799  29.879   8.564
 1924POPC   D2A26812   2.764  29.915   8.264
 1924POPC   C3A26813   2.741  29.879   7.964
 1924POPC   C4A26814   2.777  29.873   7.664
 1924POPC   C1B26815   2.522  29.943   8.564
 1924POPC   C2B26816   2.496  29.988   8.264
 1924POPC   C3B26817   2.552  29.957   7.964
 1924POPC   C4B26818   2.467  29.961   7.664
 1925POPC   NC326819  32.214  37.636   9.464
 1925POPC   PO426820  32.267  37.642   9.164
 1925POPC   GL126821  32.219  37.699   8.864
 1925POPC   GL226822  32.251  37.765   8.864
 1925POPC   C1A26823  32.232  37.673   8.564
 1925POPC   D2A26824  32.232  37.635   8.264
 1925POPC   C3A26825  32.199  37.632   7.964
 1925POPC   C4A26826  32.251  37.640   7.664
 1925POPC   C1B26827  32.247  37.898   8.564
 1925POPC   C2B26828  32.187  37.952   8.264
 1925POPC   C3B26829  32.196  37.953   7.964
 1925POPC   C4B26830  32.231  37.965   7.664
 1926POPC   NC326831  34.542  35.369   9.464
 1926POPC   PO426832  34.543  35.326   9.164
 1926POPC   GL126833  34.563  35.362   8.864
 1926POPC   GL226834  34.650  35.432   8.864
 1926POPC   C1A26835  34.625  35.321   8.564
 1926POPC   D2A26836  34.559  35.306   8.264
 1926POPC   C3A26837  34.533  35.365   7.964
 1926POPC   C4A26838  34.615  35.352   7.664
 1926POPC   C1B26839  34.826  35.440   8.564
 1926POPC   C2B26840  34.816  35.512   8.264
 1926POPC   C3B26841  34.735  35.525   7.964
 1926POPC   C4B26842  34.828  35.443   7.664
 1927POPC   NC326843  11.272  19.028   9.464
 1927POPC   PO426844  11.326  19.054   9.164
 1927POPC   GL126845  11.256  19.043   8.864
 1927POPC   GL226846  11.439  19.082   8.864
 1927POPC   C1A26847  11.271  19.037   8.564
 1927POPC   D2A26848  11.259  19.092   8.264
 1927POPC   C3A26849  11.284  19.090   7.964
 1927POPC   C4A26850  11.278  19.072   7.664
 1927POPC   C1B26851  11.516  19.062   8.564
 1927POPC   C2B26852  11.554  19.059   8.264
 1927POPC   C3B26853  11.571  19.055   7.964
 1927POPC   C4B26854  11.561  19.035   7.664
 1928POPC   NC326855   5.842   4.272   9.464
 1928POPC   PO426856   5.827   4.307   9.164
 1928POPC   GL126857   5.891   4.359   8.864
 1928POPC   GL226858   5.973   4.353   8.864
 1928POPC   C1A26859   5.897   4.351   8.564
 1928POPC   D2A26860   5.857   4.301   8.264
 1928POPC   C3A26861   5.834   4.325   7.964
 1928POPC   C4A26862   5.869   4.323   7.664
 1928POPC   C1B26863   6.065   4.430   8.564
 1928POPC   C2B26864   6.075   4.442   8.264
 1928POPC   C3B26865   6.056   4.455   7.964
 1928POPC   C4B26866   6.055   4.451   7.664
 1929POPC   NC326867  34.553  37.694   9.464
 1929POPC   PO426868  34.580  37.646   9.164
 1929POPC   GL126869  34.575  37.722   8.864
 1929POPC   GL226870  34.569  37.535   8.864
 1929POPC   C1A26871  34.533  37.652   8.564
 1929POPC   D2A26872  34.583  37.667   8.264
 1929POPC   C3A26873  34.589  37.665   7.964
 1929POPC   C4A26874  34.550  37.689   7.664
 1929POPC   C1B26875  34.583  37.454   8.564
 1929POPC   C2B26876  34.570  37.441   8.264
 1929POPC   C3B26877  34.582  37.426   7.964
 1929POPC   C4B26878  34.561  37.478   7.664
 1930POPC   NC326879   5.893  30.731   9.464
 1930POPC   PO426880   5.905  30.730   9.164
 1930POPC   GL126881   5.910  30.697   8.864
 1930POPC   GL226882   5.964  30.603   8.864
 1930POPC   C1A26883   5.881  30.718   8.564
 1930POPC   D2A26884   5.882  30.666   8.264
 1930POPC   C3A26885   5.888  30.688   7.964
 1930POPC   C4A26886   5.831  30.662   7.664
 1930POPC   C1B26887   6.000  30.452   8.564
 1930POPC   C2B26888   5.936  30.510   8.264
 1930POPC   C3B26889   5.986  30.470   7.964
 1930POPC   C4B26890   5.997  30.469   7.664
 1931POPC   NC326891  37.704  12.092   9.464
 1931POPC   PO426892  37.714  12.101   9.164
 1931POPC   GL126893  37.665  12.109   8.864
 1931POPC   GL226894  37.600  11.987   8.864
 1931POPC   C1A26895  37.725  12.104   8.564
 1931POPC   D2A26896  37.676  12.051   8.264
 1931POPC   C3A26897  37.717  12.038   7.964
 1931POPC   C4A26898  37.704  12.082   7.664
 1931POPC   C1B26899  37.607  11.862   8.564
 1931POPC   C2B26900  37.610  11.865   8.264
 1931POPC   C3B26901  37.580  11.854   7.964
 1931POPC   C4B26902  37.619  11.855   7.664
 1932POPC   NC326903  18.252  24.483   9.464
 1932POPC   PO426904  18.267  24.527   9.164
 1932POPC   GL126905  18.259  24.537   8.864
 1932POPC   GL226906  18.150  24.412   8.864
 1932POPC   C1A26907  18.290  24.478   8.564
 1932POPC   D2A26908  18.272  24.493   8.264
 1932POPC   C3A26909  18.290  24.517   7.964
 1932POPC   C4A26910  18.284  24.485   7.664
 1932POPC   C1B26911  18.062  24.354   8.564
 1932POPC   C2B26912  18.094  24.367   8.264
 1932POPC   C3B26913  18.065  24.403   7.964
 1932POPC   C4B26914  18.050  24.433   7.664
 1933POPC   NC326915  33.757  27.626   9.464
 1933POPC   PO426916  33.832  27.622   9.164
 1933POPC   GL126917  33.817  27.623   8.864
 1933POPC   GL226918  33.712  27.601   8.864
 1933POPC   C1A26919  33.827  27.552   8.564
 1933POPC   D2A26920  33.759  27.634   8.264
 1933POPC   C3A26921  33.841  27.594   7.964
 1933POPC   C4A26922  33.778  27.640   7.664
 1933POPC   C1B26923  33.575  27.599   8.564
 1933POPC   C2B26924  33.571  27.666   8.264
 1933POPC   C3B26925  33.592  27.602   7.964
 1933POPC   C4B26926  33.533  27.634   7.664
 1934POPC   NC326927  33.049   6.685   9.464
 1934POPC   PO426928  33.009   6.624   9.164
 1934POPC   GL126929  32.993   6.680   8.864
 1934POPC   GL226930  33.029   6.752   8.864
 1934POPC   C1A26931  32.994   6.628   8.564
 1934POPC   D2A26932  33.012   6.621   8.264
 1934POPC   C3A26933  32.977   6.655   7.964
 1934POPC   C4A26934  32.994   6.640   7.664
 1934POPC   C1B26935  33.072   6.911   8.564
 1934POPC   C2B26936  33.065   6.852   8.264
 1934POPC   C3B26937  33.105   6.907   7.964
 1934POPC   C4B26938  33.127   6.864   7.664
 1935POPC   NC326939   8.992   1.185   9.464
 1935POPC   PO426940   8.998   1.172   9.164
 1935POPC   GL126941   8.990   1.207   8.864
 1935POPC   GL226942   8.935   1.328   8.864
 1935POPC   C1A26943   8.949   1.228   8.564
 1935POPC   D2A26944   9.010   1.212   8.264
 1935POPC   C3A26945   8.941   1.206   7.964
 1935POPC   C4A26946   9.019   1.207   7.664
 1935POPC   C1B26947   8.884   1.423   8.564
 1935POPC   C2B26948   8.811   1.455   8.264
 1935POPC   C3B26949   8.880   1.450   7.964
 1935POPC   C4B26950   8.864   1.474   7.664
 1936POPC   NC326951  32.222  42.362   9.464
 1936POPC   PO426952  32.277  42.340   9.164
 1936POPC   GL126953  32.217  42.305   8.864
 1936POPC   GL226954  32.378  42.384   8.864
 1936POPC   C1A26955  32.288  42.341   8.564
 1936POPC   D2A26956  32.261  42.299   8.264
 1936POPC   C3A26957  32.230  42.333   7.964
 1936POPC   C4A26958  32.226  42.343   7.664
 1936POPC   C1B26959  32.450  42.444   8.564
 1936POPC   C2B26960  32.477  42.435   8.264
 1936POPC   C3B26961  32.507  42.380   7.964
 1936POPC   C4B26962  32.484  42.462   7.664
 1937POPC   NC326963  27.562  25.300   9.464
 1937POPC   PO426964  27.546  25.258   9.164
 1937POPC   GL126965  27.591  25.249   8.864
 1937POPC   GL226966  27.671  25.151   8.864
 1937POPC   C1A26967  27.616  25.220   8.564
 1937POPC   D2A26968  27.615  25.272   8.264
 1937POPC   C3A26969  27.618  25.255   7.964
 1937POPC   C4A26970  27.564  25.315   7.664
 1937POPC   C1B26971  27.742  25.088   8.564
 1937POPC   C2B26972  27.740  25.027   8.264
 1937POPC   C3B26973  27.705  25.033   7.964
 1937POPC   C4B26974  27.773  25.082   7.664
 1938POPC   NC326975  24.470   5.877   9.464
 1938POPC   PO426976  24.487   5.871   9.164
 1938POPC   GL126977  24.471   5.909   8.864
 1938POPC   GL226978  24.564   5.913   8.864
 1938POPC   C1A26979  24.449   5.900   8.564
 1938POPC   D2A26980  24.469   5.855   8.264
 1938POPC   C3A26981  24.476   5.882   7.964
 1938POPC   C4A26982  24.506   5.877   7.664
 1938POPC   C1B26983  24.701   5.983   8.564
 1938POPC   C2B26984  24.733   5.990   8.264
 1938POPC   C3B26985  24.683   5.963   7.964
 1938POPC   C4B26986  24.689   6.019   7.664
 1939POPC   NC326987  26.072  25.254   9.464
 1939POPC   PO426988  26.009  25.252   9.164
 1939POPC   GL126989  26.007  25.287   8.864
 1939POPC   GL226990  26.125  25.298   8.864
 1939POPC   C1A26991  26.072  25.216   8.564
 1939POPC   D2A26992  26.033  25.252   8.264
 1939POPC   C3A26993  26.064  25.305   7.964
 1939POPC   C4A26994  26.047  25.253   7.664
 1939POPC   C1B26995  26.329  25.340   8.564
 1939POPC   C2B26996  26.304  25.326   8.264
 1939POPC   C3B26997  26.231  25.374   7.964
 1939POPC   C4B26998  26.328  25.306   7.664
 1940POPC   NC326999   7.450  23.723   9.464
 1940POPC   PO427000   7.416  23.739   9.164
 1940POPC   GL127001   7.414  23.689   8.864
 1940POPC   GL227002   7.482  23.874   8.864
 1940POPC   C1A27003   7.423  23.750   8.564
 1940POPC   D2A27004   7.452  23.729   8.264
 1940POPC   C3A27005   7.469  23.757   7.964
 1940POPC   C4A27006   7.382  23.698   7.664
 1940POPC   C1B27007   7.480  23.934   8.564
 1940POPC   C2B27008   7.447  23.920   8.264
 1940POPC   C3B27009   7.451  23.942   7.964
 1940POPC   C4B27010   7.483  23.941   7.664
 1941POPC   NC327011  31.499  12.871   9.464
 1941POPC   PO427012  31.431  12.891   9.164
 1941POPC   GL127013  31.466  12.810   8.864
 1941POPC   GL227014  31.480  12.950   8.864
 1941POPC   C1A27015  31.512  12.853   8.564
 1941POPC   D2A27016  31.432  12.852   8.264
 1941POPC   C3A27017  31.441  12.834   7.964
 1941POPC   C4A27018  31.517  12.844   7.664
 1941POPC   C1B27019  31.455  13.072   8.564
 1941POPC   C2B27020  31.457  13.115   8.264
 1941POPC   C3B27021  31.433  13.104   7.964
 1941POPC   C4B27022  31.421  13.086   7.664
 1942POPC   NC327023  42.297  26.032   9.464
 1942POPC   PO427024  42.322  26.044   9.164
 1942POPC   GL127025  42.377  26.044   8.864
 1942POPC   GL227026  42.236  25.966   8.864
 1942POPC   C1A27027  42.318  26.042   8.564
 1942POPC   D2A27028  42.329  26.010   8.264
 1942POPC   C3A27029  42.321  25.992   7.964
 1942POPC   C4A27030  42.294  26.087   7.664
 1942POPC   C1B27031  42.121  25.862   8.564
 1942POPC   C2B27032  42.192  25.887   8.264
 1942POPC   C3B27033  42.158  25.830   7.964
 1942POPC   C4B27034  42.188  25.894   7.664
 1943POPC   NC327035  44.660   3.591   9.464
 1943POPC   PO427036  44.628   3.509   9.164
 1943POPC   GL127037  44.656   3.540   8.864
 1943POPC   GL227038  44.598   3.597   8.864
 1943POPC   C1A27039  44.623   3.516   8.564
 1943POPC   D2A27040  44.612   3.532   8.264
 1943POPC   C3A27041  44.707   3.575   7.964
 1943POPC   C4A27042  44.651   3.493   7.664
 1943POPC   C1B27043  44.403   3.667   8.564
 1943POPC   C2B27044  44.463   3.632   8.264
 1943POPC   C3B27045  44.434   3.610   7.964
 1943POPC   C4B27046  44.473   3.671   7.664
 1944POPC   NC327047   1.187  14.411   9.464
 1944POPC   PO427048   1.241  14.367   9.164
 1944POPC   GL127049   1.179  14.371   8.864
 1944POPC   GL227050   1.194  14.254   8.864
 1944POPC   C1A27051   1.200  14.381   8.564
 1944POPC   D2A27052   1.213  14.357   8.264
 1944POPC   C3A27053   1.206  14.375   7.964
 1944POPC   C4A27054   1.176  14.445   7.664
 1944POPC   C1B27055   1.235  14.105   8.564
 1944POPC   C2B27056   1.186  14.194   8.264
 1944POPC   C3B27057   1.193  14.160   7.964
 1944POPC   C4B27058   1.166  14.192   7.664
 1945POPC   NC327059  43.158  11.325   9.464
 1945POPC   PO427060  43.089  11.288   9.164
 1945POPC   GL127061  43.148  11.309   8.864
 1945POPC   GL227062  42.999  11.313   8.864
 1945POPC   C1A27063  43.112  11.256   8.564
 1945POPC   D2A27064  43.111  11.287   8.264
 1945POPC   C3A27065  43.129  11.278   7.964
 1945POPC   C4A27066  43.154  11.318   7.664
 1945POPC   C1B27067  42.831  11.311   8.564
 1945POPC   C2B27068  42.907  11.328   8.264
 1945POPC   C3B27069  42.885  11.365   7.964
 1945POPC   C4B27070  42.881  11.334   7.664
 1946POPC   NC327071  25.245   2.719   9.464
 1946POPC   PO427072  25.243   2.781   9.164
 1946POPC   GL127073  25.235   2.761   8.864
 1946POPC   GL227074  25.193   2.678   8.864
 1946POPC   C1A27075  25.250   2.814   8.564
 1946POPC   D2A27076  25.263   2.764   8.264
 1946POPC   C3A27077  25.245   2.763   7.964
 1946POPC   C4A27078  25.247   2.790   7.664
 1946POPC   C1B27079  25.134   2.552   8.564
 1946POPC   C2B27080  25.049   2.582   8.264
 1946POPC   C3B27081  25.139   2.603   7.964
 1946POPC   C4B27082  25.101   2.549   7.664
 1947POPC   NC327083   4.309  36.112   9.464
 1947POPC   PO427084   4.319  36.131   9.164
 1947POPC   GL127085   4.331  36.108   8.864
 1947POPC   GL227086   4.411  36.136   8.864
 1947POPC   C1A27087   4.311  36.114   8.564
 1947POPC   D2A27088   4.294  36.175   8.264
 1947POPC   C3A27089   4.325  36.088   7.964
 1947POPC   C4A27090   4.273  36.151   7.664
 1947POPC   C1B27091   4.577  36.139   8.564
 1947POPC   C2B27092   4.610  36.084   8.264
 1947POPC   C3B27093   4.615  36.105   7.964
 1947POPC   C4B27094   4.536  36.087   7.664
 1948POPC   NC327095  15.169  39.200   9.464
 1948POPC   PO427096  15.190  39.184   9.164
 1948POPC   GL127097  15.149  39.202   8.864
 1948POPC   GL227098  15.097  39.172   8.864
 1948POPC   C1A27099  15.194  39.222   8.564
 1948POPC   D2A27100  15.214  39.276   8.264
 1948POPC   C3A27101  15.159  39.237   7.964
 1948POPC   C4A27102  15.137  39.211   7.664
 1948POPC   C1B27103  14.942  39.171   8.564
 1948POPC   C2B27104  14.965  39.125   8.264
 1948POPC   C3B27105  14.910  39.150   7.964
 1948POPC   C4B27106  14.996  39.122   7.664
 1949POPC   NC327107   8.222   1.167   9.464
 1949POPC   PO427108   8.150   1.229   9.164
 1949POPC   GL127109   8.231   1.261   8.864
 1949POPC   GL227110   8.342   1.117   8.864
 1949POPC   C1A27111   8.173   1.176   8.564
 1949POPC   D2A27112   8.167   1.254   8.264
 1949POPC   C3A27113   8.209   1.225   7.964
 1949POPC   C4A27114   8.159   1.252   7.664
 1949POPC   C1B27115   8.468   1.149   8.564
 1949POPC   C2B27116   8.402   1.072   8.264
 1949POPC   C3B27117   8.465   1.155   7.964
 1949POPC   C4B27118   8.378   1.093   7.664
 1950POPC   NC327119  36.895   3.576   9.464
 1950POPC   PO427120  36.884   3.524   9.164
 1950POPC   GL127121  36.898   3.562   8.864
 1950POPC   GL227122  36.935   3.443   8.864
 1950POPC   C1A27123  36.927   3.511   8.564
 1950POPC   D2A27124  36.902   3.564   8.264
 1950POPC   C3A27125  36.855   3.589   7.964
 1950POPC   C4A27126  36.906   3.585   7.664
 1950POPC   C1B27127  37.052   3.363   8.564
 1950POPC   C2B27128  37.094   3.351   8.264
 1950POPC   C3B27129  37.055   3.317   7.964
 1950POPC   C4B27130  37.012   3.374   7.664
 1951POPC   NC327131  22.907  40.795   9.464
 1951POPC   PO427132  22.913  40.763   9.164
 1951POPC   GL127133  22.925  40.788   8.864
 1951POPC   GL227134  22.953  40.890   8.864
 1951POPC   C1A27135  22.904  40.781   8.564
 1951POPC   D2A27136  22.929  40.762   8.264
 1951POPC   C3A27137  22.959  40.778   7.964
 1951POPC   C4A27138  22.928  40.792   7.664
 1951POPC   C1B27139  22.950  41.024   8.564
 1951POPC   C2B27140  22.935  40.994   8.264
 1951POPC   C3B27141  22.961  41.015   7.964
 1951POPC   C4B27142  22.925  41.028   7.664
 1952POPC   NC327143  11.312  36.117   9.464
 1952POPC   PO427144  11.323  36.175   9.164
 1952POPC   GL127145  11.301  36.165   8.864
 1952POPC   GL227146  11.167  36.110   8.864
 1952POPC   C1A27147  11.289  36.113   8.564
 1952POPC   D2A27148  11.323  36.134   8.264
 1952POPC   C3A27149  11.321  36.099   7.964
 1952POPC   C4A27150  11.301  36.167   7.664
 1952POPC   C1B27151  11.066  36.112   8.564
 1952POPC   C2B27152  11.036  36.116   8.264
 1952POPC   C3B27153  11.083  36.136   7.964
 1952POPC   C4B27154  11.084  36.173   7.664
 1953POPC   NC327155  37.643  43.134   9.464
 1953POPC   PO427156  37.696  43.107   9.164
 1953POPC   GL127157  37.648  43.118   8.864
 1953POPC   GL227158  37.778  43.217   8.864
 1953POPC   C1A27159  37.717  43.114   8.564
 1953POPC   D2A27160  37.675  43.062   8.264
 1953POPC   C3A27161  37.682  43.103   7.964
 1953POPC   C4A27162  37.662  43.156   7.664
 1953POPC   C1B27163  37.804  43.335   8.564
 1953POPC   C2B27164  37.812  43.324   8.264
 1953POPC   C3B27165  37.862  43.360   7.964
 1953POPC   C4B27166  37.861  43.332   7.664
 1954POPC   NC327167  11.278  12.042   9.464
 1954POPC   PO427168  11.308  12.047   9.164
 1954POPC   GL127169  11.323  12.105   8.864
 1954POPC   GL227170  11.354  11.982   8.864
 1954POPC   C1A27171  11.322  12.092   8.564
 1954POPC   D2A27172  11.258  12.103   8.264
 1954POPC   C3A27173  11.304  12.041   7.964
 1954POPC   C4A27174  11.340  12.076   7.664
 1954POPC   C1B27175  11.370  11.826   8.564
 1954POPC   C2B27176  11.336  11.840   8.264
 1954POPC   C3B27177  11.343  11.809   7.964
 1954POPC   C4B27178  11.296  11.831   7.664
 1955POPC   NC327179   3.507  42.357   9.464
 1955POPC   PO427180   3.588  42.356   9.164
 1955POPC   GL127181   3.584  42.353   8.864
 1955POPC   GL227182   3.600  42.408   8.864
 1955POPC   C1A27183   3.569  42.361   8.564
 1955POPC   D2A27184   3.529  42.344   8.264
 1955POPC   C3A27185   3.498  42.316   7.964
 1955POPC   C4A27186   3.546  42.318   7.664
 1955POPC   C1B27187   3.654  42.617   8.564
 1955POPC   C2B27188   3.622  42.605   8.264
 1955POPC   C3B27189   3.628  42.596   7.964
 1955POPC   C4B27190   3.648  42.601   7.664
 1956POPC   NC327191  43.099  38.490   9.464
 1956POPC   PO427192  43.154  38.473   9.164
 1956POPC   GL127193  43.071  38.461   8.864
 1956POPC   GL227194  42.950  38.495   8.864
 1956POPC   C1A27195  43.150  38.408   8.564
 1956POPC   D2A27196  43.100  38.499   8.264
 1956POPC   C3A27197  43.132  38.478   7.964
 1956POPC   C4A27198  43.089  38.427   7.664
 1956POPC   C1B27199  42.887  38.468   8.564
 1956POPC   C2B27200  42.882  38.521   8.264
 1956POPC   C3B27201  42.906  38.442   7.964
 1956POPC   C4B27202  42.867  38.475   7.664
 1957POPC   NC327203  33.046  26.861   9.464
 1957POPC   PO427204  33.037  26.812   9.164
 1957POPC   GL127205  33.054  26.831   8.864
 1957POPC   GL227206  32.877  26.860   8.864
 1957POPC   C1A27207  33.071  26.768   8.564
 1957POPC   D2A27208  33.026  26.853   8.264
 1957POPC   C3A27209  32.988  26.788   7.964
 1957POPC   C4A27210  33.045  26.781   7.664
 1957POPC   C1B27211  32.847  26.973   8.564
 1957POPC   C2B27212  32.805  26.924   8.264
 1957POPC   C3B27213  32.784  26.964   7.964
 1957POPC   C4B27214  32.816  26.961   7.664
 1958POPC   NC327215  35.328  14.388   9.464
 1958POPC   PO427216  35.329  14.399   9.164
 1958POPC   GL127217  35.334  14.423   8.864
 1958POPC   GL227218  35.378  14.507   8.864
 1958POPC   C1A27219  35.311  14.362   8.564
 1958POPC   D2A27220  35.395  14.453   8.264
 1958POPC   C3A27221  35.381  14.358   7.964
 1958POPC   C4A27222  35.384  14.377   7.664
 1958POPC   C1B27223  35.301  14.682   8.564
 1958POPC   C2B27224  35.280  14.672   8.264
 1958POPC   C3B27225  35.291  14.681   7.964
 1958POPC   C4B27226  35.312  14.647   7.664
 1959POPC   NC327227  32.294   4.300   9.464
 1959POPC   PO427228  32.286   4.339   9.164
 1959POPC   GL127229  32.251   4.330   8.864
 1959POPC   GL227230  32.324   4.388   8.864
 1959POPC   C1A27231  32.243   4.341   8.564
 1959POPC   D2A27232  32.260   4.351   8.264
 1959POPC   C3A27233  32.253   4.277   7.964
 1959POPC   C4A27234  32.245   4.290   7.664
 1959POPC   C1B27235  32.396   4.560   8.564
 1959POPC   C2B27236  32.336   4.505   8.264
 1959POPC   C3B27237  32.363   4.550   7.964
 1959POPC   C4B27238  32.371   4.490   7.664
 1960POPC   NC327239  28.319   0.460   9.464
 1960POPC   PO427240  28.359   0.405   9.164
 1960POPC   GL127241  28.401   0.445   8.864
 1960POPC   GL227242  28.341   0.571   8.864
 1960POPC   C1A27243  28.383   0.447   8.564
 1960POPC   D2A27244  28.356   0.420   8.264
 1960POPC   C3A27245  28.367   0.450   7.964
 1960POPC   C4A27246  28.382   0.434   7.664
 1960POPC   C1B27247  28.246   0.626   8.564
 1960POPC   C2B27248  28.284   0.652   8.264
 1960POPC   C3B27249  28.221   0.662   7.964
 1960POPC   C4B27250  28.287   0.612   7.664
 1961POPC   NC327251  21.399  24.490   9.464
 1961POPC   PO427252  21.376  24.450   9.164
 1961POPC   GL127253  21.414  24.514   8.864
 1961POPC   GL227254  21.269  24.600   8.864
 1961POPC   C1A27255  21.381  24.453   8.564
 1961POPC   D2A27256  21.362  24.459   8.264
 1961POPC   C3A27257  21.406  24.483   7.964
 1961POPC   C4A27258  21.343  24.530   7.664
 1961POPC   C1B27259  21.273  24.673   8.564
 1961POPC   C2B27260  21.261  24.651   8.264
 1961POPC   C3B27261  21.267  24.668   7.964
 1961POPC   C4B27262  21.258  24.736   7.664
 1962POPC   NC327263   5.843  39.271   9.464
 1962POPC   PO427264   5.889  39.231   9.164
 1962POPC   GL127265   5.841  39.196   8.864
 1962POPC   GL227266   5.826  39.174   8.864
 1962POPC   C1A27267   5.879  39.198   8.564
 1962POPC   D2A27268   5.820  39.232   8.264
 1962POPC   C3A27269   5.905  39.217   7.964
 1962POPC   C4A27270   5.911  39.186   7.664
 1962POPC   C1B27271   5.745  38.997   8.564
 1962POPC   C2B27272   5.678  38.998   8.264
 1962POPC   C3B27273   5.687  39.069   7.964
 1962POPC   C4B27274   5.753  38.995   7.664
 1963POPC   NC327275   5.124  10.547   9.464
 1963POPC   PO427276   5.116  10.520   9.164
 1963POPC   GL127277   5.103  10.539   8.864
 1963POPC   GL227278   5.092  10.642   8.864
 1963POPC   C1A27279   5.109  10.498   8.564
 1963POPC   D2A27280   5.087  10.512   8.264
 1963POPC   C3A27281   5.086  10.544   7.964
 1963POPC   C4A27282   5.046  10.498   7.664
 1963POPC   C1B27283   5.037  10.752   8.564
 1963POPC   C2B27284   4.969  10.780   8.264
 1963POPC   C3B27285   4.957  10.762   7.964
 1963POPC   C4B27286   5.027  10.787   7.664
 1964POPC   NC327287  31.519  35.363   9.464
 1964POPC   PO427288  31.467  35.383   9.164
 1964POPC   GL127289  31.498  35.318   8.864
 1964POPC   GL227290  31.403  35.303   8.864
 1964POPC   C1A27291  31.514  35.334   8.564
 1964POPC   D2A27292  31.496  35.313   8.264
 1964POPC   C3A27293  31.493  35.375   7.964
 1964POPC   C4A27294  31.502  35.329   7.664
 1964POPC   C1B27295  31.294  35.184   8.564
 1964POPC   C2B27296  31.347  35.216   8.264
 1964POPC   C3B27297  31.273  35.196   7.964
 1964POPC   C4B27298  31.278  35.127   7.664
 1965POPC   NC327299  15.133  25.221   9.464
 1965POPC   PO427300  15.159  25.272   9.164
 1965POPC   GL127301  15.174  25.254   8.864
 1965POPC   GL227302  15.155  25.115   8.864
 1965POPC   C1A27303  15.215  25.216   8.564
 1965POPC   D2A27304  15.130  25.249   8.264
 1965POPC   C3A27305  15.171  25.241   7.964
 1965POPC   C4A27306  15.132  25.244   7.664
 1965POPC   C1B27307  15.099  25.069   8.564
 1965POPC   C2B27308  15.067  25.035   8.264
 1965POPC   C3B27309  15.136  25.061   7.964
 1965POPC   C4B27310  15.121  25.072   7.664
 1966POPC   NC327311  33.771  29.145   9.464
 1966POPC   PO427312  33.754  29.136   9.164
 1966POPC   GL127313  33.819  29.148   8.864
 1966POPC   GL227314  33.704  29.074   8.864
 1966POPC   C1A27315  33.759  29.190   8.564
 1966POPC   D2A27316  33.845  29.189   8.264
 1966POPC   C3A27317  33.752  29.103   7.964
 1966POPC   C4A27318  33.782  29.135   7.664
 1966POPC   C1B27319  33.707  28.963   8.564
 1966POPC   C2B27320  33.688  28.952   8.264
 1966POPC   C3B27321  33.724  28.948   7.964
 1966POPC   C4B27322  33.712  28.939   7.664
 1967POPC   NC327323  15.192  36.172   9.464
 1967POPC   PO427324  15.170  36.088   9.164
 1967POPC   GL127325  15.163  36.158   8.864
 1967POPC   GL227326  15.136  36.190   8.864
 1967POPC   C1A27327  15.172  36.099   8.564
 1967POPC   D2A27328  15.163  36.175   8.264
 1967POPC   C3A27329  15.158  36.106   7.964
 1967POPC   C4A27330  15.219  36.156   7.664
 1967POPC   C1B27331  15.078  36.358   8.564
 1967POPC   C2B27332  15.030  36.345   8.264
 1967POPC   C3B27333  15.098  36.389   7.964
 1967POPC   C4B27334  15.083  36.358   7.664
 1968POPC   NC327335  33.060  20.641   9.464
 1968POPC   PO427336  32.988  20.654   9.164
 1968POPC   GL127337  33.004  20.643   8.864
 1968POPC   GL227338  32.906  20.699   8.864
 1968POPC   C1A27339  33.007  20.621   8.564
 1968POPC   D2A27340  32.975  20.569   8.264
 1968POPC   C3A27341  33.024  20.626   7.964
 1968POPC   C4A27342  33.043  20.572   7.664
 1968POPC   C1B27343  32.839  20.725   8.564
 1968POPC   C2B27344  32.781  20.681   8.264
 1968POPC   C3B27345  32.754  20.679   7.964
 1968POPC   C4B27346  32.778  20.678   7.664
 1969POPC   NC327347  12.809  40.050   9.464
 1969POPC   PO427348  12.822  40.048   9.164
 1969POPC   GL127349  12.884  39.978   8.864
 1969POPC   GL227350  12.781  40.154   8.864
 1969POPC   C1A27351  12.852  40.032   8.564
 1969POPC   D2A27352  12.847  39.980   8.264
 1969POPC   C3A27353  12.837  39.999   7.964
 1969POPC   C4A27354  12.884  40.046   7.664
 1969POPC   C1B27355  12.727  40.204   8.564
 1969POPC   C2B27356  12.770  40.218   8.264
 1969POPC   C3B27357  12.746  40.256   7.964
 1969POPC   C4B27358  12.776  40.264   7.664
 1970POPC   NC327359  23.702  26.054   9.464
 1970POPC   PO427360  23.686  26.053   9.164
 1970POPC   GL127361  23.749  26.088   8.864
 1970POPC   GL227362  23.863  25.991   8.864
 1970POPC   C1A27363  23.746  26.073   8.564
 1970POPC   D2A27364  23.688  26.086   8.264
 1970POPC   C3A27365  23.751  26.072   7.964
 1970POPC   C4A27366  23.713  26.015   7.664
 1970POPC   C1B27367  23.882  25.932   8.564
 1970POPC   C2B27368  23.955  25.919   8.264
 1970POPC   C3B27369  23.956  25.932   7.964
 1970POPC   C4B27370  23.953  25.921   7.664
 1971POPC   NC327371  19.097  15.132   9.464
 1971POPC   PO427372  19.026  15.195   9.164
 1971POPC   GL127373  19.017  15.154   8.864
 1971POPC   GL227374  19.040  15.306   8.864
 1971POPC   C1A27375  19.096  15.181   8.564
 1971POPC   D2A27376  19.097  15.142   8.264
 1971POPC   C3A27377  19.085  15.151   7.964
 1971POPC   C4A27378  19.060  15.222   7.664
 1971POPC   C1B27379  19.053  15.412   8.564
 1971POPC   C2B27380  19.095  15.457   8.264
 1971POPC   C3B27381  19.024  15.401   7.964
 1971POPC   C4B27382  19.064  15.438   7.664
 1972POPC   NC327383  23.747  10.564   9.464
 1972POPC   PO427384  23.731  10.551   9.164
 1972POPC   GL127385  23.664  10.509   8.864
 1972POPC   GL227386  23.643  10.588   8.864
 1972POPC   C1A27387  23.693  10.499   8.564
 1972POPC   D2A27388  23.758  10.501   8.264
 1972POPC   C3A27389  23.748  10.513   7.964
 1972POPC   C4A27390  23.680  10.526   7.664
 1972POPC   C1B27391  23.542  10.712   8.564
 1972POPC   C2B27392  23.532  10.633   8.264
 1972POPC   C3B27393  23.484  10.641   7.964
 1972POPC   C4B27394  23.474  10.708   7.664
 1973POPC   NC327395  20.570  19.013   9.464
 1973POPC   PO427396  20.580  19.067   9.164
 1973POPC   GL127397  20.646  19.101   8.864
 1973POPC   GL227398  20.601  19.223   8.864
 1973POPC   C1A27399  20.615  19.094   8.564
 1973POPC   D2A27400  20.640  19.028   8.264
 1973POPC   C3A27401  20.622  19.063   7.964
 1973POPC   C4A27402  20.639  19.010   7.664
 1973POPC   C1B27403  20.501  19.304   8.564
 1973POPC   C2B27404  20.561  19.314   8.264
 1973POPC   C3B27405  20.497  19.321   7.964
 1973POPC   C4B27406  20.541  19.303   7.664
 1974POPC   NC327407  33.070  18.325   9.464
 1974POPC   PO427408  33.066  18.239   9.164
 1974POPC   GL127409  33.070  18.234   8.864
 1974POPC   GL227410  33.131  18.206   8.864
 1974POPC   C1A27411  33.023  18.265   8.564
 1974POPC   D2A27412  33.066  18.330   8.264
 1974POPC   C3A27413  33.003  18.275   7.964
 1974POPC   C4A27414  33.029  18.315   7.664
 1974POPC   C1B27415  33.142  18.043   8.564
 1974POPC   C2B27416  33.104  18.025   8.264
 1974POPC   C3B27417  33.105  18.072   7.964
 1974POPC   C4B27418  33.194  18.057   7.664
 1975POPC   NC327419   9.700  25.311   9.464
 1975POPC   PO427420   9.730  25.226   9.164
 1975POPC   GL127421   9.734  25.229   8.864
 1975POPC   GL227422   9.756  25.187   8.864
 1975POPC   C1A27423   9.715  25.219   8.564
 1975POPC   D2A27424   9.782  25.279   8.264
 1975POPC   C3A27425   9.782  25.287   7.964
 1975POPC   C4A27426   9.720  25.245   7.664
 1975POPC   C1B27427   9.773  25.063   8.564
 1975POPC   C2B27428   9.784  25.032   8.264
 1975POPC   C3B27429   9.737  25.045   7.964
 1975POPC   C4B27430   9.760  25.021   7.664
 1976POPC   NC327431  29.885  12.086   9.464
 1976POPC   PO427432  29.892  12.108   9.164
 1976POPC   GL127433  29.941  12.071   8.864
 1976POPC   GL227434  30.038  12.154   8.864
 1976POPC   C1A27435  29.921  12.031   8.564
 1976POPC   D2A27436  29.881  12.048   8.264
 1976POPC   C3A27437  29.874  12.116   7.964
 1976POPC   C4A27438  29.937  12.033   7.664
 1976POPC   C1B27439  30.140  12.245   8.564
 1976POPC   C2B27440  30.078  12.194   8.264
 1976POPC   C3B27441  30.091  12.261   7.964
 1976POPC   C4B27442  30.126  12.267   7.664
 1977POPC   NC327443   8.998  28.400   9.464
 1977POPC   PO427444   8.998  28.367   9.164
 1977POPC   GL127445   9.001  28.362   8.864
 1977POPC   GL227446   8.914  28.274   8.864
 1977POPC   C1A27447   8.991  28.343   8.564
 1977POPC   D2A27448   9.016  28.360   8.264
 1977POPC   C3A27449   9.000  28.388   7.964
 1977POPC   C4A27450   8.963  28.397   7.664
 1977POPC   C1B27451   8.978  28.171   8.564
 1977POPC   C2B27452   8.904  28.118   8.264
 1977POPC   C3B27453   8.949  28.073   7.964
 1977POPC   C4B27454   8.885  28.147   7.664
 1978POPC   NC327455  41.555  15.999   9.464
 1978POPC   PO427456  41.551  15.935   9.164
 1978POPC   GL127457  41.529  15.941   8.864
 1978POPC   GL227458  41.672  16.082   8.864
 1978POPC   C1A27459  41.528  15.977   8.564
 1978POPC   D2A27460  41.552  15.923   8.264
 1978POPC   C3A27461  41.567  15.940   7.964
 1978POPC   C4A27462  41.583  15.987   7.664
 1978POPC   C1B27463  41.742  16.104   8.564
 1978POPC   C2B27464  41.744  16.177   8.264
 1978POPC   C3B27465  41.689  16.083   7.964
 1978POPC   C4B27466  41.770  16.106   7.664
 1979POPC   NC327467  35.369  29.945   9.464
 1979POPC   PO427468  35.363  29.927   9.164
 1979POPC   GL127469  35.388  29.931   8.864
 1979POPC   GL227470  35.400  30.023   8.864
 1979POPC   C1A27471  35.325  29.911   8.564
 1979POPC   D2A27472  35.342  29.943   8.264
 1979POPC   C3A27473  35.308  29.904   7.964
 1979POPC   C4A27474  35.400  29.873   7.664
 1979POPC   C1B27475  35.556  30.081   8.564
 1979POPC   C2B27476  35.506  30.065   8.264
 1979POPC   C3B27477  35.563  30.066   7.964
 1979POPC   C4B27478  35.496  30.089   7.664
 1980POPC   NC327479  33.758   9.014   9.464
 1980POPC   PO427480  33.835   8.962   9.164
 1980POPC   GL127481  33.766   8.926   8.864
 1980POPC   GL227482  33.895   8.921   8.864
 1980POPC   C1A27483  33.840   8.944   8.564
 1980POPC   D2A27484  33.781   8.937   8.264
 1980POPC   C3A27485  33.767   8.959   7.964
 1980POPC   C4A27486  33.820   9.022   7.664
 1980POPC   C1B27487  33.998   8.765   8.564
 1980POPC   C2B27488  33.983   8.802   8.264
 1980POPC   C3B27489  33.929   8.798   7.964
 1980POPC   C4B27490  33.911   8.793   7.664
 1981POPC   NC327491   0.407   4.356   9.464
 1981POPC   PO427492   0.463   4.279   9.164
 1981POPC   GL127493   0.394   4.277   8.864
 1981POPC   GL227494   0.444   4.189   8.864
 1981POPC   C1A27495   0.471   4.360   8.564
 1981POPC   D2A27496   0.483   4.304   8.264
 1981POPC   C3A27497   0.423   4.331   7.964
 1981POPC   C4A27498   0.478   4.289   7.664
 1981POPC   C1B27499   0.383   4.056   8.564
 1981POPC   C2B27500   0.358   4.057   8.264
 1981POPC   C3B27501   0.341   4.076   7.964
 1981POPC   C4B27502   0.391   4.059   7.664
 1982POPC   NC327503   7.389   3.529   9.464
 1982POPC   PO427504   7.413   3.564   9.164
 1982POPC   GL127505   7.452   3.525   8.864
 1982POPC   GL227506   7.558   3.611   8.864
 1982POPC   C1A27507   7.448   3.534   8.564
 1982POPC   D2A27508   7.410   3.524   8.264
 1982POPC   C3A27509   7.447   3.577   7.964
 1982POPC   C4A27510   7.463   3.559   7.664
 1982POPC   C1B27511   7.593   3.665   8.564
 1982POPC   C2B27512   7.683   3.702   8.264
 1982POPC   C3B27513   7.612   3.687   7.964
 1982POPC   C4B27514   7.651   3.673   7.664
 1983POPC   NC327515  39.259   7.444   9.464
 1983POPC   PO427516  39.194   7.404   9.164
 1983POPC   GL127517  39.271   7.393   8.864
 1983POPC   GL227518  39.312   7.503   8.864
 1983POPC   C1A27519  39.237   7.469   8.564
 1983POPC   D2A27520  39.206   7.440   8.264
 1983POPC   C3A27521  39.235   7.416   7.964
 1983POPC   C4A27522  39.268   7.398   7.664
 1983POPC   C1B27523  39.475   7.540   8.564
 1983POPC   C2B27524  39.406   7.558   8.264
 1983POPC   C3B27525  39.410   7.591   7.964
 1983POPC   C4B27526  39.453   7.526   7.664
 1984POPC   NC327527  13.647  21.382   9.464
 1984POPC   PO427528  13.616  21.350   9.164
 1984POPC   GL127529  13.637  21.392   8.864
 1984POPC   GL227530  13.610  21.309   8.864
 1984POPC   C1A27531  13.673  21.435   8.564
 1984POPC   D2A27532  13.633  21.412   8.264
 1984POPC   C3A27533  13.594  21.398   7.964
 1984POPC   C4A27534  13.619  21.422   7.664
 1984POPC   C1B27535  13.511  21.157   8.564
 1984POPC   C2B27536  13.523  21.117   8.264
 1984POPC   C3B27537  13.547  21.204   7.964
 1984POPC   C4B27538  13.477  21.195   7.664
 1985POPC   NC327539  29.949  19.846   9.464
 1985POPC   PO427540  29.884  19.877   9.164
 1985POPC   GL127541  29.872  19.817   8.864
 1985POPC   GL227542  29.918  19.726   8.864
 1985POPC   C1A27543  29.907  19.841   8.564
 1985POPC   D2A27544  29.916  19.795   8.264
 1985POPC   C3A27545  29.940  19.817   7.964
 1985POPC   C4A27546  29.961  19.857   7.664
 1985POPC   C1B27547  29.997  19.622   8.564
 1985POPC   C2B27548  29.995  19.616   8.264
 1985POPC   C3B27549  29.987  19.584   7.964
 1985POPC   C4B27550  29.933  19.562   7.664
 1986POPC   NC327551  10.557   4.361   9.464
 1986POPC   PO427552  10.488   4.352   9.164
 1986POPC   GL127553  10.525   4.269   8.864
 1986POPC   GL227554  10.441   4.413   8.864
 1986POPC   C1A27555  10.555   4.270   8.564
 1986POPC   D2A27556  10.561   4.350   8.264
 1986POPC   C3A27557  10.507   4.303   7.964
 1986POPC   C4A27558  10.507   4.334   7.664
 1986POPC   C1B27559  10.354   4.495   8.564
 1986POPC   C2B27560  10.275   4.472   8.264
 1986POPC   C3B27561  10.304   4.450   7.964
 1986POPC   C4B27562  10.274   4.407   7.664
 1987POPC   NC327563  27.578   9.728   9.464
 1987POPC   PO427564  27.562   9.736   9.164
 1987POPC   GL127565  27.574   9.777   8.864
 1987POPC   GL227566  27.482   9.662   8.864
 1987POPC   C1A27567  27.556   9.751   8.564
 1987POPC   D2A27568  27.584   9.798   8.264
 1987POPC   C3A27569  27.613   9.763   7.964
 1987POPC   C4A27570  27.607   9.715   7.664
 1987POPC   C1B27571  27.405   9.629   8.564
 1987POPC   C2B27572  27.396   9.533   8.264
 1987POPC   C3B27573  27.371   9.549   7.964
 1987POPC   C4B27574  27.393   9.624   7.664
 1988POPC   NC327575   5.091  19.872   9.464
 1988POPC   PO427576   5.069  19.847   9.164
 1988POPC   GL127577   5.070  19.825   8.864
 1988POPC   GL227578   5.191  19.727   8.864
 1988POPC   C1A27579   5.065  19.833   8.564
 1988POPC   D2A27580   5.057  19.822   8.264
 1988POPC   C3A27581   5.141  19.838   7.964
 1988POPC   C4A27582   5.114  19.808   7.664
 1988POPC   C1B27583   5.344  19.745   8.564
 1988POPC   C2B27584   5.279  19.719   8.264
 1988POPC   C3B27585   5.313  19.708   7.964
 1988POPC   C4B27586   5.346  19.690   7.664
 1989POPC   NC327587   7.458  13.612   9.464
 1989POPC   PO427588   7.403  13.628   9.164
 1989POPC   GL127589   7.441  13.624   8.864
 1989POPC   GL227590   7.524  13.601   8.864
 1989POPC   C1A27591   7.440  13.603   8.564
 1989POPC   D2A27592   7.383  13.608   8.264
 1989POPC   C3A27593   7.431  13.654   7.964
 1989POPC   C4A27594   7.404  13.627   7.664
 1989POPC   C1B27595   7.643  13.621   8.564
 1989POPC   C2B27596   7.642  13.636   8.264
 1989POPC   C3B27597   7.697  13.619   7.964
 1989POPC   C4B27598   7.718  13.687   7.664
 1990POPC   NC327599  29.942  20.615   9.464
 1990POPC   PO427600  29.891  20.605   9.164
 1990POPC   GL127601  29.961  20.645   8.864
 1990POPC   GL227602  29.909  20.676   8.864
 1990POPC   C1A27603  29.917  20.641   8.564
 1990POPC   D2A27604  29.913  20.578   8.264
 1990POPC   C3A27605  29.888  20.606   7.964
 1990POPC   C4A27606  29.931  20.565   7.664
 1990POPC   C1B27607  29.777  20.827   8.564
 1990POPC   C2B27608  29.794  20.881   8.264
 1990POPC   C3B27609  29.801  20.807   7.964
 1990POPC   C4B27610  29.774  20.819   7.664
 1991POPC   NC327611  43.859  36.165   9.464
 1991POPC   PO427612  43.837  36.148   9.164
 1991POPC   GL127613  43.884  36.162   8.864
 1991POPC   GL227614  43.822  36.208   8.864
 1991POPC   C1A27615  43.857  36.165   8.564
 1991POPC   D2A27616  43.838  36.135   8.264
 1991POPC   C3A27617  43.859  36.100   7.964
 1991POPC   C4A27618  43.865  36.127   7.664
 1991POPC   C1B27619  43.746  36.327   8.564
 1991POPC   C2B27620  43.735  36.351   8.264
 1991POPC   C3B27621  43.740  36.334   7.964
 1991POPC   C4B27622  43.704  36.319   7.664
 1992POPC   NC327623  27.637  29.180   9.464
 1992POPC   PO427624  27.575  29.132   9.164
 1992POPC   GL127625  27.564  29.125   8.864
 1992POPC   GL227626  27.685  29.159   8.864
 1992POPC   C1A27627  27.608  29.099   8.564
 1992POPC   D2A27628  27.609  29.100   8.264
 1992POPC   C3A27629  27.546  29.110   7.964
 1992POPC   C4A27630  27.605  29.157   7.664
 1992POPC   C1B27631  27.816  29.056   8.564
 1992POPC   C2B27632  27.887  29.111   8.264
 1992POPC   C3B27633  27.887  29.127   7.964
 1992POPC   C4B27634  27.826  29.121   7.664
 1993POPC   NC327635  24.459  16.769   9.464
 1993POPC   PO427636  24.535  16.708   9.164
 1993POPC   GL127637  24.464  16.692   8.864
 1993POPC   GL227638  24.408  16.604   8.864
 1993POPC   C1A27639  24.461  16.707   8.564
 1993POPC   D2A27640  24.528  16.731   8.264
 1993POPC   C3A27641  24.484  16.691   7.964
 1993POPC   C4A27642  24.536  16.729   7.664
 1993POPC   C1B27643  24.271  16.590   8.564
 1993POPC   C2B27644  24.271  16.597   8.264
 1993POPC   C3B27645  24.275  16.530   7.964
 1993POPC   C4B27646  24.301  16.564   7.664
 1994POPC   NC327647  41.533  33.073   9.464
 1994POPC   PO427648  41.510  33.072   9.164
 1994POPC   GL127649  41.523  33.061   8.864
 1994POPC   GL227650  41.616  32.897   8.864
 1994POPC   C1A27651  41.568  32.989   8.564
 1994POPC   D2A27652  41.558  33.004   8.264
 1994POPC   C3A27653  41.554  33.037   7.964
 1994POPC   C4A27654  41.530  33.012   7.664
 1994POPC   C1B27655  41.614  32.753   8.564
 1994POPC   C2B27656  41.593  32.789   8.264
 1994POPC   C3B27657  41.606  32.789   7.964
 1994POPC   C4B27658  41.579  32.820   7.664
 1995POPC   NC327659   3.570  36.910   9.464
 1995POPC   PO427660   3.547  36.860   9.164
 1995POPC   GL127661   3.514  36.858   8.864
 1995POPC   GL227662   3.649  36.892   8.864
 1995POPC   C1A27663   3.492  36.894   8.564
 1995POPC   D2A27664   3.534  36.859   8.264
 1995POPC   C3A27665   3.538  36.877   7.964
 1995POPC   C4A27666   3.502  36.941   7.664
 1995POPC   C1B27667   3.820  36.814   8.564
 1995POPC   C2B27668   3.791  36.862   8.264
 1995POPC   C3B27669   3.787  36.871   7.964
 1995POPC   C4B27670   3.815  36.821   7.664
 1996POPC   NC327671  20.573  42.332   9.464
 1996POPC   PO427672  20.572  42.301   9.164
 1996POPC   GL127673  20.571  42.288   8.864
 1996POPC   GL227674  20.607  42.232   8.864
 1996POPC   C1A27675  20.590  42.303   8.564
 1996POPC   D2A27676  20.630  42.364   8.264
 1996POPC   C3A27677  20.657  42.333   7.964
 1996POPC   C4A27678  20.656  42.299   7.664
 1996POPC   C1B27679  20.536  42.089   8.564
 1996POPC   C2B27680  20.566  42.046   8.264
 1996POPC   C3B27681  20.569  42.112   7.964
 1996POPC   C4B27682  20.523  42.080   7.664
 1997POPC   NC327683  22.935   4.359   9.464
 1997POPC   PO427684  22.944   4.323   9.164
 1997POPC   GL127685  22.937   4.309   8.864
 1997POPC   GL227686  23.053   4.342   8.864
 1997POPC   C1A27687  22.954   4.285   8.564
 1997POPC   D2A27688  22.896   4.302   8.264
 1997POPC   C3A27689  22.935   4.271   7.964
 1997POPC   C4A27690  22.926   4.284   7.664
 1997POPC   C1B27691  23.173   4.417   8.564
 1997POPC   C2B27692  23.178   4.425   8.264
 1997POPC   C3B27693  23.207   4.431   7.964
 1997POPC   C4B27694  23.185   4.427   7.664
 1998POPC   NC327695   5.914   8.209   9.464
 1998POPC   PO427696   5.904   8.232   9.164
 1998POPC   GL127697   5.837   8.187   8.864
 1998POPC   GL227698   5.918   8.274   8.864
 1998POPC   C1A27699   5.853   8.219   8.564
 1998POPC   D2A27700   5.861   8.163   8.264
 1998POPC   C3A27701   5.904   8.164   7.964
 1998POPC   C4A27702   5.845   8.220   7.664
 1998POPC   C1B27703   5.938   8.409   8.564
 1998POPC   C2B27704   5.972   8.464   8.264
 1998POPC   C3B27705   5.954   8.379   7.964
 1998POPC   C4B27706   5.939   8.416   7.664
 1999POPC   NC327707  26.086   3.555   9.464
 1999POPC   PO427708  25.997   3.555   9.164
 1999POPC   GL127709  26.018   3.579   8.864
 1999POPC   GL227710  26.069   3.453   8.864
 1999POPC   C1A27711  26.009   3.505   8.564
 1999POPC   D2A27712  26.022   3.526   8.264
 1999POPC   C3A27713  26.070   3.547   7.964
 1999POPC   C4A27714  26.007   3.539   7.664
 1999POPC   C1B27715  26.192   3.289   8.564
 1999POPC   C2B27716  26.212   3.335   8.264
 1999POPC   C3B27717  26.150   3.373   7.964
 1999POPC   C4B27718  26.177   3.294   7.664
 2000POPC   NC327719  24.502   0.389   9.464
 2000POPC   PO427720  24.521   0.479   9.164
 2000POPC   GL127721  24.522   0.439   8.864
 2000POPC   GL227722  24.523   0.518   8.864
 2000POPC   C1A27723  24.492   0.391   8.564
 2000POPC   D2A27724  24.466   0.440   8.264
 2000POPC   C3A27725  24.492   0.471   7.964
 2000POPC   C4A27726  24.501   0.447   7.664
 2000POPC   C1B27727  24.522   0.693   8.564
 2000POPC   C2B27728  24.505   0.722   8.264
 2000POPC   C3B27729  24.485   0.648   7.964
 2000POPC   C4B27730  24.466   0.668   7.664
 2001POPC   NC327731  19.817   2.740   9.464
 2001POPC   PO427732  19.828   2.777   9.164
 2001POPC   GL127733  19.843   2.773   8.864
 2001POPC   GL227734  19.741   2.716   8.864
 2001POPC   C1A27735  19.813   2.794   8.564
 2001POPC   D2A27736  19.785   2.800   8.264
 2001POPC   C3A27737  19.808   2.799   7.964
 2001POPC   C4A27738  19.824   2.814   7.664
 2001POPC   C1B27739  19.681   2.559   8.564
 2001POPC   C2B27740  19.605   2.641   8.264
 2001POPC   C3B27741  19.597   2.649   7.964
 2001POPC   C4B27742  19.662   2.615   7.664
 2002POPC   NC327743  19.800  26.059   9.464
 2002POPC   PO427744  19.870  26.055   9.164
 2002POPC   GL127745  19.807  26.012   8.864
 2002POPC   GL227746  19.955  26.016   8.864
 2002POPC   C1A27747  19.843  26.036   8.564
 2002POPC   D2A27748  19.792  26.001   8.264
 2002POPC   C3A27749  19.836  26.069   7.964
 2002POPC   C4A27750  19.859  26.062   7.664
 2002POPC   C1B27751  20.126  26.001   8.564
 2002POPC   C2B27752  20.088  26.024   8.264
 2002POPC   C3B27753  20.073  26.045   7.964
 2002POPC   C4B27754  20.114  26.064   7.664
 2003POPC   NC327755   5.903  43.925   9.464
 2003POPC   PO427756   5.823  43.930   9.164
 2003POPC   GL127757   5.910  43.875   8.864
 2003POPC   GL227758   5.798  43.736   8.864
 2003POPC   C1A27759   5.852  43.843   8.564
 2003POPC   D2A27760   5.905  43.855   8.264
 2003POPC   C3A27761   5.913  43.935   7.964
 2003POPC   C4A27762   5.869  43.885   7.664
 2003POPC   C1B27763   5.738  43.643   8.564
 2003POPC   C2B27764   5.706  43.639   8.264
 2003POPC   C3B27765   5.768  43.650   7.964
 2003POPC   C4B27766   5.709  43.655   7.664
 2004POPC   NC327767  33.756   1.980   9.464
 2004POPC   PO427768  33.784   1.947   9.164
 2004POPC   GL127769  33.795   1.947   8.864
 2004POPC   GL227770  33.959   1.906   8.864
 2004POPC   C1A27771  33.814   1.997   8.564
 2004POPC   D2A27772  33.764   1.973   8.264
 2004POPC   C3A27773  33.824   1.949   7.964
 2004POPC   C4A27774  33.777   2.025   7.664
 2004POPC   C1B27775  34.016   1.931   8.564
 2004POPC   C2B27776  34.027   1.876   8.264
 2004POPC   C3B27777  34.025   1.849   7.964
 2004POPC   C4B27778  34.068   1.901   7.664
 2005POPC   NC327779  26.782  22.913   9.464
 2005POPC   PO427780  26.829  22.926   9.164
 2005POPC   GL127781  26.814  22.934   8.864
 2005POPC   GL227782  26.707  22.869   8.864
 2005POPC   C1A27783  26.800  22.938   8.564
 2005POPC   D2A27784  26.783  22.974   8.264
 2005POPC   C3A27785  26.848  22.917   7.964
 2005POPC   C4A27786  26.838  22.960   7.664
 2005POPC   C1B27787  26.624  22.743   8.564
 2005POPC   C2B27788  26.686  22.761   8.264
 2005POPC   C3B27789  26.674  22.809   7.964
 2005POPC   C4B27790  26.611  22.756   7.664
 2006POPC   NC327791   9.002  10.537   9.464
 2006POPC   PO427792   8.944  10.545   9.164
 2006POPC   GL127793   8.986  10.499   8.864
 2006POPC   GL227794   9.052  10.427   8.864
 2006POPC   C1A27795   8.935  10.519   8.564
 2006POPC   D2A27796   9.003  10.490   8.264
 2006POPC   C3A27797   8.938  10.560   7.964
 2006POPC   C4A27798   8.956  10.494   7.664
 2006POPC   C1B27799   9.171  10.358   8.564
 2006POPC   C2B27800   9.155  10.328   8.264
 2006POPC   C3B27801   9.140  10.392   7.964
 2006POPC   C4B27802   9.120  10.350   7.664
 2007POPC   NC327803   8.999  33.020   9.464
 2007POPC   PO427804   9.016  33.009   9.164
 2007POPC   GL127805   8.950  33.025   8.864
 2007POPC   GL227806   9.114  33.033   8.864
 2007POPC   C1A27807   8.964  32.983   8.564
 2007POPC   D2A27808   8.964  32.982   8.264
 2007POPC   C3A27809   9.003  33.004   7.964
 2007POPC   C4A27810   9.007  33.030   7.664
 2007POPC   C1B27811   9.180  33.048   8.564
 2007POPC   C2B27812   9.209  33.003   8.264
 2007POPC   C3B27813   9.255  33.010   7.964
 2007POPC   C4B27814   9.247  33.050   7.664
 2008POPC   NC327815  23.683   8.152   9.464
 2008POPC   PO427816  23.735   8.186   9.164
 2008POPC   GL127817  23.706   8.213   8.864
 2008POPC   GL227818  23.640   8.313   8.864
 2008POPC   C1A27819  23.689   8.212   8.564
 2008POPC   D2A27820  23.685   8.179   8.264
 2008POPC   C3A27821  23.710   8.165   7.964
 2008POPC   C4A27822  23.714   8.158   7.664
 2008POPC   C1B27823  23.518   8.305   8.564
 2008POPC   C2B27824  23.486   8.385   8.264
 2008POPC   C3B27825  23.519   8.383   7.964
 2008POPC   C4B27826  23.529   8.295   7.664
 2009POPC   NC327827  25.249  26.859   9.464
 2009POPC   PO427828  25.301  26.794   9.164
 2009POPC   GL127829  25.264  26.826   8.864
 2009POPC   GL227830  25.212  26.645   8.864
 2009POPC   C1A27831  25.246  26.836   8.564
 2009POPC   D2A27832  25.239  26.773   8.264
 2009POPC   C3A27833  25.258  26.800   7.964
 2009POPC   C4A27834  25.227  26.840   7.664
 2009POPC   C1B27835  25.194  26.611   8.564
 2009POPC   C2B27836  25.291  26.576   8.264
 2009POPC   C3B27837  25.250  26.568   7.964
 2009POPC   C4B27838  25.219  26.616   7.664
 2010POPC   NC327839  43.924  40.034   9.464
 2010POPC   PO427840  43.893  39.991   9.164
 2010POPC   GL127841  43.910  39.973   8.864
 2010POPC   GL227842  43.743  40.065   8.864
 2010POPC   C1A27843  43.918  39.982   8.564
 2010POPC   D2A27844  43.934  40.025   8.264
 2010POPC   C3A27845  43.901  39.968   7.964
 2010POPC   C4A27846  43.907  39.969   7.664
 2010POPC   C1B27847  43.644  40.193   8.564
 2010POPC   C2B27848  43.718  40.102   8.264
 2010POPC   C3B27849  43.713  40.180   7.964
 2010POPC   C4B27850  43.721  40.159   7.664
 2011POPC   NC327851  30.741  20.629   9.464
 2011POPC   PO427852  30.690  20.580   9.164
 2011POPC   GL127853  30.692  20.655   8.864
 2011POPC   GL227854  30.642  20.521   8.864
 2011POPC   C1A27855  30.744  20.586   8.564
 2011POPC   D2A27856  30.694  20.586   8.264
 2011POPC   C3A27857  30.736  20.648   7.964
 2011POPC   C4A27858  30.676  20.622   7.664
 2011POPC   C1B27859  30.596  20.383   8.564
 2011POPC   C2B27860  30.561  20.330   8.264
 2011POPC   C3B27861  30.657  20.416   7.964
 2011POPC   C4B27862  30.598  20.327   7.664
 2012POPC   NC327863  37.674  43.880   9.464
 2012POPC   PO427864  37.642  43.892   9.164
 2012POPC   GL127865  37.662  43.841   8.864
 2012POPC   GL227866  37.629  43.829   8.864
 2012POPC   C1A27867  37.636  43.895   8.564
 2012POPC   D2A27868  37.697  43.901   8.264
 2012POPC   C3A27869  37.678  43.857   7.964
 2012POPC   C4A27870  37.667  43.895   7.664
 2012POPC   C1B27871  37.486  43.723   8.564
 2012POPC   C2B27872  37.512  43.694   8.264
 2012POPC   C3B27873  37.541  43.708   7.964
 2012POPC   C4B27874  37.493  43.668   7.664
 2013POPC   NC327875   7.429  27.632   9.464
 2013POPC   PO427876   7.452  27.627   9.164
 2013POPC   GL127877   7.396  27.548   8.864
 2013POPC   GL227878   7.544  27.548   8.864
 2013POPC   C1A27879   7.463  27.568   8.564
 2013POPC   D2A27880   7.393  27.579   8.264
 2013POPC   C3A27881   7.415  27.554   7.964
 2013POPC   C4A27882   7.421  27.568   7.664
 2013POPC   C1B27883   7.608  27.470   8.564
 2013POPC   C2B27884   7.637  27.480   8.264
 2013POPC   C3B27885   7.646  27.476   7.964
 2013POPC   C4B27886   7.622  27.442   7.664
 2014POPC   NC327887  19.822   7.442   9.464
 2014POPC   PO427888  19.836   7.458   9.164
 2014POPC   GL127889  19.813   7.434   8.864
 2014POPC   GL227890  19.748   7.265   8.864
 2014POPC   C1A27891  19.877   7.389   8.564
 2014POPC   D2A27892  19.848   7.403   8.264
 2014POPC   C3A27893  19.842   7.380   7.964
 2014POPC   C4A27894  19.847   7.396   7.664
 2014POPC   C1B27895  19.753   7.179   8.564
 2014POPC   C2B27896  19.779   7.226   8.264
 2014POPC   C3B27897  19.779   7.145   7.964
 2014POPC   C4B27898  19.745   7.143   7.664
 2015POPC   NC327899  42.381  12.090   9.464
 2015POPC   PO427900  42.340  12.050   9.164
 2015POPC   GL127901  42.319  12.114   8.864
 2015POPC   GL227902  42.427  12.062   8.864
 2015POPC   C1A27903  42.333  12.092   8.564
 2015POPC   D2A27904  42.361  12.126   8.264
 2015POPC   C3A27905  42.315  12.082   7.964
 2015POPC   C4A27906  42.307  12.033   7.664
 2015POPC   C1B27907  42.604  12.019   8.564
 2015POPC   C2B27908  42.627  12.033   8.264
 2015POPC   C3B27909  42.529  12.014   7.964
 2015POPC   C4B27910  42.568  12.021   7.664
 2016POPC   NC327911   2.772  20.599   9.464
 2016POPC   PO427912   2.746  20.593   9.164
 2016POPC   GL127913   2.786  20.620   8.864
 2016POPC   GL227914   2.782  20.524   8.864
 2016POPC   C1A27915   2.777  20.621   8.564
 2016POPC   D2A27916   2.762  20.657   8.264
 2016POPC   C3A27917   2.812  20.650   7.964
 2016POPC   C4A27918   2.724  20.643   7.664
 2016POPC   C1B27919   2.710  20.364   8.564
 2016POPC   C2B27920   2.672  20.373   8.264
 2016POPC   C3B27921   2.762  20.390   7.964
 2016POPC   C4B27922   2.711  20.393   7.664
 2017POPC   NC327923   2.031  26.071   9.464
 2017POPC   PO427924   1.982  26.013   9.164
 2017POPC   GL127925   2.003  26.058   8.864
 2017POPC   GL227926   2.031  26.128   8.864
 2017POPC   C1A27927   1.965  26.031   8.564
 2017POPC   D2A27928   2.021  26.002   8.264
 2017POPC   C3A27929   2.039  26.008   7.964
 2017POPC   C4A27930   2.039  26.088   7.664
 2017POPC   C1B27931   2.140  26.223   8.564
 2017POPC   C2B27932   2.088  26.238   8.264
 2017POPC   C3B27933   2.142  26.214   7.964
 2017POPC   C4B27934   2.165  26.296   7.664
 2018POPC   NC327935  36.106  34.589   9.464
 2018POPC   PO427936  36.125  34.541   9.164
 2018POPC   GL127937  36.121  34.528   8.864
 2018POPC   GL227938  36.035  34.647   8.864
 2018POPC   C1A27939  36.094  34.605   8.564
 2018POPC   D2A27940  36.158  34.569   8.264
 2018POPC   C3A27941  36.118  34.537   7.964
 2018POPC   C4A27942  36.092  34.538   7.664
 2018POPC   C1B27943  35.913  34.672   8.564
 2018POPC   C2B27944  35.863  34.624   8.264
 2018POPC   C3B27945  35.902  34.646   7.964
 2018POPC   C4B27946  35.851  34.641   7.664
 2019POPC   NC327947  16.722  18.258   9.464
 2019POPC   PO427948  16.691  18.280   9.164
 2019POPC   GL127949  16.768  18.257   8.864
 2019POPC   GL227950  16.813  18.379   8.864
 2019POPC   C1A27951  16.705  18.243   8.564
 2019POPC   D2A27952  16.715  18.314   8.264
 2019POPC   C3A27953  16.752  18.284   7.964
 2019POPC   C4A27954  16.725  18.251   7.664
 2019POPC   C1B27955  16.892  18.433   8.564
 2019POPC   C2B27956  16.922  18.442   8.264
 2019POPC   C3B27957  16.855  18.459   7.964
 2019POPC   C4B27958  16.898  18.467   7.664
 2020POPC   NC327959   8.219  35.348   9.464
 2020POPC   PO427960   8.230  35.397   9.164
 2020POPC   GL127961   8.235  35.316   8.864
 2020POPC   GL227962   8.056  35.277   8.864
 2020POPC   C1A27963   8.156  35.385   8.564
 2020POPC   D2A27964   8.155  35.360   8.264
 2020POPC   C3A27965   8.176  35.340   7.964
 2020POPC   C4A27966   8.243  35.377   7.664
 2020POPC   C1B27967   8.001  35.322   8.564
 2020POPC   C2B27968   7.952  35.273   8.264
 2020POPC   C3B27969   8.000  35.299   7.964
 2020POPC   C4B27970   7.969  35.316   7.664
 2021POPC   NC327971  37.706  40.793   9.464
 2021POPC   PO427972  37.709  40.777   9.164
 2021POPC   GL127973  37.690  40.778   8.864
 2021POPC   GL227974  37.752  40.648   8.864
 2021POPC   C1A27975  37.681  40.816   8.564
 2021POPC   D2A27976  37.641  40.748   8.264
 2021POPC   C3A27977  37.714  40.746   7.964
 2021POPC   C4A27978  37.679  40.743   7.664
 2021POPC   C1B27979  37.777  40.511   8.564
 2021POPC   C2B27980  37.758  40.529   8.264
 2021POPC   C3B27981  37.759  40.583   7.964
 2021POPC   C4B27982  37.798  40.522   7.664
 2022POPC   NC327983  29.116  28.397   9.464
 2022POPC   PO427984  29.168  28.380   9.164
 2022POPC   GL127985  29.189  28.412   8.864
 2022POPC   GL227986  29.252  28.284   8.864
 2022POPC   C1A27987  29.171  28.351   8.564
 2022POPC   D2A27988  29.113  28.413   8.264
 2022POPC   C3A27989  29.134  28.358   7.964
 2022POPC   C4A27990  29.120  28.366   7.664
 2022POPC   C1B27991  29.384  28.315   8.564
 2022POPC   C2B27992  29.355  28.230   8.264
 2022POPC   C3B27993  29.358  28.239   7.964
 2022POPC   C4B27994  29.393  28.292   7.664
 2023POPC   NC327995  22.929  36.949   9.464
 2023POPC   PO427996  22.922  36.863   9.164
 2023POPC   GL127997  22.965  36.943   8.864
 2023POPC   GL227998  22.964  36.761   8.864
 2023POPC   C1A27999  22.926  36.904   8.564
 2023POPC   D2A28000  22.912  36.859   8.264
 2023POPC   C3A28001  22.907  36.864   7.964
 2023POPC   C4A28002  22.983  36.928   7.664
 2023POPC   C1B28003  22.908  36.657   8.564
 2023POPC   C2B28004  22.910  36.644   8.264
 2023POPC   C3B28005  22.938  36.637   7.964
 2023POPC   C4B28006  22.926  36.609   7.664
 2024POPC   NC328007  36.889   2.024   9.464
 2024POPC   PO428008  36.858   1.976   9.164
 2024POPC   GL128009  36.920   1.979   8.864
 2024POPC   GL228010  36.942   1.899   8.864
 2024POPC   C1A28011  36.890   1.952   8.564
 2024POPC   D2A28012  36.938   1.941   8.264
 2024POPC   C3A28013  36.869   2.036   7.964
 2024POPC   C4A28014  36.922   2.001   7.664
 2024POPC   C1B28015  36.906   1.763   8.564
 2024POPC   C2B28016  36.941   1.730   8.264
 2024POPC   C3B28017  36.979   1.695   7.964
 2024POPC   C4B28018  36.942   1.707   7.664
 2025POPC   NC328019  20.649  22.957   9.464
 2025POPC   PO428020  20.647  22.978   9.164
 2025POPC   GL128021  20.584  22.914   8.864
 2025POPC   GL228022  20.477  22.915   8.864
 2025POPC   C1A28023  20.645  22.892   8.564
 2025POPC   D2A28024  20.635  22.928   8.264
 2025POPC   C3A28025  20.567  22.956   7.964
 2025POPC   C4A28026  20.659  22.968   7.664
 2025POPC   C1B28027  20.390  22.884   8.564
 2025POPC   C2B28028  20.341  22.896   8.264
 2025POPC   C3B28029  20.346  22.862   7.964
 2025POPC   C4B28030  20.350  22.923   7.664
 2026POPC   NC328031  22.176   3.505   9.464
 2026POPC   PO428032  22.200   3.498   9.164
 2026POPC   GL128033  22.122   3.543   8.864
 2026POPC   GL228034  22.206   3.458   8.864
 2026POPC   C1A28035  22.157   3.566   8.564
 2026POPC   D2A28036  22.186   3.582   8.264
 2026POPC   C3A28037  22.162   3.515   7.964
 2026POPC   C4A28038  22.122   3.492   7.664
 2026POPC   C1B28039  22.308   3.389   8.564
 2026POPC   C2B28040  22.305   3.354   8.264
 2026POPC   C3B28041  22.318   3.345   7.964
 2026POPC   C4B28042  22.332   3.334   7.664
 2027POPC   NC328043  12.096  12.101   9.464
 2027POPC   PO428044  12.056  12.111   9.164
 2027POPC   GL128045  12.063  12.036   8.864
 2027POPC   GL228046  12.139  12.164   8.864
 2027POPC   C1A28047  12.124  12.028   8.564
 2027POPC   D2A28048  12.118  12.084   8.264
 2027POPC   C3A28049  12.078  12.082   7.964
 2027POPC   C4A28050  12.029  12.092   7.664
 2027POPC   C1B28051  12.150  12.285   8.564
 2027POPC   C2B28052  12.166  12.268   8.264
 2027POPC   C3B28053  12.122  12.307   7.964
 2027POPC   C4B28054  12.141  12.304   7.664
 2028POPC   NC328055  10.556   5.893   9.464
 2028POPC   PO428056  10.486   5.899   9.164
 2028POPC   GL128057  10.501   5.896   8.864
 2028POPC   GL228058  10.556   5.768   8.864
 2028POPC   C1A28059  10.527   5.872   8.564
 2028POPC   D2A28060  10.532   5.827   8.264
 2028POPC   C3A28061  10.484   5.881   7.964
 2028POPC   C4A28062  10.573   5.830   7.664
 2028POPC   C1B28063  10.608   5.668   8.564
 2028POPC   C2B28064  10.573   5.593   8.264
 2028POPC   C3B28065  10.550   5.680   7.964
 2028POPC   C4B28066  10.615   5.668   7.664
 2029POPC   NC328067  12.058  26.865   9.464
 2029POPC   PO428068  12.089  26.785   9.164
 2029POPC   GL128069  12.040  26.797   8.864
 2029POPC   GL228070  12.227  26.877   8.864
 2029POPC   C1A28071  12.093  26.828   8.564
 2029POPC   D2A28072  12.121  26.845   8.264
 2029POPC   C3A28073  12.043  26.779   7.964
 2029POPC   C4A28074  12.029  26.793   7.664
 2029POPC   C1B28075  12.314  26.926   8.564
 2029POPC   C2B28076  12.292  26.949   8.264
 2029POPC   C3B28077  12.279  26.914   7.964
 2029POPC   C4B28078  12.336  26.952   7.664
 2030POPC   NC328079  43.116  12.051   9.464
 2030POPC   PO428080  43.104  12.066   9.164
 2030POPC   GL128081  43.063  12.118   8.864
 2030POPC   GL228082  43.170  12.102   8.864
 2030POPC   C1A28083  43.153  12.113   8.564
 2030POPC   D2A28084  43.070  12.051   8.264
 2030POPC   C3A28085  43.096  12.054   7.964
 2030POPC   C4A28086  43.089  12.092   7.664
 2030POPC   C1B28087  43.326  12.257   8.564
 2030POPC   C2B28088  43.360  12.240   8.264
 2030POPC   C3B28089  43.328  12.264   7.964
 2030POPC   C4B28090  43.360  12.190   7.664
 2031POPC   NC328091  22.908  26.842   9.464
 2031POPC   PO428092  22.929  26.812   9.164
 2031POPC   GL128093  22.949  26.824   8.864
 2031POPC   GL228094  22.874  26.913   8.864
 2031POPC   C1A28095  22.935  26.771   8.564
 2031POPC   D2A28096  22.944  26.773   8.264
 2031POPC   C3A28097  22.956  26.849   7.964
 2031POPC   C4A28098  22.957  26.787   7.664
 2031POPC   C1B28099  22.734  26.999   8.564
 2031POPC   C2B28100  22.704  27.013   8.264
 2031POPC   C3B28101  22.733  26.965   7.964
 2031POPC   C4B28102  22.792  27.016   7.664
 2032POPC   NC328103   8.997  21.421   9.464
 2032POPC   PO428104   8.979  21.432   9.164
 2032POPC   GL128105   8.934  21.378   8.864
 2032POPC   GL228106   9.003  21.460   8.864
 2032POPC   C1A28107   8.933  21.359   8.564
 2032POPC   D2A28108   8.954  21.360   8.264
 2032POPC   C3A28109   8.928  21.399   7.964
 2032POPC   C4A28110   8.991  21.370   7.664
 2032POPC   C1B28111   8.889  21.626   8.564
 2032POPC   C2B28112   8.973  21.633   8.264
 2032POPC   C3B28113   8.933  21.621   7.964
 2032POPC   C4B28114   8.907  21.647   7.664
 2033POPC   NC328115   3.569  20.574   9.464
 2033POPC   PO428116   3.538  20.580   9.164
 2033POPC   GL128117   3.550  20.597   8.864
 2033POPC   GL228118   3.421  20.538   8.864
 2033POPC   C1A28119   3.544  20.600   8.564
 2033POPC   D2A28120   3.502  20.610   8.264
 2033POPC   C3A28121   3.582  20.598   7.964
 2033POPC   C4A28122   3.519  20.634   7.664
 2033POPC   C1B28123   3.275  20.565   8.564
 2033POPC   C2B28124   3.343  20.511   8.264
 2033POPC   C3B28125   3.300  20.504   7.964
 2033POPC   C4B28126   3.262  20.565   7.664
 2034POPC   NC328127  30.689  38.501   9.464
 2034POPC   PO428128  30.664  38.469   9.164
 2034POPC   GL128129  30.671  38.424   8.864
 2034POPC   GL228130  30.608  38.546   8.864
 2034POPC   C1A28131  30.686  38.428   8.564
 2034POPC   D2A28132  30.652  38.440   8.264
 2034POPC   C3A28133  30.672  38.484   7.964
 2034POPC   C4A28134  30.717  38.449   7.664
 2034POPC   C1B28135  30.512  38.649   8.564
 2034POPC   C2B28136  30.464  38.584   8.264
 2034POPC   C3B28137  30.519  38.584   7.964
 2034POPC   C4B28138  30.500  38.568   7.664
 2035POPC   NC328139  43.918  13.595   9.464
 2035POPC   PO428140  43.930  13.673   9.164
 2035POPC   GL128141  43.924  13.595   8.864
 2035POPC   GL228142  43.855  13.498   8.864
 2035POPC   C1A28143  43.916  13.672   8.564
 2035POPC   D2A28144  43.907  13.592   8.264
 2035POPC   C3A28145  43.865  13.578   7.964
 2035POPC   C4A28146  43.913  13.649   7.664
 2035POPC   C1B28147  43.884  13.374   8.564
 2035POPC   C2B28148  43.841  13.424   8.264
 2035POPC   C3B28149  43.798  13.420   7.964
 2035POPC   C4B28150  43.862  13.403   7.664
 2036POPC   NC328151   8.946   5.115   9.464
 2036POPC   PO428152   8.967   5.082   9.164
 2036POPC   GL128153   8.938   5.068   8.864
 2036POPC   GL228154   9.022   4.940   8.864
 2036POPC   C1A28155   8.925   5.097   8.564
 2036POPC   D2A28156   8.982   5.054   8.264
 2036POPC   C3A28157   8.944   5.058   7.964
 2036POPC   C4A28158   9.000   5.085   7.664
 2036POPC   C1B28159   8.973   4.799   8.564
 2036POPC   C2B28160   9.035   4.818   8.264
 2036POPC   C3B28161   9.037   4.878   7.964
 2036POPC   C4B28162   9.014   4.796   7.664
 2037POPC   NC328163  18.309  19.108   9.464
 2037POPC   PO428164  18.252  19.009   9.164
 2037POPC   GL128165  18.272  19.051   8.864
 2037POPC   GL228166  18.267  19.183   8.864
 2037POPC   C1A28167  18.307  19.067   8.564
 2037POPC   D2A28168  18.262  19.046   8.264
 2037POPC   C3A28169  18.239  19.025   7.964
 2037POPC   C4A28170  18.293  19.089   7.664
 2037POPC   C1B28171  18.335  19.313   8.564
 2037POPC   C2B28172  18.332  19.321   8.264
 2037POPC   C3B28173  18.272  19.260   7.964
 2037POPC   C4B28174  18.360  19.349   7.664
 2038POPC   NC328175  24.509  39.261   9.464
 2038POPC   PO428176  24.499  39.251   9.164
 2038POPC   GL128177  24.514  39.231   8.864
 2038POPC   GL228178  24.326  39.206   8.864
 2038POPC   C1A28179  24.497  39.268   8.564
 2038POPC   D2A28180  24.442  39.192   8.264
 2038POPC   C3A28181  24.483  39.238   7.964
 2038POPC   C4A28182  24.519  39.253   7.664
 2038POPC   C1B28183  24.279  39.298   8.564
 2038POPC   C2B28184  24.219  39.239   8.264
 2038POPC   C3B28185  24.276  39.202   7.964
 2038POPC   C4B28186  24.227  39.298   7.664
 2039POPC   NC328187  12.893  16.710   9.464
 2039POPC   PO428188  12.847  16.713   9.164
 2039POPC   GL128189  12.874  16.699   8.864
 2039POPC   GL228190  12.732  16.728   8.864
 2039POPC   C1A28191  12.874  16.700   8.564
 2039POPC   D2A28192  12.858  16.704   8.264
 2039POPC   C3A28193  12.824  16.781   7.964
 2039POPC   C4A28194  12.811  16.745   7.664
 2039POPC   C1B28195  12.624  16.643   8.564
 2039POPC   C2B28196  12.666  16.602   8.264
 2039POPC   C3B28197  12.629  16.622   7.964
 2039POPC   C4B28198  12.580  16.635   7.664
 2040POPC   NC328199   9.731  41.541   9.464
 2040POPC   PO428200   9.714  41.588   9.164
 2040POPC   GL128201   9.701  41.511   8.864
 2040POPC   GL228202   9.674  41.556   8.864
 2040POPC   C1A28203   9.715  41.576   8.564
 2040POPC   D2A28204   9.792  41.564   8.264
 2040POPC   C3A28205   9.777  41.521   7.964
 2040POPC   C4A28206   9.718  41.545   7.664
 2040POPC   C1B28207   9.486  41.454   8.564
 2040POPC   C2B28208   9.542  41.423   8.264
 2040POPC   C3B28209   9.494  41.475   7.964
 2040POPC   C4B28210   9.479  41.461   7.664
 2041POPC   NC328211  17.470  12.803   9.464
 2041POPC   PO428212  17.476  12.892   9.164
 2041POPC   GL128213  17.547  12.829   8.864
 2041POPC   GL228214  17.579  12.744   8.864
 2041POPC   C1A28215  17.474  12.830   8.564
 2041POPC   D2A28216  17.540  12.869   8.264
 2041POPC   C3A28217  17.520  12.826   7.964
 2041POPC   C4A28218  17.469  12.870   7.664
 2041POPC   C1B28219  17.670  12.619   8.564
 2041POPC   C2B28220  17.632  12.693   8.264
 2041POPC   C3B28221  17.690  12.684   7.964
 2041POPC   C4B28222  17.695  12.646   7.664
 2042POPC   NC328223  30.695  34.620   9.464
 2042POPC   PO428224  30.707  34.598   9.164
 2042POPC   GL128225  30.737  34.545   8.864
 2042POPC   GL228226  30.574  34.552   8.864
 2042POPC   C1A28227  30.672  34.565   8.564
 2042POPC   D2A28228  30.662  34.589   8.264
 2042POPC   C3A28229  30.724  34.612   7.964
 2042POPC   C4A28230  30.658  34.542   7.664
 2042POPC   C1B28231  30.467  34.571   8.564
 2042POPC   C2B28232  30.426  34.514   8.264
 2042POPC   C3B28233  30.410  34.490   7.964
 2042POPC   C4B28234  30.415  34.487   7.664
 2043POPC   NC328235  10.566   9.782   9.464
 2043POPC   PO428236  10.557   9.705   9.164
 2043POPC   GL128237  10.493   9.710   8.864
 2043POPC   GL228238  10.569   9.889   8.864
 2043POPC   C1A28239  10.488   9.797   8.564
 2043POPC   D2A28240  10.538   9.782   8.264
 2043POPC   C3A28241  10.528   9.749   7.964
 2043POPC   C4A28242  10.569   9.785   7.664
 2043POPC   C1B28243  10.646  10.008   8.564
 2043POPC   C2B28244  10.607   9.963   8.264
 2043POPC   C3B28245  10.612   9.970   7.964
 2043POPC   C4B28246  10.637   9.934   7.664
 2044POPC   NC328247  33.784  15.973   9.464
 2044POPC   PO428248  33.816  15.971   9.164
 2044POPC   GL128249  33.757  15.909   8.864
 2044POPC   GL228250  33.849  16.085   8.864
 2044POPC   C1A28251  33.827  15.915   8.564
 2044POPC   D2A28252  33.847  15.910   8.264
 2044POPC   C3A28253  33.802  15.970   7.964
 2044POPC   C4A28254  33.780  15.982   7.664
 2044POPC   C1B28255  33.925  16.166   8.564
 2044POPC   C2B28256  33.986  16.108   8.264
 2044POPC   C3B28257  33.998  16.169   7.964
 2044POPC   C4B28258  33.947  16.190   7.664
 2045POPC   NC328259  40.031   7.447   9.464
 2045POPC   PO428260  39.960   7.374   9.164
 2045POPC   GL128261  39.961   7.379   8.864
 2045POPC   GL228262  39.919   7.508   8.864
 2045POPC   C1A28263  39.989   7.466   8.564
 2045POPC   D2A28264  40.029   7.458   8.264
 2045POPC   C3A28265  40.011   7.387   7.964
 2045POPC   C4A28266  40.024   7.462   7.664
 2045POPC   C1B28267  39.756   7.545   8.564
 2045POPC   C2B28268  39.806   7.504   8.264
 2045POPC   C3B28269  39.730   7.518   7.964
 2045POPC   C4B28270  39.750   7.529   7.664
 2046POPC   NC328271  22.136   6.692   9.464
 2046POPC   PO428272  22.145   6.690   9.164
 2046POPC   GL128273  22.181   6.662   8.864
 2046POPC   GL228274  22.243   6.632   8.864
 2046POPC   C1A28275  22.159   6.641   8.564
 2046POPC   D2A28276  22.194   6.668   8.264
 2046POPC   C3A28277  22.124   6.636   7.964
 2046POPC   C4A28278  22.193   6.620   7.664
 2046POPC   C1B28279  22.402   6.641   8.564
 2046POPC   C2B28280  22.370   6.620   8.264
 2046POPC   C3B28281  22.422   6.635   7.964
 2046POPC   C4B28282  22.448   6.612   7.664
 2047POPC   NC328283  28.413  19.079   9.464
 2047POPC   PO428284  28.355  19.036   9.164
 2047POPC   GL128285  28.361  19.099   8.864
 2047POPC   GL228286  28.300  19.157   8.864
 2047POPC   C1A28287  28.333  19.094   8.564
 2047POPC   D2A28288  28.404  19.022   8.264
 2047POPC   C3A28289  28.409  19.079   7.964
 2047POPC   C4A28290  28.410  19.052   7.664
 2047POPC   C1B28291  28.268  19.268   8.564
 2047POPC   C2B28292  28.293  19.265   8.264
 2047POPC   C3B28293  28.317  19.324   7.964
 2047POPC   C4B28294  28.293  19.339   7.664
 2048POPC   NC328295  42.293  28.353   9.464
 2048POPC   PO428296  42.344  28.399   9.164
 2048POPC   GL128297  42.370  28.340   8.864
 2048POPC   GL228298  42.473  28.332   8.864
 2048POPC   C1A28299  42.349  28.343   8.564
 2048POPC   D2A28300  42.332  28.327   8.264
 2048POPC   C3A28301  42.304  28.331   7.964
 2048POPC   C4A28302  42.295  28.320   7.664
 2048POPC   C1B28303  42.573  28.210   8.564
 2048POPC   C2B28304  42.567  28.253   8.264
 2048POPC   C3B28305  42.517  28.298   7.964
 2048POPC   C4B28306  42.539  28.240   7.664
 2049POPC   NC328307   7.415  42.380   9.464
 2049POPC   PO428308   7.438  42.352   9.164
 2049POPC   GL128309   7.439  42.337   8.864
 2049POPC   GL228310   7.546  42.283   8.864
 2049POPC   C1A28311   7.440  42.303   8.564
 2049POPC   D2A28312   7.439  42.353   8.264
 2049POPC   C3A28313   7.418  42.295   7.964
 2049POPC   C4A28314   7.415  42.309   7.664
 2049POPC   C1B28315   7.592  42.132   8.564
 2049POPC   C2B28316   7.624  42.188   8.264
 2049POPC   C3B28317   7.593  42.197   7.964
 2049POPC   C4B28318   7.656  42.216   7.664
 2050POPC   NC328319  23.682  43.067   9.464
 2050POPC   PO428320  23.671  43.082   9.164
 2050POPC   GL128321  23.705  43.074   8.864
 2050POPC   GL228322  23.638  43.181   8.864
 2050POPC   C1A28323  23.745  43.111   8.564
 2050POPC   D2A28324  23.723  43.153   8.264
 2050POPC   C3A28325  23.745  43.080   7.964
 2050POPC   C4A28326  23.673  43.080   7.664
 2050POPC   C1B28327  23.489  43.238   8.564
 2050POPC   C2B28328  23.503  43.296   8.264
 2050POPC   C3B28329  23.523  43.294   7.964
 2050POPC   C4B28330  23.483  43.278   7.664
 2051POPC   NC328331  21.353  32.271   9.464
 2051POPC   PO428332  21.355  32.298   9.164
 2051POPC   GL128333  21.396  32.225   8.864
 2051POPC   GL228334  21.344  32.101   8.864
 2051POPC   C1A28335  21.429  32.252   8.564
 2051POPC   D2A28336  21.392  32.264   8.264
 2051POPC   C3A28337  21.346  32.238   7.964
 2051POPC   C4A28338  21.422  32.277   7.664
 2051POPC   C1B28339  21.407  31.992   8.564
 2051POPC   C2B28340  21.357  31.959   8.264
 2051POPC   C3B28341  21.355  31.961   7.964
 2051POPC   C4B28342  21.328  32.032   7.664
 2052POPC   NC328343  29.944  16.750   9.464
 2052POPC   PO428344  29.936  16.761   9.164
 2052POPC   GL128345  29.964  16.739   8.864
 2052POPC   GL228346  29.896  16.872   8.864
 2052POPC   C1A28347  29.906  16.760   8.564
 2052POPC   D2A28348  29.873  16.691   8.264
 2052POPC   C3A28349  29.928  16.733   7.964
 2052POPC   C4A28350  29.918  16.781   7.664
 2052POPC   C1B28351  29.900  16.993   8.564
 2052POPC   C2B28352  29.887  16.958   8.264
 2052POPC   C3B28353  29.879  16.947   7.964
 2052POPC   C4B28354  29.924  16.994   7.664
 2053POPC   NC328355  19.075  26.007   9.464
 2053POPC   PO428356  19.038  26.059   9.164
 2053POPC   GL128357  19.045  26.010   8.864
 2053POPC   GL228358  19.110  25.992   8.864
 2053POPC   C1A28359  19.098  26.056   8.564
 2053POPC   D2A28360  19.016  26.072   8.264
 2053POPC   C3A28361  19.016  26.042   7.964
 2053POPC   C4A28362  19.093  26.020   7.664
 2053POPC   C1B28363  19.213  25.882   8.564
 2053POPC   C2B28364  19.230  25.868   8.264
 2053POPC   C3B28365  19.197  25.895   7.964
 2053POPC   C4B28366  19.261  25.860   7.664
 2054POPC   NC328367  11.315  14.425   9.464
 2054POPC   PO428368  11.261  14.356   9.164
 2054POPC   GL128369  11.330  14.412   8.864
 2054POPC   GL228370  11.201  14.501   8.864
 2054POPC   C1A28371  11.331  14.386   8.564
 2054POPC   D2A28372  11.320  14.359   8.264
 2054POPC   C3A28373  11.302  14.381   7.964
 2054POPC   C4A28374  11.345  14.395   7.664
 2054POPC   C1B28375  11.193  14.564   8.564
 2054POPC   C2B28376  11.124  14.594   8.264
 2054POPC   C3B28377  11.172  14.586   7.964
 2054POPC   C4B28378  11.147  14.587   7.664
 2055POPC   NC328379  23.723  37.646   9.464
 2055POPC   PO428380  23.759  37.709   9.164
 2055POPC   GL128381  23.755  37.681   8.864
 2055POPC   GL228382  23.689  37.561   8.864
 2055POPC   C1A28383  23.705  37.694   8.564
 2055POPC   D2A28384  23.684  37.705   8.264
 2055POPC   C3A28385  23.704  37.679   7.964
 2055POPC   C4A28386  23.711  37.663   7.664
 2055POPC   C1B28387  23.721  37.445   8.564
 2055POPC   C2B28388  23.721  37.392   8.264
 2055POPC   C3B28389  23.725  37.416   7.964
 2055POPC   C4B28390  23.685  37.401   7.664
 2056POPC   NC328391  19.843   5.903   9.464
 2056POPC   PO428392  19.883   5.821   9.164
 2056POPC   GL128393  19.803   5.904   8.864
 2056POPC   GL228394  19.683   5.867   8.864
 2056POPC   C1A28395  19.860   5.829   8.564
 2056POPC   D2A28396  19.869   5.876   8.264
 2056POPC   C3A28397  19.814   5.865   7.964
 2056POPC   C4A28398  19.799   5.873   7.664
 2056POPC   C1B28399  19.620   5.792   8.564
 2056POPC   C2B28400  19.566   5.753   8.264
 2056POPC   C3B28401  19.618   5.793   7.964
 2056POPC   C4B28402  19.579   5.735   7.664
 2057POPC   NC328403  24.456  43.157   9.464
 2057POPC   PO428404  24.492  43.128   9.164
 2057POPC   GL128405  24.525  43.097   8.864
 2057POPC   GL228406  24.634  43.090   8.864
 2057POPC   C1A28407  24.519  43.108   8.564
 2057POPC   D2A28408  24.536  43.110   8.264
 2057POPC   C3A28409  24.475  43.145   7.964
 2057POPC   C4A28410  24.451  43.115   7.664
 2057POPC   C1B28411  24.676  43.021   8.564
 2057POPC   C2B28412  24.747  43.014   8.264
 2057POPC   C3B28413  24.669  42.984   7.964
 2057POPC   C4B28414  24.686  43.012   7.664
 2058POPC   NC328415  35.360  25.265   9.464
 2058POPC   PO428416  35.314  25.313   9.164
 2058POPC   GL128417  35.378  25.304   8.864
 2058POPC   GL228418  35.370  25.171   8.864
 2058POPC   C1A28419  35.338  25.228   8.564
 2058POPC   D2A28420  35.337  25.308   8.264
 2058POPC   C3A28421  35.363  25.231   7.964
 2058POPC   C4A28422  35.386  25.287   7.664
 2058POPC   C1B28423  35.469  25.042   8.564
 2058POPC   C2B28424  35.472  25.041   8.264
 2058POPC   C3B28425  35.501  25.050   7.964
 2058POPC   C4B28426  35.411  25.001   7.664
 2059POPC   NC328427  43.898   6.648   9.464
 2059POPC   PO428428  43.854   6.599   9.164
 2059POPC   GL128429  43.927   6.689   8.864
 2059POPC   GL228430  44.048   6.547   8.864
 2059POPC   C1A28431  43.922   6.609   8.564
 2059POPC   D2A28432  43.883   6.663   8.264
 2059POPC   C3A28433  43.879   6.675   7.964
 2059POPC   C4A28434  43.860   6.642   7.664
 2059POPC   C1B28435  44.081   6.556   8.564
 2059POPC   C2B28436  44.094   6.533   8.264
 2059POPC   C3B28437  44.067   6.511   7.964
 2059POPC   C4B28438  44.160   6.524   7.664
 2060POPC   NC328439  33.798  24.524   9.464
 2060POPC   PO428440  33.795  24.526   9.164
 2060POPC   GL128441  33.823  24.501   8.864
 2060POPC   GL228442  33.684  24.345   8.864
 2060POPC   C1A28443  33.755  24.446   8.564
 2060POPC   D2A28444  33.814  24.471   8.264
 2060POPC   C3A28445  33.797  24.458   7.964
 2060POPC   C4A28446  33.806  24.494   7.664
 2060POPC   C1B28447  33.706  24.248   8.564
 2060POPC   C2B28448  33.676  24.239   8.264
 2060POPC   C3B28449  33.664  24.268   7.964
 2060POPC   C4B28450  33.657  24.281   7.664
 2061POPC   NC328451   8.202   9.734   9.464
 2061POPC   PO428452   8.208   9.796   9.164
 2061POPC   GL128453   8.149   9.786   8.864
 2061POPC   GL228454   8.099   9.777   8.864
 2061POPC   C1A28455   8.225   9.702   8.564
 2061POPC   D2A28456   8.185   9.757   8.264
 2061POPC   C3A28457   8.159   9.788   7.964
 2061POPC   C4A28458   8.222   9.752   7.664
 2061POPC   C1B28459   7.958   9.780   8.564
 2061POPC   C2B28460   7.907   9.775   8.264
 2061POPC   C3B28461   7.959   9.707   7.964
 2061POPC   C4B28462   7.902   9.706   7.664
 2062POPC   NC328463   9.798  32.274   9.464
 2062POPC   PO428464   9.790  32.267   9.164
 2062POPC   GL128465   9.756  32.200   8.864
 2062POPC   GL228466   9.736  32.088   8.864
 2062POPC   C1A28467   9.724  32.283   8.564
 2062POPC   D2A28468   9.770  32.234   8.264
 2062POPC   C3A28469   9.798  32.237   7.964
 2062POPC   C4A28470   9.726  32.269   7.664
 2062POPC   C1B28471   9.764  32.009   8.564
 2062POPC   C2B28472   9.760  31.984   8.264
 2062POPC   C3B28473   9.807  32.045   7.964
 2062POPC   C4B28474   9.793  31.974   7.664
 2063POPC   NC328475  21.424   6.667   9.464
 2063POPC   PO428476  21.352   6.613   9.164
 2063POPC   GL128477  21.361   6.645   8.864
 2063POPC   GL228478  21.391   6.504   8.864
 2063POPC   C1A28479  21.341   6.677   8.564
 2063POPC   D2A28480  21.386   6.681   8.264
 2063POPC   C3A28481  21.386   6.645   7.964
 2063POPC   C4A28482  21.365   6.627   7.664
 2063POPC   C1B28483  21.395   6.416   8.564
 2063POPC   C2B28484  21.391   6.371   8.264
 2063POPC   C3B28485  21.364   6.400   7.964
 2063POPC   C4B28486  21.358   6.408   7.664
 2064POPC   NC328487  15.166  20.575   9.464
 2064POPC   PO428488  15.159  20.562   9.164
 2064POPC   GL128489  15.148  20.583   8.864
 2064POPC   GL228490  15.274  20.581   8.864
 2064POPC   C1A28491  15.205  20.589   8.564
 2064POPC   D2A28492  15.196  20.599   8.264
 2064POPC   C3A28493  15.162  20.635   7.964
 2064POPC   C4A28494  15.175  20.577   7.664
 2064POPC   C1B28495  15.381  20.428   8.564
 2064POPC   C2B28496  15.349  20.504   8.264
 2064POPC   C3B28497  15.367  20.473   7.964
 2064POPC   C4B28498  15.425  20.502   7.664
 2065POPC   NC328499  42.333   4.337   9.464
 2065POPC   PO428500  42.372   4.350   9.164
 2065POPC   GL128501  42.288   4.334   8.864
 2065POPC   GL228502  42.433   4.320   8.864
 2065POPC   C1A28503  42.357   4.317   8.564
 2065POPC   D2A28504  42.331   4.349   8.264
 2065POPC   C3A28505  42.296   4.329   7.964
 2065POPC   C4A28506  42.357   4.273   7.664
 2065POPC   C1B28507  42.614   4.297   8.564
 2065POPC   C2B28508  42.603   4.320   8.264
 2065POPC   C3B28509  42.603   4.307   7.964
 2065POPC   C4B28510  42.548   4.294   7.664
 2066POPC   NC328511  19.799  31.492   9.464
 2066POPC   PO428512  19.835  31.486   9.164
 2066POPC   GL128513  19.869  31.514   8.864
 2066POPC   GL228514  19.924  31.320   8.864
 2066POPC   C1A28515  19.842  31.460   8.564
 2066POPC   D2A28516  19.829  31.508   8.264
 2066POPC   C3A28517  19.849  31.476   7.964
 2066POPC   C4A28518  19.805  31.470   7.664
 2066POPC   C1B28519  19.904  31.270   8.564
 2066POPC   C2B28520  19.918  31.192   8.264
 2066POPC   C3B28521  19.903  31.214   7.964
 2066POPC   C4B28522  19.948  31.262   7.664
 2067POPC   NC328523   9.741   0.413   9.464
 2067POPC   PO428524   9.745   0.403   9.164
 2067POPC   GL128525   9.740   0.449   8.864
 2067POPC   GL228526   9.580   0.479   8.864
 2067POPC   C1A28527   9.796   0.412   8.564
 2067POPC   D2A28528   9.774   0.444   8.264
 2067POPC   C3A28529   9.768   0.453   7.964
 2067POPC   C4A28530   9.698   0.449   7.664
 2067POPC   C1B28531   9.535   0.515   8.564
 2067POPC   C2B28532   9.537   0.494   8.264
 2067POPC   C3B28533   9.514   0.478   7.964
 2067POPC   C4B28534   9.531   0.558   7.664
 2068POPC   NC328535  30.647   0.467   9.464
 2068POPC   PO428536  30.702   0.398   9.164
 2068POPC   GL128537  30.700   0.412   8.864
 2068POPC   GL228538  30.806   0.320   8.864
 2068POPC   C1A28539  30.717   0.441   8.564
 2068POPC   D2A28540  30.726   0.430   8.264
 2068POPC   C3A28541  30.666   0.448   7.964
 2068POPC   C4A28542  30.743   0.422   7.664
 2068POPC   C1B28543  30.856   0.237   8.564
 2068POPC   C2B28544  30.854   0.172   8.264
 2068POPC   C3B28545  30.792   0.186   7.964
 2068POPC   C4B28546  30.828   0.218   7.664
 2069POPC   NC328547  36.086  26.843   9.464
 2069POPC   PO428548  36.080  26.829   9.164
 2069POPC   GL128549  36.157  26.782   8.864
 2069POPC   GL228550  36.219  26.850   8.864
 2069POPC   C1A28551  36.091  26.827   8.564
 2069POPC   D2A28552  36.090  26.839   8.264
 2069POPC   C3A28553  36.111  26.816   7.964
 2069POPC   C4A28554  36.123  26.853   7.664
 2069POPC   C1B28555  36.349  26.930   8.564
 2069POPC   C2B28556  36.315  26.896   8.264
 2069POPC   C3B28557  36.362  26.963   7.964
 2069POPC   C4B28558  36.316  26.908   7.664
 2070POPC   NC328559   1.974  35.400   9.464
 2070POPC   PO428560   2.036  35.344   9.164
 2070POPC   GL128561   2.013  35.392   8.864
 2070POPC   GL228562   1.939  35.244   8.864
 2070POPC   C1A28563   1.963  35.324   8.564
 2070POPC   D2A28564   1.969  35.332   8.264
 2070POPC   C3A28565   1.992  35.304   7.964
 2070POPC   C4A28566   2.010  35.382   7.664
 2070POPC   C1B28567   1.850  35.141   8.564
 2070POPC   C2B28568   1.827  35.126   8.264
 2070POPC   C3B28569   1.856  35.131   7.964
 2070POPC   C4B28570   1.885  35.152   7.664
 2071POPC   NC328571   3.518  11.323   9.464
 2071POPC   PO428572   3.569  11.342   9.164
 2071POPC   GL128573   3.553  11.348   8.864
 2071POPC   GL228574   3.635  11.214   8.864
 2071POPC   C1A28575   3.492  11.281   8.564
 2071POPC   D2A28576   3.533  11.252   8.264
 2071POPC   C3A28577   3.536  11.256   7.964
 2071POPC   C4A28578   3.513  11.324   7.664
 2071POPC   C1B28579   3.758  11.109   8.564
 2071POPC   C2B28580   3.783  11.146   8.264
 2071POPC   C3B28581   3.746  11.197   7.964
 2071POPC   C4B28582   3.719  11.126   7.664
 2072POPC   NC328583  40.755  29.114   9.464
 2072POPC   PO428584  40.768  29.167   9.164
 2072POPC   GL128585  40.756  29.178   8.864
 2072POPC   GL228586  40.751  29.275   8.864
 2072POPC   C1A28587  40.743  29.156   8.564
 2072POPC   D2A28588  40.812  29.099   8.264
 2072POPC   C3A28589  40.792  29.168   7.964
 2072POPC   C4A28590  40.791  29.174   7.664
 2072POPC   C1B28591  40.797  29.390   8.564
 2072POPC   C2B28592  40.740  29.413   8.264
 2072POPC   C3B28593  40.740  29.354   7.964
 2072POPC   C4B28594  40.798  29.358   7.664
 2073POPC   NC328595  33.807  43.912   9.464
 2073POPC   PO428596  33.754  43.926   9.164
 2073POPC   GL128597  33.773  43.891   8.864
 2073POPC   GL228598  33.701  44.002   8.864
 2073POPC   C1A28599  33.773  43.908   8.564
 2073POPC   D2A28600  33.805  43.860   8.264
 2073POPC   C3A28601  33.837  43.907   7.964
 2073POPC   C4A28602  33.805  43.895   7.664
 2073POPC   C1B28603  33.627  44.010   8.564
 2073POPC   C2B28604  33.629  44.079   8.264
 2073POPC   C3B28605  33.639  44.043   7.964
 2073POPC   C4B28606  33.658  44.058   7.664
 2074POPC   NC328607   3.492  13.597   9.464
 2074POPC   PO428608   3.530  13.639   9.164
 2074POPC   GL128609   3.493  13.598   8.864
 2074POPC   GL228610   3.406  13.739   8.864
 2074POPC   C1A28611   3.522  13.630   8.564
 2074POPC   D2A28612   3.508  13.661   8.264
 2074POPC   C3A28613   3.518  13.617   7.964
 2074POPC   C4A28614   3.496  13.584   7.664
 2074POPC   C1B28615   3.341  13.798   8.564
 2074POPC   C2B28616   3.366  13.767   8.264
 2074POPC   C3B28617   3.288  13.745   7.964
 2074POPC   C4B28618   3.313  13.802   7.664
 2075POPC   NC328619  23.707  36.160   9.464
 2075POPC   PO428620  23.711  36.079   9.164
 2075POPC   GL128621  23.673  36.120   8.864
 2075POPC   GL228622  23.806  36.114   8.864
 2075POPC   C1A28623  23.726  36.088   8.564
 2075POPC   D2A28624  23.696  36.122   8.264
 2075POPC   C3A28625  23.670  36.101   7.964
 2075POPC   C4A28626  23.675  36.138   7.664
 2075POPC   C1B28627  23.986  36.034   8.564
 2075POPC   C2B28628  23.959  36.009   8.264
 2075POPC   C3B28629  23.980  36.100   7.964
 2075POPC   C4B28630  23.943  36.068   7.664
 2076POPC   NC328631   2.027   3.579   9.464
 2076POPC   PO428632   1.979   3.500   9.164
 2076POPC   GL128633   2.021   3.581   8.864
 2076POPC   GL228634   1.928   3.390   8.864
 2076POPC   C1A28635   1.993   3.578   8.564
 2076POPC   D2A28636   1.957   3.541   8.264
 2076POPC   C3A28637   2.037   3.492   7.964
 2076POPC   C4A28638   1.960   3.558   7.664
 2076POPC   C1B28639   1.956   3.268   8.564
 2076POPC   C2B28640   1.971   3.334   8.264
 2076POPC   C3B28641   1.934   3.274   7.964
 2076POPC   C4B28642   1.875   3.340   7.664
 2077POPC   NC328643   2.773  19.876   9.464
 2077POPC   PO428644   2.794  19.826   9.164
 2077POPC   GL128645   2.788  19.872   8.864
 2077POPC   GL228646   2.743  19.945   8.864
 2077POPC   C1A28647   2.765  19.882   8.564
 2077POPC   D2A28648   2.778  19.817   8.264
 2077POPC   C3A28649   2.768  19.878   7.964
 2077POPC   C4A28650   2.774  19.851   7.664
 2077POPC   C1B28651   2.803  20.060   8.564
 2077POPC   C2B28652   2.788  20.081   8.264
 2077POPC   C3B28653   2.808  20.109   7.964
 2077POPC   C4B28654   2.761  20.081   7.664
 2078POPC   NC328655  18.316   3.587   9.464
 2078POPC   PO428656  18.313   3.581   9.164
 2078POPC   GL128657  18.302   3.497   8.864
 2078POPC   GL228658  18.442   3.535   8.864
 2078POPC   C1A28659  18.266   3.507   8.564
 2078POPC   D2A28660  18.326   3.508   8.264
 2078POPC   C3A28661  18.327   3.576   7.964
 2078POPC   C4A28662  18.311   3.560   7.664
 2078POPC   C1B28663  18.557   3.516   8.564
 2078POPC   C2B28664  18.506   3.587   8.264
 2078POPC   C3B28665  18.555   3.607   7.964
 2078POPC   C4B28666  18.546   3.569   7.664
 2079POPC   NC328667  32.985  25.286   9.464
 2079POPC   PO428668  33.009  25.312   9.164
 2079POPC   GL128669  32.984  25.277   8.864
 2079POPC   GL228670  32.984  25.383   8.864
 2079POPC   C1A28671  32.987  25.273   8.564
 2079POPC   D2A28672  33.001  25.308   8.264
 2079POPC   C3A28673  32.994  25.225   7.964
 2079POPC   C4A28674  33.017  25.293   7.664
 2079POPC   C1B28675  32.953  25.479   8.564
 2079POPC   C2B28676  32.937  25.470   8.264
 2079POPC   C3B28677  32.980  25.487   7.964
 2079POPC   C4B28678  32.961  25.503   7.664
 2080POPC   NC328679  36.888   5.072   9.464
 2080POPC   PO428680  36.911   5.136   9.164
 2080POPC   GL128681  36.903   5.060   8.864
 2080POPC   GL228682  36.809   5.088   8.864
 2080POPC   C1A28683  36.909   5.080   8.564
 2080POPC   D2A28684  36.909   5.104   8.264
 2080POPC   C3A28685  36.934   5.055   7.964
 2080POPC   C4A28686  36.888   5.064   7.664
 2080POPC   C1B28687  36.650   5.026   8.564
 2080POPC   C2B28688  36.687   5.044   8.264
 2080POPC   C3B28689  36.668   5.087   7.964
 2080POPC   C4B28690  36.643   5.018   7.664
 2081POPC   NC328691  40.802   2.743   9.464
 2081POPC   PO428692  40.758   2.769   9.164
 2081POPC   GL128693  40.814   2.789   8.864
 2081POPC   GL228694  40.624   2.811   8.864
 2081POPC   C1A28695  40.821   2.814   8.564
 2081POPC   D2A28696  40.828   2.760   8.264
 2081POPC   C3A28697  40.795   2.722   7.964
 2081POPC   C4A28698  40.755   2.815   7.664
 2081POPC   C1B28699  40.539   2.799   8.564
 2081POPC   C2B28700  40.498   2.710   8.264
 2081POPC   C3B28701  40.493   2.780   7.964
 2081POPC   C4B28702  40.537   2.724   7.664
 2082POPC   NC328703   5.898   1.952   9.464
 2082POPC   PO428704   5.828   2.033   9.164
 2082POPC   GL128705   5.835   1.949   8.864
 2082POPC   GL228706   5.848   1.879   8.864
 2082POPC   C1A28707   5.859   2.009   8.564
 2082POPC   D2A28708   5.843   1.978   8.264
 2082POPC   C3A28709   5.845   2.033   7.964
 2082POPC   C4A28710   5.916   2.021   7.664
 2082POPC   C1B28711   5.909   1.785   8.564
 2082POPC   C2B28712   5.913   1.770   8.264
 2082POPC   C3B28713   5.862   1.706   7.964
 2082POPC   C4B28714   5.869   1.722   7.664
 2083POPC   NC328715   0.423  26.846   9.464
 2083POPC   PO428716   0.478  26.858   9.164
 2083POPC   GL128717   0.423  26.822   8.864
 2083POPC   GL228718   0.415  26.983   8.864
 2083POPC   C1A28719   0.416  26.784   8.564
 2083POPC   D2A28720   0.418  26.772   8.264
 2083POPC   C3A28721   0.429  26.781   7.964
 2083POPC   C4A28722   0.444  26.795   7.664
 2083POPC   C1B28723   0.363  27.057   8.564
 2083POPC   C2B28724   0.325  27.104   8.264
 2083POPC   C3B28725   0.409  27.076   7.964
 2083POPC   C4B28726   0.341  27.017   7.664
 2084POPC   NC328727  19.087  17.530   9.464
 2084POPC   PO428728  19.088  17.530   9.164
 2084POPC   GL128729  19.107  17.553   8.864
 2084POPC   GL228730  19.199  17.459   8.864
 2084POPC   C1A28731  19.027  17.468   8.564
 2084POPC   D2A28732  19.030  17.556   8.264
 2084POPC   C3A28733  19.038  17.528   7.964
 2084POPC   C4A28734  19.096  17.545   7.664
 2084POPC   C1B28735  19.224  17.319   8.564
 2084POPC   C2B28736  19.262  17.307   8.264
 2084POPC   C3B28737  19.306  17.329   7.964
 2084POPC   C4B28738  19.235  17.379   7.664
 2085POPC   NC328739  22.937  23.714   9.464
 2085POPC   PO428740  22.933  23.756   9.164
 2085POPC   GL128741  22.902  23.664   8.864
 2085POPC   GL228742  22.948  23.612   8.864
 2085POPC   C1A28743  22.906  23.687   8.564
 2085POPC   D2A28744  22.964  23.731   8.264
 2085POPC   C3A28745  22.920  23.707   7.964
 2085POPC   C4A28746  22.961  23.752   7.664
 2085POPC   C1B28747  23.065  23.451   8.564
 2085POPC   C2B28748  23.009  23.488   8.264
 2085POPC   C3B28749  23.030  23.464   7.964
 2085POPC   C4B28750  23.052  23.454   7.664
 2086POPC   NC328751   4.275   0.438   9.464
 2086POPC   PO428752   4.275   0.480   9.164
 2086POPC   GL128753   4.284   0.468   8.864
 2086POPC   GL228754   4.232   0.557   8.864
 2086POPC   C1A28755   4.319   0.398   8.564
 2086POPC   D2A28756   4.274   0.477   8.264
 2086POPC   C3A28757   4.318   0.422   7.964
 2086POPC   C4A28758   4.335   0.473   7.664
 2086POPC   C1B28759   4.259   0.635   8.564
 2086POPC   C2B28760   4.284   0.668   8.264
 2086POPC   C3B28761   4.226   0.634   7.964
 2086POPC   C4B28762   4.251   0.666   7.664
 2087POPC   NC328763  26.863   8.949   9.464
 2087POPC   PO428764  26.784   8.940   9.164
 2087POPC   GL128765  26.771   8.997   8.864
 2087POPC   GL228766  26.912   8.841   8.864
 2087POPC   C1A28767  26.808   8.975   8.564
 2087POPC   D2A28768  26.840   9.020   8.264
 2087POPC   C3A28769  26.823   8.979   7.964
 2087POPC   C4A28770  26.812   8.966   7.664
 2087POPC   C1B28771  26.968   8.704   8.564
 2087POPC   C2B28772  26.910   8.749   8.264
 2087POPC   C3B28773  26.939   8.784   7.964
 2087POPC   C4B28774  26.966   8.791   7.664
 2088POPC   NC328775  25.315  19.093   9.464
 2088POPC   PO428776  25.236  19.023   9.164
 2088POPC   GL128777  25.305  19.034   8.864
 2088POPC   GL228778  25.229  18.901   8.864
 2088POPC   C1A28779  25.217  19.053   8.564
 2088POPC   D2A28780  25.307  19.050   8.264
 2088POPC   C3A28781  25.252  19.014   7.964
 2088POPC   C4A28782  25.291  19.071   7.664
 2088POPC   C1B28783  25.245  18.781   8.564
 2088POPC   C2B28784  25.274  18.781   8.264
 2088POPC   C3B28785  25.287  18.794   7.964
 2088POPC   C4B28786  25.207  18.771   7.664
 2089POPC   NC328787  36.883  28.413   9.464
 2089POPC   PO428788  36.868  28.347   9.164
 2089POPC   GL128789  36.893  28.337   8.864
 2089POPC   GL228790  37.019  28.456   8.864
 2089POPC   C1A28791  36.889  28.353   8.564
 2089POPC   D2A28792  36.884  28.351   8.264
 2089POPC   C3A28793  36.895  28.338   7.964
 2089POPC   C4A28794  36.924  28.383   7.664
 2089POPC   C1B28795  37.091  28.506   8.564
 2089POPC   C2B28796  37.142  28.444   8.264
 2089POPC   C3B28797  37.086  28.444   7.964
 2089POPC   C4B28798  37.112  28.433   7.664
 2090POPC   NC328799  10.567  31.431   9.464
 2090POPC   PO428800  10.565  31.424   9.164
 2090POPC   GL128801  10.526  31.447   8.864
 2090POPC   GL228802  10.429  31.561   8.864
 2090POPC   C1A28803  10.496  31.446   8.564
 2090POPC   D2A28804  10.475  31.496   8.264
 2090POPC   C3A28805  10.507  31.505   7.964
 2090POPC   C4A28806  10.489  31.430   7.664
 2090POPC   C1B28807  10.445  31.675   8.564
 2090POPC   C2B28808  10.417  31.679   8.264
 2090POPC   C3B28809  10.470  31.673   7.964
 2090POPC   C4B28810  10.451  31.707   7.664
 2091POPC   NC328811  17.494  41.531   9.464
 2091POPC   PO428812  17.517  41.532   9.164
 2091POPC   GL128813  17.524  41.571   8.864
 2091POPC   GL228814  17.529  41.444   8.864
 2091POPC   C1A28815  17.457  41.515   8.564
 2091POPC   D2A28816  17.475  41.573   8.264
 2091POPC   C3A28817  17.500  41.550   7.964
 2091POPC   C4A28818  17.466  41.578   7.664
 2091POPC   C1B28819  17.478  41.316   8.564
 2091POPC   C2B28820  17.526  41.289   8.264
 2091POPC   C3B28821  17.500  41.313   7.964
 2091POPC   C4B28822  17.532  41.354   7.664
 2092POPC   NC328823  33.766   7.437   9.464
 2092POPC   PO428824  33.832   7.372   9.164
 2092POPC   GL128825  33.830   7.396   8.864
 2092POPC   GL228826  33.841   7.533   8.864
 2092POPC   C1A28827  33.764   7.375   8.564
 2092POPC   D2A28828  33.792   7.376   8.264
 2092POPC   C3A28829  33.756   7.413   7.964
 2092POPC   C4A28830  33.845   7.448   7.664
 2092POPC   C1B28831  33.867   7.696   8.564
 2092POPC   C2B28832  33.844   7.679   8.264
 2092POPC   C3B28833  33.897   7.663   7.964
 2092POPC   C4B28834  33.871   7.627   7.664
 2093POPC   NC328835  12.116  31.435   9.464
 2093POPC   PO428836  12.058  31.496   9.164
 2093POPC   GL128837  12.093  31.517   8.864
 2093POPC   GL228838  11.964  31.440   8.864
 2093POPC   C1A28839  12.064  31.500   8.564
 2093POPC   D2A28840  12.115  31.428   8.264
 2093POPC   C3A28841  12.026  31.505   7.964
 2093POPC   C4A28842  12.120  31.453   7.664
 2093POPC   C1B28843  11.894  31.327   8.564
 2093POPC   C2B28844  11.877  31.270   8.264
 2093POPC   C3B28845  11.918  31.309   7.964
 2093POPC   C4B28846  11.894  31.358   7.664
 2094POPC   NC328847  15.949  16.705   9.464
 2094POPC   PO428848  15.943  16.717   9.164
 2094POPC   GL128849  15.925  16.767   8.864
 2094POPC   GL228850  16.066  16.844   8.864
 2094POPC   C1A28851  15.915  16.742   8.564
 2094POPC   D2A28852  15.929  16.737   8.264
 2094POPC   C3A28853  15.937  16.713   7.964
 2094POPC   C4A28854  15.993  16.749   7.664
 2094POPC   C1B28855  16.174  16.818   8.564
 2094POPC   C2B28856  16.180  16.816   8.264
 2094POPC   C3B28857  16.202  16.884   7.964
 2094POPC   C4B28858  16.117  16.899   7.664
 2095POPC   NC328859  43.879  43.874   9.464
 2095POPC   PO428860  43.885  43.861   9.164
 2095POPC   GL128861  43.857  43.901   8.864
 2095POPC   GL228862  43.825  44.042   8.864
 2095POPC   C1A28863  43.896  43.866   8.564
 2095POPC   D2A28864  43.857  43.903   8.264
 2095POPC   C3A28865  43.892  43.844   7.964
 2095POPC   C4A28866  43.908  43.900   7.664
 2095POPC   C1B28867  43.877  44.129   8.564
 2095POPC   C2B28868  43.889  44.136   8.264
 2095POPC   C3B28869  43.813  44.168   7.964
 2095POPC   C4B28870  43.882  44.172   7.664
 2096POPC   NC328871   1.261  43.104   9.464
 2096POPC   PO428872   1.239  43.153   9.164
 2096POPC   GL128873   1.182  43.128   8.864
 2096POPC   GL228874   1.322  43.187   8.864
 2096POPC   C1A28875   1.170  43.130   8.564
 2096POPC   D2A28876   1.223  43.158   8.264
 2096POPC   C3A28877   1.262  43.142   7.964
 2096POPC   C4A28878   1.261  43.122   7.664
 2096POPC   C1B28879   1.434  43.269   8.564
 2096POPC   C2B28880   1.392  43.232   8.264
 2096POPC   C3B28881   1.444  43.232   7.964
 2096POPC   C4B28882   1.435  43.260   7.664
 2097POPC   NC328883  36.116  25.287   9.464
 2097POPC   PO428884  36.158  25.292   9.164
 2097POPC   GL128885  36.127  25.233   8.864
 2097POPC   GL228886  36.059  25.174   8.864
 2097POPC   C1A28887  36.158  25.252   8.564
 2097POPC   D2A28888  36.166  25.308   8.264
 2097POPC   C3A28889  36.094  25.217   7.964
 2097POPC   C4A28890  36.084  25.314   7.664
 2097POPC   C1B28891  36.060  25.000   8.564
 2097POPC   C2B28892  36.083  24.978   8.264
 2097POPC   C3B28893  36.051  25.047   7.964
 2097POPC   C4B28894  36.093  25.016   7.664
 2098POPC   NC328895  11.252   2.747   9.464
 2098POPC   PO428896  11.314   2.773   9.164
 2098POPC   GL128897  11.267   2.766   8.864
 2098POPC   GL228898  11.392   2.602   8.864
 2098POPC   C1A28899  11.273   2.719   8.564
 2098POPC   D2A28900  11.296   2.724   8.264
 2098POPC   C3A28901  11.293   2.778   7.964
 2098POPC   C4A28902  11.312   2.716   7.664
 2098POPC   C1B28903  11.375   2.578   8.564
 2098POPC   C2B28904  11.376   2.567   8.264
 2098POPC   C3B28905  11.433   2.506   7.964
 2098POPC   C4B28906  11.403   2.557   7.664
 2099POPC   NC328907  31.497  26.069   9.464
 2099POPC   PO428908  31.445  26.000   9.164
 2099POPC   GL128909  31.511  26.015   8.864
 2099POPC   GL228910  31.509  26.140   8.864
 2099POPC   C1A28911  31.518  26.083   8.564
 2099POPC   D2A28912  31.513  26.085   8.264
 2099POPC   C3A28913  31.431  26.078   7.964
 2099POPC   C4A28914  31.453  26.056   7.664
 2099POPC   C1B28915  31.526  26.323   8.564
 2099POPC   C2B28916  31.552  26.253   8.264
 2099POPC   C3B28917  31.529  26.239   7.964
 2099POPC   C4B28918  31.527  26.320   7.664
 2100POPC   NC328919  17.550  39.961   9.464
 2100POPC   PO428920  17.524  40.019   9.164
 2100POPC   GL128921  17.548  40.026   8.864
 2100POPC   GL228922  17.596  39.890   8.864
 2100POPC   C1A28923  17.511  39.994   8.564
 2100POPC   D2A28924  17.552  39.957   8.264
 2100POPC   C3A28925  17.545  39.966   7.964
 2100POPC   C4A28926  17.505  40.008   7.664
 2100POPC   C1B28927  17.591  39.817   8.564
 2100POPC   C2B28928  17.602  39.825   8.264
 2100POPC   C3B28929  17.585  39.813   7.964
 2100POPC   C4B28930  17.616  39.742   7.664
 2101POPC   NC328931   9.757  30.711   9.464
 2101POPC   PO428932   9.708  30.716   9.164
 2101POPC   GL128933   9.726  30.666   8.864
 2101POPC   GL228934   9.600  30.689   8.864
 2101POPC   C1A28935   9.777  30.648   8.564
 2101POPC   D2A28936   9.731  30.727   8.264
 2101POPC   C3A28937   9.750  30.714   7.964
 2101POPC   C4A28938   9.752  30.687   7.664
 2101POPC   C1B28939   9.496  30.658   8.564
 2101POPC   C2B28940   9.454  30.601   8.264
 2101POPC   C3B28941   9.500  30.656   7.964
 2101POPC   C4B28942   9.499  30.674   7.664
 2102POPC   NC328943  22.190  29.149   9.464
 2102POPC   PO428944  22.158  29.104   9.164
 2102POPC   GL128945  22.143  29.139   8.864
 2102POPC   GL228946  22.292  29.159   8.864
 2102POPC   C1A28947  22.196  29.169   8.564
 2102POPC   D2A28948  22.158  29.145   8.264
 2102POPC   C3A28949  22.117  29.101   7.964
 2102POPC   C4A28950  22.144  29.148   7.664
 2102POPC   C1B28951  22.381  29.071   8.564
 2102POPC   C2B28952  22.363  29.080   8.264
 2102POPC   C3B28953  22.384  29.158   7.964
 2102POPC   C4B28954  22.459  29.141   7.664
 2103POPC   NC328955  11.284   7.440   9.464
 2103POPC   PO428956  11.250   7.374   9.164
 2103POPC   GL128957  11.305   7.433   8.864
 2103POPC   GL228958  11.377   7.329   8.864
 2103POPC   C1A28959  11.252   7.444   8.564
 2103POPC   D2A28960  11.266   7.464   8.264
 2103POPC   C3A28961  11.318   7.466   7.964
 2103POPC   C4A28962  11.303   7.468   7.664
 2103POPC   C1B28963  11.465   7.184   8.564
 2103POPC   C2B28964  11.444   7.184   8.264
 2103POPC   C3B28965  11.452   7.250   7.964
 2103POPC   C4B28966  11.501   7.201   7.664
 2104POPC   NC328967  12.836  33.824   9.464
 2104POPC   PO428968  12.857  33.762   9.164
 2104POPC   GL128969  12.807  33.756   8.864
 2104POPC   GL228970  12.831  33.885   8.864
 2104POPC   C1A28971  12.816  33.830   8.564
 2104POPC   D2A28972  12.861  33.781   8.264
 2104POPC   C3A28973  12.857  33.764   7.964
 2104POPC   C4A28974  12.815  33.760   7.664
 2104POPC   C1B28975  12.902  34.076   8.564
 2104POPC   C2B28976  12.869  34.045   8.264
 2104POPC   C3B28977  12.933  34.089   7.964
 2104POPC   C4B28978  12.885  34.081   7.664
 2105POPC   NC328979  38.414  33.023   9.464
 2105POPC   PO428980  38.467  32.978   9.164
 2105POPC   GL128981  38.427  33.046   8.864
 2105POPC   GL228982  38.530  33.147   8.864
 2105POPC   C1A28983  38.416  32.985   8.564
 2105POPC   D2A28984  38.461  33.066   8.264
 2105POPC   C3A28985  38.482  33.024   7.964
 2105POPC   C4A28986  38.417  33.056   7.664
 2105POPC   C1B28987  38.639  33.194   8.564
 2105POPC   C2B28988  38.649  33.177   8.264
 2105POPC   C3B28989  38.598  33.236   7.964
 2105POPC   C4B28990  38.684  33.191   7.664
 2106POPC   NC328991  31.482  29.124   9.464
 2106POPC   PO428992  31.478  29.120   9.164
 2106POPC   GL128993  31.487  29.129   8.864
 2106POPC   GL228994  31.347  29.213   8.864
 2106POPC   C1A28995  31.464  29.152   8.564
 2106POPC   D2A28996  31.516  29.162   8.264
 2106POPC   C3A28997  31.515  29.160   7.964
 2106POPC   C4A28998  31.452  29.187   7.664
 2106POPC   C1B28999  31.270  29.235   8.564
 2106POPC   C2B29000  31.232  29.222   8.264
 2106POPC   C3B29001  31.206  29.188   7.964
 2106POPC   C4B29002  31.193  29.200   7.664
 2107POPC   NC329003  19.805  29.955   9.464
 2107POPC   PO429004  19.816  29.886   9.164
 2107POPC   GL129005  19.870  29.882   8.864
 2107POPC   GL229006  19.828  30.057   8.864
 2107POPC   C1A29007  19.864  29.930   8.564
 2107POPC   D2A29008  19.811  29.957   8.264
 2107POPC   C3A29009  19.816  29.940   7.964
 2107POPC   C4A29010  19.859  29.935   7.664
 2107POPC   C1B29011  19.812  30.157   8.564
 2107POPC   C2B29012  19.752  30.129   8.264
 2107POPC   C3B29013  19.722  30.147   7.964
 2107POPC   C4B29014  19.760  30.182   7.664
 2108POPC   NC329015   5.889  22.905   9.464
 2108POPC   PO429016   5.865  22.934   9.164
 2108POPC   GL129017   5.879  22.914   8.864
 2108POPC   GL229018   5.855  22.833   8.864
 2108POPC   C1A29019   5.917  22.972   8.564
 2108POPC   D2A29020   5.820  22.933   8.264
 2108POPC   C3A29021   5.865  22.927   7.964
 2108POPC   C4A29022   5.906  22.912   7.664
 2108POPC   C1B29023   5.833  22.727   8.564
 2108POPC   C2B29024   5.800  22.694   8.264
 2108POPC   C3B29025   5.829  22.698   7.964
 2108POPC   C4B29026   5.800  22.644   7.664
 2109POPC   NC329027  39.278  17.502   9.464
 2109POPC   PO429028  39.195  17.524   9.164
 2109POPC   GL129029  39.182  17.474   8.864
 2109POPC   GL229030  39.262  17.435   8.864
 2109POPC   C1A29031  39.255  17.469   8.564
 2109POPC   D2A29032  39.213  17.520   8.264
 2109POPC   C3A29033  39.185  17.482   7.964
 2109POPC   C4A29034  39.186  17.475   7.664
 2109POPC   C1B29035  39.334  17.324   8.564
 2109POPC   C2B29036  39.329  17.291   8.264
 2109POPC   C3B29037  39.310  17.304   7.964
 2109POPC   C4B29038  39.291  17.282   7.664
 2110POPC   NC329039  18.292  29.970   9.464
 2110POPC   PO429040  18.279  29.907   9.164
 2110POPC   GL129041  18.254  29.871   8.864
 2110POPC   GL229042  18.355  30.041   8.864
 2110POPC   C1A29043  18.256  29.893   8.564
 2110POPC   D2A29044  18.327  29.946   8.264
 2110POPC   C3A29045  18.284  29.892   7.964
 2110POPC   C4A29046  18.295  29.898   7.664
 2110POPC   C1B29047  18.362  30.136   8.564
 2110POPC   C2B29048  18.383  30.097   8.264
 2110POPC   C3B29049  18.416  30.098   7.964
 2110POPC   C4B29050  18.424  30.153   7.664
 2111POPC   NC329051  21.361  40.795   9.464
 2111POPC   PO429052  21.435  40.828   9.164
 2111POPC   GL129053  21.357  40.781   8.864
 2111POPC   GL229054  21.240  40.799   8.864
 2111POPC   C1A29055  21.351  40.770   8.564
 2111POPC   D2A29056  21.395  40.772   8.264
 2111POPC   C3A29057  21.352  40.768   7.964
 2111POPC   C4A29058  21.389  40.781   7.664
 2111POPC   C1B29059  21.190  40.856   8.564
 2111POPC   C2B29060  21.140  40.888   8.264
 2111POPC   C3B29061  21.189  40.807   7.964
 2111POPC   C4B29062  21.170  40.857   7.664
 2112POPC   NC329063  17.490  15.172   9.464
 2112POPC   PO429064  17.495  15.139   9.164
 2112POPC   GL129065  17.484  15.140   8.864
 2112POPC   GL229066  17.493  15.334   8.864
 2112POPC   C1A29067  17.545  15.179   8.564
 2112POPC   D2A29068  17.502  15.164   8.264
 2112POPC   C3A29069  17.532  15.207   7.964
 2112POPC   C4A29070  17.527  15.226   7.664
 2112POPC   C1B29071  17.403  15.438   8.564
 2112POPC   C2B29072  17.359  15.391   8.264
 2112POPC   C3B29073  17.403  15.387   7.964
 2112POPC   C4B29074  17.431  15.365   7.664
 2113POPC   NC329075   9.000  33.827   9.464
 2113POPC   PO429076   9.003  33.845   9.164
 2113POPC   GL129077   8.997  33.766   8.864
 2113POPC   GL229078   9.013  33.856   8.864
 2113POPC   C1A29079   8.928  33.850   8.564
 2113POPC   D2A29080   8.976  33.783   8.264
 2113POPC   C3A29081   8.928  33.751   7.964
 2113POPC   C4A29082   8.938  33.783   7.664
 2113POPC   C1B29083   9.117  33.981   8.564
 2113POPC   C2B29084   9.076  33.953   8.264
 2113POPC   C3B29085   9.089  34.021   7.964
 2113POPC   C4B29086   9.154  34.004   7.664
 2114POPC   NC329087  11.288  37.669   9.464
 2114POPC   PO429088  11.310  37.672   9.164
 2114POPC   GL129089  11.283  37.641   8.864
 2114POPC   GL229090  11.234  37.595   8.864
 2114POPC   C1A29091  11.309  37.691   8.564
 2114POPC   D2A29092  11.296  37.712   8.264
 2114POPC   C3A29093  11.347  37.682   7.964
 2114POPC   C4A29094  11.345  37.712   7.664
 2114POPC   C1B29095  11.191  37.425   8.564
 2114POPC   C2B29096  11.214  37.430   8.264
 2114POPC   C3B29097  11.226  37.440   7.964
 2114POPC   C4B29098  11.203  37.391   7.664
 2115POPC   NC329099   4.279  26.011   9.464
 2115POPC   PO429100   4.351  26.054   9.164
 2115POPC   GL129101   4.299  26.031   8.864
 2115POPC   GL229102   4.309  26.128   8.864
 2115POPC   C1A29103   4.279  26.006   8.564
 2115POPC   D2A29104   4.281  26.059   8.264
 2115POPC   C3A29105   4.307  26.025   7.964
 2115POPC   C4A29106   4.276  26.049   7.664
 2115POPC   C1B29107   4.197  26.294   8.564
 2115POPC   C2B29108   4.275  26.240   8.264
 2115POPC   C3B29109   4.218  26.278   7.964
 2115POPC   C4B29110   4.222  26.289   7.664
 2116POPC   NC329111  11.305  25.276   9.464
 2116POPC   PO429112  11.260  25.250   9.164
 2116POPC   GL129113  11.343  25.216   8.864
 2116POPC   GL229114  11.173  25.268   8.864
 2116POPC   C1A29115  11.301  25.305   8.564
 2116POPC   D2A29116  11.258  25.306   8.264
 2116POPC   C3A29117  11.266  25.273   7.964
 2116POPC   C4A29118  11.297  25.265   7.664
 2116POPC   C1B29119  11.007  25.263   8.564
 2116POPC   C2B29120  11.060  25.173   8.264
 2116POPC   C3B29121  11.054  25.180   7.964
 2116POPC   C4B29122  11.091  25.263   7.664
 2117POPC   NC329123   2.762  23.712   9.464
 2117POPC   PO429124   2.756  23.673   9.164
 2117POPC   GL129125   2.777  23.685   8.864
 2117POPC   GL229126   2.927  23.744   8.864
 2117POPC   C1A29127   2.736  23.755   8.564
 2117POPC   D2A29128   2.755  23.682   8.264
 2117POPC   C3A29129   2.730  23.670   7.964
 2117POPC   C4A29130   2.784  23.704   7.664
 2117POPC   C1B29131   2.977  23.678   8.564
 2117POPC   C2B29132   2.980  23.709   8.264
 2117POPC   C3B29133   3.050  23.689   7.964
 2117POPC   C4B29134   2.984  23.708   7.664
 2118POPC   NC329135  26.797  20.592   9.464
 2118POPC   PO429136  26.830  20.566   9.164
 2118POPC   GL129137  26.816  20.585   8.864
 2118POPC   GL229138  26.882  20.601   8.864
 2118POPC   C1A29139  26.823  20.612   8.564
 2118POPC   D2A29140  26.802  20.613   8.264
 2118POPC   C3A29141  26.861  20.589   7.964
 2118POPC   C4A29142  26.813  20.618   7.664
 2118POPC   C1B29143  27.001  20.526   8.564
 2118POPC   C2B29144  27.007  20.528   8.264
 2118POPC   C3B29145  27.055  20.550   7.964
 2118POPC   C4B29146  26.993  20.523   7.664
 2119POPC   NC329147  12.902  42.354   9.464
 2119POPC   PO429148  12.861  42.331   9.164
 2119POPC   GL129149  12.862  42.376   8.864
 2119POPC   GL229150  12.755  42.412   8.864
 2119POPC   C1A29151  12.889  42.330   8.564
 2119POPC   D2A29152  12.810  42.377   8.264
 2119POPC   C3A29153  12.815  42.288   7.964
 2119POPC   C4A29154  12.804  42.371   7.664
 2119POPC   C1B29155  12.713  42.560   8.564
 2119POPC   C2B29156  12.721  42.562   8.264
 2119POPC   C3B29157  12.712  42.528   7.964
 2119POPC   C4B29158  12.758  42.533   7.664
 2120POPC   NC329159  42.354   2.748   9.464
 2120POPC   PO429160  42.356   2.723   9.164
 2120POPC   GL129161  42.293   2.790   8.864
 2120POPC   GL229162  42.454   2.831   8.864
 2120POPC   C1A29163  42.377   2.812   8.564
 2120POPC   D2A29164  42.290   2.725   8.264
 2120POPC   C3A29165  42.311   2.734   7.964
 2120POPC   C4A29166  42.344   2.783   7.664
 2120POPC   C1B29167  42.598   2.880   8.564
 2120POPC   C2B29168  42.527   2.815   8.264
 2120POPC   C3B29169  42.538   2.802   7.964
 2120POPC   C4B29170  42.547   2.794   7.664
 2121POPC   NC329171   2.722  44.653   9.464
 2121POPC   PO429172   2.806  44.693   9.164
 2121POPC   GL129173   2.773  44.683   8.864
 2121POPC   GL229174   2.758  44.761   8.864
 2121POPC   C1A29175   2.784  44.690   8.564
 2121POPC   D2A29176   2.771  44.711   8.264
 2121POPC   C3A29177   2.747  44.638   7.964
 2121POPC   C4A29178   2.737  44.645   7.664
 2121POPC   C1B29179   2.747  44.935   8.564
 2121POPC   C2B29180   2.801  44.878   8.264
 2121POPC   C3B29181   2.715  44.901   7.964
 2121POPC   C4B29182   2.758  44.924   7.664
 2122POPC   NC329183  43.123  41.608   9.464
 2122POPC   PO429184  43.086  41.585   9.164
 2122POPC   GL129185  43.064  41.546   8.864
 2122POPC   GL229186  43.079  41.493   8.864
 2122POPC   C1A29187  43.136  41.544   8.564
 2122POPC   D2A29188  43.107  41.569   8.264
 2122POPC   C3A29189  43.120  41.551   7.964
 2122POPC   C4A29190  43.108  41.593   7.664
 2122POPC   C1B29191  42.992  41.377   8.564
 2122POPC   C2B29192  42.976  41.334   8.264
 2122POPC   C3B29193  43.022  41.342   7.964
 2122POPC   C4B29194  42.975  41.313   7.664
 2123POPC   NC329195  14.370  37.653   9.464
 2123POPC   PO429196  14.371  37.676   9.164
 2123POPC   GL129197  14.414  37.713   8.864
 2123POPC   GL229198  14.492  37.632   8.864
 2123POPC   C1A29199  14.364  37.729   8.564
 2123POPC   D2A29200  14.378  37.682   8.264
 2123POPC   C3A29201  14.400  37.640   7.964
 2123POPC   C4A29202  14.435  37.697   7.664
 2123POPC   C1B29203  14.587  37.491   8.564
 2123POPC   C2B29204  14.587  37.525   8.264
 2123POPC   C3B29205  14.539  37.514   7.964
 2123POPC   C4B29206  14.631  37.556   7.664
 2124POPC   NC329207  26.825  38.437   9.464
 2124POPC   PO429208  26.781  38.440   9.164
 2124POPC   GL129209  26.844  38.504   8.864
 2124POPC   GL229210  26.884  38.351   8.864
 2124POPC   C1A29211  26.843  38.488   8.564
 2124POPC   D2A29212  26.769  38.504   8.264
 2124POPC   C3A29213  26.855  38.487   7.964
 2124POPC   C4A29214  26.866  38.492   7.664
 2124POPC   C1B29215  27.077  38.372   8.564
 2124POPC   C2B29216  27.043  38.324   8.264
 2124POPC   C3B29217  27.077  38.377   7.964
 2124POPC   C4B29218  26.989  38.366   7.664
 2125POPC   NC329219   1.985  42.354   9.464
 2125POPC   PO429220   2.035  42.345   9.164
 2125POPC   GL129221   2.018  42.338   8.864
 2125POPC   GL229222   2.119  42.251   8.864
 2125POPC   C1A29223   1.981  42.367   8.564
 2125POPC   D2A29224   1.983  42.352   8.264
 2125POPC   C3A29225   1.987  42.358   7.964
 2125POPC   C4A29226   2.034  42.325   7.664
 2125POPC   C1B29227   2.209  42.182   8.564
 2125POPC   C2B29228   2.162  42.180   8.264
 2125POPC   C3B29229   2.230  42.254   7.964
 2125POPC   C4B29230   2.172  42.259   7.664
 2126POPC   NC329231  43.862  44.627   9.464
 2126POPC   PO429232  43.919  44.663   9.164
 2126POPC   GL129233  43.933  44.683   8.864
 2126POPC   GL229234  43.751  44.656   8.864
 2126POPC   C1A29235  43.857  44.672   8.564
 2126POPC   D2A29236  43.857  44.682   8.264
 2126POPC   C3A29237  43.850  44.686   7.964
 2126POPC   C4A29238  43.894  44.618   7.664
 2126POPC   C1B29239  43.629  44.628   8.564
 2126POPC   C2B29240  43.665  44.612   8.264
 2126POPC   C3B29241  43.648  44.586   7.964
 2126POPC   C4B29242  43.638  44.567   7.664
 2127POPC   NC329243  10.543  19.086   9.464
 2127POPC   PO429244  10.544  19.024   9.164
 2127POPC   GL129245  10.507  19.023   8.864
 2127POPC   GL229246  10.368  19.040   8.864
 2127POPC   C1A29247  10.535  19.078   8.564
 2127POPC   D2A29248  10.493  19.019   8.264
 2127POPC   C3A29249  10.537  19.096   7.964
 2127POPC   C4A29250  10.532  19.079   7.664
 2127POPC   C1B29251  10.326  19.064   8.564
 2127POPC   C2B29252  10.271  19.107   8.264
 2127POPC   C3B29253  10.300  19.097   7.964
 2127POPC   C4B29254  10.281  19.094   7.664
 2128POPC   NC329255  29.195  15.205   9.464
 2128POPC   PO429256  29.172  15.185   9.164
 2128POPC   GL129257  29.142  15.223   8.864
 2128POPC   GL229258  29.013  15.227   8.864
 2128POPC   C1A29259  29.155  15.137   8.564
 2128POPC   D2A29260  29.121  15.131   8.264
 2128POPC   C3A29261  29.144  15.200   7.964
 2128POPC   C4A29262  29.135  15.136   7.664
 2128POPC   C1B29263  28.943  15.216   8.564
 2128POPC   C2B29264  28.909  15.228   8.264
 2128POPC   C3B29265  28.863  15.191   7.964
 2128POPC   C4B29266  28.897  15.238   7.664
 2129POPC   NC329267  26.771  25.257   9.464
 2129POPC   PO429268  26.837  25.294   9.164
 2129POPC   GL129269  26.798  25.236   8.864
 2129POPC   GL229270  26.711  25.156   8.864
 2129POPC   C1A29271  26.835  25.238   8.564
 2129POPC   D2A29272  26.813  25.268   8.264
 2129POPC   C3A29273  26.775  25.286   7.964
 2129POPC   C4A29274  26.832  25.229   7.664
 2129POPC   C1B29275  26.645  25.137   8.564
 2129POPC   C2B29276  26.647  25.137   8.264
 2129POPC   C3B29277  26.643  25.119   7.964
 2129POPC   C4B29278  26.603  25.169   7.664
 2130POPC   NC329279  31.508   6.659   9.464
 2130POPC   PO429280  31.510   6.673   9.164
 2130POPC   GL129281  31.466   6.601   8.864
 2130POPC   GL229282  31.490   6.808   8.864
 2130POPC   C1A29283  31.431   6.638   8.564
 2130POPC   D2A29284  31.504   6.669   8.264
 2130POPC   C3A29285  31.438   6.595   7.964
 2130POPC   C4A29286  31.505   6.685   7.664
 2130POPC   C1B29287  31.511   6.857   8.564
 2130POPC   C2B29288  31.522   6.904   8.264
 2130POPC   C3B29289  31.520   6.847   7.964
 2130POPC   C4B29290  31.519   6.927   7.664
 2131POPC   NC329291  19.061  23.722   9.464
 2131POPC   PO429292  19.077  23.686   9.164
 2131POPC   GL129293  19.069  23.701   8.864
 2131POPC   GL229294  18.969  23.639   8.864
 2131POPC   C1A29295  19.066  23.689   8.564
 2131POPC   D2A29296  19.064  23.713   8.264
 2131POPC   C3A29297  19.046  23.743   7.964
 2131POPC   C4A29298  19.084  23.683   7.664
 2131POPC   C1B29299  18.867  23.560   8.564
 2131POPC   C2B29300  18.920  23.481   8.264
 2131POPC   C3B29301  18.872  23.480   7.964
 2131POPC   C4B29302  18.923  23.565   7.664
 2132POPC   NC329303  24.519  33.072   9.464
 2132POPC   PO429304  24.502  33.047   9.164
 2132POPC   GL129305  24.502  33.055   8.864
 2132POPC   GL229306  24.451  32.869   8.864
 2132POPC   C1A29307  24.474  32.978   8.564
 2132POPC   D2A29308  24.482  32.989   8.264
 2132POPC   C3A29309  24.487  32.986   7.964
 2132POPC   C4A29310  24.469  32.979   7.664
 2132POPC   C1B29311  24.494  32.789   8.564
 2132POPC   C2B29312  24.473  32.768   8.264
 2132POPC   C3B29313  24.461  32.803   7.964
 2132POPC   C4B29314  24.436  32.821   7.664
 2133POPC   NC329315   5.867  43.068   9.464
 2133POPC   PO429316   5.903  43.090   9.164
 2133POPC   GL129317   5.897  43.127   8.864
 2133POPC   GL229318   5.871  43.199   8.864
 2133POPC   C1A29319   5.909  43.150   8.564
 2133POPC   D2A29320   5.915  43.140   8.264
 2133POPC   C3A29321   5.877  43.107   7.964
 2133POPC   C4A29322   5.868  43.069   7.664
 2133POPC   C1B29323   5.843  43.353   8.564
 2133POPC   C2B29324   5.851  43.357   8.264
 2133POPC   C3B29325   5.860  43.321   7.964
 2133POPC   C4B29326   5.845  43.386   7.664
 2134POPC   NC329327   6.661  16.754   9.464
 2134POPC   PO429328   6.633  16.704   9.164
 2134POPC   GL129329   6.652  16.762   8.864
 2134POPC   GL229330   6.580  16.688   8.864
 2134POPC   C1A29331   6.685  16.719   8.564
 2134POPC   D2A29332   6.621  16.697   8.264
 2134POPC   C3A29333   6.646  16.729   7.964
 2134POPC   C4A29334   6.654  16.761   7.664
 2134POPC   C1B29335   6.411  16.584   8.564
 2134POPC   C2B29336   6.415  16.594   8.264
 2134POPC   C3B29337   6.470  16.578   7.964
 2134POPC   C4B29338   6.382  16.628   7.664
 2135POPC   NC329339  12.071  43.101   9.464
 2135POPC   PO429340  12.099  43.085   9.164
 2135POPC   GL129341  12.085  43.080   8.864
 2135POPC   GL229342  12.020  43.187   8.864
 2135POPC   C1A29343  12.049  43.067   8.564
 2135POPC   D2A29344  12.103  43.130   8.264
 2135POPC   C3A29345  12.085  43.067   7.964
 2135POPC   C4A29346  12.094  43.119   7.664
 2135POPC   C1B29347  11.963  43.285   8.564
 2135POPC   C2B29348  12.000  43.341   8.264
 2135POPC   C3B29349  11.918  43.295   7.964
 2135POPC   C4B29350  11.973  43.289   7.664
 2136POPC   NC329351  24.452  22.160   9.464
 2136POPC   PO429352  24.502  22.147   9.164
 2136POPC   GL129353  24.475  22.140   8.864
 2136POPC   GL229354  24.360  22.046   8.864
 2136POPC   C1A29355  24.468  22.117   8.564
 2136POPC   D2A29356  24.457  22.164   8.264
 2136POPC   C3A29357  24.537  22.137   7.964
 2136POPC   C4A29358  24.452  22.201   7.664
 2136POPC   C1B29359  24.314  21.998   8.564
 2136POPC   C2B29360  24.241  22.053   8.264
 2136POPC   C3B29361  24.285  21.977   7.964
 2136POPC   C4B29362  24.302  22.048   7.664
 2137POPC   NC329363  26.032  36.856   9.464
 2137POPC   PO429364  26.039  36.929   9.164
 2137POPC   GL129365  26.090  36.882   8.864
 2137POPC   GL229366  26.173  36.984   8.864
 2137POPC   C1A29367  25.993  36.862   8.564
 2137POPC   D2A29368  26.000  36.932   8.264
 2137POPC   C3A29369  26.054  36.905   7.964
 2137POPC   C4A29370  26.073  36.918   7.664
 2137POPC   C1B29371  26.252  36.990   8.564
 2137POPC   C2B29372  26.285  37.013   8.264
 2137POPC   C3B29373  26.235  36.976   7.964
 2137POPC   C4B29374  26.257  37.027   7.664
 2138POPC   NC329375  17.554   5.112   9.464
 2138POPC   PO429376  17.488   5.086   9.164
 2138POPC   GL129377  17.509   5.132   8.864
 2138POPC   GL229378  17.431   5.019   8.864
 2138POPC   C1A29379  17.510   5.139   8.564
 2138POPC   D2A29380  17.517   5.142   8.264
 2138POPC   C3A29381  17.509   5.110   7.964
 2138POPC   C4A29382  17.479   5.046   7.664
 2138POPC   C1B29383  17.390   4.886   8.564
 2138POPC   C2B29384  17.343   4.884   8.264
 2138POPC   C3B29385  17.385   4.880   7.964
 2138POPC   C4B29386  17.394   4.841   7.664
 2139POPC   NC329387  41.559  28.324   9.464
 2139POPC   PO429388  41.523  28.407   9.164
 2139POPC   GL129389  41.546  28.415   8.864
 2139POPC   GL229390  41.657  28.291   8.864
 2139POPC   C1A29391  41.576  28.336   8.564
 2139POPC   D2A29392  41.591  28.413   8.264
 2139POPC   C3A29393  41.596  28.328   7.964
 2139POPC   C4A29394  41.579  28.345   7.664
 2139POPC   C1B29395  41.708  28.206   8.564
 2139POPC   C2B29396  41.740  28.130   8.264
 2139POPC   C3B29397  41.706  28.140   7.964
 2139POPC   C4B29398  41.704  28.147   7.664
 2140POPC   NC329399  39.276  34.529   9.464
 2140POPC   PO429400  39.191  34.534   9.164
 2140POPC   GL129401  39.233  34.580   8.864
 2140POPC   GL229402  39.373  34.595   8.864
 2140POPC   C1A29403  39.225  34.584   8.564
 2140POPC   D2A29404  39.188  34.622   8.264
 2140POPC   C3A29405  39.196  34.577   7.964
 2140POPC   C4A29406  39.231  34.584   7.664
 2140POPC   C1B29407  39.427  34.661   8.564
 2140POPC   C2B29408  39.511  34.642   8.264
 2140POPC   C3B29409  39.493  34.596   7.964
 2140POPC   C4B29410  39.520  34.651   7.664
 2141POPC   NC329411  19.014  30.722   9.464
 2141POPC   PO429412  19.084  30.713   9.164
 2141POPC   GL129413  19.011  30.745   8.864
 2141POPC   GL229414  19.172  30.761   8.864
 2141POPC   C1A29415  19.066  30.703   8.564
 2141POPC   D2A29416  19.076  30.659   8.264
 2141POPC   C3A29417  19.066  30.745   7.964
 2141POPC   C4A29418  19.013  30.730   7.664
 2141POPC   C1B29419  19.336  30.681   8.564
 2141POPC   C2B29420  19.318  30.686   8.264
 2141POPC   C3B29421  19.258  30.769   7.964
 2141POPC   C4B29422  19.356  30.721   7.664
 2142POPC   NC329423  33.750  28.360   9.464
 2142POPC   PO429424  33.817  28.374   9.164
 2142POPC   GL129425  33.848  28.337   8.864
 2142POPC   GL229426  33.726  28.438   8.864
 2142POPC   C1A29427  33.791  28.378   8.564
 2142POPC   D2A29428  33.790  28.360   8.264
 2142POPC   C3A29429  33.781  28.380   7.964
 2142POPC   C4A29430  33.784  28.346   7.664
 2142POPC   C1B29431  33.634  28.628   8.564
 2142POPC   C2B29432  33.663  28.595   8.264
 2142POPC   C3B29433  33.696  28.533   7.964
 2142POPC   C4B29434  33.674  28.623   7.664
 2143POPC   NC329435   9.705  21.372   9.464
 2143POPC   PO429436   9.792  21.372   9.164
 2143POPC   GL129437   9.762  21.364   8.864
 2143POPC   GL229438   9.717  21.486   8.864
 2143POPC   C1A29439   9.763  21.373   8.564
 2143POPC   D2A29440   9.791  21.376   8.264
 2143POPC   C3A29441   9.733  21.367   7.964
 2143POPC   C4A29442   9.720  21.383   7.664
 2143POPC   C1B29443   9.644  21.607   8.564
 2143POPC   C2B29444   9.557  21.562   8.264
 2143POPC   C3B29445   9.639  21.635   7.964
 2143POPC   C4B29446   9.573  21.603   7.664
 2144POPC   NC329447  33.820   8.223   9.464
 2144POPC   PO429448  33.795   8.242   9.164
 2144POPC   GL129449  33.750   8.203   8.864
 2144POPC   GL229450  33.760   8.345   8.864
 2144POPC   C1A29451  33.804   8.226   8.564
 2144POPC   D2A29452  33.816   8.227   8.264
 2144POPC   C3A29453  33.810   8.182   7.964
 2144POPC   C4A29454  33.829   8.239   7.664
 2144POPC   C1B29455  33.623   8.359   8.564
 2144POPC   C2B29456  33.712   8.398   8.264
 2144POPC   C3B29457  33.637   8.423   7.964
 2144POPC   C4B29458  33.682   8.380   7.664
 2145POPC   NC329459  36.865  16.716   9.464
 2145POPC   PO429460  36.933  16.723   9.164
 2145POPC   GL129461  36.880  16.732   8.864
 2145POPC   GL229462  36.827  16.630   8.864
 2145POPC   C1A29463  36.863  16.730   8.564
 2145POPC   D2A29464  36.902  16.683   8.264
 2145POPC   C3A29465  36.910  16.705   7.964
 2145POPC   C4A29466  36.899  16.693   7.664
 2145POPC   C1B29467  36.645  16.659   8.564
 2145POPC   C2B29468  36.646  16.605   8.264
 2145POPC   C3B29469  36.700  16.659   7.964
 2145POPC   C4B29470  36.678  16.662   7.664
 2146POPC   NC329471   5.855  14.424   9.464
 2146POPC   PO429472   5.910  14.428   9.164
 2146POPC   GL129473   5.913  14.371   8.864
 2146POPC   GL229474   5.779  14.348   8.864
 2146POPC   C1A29475   5.884  14.389   8.564
 2146POPC   D2A29476   5.888  14.386   8.264
 2146POPC   C3A29477   5.845  14.400   7.964
 2146POPC   C4A29478   5.893  14.433   7.664
 2146POPC   C1B29479   5.575  14.340   8.564
 2146POPC   C2B29480   5.634  14.331   8.264
 2146POPC   C3B29481   5.624  14.331   7.964
 2146POPC   C4B29482   5.610  14.396   7.664
 2147POPC   NC329483  17.464   1.209   9.464
 2147POPC   PO429484  17.529   1.175   9.164
 2147POPC   GL129485  17.459   1.215   8.864
 2147POPC   GL229486  17.485   1.338   8.864
 2147POPC   C1A29487  17.490   1.241   8.564
 2147POPC   D2A29488  17.519   1.189   8.264
 2147POPC   C3A29489  17.549   1.197   7.964
 2147POPC   C4A29490  17.510   1.194   7.664
 2147POPC   C1B29491  17.493   1.509   8.564
 2147POPC   C2B29492  17.443   1.488   8.264
 2147POPC   C3B29493  17.513   1.417   7.964
 2147POPC   C4B29494  17.416   1.473   7.664
 2148POPC   NC329495   2.766  19.051   9.464
 2148POPC   PO429496   2.770  19.043   9.164
 2148POPC   GL129497   2.755  19.081   8.864
 2148POPC   GL229498   2.804  19.135   8.864
 2148POPC   C1A29499   2.747  19.021   8.564
 2148POPC   D2A29500   2.727  19.068   8.264
 2148POPC   C3A29501   2.811  19.015   7.964
 2148POPC   C4A29502   2.803  19.019   7.664
 2148POPC   C1B29503   2.842  19.307   8.564
 2148POPC   C2B29504   2.831  19.295   8.264
 2148POPC   C3B29505   2.796  19.335   7.964
 2148POPC   C4B29506   2.803  19.348   7.664
 2149POPC   NC329507   9.794  29.918   9.464
 2149POPC   PO429508   9.728  29.947   9.164
 2149POPC   GL129509   9.772  29.921   8.864
 2149POPC   GL229510   9.705  30.009   8.864
 2149POPC   C1A29511   9.708  29.970   8.564
 2149POPC   D2A29512   9.712  29.937   8.264
 2149POPC   C3A29513   9.727  29.930   7.964
 2149POPC   C4A29514   9.776  29.955   7.664
 2149POPC   C1B29515   9.781  30.209   8.564
 2149POPC   C2B29516   9.734  30.126   8.264
 2149POPC   C3B29517   9.759  30.186   7.964
 2149POPC   C4B29518   9.774  30.209   7.664
 2150POPC   NC329519  36.138  31.492   9.464
 2150POPC   PO429520  36.126  31.478   9.164
 2150POPC   GL129521  36.157  31.475   8.864
 2150POPC   GL229522  36.064  31.352   8.864
 2150POPC   C1A29523  36.080  31.424   8.564
 2150POPC   D2A29524  36.150  31.493   8.264
 2150POPC   C3A29525  36.154  31.431   7.964
 2150POPC   C4A29526  36.160  31.514   7.664
 2150POPC   C1B29527  36.050  31.193   8.564
 2150POPC   C2B29528  36.086  31.259   8.264
 2150POPC   C3B29529  36.074  31.183   7.964
 2150POPC   C4B29530  36.058  31.183   7.664
 2151POPC   NC329531   2.755  22.905   9.464
 2151POPC   PO429532   2.814  22.966   9.164
 2151POPC   GL129533   2.730  22.931   8.864
 2151POPC   GL229534   2.637  22.917   8.864
 2151POPC   C1A29535   2.788  22.968   8.564
 2151POPC   D2A29536   2.778  22.959   8.264
 2151POPC   C3A29537   2.809  22.945   7.964
 2151POPC   C4A29538   2.735  22.929   7.664
 2151POPC   C1B29539   2.480  22.919   8.564
 2151POPC   C2B29540   2.540  22.860   8.264
 2151POPC   C3B29541   2.488  22.843   7.964
 2151POPC   C4B29542   2.480  22.936   7.664
 2152POPC   NC329543   3.571   9.703   9.464
 2152POPC   PO429544   3.567   9.783   9.164
 2152POPC   GL129545   3.565   9.752   8.864
 2152POPC   GL229546   3.651   9.891   8.864
 2152POPC   C1A29547   3.543   9.738   8.564
 2152POPC   D2A29548   3.502   9.700   8.264
 2152POPC   C3A29549   3.554   9.756   7.964
 2152POPC   C4A29550   3.585   9.768   7.664
 2152POPC   C1B29551   3.721   9.910   8.564
 2152POPC   C2B29552   3.727   9.960   8.264
 2152POPC   C3B29553   3.684   9.963   7.964
 2152POPC   C4B29554   3.701   9.962   7.664
 2153POPC   NC329555   1.172  13.663   9.464
 2153POPC   PO429556   1.243  13.623   9.164
 2153POPC   GL129557   1.188  13.641   8.864
 2153POPC   GL229558   1.120  13.717   8.864
 2153POPC   C1A29559   1.235  13.601   8.564
 2153POPC   D2A29560   1.219  13.603   8.264
 2153POPC   C3A29561   1.192  13.638   7.964
 2153POPC   C4A29562   1.194  13.633   7.664
 2153POPC   C1B29563   1.043  13.826   8.564
 2153POPC   C2B29564   1.012  13.823   8.264
 2153POPC   C3B29565   1.094  13.854   7.964
 2153POPC   C4B29566   1.041  13.796   7.664
 2154POPC   NC329567  12.853  26.020   9.464
 2154POPC   PO429568  12.820  26.079   9.164
 2154POPC   GL129569  12.893  26.026   8.864
 2154POPC   GL229570  12.998  26.095   8.864
 2154POPC   C1A29571  12.815  26.059   8.564
 2154POPC   D2A29572  12.833  26.015   8.264
 2154POPC   C3A29573  12.826  26.068   7.964
 2154POPC   C4A29574  12.856  26.008   7.664
 2154POPC   C1B29575  13.031  26.202   8.564
 2154POPC   C2B29576  13.056  26.157   8.264
 2154POPC   C3B29577  13.041  26.185   7.964
 2154POPC   C4B29578  13.092  26.154   7.664
 2155POPC   NC329579  31.510  41.557   9.464
 2155POPC   PO429580  31.474  41.572   9.164
 2155POPC   GL129581  31.496  41.555   8.864
 2155POPC   GL229582  31.527  41.706   8.864
 2155POPC   C1A29583  31.450  41.587   8.564
 2155POPC   D2A29584  31.519  41.606   8.264
 2155POPC   C3A29585  31.464  41.569   7.964
 2155POPC   C4A29586  31.464  41.527   7.664
 2155POPC   C1B29587  31.532  41.838   8.564
 2155POPC   C2B29588  31.445  41.827   8.264
 2155POPC   C3B29589  31.465  41.792   7.964
 2155POPC   C4B29590  31.491  41.788   7.664
 2156POPC   NC329591  29.125   5.879   9.464
 2156POPC   PO429592  29.173   5.839   9.164
 2156POPC   GL129593  29.124   5.835   8.864
 2156POPC   GL229594  29.312   5.879   8.864
 2156POPC   C1A29595  29.178   5.895   8.564
 2156POPC   D2A29596  29.159   5.827   8.264
 2156POPC   C3A29597  29.106   5.915   7.964
 2156POPC   C4A29598  29.192   5.910   7.664
 2156POPC   C1B29599  29.403   5.847   8.564
 2156POPC   C2B29600  29.379   5.800   8.264
 2156POPC   C3B29601  29.420   5.850   7.964
 2156POPC   C4B29602  29.348   5.822   7.664
 2157POPC   NC329603   1.977  22.119   9.464
 2157POPC   PO429604   1.961  22.139   9.164
 2157POPC   GL129605   2.016  22.151   8.864
 2157POPC   GL229606   2.155  22.165   8.864
 2157POPC   C1A29607   2.007  22.156   8.564
 2157POPC   D2A29608   1.972  22.113   8.264
 2157POPC   C3A29609   1.971  22.147   7.964
 2157POPC   C4A29610   2.036  22.119   7.664
 2157POPC   C1B29611   2.198  22.185   8.564
 2157POPC   C2B29612   2.222  22.183   8.264
 2157POPC   C3B29613   2.198  22.198   7.964
 2157POPC   C4B29614   2.228  22.205   7.664
 2158POPC   NC329615  35.311  34.537   9.464
 2158POPC   PO429616  35.358  34.606   9.164
 2158POPC   GL129617  35.334  34.560   8.864
 2158POPC   GL229618  35.465  34.555   8.864
 2158POPC   C1A29619  35.358  34.622   8.564
 2158POPC   D2A29620  35.366  34.556   8.264
 2158POPC   C3A29621  35.360  34.613   7.964
 2158POPC   C4A29622  35.302  34.545   7.664
 2158POPC   C1B29623  35.565  34.420   8.564
 2158POPC   C2B29624  35.620  34.444   8.264
 2158POPC   C3B29625  35.625  34.514   7.964
 2158POPC   C4B29626  35.559  34.501   7.664
 2159POPC   NC329627  14.363  35.365   9.464
 2159POPC   PO429628  14.421  35.333   9.164
 2159POPC   GL129629  14.422  35.370   8.864
 2159POPC   GL229630  14.479  35.220   8.864
 2159POPC   C1A29631  14.371  35.345   8.564
 2159POPC   D2A29632  14.358  35.368   8.264
 2159POPC   C3A29633  14.369  35.357   7.964
 2159POPC   C4A29634  14.394  35.399   7.664
 2159POPC   C1B29635  14.542  35.160   8.564
 2159POPC   C2B29636  14.502  35.172   8.264
 2159POPC   C3B29637  14.485  35.128   7.964
 2159POPC   C4B29638  14.500  35.116   7.664
 2160POPC   NC329639  43.090  15.193   9.464
 2160POPC   PO429640  43.119  15.190   9.164
 2160POPC   GL129641  43.150  15.160   8.864
 2160POPC   GL229642  43.032  15.108   8.864
 2160POPC   C1A29643  43.117  15.228   8.564
 2160POPC   D2A29644  43.069  15.129   8.264
 2160POPC   C3A29645  43.082  15.219   7.964
 2160POPC   C4A29646  43.089  15.204   7.664
 2160POPC   C1B29647  42.839  15.081   8.564
 2160POPC   C2B29648  42.854  15.089   8.264
 2160POPC   C3B29649  42.853  15.086   7.964
 2160POPC   C4B29650  42.922  15.034   7.664
 2161POPC   NC329651   8.972  26.790   9.464
 2161POPC   PO429652   8.996  26.816   9.164
 2161POPC   GL129653   8.944  26.835   8.864
 2161POPC   GL229654   8.858  26.835   8.864
 2161POPC   C1A29655   8.946  26.851   8.564
 2161POPC   D2A29656   8.943  26.807   8.264
 2161POPC   C3A29657   8.978  26.838   7.964
 2161POPC   C4A29658   8.994  26.786   7.664
 2161POPC   C1B29659   8.716  26.847   8.564
 2161POPC   C2B29660   8.778  26.900   8.264
 2161POPC   C3B29661   8.722  26.889   7.964
 2161POPC   C4B29662   8.718  26.899   7.664
 2162POPC   NC329663   3.506  32.232   9.464
 2162POPC   PO429664   3.499  32.206   9.164
 2162POPC   GL129665   3.519  32.208   8.864
 2162POPC   GL229666   3.477  32.368   8.864
 2162POPC   C1A29667   3.494  32.208   8.564
 2162POPC   D2A29668   3.525  32.261   8.264
 2162POPC   C3A29669   3.558  32.252   7.964
 2162POPC   C4A29670   3.541  32.243   7.664
 2162POPC   C1B29671   3.453  32.489   8.564
 2162POPC   C2B29672   3.450  32.466   8.264
 2162POPC   C3B29673   3.454  32.465   7.964
 2162POPC   C4B29674   3.440  32.438   7.664
 2163POPC   NC329675  33.071  13.627   9.464
 2163POPC   PO429676  33.033  13.628   9.164
 2163POPC   GL129677  33.041  13.608   8.864
 2163POPC   GL229678  33.005  13.478   8.864
 2163POPC   C1A29679  33.020  13.654   8.564
 2163POPC   D2A29680  33.020  13.593   8.264
 2163POPC   C3A29681  32.977  13.596   7.964
 2163POPC   C4A29682  33.060  13.630   7.664
 2163POPC   C1B29683  32.938  13.342   8.564
 2163POPC   C2B29684  32.955  13.369   8.264
 2163POPC   C3B29685  32.960  13.379   7.964
 2163POPC   C4B29686  32.970  13.347   7.664
 2164POPC   NC329687   2.799  15.140   9.464
 2164POPC   PO429688   2.764  15.143   9.164
 2164POPC   GL129689   2.722  15.186   8.864
 2164POPC   GL229690   2.817  15.096   8.864
 2164POPC   C1A29691   2.752  15.217   8.564
 2164POPC   D2A29692   2.753  15.220   8.264
 2164POPC   C3A29693   2.731  15.185   7.964
 2164POPC   C4A29694   2.793  15.191   7.664
 2164POPC   C1B29695   2.929  14.949   8.564
 2164POPC   C2B29696   2.951  15.028   8.264
 2164POPC   C3B29697   2.907  14.974   7.964
 2164POPC   C4B29698   2.953  14.987   7.664
 2165POPC   NC329699  14.398  31.434   9.464
 2165POPC   PO429700  14.389  31.494   9.164
 2165POPC   GL129701  14.444  31.505   8.864
 2165POPC   GL229702  14.358  31.612   8.864
 2165POPC   C1A29703  14.387  31.474   8.564
 2165POPC   D2A29704  14.385  31.435   8.264
 2165POPC   C3A29705  14.389  31.457   7.964
 2165POPC   C4A29706  14.423  31.520   7.664
 2165POPC   C1B29707  14.215  31.690   8.564
 2165POPC   C2B29708  14.291  31.641   8.264
 2165POPC   C3B29709  14.215  31.706   7.964
 2165POPC   C4B29710  14.277  31.705   7.664
 2166POPC   NC329711  40.788  34.586   9.464
 2166POPC   PO429712  40.743  34.617   9.164
 2166POPC   GL129713  40.762  34.604   8.864
 2166POPC   GL229714  40.767  34.429   8.864
 2166POPC   C1A29715  40.812  34.527   8.564
 2166POPC   D2A29716  40.767  34.622   8.264
 2166POPC   C3A29717  40.765  34.624   7.964
 2166POPC   C4A29718  40.809  34.579   7.664
 2166POPC   C1B29719  40.733  34.321   8.564
 2166POPC   C2B29720  40.729  34.323   8.264
 2166POPC   C3B29721  40.773  34.380   7.964
 2166POPC   C4B29722  40.726  34.366   7.664
 2167POPC   NC329723   1.995  26.783   9.464
 2167POPC   PO429724   1.948  26.807   9.164
 2167POPC   GL129725   2.020  26.794   8.864
 2167POPC   GL229726   2.079  26.721   8.864
 2167POPC   C1A29727   2.029  26.783   8.564
 2167POPC   D2A29728   2.021  26.773   8.264
 2167POPC   C3A29729   2.007  26.797   7.964
 2167POPC   C4A29730   2.013  26.775   7.664
 2167POPC   C1B29731   2.188  26.666   8.564
 2167POPC   C2B29732   2.152  26.602   8.264
 2167POPC   C3B29733   2.192  26.665   7.964
 2167POPC   C4B29734   2.152  26.606   7.664
 2168POPC   NC329735  33.848  22.952   9.464
 2168POPC   PO429736  33.779  22.961   9.164
 2168POPC   GL129737  33.777  22.963   8.864
 2168POPC   GL229738  33.846  23.003   8.864
 2168POPC   C1A29739  33.839  22.928   8.564
 2168POPC   D2A29740  33.765  22.931   8.264
 2168POPC   C3A29741  33.794  22.920   7.964
 2168POPC   C4A29742  33.812  22.930   7.664
 2168POPC   C1B29743  33.943  23.104   8.564
 2168POPC   C2B29744  33.907  23.175   8.264
 2168POPC   C3B29745  33.965  23.119   7.964
 2168POPC   C4B29746  33.957  23.143   7.664
 2169POPC   NC329747  34.545  41.530   9.464
 2169POPC   PO429748  34.577  41.554   9.164
 2169POPC   GL129749  34.595  41.529   8.864
 2169POPC   GL229750  34.625  41.657   8.864
 2169POPC   C1A29751  34.552  41.601   8.564
 2169POPC   D2A29752  34.586  41.513   8.264
 2169POPC   C3A29753  34.619  41.531   7.964
 2169POPC   C4A29754  34.624  41.569   7.664
 2169POPC   C1B29755  34.593  41.850   8.564
 2169POPC   C2B29756  34.586  41.837   8.264
 2169POPC   C3B29757  34.550  41.845   7.964
 2169POPC   C4B29758  34.557  41.779   7.664
 2170POPC   NC329759  29.124  10.564   9.464
 2170POPC   PO429760  29.178  10.531   9.164
 2170POPC   GL129761  29.171  10.478   8.864
 2170POPC   GL229762  29.152  10.391   8.864
 2170POPC   C1A29763  29.100  10.496   8.564
 2170POPC   D2A29764  29.174  10.548   8.264
 2170POPC   C3A29765  29.179  10.567   7.964
 2170POPC   C4A29766  29.128  10.514   7.664
 2170POPC   C1B29767  29.220  10.280   8.564
 2170POPC   C2B29768  29.182  10.279   8.264
 2170POPC   C3B29769  29.141  10.256   7.964
 2170POPC   C4B29770  29.154  10.260   7.664
 2171POPC   NC329771  33.016  28.410   9.464
 2171POPC   PO429772  32.992  28.381   9.164
 2171POPC   GL129773  33.053  28.413   8.864
 2171POPC   GL229774  33.103  28.425   8.864
 2171POPC   C1A29775  32.978  28.323   8.564
 2171POPC   D2A29776  33.066  28.404   8.264
 2171POPC   C3A29777  32.997  28.393   7.964
 2171POPC   C4A29778  33.020  28.371   7.664
 2171POPC   C1B29779  33.226  28.520   8.564
 2171POPC   C2B29780  33.228  28.517   8.264
 2171POPC   C3B29781  33.204  28.540   7.964
 2171POPC   C4B29782  33.195  28.567   7.664
 2172POPC   NC329783  36.945  43.891   9.464
 2172POPC   PO429784  36.938  43.878   9.164
 2172POPC   GL129785  36.901  43.923   8.864
 2172POPC   GL229786  37.012  43.886   8.864
 2172POPC   C1A29787  36.863  43.858   8.564
 2172POPC   D2A29788  36.939  43.870   8.264
 2172POPC   C3A29789  36.890  43.869   7.964
 2172POPC   C4A29790  36.916  43.843   7.664
 2172POPC   C1B29791  37.108  43.945   8.564
 2172POPC   C2B29792  37.122  43.936   8.264
 2172POPC   C3B29793  37.152  43.904   7.964
 2172POPC   C4B29794  37.183  43.952   7.664
 2173POPC   NC329795  16.760   5.908   9.464
 2173POPC   PO429796  16.696   5.851   9.164
 2173POPC   GL129797  16.769   5.835   8.864
 2173POPC   GL229798  16.772   6.006   8.864
 2173POPC   C1A29799  16.778   5.886   8.564
 2173POPC   D2A29800  16.695   5.871   8.264
 2173POPC   C3A29801  16.753   5.911   7.964
 2173POPC   C4A29802  16.767   5.851   7.664
 2173POPC   C1B29803  16.786   6.121   8.564
 2173POPC   C2B29804  16.739   6.100   8.264
 2173POPC   C3B29805  16.706   6.119   7.964
 2173POPC   C4B29806  16.728   6.148   7.664
 2174POPC   NC329807  33.828  44.702   9.464
 2174POPC   PO429808  33.762  44.709   9.164
 2174POPC   GL129809  33.845  44.624   8.864
 2174POPC   GL229810  33.845  44.727   8.864
 2174POPC   C1A29811  33.777  44.667   8.564
 2174POPC   D2A29812  33.820  44.692   8.264
 2174POPC   C3A29813  33.829  44.672   7.964
 2174POPC   C4A29814  33.777  44.708   7.664
 2174POPC   C1B29815  34.013  44.802   8.564
 2174POPC   C2B29816  33.966  44.885   8.264
 2174POPC   C3B29817  33.998  44.810   7.964
 2174POPC   C4B29818  33.984  44.814   7.664
 2175POPC   NC329819  44.670  36.918   9.464
 2175POPC   PO429820  44.665  36.898   9.164
 2175POPC   GL129821  44.691  36.920   8.864
 2175POPC   GL229822  44.820  36.929   8.864
 2175POPC   C1A29823  44.632  36.867   8.564
 2175POPC   D2A29824  44.707  36.880   8.264
 2175POPC   C3A29825  44.645  36.862   7.964
 2175POPC   C4A29826  44.707  36.949   7.664
 2175POPC   C1B29827  44.839  36.996   8.564
 2175POPC   C2B29828  44.845  37.028   8.264
 2175POPC   C3B29829  44.903  36.985   7.964
 2175POPC   C4B29830  44.912  37.042   7.664
 2176POPC   NC329831   0.427  19.835   9.464
 2176POPC   PO429832   0.443  19.858   9.164
 2176POPC   GL129833   0.423  19.785   8.864
 2176POPC   GL229834   0.334  19.959   8.864
 2176POPC   C1A29835   0.443  19.870   8.564
 2176POPC   D2A29836   0.405  19.824   8.264
 2176POPC   C3A29837   0.454  19.804   7.964
 2176POPC   C4A29838   0.422  19.850   7.664
 2176POPC   C1B29839   0.268  20.002   8.564
 2176POPC   C2B29840   0.266  19.996   8.264
 2176POPC   C3B29841   0.204  20.020   7.964
 2176POPC   C4B29842   0.226  20.015   7.664
 2177POPC   NC329843   4.288  25.234   9.464
 2177POPC   PO429844   4.307  25.282   9.164
 2177POPC   GL129845   4.283  25.311   8.864
 2177POPC   GL229846   4.176  25.354   8.864
 2177POPC   C1A29847   4.344  25.288   8.564
 2177POPC   D2A29848   4.352  25.278   8.264
 2177POPC   C3A29849   4.272  25.281   7.964
 2177POPC   C4A29850   4.347  25.263   7.664
 2177POPC   C1B29851   4.092  25.408   8.564
 2177POPC   C2B29852   4.066  25.332   8.264
 2177POPC   C3B29853   4.056  25.325   7.964
 2177POPC   C4B29854   4.129  25.318   7.664
 2178POPC   NC329855  43.899  27.563   9.464
 2178POPC   PO429856  43.929  27.612   9.164
 2178POPC   GL129857  43.864  27.571   8.864
 2178POPC   GL229858  44.038  27.523   8.864
 2178POPC   C1A29859  43.837  27.596   8.564
 2178POPC   D2A29860  43.853  27.633   8.264
 2178POPC   C3A29861  43.868  27.599   7.964
 2178POPC   C4A29862  43.904  27.578   7.664
 2178POPC   C1B29863  44.160  27.512   8.564
 2178POPC   C2B29864  44.161  27.513   8.264
 2178POPC   C3B29865  44.121  27.493   7.964
 2178POPC   C4B29866  44.105  27.515   7.664
 2179POPC   NC329867  35.371  33.074   9.464
 2179POPC   PO429868  35.345  33.063   9.164
 2179POPC   GL129869  35.360  33.007   8.864
 2179POPC   GL229870  35.446  32.960   8.864
 2179POPC   C1A29871  35.391  32.979   8.564
 2179POPC   D2A29872  35.369  33.034   8.264
 2179POPC   C3A29873  35.377  33.026   7.964
 2179POPC   C4A29874  35.329  32.984   7.664
 2179POPC   C1B29875  35.563  32.824   8.564
 2179POPC   C2B29876  35.532  32.886   8.264
 2179POPC   C3B29877  35.557  32.909   7.964
 2179POPC   C4B29878  35.524  32.909   7.664
 2180POPC   NC329879   9.000  36.917   9.464
 2180POPC   PO429880   8.977  36.920   9.164
 2180POPC   GL129881   8.958  36.945   8.864
 2180POPC   GL229882   8.892  36.990   8.864
 2180POPC   C1A29883   8.995  36.873   8.564
 2180POPC   D2A29884   8.959  36.864   8.264
 2180POPC   C3A29885   9.006  36.864   7.964
 2180POPC   C4A29886   8.970  36.894   7.664
 2180POPC   C1B29887   8.840  37.112   8.564
 2180POPC   C2B29888   8.876  37.129   8.264
 2180POPC   C3B29889   8.843  37.102   7.964
 2180POPC   C4B29890   8.855  37.088   7.664
 2181POPC   NC329891  28.334  11.340   9.464
 2181POPC   PO429892  28.408  11.322   9.164
 2181POPC   GL129893  28.416  11.285   8.864
 2181POPC   GL229894  28.291  11.336   8.864
 2181POPC   C1A29895  28.398  11.264   8.564
 2181POPC   D2A29896  28.412  11.276   8.264
 2181POPC   C3A29897  28.360  11.341   7.964
 2181POPC   C4A29898  28.321  11.275   7.664
 2181POPC   C1B29899  28.135  11.335   8.564
 2181POPC   C2B29900  28.143  11.396   8.264
 2181POPC   C3B29901  28.107  11.382   7.964
 2181POPC   C4B29902  28.146  11.370   7.664
 2182POPC   NC329903   2.013  38.456   9.464
 2182POPC   PO429904   2.024  38.486   9.164
 2182POPC   GL129905   1.974  38.490   8.864
 2182POPC   GL229906   1.925  38.395   8.864
 2182POPC   C1A29907   2.019  38.456   8.564
 2182POPC   D2A29908   1.946  38.461   8.264
 2182POPC   C3A29909   1.955  38.496   7.964
 2182POPC   C4A29910   1.974  38.483   7.664
 2182POPC   C1B29911   1.800  38.302   8.564
 2182POPC   C2B29912   1.809  38.273   8.264
 2182POPC   C3B29913   1.794  38.236   7.964
 2182POPC   C4B29914   1.785  38.326   7.664
 2183POPC   NC329915  32.245  10.535   9.464
 2183POPC   PO429916  32.258  10.521   9.164
 2183POPC   GL129917  32.268  10.558   8.864
 2183POPC   GL229918  32.319  10.574   8.864
 2183POPC   C1A29919  32.199  10.512   8.564
 2183POPC   D2A29920  32.255  10.558   8.264
 2183POPC   C3A29921  32.215  10.519   7.964
 2183POPC   C4A29922  32.285  10.517   7.664
 2183POPC   C1B29923  32.422  10.742   8.564
 2183POPC   C2B29924  32.415  10.740   8.264
 2183POPC   C3B29925  32.441  10.676   7.964
 2183POPC   C4B29926  32.398  10.717   7.664
 2184POPC   NC329927  39.240  19.870   9.464
 2184POPC   PO429928  39.219  19.849   9.164
 2184POPC   GL129929  39.185  19.838   8.864
 2184POPC   GL229930  39.315  19.796   8.864
 2184POPC   C1A29931  39.197  19.812   8.564
 2184POPC   D2A29932  39.246  19.881   8.264
 2184POPC   C3A29933  39.243  19.840   7.964
 2184POPC   C4A29934  39.204  19.835   7.664
 2184POPC   C1B29935  39.485  19.729   8.564
 2184POPC   C2B29936  39.417  19.698   8.264
 2184POPC   C3B29937  39.473  19.757   7.964
 2184POPC   C4B29938  39.465  19.749   7.664
 2185POPC   NC329939  16.749  26.831   9.464
 2185POPC   PO429940  16.765  26.782   9.164
 2185POPC   GL129941  16.695  26.844   8.864
 2185POPC   GL229942  16.604  26.855   8.864
 2185POPC   C1A29943  16.685  26.846   8.564
 2185POPC   D2A29944  16.735  26.778   8.264
 2185POPC   C3A29945  16.728  26.816   7.964
 2185POPC   C4A29946  16.744  26.851   7.664
 2185POPC   C1B29947  16.526  26.886   8.564
 2185POPC   C2B29948  16.500  26.882   8.264
 2185POPC   C3B29949  16.496  26.849   7.964
 2185POPC   C4B29950  16.493  26.830   7.664
 2186POPC   NC329951  26.008  38.461   9.464
 2186POPC   PO429952  26.033  38.457   9.164
 2186POPC   GL129953  26.007  38.500   8.864
 2186POPC   GL229954  26.075  38.567   8.864
 2186POPC   C1A29955  26.091  38.459   8.564
 2186POPC   D2A29956  26.068  38.467   8.264
 2186POPC   C3A29957  26.089  38.405   7.964
 2186POPC   C4A29958  25.993  38.420   7.664
 2186POPC   C1B29959  26.060  38.658   8.564
 2186POPC   C2B29960  26.065  38.702   8.264
 2186POPC   C3B29961  26.042  38.709   7.964
 2186POPC   C4B29962  26.054  38.705   7.664
 2187POPC   NC329963  43.924  14.433   9.464
 2187POPC   PO429964  43.920  14.424   9.164
 2187POPC   GL129965  43.915  14.412   8.864
 2187POPC   GL229966  43.995  14.457   8.864
 2187POPC   C1A29967  43.926  14.413   8.564
 2187POPC   D2A29968  43.906  14.383   8.264
 2187POPC   C3A29969  43.925  14.354   7.964
 2187POPC   C4A29970  43.925  14.375   7.664
 2187POPC   C1B29971  44.140  14.420   8.564
 2187POPC   C2B29972  44.104  14.423   8.264
 2187POPC   C3B29973  44.107  14.440   7.964
 2187POPC   C4B29974  44.179  14.486   7.664
 2188POPC   NC329975  34.593  17.511   9.464
 2188POPC   PO429976  34.560  17.542   9.164
 2188POPC   GL129977  34.529  17.524   8.864
 2188POPC   GL229978  34.502  17.375   8.864
 2188POPC   C1A29979  34.609  17.457   8.564
 2188POPC   D2A29980  34.588  17.469   8.264
 2188POPC   C3A29981  34.585  17.475   7.964
 2188POPC   C4A29982  34.554  17.482   7.664
 2188POPC   C1B29983  34.415  17.341   8.564
 2188POPC   C2B29984  34.479  17.289   8.264
 2188POPC   C3B29985  34.404  17.250   7.964
 2188POPC   C4B29986  34.404  17.263   7.664
 2189POPC   NC329987  12.114  42.307   9.464
 2189POPC   PO429988  12.100  42.382   9.164
 2189POPC   GL129989  12.085  42.319   8.864
 2189POPC   GL229990  12.068  42.208   8.864
 2189POPC   C1A29991  12.108  42.366   8.564
 2189POPC   D2A29992  12.099  42.354   8.264
 2189POPC   C3A29993  12.085  42.336   7.964
 2189POPC   C4A29994  12.047  42.304   7.664
 2189POPC   C1B29995  11.980  42.059   8.564
 2189POPC   C2B29996  11.995  42.043   8.264
 2189POPC   C3B29997  12.012  42.138   7.964
 2189POPC   C4B29998  12.013  42.054   7.664
 2190POPC   NC329999   2.802  42.333   9.464
 2190POPC   PO430000   2.771  42.382   9.164
 2190POPC   GL130001   2.800  42.332   8.864
 2190POPC   GL230002   2.832  42.376   8.864
 2190POPC   C1A30003   2.806  42.363   8.564
 2190POPC   D2A30004   2.793  42.363   8.264
 2190POPC   C3A30005   2.754  42.350   7.964
 2190POPC   C4A30006   2.757  42.380   7.664
 2190POPC   C1B30007   3.016  42.447   8.564
 2190POPC   C2B30008   2.942  42.447   8.264
 2190POPC   C3B30009   2.965  42.464   7.964
 2190POPC   C4B30010   2.946  42.446   7.664
 2191POPC   NC330011   1.945   4.347   9.464
 2191POPC   PO430012   1.961   4.274   9.164
 2191POPC   GL130013   1.984   4.306   8.864
 2191POPC   GL230014   2.063   4.388   8.864
 2191POPC   C1A30015   1.983   4.298   8.564
 2191POPC   D2A30016   1.972   4.352   8.264
 2191POPC   C3A30017   1.963   4.360   7.964
 2191POPC   C4A30018   1.956   4.285   7.664
 2191POPC   C1B30019   2.136   4.484   8.564
 2191POPC   C2B30020   2.153   4.497   8.264
 2191POPC   C3B30021   2.162   4.483   7.964
 2191POPC   C4B30022   2.182   4.532   7.664
 2192POPC   NC330023  15.225   0.403   9.464
 2192POPC   PO430024  15.226   0.452   9.164
 2192POPC   GL130025  15.165   0.434   8.864
 2192POPC   GL230026  15.288   0.556   8.864
 2192POPC   C1A30027  15.182   0.448   8.564
 2192POPC   D2A30028  15.174   0.457   8.264
 2192POPC   C3A30029  15.219   0.410   7.964
 2192POPC   C4A30030  15.164   0.414   7.664
 2192POPC   C1B30031  15.325   0.669   8.564
 2192POPC   C2B30032  15.297   0.652   8.264
 2192POPC   C3B30033  15.344   0.667   7.964
 2192POPC   C4B30034  15.317   0.663   7.664
 2193POPC   NC330035  12.027  28.362   9.464
 2193POPC   PO430036  12.110  28.351   9.164
 2193POPC   GL130037  12.040  28.384   8.864
 2193POPC   GL230038  12.002  28.448   8.864
 2193POPC   C1A30039  12.039  28.411   8.564
 2193POPC   D2A30040  12.120  28.392   8.264
 2193POPC   C3A30041  12.029  28.354   7.964
 2193POPC   C4A30042  12.072  28.386   7.664
 2193POPC   C1B30043  11.946  28.597   8.564
 2193POPC   C2B30044  11.950  28.556   8.264
 2193POPC   C3B30045  11.952  28.590   7.964
 2193POPC   C4B30046  11.936  28.533   7.664
 2194POPC   NC330047  12.040   7.395   9.464
 2194POPC   PO430048  12.052   7.422   9.164
 2194POPC   GL130049  12.101   7.442   8.864
 2194POPC   GL230050  12.222   7.443   8.864
 2194POPC   C1A30051  12.034   7.380   8.564
 2194POPC   D2A30052  12.098   7.386   8.264
 2194POPC   C3A30053  12.117   7.372   7.964
 2194POPC   C4A30054  12.104   7.433   7.664
 2194POPC   C1B30055  12.344   7.463   8.564
 2194POPC   C2B30056  12.279   7.435   8.264
 2194POPC   C3B30057  12.367   7.490   7.964
 2194POPC   C4B30058  12.341   7.450   7.664
 2195POPC   NC330059  27.601  15.191   9.464
 2195POPC   PO430060  27.567  15.168   9.164
 2195POPC   GL130061  27.561  15.162   8.864
 2195POPC   GL230062  27.557  15.046   8.864
 2195POPC   C1A30063  27.553  15.153   8.564
 2195POPC   D2A30064  27.637  15.152   8.264
 2195POPC   C3A30065  27.619  15.179   7.964
 2195POPC   C4A30066  27.552  15.204   7.664
 2195POPC   C1B30067  27.645  14.973   8.564
 2195POPC   C2B30068  27.619  14.932   8.264
 2195POPC   C3B30069  27.641  14.978   7.964
 2195POPC   C4B30070  27.612  14.960   7.664
 2196POPC   NC330071   3.524   0.397   9.464
 2196POPC   PO430072   3.543   0.487   9.164
 2196POPC   GL130073   3.532   0.432   8.864
 2196POPC   GL230074   3.607   0.321   8.864
 2196POPC   C1A30075   3.586   0.433   8.564
 2196POPC   D2A30076   3.591   0.409   8.264
 2196POPC   C3A30077   3.588   0.434   7.964
 2196POPC   C4A30078   3.520   0.454   7.664
 2196POPC   C1B30079   3.603   0.236   8.564
 2196POPC   C2B30080   3.626   0.243   8.264
 2196POPC   C3B30081   3.645   0.213   7.964
 2196POPC   C4B30082   3.665   0.254   7.664
 2197POPC   NC330083  10.573  10.543   9.464
 2197POPC   PO430084  10.557  10.527   9.164
 2197POPC   GL130085  10.571  10.547   8.864
 2197POPC   GL230086  10.368  10.557   8.864
 2197POPC   C1A30087  10.515  10.492   8.564
 2197POPC   D2A30088  10.495  10.495   8.264
 2197POPC   C3A30089  10.514  10.512   7.964
 2197POPC   C4A30090  10.476  10.495   7.664
 2197POPC   C1B30091  10.302  10.663   8.564
 2197POPC   C2B30092  10.303  10.667   8.264
 2197POPC   C3B30093  10.258  10.606   7.964
 2197POPC   C4B30094  10.298  10.696   7.664
 2198POPC   NC330095  32.227  11.291   9.464
 2198POPC   PO430096  32.214  11.293   9.164
 2198POPC   GL130097  32.240  11.259   8.864
 2198POPC   GL230098  32.155  11.215   8.864
 2198POPC   C1A30099  32.251  11.283   8.564
 2198POPC   D2A30100  32.233  11.329   8.264
 2198POPC   C3A30101  32.284  11.347   7.964
 2198POPC   C4A30102  32.204  11.251   7.664
 2198POPC   C1B30103  32.062  11.117   8.564
 2198POPC   C2B30104  32.027  11.123   8.264
 2198POPC   C3B30105  32.043  11.168   7.964
 2198POPC   C4B30106  32.071  11.149   7.664
 2199POPC   NC330107  19.073  14.389   9.464
 2199POPC   PO430108  19.014  14.449   9.164
 2199POPC   GL130109  19.073  14.436   8.864
 2199POPC   GL230110  18.985  14.436   8.864
 2199POPC   C1A30111  19.037  14.445   8.564
 2199POPC   D2A30112  19.062  14.428   8.264
 2199POPC   C3A30113  19.067  14.434   7.964
 2199POPC   C4A30114  19.046  14.429   7.664
 2199POPC   C1B30115  18.840  14.542   8.564
 2199POPC   C2B30116  18.858  14.519   8.264
 2199POPC   C3B30117  18.816  14.526   7.964
 2199POPC   C4B30118  18.842  14.550   7.664
 2200POPC   NC330119  26.793  14.397   9.464
 2200POPC   PO430120  26.797  14.450   9.164
 2200POPC   GL130121  26.786  14.451   8.864
 2200POPC   GL230122  26.932  14.509   8.864
 2200POPC   C1A30123  26.823  14.395   8.564
 2200POPC   D2A30124  26.842  14.365   8.264
 2200POPC   C3A30125  26.852  14.394   7.964
 2200POPC   C4A30126  26.852  14.373   7.664
 2200POPC   C1B30127  27.061  14.501   8.564
 2200POPC   C2B30128  27.012  14.547   8.264
 2200POPC   C3B30129  27.047  14.549   7.964
 2200POPC   C4B30130  27.042  14.502   7.664
 2201POPC   NC330131   5.846  26.850   9.464
 2201POPC   PO430132   5.856  26.793   9.164
 2201POPC   GL130133   5.884  26.793   8.864
 2201POPC   GL230134   5.929  26.788   8.864
 2201POPC   C1A30135   5.871  26.772   8.564
 2201POPC   D2A30136   5.910  26.797   8.264
 2201POPC   C3A30137   5.888  26.836   7.964
 2201POPC   C4A30138   5.848  26.774   7.664
 2201POPC   C1B30139   6.055  26.677   8.564
 2201POPC   C2B30140   6.018  26.682   8.264
 2201POPC   C3B30141   6.104  26.684   7.964
 2201POPC   C4B30142   6.057  26.655   7.664
 2202POPC   NC330143  17.496  21.382   9.464
 2202POPC   PO430144  17.476  21.391   9.164
 2202POPC   GL130145  17.557  21.347   8.864
 2202POPC   GL230146  17.656  21.355   8.864
 2202POPC   C1A30147  17.471  21.370   8.564
 2202POPC   D2A30148  17.465  21.413   8.264
 2202POPC   C3A30149  17.531  21.345   7.964
 2202POPC   C4A30150  17.526  21.371   7.664
 2202POPC   C1B30151  17.660  21.232   8.564
 2202POPC   C2B30152  17.719  21.239   8.264
 2202POPC   C3B30153  17.709  21.221   7.964
 2202POPC   C4B30154  17.717  21.214   7.664
 2203POPC   NC330155  19.080  38.407   9.464
 2203POPC   PO430156  19.029  38.438   9.164
 2203POPC   GL130157  19.037  38.408   8.864
 2203POPC   GL230158  19.004  38.610   8.864
 2203POPC   C1A30159  19.039  38.503   8.564
 2203POPC   D2A30160  19.017  38.505   8.264
 2203POPC   C3A30161  19.046  38.501   7.964
 2203POPC   C4A30162  19.025  38.505   7.664
 2203POPC   C1B30163  18.948  38.637   8.564
 2203POPC   C2B30164  18.921  38.695   8.264
 2203POPC   C3B30165  18.977  38.654   7.964
 2203POPC   C4B30166  18.935  38.722   7.664
 2204POPC   NC330167  23.676  42.372   9.464
 2204POPC   PO430168  23.687  42.375   9.164
 2204POPC   GL130169  23.683  42.377   8.864
 2204POPC   GL230170  23.598  42.432   8.864
 2204POPC   C1A30171  23.674  42.305   8.564
 2204POPC   D2A30172  23.702  42.373   8.264
 2204POPC   C3A30173  23.714  42.329   7.964
 2204POPC   C4A30174  23.734  42.321   7.664
 2204POPC   C1B30175  23.501  42.483   8.564
 2204POPC   C2B30176  23.485  42.425   8.264
 2204POPC   C3B30177  23.464  42.487   7.964
 2204POPC   C4B30178  23.521  42.433   7.664
 2205POPC   NC330179  20.619  20.660   9.464
 2205POPC   PO430180  20.589  20.615   9.164
 2205POPC   GL130181  20.641  20.586   8.864
 2205POPC   GL230182  20.548  20.691   8.864
 2205POPC   C1A30183  20.561  20.580   8.564
 2205POPC   D2A30184  20.604  20.647   8.264
 2205POPC   C3A30185  20.630  20.604   7.964
 2205POPC   C4A30186  20.612  20.617   7.664
 2205POPC   C1B30187  20.445  20.753   8.564
 2205POPC   C2B30188  20.401  20.752   8.264
 2205POPC   C3B30189  20.365  20.731   7.964
 2205POPC   C4B30190  20.353  20.696   7.664
 2206POPC   NC330191  29.174   5.109   9.464
 2206POPC   PO430192  29.111   5.119   9.164
 2206POPC   GL130193  29.178   5.086   8.864
 2206POPC   GL230194  29.237   5.103   8.864
 2206POPC   C1A30195  29.170   5.128   8.564
 2206POPC   D2A30196  29.157   5.115   8.264
 2206POPC   C3A30197  29.138   5.128   7.964
 2206POPC   C4A30198  29.118   5.093   7.664
 2206POPC   C1B30199  29.419   5.040   8.564
 2206POPC   C2B30200  29.350   5.043   8.264
 2206POPC   C3B30201  29.368   5.064   7.964
 2206POPC   C4B30202  29.413   5.042   7.664
 2207POPC   NC330203  15.205  15.224   9.464
 2207POPC   PO430204  15.151  15.194   9.164
 2207POPC   GL130205  15.213  15.226   8.864
 2207POPC   GL230206  15.338  15.148   8.864
 2207POPC   C1A30207  15.160  15.214   8.564
 2207POPC   D2A30208  15.179  15.206   8.264
 2207POPC   C3A30209  15.167  15.154   7.964
 2207POPC   C4A30210  15.136  15.210   7.664
 2207POPC   C1B30211  15.430  15.144   8.564
 2207POPC   C2B30212  15.383  15.136   8.264
 2207POPC   C3B30213  15.406  15.093   7.964
 2207POPC   C4B30214  15.463  15.102   7.664
 2208POPC   NC330215  19.034  39.980   9.464
 2208POPC   PO430216  19.020  40.028   9.164
 2208POPC   GL130217  19.022  40.019   8.864
 2208POPC   GL230218  19.036  39.934   8.864
 2208POPC   C1A30219  19.091  40.002   8.564
 2208POPC   D2A30220  19.048  39.983   8.264
 2208POPC   C3A30221  19.071  40.051   7.964
 2208POPC   C4A30222  19.084  40.010   7.664
 2208POPC   C1B30223  18.920  39.805   8.564
 2208POPC   C2B30224  18.996  39.815   8.264
 2208POPC   C3B30225  18.909  39.798   7.964
 2208POPC   C4B30226  19.005  39.730   7.664
 2209POPC   NC330227  29.145  12.839   9.464
 2209POPC   PO430228  29.177  12.864   9.164
 2209POPC   GL130229  29.190  12.855   8.864
 2209POPC   GL230230  29.044  12.798   8.864
 2209POPC   C1A30231  29.138  12.827   8.564
 2209POPC   D2A30232  29.180  12.846   8.264
 2209POPC   C3A30233  29.097  12.803   7.964
 2209POPC   C4A30234  29.188  12.831   7.664
 2209POPC   C1B30235  28.963  12.679   8.564
 2209POPC   C2B30236  28.958  12.704   8.264
 2209POPC   C3B30237  28.987  12.638   7.964
 2209POPC   C4B30238  29.003  12.638   7.664
 2210POPC   NC330239  19.105   1.175   9.464
 2210POPC   PO430240  19.018   1.253   9.164
 2210POPC   GL130241  19.064   1.220   8.864
 2210POPC   GL230242  19.105   1.105   8.864
 2210POPC   C1A30243  19.030   1.217   8.564
 2210POPC   D2A30244  19.048   1.240   8.264
 2210POPC   C3A30245  19.088   1.180   7.964
 2210POPC   C4A30246  19.086   1.193   7.664
 2210POPC   C1B30247  19.205   1.002   8.564
 2210POPC   C2B30248  19.203   1.010   8.264
 2210POPC   C3B30249  19.151   1.030   7.964
 2210POPC   C4B30250  19.210   0.960   7.664
 2211POPC   NC330251  33.802  16.757   9.464
 2211POPC   PO430252  33.770  16.750   9.164
 2211POPC   GL130253  33.844  16.748   8.864
 2211POPC   GL230254  33.703  16.674   8.864
 2211POPC   C1A30255  33.787  16.737   8.564
 2211POPC   D2A30256  33.785  16.702   8.264
 2211POPC   C3A30257  33.815  16.777   7.964
 2211POPC   C4A30258  33.793  16.761   7.664
 2211POPC   C1B30259  33.647  16.527   8.564
 2211POPC   C2B30260  33.620  16.542   8.264
 2211POPC   C3B30261  33.623  16.497   7.964
 2211POPC   C4B30262  33.692  16.545   7.664
 2212POPC   NC330263  26.825   8.168   9.464
 2212POPC   PO430264  26.849   8.233   9.164
 2212POPC   GL130265  26.867   8.154   8.864
 2212POPC   GL230266  26.822   8.338   8.864
 2212POPC   C1A30267  26.809   8.227   8.564
 2212POPC   D2A30268  26.820   8.237   8.264
 2212POPC   C3A30269  26.862   8.152   7.964
 2212POPC   C4A30270  26.783   8.171   7.664
 2212POPC   C1B30271  26.787   8.408   8.564
 2212POPC   C2B30272  26.757   8.477   8.264
 2212POPC   C3B30273  26.767   8.460   7.964
 2212POPC   C4B30274  26.764   8.417   7.664
 2213POPC   NC330275  17.472  26.020   9.464
 2213POPC   PO430276  17.536  26.041   9.164
 2213POPC   GL130277  17.532  26.073   8.864
 2213POPC   GL230278  17.523  26.130   8.864
 2213POPC   C1A30279  17.507  25.994   8.564
 2213POPC   D2A30280  17.545  26.064   8.264
 2213POPC   C3A30281  17.495  26.064   7.964
 2213POPC   C4A30282  17.494  26.076   7.664
 2213POPC   C1B30283  17.519  26.244   8.564
 2213POPC   C2B30284  17.589  26.311   8.264
 2213POPC   C3B30285  17.533  26.316   7.964
 2213POPC   C4B30286  17.561  26.298   7.664
 2214POPC   NC330287  34.583  26.781   9.464
 2214POPC   PO430288  34.587  26.780   9.164
 2214POPC   GL130289  34.575  26.781   8.864
 2214POPC   GL230290  34.519  26.909   8.864
 2214POPC   C1A30291  34.602  26.786   8.564
 2214POPC   D2A30292  34.612  26.841   8.264
 2214POPC   C3A30293  34.608  26.787   7.964
 2214POPC   C4A30294  34.562  26.865   7.664
 2214POPC   C1B30295  34.523  27.068   8.564
 2214POPC   C2B30296  34.498  27.091   8.264
 2214POPC   C3B30297  34.486  26.998   7.964
 2214POPC   C4B30298  34.464  27.029   7.664
 2215POPC   NC330299  12.808  30.710   9.464
 2215POPC   PO430300  12.815  30.696   9.164
 2215POPC   GL130301  12.833  30.674   8.864
 2215POPC   GL230302  12.939  30.678   8.864
 2215POPC   C1A30303  12.861  30.693   8.564
 2215POPC   D2A30304  12.886  30.705   8.264
 2215POPC   C3A30305  12.894  30.720   7.964
 2215POPC   C4A30306  12.837  30.746   7.664
 2215POPC   C1B30307  13.096  30.708   8.564
 2215POPC   C2B30308  13.069  30.644   8.264
 2215POPC   C3B30309  13.053  30.666   7.964
 2215POPC   C4B30310  13.112  30.653   7.664
 2216POPC   NC330311  40.764  43.078   9.464
 2216POPC   PO430312  40.794  43.120   9.164
 2216POPC   GL130313  40.774  43.073   8.864
 2216POPC   GL230314  40.918  43.084   8.864
 2216POPC   C1A30315  40.774  43.138   8.564
 2216POPC   D2A30316  40.746  43.160   8.264
 2216POPC   C3A30317  40.832  43.094   7.964
 2216POPC   C4A30318  40.766  43.074   7.664
 2216POPC   C1B30319  41.042  42.991   8.564
 2216POPC   C2B30320  41.014  43.012   8.264
 2216POPC   C3B30321  40.967  43.046   7.964
 2216POPC   C4B30322  40.997  42.991   7.664
 2217POPC   NC330323   9.011  18.275   9.464
 2217POPC   PO430324   8.942  18.249   9.164
 2217POPC   GL130325   8.944  18.332   8.864
 2217POPC   GL230326   8.876  18.125   8.864
 2217POPC   C1A30327   8.956  18.245   8.564
 2217POPC   D2A30328   8.989  18.245   8.264
 2217POPC   C3A30329   9.021  18.295   7.964
 2217POPC   C4A30330   8.988  18.240   7.664
 2217POPC   C1B30331   8.851  18.040   8.564
 2217POPC   C2B30332   8.838  18.104   8.264
 2217POPC   C3B30333   8.886  18.050   7.964
 2217POPC   C4B30334   8.859  18.079   7.664
 2218POPC   NC330335  35.317  41.554   9.464
 2218POPC   PO430336  35.337  41.551   9.164
 2218POPC   GL130337  35.350  41.561   8.864
 2218POPC   GL230338  35.316  41.473   8.864
 2218POPC   C1A30339  35.321  41.600   8.564
 2218POPC   D2A30340  35.376  41.577   8.264
 2218POPC   C3A30341  35.328  41.577   7.964
 2218POPC   C4A30342  35.384  41.537   7.664
 2218POPC   C1B30343  35.265  41.375   8.564
 2218POPC   C2B30344  35.277  41.306   8.264
 2218POPC   C3B30345  35.254  41.303   7.964
 2218POPC   C4B30346  35.286  41.331   7.664
 2219POPC   NC330347  23.725  20.589   9.464
 2219POPC   PO430348  23.757  20.645   9.164
 2219POPC   GL130349  23.750  20.573   8.864
 2219POPC   GL230350  23.818  20.533   8.864
 2219POPC   C1A30351  23.734  20.563   8.564
 2219POPC   D2A30352  23.666  20.630   8.264
 2219POPC   C3A30353  23.748  20.561   7.964
 2219POPC   C4A30354  23.674  20.621   7.664
 2219POPC   C1B30355  23.912  20.454   8.564
 2219POPC   C2B30356  23.967  20.443   8.264
 2219POPC   C3B30357  23.944  20.488   7.964
 2219POPC   C4B30358  23.890  20.483   7.664
 2220POPC   NC330359  40.043  33.070   9.464
 2220POPC   PO430360  39.983  33.024   9.164
 2220POPC   GL130361  40.039  33.055   8.864
 2220POPC   GL230362  40.058  33.108   8.864
 2220POPC   C1A30363  40.041  33.039   8.564
 2220POPC   D2A30364  40.016  33.051   8.264
 2220POPC   C3A30365  39.982  33.040   7.964
 2220POPC   C4A30366  40.020  33.072   7.664
 2220POPC   C1B30367  40.036  33.242   8.564
 2220POPC   C2B30368  40.022  33.249   8.264
 2220POPC   C3B30369  40.053  33.292   7.964
 2220POPC   C4B30370  40.046  33.273   7.664
 2221POPC   NC330371  37.695   9.701   9.464
 2221POPC   PO430372  37.698   9.770   9.164
 2221POPC   GL130373  37.665   9.701   8.864
 2221POPC   GL230374  37.697   9.666   8.864
 2221POPC   C1A30375  37.672   9.756   8.564
 2221POPC   D2A30376  37.705   9.777   8.264
 2221POPC   C3A30377  37.700   9.787   7.964
 2221POPC   C4A30378  37.634   9.715   7.664
 2221POPC   C1B30379  37.634   9.469   8.564
 2221POPC   C2B30380  37.611   9.512   8.264
 2221POPC   C3B30381  37.628   9.470   7.964
 2221POPC   C4B30382  37.606   9.539   7.664
 2222POPC   NC330383  33.832   5.115   9.464
 2222POPC   PO430384  33.804   5.064   9.164
 2222POPC   GL130385  33.806   5.058   8.864
 2222POPC   GL230386  33.926   5.060   8.864
 2222POPC   C1A30387  33.828   5.132   8.564
 2222POPC   D2A30388  33.784   5.088   8.264
 2222POPC   C3A30389  33.816   5.130   7.964
 2222POPC   C4A30390  33.772   5.073   7.664
 2222POPC   C1B30391  34.007   4.905   8.564
 2222POPC   C2B30392  33.965   4.921   8.264
 2222POPC   C3B30393  34.033   4.945   7.964
 2222POPC   C4B30394  34.042   4.905   7.664
 2223POPC   NC330395   1.259  19.091   9.464
 2223POPC   PO430396   1.263  19.017   9.164
 2223POPC   GL130397   1.177  19.076   8.864
 2223POPC   GL230398   1.334  19.031   8.864
 2223POPC   C1A30399   1.173  19.015   8.564
 2223POPC   D2A30400   1.208  19.085   8.264
 2223POPC   C3A30401   1.184  19.051   7.964
 2223POPC   C4A30402   1.217  19.099   7.664
 2223POPC   C1B30403   1.430  18.965   8.564
 2223POPC   C2B30404   1.396  18.929   8.264
 2223POPC   C3B30405   1.394  18.976   7.964
 2223POPC   C4B30406   1.470  18.985   7.664
 2224POPC   NC330407   4.355  20.577   9.464
 2224POPC   PO430408   4.312  20.651   9.164
 2224POPC   GL130409   4.280  20.606   8.864
 2224POPC   GL230410   4.150  20.623   8.864
 2224POPC   C1A30411   4.286  20.568   8.564
 2224POPC   D2A30412   4.366  20.570   8.264
 2224POPC   C3A30413   4.357  20.638   7.964
 2224POPC   C4A30414   4.356  20.636   7.664
 2224POPC   C1B30415   4.105  20.584   8.564
 2224POPC   C2B30416   4.060  20.565   8.264
 2224POPC   C3B30417   4.100  20.580   7.964
 2224POPC   C4B30418   4.024  20.509   7.664
 2225POPC   NC330419  26.777  28.334   9.464
 2225POPC   PO430420  26.777  28.409   9.164
 2225POPC   GL130421  26.861  28.370   8.864
 2225POPC   GL230422  26.767  28.472   8.864
 2225POPC   C1A30423  26.838  28.343   8.564
 2225POPC   D2A30424  26.854  28.320   8.264
 2225POPC   C3A30425  26.816  28.353   7.964
 2225POPC   C4A30426  26.867  28.371   7.664
 2225POPC   C1B30427  26.652  28.540   8.564
 2225POPC   C2B30428  26.648  28.533   8.264
 2225POPC   C3B30429  26.631  28.603   7.964
 2225POPC   C4B30430  26.700  28.563   7.664
 2226POPC   NC330431   1.244  24.493   9.464
 2226POPC   PO430432   1.233  24.464   9.164
 2226POPC   GL130433   1.229  24.535   8.864
 2226POPC   GL230434   1.164  24.611   8.864
 2226POPC   C1A30435   1.175  24.494   8.564
 2226POPC   D2A30436   1.225  24.520   8.264
 2226POPC   C3A30437   1.172  24.502   7.964
 2226POPC   C4A30438   1.260  24.442   7.664
 2226POPC   C1B30439   1.191  24.718   8.564
 2226POPC   C2B30440   1.231  24.688   8.264
 2226POPC   C3B30441   1.149  24.717   7.964
 2226POPC   C4B30442   1.201  24.704   7.664
 2227POPC   NC330443  35.353   4.318   9.464
 2227POPC   PO430444  35.335   4.275   9.164
 2227POPC   GL130445  35.382   4.341   8.864
 2227POPC   GL230446  35.426   4.202   8.864
 2227POPC   C1A30447  35.315   4.343   8.564
 2227POPC   D2A30448  35.307   4.354   8.264
 2227POPC   C3A30449  35.342   4.342   7.964
 2227POPC   C4A30450  35.359   4.297   7.664
 2227POPC   C1B30451  35.432   4.101   8.564
 2227POPC   C2B30452  35.477   4.047   8.264
 2227POPC   C3B30453  35.488   4.118   7.964
 2227POPC   C4B30454  35.460   4.060   7.664
 2228POPC   NC330455  29.878  35.362   9.464
 2228POPC   PO430456  29.966  35.303   9.164
 2228POPC   GL130457  29.919  35.402   8.864
 2228POPC   GL230458  29.914  35.211   8.864
 2228POPC   C1A30459  29.916  35.338   8.564
 2228POPC   D2A30460  29.879  35.363   8.264
 2228POPC   C3A30461  29.915  35.344   7.964
 2228POPC   C4A30462  29.905  35.373   7.664
 2228POPC   C1B30463  29.843  35.077   8.564
 2228POPC   C2B30464  29.781  35.133   8.264
 2228POPC   C3B30465  29.804  35.131   7.964
 2228POPC   C4B30466  29.786  35.082   7.664
 2229POPC   NC330467  31.493   5.070   9.464
 2229POPC   PO430468  31.496   5.090   9.164
 2229POPC   GL130469  31.488   5.142   8.864
 2229POPC   GL230470  31.534   5.155   8.864
 2229POPC   C1A30471  31.521   5.138   8.564
 2229POPC   D2A30472  31.426   5.067   8.264
 2229POPC   C3A30473  31.427   5.067   7.964
 2229POPC   C4A30474  31.467   5.078   7.664
 2229POPC   C1B30475  31.603   5.296   8.564
 2229POPC   C2B30476  31.618   5.257   8.264
 2229POPC   C3B30477  31.636   5.261   7.964
 2229POPC   C4B30478  31.666   5.257   7.664
 2230POPC   NC330479  19.096   2.776   9.464
 2230POPC   PO430480  19.017   2.791   9.164
 2230POPC   GL130481  19.032   2.717   8.864
 2230POPC   GL230482  19.008   2.639   8.864
 2230POPC   C1A30483  19.055   2.779   8.564
 2230POPC   D2A30484  19.028   2.739   8.264
 2230POPC   C3A30485  19.105   2.734   7.964
 2230POPC   C4A30486  19.093   2.728   7.664
 2230POPC   C1B30487  18.869   2.512   8.564
 2230POPC   C2B30488  18.881   2.558   8.264
 2230POPC   C3B30489  18.900   2.575   7.964
 2230POPC   C4B30490  18.874   2.597   7.664
 2231POPC   NC330491  21.392   2.002   9.464
 2231POPC   PO430492  21.391   2.007   9.164
 2231POPC   GL130493  21.349   2.007   8.864
 2231POPC   GL230494  21.509   2.034   8.864
 2231POPC   C1A30495  21.357   2.019   8.564
 2231POPC   D2A30496  21.338   1.950   8.264
 2231POPC   C3A30497  21.361   1.987   7.964
 2231POPC   C4A30498  21.367   2.013   7.664
 2231POPC   C1B30499  21.633   1.978   8.564
 2231POPC   C2B30500  21.653   2.040   8.264
 2231POPC   C3B30501  21.607   2.010   7.964
 2231POPC   C4B30502  21.650   2.001   7.664
 2232POPC   NC330503  10.545  42.356   9.464
 2232POPC   PO430504  10.532  42.349   9.164
 2232POPC   GL130505  10.522  42.328   8.864
 2232POPC   GL230506  10.431  42.430   8.864
 2232POPC   C1A30507  10.553  42.292   8.564
 2232POPC   D2A30508  10.515  42.366   8.264
 2232POPC   C3A30509  10.550  42.322   7.964
 2232POPC   C4A30510  10.492  42.363   7.664
 2232POPC   C1B30511  10.346  42.528   8.564
 2232POPC   C2B30512  10.360  42.499   8.264
 2232POPC   C3B30513  10.351  42.465   7.964
 2232POPC   C4B30514  10.380  42.538   7.664
 2233POPC   NC330515  25.242  19.868   9.464
 2233POPC   PO430516  25.283  19.866   9.164
 2233POPC   GL130517  25.259  19.880   8.864
 2233POPC   GL230518  25.184  19.947   8.864
 2233POPC   C1A30519  25.285  19.847   8.564
 2233POPC   D2A30520  25.314  19.812   8.264
 2233POPC   C3A30521  25.313  19.787   7.964
 2233POPC   C4A30522  25.285  19.822   7.664
 2233POPC   C1B30523  25.048  20.009   8.564
 2233POPC   C2B30524  25.049  20.014   8.264
 2233POPC   C3B30525  25.110  20.019   7.964
 2233POPC   C4B30526  25.090  19.997   7.664
 2234POPC   NC330527   8.159  23.747   9.464
 2234POPC   PO430528   8.191  23.678   9.164
 2234POPC   GL130529   8.220  23.689   8.864
 2234POPC   GL230530   8.151  23.838   8.864
 2234POPC   C1A30531   8.217  23.692   8.564
 2234POPC   D2A30532   8.234  23.739   8.264
 2234POPC   C3A30533   8.171  23.703   7.964
 2234POPC   C4A30534   8.233  23.738   7.664
 2234POPC   C1B30535   8.072  23.979   8.564
 2234POPC   C2B30536   8.083  23.911   8.264
 2234POPC   C3B30537   8.108  23.967   7.964
 2234POPC   C4B30538   8.041  23.946   7.664
 2235POPC   NC330539  12.812  20.611   9.464
 2235POPC   PO430540  12.834  20.617   9.164
 2235POPC   GL130541  12.830  20.590   8.864
 2235POPC   GL230542  12.781  20.512   8.864
 2235POPC   C1A30543  12.806  20.583   8.564
 2235POPC   D2A30544  12.860  20.652   8.264
 2235POPC   C3A30545  12.810  20.658   7.964
 2235POPC   C4A30546  12.855  20.642   7.664
 2235POPC   C1B30547  12.842  20.400   8.564
 2235POPC   C2B30548  12.771  20.337   8.264
 2235POPC   C3B30549  12.800  20.409   7.964
 2235POPC   C4B30550  12.837  20.364   7.664
 2236POPC   NC330551   9.762  24.511   9.464
 2236POPC   PO430552   9.773  24.443   9.164
 2236POPC   GL130553   9.707  24.535   8.864
 2236POPC   GL230554   9.858  24.553   8.864
 2236POPC   C1A30555   9.757  24.500   8.564
 2236POPC   D2A30556   9.742  24.522   8.264
 2236POPC   C3A30557   9.724  24.532   7.964
 2236POPC   C4A30558   9.752  24.531   7.664
 2236POPC   C1B30559   9.922  24.677   8.564
 2236POPC   C2B30560   9.870  24.691   8.264
 2236POPC   C3B30561   9.922  24.736   7.964
 2236POPC   C4B30562   9.859  24.682   7.664
 2237POPC   NC330563  34.563  44.644   9.464
 2237POPC   PO430564  34.607  44.634   9.164
 2237POPC   GL130565  34.622  44.681   8.864
 2237POPC   GL230566  34.652  44.635   8.864
 2237POPC   C1A30567  34.600  44.614   8.564
 2237POPC   D2A30568  34.539  44.684   8.264
 2237POPC   C3A30569  34.599  44.649   7.964
 2237POPC   C4A30570  34.599  44.616   7.664
 2237POPC   C1B30571  34.819  44.646   8.564
 2237POPC   C2B30572  34.861  44.675   8.264
 2237POPC   C3B30573  34.875  44.667   7.964
 2237POPC   C4B30574  34.864  44.639   7.664
 2238POPC   NC330575  28.412  16.003   9.464
 2238POPC   PO430576  28.398  15.955   9.164
 2238POPC   GL130577  28.393  15.915   8.864
 2238POPC   GL230578  28.496  15.833   8.864
 2238POPC   C1A30579  28.331  15.951   8.564
 2238POPC   D2A30580  28.413  16.000   8.264
 2238POPC   C3A30581  28.407  15.944   7.964
 2238POPC   C4A30582  28.320  15.986   7.664
 2238POPC   C1B30583  28.498  15.788   8.564
 2238POPC   C2B30584  28.537  15.776   8.264
 2238POPC   C3B30585  28.522  15.802   7.964
 2238POPC   C4B30586  28.571  15.754   7.664
 2239POPC   NC330587  26.795  19.072   9.464
 2239POPC   PO430588  26.841  19.072   9.164
 2239POPC   GL130589  26.839  19.064   8.864
 2239POPC   GL230590  26.817  19.181   8.864
 2239POPC   C1A30591  26.802  19.055   8.564
 2239POPC   D2A30592  26.829  19.054   8.264
 2239POPC   C3A30593  26.828  19.073   7.964
 2239POPC   C4A30594  26.843  19.027   7.664
 2239POPC   C1B30595  26.772  19.274   8.564
 2239POPC   C2B30596  26.742  19.295   8.264
 2239POPC   C3B30597  26.765  19.271   7.964
 2239POPC   C4B30598  26.772  19.298   7.664
 2240POPC   NC330599  32.984  44.668   9.464
 2240POPC   PO430600  33.017  44.659   9.164
 2240POPC   GL130601  33.009  44.658   8.864
 2240POPC   GL230602  32.928  44.653   8.864
 2240POPC   C1A30603  33.056  44.615   8.564
 2240POPC   D2A30604  33.043  44.644   8.264
 2240POPC   C3A30605  33.018  44.710   7.964
 2240POPC   C4A30606  33.065  44.646   7.664
 2240POPC   C1B30607  32.772  44.661   8.564
 2240POPC   C2B30608  32.811  44.717   8.264
 2240POPC   C3B30609  32.787  44.678   7.964
 2240POPC   C4B30610  32.805  44.730   7.664
 2241POPC   NC330611  11.320   5.070   9.464
 2241POPC   PO430612  11.268   5.091   9.164
 2241POPC   GL130613  11.269   5.117   8.864
 2241POPC   GL230614  11.370   4.954   8.864
 2241POPC   C1A30615  11.311   5.120   8.564
 2241POPC   D2A30616  11.348   5.122   8.264
 2241POPC   C3A30617  11.264   5.102   7.964
 2241POPC   C4A30618  11.327   5.133   7.664
 2241POPC   C1B30619  11.435   4.899   8.564
 2241POPC   C2B30620  11.437   4.849   8.264
 2241POPC   C3B30621  11.465   4.851   7.964
 2241POPC   C4B30622  11.452   4.876   7.664
 2242POPC   NC330623  31.486  25.244   9.464
 2242POPC   PO430624  31.492  25.279   9.164
 2242POPC   GL130625  31.444  25.235   8.864
 2242POPC   GL230626  31.444  25.314   8.864
 2242POPC   C1A30627  31.510  25.304   8.564
 2242POPC   D2A30628  31.519  25.226   8.264
 2242POPC   C3A30629  31.432  25.270   7.964
 2242POPC   C4A30630  31.462  25.232   7.664
 2242POPC   C1B30631  31.355  25.439   8.564
 2242POPC   C2B30632  31.365  25.497   8.264
 2242POPC   C3B30633  31.358  25.417   7.964
 2242POPC   C4B30634  31.352  25.460   7.664
 2243POPC   NC330635  26.817   0.395   9.464
 2243POPC   PO430636  26.819   0.393   9.164
 2243POPC   GL130637  26.848   0.418   8.864
 2243POPC   GL230638  26.777   0.370   8.864
 2243POPC   C1A30639  26.831   0.468   8.564
 2243POPC   D2A30640  26.809   0.422   8.264
 2243POPC   C3A30641  26.805   0.436   7.964
 2243POPC   C4A30642  26.842   0.483   7.664
 2243POPC   C1B30643  26.650   0.284   8.564
 2243POPC   C2B30644  26.614   0.241   8.264
 2243POPC   C3B30645  26.679   0.276   7.964
 2243POPC   C4B30646  26.664   0.272   7.664
 2244POPC   NC330647   2.729  13.644   9.464
 2244POPC   PO430648   2.777  13.598   9.164
 2244POPC   GL130649   2.790  13.632   8.864
 2244POPC   GL230650   2.836  13.537   8.864
 2244POPC   C1A30651   2.797  13.580   8.564
 2244POPC   D2A30652   2.733  13.621   8.264
 2244POPC   C3A30653   2.745  13.593   7.964
 2244POPC   C4A30654   2.767  13.619   7.664
 2244POPC   C1B30655   2.996  13.533   8.564
 2244POPC   C2B30656   2.986  13.528   8.264
 2244POPC   C3B30657   2.995  13.470   7.964
 2244POPC   C4B30658   3.003  13.471   7.664
 2245POPC   NC330659  12.833  10.526   9.464
 2245POPC   PO430660  12.890  10.556   9.164
 2245POPC   GL130661  12.850  10.548   8.864
 2245POPC   GL230662  12.928  10.663   8.864
 2245POPC   C1A30663  12.869  10.572   8.564
 2245POPC   D2A30664  12.840  10.509   8.264
 2245POPC   C3A30665  12.810  10.565   7.964
 2245POPC   C4A30666  12.827  10.561   7.664
 2245POPC   C1B30667  12.946  10.763   8.564
 2245POPC   C2B30668  12.913  10.744   8.264
 2245POPC   C3B30669  12.893  10.716   7.964
 2245POPC   C4B30670  12.933  10.764   7.664
 2246POPC   NC330671  24.463  38.461   9.464
 2246POPC   PO430672  24.535  38.427   9.164
 2246POPC   GL130673  24.479  38.422   8.864
 2246POPC   GL230674  24.409  38.408   8.864
 2246POPC   C1A30675  24.528  38.500   8.564
 2246POPC   D2A30676  24.487  38.417   8.264
 2246POPC   C3A30677  24.528  38.423   7.964
 2246POPC   C4A30678  24.470  38.474   7.664
 2246POPC   C1B30679  24.259  38.361   8.564
 2246POPC   C2B30680  24.299  38.339   8.264
 2246POPC   C3B30681  24.253  38.299   7.964
 2246POPC   C4B30682  24.305  38.331   7.664
 2247POPC   NC330683   1.960  27.595   9.464
 2247POPC   PO430684   1.950  27.556   9.164
 2247POPC   GL130685   2.007  27.614   8.864
 2247POPC   GL230686   1.935  27.673   8.864
 2247POPC   C1A30687   2.027  27.559   8.564
 2247POPC   D2A30688   1.952  27.601   8.264
 2247POPC   C3A30689   1.951  27.559   7.964
 2247POPC   C4A30690   1.996  27.583   7.664
 2247POPC   C1B30691   1.876  27.774   8.564
 2247POPC   C2B30692   1.848  27.734   8.264
 2247POPC   C3B30693   1.822  27.735   7.964
 2247POPC   C4B30694   1.811  27.834   7.664
 2248POPC   NC330695  20.610  33.804   9.464
 2248POPC   PO430696  20.580  33.785   9.164
 2248POPC   GL130697  20.591  33.808   8.864
 2248POPC   GL230698  20.454  33.860   8.864
 2248POPC   C1A30699  20.640  33.846   8.564
 2248POPC   D2A30700  20.642  33.762   8.264
 2248POPC   C3A30701  20.563  33.808   7.964
 2248POPC   C4A30702  20.561  33.774   7.664
 2248POPC   C1B30703  20.370  33.853   8.564
 2248POPC   C2B30704  20.369  33.860   8.264
 2248POPC   C3B30705  20.369  33.870   7.964
 2248POPC   C4B30706  20.365  33.876   7.664
 2249POPC   NC330707   9.716  27.590   9.464
 2249POPC   PO430708   9.723  27.578   9.164
 2249POPC   GL130709   9.766  27.604   8.864
 2249POPC   GL230710   9.877  27.719   8.864
 2249POPC   C1A30711   9.790  27.569   8.564
 2249POPC   D2A30712   9.747  27.617   8.264
 2249POPC   C3A30713   9.724  27.612   7.964
 2249POPC   C4A30714   9.740  27.546   7.664
 2249POPC   C1B30715   9.931  27.720   8.564
 2249POPC   C2B30716   9.971  27.715   8.264
 2249POPC   C3B30717   9.993  27.776   7.964
 2249POPC   C4B30718   9.964  27.785   7.664
 2250POPC   NC330719   2.755   2.039   9.464
 2250POPC   PO430720   2.759   1.973   9.164
 2250POPC   GL130721   2.719   2.027   8.864
 2250POPC   GL230722   2.742   1.886   8.864
 2250POPC   C1A30723   2.754   1.955   8.564
 2250POPC   D2A30724   2.740   1.962   8.264
 2250POPC   C3A30725   2.756   1.968   7.964
 2250POPC   C4A30726   2.719   2.006   7.664
 2250POPC   C1B30727   2.734   1.772   8.564
 2250POPC   C2B30728   2.705   1.767   8.264
 2250POPC   C3B30729   2.681   1.792   7.964
 2250POPC   C4B30730   2.703   1.717   7.664
 2251POPC   NC330731  29.960  10.484   9.464
 2251POPC   PO430732  29.894  10.512   9.164
 2251POPC   GL130733  29.880  10.476   8.864
 2251POPC   GL230734  30.013  10.633   8.864
 2251POPC   C1A30735  29.970  10.482   8.564
 2251POPC   D2A30736  29.877  10.497   8.264
 2251POPC   C3A30737  29.963  10.558   7.964
 2251POPC   C4A30738  29.965  10.496   7.664
 2251POPC   C1B30739  30.045  10.730   8.564
 2251POPC   C2B30740  30.058  10.743   8.264
 2251POPC   C3B30741  30.009  10.754   7.964
 2251POPC   C4B30742  30.025  10.708   7.664
 2252POPC   NC330743   5.133  44.652   9.464
 2252POPC   PO430744   5.067  44.647   9.164
 2252POPC   GL130745   5.125  44.622   8.864
 2252POPC   GL230746   4.974  44.655   8.864
 2252POPC   C1A30747   5.111  44.658   8.564
 2252POPC   D2A30748   5.114  44.672   8.264
 2252POPC   C3A30749   5.138  44.696   7.964
 2252POPC   C4A30750   5.139  44.634   7.664
 2252POPC   C1B30751   4.832  44.546   8.564
 2252POPC   C2B30752   4.874  44.594   8.264
 2252POPC   C3B30753   4.831  44.578   7.964
 2252POPC   C4B30754   4.837  44.608   7.664
 2253POPC   NC330755  22.147   4.322   9.464
 2253POPC   PO430756  22.146   4.281   9.164
 2253POPC   GL130757  22.166   4.309   8.864
 2253POPC   GL230758  22.019   4.284   8.864
 2253POPC   C1A30759  22.114   4.367   8.564
 2253POPC   D2A30760  22.186   4.277   8.264
 2253POPC   C3A30761  22.152   4.346   7.964
 2253POPC   C4A30762  22.150   4.293   7.664
 2253POPC   C1B30763  21.970   4.234   8.564
 2253POPC   C2B30764  21.948   4.149   8.264
 2253POPC   C3B30765  21.921   4.208   7.964
 2253POPC   C4B30766  21.902   4.159   7.664
 2254POPC   NC330767  32.292  19.093   9.464
 2254POPC   PO430768  32.269  19.063   9.164
 2254POPC   GL130769  32.287  19.016   8.864
 2254POPC   GL230770  32.365  19.013   8.864
 2254POPC   C1A30771  32.199  19.009   8.564
 2254POPC   D2A30772  32.255  19.083   8.264
 2254POPC   C3A30773  32.284  19.080   7.964
 2254POPC   C4A30774  32.268  19.011   7.664
 2254POPC   C1B30775  32.451  19.018   8.564
 2254POPC   C2B30776  32.454  19.017   8.264
 2254POPC   C3B30777  32.465  18.963   7.964
 2254POPC   C4B30778  32.514  19.041   7.664
 2255POPC   NC330779  44.690  12.115   9.464
 2255POPC   PO430780  44.697  12.054   9.164
 2255POPC   GL130781  44.649  12.111   8.864
 2255POPC   GL230782  44.658  11.955   8.864
 2255POPC   C1A30783  44.630  12.029   8.564
 2255POPC   D2A30784  44.679  12.068   8.264
 2255POPC   C3A30785  44.711  12.029   7.964
 2255POPC   C4A30786  44.680  12.080   7.664
 2255POPC   C1B30787  44.585  11.786   8.564
 2255POPC   C2B30788  44.561  11.813   8.264
 2255POPC   C3B30789  44.608  11.843   7.964
 2255POPC   C4B30790  44.549  11.790   7.664
 2256POPC   NC330791  15.215  18.280   9.464
 2256POPC   PO430792  15.176  18.280   9.164
 2256POPC   GL130793  15.162  18.235   8.864
 2256POPC   GL230794  15.271  18.289   8.864
 2256POPC   C1A30795  15.196  18.240   8.564
 2256POPC   D2A30796  15.225  18.272   8.264
 2256POPC   C3A30797  15.183  18.261   7.964
 2256POPC   C4A30798  15.141  18.259   7.664
 2256POPC   C1B30799  15.467  18.293   8.564
 2256POPC   C2B30800  15.444  18.290   8.264
 2256POPC   C3B30801  15.385  18.250   7.964
 2256POPC   C4B30802  15.445  18.305   7.664
 2257POPC   NC330803  16.693  39.220   9.464
 2257POPC   PO430804  16.721  39.209   9.164
 2257POPC   GL130805  16.746  39.272   8.864
 2257POPC   GL230806  16.733  39.347   8.864
 2257POPC   C1A30807  16.775  39.186   8.564
 2257POPC   D2A30808  16.743  39.193   8.264
 2257POPC   C3A30809  16.749  39.266   7.964
 2257POPC   C4A30810  16.692  39.207   7.664
 2257POPC   C1B30811  16.675  39.500   8.564
 2257POPC   C2B30812  16.721  39.524   8.264
 2257POPC   C3B30813  16.740  39.496   7.964
 2257POPC   C4B30814  16.649  39.485   7.664
 2258POPC   NC330815   0.474  14.421   9.464
 2258POPC   PO430816   0.389  14.426   9.164
 2258POPC   GL130817   0.455  14.453   8.864
 2258POPC   GL230818   0.296  14.421   8.864
 2258POPC   C1A30819   0.448  14.431   8.564
 2258POPC   D2A30820   0.434  14.356   8.264
 2258POPC   C3A30821   0.442  14.442   7.964
 2258POPC   C4A30822   0.417  14.391   7.664
 2258POPC   C1B30823   0.235  14.520   8.564
 2258POPC   C2B30824   0.206  14.451   8.264
 2258POPC   C3B30825   0.230  14.529   7.964
 2258POPC   C4B30826   0.208  14.455   7.664
 2259POPC   NC330827  28.416   7.416   9.464
 2259POPC   PO430828  28.321   7.397   9.164
 2259POPC   GL130829  28.407   7.442   8.864
 2259POPC   GL230830  28.251   7.347   8.864
 2259POPC   C1A30831  28.360   7.401   8.564
 2259POPC   D2A30832  28.417   7.380   8.264
 2259POPC   C3A30833  28.323   7.458   7.964
 2259POPC   C4A30834  28.354   7.395   7.664
 2259POPC   C1B30835  28.103   7.360   8.564
 2259POPC   C2B30836  28.132   7.362   8.264
 2259POPC   C3B30837  28.123   7.309   7.964
 2259POPC   C4B30838  28.137   7.328   7.664
 2260POPC   NC330839  36.906  34.527   9.464
 2260POPC   PO430840  36.920  34.612   9.164
 2260POPC   GL130841  36.897  34.579   8.864
 2260POPC   GL230842  37.038  34.622   8.864
 2260POPC   C1A30843  36.896  34.588   8.564
 2260POPC   D2A30844  36.927  34.558   8.264
 2260POPC   C3A30845  36.948  34.624   7.964
 2260POPC   C4A30846  36.913  34.544   7.664
 2260POPC   C1B30847  37.137  34.645   8.564
 2260POPC   C2B30848  37.194  34.651   8.264
 2260POPC   C3B30849  37.191  34.668   7.964
 2260POPC   C4B30850  37.160  34.601   7.664
 2261POPC   NC330851   5.103   3.549   9.464
 2261POPC   PO430852   5.063   3.588   9.164
 2261POPC   GL130853   5.141   3.514   8.864
 2261POPC   GL230854   5.035   3.489   8.864
 2261POPC   C1A30855   5.064   3.525   8.564
 2261POPC   D2A30856   5.063   3.535   8.264
 2261POPC   C3A30857   5.096   3.552   7.964
 2261POPC   C4A30858   5.132   3.513   7.664
 2261POPC   C1B30859   4.962   3.317   8.564
 2261POPC   C2B30860   4.914   3.369   8.264
 2261POPC   C3B30861   4.988   3.377   7.964
 2261POPC   C4B30862   4.917   3.307   7.664
 2262POPC   NC330863  21.353  22.119   9.464
 2262POPC   PO430864  21.338  22.129   9.164
 2262POPC   GL130865  21.435  22.204   8.864
 2262POPC   GL230866  21.333  22.289   8.864
 2262POPC   C1A30867  21.351  22.210   8.564
 2262POPC   D2A30868  21.409  22.117   8.264
 2262POPC   C3A30869  21.370  22.129   7.964
 2262POPC   C4A30870  21.432  22.129   7.664
 2262POPC   C1B30871  21.290  22.433   8.564
 2262POPC   C2B30872  21.337  22.386   8.264
 2262POPC   C3B30873  21.370  22.373   7.964
 2262POPC   C4B30874  21.371  22.413   7.664
 2263POPC   NC330875   2.750  28.370   9.464
 2263POPC   PO430876   2.735  28.391   9.164
 2263POPC   GL130877   2.781  28.405   8.864
 2263POPC   GL230878   2.814  28.522   8.864
 2263POPC   C1A30879   2.791  28.365   8.564
 2263POPC   D2A30880   2.813  28.380   8.264
 2263POPC   C3A30881   2.794  28.347   7.964
 2263POPC   C4A30882   2.755  28.406   7.664
 2263POPC   C1B30883   2.805  28.592   8.564
 2263POPC   C2B30884   2.776  28.599   8.264
 2263POPC   C3B30885   2.822  28.668   7.964
 2263POPC   C4B30886   2.803  28.587   7.664
 2264POPC   NC330887  38.495  19.010   9.464
 2264POPC   PO430888  38.504  19.033   9.164
 2264POPC   GL130889  38.482  19.039   8.864
 2264POPC   GL230890  38.483  18.932   8.864
 2264POPC   C1A30891  38.452  19.043   8.564
 2264POPC   D2A30892  38.425  19.057   8.264
 2264POPC   C3A30893  38.420  19.095   7.964
 2264POPC   C4A30894  38.487  19.017   7.664
 2264POPC   C1B30895  38.466  18.789   8.564
 2264POPC   C2B30896  38.438  18.781   8.264
 2264POPC   C3B30897  38.396  18.855   7.964
 2264POPC   C4B30898  38.376  18.827   7.664
 2265POPC   NC330899   8.924  39.228   9.464
 2265POPC   PO430900   8.961  39.268   9.164
 2265POPC   GL130901   8.967  39.242   8.864
 2265POPC   GL230902   9.137  39.236   8.864
 2265POPC   C1A30903   8.931  39.221   8.564
 2265POPC   D2A30904   9.010  39.206   8.264
 2265POPC   C3A30905   8.931  39.241   7.964
 2265POPC   C4A30906   8.938  39.267   7.664
 2265POPC   C1B30907   9.238  39.222   8.564
 2265POPC   C2B30908   9.182  39.222   8.264
 2265POPC   C3B30909   9.257  39.253   7.964
 2265POPC   C4B30910   9.179  39.292   7.664
 2266POPC   NC330911   9.765  40.798   9.464
 2266POPC   PO430912   9.740  40.745   9.164
 2266POPC   GL130913   9.733  40.801   8.864
 2266POPC   GL230914   9.900  40.822   8.864
 2266POPC   C1A30915   9.783  40.739   8.564
 2266POPC   D2A30916   9.789  40.742   8.264
 2266POPC   C3A30917   9.712  40.782   7.964
 2266POPC   C4A30918   9.727  40.773   7.664
 2266POPC   C1B30919   9.939  40.966   8.564
 2266POPC   C2B30920   9.971  40.940   8.264
 2266POPC   C3B30921   9.916  40.890   7.964
 2266POPC   C4B30922   9.919  40.893   7.664
 2267POPC   NC330923   2.797  24.481   9.464
 2267POPC   PO430924   2.773  24.476   9.164
 2267POPC   GL130925   2.786  24.516   8.864
 2267POPC   GL230926   2.817  24.365   8.864
 2267POPC   C1A30927   2.732  24.494   8.564
 2267POPC   D2A30928   2.718  24.504   8.264
 2267POPC   C3A30929   2.770  24.493   7.964
 2267POPC   C4A30930   2.730  24.488   7.664
 2267POPC   C1B30931   2.924  24.296   8.564
 2267POPC   C2B30932   2.914  24.291   8.264
 2267POPC   C3B30933   2.893  24.251   7.964
 2267POPC   C4B30934   2.880  24.266   7.664
 2268POPC   NC330935  38.440  28.324   9.464
 2268POPC   PO430936  38.459  28.402   9.164
 2268POPC   GL130937  38.438  28.371   8.864
 2268POPC   GL230938  38.287  28.378   8.864
 2268POPC   C1A30939  38.418  28.320   8.564
 2268POPC   D2A30940  38.493  28.367   8.264
 2268POPC   C3A30941  38.461  28.322   7.964
 2268POPC   C4A30942  38.421  28.368   7.664
 2268POPC   C1B30943  38.210  28.273   8.564
 2268POPC   C2B30944  38.262  28.271   8.264
 2268POPC   C3B30945  38.205  28.254   7.964
 2268POPC   C4B30946  38.259  28.313   7.664
 2269POPC   NC330947  29.145  19.879   9.464
 2269POPC   PO430948  29.128  19.821   9.164
 2269POPC   GL130949  29.141  19.825   8.864
 2269POPC   GL230950  29.144  19.972   8.864
 2269POPC   C1A30951  29.110  19.786   8.564
 2269POPC   D2A30952  29.149  19.808   8.264
 2269POPC   C3A30953  29.149  19.863   7.964
 2269POPC   C4A30954  29.128  19.842   7.664
 2269POPC   C1B30955  29.268  20.033   8.564
 2269POPC   C2B30956  29.196  20.034   8.264
 2269POPC   C3B30957  29.227  20.098   7.964
 2269POPC   C4B30958  29.207  20.024   7.664
 2270POPC   NC330959  11.322  20.660   9.464
 2270POPC   PO430960  11.297  20.571   9.164
 2270POPC   GL130961  11.318  20.588   8.864
 2270POPC   GL230962  11.445  20.504   8.864
 2270POPC   C1A30963  11.265  20.597   8.564
 2270POPC   D2A30964  11.331  20.610   8.264
 2270POPC   C3A30965  11.338  20.616   7.964
 2270POPC   C4A30966  11.264  20.582   7.664
 2270POPC   C1B30967  11.543  20.451   8.564
 2270POPC   C2B30968  11.559  20.463   8.264
 2270POPC   C3B30969  11.509  20.487   7.964
 2270POPC   C4B30970  11.535  20.500   7.664
 2271POPC   NC330971   8.186  33.806   9.464
 2271POPC   PO430972   8.239  33.765   9.164
 2271POPC   GL130973   8.209  33.824   8.864
 2271POPC   GL230974   8.260  33.876   8.864
 2271POPC   C1A30975   8.147  33.764   8.564
 2271POPC   D2A30976   8.188  33.811   8.264
 2271POPC   C3A30977   8.149  33.781   7.964
 2271POPC   C4A30978   8.216  33.830   7.664
 2271POPC   C1B30979   8.397  33.935   8.564
 2271POPC   C2B30980   8.400  33.965   8.264
 2271POPC   C3B30981   8.444  33.985   7.964
 2271POPC   C4B30982   8.369  33.953   7.664
 2272POPC   NC330983  29.881   7.411   9.464
 2272POPC   PO430984  29.927   7.410   9.164
 2272POPC   GL130985  29.890   7.427   8.864
 2272POPC   GL230986  30.033   7.369   8.864
 2272POPC   C1A30987  29.932   7.379   8.564
 2272POPC   D2A30988  29.919   7.438   8.264
 2272POPC   C3A30989  29.917   7.463   7.964
 2272POPC   C4A30990  29.939   7.446   7.664
 2272POPC   C1B30991  30.081   7.214   8.564
 2272POPC   C2B30992  30.068   7.192   8.264
 2272POPC   C3B30993  30.074   7.240   7.964
 2272POPC   C4B30994  30.069   7.266   7.664
 2273POPC   NC330995   5.820  21.377   9.464
 2273POPC   PO430996   5.912  21.425   9.164
 2273POPC   GL130997   5.851  21.394   8.864
 2273POPC   GL230998   5.750  21.427   8.864
 2273POPC   C1A30999   5.823  21.353   8.564
 2273POPC   D2A31000   5.889  21.429   8.264
 2273POPC   C3A31001   5.917  21.350   7.964
 2273POPC   C4A31002   5.852  21.407   7.664
 2273POPC   C1B31003   5.646  21.528   8.564
 2273POPC   C2B31004   5.631  21.506   8.264
 2273POPC   C3B31005   5.659  21.499   7.964
 2273POPC   C4B31006   5.662  21.581   7.664
 2274POPC   NC331007  40.022   1.165   9.464
 2274POPC   PO431008  40.011   1.258   9.164
 2274POPC   GL131009  39.989   1.169   8.864
 2274POPC   GL231010  40.071   1.065   8.864
 2274POPC   C1A31011  40.048   1.170   8.564
 2274POPC   D2A31012  40.045   1.262   8.264
 2274POPC   C3A31013  39.961   1.186   7.964
 2274POPC   C4A31014  40.003   1.172   7.664
 2274POPC   C1B31015  40.173   1.042   8.564
 2274POPC   C2B31016  40.157   0.970   8.264
 2274POPC   C3B31017  40.089   0.970   7.964
 2274POPC   C4B31018  40.175   1.035   7.664
 2275POPC   NC331019  17.516  14.377   9.464
 2275POPC   PO431020  17.518  14.407   9.164
 2275POPC   GL131021  17.544  14.443   8.864
 2275POPC   GL231022  17.647  14.387   8.864
 2275POPC   C1A31023  17.489  14.390   8.564
 2275POPC   D2A31024  17.466  14.362   8.264
 2275POPC   C3A31025  17.529  14.365   7.964
 2275POPC   C4A31026  17.485  14.383   7.664
 2275POPC   C1B31027  17.732  14.491   8.564
 2275POPC   C2B31028  17.762  14.501   8.264
 2275POPC   C3B31029  17.707  14.459   7.964
 2275POPC   C4B31030  17.763  14.478   7.664
 2276POPC   NC331031  31.484  44.653   9.464
 2276POPC   PO431032  31.501  44.617   9.164
 2276POPC   GL131033  31.466  44.698   8.864
 2276POPC   GL231034  31.415  44.829   8.864
 2276POPC   C1A31035  31.466  44.707   8.564
 2276POPC   D2A31036  31.437  44.654   8.264
 2276POPC   C3A31037  31.486  44.638   7.964
 2276POPC   C4A31038  31.449  44.634   7.664
 2276POPC   C1B31039  31.360  44.925   8.564
 2276POPC   C2B31040  31.368  44.868   8.264
 2276POPC   C3B31041  31.423  44.853   7.964
 2276POPC   C4B31042  31.347  44.947   7.664
 2277POPC   NC331043  31.520  19.010   9.464
 2277POPC   PO431044  31.423  19.073   9.164
 2277POPC   GL131045  31.430  19.055   8.864
 2277POPC   GL231046  31.381  19.131   8.864
 2277POPC   C1A31047  31.522  19.037   8.564
 2277POPC   D2A31048  31.507  19.089   8.264
 2277POPC   C3A31049  31.516  19.050   7.964
 2277POPC   C4A31050  31.494  19.077   7.664
 2277POPC   C1B31051  31.280  19.166   8.564
 2277POPC   C2B31052  31.227  19.130   8.264
 2277POPC   C3B31053  31.226  19.150   7.964
 2277POPC   C4B31054  31.257  19.202   7.664
 2278POPC   NC331055  33.843  23.673   9.464
 2278POPC   PO431056  33.847  23.744   9.164
 2278POPC   GL131057  33.843  23.711   8.864
 2278POPC   GL231058  33.657  23.701   8.864
 2278POPC   C1A31059  33.827  23.668   8.564
 2278POPC   D2A31060  33.782  23.683   8.264
 2278POPC   C3A31061  33.832  23.687   7.964
 2278POPC   C4A31062  33.805  23.697   7.664
 2278POPC   C1B31063  33.574  23.588   8.564
 2278POPC   C2B31064  33.539  23.554   8.264
 2278POPC   C3B31065  33.614  23.613   7.964
 2278POPC   C4B31066  33.575  23.612   7.664
 2279POPC   NC331067  17.523   0.457   9.464
 2279POPC   PO431068  17.542   0.407   9.164
 2279POPC   GL131069  17.485   0.463   8.864
 2279POPC   GL231070  17.527   0.320   8.864
 2279POPC   C1A31071  17.520   0.454   8.564
 2279POPC   D2A31072  17.538   0.435   8.264
 2279POPC   C3A31073  17.508   0.396   7.964
 2279POPC   C4A31074  17.471   0.480   7.664
 2279POPC   C1B31075  17.630   0.249   8.564
 2279POPC   C2B31076  17.609   0.158   8.264
 2279POPC   C3B31077  17.628   0.230   7.964
 2279POPC   C4B31078  17.570   0.152   7.664
 2280POPC   NC331079   5.111   7.418   9.464
 2280POPC   PO431080   5.088   7.443   9.164
 2280POPC   GL131081   5.088   7.436   8.864
 2280POPC   GL231082   5.127   7.525   8.864
 2280POPC   C1A31083   5.098   7.394   8.564
 2280POPC   D2A31084   5.068   7.436   8.264
 2280POPC   C3A31085   5.058   7.460   7.964
 2280POPC   C4A31086   5.133   7.381   7.664
 2280POPC   C1B31087   5.238   7.634   8.564
 2280POPC   C2B31088   5.234   7.610   8.264
 2280POPC   C3B31089   5.238   7.578   7.964
 2280POPC   C4B31090   5.188   7.653   7.664
 2281POPC   NC331091  35.323  22.904   9.464
 2281POPC   PO431092  35.365  22.926   9.164
 2281POPC   GL131093  35.341  22.912   8.864
 2281POPC   GL231094  35.473  22.962   8.864
 2281POPC   C1A31095  35.345  22.900   8.564
 2281POPC   D2A31096  35.342  22.901   8.264
 2281POPC   C3A31097  35.380  22.970   7.964
 2281POPC   C4A31098  35.378  22.928   7.664
 2281POPC   C1B31099  35.585  22.973   8.564
 2281POPC   C2B31100  35.619  22.975   8.264
 2281POPC   C3B31101  35.633  22.920   7.964
 2281POPC   C4B31102  35.623  22.956   7.664
 2282POPC   NC331103  41.564   7.436   9.464
 2282POPC   PO431104  41.510   7.390   9.164
 2282POPC   GL131105  41.558   7.456   8.864
 2282POPC   GL231106  41.604   7.529   8.864
 2282POPC   C1A31107  41.530   7.374   8.564
 2282POPC   D2A31108  41.602   7.455   8.264
 2282POPC   C3A31109  41.586   7.426   7.964
 2282POPC   C4A31110  41.547   7.438   7.664
 2282POPC   C1B31111  41.736   7.613   8.564
 2282POPC   C2B31112  41.777   7.559   8.264
 2282POPC   C3B31113  41.686   7.649   7.964
 2282POPC   C4B31114  41.719   7.581   7.664
 2283POPC   NC331115  30.676   6.608   9.464
 2283POPC   PO431116  30.735   6.643   9.164
 2283POPC   GL131117  30.700   6.599   8.864
 2283POPC   GL231118  30.577   6.675   8.864
 2283POPC   C1A31119  30.745   6.691   8.564
 2283POPC   D2A31120  30.710   6.644   8.264
 2283POPC   C3A31121  30.704   6.597   7.964
 2283POPC   C4A31122  30.737   6.665   7.664
 2283POPC   C1B31123  30.477   6.656   8.564
 2283POPC   C2B31124  30.472   6.633   8.264
 2283POPC   C3B31125  30.442   6.596   7.964
 2283POPC   C4B31126  30.486   6.578   7.664
 2284POPC   NC331127   9.725  15.205   9.464
 2284POPC   PO431128   9.741  15.205   9.164
 2284POPC   GL131129   9.770  15.210   8.864
 2284POPC   GL231130   9.768  15.300   8.864
 2284POPC   C1A31131   9.750  15.153   8.564
 2284POPC   D2A31132   9.713  15.137   8.264
 2284POPC   C3A31133   9.750  15.133   7.964
 2284POPC   C4A31134   9.702  15.177   7.664
 2284POPC   C1B31135   9.878  15.411   8.564
 2284POPC   C2B31136   9.891  15.380   8.264
 2284POPC   C3B31137   9.877  15.397   7.964
 2284POPC   C4B31138   9.842  15.393   7.664
 2285POPC   NC331139   2.033  41.598   9.464
 2285POPC   PO431140   1.965  41.573   9.164
 2285POPC   GL131141   2.024  41.527   8.864
 2285POPC   GL231142   1.883  41.495   8.864
 2285POPC   C1A31143   1.956  41.604   8.564
 2285POPC   D2A31144   2.034  41.543   8.264
 2285POPC   C3A31145   1.986  41.538   7.964
 2285POPC   C4A31146   1.973  41.530   7.664
 2285POPC   C1B31147   1.715  41.453   8.564
 2285POPC   C2B31148   1.758  41.472   8.264
 2285POPC   C3B31149   1.795  41.495   7.964
 2285POPC   C4B31150   1.742  41.522   7.664
 2286POPC   NC331151  22.195  17.461   9.464
 2286POPC   PO431152  22.125  17.549   9.164
 2286POPC   GL131153  22.171  17.550   8.864
 2286POPC   GL231154  22.100  17.606   8.864
 2286POPC   C1A31155  22.130  17.488   8.564
 2286POPC   D2A31156  22.169  17.515   8.264
 2286POPC   C3A31157  22.165  17.523   7.964
 2286POPC   C4A31158  22.200  17.508   7.664
 2286POPC   C1B31159  21.930  17.657   8.564
 2286POPC   C2B31160  21.964  17.635   8.264
 2286POPC   C3B31161  21.983  17.700   7.964
 2286POPC   C4B31162  21.943  17.647   7.664
 2287POPC   NC331163  39.966   8.225   9.464
 2287POPC   PO431164  40.029   8.163   9.164
 2287POPC   GL131165  40.005   8.156   8.864
 2287POPC   GL231166  40.110   8.245   8.864
 2287POPC   C1A31167  40.039   8.224   8.564
 2287POPC   D2A31168  40.028   8.236   8.264
 2287POPC   C3A31169  39.962   8.189   7.964
 2287POPC   C4A31170  39.983   8.161   7.664
 2287POPC   C1B31171  40.267   8.213   8.564
 2287POPC   C2B31172  40.238   8.204   8.264
 2287POPC   C3B31173  40.296   8.224   7.964
 2287POPC   C4B31174  40.258   8.259   7.664
 2288POPC   NC331175  10.492  29.903   9.464
 2288POPC   PO431176  10.515  29.880   9.164
 2288POPC   GL131177  10.526  29.871   8.864
 2288POPC   GL231178  10.387  29.978   8.864
 2288POPC   C1A31179  10.514  29.970   8.564
 2288POPC   D2A31180  10.567  29.930   8.264
 2288POPC   C3A31181  10.516  29.964   7.964
 2288POPC   C4A31182  10.524  29.939   7.664
 2288POPC   C1B31183  10.297  30.081   8.564
 2288POPC   C2B31184  10.312  30.071   8.264
 2288POPC   C3B31185  10.316  30.047   7.964
 2288POPC   C4B31186  10.290  30.015   7.664
 2289POPC   NC331187  44.693   0.447   9.464
 2289POPC   PO431188  44.680   0.482   9.164
 2289POPC   GL131189  44.626   0.435   8.864
 2289POPC   GL231190  44.754   0.430   8.864
 2289POPC   C1A31191  44.704   0.449   8.564
 2289POPC   D2A31192  44.694   0.409   8.264
 2289POPC   C3A31193  44.653   0.398   7.964
 2289POPC   C4A31194  44.707   0.470   7.664
 2289POPC   C1B31195  44.940   0.463   8.564
 2289POPC   C2B31196  44.920   0.445   8.264
 2289POPC   C3B31197  44.871   0.452   7.964
 2289POPC   C4B31198  44.920   0.395   7.664
 2290POPC   NC331199   8.239   7.445   9.464
 2290POPC   PO431200   8.183   7.380   9.164
 2290POPC   GL131201   8.197   7.440   8.864
 2290POPC   GL231202   8.275   7.284   8.864
 2290POPC   C1A31203   8.160   7.384   8.564
 2290POPC   D2A31204   8.212   7.401   8.264
 2290POPC   C3A31205   8.190   7.436   7.964
 2290POPC   C4A31206   8.238   7.456   7.664
 2290POPC   C1B31207   8.281   7.204   8.564
 2290POPC   C2B31208   8.278   7.208   8.264
 2290POPC   C3B31209   8.272   7.156   7.964
 2290POPC   C4B31210   8.305   7.193   7.664
 2291POPC   NC331211  35.370  12.058   9.464
 2291POPC   PO431212  35.361  12.120   9.164
 2291POPC   GL131213  35.389  12.083   8.864
 2291POPC   GL231214  35.404  12.194   8.864
 2291POPC   C1A31215  35.306  12.053   8.564
 2291POPC   D2A31216  35.362  12.029   8.264
 2291POPC   C3A31217  35.373  12.034   7.964
 2291POPC   C4A31218  35.306  12.069   7.664
 2291POPC   C1B31219  35.375  12.346   8.564
 2291POPC   C2B31220  35.435  12.325   8.264
 2291POPC   C3B31221  35.375  12.356   7.964
 2291POPC   C4B31222  35.411  12.310   7.664
 2292POPC   NC331223  29.935  26.061   9.464
 2292POPC   PO431224  29.913  26.077   9.164
 2292POPC   GL131225  29.884  26.019   8.864
 2292POPC   GL231226  29.825  26.050   8.864
 2292POPC   C1A31227  29.953  26.084   8.564
 2292POPC   D2A31228  29.906  26.029   8.264
 2292POPC   C3A31229  29.959  26.052   7.964
 2292POPC   C4A31230  29.882  26.057   7.664
 2292POPC   C1B31231  29.695  26.031   8.564
 2292POPC   C2B31232  29.623  26.079   8.264
 2292POPC   C3B31233  29.703  26.106   7.964
 2292POPC   C4B31234  29.672  26.027   7.664
 2293POPC   NC331235  19.097  29.118   9.464
 2293POPC   PO431236  19.028  29.150   9.164
 2293POPC   GL131237  19.078  29.129   8.864
 2293POPC   GL231238  19.173  29.015   8.864
 2293POPC   C1A31239  19.018  29.145   8.564
 2293POPC   D2A31240  19.044  29.097   8.264
 2293POPC   C3A31241  19.071  29.151   7.964
 2293POPC   C4A31242  19.032  29.193   7.664
 2293POPC   C1B31243  19.277  28.973   8.564
 2293POPC   C2B31244  19.225  28.986   8.264
 2293POPC   C3B31245  19.212  28.996   7.964
 2293POPC   C4B31246  19.253  28.985   7.664
 2294POPC   NC331247   5.114  29.939   9.464
 2294POPC   PO431248   5.049  29.928   9.164
 2294POPC   GL131249   5.066  29.955   8.864
 2294POPC   GL231250   5.174  29.967   8.864
 2294POPC   C1A31251   5.065  29.962   8.564
 2294POPC   D2A31252   5.067  29.894   8.264
 2294POPC   C3A31253   5.047  29.880   7.964
 2294POPC   C4A31254   5.100  29.964   7.664
 2294POPC   C1B31255   5.332  30.100   8.564
 2294POPC   C2B31256   5.313  30.049   8.264
 2294POPC   C3B31257   5.261  30.080   7.964
 2294POPC   C4B31258   5.289  30.059   7.664
 2295POPC   NC331259  37.673  42.295   9.464
 2295POPC   PO431260  37.698  42.366   9.164
 2295POPC   GL131261  37.659  42.371   8.864
 2295POPC   GL231262  37.761  42.315   8.864
 2295POPC   C1A31263  37.648  42.367   8.564
 2295POPC   D2A31264  37.644  42.369   8.264
 2295POPC   C3A31265  37.686  42.346   7.964
 2295POPC   C4A31266  37.652  42.338   7.664
 2295POPC   C1B31267  37.932  42.319   8.564
 2295POPC   C2B31268  37.964  42.372   8.264
 2295POPC   C3B31269  37.879  42.386   7.964
 2295POPC   C4B31270  37.912  42.400   7.664
 2296POPC   NC331271  26.089  39.212   9.464
 2296POPC   PO431272  26.027  39.273   9.164
 2296POPC   GL131273  26.016  39.187   8.864
 2296POPC   GL231274  25.986  39.310   8.864
 2296POPC   C1A31275  26.074  39.195   8.564
 2296POPC   D2A31276  26.047  39.196   8.264
 2296POPC   C3A31277  26.025  39.222   7.964
 2296POPC   C4A31278  26.058  39.186   7.664
 2296POPC   C1B31279  25.878  39.414   8.564
 2296POPC   C2B31280  25.952  39.479   8.264
 2296POPC   C3B31281  25.898  39.490   7.964
 2296POPC   C4B31282  25.866  39.478   7.664
 2297POPC   NC331283  18.258  40.000   9.464
 2297POPC   PO431284  18.308  39.958   9.164
 2297POPC   GL131285  18.238  39.978   8.864
 2297POPC   GL231286  18.242  40.158   8.864
 2297POPC   C1A31287  18.274  39.961   8.564
 2297POPC   D2A31288  18.291  39.997   8.264
 2297POPC   C3A31289  18.309  40.052   7.964
 2297POPC   C4A31290  18.322  40.052   7.664
 2297POPC   C1B31291  18.291  40.213   8.564
 2297POPC   C2B31292  18.314  40.251   8.264
 2297POPC   C3B31293  18.222  40.231   7.964
 2297POPC   C4B31294  18.314  40.212   7.664
 2298POPC   NC331295  29.898  13.607   9.464
 2298POPC   PO431296  29.961  13.662   9.164
 2298POPC   GL131297  29.935  13.578   8.864
 2298POPC   GL231298  29.976  13.718   8.864
 2298POPC   C1A31299  29.936  13.588   8.564
 2298POPC   D2A31300  29.913  13.651   8.264
 2298POPC   C3A31301  29.963  13.623   7.964
 2298POPC   C4A31302  29.955  13.677   7.664
 2298POPC   C1B31303  29.954  13.857   8.564
 2298POPC   C2B31304  29.991  13.866   8.264
 2298POPC   C3B31305  29.971  13.869   7.964
 2298POPC   C4B31306  29.940  13.866   7.664
 2299POPC   NC331307  12.874  38.475   9.464
 2299POPC   PO431308  12.887  38.434   9.164
 2299POPC   GL131309  12.892  38.435   8.864
 2299POPC   GL231310  12.913  38.606   8.864
 2299POPC   C1A31311  12.826  38.492   8.564
 2299POPC   D2A31312  12.810  38.440   8.264
 2299POPC   C3A31313  12.847  38.486   7.964
 2299POPC   C4A31314  12.896  38.431   7.664
 2299POPC   C1B31315  12.925  38.703   8.564
 2299POPC   C2B31316  12.958  38.732   8.264
 2299POPC   C3B31317  12.900  38.711   7.964
 2299POPC   C4B31318  12.952  38.729   7.664
 2300POPC   NC331319   8.962  19.083   9.464
 2300POPC   PO431320   8.994  19.024   9.164
 2300POPC   GL131321   8.965  19.043   8.864
 2300POPC   GL231322   8.872  19.040   8.864
 2300POPC   C1A31323   8.955  19.095   8.564
 2300POPC   D2A31324   8.998  19.086   8.264
 2300POPC   C3A31325   8.944  19.014   7.964
 2300POPC   C4A31326   8.952  19.016   7.664
 2300POPC   C1B31327   8.768  19.002   8.564
 2300POPC   C2B31328   8.773  18.942   8.264
 2300POPC   C3B31329   8.734  19.014   7.964
 2300POPC   C4B31330   8.684  19.026   7.664
 2301POPC   NC331331  43.159   6.637   9.464
 2301POPC   PO431332  43.158   6.673   9.164
 2301POPC   GL131333  43.114   6.683   8.864
 2301POPC   GL231334  43.021   6.746   8.864
 2301POPC   C1A31335  43.067   6.676   8.564
 2301POPC   D2A31336  43.082   6.599   8.264
 2301POPC   C3A31337  43.149   6.636   7.964
 2301POPC   C4A31338  43.075   6.680   7.664
 2301POPC   C1B31339  42.971   6.860   8.564
 2301POPC   C2B31340  42.955   6.809   8.264
 2301POPC   C3B31341  43.002   6.887   7.964
 2301POPC   C4B31342  42.919   6.881   7.664
 2302POPC   NC331343  23.745   2.761   9.464
 2302POPC   PO431344  23.705   2.720   9.164
 2302POPC   GL131345  23.666   2.774   8.864
 2302POPC   GL231346  23.810   2.707   8.864
 2302POPC   C1A31347  23.733   2.788   8.564
 2302POPC   D2A31348  23.693   2.806   8.264
 2302POPC   C3A31349  23.673   2.814   7.964
 2302POPC   C4A31350  23.694   2.731   7.664
 2302POPC   C1B31351  23.932   2.737   8.564
 2302POPC   C2B31352  23.968   2.650   8.264
 2302POPC   C3B31353  23.961   2.667   7.964
 2302POPC   C4B31354  23.909   2.734   7.664
 2303POPC   NC331355  24.449  43.837   9.464
 2303POPC   PO431356  24.521  43.936   9.164
 2303POPC   GL131357  24.461  43.934   8.864
 2303POPC   GL231358  24.591  43.902   8.864
 2303POPC   C1A31359  24.530  43.903   8.564
 2303POPC   D2A31360  24.484  43.905   8.264
 2303POPC   C3A31361  24.509  43.914   7.964
 2303POPC   C4A31362  24.521  43.923   7.664
 2303POPC   C1B31363  24.705  43.947   8.564
 2303POPC   C2B31364  24.698  43.868   8.264
 2303POPC   C3B31365  24.714  43.865   7.964
 2303POPC   C4B31366  24.735  43.875   7.664
 2304POPC   NC331367  19.856   0.477   9.464
 2304POPC   PO431368  19.855   0.419   9.164
 2304POPC   GL131369  19.874   0.471   8.864
 2304POPC   GL231370  19.927   0.316   8.864
 2304POPC   C1A31371  19.880   0.456   8.564
 2304POPC   D2A31372  19.860   0.485   8.264
 2304POPC   C3A31373  19.826   0.437   7.964
 2304POPC   C4A31374  19.863   0.398   7.664
 2304POPC   C1B31375  19.970   0.266   8.564
 2304POPC   C2B31376  20.017   0.277   8.264
 2304POPC   C3B31377  20.016   0.267   7.964
 2304POPC   C4B31378  19.984   0.213   7.664
 2305POPC   NC331379  28.393  15.156   9.464
 2305POPC   PO431380  28.383  15.131   9.164
 2305POPC   GL131381  28.342  15.156   8.864
 2305POPC   GL231382  28.226  15.114   8.864
 2305POPC   C1A31383  28.358  15.223   8.564
 2305POPC   D2A31384  28.405  15.146   8.264
 2305POPC   C3A31385  28.377  15.214   7.964
 2305POPC   C4A31386  28.351  15.139   7.664
 2305POPC   C1B31387  28.121  15.107   8.564
 2305POPC   C2B31388  28.119  15.048   8.264
 2305POPC   C3B31389  28.113  15.020   7.964
 2305POPC   C4B31390  28.149  15.047   7.664
 2306POPC   NC331391  26.783  13.599   9.464
 2306POPC   PO431392  26.768  13.610   9.164
 2306POPC   GL131393  26.837  13.599   8.864
 2306POPC   GL231394  26.876  13.715   8.864
 2306POPC   C1A31395  26.833  13.615   8.564
 2306POPC   D2A31396  26.782  13.603   8.264
 2306POPC   C3A31397  26.808  13.642   7.964
 2306POPC   C4A31398  26.782  13.606   7.664
 2306POPC   C1B31399  26.919  13.847   8.564
 2306POPC   C2B31400  26.871  13.889   8.264
 2306POPC   C3B31401  26.917  13.863   7.964
 2306POPC   C4B31402  26.893  13.881   7.664
 2307POPC   NC331403  20.618  44.649   9.464
 2307POPC   PO431404  20.575  44.656   9.164
 2307POPC   GL131405  20.624  44.687   8.864
 2307POPC   GL231406  20.547  44.553   8.864
 2307POPC   C1A31407  20.565  44.682   8.564
 2307POPC   D2A31408  20.583  44.625   8.264
 2307POPC   C3A31409  20.645  44.657   7.964
 2307POPC   C4A31410  20.636  44.647   7.664
 2307POPC   C1B31411  20.414  44.505   8.564
 2307POPC   C2B31412  20.460  44.524   8.264
 2307POPC   C3B31413  20.417  44.463   7.964
 2307POPC   C4B31414  20.455  44.529   7.664
 2308POPC   NC331415   0.449  40.780   9.464
 2308POPC   PO431416   0.474  40.785   9.164
 2308POPC   GL131417   0.456  40.775   8.864
 2308POPC   GL231418   0.272  40.857   8.864
 2308POPC   C1A31419   0.430  40.823   8.564
 2308POPC   D2A31420   0.449  40.777   8.264
 2308POPC   C3A31421   0.413  40.794   7.964
 2308POPC   C4A31422   0.429  40.807   7.664
 2308POPC   C1B31423   0.161  40.870   8.564
 2308POPC   C2B31424   0.199  40.870   8.264
 2308POPC   C3B31425   0.246  40.849   7.964
 2308POPC   C4B31426   0.248  40.896   7.664
 2309POPC   NC331427   4.270  15.937   9.464
 2309POPC   PO431428   4.343  15.986   9.164
 2309POPC   GL131429   4.301  15.956   8.864
 2309POPC   GL231430   4.188  16.015   8.864
 2309POPC   C1A31431   4.363  16.003   8.564
 2309POPC   D2A31432   4.339  15.987   8.264
 2309POPC   C3A31433   4.285  15.964   7.964
 2309POPC   C4A31434   4.366  15.915   7.664
 2309POPC   C1B31435   4.127  16.167   8.564
 2309POPC   C2B31436   4.085  16.091   8.264
 2309POPC   C3B31437   4.089  16.085   7.964
 2309POPC   C4B31438   4.109  16.095   7.664
 2310POPC   NC331439  18.287   5.072   9.464
 2310POPC   PO431440  18.245   5.104   9.164
 2310POPC   GL131441  18.311   5.064   8.864
 2310POPC   GL231442  18.392   5.143   8.864
 2310POPC   C1A31443  18.312   5.067   8.564
 2310POPC   D2A31444  18.274   5.098   8.264
 2310POPC   C3A31445  18.252   5.089   7.964
 2310POPC   C4A31446  18.255   5.078   7.664
 2310POPC   C1B31447  18.467   5.202   8.564
 2310POPC   C2B31448  18.476   5.167   8.264
 2310POPC   C3B31449  18.516   5.224   7.964
 2310POPC   C4B31450  18.514   5.227   7.664
 2311POPC   NC331451  33.071  22.150   9.464
 2311POPC   PO431452  32.975  22.117   9.164
 2311POPC   GL131453  33.042  22.125   8.864
 2311POPC   GL231454  33.077  22.255   8.864
 2311POPC   C1A31455  33.037  22.204   8.564
 2311POPC   D2A31456  32.983  22.151   8.264
 2311POPC   C3A31457  33.028  22.177   7.964
 2311POPC   C4A31458  32.987  22.170   7.664
 2311POPC   C1B31459  33.172  22.419   8.564
 2311POPC   C2B31460  33.157  22.380   8.264
 2311POPC   C3B31461  33.104  22.344   7.964
 2311POPC   C4B31462  33.097  22.404   7.664
 2312POPC   NC331463   6.674  29.940   9.464
 2312POPC   PO431464   6.651  29.910   9.164
 2312POPC   GL131465   6.629  29.920   8.864
 2312POPC   GL231466   6.675  29.832   8.864
 2312POPC   C1A31467   6.633  29.968   8.564
 2312POPC   D2A31468   6.649  29.926   8.264
 2312POPC   C3A31469   6.638  29.930   7.964
 2312POPC   C4A31470   6.670  29.942   7.664
 2312POPC   C1B31471   6.748  29.669   8.564
 2312POPC   C2B31472   6.785  29.671   8.264
 2312POPC   C3B31473   6.721  29.721   7.964
 2312POPC   C4B31474   6.728  29.722   7.664
 2313POPC   NC331475  36.866   0.434   9.464
 2313POPC   PO431476  36.856   0.424   9.164
 2313POPC   GL131477  36.892   0.400   8.864
 2313POPC   GL231478  36.945   0.519   8.864
 2313POPC   C1A31479  36.940   0.403   8.564
 2313POPC   D2A31480  36.950   0.399   8.264
 2313POPC   C3A31481  36.878   0.404   7.964
 2313POPC   C4A31482  36.929   0.436   7.664
 2313POPC   C1B31483  36.976   0.635   8.564
 2313POPC   C2B31484  37.002   0.656   8.264
 2313POPC   C3B31485  37.022   0.692   7.964
 2313POPC   C4B31486  36.985   0.626   7.664
 2314POPC   NC331487  42.304  35.323   9.464
 2314POPC   PO431488  42.288  35.349   9.164
 2314POPC   GL131489  42.349  35.342   8.864
 2314POPC   GL231490  42.168  35.333   8.864
 2314POPC   C1A31491  42.325  35.316   8.564
 2314POPC   D2A31492  42.306  35.387   8.264
 2314POPC   C3A31493  42.337  35.321   7.964
 2314POPC   C4A31494  42.299  35.367   7.664
 2314POPC   C1B31495  42.080  35.376   8.564
 2314POPC   C2B31496  42.104  35.400   8.264
 2314POPC   C3B31497  42.041  35.315   7.964
 2314POPC   C4B31498  42.121  35.369   7.664
 2315POPC   NC331499  36.952  18.316   9.464
 2315POPC   PO431500  36.935  18.246   9.164
 2315POPC   GL131501  36.902  18.235   8.864
 2315POPC   GL231502  36.778  18.315   8.864
 2315POPC   C1A31503  36.866  18.312   8.564
 2315POPC   D2A31504  36.874  18.320   8.264
 2315POPC   C3A31505  36.922  18.276   7.964
 2315POPC   C4A31506  36.945  18.289   7.664
 2315POPC   C1B31507  36.657  18.423   8.564
 2315POPC   C2B31508  36.680  18.396   8.264
 2315POPC   C3B31509  36.715  18.442   7.964
 2315POPC   C4B31510  36.722  18.450   7.664
 2316POPC   NC331511  21.354  36.117   9.464
 2316POPC   PO431512  21.393  36.083   9.164
 2316POPC   GL131513  21.382  36.158   8.864
 2316POPC   GL231514  21.276  36.185   8.864
 2316POPC   C1A31515  21.350  36.164   8.564
 2316POPC   D2A31516  21.380  36.120   8.264
 2316POPC   C3A31517  21.357  36.138   7.964
 2316POPC   C4A31518  21.403  36.096   7.664
 2316POPC   C1B31519  21.237  36.290   8.564
 2316POPC   C2B31520  21.180  36.333   8.264
 2316POPC   C3B31521  21.199  36.335   7.964
 2316POPC   C4B31522  21.193  36.240   7.664
 2317POPC   NC331523  28.377   8.205   9.464
 2317POPC   PO431524  28.337   8.213   9.164
 2317POPC   GL131525  28.407   8.210   8.864
 2317POPC   GL231526  28.384   8.027   8.864
 2317POPC   C1A31527  28.376   8.190   8.564
 2317POPC   D2A31528  28.321   8.188   8.264
 2317POPC   C3A31529  28.335   8.190   7.964
 2317POPC   C4A31530  28.329   8.191   7.664
 2317POPC   C1B31531  28.387   7.984   8.564
 2317POPC   C2B31532  28.358   7.971   8.264
 2317POPC   C3B31533  28.414   7.909   7.964
 2317POPC   C4B31534  28.395   7.941   7.664
 2318POPC   NC331535   9.756  18.289   9.464
 2318POPC   PO431536   9.740  18.275   9.164
 2318POPC   GL131537   9.796  18.269   8.864
 2318POPC   GL231538   9.878  18.377   8.864
 2318POPC   C1A31539   9.709  18.312   8.564
 2318POPC   D2A31540   9.711  18.312   8.264
 2318POPC   C3A31541   9.792  18.321   7.964
 2318POPC   C4A31542   9.767  18.249   7.664
 2318POPC   C1B31543   9.884  18.476   8.564
 2318POPC   C2B31544   9.904  18.493   8.264
 2318POPC   C3B31545   9.935  18.484   7.964
 2318POPC   C4B31546   9.936  18.439   7.664
 2319POPC   NC331547  18.328  19.879   9.464
 2319POPC   PO431548  18.272  19.847   9.164
 2319POPC   GL131549  18.302  19.869   8.864
 2319POPC   GL231550  18.346  19.948   8.864
 2319POPC   C1A31551  18.297  19.868   8.564
 2319POPC   D2A31552  18.269  19.808   8.264
 2319POPC   C3A31553  18.235  19.807   7.964
 2319POPC   C4A31554  18.315  19.860   7.664
 2319POPC   C1B31555  18.493  19.967   8.564
 2319POPC   C2B31556  18.462  20.011   8.264
 2319POPC   C3B31557  18.465  19.960   7.964
 2319POPC   C4B31558  18.482  20.010   7.664
 2320POPC   NC331559  15.991  43.875   9.464
 2320POPC   PO431560  15.991  43.878   9.164
 2320POPC   GL131561  15.926  43.926   8.864
 2320POPC   GL231562  16.076  43.894   8.864
 2320POPC   C1A31563  15.929  43.921   8.564
 2320POPC   D2A31564  15.937  43.923   8.264
 2320POPC   C3A31565  15.989  43.910   7.964
 2320POPC   C4A31566  15.972  43.845   7.664
 2320POPC   C1B31567  16.197  43.933   8.564
 2320POPC   C2B31568  16.175  44.008   8.264
 2320POPC   C3B31569  16.212  43.963   7.964
 2320POPC   C4B31570  16.201  43.943   7.664
 2321POPC   NC331571   5.860  26.081   9.464
 2321POPC   PO431572   5.841  26.050   9.164
 2321POPC   GL131573   5.899  26.024   8.864
 2321POPC   GL231574   5.794  26.082   8.864
 2321POPC   C1A31575   5.896  26.060   8.564
 2321POPC   D2A31576   5.867  26.051   8.264
 2321POPC   C3A31577   5.861  26.040   7.964
 2321POPC   C4A31578   5.898  26.047   7.664
 2321POPC   C1B31579   5.635  26.076   8.564
 2321POPC   C2B31580   5.612  26.040   8.264
 2321POPC   C3B31581   5.585  26.085   7.964
 2321POPC   C4B31582   5.586  26.103   7.664
 2322POPC   NC331583  14.362   5.101   9.464
 2322POPC   PO431584  14.407   5.128   9.164
 2322POPC   GL131585  14.430   5.130   8.864
 2322POPC   GL231586  14.259   5.108   8.864
 2322POPC   C1A31587  14.426   5.075   8.564
 2322POPC   D2A31588  14.372   5.098   8.264
 2322POPC   C3A31589  14.392   5.112   7.964
 2322POPC   C4A31590  14.451   5.139   7.664
 2322POPC   C1B31591  14.153   5.231   8.564
 2322POPC   C2B31592  14.140   5.184   8.264
 2322POPC   C3B31593  14.148   5.261   7.964
 2322POPC   C4B31594  14.139   5.188   7.664
 2323POPC   NC331595  41.524  32.264   9.464
 2323POPC   PO431596  41.567  32.285   9.164
 2323POPC   GL131597  41.544  32.246   8.864
 2323POPC   GL231598  41.413  32.201   8.864
 2323POPC   C1A31599  41.530  32.209   8.564
 2323POPC   D2A31600  41.553  32.278   8.264
 2323POPC   C3A31601  41.601  32.220   7.964
 2323POPC   C4A31602  41.599  32.275   7.664
 2323POPC   C1B31603  41.333  32.187   8.564
 2323POPC   C2B31604  41.350  32.173   8.264
 2323POPC   C3B31605  41.272  32.141   7.964
 2323POPC   C4B31606  41.369  32.188   7.664
 2324POPC   NC331607  40.748  13.675   9.464
 2324POPC   PO431608  40.753  13.624   9.164
 2324POPC   GL131609  40.747  13.670   8.864
 2324POPC   GL231610  40.850  13.529   8.864
 2324POPC   C1A31611  40.744  13.636   8.564
 2324POPC   D2A31612  40.766  13.655   8.264
 2324POPC   C3A31613  40.774  13.602   7.964
 2324POPC   C4A31614  40.759  13.671   7.664
 2324POPC   C1B31615  41.022  13.476   8.564
 2324POPC   C2B31616  41.012  13.458   8.264
 2324POPC   C3B31617  40.986  13.448   7.964
 2324POPC   C4B31618  40.976  13.489   7.664
 2325POPC   NC331619  36.172  25.994   9.464
 2325POPC   PO431620  36.098  26.008   9.164
 2325POPC   GL131621  36.159  26.060   8.864
 2325POPC   GL231622  36.107  26.156   8.864
 2325POPC   C1A31623  36.147  26.033   8.564
 2325POPC   D2A31624  36.112  26.077   8.264
 2325POPC   C3A31625  36.167  26.055   7.964
 2325POPC   C4A31626  36.099  26.065   7.664
 2325POPC   C1B31627  36.112  26.326   8.564
 2325POPC   C2B31628  36.139  26.243   8.264
 2325POPC   C3B31629  36.080  26.255   7.964
 2325POPC   C4B31630  36.103  26.334   7.664
 2326POPC   NC331631  12.888  29.963   9.464
 2326POPC   PO431632  12.809  29.949   9.164
 2326POPC   GL131633  12.846  29.951   8.864
 2326POPC   GL231634  12.850  29.760   8.864
 2326POPC   C1A31635  12.807  29.916   8.564
 2326POPC   D2A31636  12.841  29.952   8.264
 2326POPC   C3A31637  12.869  29.920   7.964
 2326POPC   C4A31638  12.802  29.936   7.664
 2326POPC   C1B31639  12.936  29.711   8.564
 2326POPC   C2B31640  12.869  29.638   8.264
 2326POPC   C3B31641  12.948  29.649   7.964
 2326POPC   C4B31642  12.928  29.682   7.664
 2327POPC   NC331643   0.430  25.218   9.464
 2327POPC   PO431644   0.448  25.281   9.164
 2327POPC   GL131645   0.405  25.246   8.864
 2327POPC   GL231646   0.519  25.152   8.864
 2327POPC   C1A31647   0.423  25.236   8.564
 2327POPC   D2A31648   0.477  25.290   8.264
 2327POPC   C3A31649   0.468  25.259   7.964
 2327POPC   C4A31650   0.432  25.304   7.664
 2327POPC   C1B31651   0.668  25.173   8.564
 2327POPC   C2B31652   0.670  25.086   8.264
 2327POPC   C3B31653   0.683  25.147   7.964
 2327POPC   C4B31654   0.649  25.122   7.664
 2328POPC   NC331655  44.695   8.233   9.464
 2328POPC   PO431656  44.625   8.157   9.164
 2328POPC   GL131657  44.678   8.182   8.864
 2328POPC   GL231658  44.714   8.317   8.864
 2328POPC   C1A31659  44.653   8.238   8.564
 2328POPC   D2A31660  44.712   8.160   8.264
 2328POPC   C3A31661  44.676   8.172   7.964
 2328POPC   C4A31662  44.614   8.191   7.664
 2328POPC   C1B31663  44.643   8.491   8.564
 2328POPC   C2B31664  44.664   8.434   8.264
 2328POPC   C3B31665  44.689   8.474   7.964
 2328POPC   C4B31666  44.655   8.465   7.664
 2329POPC   NC331667  21.389  23.719   9.464
 2329POPC   PO431668  21.340  23.730   9.164
 2329POPC   GL131669  21.343  23.709   8.864
 2329POPC   GL231670  21.465  23.771   8.864
 2329POPC   C1A31671  21.341  23.743   8.564
 2329POPC   D2A31672  21.430  23.707   8.264
 2329POPC   C3A31673  21.394  23.755   7.964
 2329POPC   C4A31674  21.419  23.689   7.664
 2329POPC   C1B31675  21.650  23.802   8.564
 2329POPC   C2B31676  21.603  23.801   8.264
 2329POPC   C3B31677  21.634  23.762   7.964
 2329POPC   C4B31678  21.618  23.766   7.664
 2330POPC   NC331679   6.602  12.883   9.464
 2330POPC   PO431680   6.643  12.886   9.164
 2330POPC   GL131681   6.664  12.853   8.864
 2330POPC   GL231682   6.723  12.719   8.864
 2330POPC   C1A31683   6.658  12.895   8.564
 2330POPC   D2A31684   6.684  12.887   8.264
 2330POPC   C3A31685   6.596  12.818   7.964
 2330POPC   C4A31686   6.606  12.840   7.664
 2330POPC   C1B31687   6.820  12.696   8.564
 2330POPC   C2B31688   6.808  12.686   8.264
 2330POPC   C3B31689   6.742  12.602   7.964
 2330POPC   C4B31690   6.763  12.636   7.664
 2331POPC   NC331691   9.749  37.688   9.464
 2331POPC   PO431692   9.795  37.672   9.164
 2331POPC   GL131693   9.726  37.668   8.864
 2331POPC   GL231694   9.773  37.819   8.864
 2331POPC   C1A31695   9.701  37.651   8.564
 2331POPC   D2A31696   9.769  37.688   8.264
 2331POPC   C3A31697   9.736  37.641   7.964
 2331POPC   C4A31698   9.733  37.631   7.664
 2331POPC   C1B31699   9.737  37.912   8.564
 2331POPC   C2B31700   9.741  37.948   8.264
 2331POPC   C3B31701   9.718  37.893   7.964
 2331POPC   C4B31702   9.735  37.903   7.664
 2332POPC   NC331703   9.747  22.130   9.464
 2332POPC   PO431704   9.754  22.149   9.164
 2332POPC   GL131705   9.739  22.176   8.864
 2332POPC   GL231706   9.619  22.107   8.864
 2332POPC   C1A31707   9.716  22.114   8.564
 2332POPC   D2A31708   9.776  22.183   8.264
 2332POPC   C3A31709   9.702  22.164   7.964
 2332POPC   C4A31710   9.725  22.112   7.664
 2332POPC   C1B31711   9.561  22.063   8.564
 2332POPC   C2B31712   9.571  21.983   8.264
 2332POPC   C3B31713   9.493  21.994   7.964
 2332POPC   C4B31714   9.531  22.058   7.664
 2333POPC   NC331715  30.715  33.788   9.464
 2333POPC   PO431716  30.737  33.789   9.164
 2333POPC   GL131717  30.714  33.781   8.864
 2333POPC   GL231718  30.787  33.824   8.864
 2333POPC   C1A31719  30.668  33.804   8.564
 2333POPC   D2A31720  30.702  33.825   8.264
 2333POPC   C3A31721  30.733  33.777   7.964
 2333POPC   C4A31722  30.734  33.761   7.664
 2333POPC   C1B31723  30.960  33.794   8.564
 2333POPC   C2B31724  30.944  33.789   8.264
 2333POPC   C3B31725  30.967  33.797   7.964
 2333POPC   C4B31726  30.970  33.845   7.664
 2334POPC   NC331727  28.396  30.722   9.464
 2334POPC   PO431728  28.343  30.729   9.164
 2334POPC   GL131729  28.374  30.744   8.864
 2334POPC   GL231730  28.339  30.808   8.864
 2334POPC   C1A31731  28.402  30.702   8.564
 2334POPC   D2A31732  28.355  30.677   8.264
 2334POPC   C3A31733  28.405  30.725   7.964
 2334POPC   C4A31734  28.396  30.649   7.664
 2334POPC   C1B31735  28.303  30.900   8.564
 2334POPC   C2B31736  28.304  30.912   8.264
 2334POPC   C3B31737  28.350  30.938   7.964
 2334POPC   C4B31738  28.302  30.955   7.664
 2335POPC   NC331739   5.867  37.709   9.464
 2335POPC   PO431740   5.890  37.684   9.164
 2335POPC   GL131741   5.833  37.707   8.864
 2335POPC   GL231742   5.977  37.629   8.864
 2335POPC   C1A31743   5.891  37.649   8.564
 2335POPC   D2A31744   5.873  37.725   8.264
 2335POPC   C3A31745   5.905  37.676   7.964
 2335POPC   C4A31746   5.858  37.649   7.664
 2335POPC   C1B31747   6.045  37.560   8.564
 2335POPC   C2B31748   6.037  37.496   8.264
 2335POPC   C3B31749   6.053  37.528   7.964
 2335POPC   C4B31750   6.070  37.559   7.664
 2336POPC   NC331751  27.546  14.391   9.464
 2336POPC   PO431752  27.595  14.396   9.164
 2336POPC   GL131753  27.635  14.427   8.864
 2336POPC   GL231754  27.762  14.384   8.864
 2336POPC   C1A31755  27.602  14.387   8.564
 2336POPC   D2A31756  27.602  14.407   8.264
 2336POPC   C3A31757  27.615  14.382   7.964
 2336POPC   C4A31758  27.617  14.379   7.664
 2336POPC   C1B31759  27.889  14.412   8.564
 2336POPC   C2B31760  27.841  14.413   8.264
 2336POPC   C3B31761  27.889  14.342   7.964
 2336POPC   C4B31762  27.796  14.350   7.664
 2337POPC   NC331763  29.131  11.324   9.464
 2337POPC   PO431764  29.157  11.259   9.164
 2337POPC   GL131765  29.177  11.307   8.864
 2337POPC   GL231766  29.013  11.367   8.864
 2337POPC   C1A31767  29.155  11.321   8.564
 2337POPC   D2A31768  29.141  11.286   8.264
 2337POPC   C3A31769  29.154  11.320   7.964
 2337POPC   C4A31770  29.098  11.339   7.664
 2337POPC   C1B31771  28.964  11.429   8.564
 2337POPC   C2B31772  28.967  11.398   8.264
 2337POPC   C3B31773  28.905  11.396   7.964
 2337POPC   C4B31774  28.945  11.452   7.664
 2338POPC   NC331775   8.973   9.000   9.464
 2338POPC   PO431776   8.969   8.958   9.164
 2338POPC   GL131777   8.992   8.952   8.864
 2338POPC   GL231778   9.072   9.026   8.864
 2338POPC   C1A31779   8.938   8.973   8.564
 2338POPC   D2A31780   8.938   8.933   8.264
 2338POPC   C3A31781   9.000   9.021   7.964
 2338POPC   C4A31782   8.963   8.955   7.664
 2338POPC   C1B31783   9.227   9.098   8.564
 2338POPC   C2B31784   9.197   9.027   8.264
 2338POPC   C3B31785   9.202   9.070   7.964
 2338POPC   C4B31786   9.164   9.023   7.664
 2339POPC   NC331787  39.218  26.038   9.464
 2339POPC   PO431788  39.205  26.069   9.164
 2339POPC   GL131789  39.207  25.992   8.864
 2339POPC   GL231790  39.357  25.929   8.864
 2339POPC   C1A31791  39.256  26.035   8.564
 2339POPC   D2A31792  39.258  26.055   8.264
 2339POPC   C3A31793  39.193  26.034   7.964
 2339POPC   C4A31794  39.186  26.047   7.664
 2339POPC   C1B31795  39.393  25.900   8.564
 2339POPC   C2B31796  39.424  25.856   8.264
 2339POPC   C3B31797  39.371  25.869   7.964
 2339POPC   C4B31798  39.383  25.849   7.664
 2340POPC   NC331799  14.448  20.599   9.464
 2340POPC   PO431800  14.442  20.628   9.164
 2340POPC   GL131801  14.404  20.635   8.864
 2340POPC   GL231802  14.514  20.719   8.864
 2340POPC   C1A31803  14.365  20.597   8.564
 2340POPC   D2A31804  14.373  20.631   8.264
 2340POPC   C3A31805  14.402  20.580   7.964
 2340POPC   C4A31806  14.403  20.601   7.664
 2340POPC   C1B31807  14.595  20.707   8.564
 2340POPC   C2B31808  14.656  20.762   8.264
 2340POPC   C3B31809  14.638  20.797   7.964
 2340POPC   C4B31810  14.621  20.712   7.664
 2341POPC   NC331811  29.154  36.113   9.464
 2341POPC   PO431812  29.138  36.163   9.164
 2341POPC   GL131813  29.176  36.085   8.864
 2341POPC   GL231814  29.137  36.273   8.864
 2341POPC   C1A31815  29.188  36.088   8.564
 2341POPC   D2A31816  29.110  36.099   8.264
 2341POPC   C3A31817  29.175  36.094   7.964
 2341POPC   C4A31818  29.170  36.154   7.664
 2341POPC   C1B31819  29.064  36.383   8.564
 2341POPC   C2B31820  29.097  36.336   8.264
 2341POPC   C3B31821  29.136  36.364   7.964
 2341POPC   C4B31822  29.135  36.402   7.664
 2342POPC   NC331823  15.946  36.886   9.464
 2342POPC   PO431824  15.921  36.888   9.164
 2342POPC   GL131825  15.975  36.872   8.864
 2342POPC   GL231826  15.887  36.829   8.864
 2342POPC   C1A31827  15.935  36.949   8.564
 2342POPC   D2A31828  15.913  36.895   8.264
 2342POPC   C3A31829  15.964  36.950   7.964
 2342POPC   C4A31830  15.947  36.944   7.664
 2342POPC   C1B31831  15.791  36.705   8.564
 2342POPC   C2B31832  15.729  36.725   8.264
 2342POPC   C3B31833  15.749  36.705   7.964
 2342POPC   C4B31834  15.753  36.691   7.664
 2343POPC   NC331835  14.379   7.430   9.464
 2343POPC   PO431836  14.385   7.429   9.164
 2343POPC   GL131837  14.387   7.408   8.864
 2343POPC   GL231838  14.424   7.299   8.864
 2343POPC   C1A31839  14.428   7.435   8.564
 2343POPC   D2A31840  14.445   7.397   8.264
 2343POPC   C3A31841  14.377   7.422   7.964
 2343POPC   C4A31842  14.358   7.456   7.664
 2343POPC   C1B31843  14.386   7.193   8.564
 2343POPC   C2B31844  14.406   7.161   8.264
 2343POPC   C3B31845  14.371   7.157   7.964
 2343POPC   C4B31846  14.362   7.175   7.664
 2344POPC   NC331847  34.578  18.250   9.464
 2344POPC   PO431848  34.604  18.267   9.164
 2344POPC   GL131849  34.622  18.269   8.864
 2344POPC   GL231850  34.646  18.396   8.864
 2344POPC   C1A31851  34.557  18.277   8.564
 2344POPC   D2A31852  34.615  18.240   8.264
 2344POPC   C3A31853  34.609  18.298   7.964
 2344POPC   C4A31854  34.599  18.250   7.664
 2344POPC   C1B31855  34.711  18.518   8.564
 2344POPC   C2B31856  34.737  18.522   8.264
 2344POPC   C3B31857  34.732  18.500   7.964
 2344POPC   C4B31858  34.777  18.454   7.664
 2345POPC   NC331859  41.585  12.101   9.464
 2345POPC   PO431860  41.554  12.072   9.164
 2345POPC   GL131861  41.516  12.075   8.864
 2345POPC   GL231862  41.506  11.962   8.864
 2345POPC   C1A31863  41.581  12.058   8.564
 2345POPC   D2A31864  41.604  12.081   8.264
 2345POPC   C3A31865  41.546  12.094   7.964
 2345POPC   C4A31866  41.580  12.051   7.664
 2345POPC   C1B31867  41.512  11.817   8.564
 2345POPC   C2B31868  41.518  11.853   8.264
 2345POPC   C3B31869  41.476  11.864   7.964
 2345POPC   C4B31870  41.501  11.797   7.664
 2346POPC   NC331871  42.317   3.585   9.464
 2346POPC   PO431872  42.290   3.588   9.164
 2346POPC   GL131873  42.292   3.509   8.864
 2346POPC   GL231874  42.250   3.393   8.864
 2346POPC   C1A31875  42.370   3.509   8.564
 2346POPC   D2A31876  42.334   3.579   8.264
 2346POPC   C3A31877  42.312   3.561   7.964
 2346POPC   C4A31878  42.295   3.514   7.664
 2346POPC   C1B31879  42.253   3.329   8.564
 2346POPC   C2B31880  42.267   3.344   8.264
 2346POPC   C3B31881  42.196   3.349   7.964
 2346POPC   C4B31882  42.262   3.317   7.664
 2347POPC   NC331883  15.130  26.042   9.464
 2347POPC   PO431884  15.209  26.047   9.164
 2347POPC   GL131885  15.217  25.994   8.864
 2347POPC   GL231886  15.244  25.894   8.864
 2347POPC   C1A31887  15.174  26.008   8.564
 2347POPC   D2A31888  15.158  26.054   8.264
 2347POPC   C3A31889  15.209  26.034   7.964
 2347POPC   C4A31890  15.217  26.077   7.664
 2347POPC   C1B31891  15.239  25.778   8.564
 2347POPC   C2B31892  15.239  25.764   8.264
 2347POPC   C3B31893  15.302  25.828   7.964
 2347POPC   C4B31894  15.232  25.770   7.664
 2348POPC   NC331895  30.744   9.710   9.464
 2348POPC   PO431896  30.660   9.745   9.164
 2348POPC   GL131897  30.653   9.789   8.864
 2348POPC   GL231898  30.672   9.649   8.864
 2348POPC   C1A31899  30.737   9.726   8.564
 2348POPC   D2A31900  30.714   9.730   8.264
 2348POPC   C3A31901  30.731   9.771   7.964
 2348POPC   C4A31902  30.661   9.795   7.664
 2348POPC   C1B31903  30.741   9.493   8.564
 2348POPC   C2B31904  30.736   9.519   8.264
 2348POPC   C3B31905  30.774   9.472   7.964
 2348POPC   C4B31906  30.745   9.490   7.664
 2349POPC   NC331907  36.932  24.444   9.464
 2349POPC   PO431908  36.921  24.514   9.164
 2349POPC   GL131909  36.858  24.511   8.864
 2349POPC   GL231910  36.832  24.564   8.864
 2349POPC   C1A31911  36.917  24.453   8.564
 2349POPC   D2A31912  36.901  24.501   8.264
 2349POPC   C3A31913  36.873  24.444   7.964
 2349POPC   C4A31914  36.915  24.500   7.664
 2349POPC   C1B31915  36.680  24.613   8.564
 2349POPC   C2B31916  36.654  24.602   8.264
 2349POPC   C3B31917  36.631  24.607   7.964
 2349POPC   C4B31918  36.630  24.605   7.664
 2350POPC   NC331919  10.485  40.754   9.464
 2350POPC   PO431920  10.483  40.751   9.164
 2350POPC   GL131921  10.547  40.758   8.864
 2350POPC   GL231922  10.515  40.674   8.864
 2350POPC   C1A31923  10.542  40.758   8.564
 2350POPC   D2A31924  10.547  40.740   8.264
 2350POPC   C3A31925  10.531  40.826   7.964
 2350POPC   C4A31926  10.552  40.814   7.664
 2350POPC   C1B31927  10.482  40.582   8.564
 2350POPC   C2B31928  10.477  40.534   8.264
 2350POPC   C3B31929  10.451  40.563   7.964
 2350POPC   C4B31930  10.485  40.558   7.664
 2351POPC   NC331931  20.610   1.961   9.464
 2351POPC   PO431932  20.611   1.988   9.164
 2351POPC   GL131933  20.605   1.942   8.864
 2351POPC   GL231934  20.480   1.928   8.864
 2351POPC   C1A31935  20.606   2.014   8.564
 2351POPC   D2A31936  20.593   2.026   8.264
 2351POPC   C3A31937  20.577   2.008   7.964
 2351POPC   C4A31938  20.617   1.945   7.664
 2351POPC   C1B31939  20.392   1.812   8.564
 2351POPC   C2B31940  20.435   1.863   8.264
 2351POPC   C3B31941  20.466   1.846   7.964
 2351POPC   C4B31942  20.411   1.857   7.664
 2352POPC   NC331943   3.493  12.089   9.464
 2352POPC   PO431944   3.497  12.079   9.164
 2352POPC   GL131945   3.542  12.115   8.864
 2352POPC   GL231946   3.442  11.997   8.864
 2352POPC   C1A31947   3.540  12.053   8.564
 2352POPC   D2A31948   3.531  12.109   8.264
 2352POPC   C3A31949   3.535  12.068   7.964
 2352POPC   C4A31950   3.572  12.059   7.664
 2352POPC   C1B31951   3.399  11.842   8.564
 2352POPC   C2B31952   3.428  11.892   8.264
 2352POPC   C3B31953   3.368  11.881   7.964
 2352POPC   C4B31954   3.435  11.877   7.664
 2353POPC   NC331955  12.813  41.608   9.464
 2353POPC   PO431956  12.843  41.559   9.164
 2353POPC   GL131957  12.893  41.523   8.864
 2353POPC   GL231958  12.708  41.543   8.864
 2353POPC   C1A31959  12.883  41.550   8.564
 2353POPC   D2A31960  12.833  41.537   8.264
 2353POPC   C3A31961  12.833  41.574   7.964
 2353POPC   C4A31962  12.880  41.544   7.664
 2353POPC   C1B31963  12.630  41.455   8.564
 2353POPC   C2B31964  12.582  41.459   8.264
 2353POPC   C3B31965  12.647  41.475   7.964
 2353POPC   C4B31966  12.581  41.485   7.664
 2354POPC   NC331967   5.062  16.703   9.464
 2354POPC   PO431968   5.044  16.732   9.164
 2354POPC   GL131969   5.054  16.698   8.864
 2354POPC   GL231970   4.972  16.746   8.864
 2354POPC   C1A31971   5.088  16.777   8.564
 2354POPC   D2A31972   5.081  16.758   8.264
 2354POPC   C3A31973   5.063  16.726   7.964
 2354POPC   C4A31974   5.104  16.702   7.664
 2354POPC   C1B31975   4.845  16.847   8.564
 2354POPC   C2B31976   4.816  16.779   8.264
 2354POPC   C3B31977   4.896  16.835   7.964
 2354POPC   C4B31978   4.848  16.801   7.664
 2355POPC   NC331979  11.320  11.251   9.464
 2355POPC   PO431980  11.296  11.327   9.164
 2355POPC   GL131981  11.315  11.257   8.864
 2355POPC   GL231982  11.166  11.366   8.864
 2355POPC   C1A31983  11.272  11.325   8.564
 2355POPC   D2A31984  11.313  11.297   8.264
 2355POPC   C3A31985  11.256  11.261   7.964
 2355POPC   C4A31986  11.269  11.295   7.664
 2355POPC   C1B31987  11.018  11.403   8.564
 2355POPC   C2B31988  11.079  11.433   8.264
 2355POPC   C3B31989  11.033  11.344   7.964
 2355POPC   C4B31990  11.050  11.398   7.664
 2356POPC   NC331991  21.435  30.700   9.464
 2356POPC   PO431992  21.350  30.732   9.164
 2356POPC   GL131993  21.392  30.709   8.864
 2356POPC   GL231994  21.497  30.750   8.864
 2356POPC   C1A31995  21.409  30.696   8.564
 2356POPC   D2A31996  21.415  30.697   8.264
 2356POPC   C3A31997  21.415  30.701   7.964
 2356POPC   C4A31998  21.366  30.699   7.664
 2356POPC   C1B31999  21.566  30.937   8.564
 2356POPC   C2B32000  21.529  30.921   8.264
 2356POPC   C3B32001  21.560  30.893   7.964
 2356POPC   C4B32002  21.583  30.851   7.664
 2357POPC   NC332003   7.457   4.286   9.464
 2357POPC   PO432004   7.387   4.283   9.164
 2357POPC   GL132005   7.439   4.326   8.864
 2357POPC   GL232006   7.392   4.188   8.864
 2357POPC   C1A32007   7.463   4.272   8.564
 2357POPC   D2A32008   7.398   4.302   8.264
 2357POPC   C3A32009   7.426   4.342   7.964
 2357POPC   C4A32010   7.373   4.304   7.664
 2357POPC   C1B32011   7.315   4.050   8.564
 2357POPC   C2B32012   7.324   4.106   8.264
 2357POPC   C3B32013   7.339   4.129   7.964
 2357POPC   C4B32014   7.321   4.057   7.664
 2358POPC   NC332015   5.072  29.157   9.464
 2358POPC   PO432016   5.048  29.137   9.164
 2358POPC   GL132017   5.044  29.175   8.864
 2358POPC   GL232018   5.118  29.295   8.864
 2358POPC   C1A32019   5.078  29.160   8.564
 2358POPC   D2A32020   5.115  29.115   8.264
 2358POPC   C3A32021   5.089  29.159   7.964
 2358POPC   C4A32022   5.090  29.095   7.664
 2358POPC   C1B32023   5.191  29.357   8.564
 2358POPC   C2B32024   5.185  29.424   8.264
 2358POPC   C3B32025   5.113  29.401   7.964
 2358POPC   C4B32026   5.167  29.435   7.664
 2359POPC   NC332027  29.967  11.272   9.464
 2359POPC   PO432028  29.953  11.345   9.164
 2359POPC   GL132029  29.958  11.266   8.864
 2359POPC   GL232030  29.777  11.190   8.864
 2359POPC   C1A32031  29.939  11.313   8.564
 2359POPC   D2A32032  29.915  11.260   8.264
 2359POPC   C3A32033  29.926  11.286   7.964
 2359POPC   C4A32034  29.906  11.253   7.664
 2359POPC   C1B32035  29.672  11.203   8.564
 2359POPC   C2B32036  29.692  11.135   8.264
 2359POPC   C3B32037  29.664  11.153   7.964
 2359POPC   C4B32038  29.714  11.211   7.664
 2360POPC   NC332039   0.433  24.489   9.464
 2360POPC   PO432040   0.430  24.516   9.164
 2360POPC   GL132041   0.472  24.456   8.864
 2360POPC   GL232042   0.546  24.517   8.864
 2360POPC   C1A32043   0.448  24.524   8.564
 2360POPC   D2A32044   0.454  24.519   8.264
 2360POPC   C3A32045   0.390  24.481   7.964
 2360POPC   C4A32046   0.455  24.460   7.664
 2360POPC   C1B32047   0.648  24.627   8.564
 2360POPC   C2B32048   0.601  24.656   8.264
 2360POPC   C3B32049   0.642  24.646   7.964
 2360POPC   C4B32050   0.607  24.670   7.664
 2361POPC   NC332051  38.467  42.285   9.464
 2361POPC   PO432052  38.455  42.366   9.164
 2361POPC   GL132053  38.458  42.316   8.864
 2361POPC   GL232054  38.414  42.445   8.864
 2361POPC   C1A32055  38.487  42.361   8.564
 2361POPC   D2A32056  38.454  42.337   8.264
 2361POPC   C3A32057  38.486  42.317   7.964
 2361POPC   C4A32058  38.471  42.317   7.664
 2361POPC   C1B32059  38.479  42.608   8.564
 2361POPC   C2B32060  38.410  42.629   8.264
 2361POPC   C3B32061  38.489  42.584   7.964
 2361POPC   C4B32062  38.478  42.634   7.664
 2362POPC   NC332063  12.897  26.828   9.464
 2362POPC   PO432064  12.856  26.859   9.164
 2362POPC   GL132065  12.896  26.830   8.864
 2362POPC   GL232066  12.837  26.895   8.864
 2362POPC   C1A32067  12.805  26.857   8.564
 2362POPC   D2A32068  12.892  26.779   8.264
 2362POPC   C3A32069  12.875  26.790   7.964
 2362POPC   C4A32070  12.833  26.789   7.664
 2362POPC   C1B32071  12.820  27.016   8.564
 2362POPC   C2B32072  12.793  27.046   8.264
 2362POPC   C3B32073  12.742  27.089   7.964
 2362POPC   C4B32074  12.741  27.031   7.664
 2363POPC   NC332075  32.283  18.288   9.464
 2363POPC   PO432076  32.249  18.314   9.164
 2363POPC   GL132077  32.272  18.257   8.864
 2363POPC   GL232078  32.393  18.324   8.864
 2363POPC   C1A32079  32.206  18.274   8.564
 2363POPC   D2A32080  32.273  18.282   8.264
 2363POPC   C3A32081  32.241  18.326   7.964
 2363POPC   C4A32082  32.247  18.275   7.664
 2363POPC   C1B32083  32.541  18.259   8.564
 2363POPC   C2B32084  32.539  18.260   8.264
 2363POPC   C3B32085  32.472  18.319   7.964
 2363POPC   C4B32086  32.503  18.264   7.664
 2364POPC   NC332087  32.282  22.938   9.464
 2364POPC   PO432088  32.218  22.923   9.164
 2364POPC   GL132089  32.260  22.952   8.864
 2364POPC   GL232090  32.229  23.035   8.864
 2364POPC   C1A32091  32.212  22.910   8.564
 2364POPC   D2A32092  32.231  22.889   8.264
 2364POPC   C3A32093  32.256  22.910   7.964
 2364POPC   C4A32094  32.296  22.979   7.664
 2364POPC   C1B32095  32.292  23.180   8.564
 2364POPC   C2B32096  32.349  23.149   8.264
 2364POPC   C3B32097  32.277  23.192   7.964
 2364POPC   C4B32098  32.345  23.163   7.664
 2365POPC   NC332099  29.156  27.560   9.464
 2365POPC   PO432100  29.170  27.545   9.164
 2365POPC   GL132101  29.126  27.638   8.864
 2365POPC   GL232102  29.136  27.515   8.864
 2365POPC   C1A32103  29.171  27.585   8.564
 2365POPC   D2A32104  29.189  27.598   8.264
 2365POPC   C3A32105  29.177  27.617   7.964
 2365POPC   C4A32106  29.175  27.594   7.664
 2365POPC   C1B32107  29.073  27.359   8.564
 2365POPC   C2B32108  29.072  27.391   8.264
 2365POPC   C3B32109  29.085  27.404   7.964
 2365POPC   C4B32110  29.055  27.340   7.664
 2366POPC   NC332111  15.184  24.455   9.464
 2366POPC   PO432112  15.224  24.497   9.164
 2366POPC   GL132113  15.187  24.501   8.864
 2366POPC   GL232114  15.238  24.525   8.864
 2366POPC   C1A32115  15.157  24.496   8.564
 2366POPC   D2A32116  15.185  24.487   8.264
 2366POPC   C3A32117  15.227  24.527   7.964
 2366POPC   C4A32118  15.197  24.449   7.664
 2366POPC   C1B32119  15.407  24.676   8.564
 2366POPC   C2B32120  15.372  24.624   8.264
 2366POPC   C3B32121  15.429  24.589   7.964
 2366POPC   C4B32122  15.366  24.626   7.664
 2367POPC   NC332123  40.051  30.724   9.464
 2367POPC   PO432124  39.967  30.647   9.164
 2367POPC   GL132125  39.981  30.696   8.864
 2367POPC   GL232126  39.928  30.783   8.864
 2367POPC   C1A32127  40.021  30.698   8.564
 2367POPC   D2A32128  40.021  30.669   8.264
 2367POPC   C3A32129  40.009  30.721   7.964
 2367POPC   C4A32130  40.030  30.711   7.664
 2367POPC   C1B32131  39.789  30.810   8.564
 2367POPC   C2B32132  39.773  30.769   8.264
 2367POPC   C3B32133  39.801  30.786   7.964
 2367POPC   C4B32134  39.806  30.796   7.664
 2368POPC   NC332135  32.982  29.906   9.464
 2368POPC   PO432136  33.051  29.877   9.164
 2368POPC   GL132137  33.029  29.923   8.864
 2368POPC   GL232138  33.124  30.007   8.864
 2368POPC   C1A32139  32.999  29.897   8.564
 2368POPC   D2A32140  33.046  29.962   8.264
 2368POPC   C3A32141  33.050  29.958   7.964
 2368POPC   C4A32142  33.021  29.961   7.664
 2368POPC   C1B32143  33.231  30.134   8.564
 2368POPC   C2B32144  33.245  30.085   8.264
 2368POPC   C3B32145  33.218  30.121   7.964
 2368POPC   C4B32146  33.226  30.138   7.664
 2369POPC   NC332147  40.038  42.347   9.464
 2369POPC   PO432148  40.054  42.298   9.164
 2369POPC   GL132149  39.973  42.374   8.864
 2369POPC   GL232150  40.089  42.480   8.864
 2369POPC   C1A32151  39.969  42.298   8.564
 2369POPC   D2A32152  39.994  42.323   8.264
 2369POPC   C3A32153  39.970  42.371   7.964
 2369POPC   C4A32154  40.046  42.290   7.664
 2369POPC   C1B32155  40.117  42.571   8.564
 2369POPC   C2B32156  40.122  42.584   8.264
 2369POPC   C3B32157  40.120  42.603   7.964
 2369POPC   C4B32158  40.055  42.548   7.664
 2370POPC   NC332159  30.660  36.857   9.464
 2370POPC   PO432160  30.746  36.939   9.164
 2370POPC   GL132161  30.669  36.951   8.864
 2370POPC   GL232162  30.793  36.846   8.864
 2370POPC   C1A32163  30.691  36.922   8.564
 2370POPC   D2A32164  30.740  36.903   8.264
 2370POPC   C3A32165  30.656  36.908   7.964
 2370POPC   C4A32166  30.734  36.890   7.664
 2370POPC   C1B32167  30.785  36.709   8.564
 2370POPC   C2B32168  30.797  36.668   8.264
 2370POPC   C3B32169  30.845  36.649   7.964
 2370POPC   C4B32170  30.877  36.676   7.664
 2371POPC   NC332171  41.586  36.933   9.464
 2371POPC   PO432172  41.536  36.922   9.164
 2371POPC   GL132173  41.601  36.876   8.864
 2371POPC   GL232174  41.677  37.018   8.864
 2371POPC   C1A32175  41.601  36.895   8.564
 2371POPC   D2A32176  41.512  36.901   8.264
 2371POPC   C3A32177  41.514  36.869   7.964
 2371POPC   C4A32178  41.551  36.951   7.664
 2371POPC   C1B32179  41.789  37.040   8.564
 2371POPC   C2B32180  41.744  37.068   8.264
 2371POPC   C3B32181  41.779  37.085   7.964
 2371POPC   C4B32182  41.759  37.026   7.664
 2372POPC   NC332183  36.945  36.950   9.464
 2372POPC   PO432184  36.881  36.945   9.164
 2372POPC   GL132185  36.914  36.885   8.864
 2372POPC   GL232186  36.808  36.990   8.864
 2372POPC   C1A32187  36.883  36.855   8.564
 2372POPC   D2A32188  36.906  36.898   8.264
 2372POPC   C3A32189  36.885  36.883   7.964
 2372POPC   C4A32190  36.949  36.886   7.664
 2372POPC   C1B32191  36.786  37.093   8.564
 2372POPC   C2B32192  36.786  37.151   8.264
 2372POPC   C3B32193  36.763  37.057   7.964
 2372POPC   C4B32194  36.748  37.137   7.664
 2373POPC   NC332195  10.510  26.807   9.464
 2373POPC   PO432196  10.497  26.801   9.164
 2373POPC   GL132197  10.527  26.777   8.864
 2373POPC   GL232198  10.497  26.897   8.864
 2373POPC   C1A32199  10.504  26.828   8.564
 2373POPC   D2A32200  10.563  26.787   8.264
 2373POPC   C3A32201  10.549  26.809   7.964
 2373POPC   C4A32202  10.565  26.801   7.664
 2373POPC   C1B32203  10.463  27.013   8.564
 2373POPC   C2B32204  10.503  27.086   8.264
 2373POPC   C3B32205  10.443  27.069   7.964
 2373POPC   C4B32206  10.456  27.014   7.664
 2374POPC   NC332207   8.236  24.473   9.464
 2374POPC   PO432208   8.147  24.520   9.164
 2374POPC   GL132209   8.205  24.522   8.864
 2374POPC   GL232210   8.119  24.543   8.864
 2374POPC   C1A32211   8.244  24.504   8.564
 2374POPC   D2A32212   8.181  24.470   8.264
 2374POPC   C3A32213   8.203  24.443   7.964
 2374POPC   C4A32214   8.160  24.469   7.664
 2374POPC   C1B32215   7.970  24.515   8.564
 2374POPC   C2B32216   7.945  24.533   8.264
 2374POPC   C3B32217   7.927  24.568   7.964
 2374POPC   C4B32218   7.958  24.528   7.664
 2375POPC   NC332219  32.278  16.766   9.464
 2375POPC   PO432220  32.263  16.697   9.164
 2375POPC   GL132221  32.258  16.745   8.864
 2375POPC   GL232222  32.363  16.593   8.864
 2375POPC   C1A32223  32.298  16.743   8.564
 2375POPC   D2A32224  32.285  16.769   8.264
 2375POPC   C3A32225  32.285  16.682   7.964
 2375POPC   C4A32226  32.228  16.761   7.664
 2375POPC   C1B32227  32.430  16.533   8.564
 2375POPC   C2B32228  32.444  16.596   8.264
 2375POPC   C3B32229  32.451  16.533   7.964
 2375POPC   C4B32230  32.392  16.582   7.664
 2376POPC   NC332231  20.586  16.734   9.464
 2376POPC   PO432232  20.607  16.713   9.164
 2376POPC   GL132233  20.623  16.703   8.864
 2376POPC   GL232234  20.511  16.710   8.864
 2376POPC   C1A32235  20.564  16.681   8.564
 2376POPC   D2A32236  20.588  16.779   8.264
 2376POPC   C3A32237  20.643  16.765   7.964
 2376POPC   C4A32238  20.585  16.760   7.664
 2376POPC   C1B32239  20.353  16.731   8.564
 2376POPC   C2B32240  20.412  16.719   8.264
 2376POPC   C3B32241  20.393  16.657   7.964
 2376POPC   C4B32242  20.393  16.639   7.664
 2377POPC   NC332243   1.192  44.704   9.464
 2377POPC   PO432244   1.218  44.684   9.164
 2377POPC   GL132245   1.195  44.668   8.864
 2377POPC   GL232246   1.042  44.675   8.864
 2377POPC   C1A32247   1.183  44.619   8.564
 2377POPC   D2A32248   1.255  44.677   8.264
 2377POPC   C3A32249   1.196  44.712   7.964
 2377POPC   C4A32250   1.241  44.698   7.664
 2377POPC   C1B32251   1.014  44.700   8.564
 2377POPC   C2B32252   1.014  44.725   8.264
 2377POPC   C3B32253   0.994  44.732   7.964
 2377POPC   C4B32254   0.944  44.702   7.664
 2378POPC   NC332255  29.182  29.893   9.464
 2378POPC   PO432256  29.155  29.908   9.164
 2378POPC   GL132257  29.115  29.949   8.864
 2378POPC   GL232258  29.153  30.029   8.864
 2378POPC   C1A32259  29.130  29.965   8.564
 2378POPC   D2A32260  29.176  29.914   8.264
 2378POPC   C3A32261  29.184  29.910   7.964
 2378POPC   C4A32262  29.161  29.914   7.664
 2378POPC   C1B32263  29.139  30.141   8.564
 2378POPC   C2B32264  29.089  30.190   8.264
 2378POPC   C3B32265  29.053  30.177   7.964
 2378POPC   C4B32266  29.049  30.209   7.664
 2379POPC   NC332267  15.155  27.628   9.464
 2379POPC   PO432268  15.161  27.583   9.164
 2379POPC   GL132269  15.135  27.576   8.864
 2379POPC   GL232270  15.194  27.697   8.864
 2379POPC   C1A32271  15.222  27.591   8.564
 2379POPC   D2A32272  15.139  27.607   8.264
 2379POPC   C3A32273  15.179  27.611   7.964
 2379POPC   C4A32274  15.200  27.622   7.664
 2379POPC   C1B32275  15.211  27.802   8.564
 2379POPC   C2B32276  15.239  27.831   8.264
 2379POPC   C3B32277  15.281  27.865   7.964
 2379POPC   C4B32278  15.249  27.818   7.664
 2380POPC   NC332279  39.238  15.986   9.464
 2380POPC   PO432280  39.261  15.968   9.164
 2380POPC   GL132281  39.205  15.943   8.864
 2380POPC   GL232282  39.061  15.901   8.864
 2380POPC   C1A32283  39.200  16.002   8.564
 2380POPC   D2A32284  39.238  15.921   8.264
 2380POPC   C3A32285  39.237  15.931   7.964
 2380POPC   C4A32286  39.226  15.956   7.664
 2380POPC   C1B32287  38.978  15.919   8.564
 2380POPC   C2B32288  39.014  15.923   8.264
 2380POPC   C3B32289  38.967  15.906   7.964
 2380POPC   C4B32290  38.960  15.921   7.664
 2381POPC   NC332291   1.174  31.510   9.464
 2381POPC   PO432292   1.194  31.505   9.164
 2381POPC   GL132293   1.166  31.494   8.864
 2381POPC   GL232294   1.063  31.502   8.864
 2381POPC   C1A32295   1.175  31.448   8.564
 2381POPC   D2A32296   1.247  31.461   8.264
 2381POPC   C3A32297   1.219  31.500   7.964
 2381POPC   C4A32298   1.262  31.470   7.664
 2381POPC   C1B32299   0.955  31.597   8.564
 2381POPC   C2B32300   0.983  31.566   8.264
 2381POPC   C3B32301   1.010  31.626   7.964
 2381POPC   C4B32302   1.036  31.580   7.664
 2382POPC   NC332303  25.249   5.107   9.464
 2382POPC   PO432304  25.296   5.093   9.164
 2382POPC   GL132305  25.303   5.084   8.864
 2382POPC   GL232306  25.239   4.970   8.864
 2382POPC   C1A32307  25.243   5.061   8.564
 2382POPC   D2A32308  25.270   5.140   8.264
 2382POPC   C3A32309  25.229   5.118   7.964
 2382POPC   C4A32310  25.223   5.045   7.664
 2382POPC   C1B32311  25.238   4.799   8.564
 2382POPC   C2B32312  25.245   4.855   8.264
 2382POPC   C3B32313  25.263   4.813   7.964
 2382POPC   C4B32314  25.246   4.836   7.664
 2383POPC   NC332315  24.535  40.751   9.464
 2383POPC   PO432316  24.451  40.812   9.164
 2383POPC   GL132317  24.479  40.778   8.864
 2383POPC   GL232318  24.324  40.777   8.864
 2383POPC   C1A32319  24.480  40.771   8.564
 2383POPC   D2A32320  24.524  40.823   8.264
 2383POPC   C3A32321  24.486  40.800   7.964
 2383POPC   C4A32322  24.440  40.828   7.664
 2383POPC   C1B32323  24.274  40.724   8.564
 2383POPC   C2B32324  24.204  40.719   8.264
 2383POPC   C3B32325  24.222  40.730   7.964
 2383POPC   C4B32326  24.277  40.672   7.664
 2384POPC   NC332327   7.427   9.795   9.464
 2384POPC   PO432328   7.377   9.716   9.164
 2384POPC   GL132329   7.413   9.729   8.864
 2384POPC   GL232330   7.488   9.854   8.864
 2384POPC   C1A32331   7.443   9.759   8.564
 2384POPC   D2A32332   7.464   9.780   8.264
 2384POPC   C3A32333   7.398   9.739   7.964
 2384POPC   C4A32334   7.447   9.735   7.664
 2384POPC   C1B32335   7.652   9.888   8.564
 2384POPC   C2B32336   7.622   9.892   8.264
 2384POPC   C3B32337   7.617   9.884   7.964
 2384POPC   C4B32338   7.629   9.859   7.664
 2385POPC   NC332339  15.205  13.595   9.464
 2385POPC   PO432340  15.165  13.635   9.164
 2385POPC   GL132341  15.194  13.618   8.864
 2385POPC   GL232342  15.314  13.599   8.864
 2385POPC   C1A32343  15.206  13.673   8.564
 2385POPC   D2A32344  15.219  13.674   8.264
 2385POPC   C3A32345  15.187  13.647   7.964
 2385POPC   C4A32346  15.210  13.638   7.664
 2385POPC   C1B32347  15.398  13.614   8.564
 2385POPC   C2B32348  15.416  13.536   8.264
 2385POPC   C3B32349  15.443  13.593   7.964
 2385POPC   C4B32350  15.376  13.531   7.664
 2386POPC   NC332351   1.199   2.011   9.464
 2386POPC   PO432352   1.245   1.987   9.164
 2386POPC   GL132353   1.231   1.967   8.864
 2386POPC   GL232354   1.154   1.870   8.864
 2386POPC   C1A32355   1.166   2.039   8.564
 2386POPC   D2A32356   1.236   1.956   8.264
 2386POPC   C3A32357   1.201   1.982   7.964
 2386POPC   C4A32358   1.196   1.955   7.664
 2386POPC   C1B32359   1.062   1.805   8.564
 2386POPC   C2B32360   1.058   1.848   8.264
 2386POPC   C3B32361   1.052   1.806   7.964
 2386POPC   C4B32362   1.052   1.791   7.664
 2387POPC   NC332363  27.558  26.021   9.464
 2387POPC   PO432364  27.630  26.063   9.164
 2387POPC   GL132365  27.627  26.010   8.864
 2387POPC   GL232366  27.580  26.159   8.864
 2387POPC   C1A32367  27.543  26.026   8.564
 2387POPC   D2A32368  27.613  25.997   8.264
 2387POPC   C3A32369  27.573  26.044   7.964
 2387POPC   C4A32370  27.612  26.006   7.664
 2387POPC   C1B32371  27.546  26.321   8.564
 2387POPC   C2B32372  27.586  26.308   8.264
 2387POPC   C3B32373  27.632  26.246   7.964
 2387POPC   C4B32374  27.592  26.278   7.664
 2388POPC   NC332375  11.259  28.353   9.464
 2388POPC   PO432376  11.280  28.364   9.164
 2388POPC   GL132377  11.313  28.387   8.864
 2388POPC   GL232378  11.146  28.316   8.864
 2388POPC   C1A32379  11.312  28.379   8.564
 2388POPC   D2A32380  11.319  28.350   8.264
 2388POPC   C3A32381  11.315  28.354   7.964
 2388POPC   C4A32382  11.270  28.375   7.664
 2388POPC   C1B32383  11.042  28.259   8.564
 2388POPC   C2B32384  11.087  28.297   8.264
 2388POPC   C3B32385  11.105  28.261   7.964
 2388POPC   C4B32386  11.108  28.278   7.664
 2389POPC   NC332387  17.501   8.999   9.464
 2389POPC   PO432388  17.511   8.978   9.164
 2389POPC   GL132389  17.463   8.923   8.864
 2389POPC   GL232390  17.593   9.006   8.864
 2389POPC   C1A32391  17.481   8.927   8.564
 2389POPC   D2A32392  17.515   9.004   8.264
 2389POPC   C3A32393  17.486   8.927   7.964
 2389POPC   C4A32394  17.467   8.983   7.664
 2389POPC   C1B32395  17.725   8.982   8.564
 2389POPC   C2B32396  17.801   9.011   8.264
 2389POPC   C3B32397  17.704   8.983   7.964
 2389POPC   C4B32398  17.769   8.973   7.664
 2390POPC   NC332399  19.077  19.785   9.464
 2390POPC   PO432400  19.096  19.863   9.164
 2390POPC   GL132401  19.070  19.810   8.864
 2390POPC   GL232402  19.146  19.742   8.864
 2390POPC   C1A32403  19.081  19.859   8.564
 2390POPC   D2A32404  19.106  19.851   8.264
 2390POPC   C3A32405  19.051  19.856   7.964
 2390POPC   C4A32406  19.066  19.815   7.664
 2390POPC   C1B32407  19.225  19.669   8.564
 2390POPC   C2B32408  19.230  19.662   8.264
 2390POPC   C3B32409  19.265  19.626   7.964
 2390POPC   C4B32410  19.272  19.624   7.664
 2391POPC   NC332411   2.728  39.246   9.464
 2391POPC   PO432412   2.811  39.257   9.164
 2391POPC   GL132413   2.766  39.250   8.864
 2391POPC   GL232414   2.648  39.308   8.864
 2391POPC   C1A32415   2.799  39.235   8.564
 2391POPC   D2A32416   2.724  39.211   8.264
 2391POPC   C3A32417   2.753  39.267   7.964
 2391POPC   C4A32418   2.728  39.230   7.664
 2391POPC   C1B32419   2.556  39.393   8.564
 2391POPC   C2B32420   2.580  39.344   8.264
 2391POPC   C3B32421   2.541  39.426   7.964
 2391POPC   C4B32422   2.599  39.395   7.664
 2392POPC   NC332423  13.661  18.303   9.464
 2392POPC   PO432424  13.657  18.305   9.164
 2392POPC   GL132425  13.676  18.291   8.864
 2392POPC   GL232426  13.514  18.210   8.864
 2392POPC   C1A32427  13.638  18.306   8.564
 2392POPC   D2A32428  13.596  18.291   8.264
 2392POPC   C3A32429  13.616  18.308   7.964
 2392POPC   C4A32430  13.601  18.248   7.664
 2392POPC   C1B32431  13.513  18.091   8.564
 2392POPC   C2B32432  13.488  18.085   8.264
 2392POPC   C3B32433  13.485  18.059   7.964
 2392POPC   C4B32434  13.454  18.107   7.664
 2393POPC   NC332435  25.231  42.366   9.464
 2393POPC   PO432436  25.240  42.327   9.164
 2393POPC   GL132437  25.261  42.379   8.864
 2393POPC   GL232438  25.129  42.438   8.864
 2393POPC   C1A32439  25.296  42.376   8.564
 2393POPC   D2A32440  25.267  42.332   8.264
 2393POPC   C3A32441  25.254  42.363   7.964
 2393POPC   C4A32442  25.245  42.357   7.664
 2393POPC   C1B32443  25.024  42.441   8.564
 2393POPC   C2B32444  25.079  42.520   8.264
 2393POPC   C3B32445  25.049  42.525   7.964
 2393POPC   C4B32446  25.019  42.453   7.664
 2394POPC   NC332447  38.459  34.568   9.464
 2394POPC   PO432448  38.431  34.562   9.164
 2394POPC   GL132449  38.441  34.600   8.864
 2394POPC   GL232450  38.432  34.511   8.864
 2394POPC   C1A32451  38.445  34.623   8.564
 2394POPC   D2A32452  38.430  34.602   8.264
 2394POPC   C3A32453  38.490  34.535   7.964
 2394POPC   C4A32454  38.491  34.608   7.664
 2394POPC   C1B32455  38.345  34.342   8.564
 2394POPC   C2B32456  38.358  34.381   8.264
 2394POPC   C3B32457  38.293  34.418   7.964
 2394POPC   C4B32458  38.303  34.347   7.664
 2395POPC   NC332459  17.543   4.298   9.464
 2395POPC   PO432460  17.552   4.291   9.164
 2395POPC   GL132461  17.463   4.330   8.864
 2395POPC   GL232462  17.538   4.143   8.864
 2395POPC   C1A32463  17.463   4.320   8.564
 2395POPC   D2A32464  17.497   4.349   8.264
 2395POPC   C3A32465  17.490   4.340   7.964
 2395POPC   C4A32466  17.500   4.285   7.664
 2395POPC   C1B32467  17.500   4.026   8.564
 2395POPC   C2B32468  17.465   4.112   8.264
 2395POPC   C3B32469  17.481   4.054   7.964
 2395POPC   C4B32470  17.514   4.046   7.664
 2396POPC   NC332471  13.655  42.302   9.464
 2396POPC   PO432472  13.613  42.292   9.164
 2396POPC   GL132473  13.651  42.289   8.864
 2396POPC   GL232474  13.776  42.353   8.864
 2396POPC   C1A32475  13.597  42.325   8.564
 2396POPC   D2A32476  13.578  42.379   8.264
 2396POPC   C3A32477  13.654  42.320   7.964
 2396POPC   C4A32478  13.634  42.307   7.664
 2396POPC   C1B32479  13.886  42.460   8.564
 2396POPC   C2B32480  13.809  42.474   8.264
 2396POPC   C3B32481  13.833  42.449   7.964
 2396POPC   C4B32482  13.870  42.469   7.664
 2397POPC   NC332483   0.424  11.314   9.464
 2397POPC   PO432484   0.460  11.316   9.164
 2397POPC   GL132485   0.467  11.253   8.864
 2397POPC   GL232486   0.542  11.306   8.864
 2397POPC   C1A32487   0.460  11.283   8.564
 2397POPC   D2A32488   0.410  11.349   8.264
 2397POPC   C3A32489   0.437  11.337   7.964
 2397POPC   C4A32490   0.472  11.333   7.664
 2397POPC   C1B32491   0.683  11.246   8.564
 2397POPC   C2B32492   0.669  11.212   8.264
 2397POPC   C3B32493   0.646  11.175   7.964
 2397POPC   C4B32494   0.634  11.264   7.664
 2398POPC   NC332495  18.251   7.398   9.464
 2398POPC   PO432496  18.306   7.396   9.164
 2398POPC   GL132497  18.288   7.387   8.864
 2398POPC   GL232498  18.361   7.348   8.864
 2398POPC   C1A32499  18.248   7.407   8.564
 2398POPC   D2A32500  18.244   7.383   8.264
 2398POPC   C3A32501  18.298   7.386   7.964
 2398POPC   C4A32502  18.249   7.397   7.664
 2398POPC   C1B32503  18.459   7.212   8.564
 2398POPC   C2B32504  18.397   7.228   8.264
 2398POPC   C3B32505  18.448   7.185   7.964
 2398POPC   C4B32506  18.492   7.260   7.664
 2399POPC   NC332507  36.151  36.931   9.464
 2399POPC   PO432508  36.126  36.894   9.164
 2399POPC   GL132509  36.130  36.867   8.864
 2399POPC   GL232510  36.225  36.976   8.864
 2399POPC   C1A32511  36.173  36.911   8.564
 2399POPC   D2A32512  36.145  36.921   8.264
 2399POPC   C3A32513  36.153  36.876   7.964
 2399POPC   C4A32514  36.173  36.923   7.664
 2399POPC   C1B32515  36.227  37.161   8.564
 2399POPC   C2B32516  36.252  37.133   8.264
 2399POPC   C3B32517  36.239  37.101   7.964
 2399POPC   C4B32518  36.279  37.084   7.664
 2400POPC   NC332519  14.420  40.009   9.464
 2400POPC   PO432520  14.359  40.006   9.164
 2400POPC   GL132521  14.402  39.971   8.864
 2400POPC   GL232522  14.321  40.034   8.864
 2400POPC   C1A32523  14.443  40.053   8.564
 2400POPC   D2A32524  14.371  39.989   8.264
 2400POPC   C3A32525  14.436  39.972   7.964
 2400POPC   C4A32526  14.453  40.008   7.664
 2400POPC   C1B32527  14.150  40.104   8.564
 2400POPC   C2B32528  14.176  40.031   8.264
 2400POPC   C3B32529  14.131  40.080   7.964
 2400POPC   C4B32530  14.185  40.100   7.664
 2401POPC   NC332531  41.603   4.362   9.464
 2401POPC   PO432532  41.556   4.331   9.164
 2401POPC   GL132533  41.593   4.283   8.864
 2401POPC   GL232534  41.651   4.402   8.864
 2401POPC   C1A32535  41.587   4.284   8.564
 2401POPC   D2A32536  41.561   4.323   8.264
 2401POPC   C3A32537  41.542   4.343   7.964
 2401POPC   C4A32538  41.523   4.273   7.664
 2401POPC   C1B32539  41.685   4.556   8.564
 2401POPC   C2B32540  41.639   4.570   8.264
 2401POPC   C3B32541  41.695   4.506   7.964
 2401POPC   C4B32542  41.649   4.596   7.664
 2402POPC   NC332543  32.273   2.040   9.464
 2402POPC   PO432544  32.239   2.025   9.164
 2402POPC   GL132545  32.261   1.992   8.864
 2402POPC   GL232546  32.367   1.866   8.864
 2402POPC   C1A32547  32.222   1.940   8.564
 2402POPC   D2A32548  32.213   2.035   8.264
 2402POPC   C3A32549  32.269   1.974   7.964
 2402POPC   C4A32550  32.276   2.000   7.664
 2402POPC   C1B32551  32.402   1.849   8.564
 2402POPC   C2B32552  32.441   1.777   8.264
 2402POPC   C3B32553  32.403   1.791   7.964
 2402POPC   C4B32554  32.474   1.778   7.664
 2403POPC   NC332555  42.374   1.192   9.464
 2403POPC   PO432556  42.320   1.256   9.164
 2403POPC   GL132557  42.375   1.183   8.864
 2403POPC   GL232558  42.402   1.286   8.864
 2403POPC   C1A32559  42.340   1.216   8.564
 2403POPC   D2A32560  42.340   1.242   8.264
 2403POPC   C3A32561  42.321   1.179   7.964
 2403POPC   C4A32562  42.320   1.197   7.664
 2403POPC   C1B32563  42.415   1.482   8.564
 2403POPC   C2B32564  42.437   1.412   8.264
 2403POPC   C3B32565  42.441   1.408   7.964
 2403POPC   C4B32566  42.396   1.444   7.664
 2404POPC   NC332567   1.199  19.789   9.464
 2404POPC   PO432568   1.241  19.822   9.164
 2404POPC   GL132569   1.253  19.827   8.864
 2404POPC   GL232570   1.095  19.725   8.864
 2404POPC   C1A32571   1.217  19.854   8.564
 2404POPC   D2A32572   1.248  19.823   8.264
 2404POPC   C3A32573   1.252  19.790   7.964
 2404POPC   C4A32574   1.242  19.861   7.664
 2404POPC   C1B32575   1.066  19.623   8.564
 2404POPC   C2B32576   1.026  19.643   8.264
 2404POPC   C3B32577   1.056  19.699   7.964
 2404POPC   C4B32578   1.038  19.632   7.664
 2405POPC   NC332579  33.849   4.269   9.464
 2405POPC   PO432580  33.827   4.278   9.164
 2405POPC   GL132581  33.822   4.268   8.864
 2405POPC   GL232582  33.689   4.254   8.864
 2405POPC   C1A32583  33.814   4.326   8.564
 2405POPC   D2A32584  33.845   4.322   8.264
 2405POPC   C3A32585  33.834   4.341   7.964
 2405POPC   C4A32586  33.824   4.337   7.664
 2405POPC   C1B32587  33.688   4.152   8.564
 2405POPC   C2B32588  33.641   4.062   8.264
 2405POPC   C3B32589  33.620   4.150   7.964
 2405POPC   C4B32590  33.660   4.147   7.664
 2406POPC   NC332591  25.223   0.442   9.464
 2406POPC   PO432592  25.247   0.476   9.164
 2406POPC   GL132593  25.289   0.436   8.864
 2406POPC   GL232594  25.167   0.461   8.864
 2406POPC   C1A32595  25.304   0.433   8.564
 2406POPC   D2A32596  25.312   0.450   8.264
 2406POPC   C3A32597  25.282   0.442   7.964
 2406POPC   C4A32598  25.251   0.463   7.664
 2406POPC   C1B32599  25.018   0.419   8.564
 2406POPC   C2B32600  25.035   0.475   8.264
 2406POPC   C3B32601  24.997   0.437   7.964
 2406POPC   C4B32602  25.039   0.446   7.664
 2407POPC   NC332603  20.654  12.880   9.464
 2407POPC   PO432604  20.618  12.838   9.164
 2407POPC   GL132605  20.596  12.831   8.864
 2407POPC   GL232606  20.781  12.792   8.864
 2407POPC   C1A32607  20.563  12.886   8.564
 2407POPC   D2A32608  20.627  12.899   8.264
 2407POPC   C3A32609  20.625  12.889   7.964
 2407POPC   C4A32610  20.635  12.895   7.664
 2407POPC   C1B32611  20.862  12.858   8.564
 2407POPC   C2B32612  20.825  12.831   8.264
 2407POPC   C3B32613  20.833  12.821   7.964
 2407POPC   C4B32614  20.832  12.778   7.664
 2408POPC   NC332615  43.102   8.201   9.464
 2408POPC   PO432616  43.119   8.214   9.164
 2408POPC   GL132617  43.156   8.227   8.864
 2408POPC   GL232618  42.983   8.141   8.864
 2408POPC   C1A32619  43.091   8.215   8.564
 2408POPC   D2A32620  43.068   8.236   8.264
 2408POPC   C3A32621  43.135   8.153   7.964
 2408POPC   C4A32622  43.089   8.227   7.664
 2408POPC   C1B32623  42.905   8.147   8.564
 2408POPC   C2B32624  42.891   8.168   8.264
 2408POPC   C3B32625  42.913   8.149   7.964
 2408POPC   C4B32626  42.822   8.126   7.664
 2409POPC   NC332627  39.982  40.753   9.464
 2409POPC   PO432628  39.980  40.748   9.164
 2409POPC   GL132629  40.035  40.733   8.864
 2409POPC   GL232630  40.044  40.680   8.864
 2409POPC   C1A32631  39.981  40.767   8.564
 2409POPC   D2A32632  40.056  40.829   8.264
 2409POPC   C3A32633  40.043  40.765   7.964
 2409POPC   C4A32634  39.958  40.818   7.664
 2409POPC   C1B32635  40.202  40.610   8.564
 2409POPC   C2B32636  40.170  40.567   8.264
 2409POPC   C3B32637  40.177  40.575   7.964
 2409POPC   C4B32638  40.168  40.643   7.664
 2410POPC   NC332639  15.130  43.116   9.464
 2410POPC   PO432640  15.171  43.147   9.164
 2410POPC   GL132641  15.160  43.108   8.864
 2410POPC   GL232642  15.076  43.209   8.864
 2410POPC   C1A32643  15.155  43.102   8.564
 2410POPC   D2A32644  15.188  43.147   8.264
 2410POPC   C3A32645  15.148  43.081   7.964
 2410POPC   C4A32646  15.134  43.099   7.664
 2410POPC   C1B32647  14.913  43.224   8.564
 2410POPC   C2B32648  14.944  43.188   8.264
 2410POPC   C3B32649  14.970  43.229   7.964
 2410POPC   C4B32650  14.985  43.244   7.664
 2411POPC   NC332651  11.341  26.057   9.464
 2411POPC   PO432652  11.315  25.995   9.164
 2411POPC   GL132653  11.288  26.028   8.864
 2411POPC   GL232654  11.189  26.073   8.864
 2411POPC   C1A32655  11.327  26.061   8.564
 2411POPC   D2A32656  11.260  26.067   8.264
 2411POPC   C3A32657  11.293  26.052   7.964
 2411POPC   C4A32658  11.326  25.998   7.664
 2411POPC   C1B32659  11.077  26.160   8.564
 2411POPC   C2B32660  11.135  26.159   8.264
 2411POPC   C3B32661  11.117  26.189   7.964
 2411POPC   C4B32662  11.146  26.172   7.664
 2412POPC   NC332663  22.193  16.730   9.464
 2412POPC   PO432664  22.179  16.754   9.164
 2412POPC   GL132665  22.184  16.730   8.864
 2412POPC   GL232666  22.066  16.810   8.864
 2412POPC   C1A32667  22.115  16.758   8.564
 2412POPC   D2A32668  22.155  16.781   8.264
 2412POPC   C3A32669  22.117  16.758   7.964
 2412POPC   C4A32670  22.167  16.730   7.664
 2412POPC   C1B32671  21.982  16.891   8.564
 2412POPC   C2B32672  21.961  16.867   8.264
 2412POPC   C3B32673  21.970  16.900   7.964
 2412POPC   C4B32674  21.982  16.914   7.664
 2413POPC   NC332675   3.557  33.036   9.464
 2413POPC   PO432676   3.586  33.007   9.164
 2413POPC   GL132677   3.522  33.066   8.864
 2413POPC   GL232678   3.381  33.032   8.864
 2413POPC   C1A32679   3.533  33.019   8.564
 2413POPC   D2A32680   3.547  33.012   8.264
 2413POPC   C3A32681   3.569  33.062   7.964
 2413POPC   C4A32682   3.535  33.004   7.664
 2413POPC   C1B32683   3.260  32.974   8.564
 2413POPC   C2B32684   3.300  32.975   8.264
 2413POPC   C3B32685   3.334  32.935   7.964
 2413POPC   C4B32686   3.313  33.010   7.664
 2414POPC   NC332687   5.913  42.320   9.464
 2414POPC   PO432688   5.838  42.324   9.164
 2414POPC   GL132689   5.861  42.304   8.864
 2414POPC   GL232690   5.805  42.308   8.864
 2414POPC   C1A32691   5.861  42.305   8.564
 2414POPC   D2A32692   5.848  42.306   8.264
 2414POPC   C3A32693   5.848  42.335   7.964
 2414POPC   C4A32694   5.863  42.340   7.664
 2414POPC   C1B32695   5.597  42.233   8.564
 2414POPC   C2B32696   5.663  42.208   8.264
 2414POPC   C3B32697   5.618  42.196   7.964
 2414POPC   C4B32698   5.597  42.222   7.664
 2415POPC   NC332699  16.714  29.182   9.464
 2415POPC   PO432700  16.743  29.122   9.164
 2415POPC   GL132701  16.739  29.099   8.864
 2415POPC   GL232702  16.859  29.209   8.864
 2415POPC   C1A32703  16.708  29.185   8.564
 2415POPC   D2A32704  16.732  29.105   8.264
 2415POPC   C3A32705  16.747  29.143   7.964
 2415POPC   C4A32706  16.781  29.136   7.664
 2415POPC   C1B32707  16.973  29.292   8.564
 2415POPC   C2B32708  16.967  29.263   8.264
 2415POPC   C3B32709  16.913  29.286   7.964
 2415POPC   C4B32710  16.983  29.312   7.664
 2416POPC   NC332711  26.855  19.860   9.464
 2416POPC   PO432712  26.818  19.842   9.164
 2416POPC   GL132713  26.786  19.829   8.864
 2416POPC   GL232714  26.697  19.854   8.864
 2416POPC   C1A32715  26.785  19.793   8.564
 2416POPC   D2A32716  26.846  19.857   8.264
 2416POPC   C3A32717  26.847  19.842   7.964
 2416POPC   C4A32718  26.856  19.839   7.664
 2416POPC   C1B32719  26.541  19.872   8.564
 2416POPC   C2B32720  26.535  19.863   8.264
 2416POPC   C3B32721  26.614  19.890   7.964
 2416POPC   C4B32722  26.549  19.899   7.664
 2417POPC   NC332723  42.315   2.020   9.464
 2417POPC   PO432724  42.372   1.951   9.164
 2417POPC   GL132725  42.350   2.027   8.864
 2417POPC   GL232726  42.288   1.905   8.864
 2417POPC   C1A32727  42.381   2.012   8.564
 2417POPC   D2A32728  42.285   1.997   8.264
 2417POPC   C3A32729  42.376   1.991   7.964
 2417POPC   C4A32730  42.333   2.038   7.664
 2417POPC   C1B32731  42.203   1.812   8.564
 2417POPC   C2B32732  42.164   1.845   8.264
 2417POPC   C3B32733  42.140   1.818   7.964
 2417POPC   C4B32734  42.181   1.832   7.664
 2418POPC   NC332735  15.956  44.706   9.464
 2418POPC   PO432736  15.951  44.629   9.164
 2418POPC   GL132737  15.920  44.684   8.864
 2418POPC   GL232738  15.933  44.560   8.864
 2418POPC   C1A32739  15.943  44.632   8.564
 2418POPC   D2A32740  15.956  44.641   8.264
 2418POPC   C3A32741  16.001  44.674   7.964
 2418POPC   C4A32742  15.911  44.661   7.664
 2418POPC   C1B32743  15.824  44.439   8.564
 2418POPC   C2B32744  15.842  44.431   8.264
 2418POPC   C3B32745  15.881  44.414   7.964
 2418POPC   C4B32746  15.844  44.454   7.664
 2419POPC   NC332747  26.039  14.397   9.464
 2419POPC   PO432748  26.083  14.443   9.164
 2419POPC   GL132749  26.025  14.401   8.864
 2419POPC   GL232750  25.963  14.417   8.864
 2419POPC   C1A32751  26.063  14.387   8.564
 2419POPC   D2A32752  26.068  14.452   8.264
 2419POPC   C3A32753  26.037  14.359   7.964
 2419POPC   C4A32754  26.038  14.426   7.664
 2419POPC   C1B32755  25.787  14.575   8.564
 2419POPC   C2B32756  25.822  14.537   8.264
 2419POPC   C3B32757  25.827  14.507   7.964
 2419POPC   C4B32758  25.804  14.527   7.664
 2420POPC   NC332759   6.650  44.657   9.464
 2420POPC   PO432760   6.682  44.616   9.164
 2420POPC   GL132761   6.596  44.688   8.864
 2420POPC   GL232762   6.721  44.533   8.864
 2420POPC   C1A32763   6.647  44.647   8.564
 2420POPC   D2A32764   6.656  44.667   8.264
 2420POPC   C3A32765   6.656  44.646   7.964
 2420POPC   C4A32766   6.692  44.698   7.664
 2420POPC   C1B32767   6.764  44.452   8.564
 2420POPC   C2B32768   6.804  44.453   8.264
 2420POPC   C3B32769   6.748  44.411   7.964
 2420POPC   C4B32770   6.722  44.432   7.664
 2421POPC   NC332771  12.108  17.499   9.464
 2421POPC   PO432772  12.040  17.472   9.164
 2421POPC   GL132773  12.057  17.475   8.864
 2421POPC   GL232774  12.022  17.380   8.864
 2421POPC   C1A32775  12.120  17.540   8.564
 2421POPC   D2A32776  12.106  17.496   8.264
 2421POPC   C3A32777  12.088  17.458   7.964
 2421POPC   C4A32778  12.036  17.489   7.664
 2421POPC   C1B32779  11.964  17.293   8.564
 2421POPC   C2B32780  12.015  17.287   8.264
 2421POPC   C3B32781  11.941  17.232   7.964
 2421POPC   C4B32782  11.955  17.280   7.664
 2422POPC   NC332783  25.272  16.760   9.464
 2422POPC   PO432784  25.264  16.747   9.164
 2422POPC   GL132785  25.230  16.713   8.864
 2422POPC   GL232786  25.345  16.601   8.864
 2422POPC   C1A32787  25.274  16.725   8.564
 2422POPC   D2A32788  25.251  16.760   8.264
 2422POPC   C3A32789  25.245  16.704   7.964
 2422POPC   C4A32790  25.306  16.689   7.664
 2422POPC   C1B32791  25.327  16.484   8.564
 2422POPC   C2B32792  25.395  16.520   8.264
 2422POPC   C3B32793  25.395  16.535   7.964
 2422POPC   C4B32794  25.405  16.459   7.664
 2423POPC   NC332795   2.798  41.591   9.464
 2423POPC   PO432796   2.720  41.577   9.164
 2423POPC   GL132797   2.755  41.536   8.864
 2423POPC   GL232798   2.669  41.494   8.864
 2423POPC   C1A32799   2.804  41.514   8.564
 2423POPC   D2A32800   2.814  41.598   8.264
 2423POPC   C3A32801   2.771  41.526   7.964
 2423POPC   C4A32802   2.761  41.520   7.664
 2423POPC   C1B32803   2.609  41.335   8.564
 2423POPC   C2B32804   2.574  41.391   8.264
 2423POPC   C3B32805   2.607  41.338   7.964
 2423POPC   C4B32806   2.571  41.373   7.664
 2424POPC   NC332807  18.331  26.017   9.464
 2424POPC   PO432808  18.244  26.086   9.164
 2424POPC   GL132809  18.278  26.066   8.864
 2424POPC   GL232810  18.185  26.048   8.864
 2424POPC   C1A32811  18.296  26.014   8.564
 2424POPC   D2A32812  18.273  26.053   8.264
 2424POPC   C3A32813  18.238  26.044   7.964
 2424POPC   C4A32814  18.302  26.009   7.664
 2424POPC   C1B32815  18.038  26.066   8.564
 2424POPC   C2B32816  18.040  26.071   8.264
 2424POPC   C3B32817  18.065  26.075   7.964
 2424POPC   C4B32818  18.079  26.106   7.664
 2425POPC   NC332819  37.685  31.440   9.464
 2425POPC   PO432820  37.662  31.426   9.164
 2425POPC   GL132821  37.682  31.460   8.864
 2425POPC   GL232822  37.765  31.604   8.864
 2425POPC   C1A32823  37.664  31.479   8.564
 2425POPC   D2A32824  37.696  31.475   8.264
 2425POPC   C3A32825  37.651  31.504   7.964
 2425POPC   C4A32826  37.693  31.423   7.664
 2425POPC   C1B32827  37.875  31.607   8.564
 2425POPC   C2B32828  37.889  31.636   8.264
 2425POPC   C3B32829  37.814  31.625   7.964
 2425POPC   C4B32830  37.836  31.682   7.664
 2426POPC   NC332831  27.576  26.769   9.464
 2426POPC   PO432832  27.619  26.781   9.164
 2426POPC   GL132833  27.564  26.778   8.864
 2426POPC   GL232834  27.632  26.977   8.864
 2426POPC   C1A32835  27.632  26.862   8.564
 2426POPC   D2A32836  27.575  26.786   8.264
 2426POPC   C3A32837  27.636  26.866   7.964
 2426POPC   C4A32838  27.625  26.812   7.664
 2426POPC   C1B32839  27.696  27.007   8.564
 2426POPC   C2B32840  27.676  27.042   8.264
 2426POPC   C3B32841  27.642  27.082   7.964
 2426POPC   C4B32842  27.704  27.083   7.664
 2427POPC   NC332843   8.951  15.935   9.464
 2427POPC   PO432844   8.972  15.998   9.164
 2427POPC   GL132845   8.956  15.990   8.864
 2427POPC   GL232846   9.140  15.970   8.864
 2427POPC   C1A32847   9.007  15.975   8.564
 2427POPC   D2A32848   8.964  15.950   8.264
 2427POPC   C3A32849   8.998  15.924   7.964
 2427POPC   C4A32850   8.941  15.959   7.664
 2427POPC   C1B32851   9.269  15.900   8.564
 2427POPC   C2B32852   9.174  15.920   8.264
 2427POPC   C3B32853   9.265  15.957   7.964
 2427POPC   C4B32854   9.264  15.960   7.664
 2428POPC   NC332855  38.463  33.840   9.464
 2428POPC   PO432856  38.427  33.848   9.164
 2428POPC   GL132857  38.407  33.809   8.864
 2428POPC   GL232858  38.476  33.911   8.864
 2428POPC   C1A32859  38.478  33.762   8.564
 2428POPC   D2A32860  38.458  33.817   8.264
 2428POPC   C3A32861  38.409  33.796   7.964
 2428POPC   C4A32862  38.505  33.807   7.664
 2428POPC   C1B32863  38.569  34.040   8.564
 2428POPC   C2B32864  38.604  33.981   8.264
 2428POPC   C3B32865  38.617  34.009   7.964
 2428POPC   C4B32866  38.631  34.026   7.664
 2429POPC   NC332867  14.354  14.400   9.464
 2429POPC   PO432868  14.447  14.390   9.164
 2429POPC   GL132869  14.360  14.383   8.864
 2429POPC   GL232870  14.277  14.356   8.864
 2429POPC   C1A32871  14.447  14.450   8.564
 2429POPC   D2A32872  14.370  14.384   8.264
 2429POPC   C3A32873  14.447  14.401   7.964
 2429POPC   C4A32874  14.434  14.426   7.664
 2429POPC   C1B32875  14.235  14.227   8.564
 2429POPC   C2B32876  14.168  14.265   8.264
 2429POPC   C3B32877  14.155  14.296   7.964
 2429POPC   C4B32878  14.150  14.287   7.664
 2430POPC   NC332879  22.210  28.362   9.464
 2430POPC   PO432880  22.140  28.323   9.164
 2430POPC   GL132881  22.194  28.353   8.864
 2430POPC   GL232882  22.240  28.268   8.864
 2430POPC   C1A32883  22.141  28.375   8.564
 2430POPC   D2A32884  22.172  28.412   8.264
 2430POPC   C3A32885  22.153  28.408   7.964
 2430POPC   C4A32886  22.194  28.396   7.664
 2430POPC   C1B32887  22.337  28.116   8.564
 2430POPC   C2B32888  22.286  28.153   8.264
 2430POPC   C3B32889  22.286  28.173   7.964
 2430POPC   C4B32890  22.245  28.196   7.664
 2431POPC   NC332891  28.373  35.323   9.464
 2431POPC   PO432892  28.413  35.366   9.164
 2431POPC   GL132893  28.384  35.304   8.864
 2431POPC   GL232894  28.356  35.435   8.864
 2431POPC   C1A32895  28.377  35.352   8.564
 2431POPC   D2A32896  28.378  35.319   8.264
 2431POPC   C3A32897  28.397  35.308   7.964
 2431POPC   C4A32898  28.340  35.331   7.664
 2431POPC   C1B32899  28.332  35.622   8.564
 2431POPC   C2B32900  28.368  35.562   8.264
 2431POPC   C3B32901  28.341  35.583   7.964
 2431POPC   C4B32902  28.321  35.568   7.664
 2432POPC   NC332903   6.600   0.473   9.464
 2432POPC   PO432904   6.643   0.475   9.164
 2432POPC   GL132905   6.688   0.450   8.864
 2432POPC   GL232906   6.490   0.430   8.864
 2432POPC   C1A32907   6.687   0.444   8.564
 2432POPC   D2A32908   6.606   0.397   8.264
 2432POPC   C3A32909   6.642   0.406   7.964
 2432POPC   C4A32910   6.658   0.437   7.664
 2432POPC   C1B32911   6.423   0.448   8.564
 2432POPC   C2B32912   6.428   0.463   8.264
 2432POPC   C3B32913   6.426   0.460   7.964
 2432POPC   C4B32914   6.388   0.457   7.664
 2433POPC   NC332915  23.716   0.414   9.464
 2433POPC   PO432916  23.721   0.392   9.164
 2433POPC   GL132917  23.726   0.462   8.864
 2433POPC   GL232918  23.764   0.351   8.864
 2433POPC   C1A32919  23.731   0.474   8.564
 2433POPC   D2A32920  23.762   0.432   8.264
 2433POPC   C3A32921  23.678   0.471   7.964
 2433POPC   C4A32922  23.698   0.442   7.664
 2433POPC   C1B32923  23.749   0.234   8.564
 2433POPC   C2B32924  23.705   0.196   8.264
 2433POPC   C3B32925  23.719   0.216   7.964
 2433POPC   C4B32926  23.730   0.144   7.664
 2434POPC   NC332927  10.522   8.943   9.464
 2434POPC   PO432928  10.564   8.996   9.164
 2434POPC   GL132929  10.503   8.996   8.864
 2434POPC   GL232930  10.460   8.858   8.864
 2434POPC   C1A32931  10.560   8.930   8.564
 2434POPC   D2A32932  10.527   8.988   8.264
 2434POPC   C3A32933  10.537   8.989   7.964
 2434POPC   C4A32934  10.573   9.011   7.664
 2434POPC   C1B32935  10.477   8.743   8.564
 2434POPC   C2B32936  10.440   8.722   8.264
 2434POPC   C3B32937  10.523   8.755   7.964
 2434POPC   C4B32938  10.524   8.754   7.664
 2435POPC   NC332939  42.328  40.831   9.464
 2435POPC   PO432940  42.330  40.820   9.164
 2435POPC   GL132941  42.297  40.783   8.864
 2435POPC   GL232942  42.309  40.686   8.864
 2435POPC   C1A32943  42.331  40.778   8.564
 2435POPC   D2A32944  42.336  40.734   8.264
 2435POPC   C3A32945  42.308  40.828   7.964
 2435POPC   C4A32946  42.287  40.788   7.664
 2435POPC   C1B32947  42.166  40.608   8.564
 2435POPC   C2B32948  42.174  40.596   8.264
 2435POPC   C3B32949  42.235  40.584   7.964
 2435POPC   C4B32950  42.216  40.611   7.664
 2436POPC   NC332951  26.046  42.366   9.464
 2436POPC   PO432952  26.053  42.342   9.164
 2436POPC   GL132953  26.039  42.323   8.864
 2436POPC   GL232954  25.990  42.202   8.864
 2436POPC   C1A32955  26.037  42.329   8.564
 2436POPC   D2A32956  26.050  42.339   8.264
 2436POPC   C3A32957  26.066  42.380   7.964
 2436POPC   C4A32958  25.995  42.376   7.664
 2436POPC   C1B32959  25.869  42.212   8.564
 2436POPC   C2B32960  25.840  42.142   8.264
 2436POPC   C3B32961  25.900  42.174   7.964
 2436POPC   C4B32962  25.860  42.153   7.664
 2437POPC   NC332963   2.717  43.131   9.464
 2437POPC   PO432964   2.754  43.107   9.164
 2437POPC   GL132965   2.737  43.141   8.864
 2437POPC   GL232966   2.657  43.082   8.864
 2437POPC   C1A32967   2.803  43.066   8.564
 2437POPC   D2A32968   2.766  43.074   8.264
 2437POPC   C3A32969   2.764  43.150   7.964
 2437POPC   C4A32970   2.776  43.109   7.664
 2437POPC   C1B32971   2.529  43.021   8.564
 2437POPC   C2B32972   2.555  42.980   8.264
 2437POPC   C3B32973   2.490  43.006   7.964
 2437POPC   C4B32974   2.508  43.070   7.664
 2438POPC   NC332975  25.263  10.526   9.464
 2438POPC   PO432976  25.243  10.502   9.164
 2438POPC   GL132977  25.282  10.535   8.864
 2438POPC   GL232978  25.301  10.590   8.864
 2438POPC   C1A32979  25.224  10.477   8.564
 2438POPC   D2A32980  25.250  10.480   8.264
 2438POPC   C3A32981  25.261  10.477   7.964
 2438POPC   C4A32982  25.235  10.482   7.664
 2438POPC   C1B32983  25.437  10.676   8.564
 2438POPC   C2B32984  25.388  10.735   8.264
 2438POPC   C3B32985  25.404  10.744   7.964
 2438POPC   C4B32986  25.384  10.693   7.664
 2439POPC   NC332987  12.857  14.412   9.464
 2439POPC   PO432988  12.836  14.425   9.164
 2439POPC   GL132989  12.854  14.368   8.864
 2439POPC   GL232990  12.720  14.312   8.864
 2439POPC   C1A32991  12.823  14.435   8.564
 2439POPC   D2A32992  12.894  14.421   8.264
 2439POPC   C3A32993  12.841  14.416   7.964
 2439POPC   C4A32994  12.822  14.358   7.664
 2439POPC   C1B32995  12.700  14.181   8.564
 2439POPC   C2B32996  12.701  14.184   8.264
 2439POPC   C3B32997  12.694  14.214   7.964
 2439POPC   C4B32998  12.706  14.252   7.664
 2440POPC   NC332999   1.204  16.685   9.464
 2440POPC   PO433000   1.176  16.699   9.164
 2440POPC   GL133001   1.187  16.766   8.864
 2440POPC   GL233002   1.222  16.872   8.864
 2440POPC   C1A33003   1.253  16.721   8.564
 2440POPC   D2A33004   1.185  16.760   8.264
 2440POPC   C3A33005   1.261  16.725   7.964
 2440POPC   C4A33006   1.242  16.717   7.664
 2440POPC   C1B33007   1.176  17.006   8.564
 2440POPC   C2B33008   1.138  16.997   8.264
 2440POPC   C3B33009   1.144  17.017   7.964
 2440POPC   C4B33010   1.186  17.006   7.664
 2441POPC   NC333011  38.461  17.547   9.464
 2441POPC   PO433012  38.463  17.551   9.164
 2441POPC   GL133013  38.460  17.525   8.864
 2441POPC   GL233014  38.362  17.597   8.864
 2441POPC   C1A33015  38.439  17.500   8.564
 2441POPC   D2A33016  38.499  17.533   8.264
 2441POPC   C3A33017  38.453  17.496   7.964
 2441POPC   C4A33018  38.479  17.530   7.664
 2441POPC   C1B33019  38.304  17.658   8.564
 2441POPC   C2B33020  38.258  17.706   8.264
 2441POPC   C3B33021  38.294  17.626   7.964
 2441POPC   C4B33022  38.295  17.666   7.664
 2442POPC   NC333023  36.891  22.918   9.464
 2442POPC   PO433024  36.918  22.892   9.164
 2442POPC   GL133025  36.885  22.950   8.864
 2442POPC   GL233026  37.051  22.937   8.864
 2442POPC   C1A33027  36.913  22.910   8.564
 2442POPC   D2A33028  36.888  22.917   8.264
 2442POPC   C3A33029  36.947  22.935   7.964
 2442POPC   C4A33030  36.929  22.921   7.664
 2442POPC   C1B33031  37.121  22.836   8.564
 2442POPC   C2B33032  37.117  22.858   8.264
 2442POPC   C3B33033  37.181  22.837   7.964
 2442POPC   C4B33034  37.096  22.806   7.664
 2443POPC   NC333035  16.681  36.919   9.464
 2443POPC   PO433036  16.707  36.869   9.164
 2443POPC   GL133037  16.765  36.950   8.864
 2443POPC   GL233038  16.815  36.878   8.864
 2443POPC   C1A33039  16.759  36.907   8.564
 2443POPC   D2A33040  16.723  36.917   8.264
 2443POPC   C3A33041  16.689  36.888   7.964
 2443POPC   C4A33042  16.726  36.876   7.664
 2443POPC   C1B33043  17.004  36.945   8.564
 2443POPC   C2B33044  17.023  36.957   8.264
 2443POPC   C3B33045  16.981  36.964   7.964
 2443POPC   C4B33046  16.969  36.925   7.664
 2444POPC   NC333047  15.202  19.060   9.464
 2444POPC   PO433048  15.171  19.011   9.164
 2444POPC   GL133049  15.219  19.017   8.864
 2444POPC   GL233050  15.240  19.151   8.864
 2444POPC   C1A33051  15.184  19.072   8.564
 2444POPC   D2A33052  15.132  19.083   8.264
 2444POPC   C3A33053  15.224  19.058   7.964
 2444POPC   C4A33054  15.157  19.094   7.664
 2444POPC   C1B33055  15.419  19.199   8.564
 2444POPC   C2B33056  15.381  19.199   8.264
 2444POPC   C3B33057  15.381  19.185   7.964
 2444POPC   C4B33058  15.394  19.164   7.664
 2445POPC   NC333059  27.633   0.441   9.464
 2445POPC   PO433060  27.604   0.439   9.164
 2445POPC   GL133061  27.555   0.461   8.864
 2445POPC   GL233062  27.631   0.509   8.864
 2445POPC   C1A33063  27.615   0.445   8.564
 2445POPC   D2A33064  27.601   0.472   8.264
 2445POPC   C3A33065  27.634   0.479   7.964
 2445POPC   C4A33066  27.546   0.454   7.664
 2445POPC   C1B33067  27.725   0.691   8.564
 2445POPC   C2B33068  27.678   0.705   8.264
 2445POPC   C3B33069  27.702   0.617   7.964
 2445POPC   C4B33070  27.712   0.664   7.664
 2446POPC   NC333071   4.343  29.156   9.464
 2446POPC   PO433072   4.355  29.110   9.164
 2446POPC   GL133073   4.288  29.125   8.864
 2446POPC   GL233074   4.243  29.124   8.864
 2446POPC   C1A33075   4.354  29.192   8.564
 2446POPC   D2A33076   4.325  29.117   8.264
 2446POPC   C3A33077   4.351  29.186   7.964
 2446POPC   C4A33078   4.285  29.129   7.664
 2446POPC   C1B33079   4.128  29.077   8.564
 2446POPC   C2B33080   4.055  29.066   8.264
 2446POPC   C3B33081   4.132  29.038   7.964
 2446POPC   C4B33082   4.039  29.037   7.664
 2447POPC   NC333083  32.275  22.162   9.464
 2447POPC   PO433084  32.261  22.141   9.164
 2447POPC   GL133085  32.242  22.166   8.864
 2447POPC   GL233086  32.172  22.201   8.864
 2447POPC   C1A33087  32.208  22.116   8.564
 2447POPC   D2A33088  32.204  22.199   8.264
 2447POPC   C3A33089  32.198  22.138   7.964
 2447POPC   C4A33090  32.210  22.160   7.664
 2447POPC   C1B33091  32.013  22.291   8.564
 2447POPC   C2B33092  32.050  22.279   8.264
 2447POPC   C3B33093  32.011  22.271   7.964
 2447POPC   C4B33094  32.070  22.296   7.664
 2448POPC   NC333095  22.931   5.875   9.464
 2448POPC   PO433096  22.954   5.917   9.164
 2448POPC   GL133097  22.915   5.863   8.864
 2448POPC   GL233098  23.088   5.878   8.864
 2448POPC   C1A33099  22.976   5.845   8.564
 2448POPC   D2A33100  22.985   5.902   8.264
 2448POPC   C3A33101  22.979   5.886   7.964
 2448POPC   C4A33102  22.915   5.878   7.664
 2448POPC   C1B33103  23.149   5.926   8.564
 2448POPC   C2B33104  23.159   5.967   8.264
 2448POPC   C3B33105  23.179   5.924   7.964
 2448POPC   C4B33106  23.209   5.954   7.664
 2449POPC   NC333107   8.165  40.819   9.464
 2449POPC   PO433108   8.219  40.827   9.164
 2449POPC   GL133109   8.199  40.762   8.864
 2449POPC   GL233110   8.121  40.785   8.864
 2449POPC   C1A33111   8.186  40.806   8.564
 2449POPC   D2A33112   8.205  40.764   8.264
 2449POPC   C3A33113   8.241  40.810   7.964
 2449POPC   C4A33114   8.234  40.823   7.664
 2449POPC   C1B33115   7.953  40.769   8.564
 2449POPC   C2B33116   7.911  40.812   8.264
 2449POPC   C3B33117   7.935  40.739   7.964
 2449POPC   C4B33118   7.967  40.789   7.664
 2450POPC   NC333119  17.537  28.388   9.464
 2450POPC   PO433120  17.492  28.348   9.164
 2450POPC   GL133121  17.535  28.373   8.864
 2450POPC   GL233122  17.440  28.223   8.864
 2450POPC   C1A33123  17.536  28.350   8.564
 2450POPC   D2A33124  17.511  28.331   8.264
 2450POPC   C3A33125  17.481  28.352   7.964
 2450POPC   C4A33126  17.507  28.381   7.664
 2450POPC   C1B33127  17.481  28.125   8.564
 2450POPC   C2B33128  17.473  28.175   8.264
 2450POPC   C3B33129  17.426  28.103   7.964
 2450POPC   C4B33130  17.461  28.124   7.664
 2451POPC   NC333131  18.248  35.394   9.464
 2451POPC   PO433132  18.320  35.352   9.164
 2451POPC   GL133133  18.234  35.386   8.864
 2451POPC   GL233134  18.309  35.446   8.864
 2451POPC   C1A33135  18.250  35.349   8.564
 2451POPC   D2A33136  18.234  35.361   8.264
 2451POPC   C3A33137  18.263  35.318   7.964
 2451POPC   C4A33138  18.294  35.373   7.664
 2451POPC   C1B33139  18.411  35.538   8.564
 2451POPC   C2B33140  18.433  35.555   8.264
 2451POPC   C3B33141  18.444  35.573   7.964
 2451POPC   C4B33142  18.471  35.523   7.664
 2452POPC   NC333143  40.018  22.169   9.464
 2452POPC   PO433144  39.963  22.170   9.164
 2452POPC   GL133145  40.018  22.131   8.864
 2452POPC   GL233146  39.874  22.193   8.864
 2452POPC   C1A33147  40.015  22.193   8.564
 2452POPC   D2A33148  39.998  22.199   8.264
 2452POPC   C3A33149  40.017  22.177   7.964
 2452POPC   C4A33150  40.046  22.173   7.664
 2452POPC   C1B33151  39.783  22.279   8.564
 2452POPC   C2B33152  39.777  22.315   8.264
 2452POPC   C3B33153  39.813  22.307   7.964
 2452POPC   C4B33154  39.796  22.282   7.664
 2453POPC   NC333155  13.620  14.438   9.464
 2453POPC   PO433156  13.619  14.399   9.164
 2453POPC   GL133157  13.612  14.357   8.864
 2453POPC   GL233158  13.688  14.547   8.864
 2453POPC   C1A33159  13.600  14.453   8.564
 2453POPC   D2A33160  13.631  14.444   8.264
 2453POPC   C3A33161  13.586  14.403   7.964
 2453POPC   C4A33162  13.640  14.371   7.664
 2453POPC   C1B33163  13.723  14.628   8.564
 2453POPC   C2B33164  13.718  14.600   8.264
 2453POPC   C3B33165  13.686  14.637   7.964
 2453POPC   C4B33166  13.651  14.603   7.664
 2454POPC   NC333167  17.539  20.649   9.464
 2454POPC   PO433168  17.512  20.573   9.164
 2454POPC   GL133169  17.477  20.641   8.864
 2454POPC   GL233170  17.460  20.454   8.864
 2454POPC   C1A33171  17.525  20.577   8.564
 2454POPC   D2A33172  17.481  20.640   8.264
 2454POPC   C3A33173  17.555  20.594   7.964
 2454POPC   C4A33174  17.483  20.629   7.664
 2454POPC   C1B33175  17.442  20.394   8.564
 2454POPC   C2B33176  17.388  20.334   8.264
 2454POPC   C3B33177  17.427  20.363   7.964
 2454POPC   C4B33178  17.422  20.376   7.664
 2455POPC   NC333179   8.203  25.314   9.464
 2455POPC   PO433180   8.192  25.310   9.164
 2455POPC   GL133181   8.167  25.278   8.864
 2455POPC   GL233182   8.282  25.165   8.864
 2455POPC   C1A33183   8.194  25.290   8.564
 2455POPC   D2A33184   8.192  25.273   8.264
 2455POPC   C3A33185   8.223  25.280   7.964
 2455POPC   C4A33186   8.240  25.264   7.664
 2455POPC   C1B33187   8.336  25.082   8.564
 2455POPC   C2B33188   8.366  25.125   8.264
 2455POPC   C3B33189   8.422  25.110   7.964
 2455POPC   C4B33190   8.412  25.078   7.664
 2456POPC   NC333191  44.703  18.318   9.464
 2456POPC   PO433192  44.704  18.283   9.164
 2456POPC   GL133193  44.643  18.299   8.864
 2456POPC   GL233194  44.733  18.155   8.864
 2456POPC   C1A33195  44.666  18.320   8.564
 2456POPC   D2A33196  44.676  18.246   8.264
 2456POPC   C3A33197  44.701  18.275   7.964
 2456POPC   C4A33198  44.685  18.306   7.664
 2456POPC   C1B33199  44.803  18.014   8.564
 2456POPC   C2B33200  44.791  18.062   8.264
 2456POPC   C3B33201  44.734  18.086   7.964
 2456POPC   C4B33202  44.755  18.038   7.664
 2457POPC   NC333203  19.042  22.132   9.464
 2457POPC   PO433204  19.088  22.193   9.164
 2457POPC   GL133205  19.077  22.140   8.864
 2457POPC   GL233206  18.917  22.113   8.864
 2457POPC   C1A33207  19.043  22.182   8.564
 2457POPC   D2A33208  19.046  22.138   8.264
 2457POPC   C3A33209  19.014  22.121   7.964
 2457POPC   C4A33210  19.020  22.132   7.664
 2457POPC   C1B33211  18.894  22.056   8.564
 2457POPC   C2B33212  18.832  22.017   8.264
 2457POPC   C3B33213  18.885  22.045   7.964
 2457POPC   C4B33214  18.889  21.986   7.664
 2458POPC   NC333215  17.524  22.922   9.464
 2458POPC   PO433216  17.543  22.900   9.164
 2458POPC   GL133217  17.506  22.946   8.864
 2458POPC   GL233218  17.473  23.040   8.864
 2458POPC   C1A33219  17.516  22.941   8.564
 2458POPC   D2A33220  17.463  22.982   8.264
 2458POPC   C3A33221  17.535  22.940   7.964
 2458POPC   C4A33222  17.496  22.914   7.664
 2458POPC   C1B33223  17.398  23.153   8.564
 2458POPC   C2B33224  17.313  23.100   8.264
 2458POPC   C3B33225  17.368  23.167   7.964
 2458POPC   C4B33226  17.310  23.141   7.664
 2459POPC   NC333227  12.089  19.049   9.464
 2459POPC   PO433228  12.035  19.045   9.164
 2459POPC   GL133229  12.049  19.101   8.864
 2459POPC   GL233230  12.140  19.015   8.864
 2459POPC   C1A33231  12.126  19.065   8.564
 2459POPC   D2A33232  12.082  19.095   8.264
 2459POPC   C3A33233  12.069  19.090   7.964
 2459POPC   C4A33234  12.084  19.098   7.664
 2459POPC   C1B33235  12.272  18.882   8.564
 2459POPC   C2B33236  12.260  18.890   8.264
 2459POPC   C3B33237  12.245  18.881   7.964
 2459POPC   C4B33238  12.255  18.921   7.664
 2460POPC   NC333239  21.409  38.427   9.464
 2460POPC   PO433240  21.384  38.425   9.164
 2460POPC   GL133241  21.430  38.457   8.864
 2460POPC   GL233242  21.411  38.306   8.864
 2460POPC   C1A33243  21.384  38.433   8.564
 2460POPC   D2A33244  21.418  38.486   8.264
 2460POPC   C3A33245  21.410  38.425   7.964
 2460POPC   C4A33246  21.425  38.460   7.664
 2460POPC   C1B33247  21.441  38.241   8.564
 2460POPC   C2B33248  21.421  38.166   8.264
 2460POPC   C3B33249  21.431  38.232   7.964
 2460POPC   C4B33250  21.399  38.239   7.664
 2461POPC   NC333251   6.628  20.637   9.464
 2461POPC   PO433252   6.636  20.623   9.164
 2461POPC   GL133253   6.614  20.616   8.864
 2461POPC   GL233254   6.747  20.541   8.864
 2461POPC   C1A33255   6.677  20.639   8.564
 2461POPC   D2A33256   6.679  20.653   8.264
 2461POPC   C3A33257   6.651  20.657   7.964
 2461POPC   C4A33258   6.673  20.589   7.664
 2461POPC   C1B33259   6.787  20.356   8.564
 2461POPC   C2B33260   6.741  20.436   8.264
 2461POPC   C3B33261   6.733  20.368   7.964
 2461POPC   C4B33262   6.729  20.357   7.664
 2462POPC   NC333263  28.390  28.392   9.464
 2462POPC   PO433264  28.335  28.405   9.164
 2462POPC   GL133265  28.396  28.321   8.864
 2462POPC   GL233266  28.228  28.324   8.864
 2462POPC   C1A33267  28.389  28.337   8.564
 2462POPC   D2A33268  28.373  28.356   8.264
 2462POPC   C3A33269  28.392  28.386   7.964
 2462POPC   C4A33270  28.388  28.366   7.664
 2462POPC   C1B33271  28.130  28.194   8.564
 2462POPC   C2B33272  28.208  28.231   8.264
 2462POPC   C3B33273  28.192  28.241   7.964
 2462POPC   C4B33274  28.183  28.218   7.664
 2463POPC   NC333275   2.727  14.372   9.464
 2463POPC   PO433276   2.803  14.419   9.164
 2463POPC   GL133277   2.754  14.373   8.864
 2463POPC   GL233278   2.888  14.425   8.864
 2463POPC   C1A33279   2.732  14.385   8.564
 2463POPC   D2A33280   2.786  14.400   8.264
 2463POPC   C3A33281   2.810  14.362   7.964
 2463POPC   C4A33282   2.800  14.435   7.664
 2463POPC   C1B33283   3.051  14.437   8.564
 2463POPC   C2B33284   2.968  14.343   8.264
 2463POPC   C3B33285   3.025  14.410   7.964
 2463POPC   C4B33286   3.031  14.425   7.664
 2464POPC   NC333287  21.419  33.803   9.464
 2464POPC   PO433288  21.397  33.766   9.164
 2464POPC   GL133289  21.415  33.810   8.864
 2464POPC   GL233290  21.328  33.935   8.864
 2464POPC   C1A33291  21.427  33.815   8.564
 2464POPC   D2A33292  21.372  33.789   8.264
 2464POPC   C3A33293  21.434  33.834   7.964
 2464POPC   C4A33294  21.435  33.824   7.664
 2464POPC   C1B33295  21.311  34.069   8.564
 2464POPC   C2B33296  21.340  34.008   8.264
 2464POPC   C3B33297  21.286  34.045   7.964
 2464POPC   C4B33298  21.363  34.079   7.664
 2465POPC   NC333299  10.565  17.524   9.464
 2465POPC   PO433300  10.551  17.550   9.164
 2465POPC   GL133301  10.525  17.511   8.864
 2465POPC   GL233302  10.643  17.459   8.864
 2465POPC   C1A33303  10.502  17.536   8.564
 2465POPC   D2A33304  10.489  17.554   8.264
 2465POPC   C3A33305  10.535  17.517   7.964
 2465POPC   C4A33306  10.545  17.473   7.664
 2465POPC   C1B33307  10.775  17.422   8.564
 2465POPC   C2B33308  10.733  17.416   8.264
 2465POPC   C3B33309  10.806  17.445   7.964
 2465POPC   C4B33310  10.743  17.469   7.664
 2466POPC   NC333311   8.149  22.177   9.464
 2466POPC   PO433312   8.196  22.140   9.164
 2466POPC   GL133313   8.207  22.193   8.864
 2466POPC   GL233314   8.186  22.250   8.864
 2466POPC   C1A33315   8.149  22.131   8.564
 2466POPC   D2A33316   8.169  22.146   8.264
 2466POPC   C3A33317   8.212  22.201   7.964
 2466POPC   C4A33318   8.161  22.199   7.664
 2466POPC   C1B33319   8.300  22.451   8.564
 2466POPC   C2B33320   8.258  22.388   8.264
 2466POPC   C3B33321   8.237  22.451   7.964
 2466POPC   C4B33322   8.278  22.363   7.664
 2467POPC   NC333323  42.342  39.996   9.464
 2467POPC   PO433324  42.316  40.024   9.164
 2467POPC   GL133325  42.384  39.990   8.864
 2467POPC   GL233326  42.431  40.071   8.864
 2467POPC   C1A33327  42.362  39.973   8.564
 2467POPC   D2A33328  42.301  40.010   8.264
 2467POPC   C3A33329  42.287  40.055   7.964
 2467POPC   C4A33330  42.377  40.041   7.664
 2467POPC   C1B33331  42.560  40.206   8.564
 2467POPC   C2B33332  42.503  40.176   8.264
 2467POPC   C3B33333  42.493  40.183   7.964
 2467POPC   C4B33334  42.556  40.222   7.664
 2468POPC   NC333335  23.700  12.864   9.464
 2468POPC   PO433336  23.705  12.851   9.164
 2468POPC   GL133337  23.700  12.872   8.864
 2468POPC   GL233338  23.709  12.746   8.864
 2468POPC   C1A33339  23.755  12.820   8.564
 2468POPC   D2A33340  23.692  12.812   8.264
 2468POPC   C3A33341  23.736  12.816   7.964
 2468POPC   C4A33342  23.729  12.871   7.664
 2468POPC   C1B33343  23.658  12.589   8.564
 2468POPC   C2B33344  23.631  12.625   8.264
 2468POPC   C3B33345  23.596  12.619   7.964
 2468POPC   C4B33346  23.583  12.599   7.664
 2469POPC   NC333347  10.502  33.762   9.464
 2469POPC   PO433348  10.530  33.766   9.164
 2469POPC   GL133349  10.481  33.792   8.864
 2469POPC   GL233350  10.485  33.932   8.864
 2469POPC   C1A33351  10.531  33.814   8.564
 2469POPC   D2A33352  10.510  33.770   8.264
 2469POPC   C3A33353  10.492  33.812   7.964
 2469POPC   C4A33354  10.564  33.788   7.664
 2469POPC   C1B33355  10.325  33.998   8.564
 2469POPC   C2B33356  10.351  33.958   8.264
 2469POPC   C3B33357  10.378  33.953   7.964
 2469POPC   C4B33358  10.389  34.006   7.664
 2470POPC   NC333359  21.405  28.409   9.464
 2470POPC   PO433360  21.388  28.340   9.164
 2470POPC   GL133361  21.383  28.329   8.864
 2470POPC   GL233362  21.321  28.469   8.864
 2470POPC   C1A33363  21.410  28.369   8.564
 2470POPC   D2A33364  21.388  28.347   8.264
 2470POPC   C3A33365  21.393  28.365   7.964
 2470POPC   C4A33366  21.380  28.368   7.664
 2470POPC   C1B33367  21.273  28.541   8.564
 2470POPC   C2B33368  21.236  28.540   8.264
 2470POPC   C3B33369  21.273  28.607   7.964
 2470POPC   C4B33370  21.247  28.578   7.664
 2471POPC   NC333371  13.616   6.598   9.464
 2471POPC   PO433372  13.629   6.625   9.164
 2471POPC   GL133373  13.596   6.656   8.864
 2471POPC   GL233374  13.523   6.578   8.864
 2471POPC   C1A33375  13.661   6.613   8.564
 2471POPC   D2A33376  13.641   6.600   8.264
 2471POPC   C3A33377  13.666   6.597   7.964
 2471POPC   C4A33378  13.672   6.625   7.664
 2471POPC   C1B33379  13.491   6.467   8.564
 2471POPC   C2B33380  13.473   6.428   8.264
 2471POPC   C3B33381  13.469   6.453   7.964
 2471POPC   C4B33382  13.535   6.458   7.664
 2472POPC   NC333383  38.428  15.997   9.464
 2472POPC   PO433384  38.435  15.996   9.164
 2472POPC   GL133385  38.500  16.005   8.864
 2472POPC   GL233386  38.445  15.815   8.864
 2472POPC   C1A33387  38.408  15.941   8.564
 2472POPC   D2A33388  38.476  15.980   8.264
 2472POPC   C3A33389  38.463  15.972   7.964
 2472POPC   C4A33390  38.426  15.979   7.664
 2472POPC   C1B33391  38.490  15.710   8.564
 2472POPC   C2B33392  38.419  15.733   8.264
 2472POPC   C3B33393  38.430  15.658   7.964
 2472POPC   C4B33394  38.482  15.692   7.664
 2473POPC   NC333395  40.809   2.025   9.464
 2473POPC   PO433396  40.758   1.953   9.164
 2473POPC   GL133397  40.758   1.955   8.864
 2473POPC   GL233398  40.623   2.000   8.864
 2473POPC   C1A33399  40.784   2.013   8.564
 2473POPC   D2A33400  40.766   1.999   8.264
 2473POPC   C3A33401  40.766   1.965   7.964
 2473POPC   C4A33402  40.784   1.978   7.664
 2473POPC   C1B33403  40.511   2.021   8.564
 2473POPC   C2B33404  40.546   1.983   8.264
 2473POPC   C3B33405  40.557   1.965   7.964
 2473POPC   C4B33406  40.514   1.970   7.664
 2474POPC   NC333407  29.142   4.364   9.464
 2474POPC   PO433408  29.150   4.271   9.164
 2474POPC   GL133409  29.141   4.321   8.864
 2474POPC   GL233410  29.268   4.252   8.864
 2474POPC   C1A33411  29.104   4.343   8.564
 2474POPC   D2A33412  29.182   4.320   8.264
 2474POPC   C3A33413  29.124   4.360   7.964
 2474POPC   C4A33414  29.190   4.334   7.664
 2474POPC   C1B33415  29.280   4.117   8.564
 2474POPC   C2B33416  29.281   4.087   8.264
 2474POPC   C3B33417  29.324   4.129   7.964
 2474POPC   C4B33418  29.274   4.131   7.664
 2475POPC   NC333419  29.898  26.862   9.464
 2475POPC   PO433420  29.942  26.771   9.164
 2475POPC   GL133421  29.956  26.857   8.864
 2475POPC   GL233422  30.087  26.847   8.864
 2475POPC   C1A33423  29.891  26.796   8.564
 2475POPC   D2A33424  29.877  26.864   8.264
 2475POPC   C3A33425  29.897  26.843   7.964
 2475POPC   C4A33426  29.879  26.776   7.664
 2475POPC   C1B33427  30.115  26.927   8.564
 2475POPC   C2B33428  30.170  26.901   8.264
 2475POPC   C3B33429  30.177  26.874   7.964
 2475POPC   C4B33430  30.131  26.863   7.664
 2476POPC   NC333431  22.204  24.442   9.464
 2476POPC   PO433432  22.173  24.456   9.164
 2476POPC   GL133433  22.212  24.489   8.864
 2476POPC   GL233434  22.248  24.569   8.864
 2476POPC   C1A33435  22.113  24.515   8.564
 2476POPC   D2A33436  22.188  24.453   8.264
 2476POPC   C3A33437  22.145  24.449   7.964
 2476POPC   C4A33438  22.144  24.481   7.664
 2476POPC   C1B33439  22.324  24.629   8.564
 2476POPC   C2B33440  22.415  24.648   8.264
 2476POPC   C3B33441  22.412  24.677   7.964
 2476POPC   C4B33442  22.340  24.602   7.664
 2477POPC   NC333443  44.652  19.088   9.464
 2477POPC   PO433444  44.696  19.040   9.164
 2477POPC   GL133445  44.667  19.064   8.864
 2477POPC   GL233446  44.566  19.004   8.864
 2477POPC   C1A33447  44.650  19.075   8.564
 2477POPC   D2A33448  44.648  19.073   8.264
 2477POPC   C3A33449  44.672  19.078   7.964
 2477POPC   C4A33450  44.636  19.069   7.664
 2477POPC   C1B33451  44.466  18.880   8.564
 2477POPC   C2B33452  44.444  18.912   8.264
 2477POPC   C3B33453  44.482  18.865   7.964
 2477POPC   C4B33454  44.521  18.887   7.664
 2478POPC   NC333455  12.048  33.020   9.464
 2478POPC   PO433456  12.106  33.031   9.164
 2478POPC   GL133457  12.114  32.994   8.864
 2478POPC   GL233458  12.006  32.931   8.864
 2478POPC   C1A33459  12.043  32.999   8.564
 2478POPC   D2A33460  12.078  33.025   8.264
 2478POPC   C3A33461  12.096  32.982   7.964
 2478POPC   C4A33462  12.109  32.978   7.664
 2478POPC   C1B33463  11.939  32.846   8.564
 2478POPC   C2B33464  11.937  32.777   8.264
 2478POPC   C3B33465  11.935  32.799   7.964
 2478POPC   C4B33466  11.890  32.816   7.664
 2479POPC   NC333467   9.731  43.101   9.464
 2479POPC   PO433468   9.794  43.152   9.164
 2479POPC   GL133469   9.721  43.108   8.864
 2479POPC   GL233470   9.717  42.966   8.864
 2479POPC   C1A33471   9.714  43.147   8.564
 2479POPC   D2A33472   9.786  43.109   8.264
 2479POPC   C3A33473   9.742  43.097   7.964
 2479POPC   C4A33474   9.786  43.155   7.664
 2479POPC   C1B33475   9.561  42.887   8.564
 2479POPC   C2B33476   9.599  42.953   8.264
 2479POPC   C3B33477   9.637  42.900   7.964
 2479POPC   C4B33478   9.544  42.962   7.664
 2480POPC   NC333479   5.070  30.692   9.464
 2480POPC   PO433480   5.067  30.666   9.164
 2480POPC   GL133481   5.127  30.710   8.864
 2480POPC   GL233482   5.188  30.638   8.864
 2480POPC   C1A33483   5.093  30.671   8.564
 2480POPC   D2A33484   5.091  30.725   8.264
 2480POPC   C3A33485   5.131  30.722   7.964
 2480POPC   C4A33486   5.134  30.716   7.664
 2480POPC   C1B33487   5.313  30.625   8.564
 2480POPC   C2B33488   5.329  30.609   8.264
 2480POPC   C3B33489   5.328  30.566   7.964
 2480POPC   C4B33490   5.341  30.604   7.664
 2481POPC   NC333491  32.269  14.439   9.464
 2481POPC   PO433492  32.288  14.396   9.164
 2481POPC   GL133493  32.276  14.367   8.864
 2481POPC   GL233494  32.076  14.399   8.864
 2481POPC   C1A33495  32.248  14.435   8.564
 2481POPC   D2A33496  32.297  14.415   8.264
 2481POPC   C3A33497  32.225  14.432   7.964
 2481POPC   C4A33498  32.286  14.368   7.664
 2481POPC   C1B33499  31.973  14.428   8.564
 2481POPC   C2B33500  32.013  14.456   8.264
 2481POPC   C3B33501  31.980  14.429   7.964
 2481POPC   C4B33502  32.027  14.435   7.664
 2482POPC   NC333503   1.165   0.410   9.464
 2482POPC   PO433504   1.172   0.394   9.164
 2482POPC   GL133505   1.168   0.482   8.864
 2482POPC   GL233506   1.311   0.461   8.864
 2482POPC   C1A33507   1.193   0.436   8.564
 2482POPC   D2A33508   1.253   0.477   8.264
 2482POPC   C3A33509   1.264   0.396   7.964
 2482POPC   C4A33510   1.177   0.413   7.664
 2482POPC   C1B33511   1.458   0.471   8.564
 2482POPC   C2B33512   1.482   0.431   8.264
 2482POPC   C3B33513   1.475   0.484   7.964
 2482POPC   C4B33514   1.425   0.461   7.664
 2483POPC   NC333515   5.048  15.983   9.464
 2483POPC   PO433516   5.079  15.943   9.164
 2483POPC   GL133517   5.083  15.917   8.864
 2483POPC   GL233518   5.043  16.063   8.864
 2483POPC   C1A33519   5.062  15.908   8.564
 2483POPC   D2A33520   5.089  15.995   8.264
 2483POPC   C3A33521   5.132  15.940   7.964
 2483POPC   C4A33522   5.106  15.961   7.664
 2483POPC   C1B33523   4.898  16.107   8.564
 2483POPC   C2B33524   4.943  16.101   8.264
 2483POPC   C3B33525   4.877  16.147   7.964
 2483POPC   C4B33526   4.915  16.124   7.664
 2484POPC   NC333527  40.801  36.886   9.464
 2484POPC   PO433528  40.766  36.885   9.164
 2484POPC   GL133529  40.784  36.925   8.864
 2484POPC   GL233530  40.941  36.936   8.864
 2484POPC   C1A33531  40.760  36.913   8.564
 2484POPC   D2A33532  40.799  36.895   8.264
 2484POPC   C3A33533  40.805  36.916   7.964
 2484POPC   C4A33534  40.783  36.857   7.664
 2484POPC   C1B33535  41.075  36.875   8.564
 2484POPC   C2B33536  40.998  36.844   8.264
 2484POPC   C3B33537  41.071  36.903   7.964
 2484POPC   C4B33538  41.069  36.908   7.664
 2485POPC   NC333539  38.436   0.451   9.464
 2485POPC   PO433540  38.462   0.431   9.164
 2485POPC   GL133541  38.474   0.400   8.864
 2485POPC   GL233542  38.507   0.370   8.864
 2485POPC   C1A33543  38.483   0.400   8.564
 2485POPC   D2A33544  38.430   0.428   8.264
 2485POPC   C3A33545  38.461   0.427   7.964
 2485POPC   C4A33546  38.423   0.434   7.664
 2485POPC   C1B33547  38.662   0.224   8.564
 2485POPC   C2B33548  38.640   0.282   8.264
 2485POPC   C3B33549  38.621   0.284   7.964
 2485POPC   C4B33550  38.689   0.246   7.664
 2486POPC   NC333551   5.087  11.322   9.464
 2486POPC   PO433552   5.092  11.341   9.164
 2486POPC   GL133553   5.083  11.270   8.864
 2486POPC   GL233554   5.051  11.363   8.864
 2486POPC   C1A33555   5.107  11.292   8.564
 2486POPC   D2A33556   5.099  11.323   8.264
 2486POPC   C3A33557   5.045  11.327   7.964
 2486POPC   C4A33558   5.110  11.267   7.664
 2486POPC   C1B33559   4.937  11.513   8.564
 2486POPC   C2B33560   4.942  11.508   8.264
 2486POPC   C3B33561   4.912  11.511   7.964
 2486POPC   C4B33562   4.896  11.518   7.664
 2487POPC   NC333563  16.764   6.642   9.464
 2487POPC   PO433564  16.719   6.614   9.164
 2487POPC   GL133565  16.692   6.633   8.864
 2487POPC   GL233566  16.696   6.728   8.864
 2487POPC   C1A33567  16.780   6.600   8.564
 2487POPC   D2A33568  16.717   6.617   8.264
 2487POPC   C3A33569  16.773   6.606   7.964
 2487POPC   C4A33570  16.763   6.649   7.664
 2487POPC   C1B33571  16.702   6.905   8.564
 2487POPC   C2B33572  16.729   6.910   8.264
 2487POPC   C3B33573  16.715   6.910   7.964
 2487POPC   C4B33574  16.696   6.928   7.664
 2488POPC   NC333575   1.983  22.973   9.464
 2488POPC   PO433576   1.984  22.901   9.164
 2488POPC   GL133577   2.035  22.936   8.864
 2488POPC   GL233578   1.851  22.920   8.864
 2488POPC   C1A33579   2.023  22.968   8.564
 2488POPC   D2A33580   1.999  22.948   8.264
 2488POPC   C3A33581   1.948  22.953   7.964
 2488POPC   C4A33582   1.981  22.971   7.664
 2488POPC   C1B33583   1.729  22.787   8.564
 2488POPC   C2B33584   1.768  22.826   8.264
 2488POPC   C3B33585   1.764  22.841   7.964
 2488POPC   C4B33586   1.803  22.859   7.664
 2489POPC   NC333587  40.044  39.203   9.464
 2489POPC   PO433588  39.990  39.199   9.164
 2489POPC   GL133589  40.041  39.266   8.864
 2489POPC   GL233590  40.108  39.112   8.864
 2489POPC   C1A33591  40.004  39.209   8.564
 2489POPC   D2A33592  39.990  39.273   8.264
 2489POPC   C3A33593  40.021  39.269   7.964
 2489POPC   C4A33594  40.014  39.182   7.664
 2489POPC   C1B33595  40.172  39.005   8.564
 2489POPC   C2B33596  40.203  39.043   8.264
 2489POPC   C3B33597  40.118  39.059   7.964
 2489POPC   C4B33598  40.144  39.008   7.664
 2490POPC   NC333599  14.401  40.815   9.464
 2490POPC   PO433600  14.433  40.820   9.164
 2490POPC   GL133601  14.383  40.795   8.864
 2490POPC   GL233602  14.509  40.882   8.864
 2490POPC   C1A33603  14.414  40.777   8.564
 2490POPC   D2A33604  14.356  40.758   8.264
 2490POPC   C3A33605  14.400  40.824   7.964
 2490POPC   C4A33606  14.421  40.831   7.664
 2490POPC   C1B33607  14.553  40.945   8.564
 2490POPC   C2B33608  14.518  40.933   8.264
 2490POPC   C3B33609  14.550  41.018   7.964
 2490POPC   C4B33610  14.599  40.997   7.664
 2491POPC   NC333611  26.000   8.232   9.464
 2491POPC   PO433612  26.069   8.231   9.164
 2491POPC   GL133613  26.035   8.187   8.864
 2491POPC   GL233614  25.928   8.140   8.864
 2491POPC   C1A33615  26.016   8.158   8.564
 2491POPC   D2A33616  26.065   8.233   8.264
 2491POPC   C3A33617  25.999   8.166   7.964
 2491POPC   C4A33618  26.057   8.147   7.664
 2491POPC   C1B33619  25.875   7.974   8.564
 2491POPC   C2B33620  25.863   8.023   8.264
 2491POPC   C3B33621  25.876   7.943   7.964
 2491POPC   C4B33622  25.938   8.027   7.664
 2492POPC   NC333623  20.641  36.928   9.464
 2492POPC   PO433624  20.568  36.901   9.164
 2492POPC   GL133625  20.577  36.892   8.864
 2492POPC   GL233626  20.534  36.800   8.864
 2492POPC   C1A33627  20.591  36.880   8.564
 2492POPC   D2A33628  20.599  36.934   8.264
 2492POPC   C3A33629  20.577  36.908   7.964
 2492POPC   C4A33630  20.656  36.863   7.664
 2492POPC   C1B33631  20.479  36.635   8.564
 2492POPC   C2B33632  20.524  36.716   8.264
 2492POPC   C3B33633  20.479  36.672   7.964
 2492POPC   C4B33634  20.516  36.686   7.664
 2493POPC   NC333635   1.252  11.338   9.464
 2493POPC   PO433636   1.172  11.309   9.164
 2493POPC   GL133637   1.253  11.328   8.864
 2493POPC   GL233638   1.183  11.458   8.864
 2493POPC   C1A33639   1.252  11.308   8.564
 2493POPC   D2A33640   1.179  11.287   8.264
 2493POPC   C3A33641   1.244  11.325   7.964
 2493POPC   C4A33642   1.234  11.328   7.664
 2493POPC   C1B33643   1.134  11.565   8.564
 2493POPC   C2B33644   1.187  11.576   8.264
 2493POPC   C3B33645   1.110  11.591   7.964
 2493POPC   C4B33646   1.118  11.517   7.664
 2494POPC   NC333647   3.520  21.390   9.464
 2494POPC   PO433648   3.566  21.418   9.164
 2494POPC   GL133649   3.573  21.356   8.864
 2494POPC   GL233650   3.658  21.342   8.864
 2494POPC   C1A33651   3.535  21.341   8.564
 2494POPC   D2A33652   3.500  21.396   8.264
 2494POPC   C3A33653   3.555  21.341   7.964
 2494POPC   C4A33654   3.551  21.435   7.664
 2494POPC   C1B33655   3.713  21.231   8.564
 2494POPC   C2B33656   3.779  21.264   8.264
 2494POPC   C3B33657   3.788  21.268   7.964
 2494POPC   C4B33658   3.716  21.223   7.664
 2495POPC   NC333659  19.868  22.130   9.464
 2495POPC   PO433660  19.828  22.180   9.164
 2495POPC   GL133661  19.869  22.197   8.864
 2495POPC   GL233662  19.890  22.246   8.864
 2495POPC   C1A33663  19.868  22.172   8.564
 2495POPC   D2A33664  19.882  22.185   8.264
 2495POPC   C3A33665  19.872  22.178   7.964
 2495POPC   C4A33666  19.826  22.185   7.664
 2495POPC   C1B33667  19.930  22.445   8.564
 2495POPC   C2B33668  19.870  22.376   8.264
 2495POPC   C3B33669  19.863  22.388   7.964
 2495POPC   C4B33670  19.911  22.432   7.664
 2496POPC   NC333671  43.092   2.001   9.464
 2496POPC   PO433672  43.086   1.951   9.164
 2496POPC   GL133673  43.101   1.984   8.864
 2496POPC   GL233674  43.051   2.072   8.864
 2496POPC   C1A33675  43.160   1.993   8.564
 2496POPC   D2A33676  43.103   1.953   8.264
 2496POPC   C3A33677  43.155   1.970   7.964
 2496POPC   C4A33678  43.135   1.946   7.664
 2496POPC   C1B33679  42.963   2.231   8.564
 2496POPC   C2B33680  42.973   2.173   8.264
 2496POPC   C3B33681  42.936   2.153   7.964
 2496POPC   C4B33682  42.972   2.174   7.664
 2497POPC   NC333683  22.176   5.140   9.464
 2497POPC   PO433684  22.178   5.101   9.164
 2497POPC   GL133685  22.168   5.053   8.864
 2497POPC   GL233686  22.238   5.093   8.864
 2497POPC   C1A33687  22.202   5.047   8.564
 2497POPC   D2A33688  22.191   5.116   8.264
 2497POPC   C3A33689  22.146   5.087   7.964
 2497POPC   C4A33690  22.124   5.116   7.664
 2497POPC   C1B33691  22.388   5.075   8.564
 2497POPC   C2B33692  22.437   5.102   8.264
 2497POPC   C3B33693  22.395   5.086   7.964
 2497POPC   C4B33694  22.415   5.029   7.664
 2498POPC   NC333695  29.098   3.539   9.464
 2498POPC   PO433696  29.153   3.563   9.164
 2498POPC   GL133697  29.169   3.493   8.864
 2498POPC   GL233698  29.259   3.586   8.864
 2498POPC   C1A33699  29.116   3.562   8.564
 2498POPC   D2A33700  29.177   3.494   8.264
 2498POPC   C3A33701  29.182   3.492   7.964
 2498POPC   C4A33702  29.132   3.508   7.664
 2498POPC   C1B33703  29.416   3.657   8.564
 2498POPC   C2B33704  29.336   3.684   8.264
 2498POPC   C3B33705  29.360   3.627   7.964
 2498POPC   C4B33706  29.318   3.625   7.664
 2499POPC   NC333707  41.557  29.108   9.464
 2499POPC   PO433708  41.533  29.120   9.164
 2499POPC   GL133709  41.590  29.122   8.864
 2499POPC   GL233710  41.637  29.092   8.864
 2499POPC   C1A33711  41.599  29.193   8.564
 2499POPC   D2A33712  41.529  29.104   8.264
 2499POPC   C3A33713  41.534  29.180   7.964
 2499POPC   C4A33714  41.555  29.171   7.664
 2499POPC   C1B33715  41.715  28.949   8.564
 2499POPC   C2B33716  41.808  29.040   8.264
 2499POPC   C3B33717  41.760  29.011   7.964
 2499POPC   C4B33718  41.732  29.005   7.664
 2500POPC   NC333719   8.937  12.866   9.464
 2500POPC   PO433720   8.948  12.888   9.164
 2500POPC   GL133721   8.950  12.899   8.864
 2500POPC   GL233722   9.023  12.938   8.864
 2500POPC   C1A33723   8.981  12.815   8.564
 2500POPC   D2A33724   8.976  12.869   8.264
 2500POPC   C3A33725   8.986  12.815   7.964
 2500POPC   C4A33726   8.966  12.873   7.664
 2500POPC   C1B33727   9.181  12.976   8.564
 2500POPC   C2B33728   9.162  13.016   8.264
 2500POPC   C3B33729   9.210  13.051   7.964
 2500POPC   C4B33730   9.151  12.955   7.664
 2501POPC   NC333731  26.086  44.638   9.464
 2501POPC   PO433732  26.024  44.674   9.164
 2501POPC   GL133733  26.044  44.673   8.864
 2501POPC   GL233734  26.074  44.737   8.864
 2501POPC   C1A33735  26.001  44.644   8.564
 2501POPC   D2A33736  26.082  44.659   8.264
 2501POPC   C3A33737  26.077  44.655   7.964
 2501POPC   C4A33738  26.015  44.661   7.664
 2501POPC   C1B33739  26.182  44.921   8.564
 2501POPC   C2B33740  26.122  44.865   8.264
 2501POPC   C3B33741  26.179  44.929   7.964
 2501POPC   C4B33742  26.172  44.919   7.664
 2502POPC   NC333743   1.950  15.222   9.464
 2502POPC   PO433744   1.992  15.189   9.164
 2502POPC   GL133745   1.957  15.154   8.864
 2502POPC   GL233746   1.845  15.168   8.864
 2502POPC   C1A33747   2.023  15.134   8.564
 2502POPC   D2A33748   1.956  15.171   8.264
 2502POPC   C3A33749   2.016  15.179   7.964
 2502POPC   C4A33750   1.956  15.229   7.664
 2502POPC   C1B33751   1.799  15.087   8.564
 2502POPC   C2B33752   1.789  15.060   8.264
 2502POPC   C3B33753   1.774  15.083   7.964
 2502POPC   C4B33754   1.749  15.082   7.664
 2503POPC   NC333755   2.740  36.901   9.464
 2503POPC   PO433756   2.744  36.933   9.164
 2503POPC   GL133757   2.736  36.951   8.864
 2503POPC   GL233758   2.635  36.990   8.864
 2503POPC   C1A33759   2.787  36.887   8.564
 2503POPC   D2A33760   2.802  36.933   8.264
 2503POPC   C3A33761   2.797  36.925   7.964
 2503POPC   C4A33762   2.752  36.913   7.664
 2503POPC   C1B33763   2.545  37.044   8.564
 2503POPC   C2B33764   2.569  36.961   8.264
 2503POPC   C3B33765   2.498  36.971   7.964
 2503POPC   C4B33766   2.500  37.019   7.664
 2504POPC   NC333767  43.840  12.115   9.464
 2504POPC   PO433768  43.932  12.062   9.164
 2504POPC   GL133769  43.885  12.062   8.864
 2504POPC   GL233770  43.820  12.040   8.864
 2504POPC   C1A33771  43.869  12.070   8.564
 2504POPC   D2A33772  43.914  12.076   8.264
 2504POPC   C3A33773  43.899  12.048   7.964
 2504POPC   C4A33774  43.913  12.048   7.664
 2504POPC   C1B33775  43.716  11.891   8.564
 2504POPC   C2B33776  43.675  11.936   8.264
 2504POPC   C3B33777  43.641  11.958   7.964
 2504POPC   C4B33778  43.692  11.902   7.664
 2505POPC   NC333779  26.064  22.165   9.464
 2505POPC   PO433780  26.033  22.192   9.164
 2505POPC   GL133781  26.050  22.145   8.864
 2505POPC   GL233782  26.061  22.056   8.864
 2505POPC   C1A33783  26.049  22.157   8.564
 2505POPC   D2A33784  26.036  22.180   8.264
 2505POPC   C3A33785  26.042  22.117   7.964
 2505POPC   C4A33786  26.075  22.197   7.664
 2505POPC   C1B33787  26.069  21.872   8.564
 2505POPC   C2B33788  26.092  21.929   8.264
 2505POPC   C3B33789  26.104  21.906   7.964
 2505POPC   C4B33790  26.013  21.868   7.664
 2506POPC   NC333791  37.714   5.904   9.464
 2506POPC   PO433792  37.653   5.841   9.164
 2506POPC   GL133793  37.655   5.915   8.864
 2506POPC   GL233794  37.679   6.023   8.864
 2506POPC   C1A33795  37.665   5.843   8.564
 2506POPC   D2A33796  37.657   5.904   8.264
 2506POPC   C3A33797  37.692   5.912   7.964
 2506POPC   C4A33798  37.642   5.824   7.664
 2506POPC   C1B33799  37.578   6.065   8.564
 2506POPC   C2B33800  37.569   6.082   8.264
 2506POPC   C3B33801  37.578   6.108   7.964
 2506POPC   C4B33802  37.632   6.154   7.664
 2507POPC   NC333803  22.181  19.846   9.464
 2507POPC   PO433804  22.171  19.842   9.164
 2507POPC   GL133805  22.165  19.813   8.864
 2507POPC   GL233806  22.096  19.807   8.864
 2507POPC   C1A33807  22.176  19.802   8.564
 2507POPC   D2A33808  22.130  19.842   8.264
 2507POPC   C3A33809  22.182  19.791   7.964
 2507POPC   C4A33810  22.178  19.864   7.664
 2507POPC   C1B33811  21.984  19.745   8.564
 2507POPC   C2B33812  21.972  19.672   8.264
 2507POPC   C3B33813  21.963  19.674   7.964
 2507POPC   C4B33814  21.994  19.650   7.664
 2508POPC   NC333815  36.131  37.669   9.464
 2508POPC   PO433816  36.093  37.641   9.164
 2508POPC   GL133817  36.090  37.675   8.864
 2508POPC   GL233818  36.035  37.624   8.864
 2508POPC   C1A33819  36.095  37.705   8.564
 2508POPC   D2A33820  36.174  37.685   8.264
 2508POPC   C3A33821  36.128  37.704   7.964
 2508POPC   C4A33822  36.079  37.655   7.664
 2508POPC   C1B33823  35.933  37.536   8.564
 2508POPC   C2B33824  35.972  37.486   8.264
 2508POPC   C3B33825  35.931  37.494   7.964
 2508POPC   C4B33826  36.007  37.498   7.664
 2509POPC   NC333827  22.973  34.538   9.464
 2509POPC   PO433828  22.897  34.609   9.164
 2509POPC   GL133829  22.891  34.602   8.864
 2509POPC   GL233830  23.011  34.511   8.864
 2509POPC   C1A33831  22.960  34.613   8.564
 2509POPC   D2A33832  22.973  34.549   8.264
 2509POPC   C3A33833  22.904  34.622   7.964
 2509POPC   C4A33834  22.961  34.606   7.664
 2509POPC   C1B33835  23.125  34.444   8.564
 2509POPC   C2B33836  23.137  34.378   8.264
 2509POPC   C3B33837  23.171  34.430   7.964
 2509POPC   C4B33838  23.111  34.455   7.664
 2510POPC   NC333839   3.539  23.732   9.464
 2510POPC   PO433840   3.573  23.762   9.164
 2510POPC   GL133841   3.574  23.749   8.864
 2510POPC   GL233842   3.494  23.845   8.864
 2510POPC   C1A33843   3.583  23.738   8.564
 2510POPC   D2A33844   3.572  23.752   8.264
 2510POPC   C3A33845   3.539  23.684   7.964
 2510POPC   C4A33846   3.520  23.670   7.664
 2510POPC   C1B33847   3.546  24.012   8.564
 2510POPC   C2B33848   3.520  24.004   8.264
 2510POPC   C3B33849   3.477  23.915   7.964
 2510POPC   C4B33850   3.514  23.995   7.664
 2511POPC   NC333851  25.309  12.075   9.464
 2511POPC   PO433852  25.297  12.043   9.164
 2511POPC   GL133853  25.283  12.063   8.864
 2511POPC   GL233854  25.231  11.956   8.864
 2511POPC   C1A33855  25.238  12.095   8.564
 2511POPC   D2A33856  25.278  12.029   8.264
 2511POPC   C3A33857  25.281  12.102   7.964
 2511POPC   C4A33858  25.225  12.069   7.664
 2511POPC   C1B33859  25.287  11.816   8.564
 2511POPC   C2B33860  25.236  11.861   8.264
 2511POPC   C3B33861  25.299  11.873   7.964
 2511POPC   C4B33862  25.288  11.854   7.664
 2512POPC   NC333863  33.019  27.600   9.464
 2512POPC   PO433864  32.975  27.639   9.164
 2512POPC   GL133865  32.999  27.626   8.864
 2512POPC   GL233866  33.009  27.697   8.864
 2512POPC   C1A33867  33.057  27.614   8.564
 2512POPC   D2A33868  32.981  27.566   8.264
 2512POPC   C3A33869  33.073  27.611   7.964
 2512POPC   C4A33870  32.986  27.637   7.664
 2512POPC   C1B33871  33.051  27.831   8.564
 2512POPC   C2B33872  33.033  27.865   8.264
 2512POPC   C3B33873  33.043  27.848   7.964
 2512POPC   C4B33874  33.078  27.799   7.664
 2513POPC   NC333875  30.660  10.556   9.464
 2513POPC   PO433876  30.695  10.495   9.164
 2513POPC   GL133877  30.668  10.558   8.864
 2513POPC   GL233878  30.685  10.363   8.864
 2513POPC   C1A33879  30.725  10.476   8.564
 2513POPC   D2A33880  30.675  10.485   8.264
 2513POPC   C3A33881  30.713  10.479   7.964
 2513POPC   C4A33882  30.653  10.516   7.664
 2513POPC   C1B33883  30.775  10.303   8.564
 2513POPC   C2B33884  30.721  10.294   8.264
 2513POPC   C3B33885  30.711  10.246   7.964
 2513POPC   C4B33886  30.717  10.254   7.664
 2514POPC   NC333887  12.875  36.154   9.464
 2514POPC   PO433888  12.821  36.155   9.164
 2514POPC   GL133889  12.816  36.156   8.864
 2514POPC   GL233890  12.976  36.198   8.864
 2514POPC   C1A33891  12.805  36.103   8.564
 2514POPC   D2A33892  12.833  36.127   8.264
 2514POPC   C3A33893  12.900  36.090   7.964
 2514POPC   C4A33894  12.810  36.157   7.664
 2514POPC   C1B33895  13.077  36.282   8.564
 2514POPC   C2B33896  13.031  36.213   8.264
 2514POPC   C3B33897  13.088  36.244   7.964
 2514POPC   C4B33898  13.076  36.254   7.664
 2515POPC   NC333899  19.874  14.370   9.464
 2515POPC   PO433900  19.827  14.398   9.164
 2515POPC   GL133901  19.817  14.357   8.864
 2515POPC   GL233902  19.981  14.323   8.864
 2515POPC   C1A33903  19.862  14.449   8.564
 2515POPC   D2A33904  19.808  14.438   8.264
 2515POPC   C3A33905  19.850  14.381   7.964
 2515POPC   C4A33906  19.866  14.446   7.664
 2515POPC   C1B33907  20.047  14.320   8.564
 2515POPC   C2B33908  20.091  14.260   8.264
 2515POPC   C3B33909  20.088  14.331   7.964
 2515POPC   C4B33910  20.096  14.289   7.664
 2516POPC   NC333911   0.469  10.476   9.464
 2516POPC   PO433912   0.454  10.509   9.164
 2516POPC   GL133913   0.452  10.539   8.864
 2516POPC   GL233914   0.392  10.408   8.864
 2516POPC   C1A33915   0.390  10.533   8.564
 2516POPC   D2A33916   0.393  10.531   8.264
 2516POPC   C3A33917   0.461  10.521   7.964
 2516POPC   C4A33918   0.481  10.559   7.664
 2516POPC   C1B33919   0.274  10.349   8.564
 2516POPC   C2B33920   0.215  10.357   8.264
 2516POPC   C3B33921   0.286  10.355   7.964
 2516POPC   C4B33922   0.218  10.367   7.664
 2517POPC   NC333923  40.775   1.242   9.464
 2517POPC   PO433924  40.736   1.181   9.164
 2517POPC   GL133925  40.775   1.203   8.864
 2517POPC   GL233926  40.796   1.295   8.864
 2517POPC   C1A33927  40.820   1.230   8.564
 2517POPC   D2A33928  40.751   1.243   8.264
 2517POPC   C3A33929  40.747   1.241   7.964
 2517POPC   C4A33930  40.814   1.207   7.664
 2517POPC   C1B33931  40.857   1.470   8.564
 2517POPC   C2B33932  40.840   1.440   8.264
 2517POPC   C3B33933  40.835   1.460   7.964
 2517POPC   C4B33934  40.826   1.405   7.664
 2518POPC   NC333935   8.185  19.870   9.464
 2518POPC   PO433936   8.182  19.849   9.164
 2518POPC   GL133937   8.197  19.883   8.864
 2518POPC   GL233938   8.280  19.860   8.864
 2518POPC   C1A33939   8.223  19.841   8.564
 2518POPC   D2A33940   8.242  19.828   8.264
 2518POPC   C3A33941   8.155  19.810   7.964
 2518POPC   C4A33942   8.157  19.847   7.664
 2518POPC   C1B33943   8.400  19.916   8.564
 2518POPC   C2B33944   8.399  19.906   8.264
 2518POPC   C3B33945   8.426  19.895   7.964
 2518POPC   C4B33946   8.466  19.853   7.664
 2519POPC   NC333947  43.076  43.870   9.464
 2519POPC   PO433948  43.113  43.894   9.164
 2519POPC   GL133949  43.093  43.906   8.864
 2519POPC   GL233950  42.981  43.911   8.864
 2519POPC   C1A33951  43.088  43.931   8.564
 2519POPC   D2A33952  43.119  43.904   8.264
 2519POPC   C3A33953  43.068  43.911   7.964
 2519POPC   C4A33954  43.146  43.863   7.664
 2519POPC   C1B33955  42.833  43.957   8.564
 2519POPC   C2B33956  42.876  44.003   8.264
 2519POPC   C3B33957  42.873  44.001   7.964
 2519POPC   C4B33958  42.845  43.915   7.664
 2520POPC   NC333959   3.533  34.533   9.464
 2520POPC   PO433960   3.589  34.579   9.164
 2520POPC   GL133961   3.496  34.625   8.864
 2520POPC   GL233962   3.435  34.630   8.864
 2520POPC   C1A33963   3.589  34.549   8.564
 2520POPC   D2A33964   3.500  34.545   8.264
 2520POPC   C3A33965   3.524  34.598   7.964
 2520POPC   C4A33966   3.507  34.621   7.664
 2520POPC   C1B33967   3.360  34.670   8.564
 2520POPC   C2B33968   3.312  34.682   8.264
 2520POPC   C3B33969   3.337  34.625   7.964
 2520POPC   C4B33970   3.321  34.682   7.664
 2521POPC   NC333971  43.935   1.195   9.464
 2521POPC   PO433972  43.849   1.228   9.164
 2521POPC   GL133973  43.908   1.204   8.864
 2521POPC   GL233974  43.823   1.314   8.864
 2521POPC   C1A33975  43.880   1.249   8.564
 2521POPC   D2A33976  43.912   1.190   8.264
 2521POPC   C3A33977  43.883   1.192   7.964
 2521POPC   C4A33978  43.907   1.168   7.664
 2521POPC   C1B33979  43.729   1.458   8.564
 2521POPC   C2B33980  43.774   1.428   8.264
 2521POPC   C3B33981  43.738   1.418   7.964
 2521POPC   C4B33982  43.754   1.447   7.664
 2522POPC   NC333983  23.754   4.285   9.464
 2522POPC   PO433984  23.665   4.270   9.164
 2522POPC   GL133985  23.757   4.316   8.864
 2522POPC   GL233986  23.840   4.257   8.864
 2522POPC   C1A33987  23.683   4.317   8.564
 2522POPC   D2A33988  23.713   4.326   8.264
 2522POPC   C3A33989  23.757   4.329   7.964
 2522POPC   C4A33990  23.724   4.311   7.664
 2522POPC   C1B33991  23.916   4.309   8.564
 2522POPC   C2B33992  23.930   4.297   8.264
 2522POPC   C3B33993  23.912   4.236   7.964
 2522POPC   C4B33994  23.937   4.286   7.664
 2523POPC   NC333995   3.512  43.065   9.464
 2523POPC   PO433996   3.520  43.147   9.164
 2523POPC   GL133997   3.531  43.069   8.864
 2523POPC   GL233998   3.484  43.204   8.864
 2523POPC   C1A33999   3.506  43.150   8.564
 2523POPC   D2A34000   3.566  43.063   8.264
 2523POPC   C3A34001   3.503  43.160   7.964
 2523POPC   C4A34002   3.495  43.140   7.664
 2523POPC   C1B34003   3.407  43.333   8.564
 2523POPC   C2B34004   3.357  43.328   8.264
 2523POPC   C3B34005   3.432  43.300   7.964
 2523POPC   C4B34006   3.362  43.287   7.664
 2524POPC   NC334007  15.943  17.553   9.464
 2524POPC   PO434008  15.945  17.519   9.164
 2524POPC   GL134009  15.941  17.532   8.864
 2524POPC   GL234010  16.002  17.605   8.864
 2524POPC   C1A34011  15.925  17.490   8.564
 2524POPC   D2A34012  15.958  17.551   8.264
 2524POPC   C3A34013  15.910  17.529   7.964
 2524POPC   C4A34014  15.979  17.527   7.664
 2524POPC   C1B34015  16.122  17.726   8.564
 2524POPC   C2B34016  16.141  17.654   8.264
 2524POPC   C3B34017  16.140  17.698   7.964
 2524POPC   C4B34018  16.156  17.728   7.664
 2525POPC   NC334019  39.230  14.450   9.464
 2525POPC   PO434020  39.264  14.422   9.164
 2525POPC   GL134021  39.220  14.405   8.864
 2525POPC   GL234022  39.121  14.439   8.864
 2525POPC   C1A34023  39.220  14.359   8.564
 2525POPC   D2A34024  39.264  14.425   8.264
 2525POPC   C3A34025  39.230  14.452   7.964
 2525POPC   C4A34026  39.202  14.400   7.664
 2525POPC   C1B34027  39.046  14.569   8.564
 2525POPC   C2B34028  39.059  14.535   8.264
 2525POPC   C3B34029  39.067  14.540   7.964
 2525POPC   C4B34030  39.059  14.577   7.664
 2526POPC   NC334031  15.152  41.560   9.464
 2526POPC   PO434032  15.216  41.532   9.164
 2526POPC   GL134033  15.226  41.585   8.864
 2526POPC   GL234034  15.340  41.555   8.864
 2526POPC   C1A34035  15.181  41.531   8.564
 2526POPC   D2A34036  15.222  41.580   8.264
 2526POPC   C3A34037  15.198  41.528   7.964
 2526POPC   C4A34038  15.180  41.530   7.664
 2526POPC   C1B34039  15.453  41.534   8.564
 2526POPC   C2B34040  15.459  41.567   8.264
 2526POPC   C3B34041  15.468  41.555   7.964
 2526POPC   C4B34042  15.387  41.631   7.664
 2527POPC   NC334043  25.298  28.346   9.464
 2527POPC   PO434044  25.291  28.366   9.164
 2527POPC   GL134045  25.277  28.368   8.864
 2527POPC   GL234046  25.241  28.206   8.864
 2527POPC   C1A34047  25.285  28.354   8.564
 2527POPC   D2A34048  25.274  28.413   8.264
 2527POPC   C3A34049  25.311  28.387   7.964
 2527POPC   C4A34050  25.252  28.393   7.664
 2527POPC   C1B34051  25.312  28.092   8.564
 2527POPC   C2B34052  25.281  28.164   8.264
 2527POPC   C3B34053  25.305  28.169   7.964
 2527POPC   C4B34054  25.280  28.121   7.664
 2528POPC   NC334055  10.498  36.140   9.464
 2528POPC   PO434056  10.544  36.112   9.164
 2528POPC   GL134057  10.570  36.083   8.864
 2528POPC   GL234058  10.680  36.197   8.864
 2528POPC   C1A34059  10.496  36.164   8.564
 2528POPC   D2A34060  10.522  36.115   8.264
 2528POPC   C3A34061  10.533  36.087   7.964
 2528POPC   C4A34062  10.514  36.145   7.664
 2528POPC   C1B34063  10.745  36.186   8.564
 2528POPC   C2B34064  10.730  36.200   8.264
 2528POPC   C3B34065  10.717  36.275   7.964
 2528POPC   C4B34066  10.760  36.217   7.664
 2529POPC   NC334067  18.312  12.811   9.464
 2529POPC   PO434068  18.238  12.848   9.164
 2529POPC   GL134069  18.287  12.819   8.864
 2529POPC   GL234070  18.237  12.737   8.864
 2529POPC   C1A34071  18.241  12.875   8.564
 2529POPC   D2A34072  18.321  12.814   8.264
 2529POPC   C3A34073  18.315  12.873   7.964
 2529POPC   C4A34074  18.330  12.849   7.664
 2529POPC   C1B34075  18.073  12.696   8.564
 2529POPC   C2B34076  18.085  12.650   8.264
 2529POPC   C3B34077  18.131  12.666   7.964
 2529POPC   C4B34078  18.136  12.727   7.664
 2530POPC   NC334079  23.748  33.756   9.464
 2530POPC   PO434080  23.683  33.848   9.164
 2530POPC   GL134081  23.687  33.803   8.864
 2530POPC   GL234082  23.817  33.737   8.864
 2530POPC   C1A34083  23.671  33.773   8.564
 2530POPC   D2A34084  23.724  33.779   8.264
 2530POPC   C3A34085  23.681  33.793   7.964
 2530POPC   C4A34086  23.751  33.777   7.664
 2530POPC   C1B34087  23.861  33.675   8.564
 2530POPC   C2B34088  23.927  33.684   8.264
 2530POPC   C3B34089  23.892  33.590   7.964
 2530POPC   C4B34090  23.924  33.598   7.664
 2531POPC   NC334091  22.119  22.130   9.464
 2531POPC   PO434092  22.121  22.170   9.164
 2531POPC   GL134093  22.154  22.114   8.864
 2531POPC   GL234094  22.255  22.295   8.864
 2531POPC   C1A34095  22.156  22.113   8.564
 2531POPC   D2A34096  22.155  22.157   8.264
 2531POPC   C3A34097  22.159  22.191   7.964
 2531POPC   C4A34098  22.117  22.147   7.664
 2531POPC   C1B34099  22.279  22.383   8.564
 2531POPC   C2B34100  22.360  22.336   8.264
 2531POPC   C3B34101  22.289  22.313   7.964
 2531POPC   C4B34102  22.295  22.367   7.664
 2532POPC   NC334103  39.243  41.512   9.464
 2532POPC   PO434104  39.213  41.529   9.164
 2532POPC   GL134105  39.232  41.522   8.864
 2532POPC   GL234106  39.357  41.615   8.864
 2532POPC   C1A34107  39.254  41.549   8.564
 2532POPC   D2A34108  39.249  41.556   8.264
 2532POPC   C3A34109  39.182  41.560   7.964
 2532POPC   C4A34110  39.263  41.601   7.664
 2532POPC   C1B34111  39.428  41.664   8.564
 2532POPC   C2B34112  39.450  41.737   8.264
 2532POPC   C3B34113  39.468  41.656   7.964
 2532POPC   C4B34114  39.413  41.693   7.664
 2533POPC   NC334115  19.875  30.710   9.464
 2533POPC   PO434116  19.874  30.702   9.164
 2533POPC   GL134117  19.878  30.656   8.864
 2533POPC   GL234118  19.924  30.795   8.864
 2533POPC   C1A34119  19.794  30.688   8.564
 2533POPC   D2A34120  19.816  30.732   8.264
 2533POPC   C3A34121  19.879  30.745   7.964
 2533POPC   C4A34122  19.853  30.655   7.664
 2533POPC   C1B34123  20.013  30.925   8.564
 2533POPC   C2B34124  20.023  30.917   8.264
 2533POPC   C3B34125  19.993  30.866   7.964
 2533POPC   C4B34126  20.002  30.833   7.664
 2534POPC   NC334127  44.644   4.303   9.464
 2534POPC   PO434128  44.661   4.366   9.164
 2534POPC   GL134129  44.672   4.351   8.864
 2534POPC   GL234130  44.608   4.185   8.864
 2534POPC   C1A34131  44.673   4.283   8.564
 2534POPC   D2A34132  44.616   4.310   8.264
 2534POPC   C3A34133  44.694   4.310   7.964
 2534POPC   C4A34134  44.628   4.283   7.664
 2534POPC   C1B34135  44.598   4.045   8.564
 2534POPC   C2B34136  44.584   4.125   8.264
 2534POPC   C3B34137  44.585   4.099   7.964
 2534POPC   C4B34138  44.602   4.082   7.664
 2535POPC   NC334139  36.151  19.062   9.464
 2535POPC   PO434140  36.146  19.078   9.164
 2535POPC   GL134141  36.132  19.010   8.864
 2535POPC   GL234142  36.034  18.982   8.864
 2535POPC   C1A34143  36.176  19.093   8.564
 2535POPC   D2A34144  36.139  19.069   8.264
 2535POPC   C3A34145  36.110  19.021   7.964
 2535POPC   C4A34146  36.106  19.027   7.664
 2535POPC   C1B34147  35.982  18.840   8.564
 2535POPC   C2B34148  35.929  18.928   8.264
 2535POPC   C3B34149  35.982  18.916   7.964
 2535POPC   C4B34150  35.989  18.908   7.664
 2536POPC   NC334151  37.631  26.032   9.464
 2536POPC   PO434152  37.668  26.044   9.164
 2536POPC   GL134153  37.646  26.047   8.864
 2536POPC   GL234154  37.651  26.167   8.864
 2536POPC   C1A34155  37.716  26.051   8.564
 2536POPC   D2A34156  37.701  26.074   8.264
 2536POPC   C3A34157  37.719  26.055   7.964
 2536POPC   C4A34158  37.639  26.007   7.664
 2536POPC   C1B34159  37.597  26.238   8.564
 2536POPC   C2B34160  37.593  26.314   8.264
 2536POPC   C3B34161  37.577  26.251   7.964
 2536POPC   C4B34162  37.587  26.254   7.664
 2537POPC   NC334163  22.892  33.840   9.464
 2537POPC   PO434164  22.895  33.842   9.164
 2537POPC   GL134165  22.967  33.773   8.864
 2537POPC   GL234166  22.778  33.860   8.864
 2537POPC   C1A34167  22.949  33.821   8.564
 2537POPC   D2A34168  22.955  33.754   8.264
 2537POPC   C3A34169  22.926  33.771   7.964
 2537POPC   C4A34170  22.893  33.841   7.664
 2537POPC   C1B34171  22.691  33.863   8.564
 2537POPC   C2B34172  22.731  33.829   8.264
 2537POPC   C3B34173  22.701  33.805   7.964
 2537POPC   C4B34174  22.675  33.815   7.664
 2538POPC   NC334175   6.671  10.544   9.464
 2538POPC   PO434176   6.664  10.477   9.164
 2538POPC   GL134177   6.657  10.522   8.864
 2538POPC   GL234178   6.534  10.431   8.864
 2538POPC   C1A34179   6.616  10.499   8.564
 2538POPC   D2A34180   6.658  10.530   8.264
 2538POPC   C3A34181   6.617  10.518   7.964
 2538POPC   C4A34182   6.691  10.567   7.664
 2538POPC   C1B34183   6.461  10.387   8.564
 2538POPC   C2B34184   6.441  10.346   8.264
 2538POPC   C3B34185   6.475  10.317   7.964
 2538POPC   C4B34186   6.417  10.352   7.664
 2539POPC   NC334187  12.092  18.238   9.464
 2539POPC   PO434188  12.074  18.245   9.164
 2539POPC   GL134189  12.097  18.256   8.864
 2539POPC   GL234190  12.212  18.240   8.864
 2539POPC   C1A34191  12.055  18.323   8.564
 2539POPC   D2A34192  12.032  18.307   8.264
 2539POPC   C3A34193  12.035  18.253   7.964
 2539POPC   C4A34194  12.043  18.319   7.664
 2539POPC   C1B34195  12.290  18.203   8.564
 2539POPC   C2B34196  12.328  18.238   8.264
 2539POPC   C3B34197  12.361  18.205   7.964
 2539POPC   C4B34198  12.292  18.212   7.664
 2540POPC   NC334199   8.945  11.279   9.464
 2540POPC   PO434200   8.944  11.347   9.164
 2540POPC   GL134201   9.013  11.278   8.864
 2540POPC   GL234202   9.053  11.265   8.864
 2540POPC   C1A34203   8.946  11.261   8.564
 2540POPC   D2A34204   9.001  11.286   8.264
 2540POPC   C3A34205   9.009  11.349   7.964
 2540POPC   C4A34206   8.945  11.258   7.664
 2540POPC   C1B34207   9.168  11.240   8.564
 2540POPC   C2B34208   9.181  11.228   8.264
 2540POPC   C3B34209   9.151  11.173   7.964
 2540POPC   C4B34210   9.151  11.186   7.664
 2541POPC   NC334211  26.069   1.962   9.464
 2541POPC   PO434212  26.018   1.974   9.164
 2541POPC   GL134213  26.071   2.021   8.864
 2541POPC   GL234214  26.132   2.016   8.864
 2541POPC   C1A34215  26.050   2.034   8.564
 2541POPC   D2A34216  26.031   2.008   8.264
 2541POPC   C3A34217  26.036   1.949   7.964
 2541POPC   C4A34218  26.048   2.012   7.664
 2541POPC   C1B34219  26.308   1.996   8.564
 2541POPC   C2B34220  26.297   1.898   8.264
 2541POPC   C3B34221  26.253   1.989   7.964
 2541POPC   C4B34222  26.335   1.987   7.664
 2542POPC   NC334223  24.524  26.045   9.464
 2542POPC   PO434224  24.443  26.010   9.164
 2542POPC   GL134225  24.454  26.018   8.864
 2542POPC   GL234226  24.575  26.175   8.864
 2542POPC   C1A34227  24.471  25.996   8.564
 2542POPC   D2A34228  24.470  26.077   8.264
 2542POPC   C3A34229  24.483  26.038   7.964
 2542POPC   C4A34230  24.526  26.083   7.664
 2542POPC   C1B34231  24.689  26.266   8.564
 2542POPC   C2B34232  24.666  26.209   8.264
 2542POPC   C3B34233  24.653  26.263   7.964
 2542POPC   C4B34234  24.637  26.219   7.664
 2543POPC   NC334235   7.414   6.641   9.464
 2543POPC   PO434236   7.433   6.660   9.164
 2543POPC   GL134237   7.455   6.683   8.864
 2543POPC   GL234238   7.340   6.650   8.864
 2543POPC   C1A34239   7.436   6.640   8.564
 2543POPC   D2A34240   7.460   6.596   8.264
 2543POPC   C3A34241   7.375   6.670   7.964
 2543POPC   C4A34242   7.457   6.647   7.664
 2543POPC   C1B34243   7.196   6.668   8.564
 2543POPC   C2B34244   7.127   6.633   8.264
 2543POPC   C3B34245   7.196   6.639   7.964
 2543POPC   C4B34246   7.215   6.665   7.664
 2544POPC   NC334247   5.850  10.527   9.464
 2544POPC   PO434248   5.899  10.572   9.164
 2544POPC   GL134249   5.837  10.475   8.864
 2544POPC   GL234250   5.767  10.562   8.864
 2544POPC   C1A34251   5.893  10.557   8.564
 2544POPC   D2A34252   5.878  10.499   8.264
 2544POPC   C3A34253   5.891  10.475   7.964
 2544POPC   C4A34254   5.882  10.477   7.664
 2544POPC   C1B34255   5.601  10.633   8.564
 2544POPC   C2B34256   5.600  10.602   8.264
 2544POPC   C3B34257   5.613  10.540   7.964
 2544POPC   C4B34258   5.671  10.595   7.664
 2545POPC   NC334259  12.087   5.118   9.464
 2545POPC   PO434260  12.043   5.107   9.164
 2545POPC   GL134261  12.098   5.084   8.864
 2545POPC   GL234262  11.934   5.184   8.864
 2545POPC   C1A34263  12.072   5.107   8.564
 2545POPC   D2A34264  12.034   5.098   8.264
 2545POPC   C3A34265  12.118   5.124   7.964
 2545POPC   C4A34266  12.094   5.073   7.664
 2545POPC   C1B34267  11.882   5.294   8.564
 2545POPC   C2B34268  11.867   5.208   8.264
 2545POPC   C3B34269  11.896   5.283   7.964
 2545POPC   C4B34270  11.833   5.258   7.664
 2546POPC   NC334271  25.276  13.665   9.464
 2546POPC   PO434272  25.286  13.677   9.164
 2546POPC   GL134273  25.259  13.666   8.864
 2546POPC   GL234274  25.367  13.660   8.864
 2546POPC   C1A34275  25.233  13.626   8.564
 2546POPC   D2A34276  25.275  13.595   8.264
 2546POPC   C3A34277  25.288  13.585   7.964
 2546POPC   C4A34278  25.236  13.675   7.664
 2546POPC   C1B34279  25.510  13.682   8.564
 2546POPC   C2B34280  25.465  13.658   8.264
 2546POPC   C3B34281  25.460  13.647   7.964
 2546POPC   C4B34282  25.501  13.690   7.664
 2547POPC   NC334283  30.700  43.874   9.464
 2547POPC   PO434284  30.695  43.857   9.164
 2547POPC   GL134285  30.692  43.924   8.864
 2547POPC   GL234286  30.694  44.039   8.864
 2547POPC   C1A34287  30.699  43.913   8.564
 2547POPC   D2A34288  30.661  43.887   8.264
 2547POPC   C3A34289  30.652  43.840   7.964
 2547POPC   C4A34290  30.715  43.881   7.664
 2547POPC   C1B34291  30.769  44.176   8.564
 2547POPC   C2B34292  30.781  44.128   8.264
 2547POPC   C3B34293  30.710  44.153   7.964
 2547POPC   C4B34294  30.762  44.093   7.664
 2548POPC   NC334295  43.851  22.947   9.464
 2548POPC   PO434296  43.885  22.935   9.164
 2548POPC   GL134297  43.857  22.938   8.864
 2548POPC   GL234298  43.821  22.816   8.864
 2548POPC   C1A34299  43.874  22.902   8.564
 2548POPC   D2A34300  43.838  22.918   8.264
 2548POPC   C3A34301  43.870  22.892   7.964
 2548POPC   C4A34302  43.851  22.899   7.664
 2548POPC   C1B34303  43.812  22.734   8.564
 2548POPC   C2B34304  43.856  22.696   8.264
 2548POPC   C3B34305  43.852  22.682   7.964
 2548POPC   C4B34306  43.870  22.655   7.664
 2549POPC   NC334307  22.163  39.257   9.464
 2549POPC   PO434308  22.119  39.185   9.164
 2549POPC   GL134309  22.212  39.181   8.864
 2549POPC   GL234310  22.092  39.393   8.864
 2549POPC   C1A34311  22.190  39.197   8.564
 2549POPC   D2A34312  22.156  39.271   8.264
 2549POPC   C3A34313  22.206  39.208   7.964
 2549POPC   C4A34314  22.128  39.217   7.664
 2549POPC   C1B34315  22.085  39.518   8.564
 2549POPC   C2B34316  22.139  39.437   8.264
 2549POPC   C3B34317  22.096  39.503   7.964
 2549POPC   C4B34318  22.104  39.511   7.664
 2550POPC   NC334319   1.247  43.858   9.464
 2550POPC   PO434320   1.245  43.850   9.164
 2550POPC   GL134321   1.227  43.868   8.864
 2550POPC   GL234322   1.119  43.879   8.864
 2550POPC   C1A34323   1.198  43.849   8.564
 2550POPC   D2A34324   1.183  43.851   8.264
 2550POPC   C3A34325   1.172  43.888   7.964
 2550POPC   C4A34326   1.178  43.859   7.664
 2550POPC   C1B34327   0.950  43.956   8.564
 2550POPC   C2B34328   0.998  43.914   8.264
 2550POPC   C3B34329   0.937  43.944   7.964
 2550POPC   C4B34330   1.019  43.982   7.664
 2551POPC   NC334331   5.827  12.893   9.464
 2551POPC   PO434332   5.836  12.855   9.164
 2551POPC   GL134333   5.868  12.881   8.864
 2551POPC   GL234334   5.766  12.825   8.864
 2551POPC   C1A34335   5.870  12.891   8.564
 2551POPC   D2A34336   5.884  12.806   8.264
 2551POPC   C3A34337   5.835  12.874   7.964
 2551POPC   C4A34338   5.856  12.898   7.664
 2551POPC   C1B34339   5.666  12.897   8.564
 2551POPC   C2B34340   5.641  12.907   8.264
 2551POPC   C3B34341   5.596  12.875   7.964
 2551POPC   C4B34342   5.624  12.866   7.664
 2552POPC   NC334343  44.655   9.754   9.464
 2552POPC   PO434344  44.672   9.727   9.164
 2552POPC   GL134345  44.680   9.798   8.864
 2552POPC   GL234346  44.514   9.790   8.864
 2552POPC   C1A34347  44.676   9.790   8.564
 2552POPC   D2A34348  44.648   9.731   8.264
 2552POPC   C3A34349  44.671   9.699   7.964
 2552POPC   C4A34350  44.691   9.755   7.664
 2552POPC   C1B34351  44.461   9.845   8.564
 2552POPC   C2B34352  44.396   9.863   8.264
 2552POPC   C3B34353  44.484   9.872   7.964
 2552POPC   C4B34354  44.402   9.817   7.664
 2553POPC   NC334355  43.911  22.210   9.464
 2553POPC   PO434356  43.928  22.183   9.164
 2553POPC   GL134357  43.935  22.114   8.864
 2553POPC   GL234358  43.972  22.239   8.864
 2553POPC   C1A34359  43.850  22.149   8.564
 2553POPC   D2A34360  43.879  22.188   8.264
 2553POPC   C3A34361  43.882  22.154   7.964
 2553POPC   C4A34362  43.856  22.200   7.664
 2553POPC   C1B34363  44.088  22.330   8.564
 2553POPC   C2B34364  44.006  22.317   8.264
 2553POPC   C3B34365  44.035  22.333   7.964
 2553POPC   C4B34366  44.035  22.385   7.664
 2554POPC   NC334367  35.351  11.331   9.464
 2554POPC   PO434368  35.380  11.343   9.164
 2554POPC   GL134369  35.311  11.296   8.864
 2554POPC   GL234370  35.243  11.240   8.864
 2554POPC   C1A34371  35.395  11.288   8.564
 2554POPC   D2A34372  35.384  11.329   8.264
 2554POPC   C3A34373  35.304  11.317   7.964
 2554POPC   C4A34374  35.305  11.291   7.664
 2554POPC   C1B34375  35.119  11.171   8.564
 2554POPC   C2B34376  35.116  11.199   8.264
 2554POPC   C3B34377  35.136  11.198   7.964
 2554POPC   C4B34378  35.132  11.171   7.664
 2555POPC   NC334379  42.316   0.407   9.464
 2555POPC   PO434380  42.374   0.434   9.164
 2555POPC   GL134381  42.346   0.478   8.864
 2555POPC   GL234382  42.279   0.393   8.864
 2555POPC   C1A34383  42.327   0.452   8.564
 2555POPC   D2A34384  42.302   0.461   8.264
 2555POPC   C3A34385  42.338   0.395   7.964
 2555POPC   C4A34386  42.344   0.445   7.664
 2555POPC   C1B34387  42.112   0.301   8.564
 2555POPC   C2B34388  42.174   0.243   8.264
 2555POPC   C3B34389  42.146   0.227   7.964
 2555POPC   C4B34390  42.181   0.273   7.664
 2556POPC   NC334391  13.584   5.902   9.464
 2556POPC   PO434392  13.638   5.913   9.164
 2556POPC   GL134393  13.631   5.867   8.864
 2556POPC   GL234394  13.488   5.817   8.864
 2556POPC   C1A34395  13.674   5.910   8.564
 2556POPC   D2A34396  13.626   5.880   8.264
 2556POPC   C3A34397  13.588   5.823   7.964
 2556POPC   C4A34398  13.635   5.907   7.664
 2556POPC   C1B34399  13.373   5.872   8.564
 2556POPC   C2B34400  13.367   5.819   8.264
 2556POPC   C3B34401  13.369   5.884   7.964
 2556POPC   C4B34402  13.395   5.897   7.664
 2557POPC   NC334403  30.661  31.426   9.464
 2557POPC   PO434404  30.648  31.432   9.164
 2557POPC   GL134405  30.700  31.477   8.864
 2557POPC   GL234406  30.657  31.566   8.864
 2557POPC   C1A34407  30.663  31.442   8.564
 2557POPC   D2A34408  30.693  31.483   8.264
 2557POPC   C3A34409  30.690  31.438   7.964
 2557POPC   C4A34410  30.663  31.437   7.664
 2557POPC   C1B34411  30.626  31.679   8.564
 2557POPC   C2B34412  30.699  31.749   8.264
 2557POPC   C3B34413  30.630  31.710   7.964
 2557POPC   C4B34414  30.620  31.723   7.664
 2558POPC   NC334415  28.327   2.780   9.464
 2558POPC   PO434416  28.364   2.779   9.164
 2558POPC   GL134417  28.349   2.782   8.864
 2558POPC   GL234418  28.343   2.626   8.864
 2558POPC   C1A34419  28.415   2.810   8.564
 2558POPC   D2A34420  28.332   2.733   8.264
 2558POPC   C3A34421  28.398   2.780   7.964
 2558POPC   C4A34422  28.362   2.788   7.664
 2558POPC   C1B34423  28.336   2.480   8.564
 2558POPC   C2B34424  28.305   2.538   8.264
 2558POPC   C3B34425  28.317   2.533   7.964
 2558POPC   C4B34426  28.327   2.488   7.664
 2559POPC   NC334427  19.815  21.432   9.464
 2559POPC   PO434428  19.799  21.405   9.164
 2559POPC   GL134429  19.847  21.412   8.864
 2559POPC   GL234430  19.883  21.224   8.864
 2559POPC   C1A34431  19.865  21.381   8.564
 2559POPC   D2A34432  19.801  21.371   8.264
 2559POPC   C3A34433  19.859  21.417   7.964
 2559POPC   C4A34434  19.852  21.343   7.664
 2559POPC   C1B34435  19.869  21.094   8.564
 2559POPC   C2B34436  19.845  21.102   8.264
 2559POPC   C3B34437  19.879  21.174   7.964
 2559POPC   C4B34438  19.889  21.184   7.664
 2560POPC   NC334439   4.336  41.591   9.464
 2560POPC   PO434440   4.320  41.567   9.164
 2560POPC   GL134441   4.323  41.587   8.864
 2560POPC   GL234442   4.455  41.568   8.864
 2560POPC   C1A34443   4.278  41.591   8.564
 2560POPC   D2A34444   4.284  41.514   8.264
 2560POPC   C3A34445   4.288  41.545   7.964
 2560POPC   C4A34446   4.286  41.591   7.664
 2560POPC   C1B34447   4.524  41.574   8.564
 2560POPC   C2B34448   4.572  41.553   8.264
 2560POPC   C3B34449   4.531  41.618   7.964
 2560POPC   C4B34450   4.591  41.601   7.664
 2561POPC   NC334451   0.418  35.368   9.464
 2561POPC   PO434452   0.439  35.378   9.164
 2561POPC   GL134453   0.423  35.331   8.864
 2561POPC   GL234454   0.452  35.206   8.864
 2561POPC   C1A34455   0.467  35.368   8.564
 2561POPC   D2A34456   0.418  35.319   8.264
 2561POPC   C3A34457   0.466  35.309   7.964
 2561POPC   C4A34458   0.425  35.362   7.664
 2561POPC   C1B34459   0.461  35.148   8.564
 2561POPC   C2B34460   0.408  35.110   8.264
 2561POPC   C3B34461   0.414  35.148   7.964
 2561POPC   C4B34462   0.449  35.120   7.664
 2562POPC   NC334463   9.004  24.461   9.464
 2562POPC   PO434464   8.964  24.468   9.164
 2562POPC   GL134465   8.930  24.509   8.864
 2562POPC   GL234466   8.867  24.462   8.864
 2562POPC   C1A34467   9.003  24.471   8.564
 2562POPC   D2A34468   8.978  24.484   8.264
 2562POPC   C3A34469   8.946  24.472   7.964
 2562POPC   C4A34470   8.980  24.502   7.664
 2562POPC   C1B34471   8.736  24.474   8.564
 2562POPC   C2B34472   8.773  24.434   8.264
 2562POPC   C3B34473   8.756  24.438   7.964
 2562POPC   C4B34474   8.738  24.509   7.664
 2563POPC   NC334475  40.004  19.860   9.464
 2563POPC   PO434476  40.005  19.794   9.164
 2563POPC   GL134477  39.965  19.807   8.864
 2563POPC   GL234478  40.099  19.898   8.864
 2563POPC   C1A34479  40.038  19.871   8.564
 2563POPC   D2A34480  40.026  19.861   8.264
 2563POPC   C3A34481  40.057  19.860   7.964
 2563POPC   C4A34482  39.997  19.851   7.664
 2563POPC   C1B34483  40.237  19.886   8.564
 2563POPC   C2B34484  40.202  19.914   8.264
 2563POPC   C3B34485  40.248  19.841   7.964
 2563POPC   C4B34486  40.202  19.904   7.664
 2564POPC   NC334487  37.685   0.403   9.464
 2564POPC   PO434488  37.668   0.397   9.164
 2564POPC   GL134489  37.728   0.427   8.864
 2564POPC   GL234490  37.707   0.321   8.864
 2564POPC   C1A34491  37.650   0.413   8.564
 2564POPC   D2A34492  37.714   0.477   8.264
 2564POPC   C3A34493  37.630   0.471   7.964
 2564POPC   C4A34494  37.643   0.476   7.664
 2564POPC   C1B34495  37.763   0.171   8.564
 2564POPC   C2B34496  37.724   0.229   8.264
 2564POPC   C3B34497  37.731   0.226   7.964
 2564POPC   C4B34498  37.760   0.201   7.664
 2565POPC   NC334499   6.637  19.821   9.464
 2565POPC   PO434500   6.629  19.806   9.164
 2565POPC   GL134501   6.607  19.855   8.864
 2565POPC   GL234502   6.505  19.758   8.864
 2565POPC   C1A34503   6.631  19.802   8.564
 2565POPC   D2A34504   6.600  19.821   8.264
 2565POPC   C3A34505   6.675  19.849   7.964
 2565POPC   C4A34506   6.619  19.786   7.664
 2565POPC   C1B34507   6.434  19.645   8.564
 2565POPC   C2B34508   6.402  19.734   8.264
 2565POPC   C3B34509   6.486  19.722   7.964
 2565POPC   C4B34510   6.419  19.737   7.664
 2566POPC   NC334511   1.181   4.308   9.464
 2566POPC   PO434512   1.216   4.303   9.164
 2566POPC   GL134513   1.182   4.303   8.864
 2566POPC   GL234514   1.279   4.225   8.864
 2566POPC   C1A34515   1.204   4.355   8.564
 2566POPC   D2A34516   1.254   4.298   8.264
 2566POPC   C3A34517   1.216   4.339   7.964
 2566POPC   C4A34518   1.239   4.325   7.664
 2566POPC   C1B34519   1.479   4.211   8.564
 2566POPC   C2B34520   1.448   4.242   8.264
 2566POPC   C3B34521   1.431   4.248   7.964
 2566POPC   C4B34522   1.476   4.207   7.664
 2567POPC   NC334523   8.927  34.622   9.464
 2567POPC   PO434524   8.934  34.544   9.164
 2567POPC   GL134525   9.009  34.556   8.864
 2567POPC   GL234526   8.933  34.690   8.864
 2567POPC   C1A34527   8.966  34.583   8.564
 2567POPC   D2A34528   8.982  34.605   8.264
 2567POPC   C3A34529   9.020  34.614   7.964
 2567POPC   C4A34530   8.930  34.552   7.664
 2567POPC   C1B34531   8.834  34.799   8.564
 2567POPC   C2B34532   8.810  34.813   8.264
 2567POPC   C3B34533   8.783  34.755   7.964
 2567POPC   C4B34534   8.863  34.818   7.664
 2568POPC   NC334535   6.654  12.032   9.464
 2568POPC   PO434536   6.659  12.059   9.164
 2568POPC   GL134537   6.604  12.078   8.864
 2568POPC   GL234538   6.799  12.070   8.864
 2568POPC   C1A34539   6.677  12.037   8.564
 2568POPC   D2A34540   6.597  12.099   8.264
 2568POPC   C3A34541   6.639  12.052   7.964
 2568POPC   C4A34542   6.649  12.038   7.664
 2568POPC   C1B34543   6.874  11.997   8.564
 2568POPC   C2B34544   6.937  12.051   8.264
 2568POPC   C3B34545   6.894  12.074   7.964
 2568POPC   C4B34546   6.887  12.024   7.664
 2569POPC   NC334547  32.233   7.378   9.464
 2569POPC   PO434548  32.269   7.425   9.164
 2569POPC   GL134549  32.287   7.464   8.864
 2569POPC   GL234550  32.263   7.307   8.864
 2569POPC   C1A34551  32.256   7.462   8.564
 2569POPC   D2A34552  32.292   7.422   8.264
 2569POPC   C3A34553  32.267   7.373   7.964
 2569POPC   C4A34554  32.254   7.421   7.664
 2569POPC   C1B34555  32.361   7.157   8.564
 2569POPC   C2B34556  32.311   7.194   8.264
 2569POPC   C3B34557  32.394   7.210   7.964
 2569POPC   C4B34558  32.343   7.211   7.664
 2570POPC   NC334559  19.824  28.341   9.464
 2570POPC   PO434560  19.860  28.375   9.164
 2570POPC   GL134561  19.801  28.402   8.864
 2570POPC   GL234562  19.879  28.477   8.864
 2570POPC   C1A34563  19.826  28.357   8.564
 2570POPC   D2A34564  19.812  28.411   8.264
 2570POPC   C3A34565  19.855  28.380   7.964
 2570POPC   C4A34566  19.826  28.379   7.664
 2570POPC   C1B34567  19.980  28.548   8.564
 2570POPC   C2B34568  19.997  28.605   8.264
 2570POPC   C3B34569  20.025  28.524   7.964
 2570POPC   C4B34570  20.031  28.525   7.664
 2571POPC   NC334571  22.907   7.438   9.464
 2571POPC   PO434572  22.911   7.372   9.164
 2571POPC   GL134573  22.936   7.371   8.864
 2571POPC   GL234574  22.998   7.287   8.864
 2571POPC   C1A34575  22.942   7.409   8.564
 2571POPC   D2A34576  22.909   7.420   8.264
 2571POPC   C3A34577  22.987   7.420   7.964
 2571POPC   C4A34578  22.987   7.470   7.664
 2571POPC   C1B34579  23.076   7.194   8.564
 2571POPC   C2B34580  23.079   7.189   8.264
 2571POPC   C3B34581  23.038   7.200   7.964
 2571POPC   C4B34582  22.999   7.221   7.664
 2572POPC   NC334583  36.085  44.699   9.464
 2572POPC   PO434584  36.161  44.656   9.164
 2572POPC   GL134585  36.173  44.617   8.864
 2572POPC   GL234586  36.262  44.647   8.864
 2572POPC   C1A34587  36.108  44.657   8.564
 2572POPC   D2A34588  36.138  44.619   8.264
 2572POPC   C3A34589  36.165  44.620   7.964
 2572POPC   C4A34590  36.113  44.637   7.664
 2572POPC   C1B34591  36.323  44.604   8.564
 2572POPC   C2B34592  36.369  44.650   8.264
 2572POPC   C3B34593  36.357  44.589   7.964
 2572POPC   C4B34594  36.327  44.567   7.664
 2573POPC   NC334595  29.169   1.993   9.464
 2573POPC   PO434596  29.191   2.029   9.164
 2573POPC   GL134597  29.155   1.981   8.864
 2573POPC   GL234598  29.047   1.975   8.864
 2573POPC   C1A34599  29.139   1.944   8.564
 2573POPC   D2A34600  29.184   1.965   8.264
 2573POPC   C3A34601  29.147   1.966   7.964
 2573POPC   C4A34602  29.165   1.949   7.664
 2573POPC   C1B34603  28.908   1.909   8.564
 2573POPC   C2B34604  28.946   1.945   8.264
 2573POPC   C3B34605  28.863   1.996   7.964
 2573POPC   C4B34606  28.892   1.978   7.664
 2574POPC   NC334607  26.020   9.010   9.464
 2574POPC   PO434608  26.051   8.932   9.164
 2574POPC   GL134609  26.073   9.020   8.864
 2574POPC   GL234610  25.982   9.094   8.864
 2574POPC   C1A34611  26.088   8.951   8.564
 2574POPC   D2A34612  26.055   8.994   8.264
 2574POPC   C3A34613  26.020   8.973   7.964
 2574POPC   C4A34614  26.041   9.008   7.664
 2574POPC   C1B34615  25.848   9.112   8.564
 2574POPC   C2B34616  25.881   9.107   8.264
 2574POPC   C3B34617  25.806   9.122   7.964
 2574POPC   C4B34618  25.881   9.130   7.664
 2575POPC   NC334619  36.871  35.350   9.464
 2575POPC   PO434620  36.907  35.311   9.164
 2575POPC   GL134621  36.914  35.315   8.864
 2575POPC   GL234622  36.959  35.256   8.864
 2575POPC   C1A34623  36.937  35.396   8.564
 2575POPC   D2A34624  36.884  35.341   8.264
 2575POPC   C3A34625  36.909  35.318   7.964
 2575POPC   C4A34626  36.897  35.360   7.664
 2575POPC   C1B34627  37.085  35.204   8.564
 2575POPC   C2B34628  37.066  35.189   8.264
 2575POPC   C3B34629  37.083  35.197   7.964
 2575POPC   C4B34630  37.031  35.131   7.664
 2576POPC   NC334631  32.236  36.952   9.464
 2576POPC   PO434632  32.203  36.905   9.164
 2576POPC   GL134633  32.210  36.893   8.864
 2576POPC   GL234634  32.276  37.011   8.864
 2576POPC   C1A34635  32.262  36.935   8.564
 2576POPC   D2A34636  32.256  36.927   8.264
 2576POPC   C3A34637  32.255  36.897   7.964
 2576POPC   C4A34638  32.265  36.893   7.664
 2576POPC   C1B34639  32.266  37.186   8.564
 2576POPC   C2B34640  32.274  37.170   8.264
 2576POPC   C3B34641  32.254  37.175   7.964
 2576POPC   C4B34642  32.186  37.115   7.664
 2577POPC   NC334643  40.783  22.978   9.464
 2577POPC   PO434644  40.829  22.929   9.164
 2577POPC   GL134645  40.768  22.938   8.864
 2577POPC   GL234646  40.773  23.019   8.864
 2577POPC   C1A34647  40.797  22.971   8.564
 2577POPC   D2A34648  40.825  22.949   8.264
 2577POPC   C3A34649  40.803  22.984   7.964
 2577POPC   C4A34650  40.782  22.890   7.664
 2577POPC   C1B34651  40.760  23.221   8.564
 2577POPC   C2B34652  40.721  23.144   8.264
 2577POPC   C3B34653  40.774  23.142   7.964
 2577POPC   C4B34654  40.755  23.232   7.664
 2578POPC   NC334655  12.125  14.402   9.464
 2578POPC   PO434656  12.044  14.445   9.164
 2578POPC   GL134657  12.111  14.443   8.864
 2578POPC   GL234658  11.995  14.386   8.864
 2578POPC   C1A34659  12.109  14.361   8.564
 2578POPC   D2A34660  12.125  14.403   8.264
 2578POPC   C3A34661  12.121  14.431   7.964
 2578POPC   C4A34662  12.084  14.445   7.664
 2578POPC   C1B34663  11.803  14.359   8.564
 2578POPC   C2B34664  11.816  14.325   8.264
 2578POPC   C3B34665  11.864  14.374   7.964
 2578POPC   C4B34666  11.794  14.350   7.664
 2579POPC   NC334667  26.773  11.268   9.464
 2579POPC   PO434668  26.802  11.287   9.164
 2579POPC   GL134669  26.768  11.339   8.864
 2579POPC   GL234670  26.939  11.326   8.864
 2579POPC   C1A34671  26.844  11.304   8.564
 2579POPC   D2A34672  26.819  11.269   8.264
 2579POPC   C3A34673  26.812  11.282   7.964
 2579POPC   C4A34674  26.866  11.303   7.664
 2579POPC   C1B34675  27.087  11.299   8.564
 2579POPC   C2B34676  27.095  11.282   8.264
 2579POPC   C3B34677  27.046  11.319   7.964
 2579POPC   C4B34678  27.053  11.250   7.664
 2580POPC   NC334679  15.942  38.440   9.464
 2580POPC   PO434680  15.996  38.479   9.164
 2580POPC   GL134681  15.961  38.437   8.864
 2580POPC   GL234682  16.018  38.335   8.864
 2580POPC   C1A34683  15.945  38.499   8.564
 2580POPC   D2A34684  15.994  38.484   8.264
 2580POPC   C3A34685  15.985  38.483   7.964
 2580POPC   C4A34686  15.942  38.457   7.664
 2580POPC   C1B34687  16.166  38.264   8.564
 2580POPC   C2B34688  16.096  38.334   8.264
 2580POPC   C3B34689  16.151  38.304   7.964
 2580POPC   C4B34690  16.106  38.330   7.664
 2581POPC   NC334691  19.875   6.625   9.464
 2581POPC   PO434692  19.852   6.641   9.164
 2581POPC   GL134693  19.874   6.651   8.864
 2581POPC   GL234694  19.843   6.731   8.864
 2581POPC   C1A34695  19.846   6.631   8.564
 2581POPC   D2A34696  19.879   6.664   8.264
 2581POPC   C3A34697  19.804   6.670   7.964
 2581POPC   C4A34698  19.804   6.665   7.664
 2581POPC   C1B34699  19.813   6.870   8.564
 2581POPC   C2B34700  19.776   6.877   8.264
 2581POPC   C3B34701  19.814   6.845   7.964
 2581POPC   C4B34702  19.732   6.887   7.664
 2582POPC   NC334703  23.698  27.551   9.464
 2582POPC   PO434704  23.682  27.608   9.164
 2582POPC   GL134705  23.682  27.565   8.864
 2582POPC   GL234706  23.603  27.599   8.864
 2582POPC   C1A34707  23.719  27.638   8.564
 2582POPC   D2A34708  23.689  27.561   8.264
 2582POPC   C3A34709  23.741  27.603   7.964
 2582POPC   C4A34710  23.746  27.611   7.664
 2582POPC   C1B34711  23.438  27.685   8.564
 2582POPC   C2B34712  23.442  27.631   8.264
 2582POPC   C3B34713  23.474  27.636   7.964
 2582POPC   C4B34714  23.495  27.647   7.664
 2583POPC   NC334715  22.141  43.925   9.464
 2583POPC   PO434716  22.138  43.840   9.164
 2583POPC   GL134717  22.172  43.840   8.864
 2583POPC   GL234718  22.237  43.778   8.864
 2583POPC   C1A34719  22.137  43.935   8.564
 2583POPC   D2A34720  22.133  43.933   8.264
 2583POPC   C3A34721  22.189  43.936   7.964
 2583POPC   C4A34722  22.209  43.893   7.664
 2583POPC   C1B34723  22.387  43.722   8.564
 2583POPC   C2B34724  22.318  43.768   8.264
 2583POPC   C3B34725  22.395  43.695   7.964
 2583POPC   C4B34726  22.304  43.746   7.664
 2584POPC   NC334727   2.763  25.300   9.464
 2584POPC   PO434728   2.779  25.248   9.164
 2584POPC   GL134729   2.807  25.243   8.864
 2584POPC   GL234730   2.731  25.363   8.864
 2584POPC   C1A34731   2.804  25.248   8.564
 2584POPC   D2A34732   2.812  25.283   8.264
 2584POPC   C3A34733   2.741  25.246   7.964
 2584POPC   C4A34734   2.734  25.229   7.664
 2584POPC   C1B34735   2.768  25.509   8.564
 2584POPC   C2B34736   2.756  25.515   8.264
 2584POPC   C3B34737   2.785  25.561   7.964
 2584POPC   C4B34738   2.712  25.563   7.664
 2585POPC   NC334739   2.020  25.290   9.464
 2585POPC   PO434740   2.032  25.223   9.164
 2585POPC   GL134741   1.940  25.298   8.864
 2585POPC   GL234742   1.873  25.266   8.864
 2585POPC   C1A34743   2.020  25.291   8.564
 2585POPC   D2A34744   2.021  25.251   8.264
 2585POPC   C3A34745   1.991  25.230   7.964
 2585POPC   C4A34746   2.039  25.240   7.664
 2585POPC   C1B34747   1.747  25.287   8.564
 2585POPC   C2B34748   1.748  25.296   8.264
 2585POPC   C3B34749   1.778  25.259   7.964
 2585POPC   C4B34750   1.716  25.294   7.664
 2586POPC   NC334751   9.716  16.757   9.464
 2586POPC   PO434752   9.770  16.770   9.164
 2586POPC   GL134753   9.789  16.706   8.864
 2586POPC   GL234754   9.817  16.856   8.864
 2586POPC   C1A34755   9.708  16.695   8.564
 2586POPC   D2A34756   9.731  16.726   8.264
 2586POPC   C3A34757   9.786  16.702   7.964
 2586POPC   C4A34758   9.715  16.697   7.664
 2586POPC   C1B34759   9.776  16.944   8.564
 2586POPC   C2B34760   9.780  16.931   8.264
 2586POPC   C3B34761   9.836  16.988   7.964
 2586POPC   C4B34762   9.796  17.024   7.664
 2587POPC   NC334763  23.760  41.579   9.464
 2587POPC   PO434764  23.689  41.528   9.164
 2587POPC   GL134765  23.710  41.546   8.864
 2587POPC   GL234766  23.775  41.610   8.864
 2587POPC   C1A34767  23.728  41.548   8.564
 2587POPC   D2A34768  23.738  41.598   8.264
 2587POPC   C3A34769  23.692  41.537   7.964
 2587POPC   C4A34770  23.674  41.558   7.664
 2587POPC   C1B34771  23.936  41.693   8.564
 2587POPC   C2B34772  23.960  41.717   8.264
 2587POPC   C3B34773  23.944  41.689   7.964
 2587POPC   C4B34774  23.933  41.740   7.664
 2588POPC   NC334775   0.469  41.572   9.464
 2588POPC   PO434776   0.472  41.522   9.164
 2588POPC   GL134777   0.407  41.551   8.864
 2588POPC   GL234778   0.365  41.573   8.864
 2588POPC   C1A34779   0.439  41.603   8.564
 2588POPC   D2A34780   0.487  41.603   8.264
 2588POPC   C3A34781   0.416  41.521   7.964
 2588POPC   C4A34782   0.405  41.595   7.664
 2588POPC   C1B34783   0.164  41.677   8.564
 2588POPC   C2B34784   0.161  41.604   8.264
 2588POPC   C3B34785   0.170  41.646   7.964
 2588POPC   C4B34786   0.232  41.647   7.664
 2589POPC   NC334787  26.781   9.706   9.464
 2589POPC   PO434788  26.797   9.783   9.164
 2589POPC   GL134789  26.810   9.771   8.864
 2589POPC   GL234790  26.924   9.698   8.864
 2589POPC   C1A34791  26.805   9.786   8.564
 2589POPC   D2A34792  26.801   9.797   8.264
 2589POPC   C3A34793  26.810   9.745   7.964
 2589POPC   C4A34794  26.828   9.770   7.664
 2589POPC   C1B34795  26.940   9.526   8.564
 2589POPC   C2B34796  26.921   9.576   8.264
 2589POPC   C3B34797  27.010   9.584   7.964
 2589POPC   C4B34798  26.991   9.572   7.664
 2590POPC   NC334799  33.784  19.043   9.464
 2590POPC   PO434800  33.775  19.022   9.164
 2590POPC   GL134801  33.764  19.064   8.864
 2590POPC   GL234802  33.923  19.001   8.864
 2590POPC   C1A34803  33.823  19.095   8.564
 2590POPC   D2A34804  33.762  19.033   8.264
 2590POPC   C3A34805  33.819  19.027   7.964
 2590POPC   C4A34806  33.816  19.049   7.664
 2590POPC   C1B34807  34.089  19.027   8.564
 2590POPC   C2B34808  34.031  18.993   8.264
 2590POPC   C3B34809  34.092  19.065   7.964
 2590POPC   C4B34810  34.032  19.078   7.664
 2591POPC   NC334811  20.607   6.613   9.464
 2591POPC   PO434812  20.646   6.622   9.164
 2591POPC   GL134813  20.621   6.600   8.864
 2591POPC   GL234814  20.462   6.675   8.864
 2591POPC   C1A34815  20.647   6.687   8.564
 2591POPC   D2A34816  20.570   6.671   8.264
 2591POPC   C3A34817  20.658   6.671   7.964
 2591POPC   C4A34818  20.654   6.666   7.664
 2591POPC   C1B34819  20.390   6.835   8.564
 2591POPC   C2B34820  20.366   6.748   8.264
 2591POPC   C3B34821  20.405   6.797   7.964
 2591POPC   C4B34822  20.439   6.832   7.664
 2592POPC   NC334823  15.212  35.340   9.464
 2592POPC   PO434824  15.137  35.322   9.164
 2592POPC   GL134825  15.152  35.396   8.864
 2592POPC   GL234826  15.074  35.288   8.864
 2592POPC   C1A34827  15.172  35.323   8.564
 2592POPC   D2A34828  15.162  35.383   8.264
 2592POPC   C3A34829  15.166  35.321   7.964
 2592POPC   C4A34830  15.148  35.392   7.664
 2592POPC   C1B34831  14.978  35.137   8.564
 2592POPC   C2B34832  15.027  35.134   8.264
 2592POPC   C3B34833  15.038  35.148   7.964
 2592POPC   C4B34834  14.993  35.130   7.664
 2593POPC   NC334835   0.457   7.432   9.464
 2593POPC   PO434836   0.429   7.389   9.164
 2593POPC   GL134837   0.422   7.402   8.864
 2593POPC   GL234838   0.601   7.360   8.864
 2593POPC   C1A34839   0.420   7.424   8.564
 2593POPC   D2A34840   0.475   7.424   8.264
 2593POPC   C3A34841   0.474   7.417   7.964
 2593POPC   C4A34842   0.452   7.375   7.664
 2593POPC   C1B34843   0.658   7.378   8.564
 2593POPC   C2B34844   0.716   7.400   8.264
 2593POPC   C3B34845   0.654   7.381   7.964
 2593POPC   C4B34846   0.696   7.380   7.664
 2594POPC   NC334847  40.832  42.366   9.464
 2594POPC   PO434848  40.823  42.353   9.164
 2594POPC   GL134849  40.803  42.344   8.864
 2594POPC   GL234850  40.672  42.233   8.864
 2594POPC   C1A34851  40.781  42.383   8.564
 2594POPC   D2A34852  40.770  42.329   8.264
 2594POPC   C3A34853  40.758  42.304   7.964
 2594POPC   C4A34854  40.768  42.365   7.664
 2594POPC   C1B34855  40.606  42.252   8.564
 2594POPC   C2B34856  40.543  42.275   8.264
 2594POPC   C3B34857  40.519  42.181   7.964
 2594POPC   C4B34858  40.592  42.265   7.664
 2595POPC   NC334859  43.145  15.975   9.464
 2595POPC   PO434860  43.102  15.953   9.164
 2595POPC   GL134861  43.132  15.932   8.864
 2595POPC   GL234862  43.154  15.839   8.864
 2595POPC   C1A34863  43.121  15.972   8.564
 2595POPC   D2A34864  43.142  15.914   8.264
 2595POPC   C3A34865  43.143  15.962   7.964
 2595POPC   C4A34866  43.092  15.991   7.664
 2595POPC   C1B34867  43.066  15.691   8.564
 2595POPC   C2B34868  43.127  15.738   8.264
 2595POPC   C3B34869  43.087  15.754   7.964
 2595POPC   C4B34870  43.127  15.670   7.664
 2596POPC   NC334871  16.720   2.757   9.464
 2596POPC   PO434872  16.738   2.743   9.164
 2596POPC   GL134873  16.703   2.748   8.864
 2596POPC   GL234874  16.843   2.884   8.864
 2596POPC   C1A34875  16.736   2.770   8.564
 2596POPC   D2A34876  16.727   2.740   8.264
 2596POPC   C3A34877  16.693   2.754   7.964
 2596POPC   C4A34878  16.750   2.812   7.664
 2596POPC   C1B34879  16.852   2.962   8.564
 2596POPC   C2B34880  16.944   2.971   8.264
 2596POPC   C3B34881  16.922   2.979   7.964
 2596POPC   C4B34882  16.909   2.937   7.664
 2597POPC   NC334883  40.744   3.577   9.464
 2597POPC   PO434884  40.773   3.504   9.164
 2597POPC   GL134885  40.815   3.499   8.864
 2597POPC   GL234886  40.711   3.444   8.864
 2597POPC   C1A34887  40.814   3.574   8.564
 2597POPC   D2A34888  40.788   3.579   8.264
 2597POPC   C3A34889  40.819   3.551   7.964
 2597POPC   C4A34890  40.774   3.514   7.664
 2597POPC   C1B34891  40.668   3.289   8.564
 2597POPC   C2B34892  40.668   3.322   8.264
 2597POPC   C3B34893  40.599   3.342   7.964
 2597POPC   C4B34894  40.650   3.305   7.664
 2598POPC   NC334895   1.954  39.244   9.464
 2598POPC   PO434896   1.944  39.200   9.164
 2598POPC   GL134897   1.954  39.225   8.864
 2598POPC   GL234898   1.938  39.154   8.864
 2598POPC   C1A34899   1.991  39.234   8.564
 2598POPC   D2A34900   2.037  39.231   8.264
 2598POPC   C3A34901   1.963  39.192   7.964
 2598POPC   C4A34902   1.944  39.202   7.664
 2598POPC   C1B34903   1.883  39.007   8.564
 2598POPC   C2B34904   1.840  39.045   8.264
 2598POPC   C3B34905   1.888  38.984   7.964
 2598POPC   C4B34906   1.821  38.992   7.664
 2599POPC   NC334907  19.032  21.432   9.464
 2599POPC   PO434908  19.065  21.340   9.164
 2599POPC   GL134909  19.034  21.409   8.864
 2599POPC   GL234910  19.132  21.348   8.864
 2599POPC   C1A34911  19.037  21.420   8.564
 2599POPC   D2A34912  19.057  21.417   8.264
 2599POPC   C3A34913  19.085  21.426   7.964
 2599POPC   C4A34914  19.101  21.352   7.664
 2599POPC   C1B34915  19.282  21.308   8.564
 2599POPC   C2B34916  19.330  21.337   8.264
 2599POPC   C3B34917  19.308  21.282   7.964
 2599POPC   C4B34918  19.286  21.279   7.664
 2600POPC   NC334919  11.342   8.166   9.464
 2600POPC   PO434920  11.331   8.150   9.164
 2600POPC   GL134921  11.318   8.171   8.864
 2600POPC   GL234922  11.222   8.326   8.864
 2600POPC   C1A34923  11.305   8.225   8.564
 2600POPC   D2A34924  11.341   8.156   8.264
 2600POPC   C3A34925  11.327   8.162   7.964
 2600POPC   C4A34926  11.338   8.197   7.664
 2600POPC   C1B34927  11.215   8.396   8.564
 2600POPC   C2B34928  11.195   8.379   8.264
 2600POPC   C3B34929  11.216   8.390   7.964
 2600POPC   C4B34930  11.143   8.410   7.664
 2601POPC   NC334931  40.036   9.753   9.464
 2601POPC   PO434932  39.985   9.793   9.164
 2601POPC   GL134933  39.986   9.779   8.864
 2601POPC   GL234934  40.099   9.794   8.864
 2601POPC   C1A34935  40.032   9.748   8.564
 2601POPC   D2A34936  39.975   9.702   8.264
 2601POPC   C3A34937  39.984   9.750   7.964
 2601POPC   C4A34938  39.979   9.704   7.664
 2601POPC   C1B34939  40.197   9.931   8.564
 2601POPC   C2B34940  40.169   9.913   8.264
 2601POPC   C3B34941  40.163   9.925   7.964
 2601POPC   C4B34942  40.223   9.950   7.664
 2602POPC   NC334943  15.180  38.497   9.464
 2602POPC   PO434944  15.172  38.462   9.164
 2602POPC   GL134945  15.137  38.500   8.864
 2602POPC   GL234946  15.171  38.606   8.864
 2602POPC   C1A34947  15.150  38.504   8.564
 2602POPC   D2A34948  15.161  38.487   8.264
 2602POPC   C3A34949  15.188  38.453   7.964
 2602POPC   C4A34950  15.178  38.437   7.664
 2602POPC   C1B34951  15.179  38.701   8.564
 2602POPC   C2B34952  15.210  38.725   8.264
 2602POPC   C3B34953  15.205  38.663   7.964
 2602POPC   C4B34954  15.248  38.701   7.664
 2603POPC   NC334955   5.062  33.819   9.464
 2603POPC   PO434956   5.109  33.795   9.164
 2603POPC   GL134957   5.043  33.765   8.864
 2603POPC   GL234958   5.046  33.704   8.864
 2603POPC   C1A34959   5.085  33.847   8.564
 2603POPC   D2A34960   5.077  33.796   8.264
 2603POPC   C3A34961   5.077  33.819   7.964
 2603POPC   C4A34962   5.058  33.844   7.664
 2603POPC   C1B34963   4.924  33.539   8.564
 2603POPC   C2B34964   4.982  33.605   8.264
 2603POPC   C3B34965   4.931  33.627   7.964
 2603POPC   C4B34966   4.929  33.579   7.664
 2604POPC   NC334967   8.973  29.098   9.464
 2604POPC   PO434968   8.956  29.189   9.164
 2604POPC   GL134969   8.983  29.174   8.864
 2604POPC   GL234970   8.846  29.111   8.864
 2604POPC   C1A34971   8.947  29.180   8.564
 2604POPC   D2A34972   8.986  29.183   8.264
 2604POPC   C3A34973   8.942  29.129   7.964
 2604POPC   C4A34974   8.977  29.177   7.664
 2604POPC   C1B34975   8.718  29.132   8.564
 2604POPC   C2B34976   8.706  29.131   8.264
 2604POPC   C3B34977   8.746  29.130   7.964
 2604POPC   C4B34978   8.725  29.148   7.664
 2605POPC   NC334979   6.644   4.341   9.464
 2605POPC   PO434980   6.597   4.323   9.164
 2605POPC   GL134981   6.630   4.315   8.864
 2605POPC   GL234982   6.747   4.300   8.864
 2605POPC   C1A34983   6.614   4.290   8.564
 2605POPC   D2A34984   6.600   4.286   8.264
 2605POPC   C3A34985   6.692   4.306   7.964
 2605POPC   C4A34986   6.639   4.280   7.664
 2605POPC   C1B34987   6.919   4.251   8.564
 2605POPC   C2B34988   6.867   4.250   8.264
 2605POPC   C3B34989   6.893   4.279   7.964
 2605POPC   C4B34990   6.937   4.342   7.664
 2606POPC   NC334991  37.659  23.678   9.464
 2606POPC   PO434992  37.661  23.761   9.164
 2606POPC   GL134993  37.642  23.721   8.864
 2606POPC   GL234994  37.717  23.872   8.864
 2606POPC   C1A34995  37.648  23.716   8.564
 2606POPC   D2A34996  37.647  23.674   8.264
 2606POPC   C3A34997  37.661  23.676   7.964
 2606POPC   C4A34998  37.633  23.717   7.664
 2606POPC   C1B34999  37.655  23.939   8.564
 2606POPC   C2B35000  37.636  23.981   8.264
 2606POPC   C3B35001  37.699  23.997   7.964
 2606POPC   C4B35002  37.615  23.946   7.664
 2607POPC   NC335003  41.604  30.732   9.464
 2607POPC   PO435004  41.562  30.706   9.164
 2607POPC   GL135005  41.566  30.659   8.864
 2607POPC   GL235006  41.637  30.574   8.864
 2607POPC   C1A35007  41.608  30.685   8.564
 2607POPC   D2A35008  41.526  30.667   8.264
 2607POPC   C3A35009  41.525  30.668   7.964
 2607POPC   C4A35010  41.535  30.666   7.664
 2607POPC   C1B35011  41.695  30.511   8.564
 2607POPC   C2B35012  41.652  30.487   8.264
 2607POPC   C3B35013  41.726  30.493   7.964
 2607POPC   C4B35014  41.738  30.483   7.664
 2608POPC   NC335015  10.533  44.635   9.464
 2608POPC   PO435016  10.542  44.709   9.164
 2608POPC   GL135017  10.561  44.692   8.864
 2608POPC   GL235018  10.535  44.835   8.864
 2608POPC   C1A35019  10.554  44.691   8.564
 2608POPC   D2A35020  10.505  44.654   8.264
 2608POPC   C3A35021  10.570  44.665   7.964
 2608POPC   C4A35022  10.535  44.697   7.664
 2608POPC   C1B35023  10.573  44.912   8.564
 2608POPC   C2B35024  10.481  44.943   8.264
 2608POPC   C3B35025  10.514  44.933   7.964
 2608POPC   C4B35026  10.520  44.873   7.664
 2609POPC   NC335027   5.057  37.666   9.464
 2609POPC   PO435028   5.118  37.668   9.164
 2609POPC   GL135029   5.139  37.644   8.864
 2609POPC   GL235030   4.943  37.692   8.864
 2609POPC   C1A35031   5.125  37.690   8.564
 2609POPC   D2A35032   5.047  37.659   8.264
 2609POPC   C3A35033   5.092  37.707   7.964
 2609POPC   C4A35034   5.089  37.709   7.664
 2609POPC   C1B35035   4.851  37.627   8.564
 2609POPC   C2B35036   4.829  37.630   8.264
 2609POPC   C3B35037   4.815  37.671   7.964
 2609POPC   C4B35038   4.842  37.639   7.664
 2610POPC   NC335039  31.492  10.523   9.464
 2610POPC   PO435040  31.517  10.549   9.164
 2610POPC   GL135041  31.438  10.557   8.864
 2610POPC   GL235042  31.529  10.637   8.864
 2610POPC   C1A35043  31.473  10.555   8.564
 2610POPC   D2A35044  31.470  10.477   8.264
 2610POPC   C3A35045  31.448  10.500   7.964
 2610POPC   C4A35046  31.422  10.505   7.664
 2610POPC   C1B35047  31.625  10.699   8.564
 2610POPC   C2B35048  31.589  10.726   8.264
 2610POPC   C3B35049  31.562  10.737   7.964
 2610POPC   C4B35050  31.650  10.732   7.664
 2611POPC   NC335051  14.363  26.001   9.464
 2611POPC   PO435052  14.453  26.001   9.164
 2611POPC   GL135053  14.361  26.064   8.864
 2611POPC   GL235054  14.326  26.116   8.864
 2611POPC   C1A35055  14.381  26.023   8.564
 2611POPC   D2A35056  14.365  26.067   8.264
 2611POPC   C3A35057  14.402  26.004   7.964
 2611POPC   C4A35058  14.375  26.058   7.664
 2611POPC   C1B35059  14.270  26.227   8.564
 2611POPC   C2B35060  14.314  26.258   8.264
 2611POPC   C3B35061  14.312  26.232   7.964
 2611POPC   C4B35062  14.281  26.285   7.664
 2612POPC   NC335063  16.711  31.458   9.464
 2612POPC   PO435064  16.740  31.449   9.164
 2612POPC   GL135065  16.734  31.436   8.864
 2612POPC   GL235066  16.707  31.328   8.864
 2612POPC   C1A35067  16.755  31.427   8.564
 2612POPC   D2A35068  16.763  31.475   8.264
 2612POPC   C3A35069  16.738  31.500   7.964
 2612POPC   C4A35070  16.736  31.485   7.664
 2612POPC   C1B35071  16.601  31.216   8.564
 2612POPC   C2B35072  16.658  31.235   8.264
 2612POPC   C3B35073  16.642  31.254   7.964
 2612POPC   C4B35074  16.587  31.202   7.664
 2613POPC   NC335075  29.872   8.170   9.464
 2613POPC   PO435076  29.958   8.163   9.164
 2613POPC   GL135077  29.892   8.163   8.864
 2613POPC   GL235078  29.896   8.271   8.864
 2613POPC   C1A35079  29.953   8.225   8.564
 2613POPC   D2A35080  29.949   8.193   8.264
 2613POPC   C3A35081  29.962   8.189   7.964
 2613POPC   C4A35082  29.871   8.181   7.664
 2613POPC   C1B35083  29.875   8.475   8.564
 2613POPC   C2B35084  29.839   8.452   8.264
 2613POPC   C3B35085  29.838   8.440   7.964
 2613POPC   C4B35086  29.883   8.385   7.664
 2614POPC   NC335087  18.328   8.221   9.464
 2614POPC   PO435088  18.258   8.191   9.164
 2614POPC   GL135089  18.306   8.242   8.864
 2614POPC   GL235090  18.196   8.194   8.864
 2614POPC   C1A35091  18.331   8.241   8.564
 2614POPC   D2A35092  18.254   8.154   8.264
 2614POPC   C3A35093  18.259   8.191   7.964
 2614POPC   C4A35094  18.307   8.202   7.664
 2614POPC   C1B35095  18.004   8.168   8.564
 2614POPC   C2B35096  18.013   8.122   8.264
 2614POPC   C3B35097  18.043   8.190   7.964
 2614POPC   C4B35098  18.055   8.191   7.664
 2615POPC   NC335099  26.008  12.099   9.464
 2615POPC   PO435100  26.025  12.106   9.164
 2615POPC   GL135101  26.004  12.078   8.864
 2615POPC   GL235102  26.135  12.022   8.864
 2615POPC   C1A35103  26.005  12.064   8.564
 2615POPC   D2A35104  26.077  12.088   8.264
 2615POPC   C3A35105  26.023  12.087   7.964
 2615POPC   C4A35106  26.013  12.114   7.664
 2615POPC   C1B35107  26.241  12.074   8.564
 2615POPC   C2B35108  26.299  12.009   8.264
 2615POPC   C3B35109  26.257  11.995   7.964
 2615POPC   C4B35110  26.312  12.012   7.664
 2616POPC   NC335111   1.226  27.553   9.464
 2616POPC   PO435112   1.167  27.554   9.164
 2616POPC   GL135113   1.238  27.638   8.864
 2616POPC   GL235114   1.317  27.551   8.864
 2616POPC   C1A35115   1.190  27.619   8.564
 2616POPC   D2A35116   1.243  27.613   8.264
 2616POPC   C3A35117   1.194  27.604   7.964
 2616POPC   C4A35118   1.196  27.584   7.664
 2616POPC   C1B35119   1.467  27.472   8.564
 2616POPC   C2B35120   1.452  27.532   8.264
 2616POPC   C3B35121   1.407  27.511   7.964
 2616POPC   C4B35122   1.425  27.510   7.664
 2617POPC   NC335123  38.486  12.816   9.464
 2617POPC   PO435124  38.438  12.885   9.164
 2617POPC   GL135125  38.500  12.817   8.864
 2617POPC   GL235126  38.406  12.757   8.864
 2617POPC   C1A35127  38.479  12.837   8.564
 2617POPC   D2A35128  38.431  12.892   8.264
 2617POPC   C3A35129  38.436  12.882   7.964
 2617POPC   C4A35130  38.502  12.876   7.664
 2617POPC   C1B35131  38.320  12.622   8.564
 2617POPC   C2B35132  38.298  12.613   8.264
 2617POPC   C3B35133  38.349  12.692   7.964
 2617POPC   C4B35134  38.298  12.683   7.664
 2618POPC   NC335135  33.835  19.829   9.464
 2618POPC   PO435136  33.843  19.801   9.164
 2618POPC   GL135137  33.828  19.835   8.864
 2618POPC   GL235138  33.729  19.783   8.864
 2618POPC   C1A35139  33.750  19.814   8.564
 2618POPC   D2A35140  33.838  19.846   8.264
 2618POPC   C3A35141  33.815  19.868   7.964
 2618POPC   C4A35142  33.773  19.820   7.664
 2618POPC   C1B35143  33.546  19.672   8.564
 2618POPC   C2B35144  33.553  19.730   8.264
 2618POPC   C3B35145  33.577  19.729   7.964
 2618POPC   C4B35146  33.568  19.741   7.664
 2619POPC   NC335147  34.563  26.083   9.464
 2619POPC   PO435148  34.561  26.091   9.164
 2619POPC   GL135149  34.574  26.054   8.864
 2619POPC   GL235150  34.451  26.006   8.864
 2619POPC   C1A35151  34.597  26.027   8.564
 2619POPC   D2A35152  34.529  26.080   8.264
 2619POPC   C3A35153  34.550  26.007   7.964
 2619POPC   C4A35154  34.541  25.997   7.664
 2619POPC   C1B35155  34.359  25.965   8.564
 2619POPC   C2B35156  34.323  25.884   8.264
 2619POPC   C3B35157  34.318  25.911   7.964
 2619POPC   C4B35158  34.356  25.936   7.664
 2620POPC   NC335159  38.449  35.354   9.464
 2620POPC   PO435160  38.471  35.379   9.164
 2620POPC   GL135161  38.499  35.304   8.864
 2620POPC   GL235162  38.327  35.246   8.864
 2620POPC   C1A35163  38.446  35.373   8.564
 2620POPC   D2A35164  38.473  35.334   8.264
 2620POPC   C3A35165  38.485  35.383   7.964
 2620POPC   C4A35166  38.452  35.354   7.664
 2620POPC   C1B35167  38.198  35.193   8.564
 2620POPC   C2B35168  38.207  35.225   8.264
 2620POPC   C3B35169  38.241  35.171   7.964
 2620POPC   C4B35170  38.276  35.167   7.664
 2621POPC   NC335171  32.980  23.764   9.464
 2621POPC   PO435172  33.063  23.740   9.164
 2621POPC   GL135173  32.999  23.762   8.864
 2621POPC   GL235174  32.945  23.714   8.864
 2621POPC   C1A35175  33.061  23.760   8.564
 2621POPC   D2A35176  32.977  23.707   8.264
 2621POPC   C3A35177  33.044  23.670   7.964
 2621POPC   C4A35178  33.003  23.750   7.664
 2621POPC   C1B35179  32.781  23.747   8.564
 2621POPC   C2B35180  32.764  23.745   8.264
 2621POPC   C3B35181  32.736  23.710   7.964
 2621POPC   C4B35182  32.753  23.744   7.664
 2622POPC   NC335183  11.291  33.837   9.464
 2622POPC   PO435184  11.346  33.823   9.164
 2622POPC   GL135185  11.289  33.757   8.864
 2622POPC   GL235186  11.229  33.953   8.864
 2622POPC   C1A35187  11.347  33.786   8.564
 2622POPC   D2A35188  11.330  33.781   8.264
 2622POPC   C3A35189  11.260  33.845   7.964
 2622POPC   C4A35190  11.280  33.781   7.664
 2622POPC   C1B35191  11.205  34.052   8.564
 2622POPC   C2B35192  11.232  34.067   8.264
 2622POPC   C3B35193  11.162  34.020   7.964
 2622POPC   C4B35194  11.145  34.034   7.664
 2623POPC   NC335195  38.472  32.221   9.464
 2623POPC   PO435196  38.472  32.219   9.164
 2623POPC   GL135197  38.416  32.290   8.864
 2623POPC   GL235198  38.533  32.286   8.864
 2623POPC   C1A35199  38.432  32.251   8.564
 2623POPC   D2A35200  38.482  32.256   8.264
 2623POPC   C3A35201  38.491  32.256   7.964
 2623POPC   C4A35202  38.439  32.228   7.664
 2623POPC   C1B35203  38.710  32.180   8.564
 2623POPC   C2B35204  38.704  32.175   8.264
 2623POPC   C3B35205  38.659  32.259   7.964
 2623POPC   C4B35206  38.736  32.182   7.664
 2624POPC   NC335207  31.432  20.603   9.464
 2624POPC   PO435208  31.481  20.594   9.164
 2624POPC   GL135209  31.494  20.631   8.864
 2624POPC   GL235210  31.367  20.480   8.864
 2624POPC   C1A35211  31.510  20.581   8.564
 2624POPC   D2A35212  31.466  20.597   8.264
 2624POPC   C3A35213  31.474  20.605   7.964
 2624POPC   C4A35214  31.481  20.587   7.664
 2624POPC   C1B35215  31.334  20.459   8.564
 2624POPC   C2B35216  31.326  20.435   8.264
 2624POPC   C3B35217  31.311  20.371   7.964
 2624POPC   C4B35218  31.325  20.405   7.664
 2625POPC   NC335219  22.152  40.044   9.464
 2625POPC   PO435220  22.133  40.019   9.164
 2625POPC   GL135221  22.166  40.055   8.864
 2625POPC   GL235222  22.274  39.873   8.864
 2625POPC   C1A35223  22.185  40.035   8.564
 2625POPC   D2A35224  22.207  39.992   8.264
 2625POPC   C3A35225  22.145  39.987   7.964
 2625POPC   C4A35226  22.189  39.995   7.664
 2625POPC   C1B35227  22.304  39.766   8.564
 2625POPC   C2B35228  22.247  39.782   8.264
 2625POPC   C3B35229  22.312  39.748   7.964
 2625POPC   C4B35230  22.266  39.838   7.664
 2626POPC   NC335231  24.491  19.073   9.464
 2626POPC   PO435232  24.442  19.098   9.164
 2626POPC   GL135233  24.470  19.014   8.864
 2626POPC   GL235234  24.393  18.985   8.864
 2626POPC   C1A35235  24.491  19.100   8.564
 2626POPC   D2A35236  24.483  19.062   8.264
 2626POPC   C3A35237  24.522  19.055   7.964
 2626POPC   C4A35238  24.471  19.099   7.664
 2626POPC   C1B35239  24.321  18.894   8.564
 2626POPC   C2B35240  24.351  18.848   8.264
 2626POPC   C3B35241  24.343  18.841   7.964
 2626POPC   C4B35242  24.298  18.850   7.664
 2627POPC   NC335243   1.988   8.934   9.464
 2627POPC   PO435244   2.025   8.978   9.164
 2627POPC   GL135245   1.944   8.973   8.864
 2627POPC   GL235246   2.022   9.134   8.864
 2627POPC   C1A35247   1.966   8.966   8.564
 2627POPC   D2A35248   1.972   8.946   8.264
 2627POPC   C3A35249   2.037   8.952   7.964
 2627POPC   C4A35250   2.039   8.959   7.664
 2627POPC   C1B35251   1.960   9.212   8.564
 2627POPC   C2B35252   1.952   9.211   8.264
 2627POPC   C3B35253   1.979   9.263   7.964
 2627POPC   C4B35254   2.006   9.260   7.664
 2628POPC   NC335255   1.212   9.737   9.464
 2628POPC   PO435256   1.217   9.780   9.164
 2628POPC   GL135257   1.175   9.772   8.864
 2628POPC   GL235258   1.334   9.754   8.864
 2628POPC   C1A35259   1.232   9.725   8.564
 2628POPC   D2A35260   1.207   9.778   8.264
 2628POPC   C3A35261   1.225   9.744   7.964
 2628POPC   C4A35262   1.228   9.718   7.664
 2628POPC   C1B35263   1.456   9.784   8.564
 2628POPC   C2B35264   1.486   9.744   8.264
 2628POPC   C3B35265   1.472   9.790   7.964
 2628POPC   C4B35266   1.414   9.788   7.664
 2629POPC   NC335267  13.627  29.193   9.464
 2629POPC   PO435268  13.634  29.121   9.164
 2629POPC   GL135269  13.638  29.112   8.864
 2629POPC   GL235270  13.478  29.097   8.864
 2629POPC   C1A35271  13.579  29.193   8.564
 2629POPC   D2A35272  13.677  29.149   8.264
 2629POPC   C3A35273  13.659  29.104   7.964
 2629POPC   C4A35274  13.606  29.105   7.664
 2629POPC   C1B35275  13.427  29.056   8.564
 2629POPC   C2B35276  13.447  29.047   8.264
 2629POPC   C3B35277  13.424  29.022   7.964
 2629POPC   C4B35278  13.399  29.073   7.664
 2630POPC   NC335279  11.335   4.327   9.464
 2630POPC   PO435280  11.290   4.310   9.164
 2630POPC   GL135281  11.290   4.312   8.864
 2630POPC   GL235282  11.275   4.240   8.864
 2630POPC   C1A35283  11.311   4.300   8.564
 2630POPC   D2A35284  11.259   4.321   8.264
 2630POPC   C3A35285  11.308   4.342   7.964
 2630POPC   C4A35286  11.325   4.269   7.664
 2630POPC   C1B35287  11.264   4.052   8.564
 2630POPC   C2B35288  11.252   4.088   8.264
 2630POPC   C3B35289  11.286   4.026   7.964
 2630POPC   C4B35290  11.228   4.059   7.664
 2631POPC   NC335291  10.494  43.148   9.464
 2631POPC   PO435292  10.535  43.152   9.164
 2631POPC   GL135293  10.555  43.083   8.864
 2631POPC   GL235294  10.402  43.125   8.864
 2631POPC   C1A35295  10.488  43.087   8.564
 2631POPC   D2A35296  10.567  43.062   8.264
 2631POPC   C3A35297  10.476  43.145   7.964
 2631POPC   C4A35298  10.514  43.074   7.664
 2631POPC   C1B35299  10.247  43.041   8.564
 2631POPC   C2B35300  10.270  43.097   8.264
 2631POPC   C3B35301  10.248  43.132   7.964
 2631POPC   C4B35302  10.232  43.073   7.664
 2632POPC   NC335303  33.042   9.791   9.464
 2632POPC   PO435304  33.061   9.785   9.164
 2632POPC   GL135305  33.024   9.789   8.864
 2632POPC   GL235306  33.083   9.834   8.864
 2632POPC   C1A35307  33.003   9.715   8.564
 2632POPC   D2A35308  33.052   9.783   8.264
 2632POPC   C3A35309  32.998   9.774   7.964
 2632POPC   C4A35310  33.047   9.748   7.664
 2632POPC   C1B35311  33.169   9.932   8.564
 2632POPC   C2B35312  33.171   9.923   8.264
 2632POPC   C3B35313  33.178   9.937   7.964
 2632POPC   C4B35314  33.175   9.899   7.664
 2633POPC   NC335315   8.179  44.695   9.464
 2633POPC   PO435316   8.235  44.682   9.164
 2633POPC   GL135317   8.234  44.681   8.864
 2633POPC   GL235318   8.160  44.821   8.864
 2633POPC   C1A35319   8.235  44.629   8.564
 2633POPC   D2A35320   8.152  44.690   8.264
 2633POPC   C3A35321   8.233  44.699   7.964
 2633POPC   C4A35322   8.243  44.670   7.664
 2633POPC   C1B35323   8.194  44.900   8.564
 2633POPC   C2B35324   8.241  44.955   8.264
 2633POPC   C3B35325   8.244  44.888   7.964
 2633POPC   C4B35326   8.178  44.890   7.664
 2634POPC   NC335327  12.088   8.961   9.464
 2634POPC   PO435328  12.109   9.018   9.164
 2634POPC   GL135329  12.122   8.931   8.864
 2634POPC   GL235330  12.013   8.851   8.864
 2634POPC   C1A35331  12.073   8.959   8.564
 2634POPC   D2A35332  12.085   8.993   8.264
 2634POPC   C3A35333  12.109   8.992   7.964
 2634POPC   C4A35334  12.032   8.983   7.664
 2634POPC   C1B35335  12.027   8.768   8.564
 2634POPC   C2B35336  12.031   8.765   8.264
 2634POPC   C3B35337  12.012   8.765   7.964
 2634POPC   C4B35338  12.007   8.729   7.664
 2635POPC   NC335339  30.737   5.830   9.464
 2635POPC   PO435340  30.705   5.838   9.164
 2635POPC   GL135341  30.702   5.878   8.864
 2635POPC   GL235342  30.775   5.954   8.864
 2635POPC   C1A35343  30.699   5.910   8.564
 2635POPC   D2A35344  30.657   5.910   8.264
 2635POPC   C3A35345  30.667   5.875   7.964
 2635POPC   C4A35346  30.710   5.888   7.664
 2635POPC   C1B35347  30.938   5.995   8.564
 2635POPC   C2B35348  30.932   5.982   8.264
 2635POPC   C3B35349  30.948   5.943   7.964
 2635POPC   C4B35350  30.890   5.994   7.664
 2636POPC   NC335351  16.741  42.331   9.464
 2636POPC   PO435352  16.724  42.311   9.164
 2636POPC   GL135353  16.721  42.370   8.864
 2636POPC   GL235354  16.713  42.440   8.864
 2636POPC   C1A35355  16.758  42.293   8.564
 2636POPC   D2A35356  16.700  42.349   8.264
 2636POPC   C3A35357  16.710  42.322   7.964
 2636POPC   C4A35358  16.711  42.354   7.664
 2636POPC   C1B35359  16.606  42.616   8.564
 2636POPC   C2B35360  16.602  42.570   8.264
 2636POPC   C3B35361  16.594  42.611   7.964
 2636POPC   C4B35362  16.655  42.545   7.664
 2637POPC   NC335363  21.403  17.473   9.464
 2637POPC   PO435364  21.341  17.483   9.164
 2637POPC   GL135365  21.356  17.492   8.864
 2637POPC   GL235366  21.315  17.521   8.864
 2637POPC   C1A35367  21.428  17.487   8.564
 2637POPC   D2A35368  21.379  17.507   8.264
 2637POPC   C3A35369  21.430  17.530   7.964
 2637POPC   C4A35370  21.351  17.475   7.664
 2637POPC   C1B35371  21.181  17.587   8.564
 2637POPC   C2B35372  21.193  17.674   8.264
 2637POPC   C3B35373  21.128  17.608   7.964
 2637POPC   C4B35374  21.184  17.638   7.664
 2638POPC   NC335375  17.470   1.942   9.464
 2638POPC   PO435376  17.543   2.012   9.164
 2638POPC   GL135377  17.507   1.992   8.864
 2638POPC   GL235378  17.615   1.908   8.864
 2638POPC   C1A35379  17.497   1.969   8.564
 2638POPC   D2A35380  17.466   1.950   8.264
 2638POPC   C3A35381  17.520   2.033   7.964
 2638POPC   C4A35382  17.536   1.940   7.664
 2638POPC   C1B35383  17.707   1.837   8.564
 2638POPC   C2B35384  17.671   1.811   8.264
 2638POPC   C3B35385  17.649   1.826   7.964
 2638POPC   C4B35386  17.617   1.787   7.664
 2639POPC   NC335387   6.598   6.651   9.464
 2639POPC   PO435388   6.662   6.659   9.164
 2639POPC   GL135389   6.652   6.646   8.864
 2639POPC   GL235390   6.529   6.615   8.864
 2639POPC   C1A35391   6.641   6.656   8.564
 2639POPC   D2A35392   6.656   6.682   8.264
 2639POPC   C3A35393   6.660   6.639   7.964
 2639POPC   C4A35394   6.645   6.664   7.664
 2639POPC   C1B35395   6.450   6.514   8.564
 2639POPC   C2B35396   6.426   6.536   8.264
 2639POPC   C3B35397   6.433   6.590   7.964
 2639POPC   C4B35398   6.398   6.604   7.664
 2640POPC   NC335399  37.667  37.727   9.464
 2640POPC   PO435400  37.703  37.666   9.164
 2640POPC   GL135401  37.670  37.713   8.864
 2640POPC   GL235402  37.746  37.729   8.864
 2640POPC   C1A35403  37.629  37.650   8.564
 2640POPC   D2A35404  37.667  37.694   8.264
 2640POPC   C3A35405  37.635  37.690   7.964
 2640POPC   C4A35406  37.638  37.697   7.664
 2640POPC   C1B35407  37.837  37.902   8.564
 2640POPC   C2B35408  37.837  37.852   8.264
 2640POPC   C3B35409  37.796  37.837   7.964
 2640POPC   C4B35410  37.854  37.909   7.664
 2641POPC   NC335411  14.446  44.711   9.464
 2641POPC   PO435412  14.444  44.653   9.164
 2641POPC   GL135413  14.364  44.658   8.864
 2641POPC   GL235414  14.316  44.773   8.864
 2641POPC   C1A35415  14.379  44.667   8.564
 2641POPC   D2A35416  14.399  44.660   8.264
 2641POPC   C3A35417  14.432  44.653   7.964
 2641POPC   C4A35418  14.361  44.613   7.664
 2641POPC   C1B35419  14.284  44.840   8.564
 2641POPC   C2B35420  14.266  44.838   8.264
 2641POPC   C3B35421  14.218  44.835   7.964
 2641POPC   C4B35422  14.310  44.863   7.664
 2642POPC   NC335423   2.745  33.034   9.464
 2642POPC   PO435424   2.773  33.074   9.164
 2642POPC   GL135425   2.726  33.001   8.864
 2642POPC   GL235426   2.900  33.037   8.864
 2642POPC   C1A35427   2.759  33.048   8.564
 2642POPC   D2A35428   2.791  33.002   8.264
 2642POPC   C3A35429   2.805  32.985   7.964
 2642POPC   C4A35430   2.740  33.044   7.664
 2642POPC   C1B35431   2.960  33.092   8.564
 2642POPC   C2B35432   2.977  33.134   8.264
 2642POPC   C3B35433   2.965  33.099   7.964
 2642POPC   C4B35434   3.001  33.155   7.664
 2643POPC   NC335435  15.922  10.554   9.464
 2643POPC   PO435436  15.998  10.499   9.164
 2643POPC   GL135437  15.908  10.535   8.864
 2643POPC   GL235438  16.024  10.404   8.864
 2643POPC   C1A35439  15.931  10.535   8.564
 2643POPC   D2A35440  16.005  10.505   8.264
 2643POPC   C3A35441  15.985  10.510   7.964
 2643POPC   C4A35442  15.913  10.502   7.664
 2643POPC   C1B35443  16.046  10.328   8.564
 2643POPC   C2B35444  16.066  10.294   8.264
 2643POPC   C3B35445  16.013  10.268   7.964
 2643POPC   C4B35446  16.009  10.313   7.664
 2644POPC   NC335447  31.480   8.943   9.464
 2644POPC   PO435448  31.437   8.993   9.164
 2644POPC   GL135449  31.466   8.957   8.864
 2644POPC   GL235450  31.572   8.990   8.864
 2644POPC   C1A35451  31.462   8.927   8.564
 2644POPC   D2A35452  31.463   8.932   8.264
 2644POPC   C3A35453  31.451   8.939   7.964
 2644POPC   C4A35454  31.453   8.932   7.664
 2644POPC   C1B35455  31.652   9.082   8.564
 2644POPC   C2B35456  31.680   9.136   8.264
 2644POPC   C3B35457  31.738   9.082   7.964
 2644POPC   C4B35458  31.712   9.105   7.664
 2645POPC   NC335459  36.150  33.045   9.464
 2645POPC   PO435460  36.140  33.029   9.164
 2645POPC   GL135461  36.120  32.975   8.864
 2645POPC   GL235462  36.180  32.924   8.864
 2645POPC   C1A35463  36.155  33.050   8.564
 2645POPC   D2A35464  36.132  33.039   8.264
 2645POPC   C3A35465  36.109  33.023   7.964
 2645POPC   C4A35466  36.095  32.998   7.664
 2645POPC   C1B35467  36.340  32.837   8.564
 2645POPC   C2B35468  36.284  32.858   8.264
 2645POPC   C3B35469  36.362  32.889   7.964
 2645POPC   C4B35470  36.371  32.832   7.664
 2646POPC   NC335471  29.888  25.246   9.464
 2646POPC   PO435472  29.969  25.303   9.164
 2646POPC   GL135473  29.872  25.240   8.864
 2646POPC   GL235474  29.965  25.140   8.864
 2646POPC   C1A35475  29.882  25.299   8.564
 2646POPC   D2A35476  29.960  25.246   8.264
 2646POPC   C3A35477  29.928  25.252   7.964
 2646POPC   C4A35478  29.968  25.292   7.664
 2646POPC   C1B35479  30.054  25.071   8.564
 2646POPC   C2B35480  30.097  25.078   8.264
 2646POPC   C3B35481  30.107  25.048   7.964
 2646POPC   C4B35482  30.116  25.133   7.664
 2647POPC   NC335483  20.617  37.705   9.464
 2647POPC   PO435484  20.652  37.695   9.164
 2647POPC   GL135485  20.599  37.669   8.864
 2647POPC   GL235486  20.677  37.805   8.864
 2647POPC   C1A35487  20.589  37.719   8.564
 2647POPC   D2A35488  20.623  37.693   8.264
 2647POPC   C3A35489  20.635  37.653   7.964
 2647POPC   C4A35490  20.571  37.681   7.664
 2647POPC   C1B35491  20.816  37.823   8.564
 2647POPC   C2B35492  20.829  37.811   8.264
 2647POPC   C3B35493  20.806  37.885   7.964
 2647POPC   C4B35494  20.745  37.815   7.664
 2648POPC   NC335495   1.948  12.037   9.464
 2648POPC   PO435496   2.028  12.054   9.164
 2648POPC   GL135497   1.987  12.083   8.864
 2648POPC   GL235498   2.050  11.933   8.864
 2648POPC   C1A35499   1.998  12.115   8.564
 2648POPC   D2A35500   2.016  12.041   8.264
 2648POPC   C3A35501   1.957  12.029   7.964
 2648POPC   C4A35502   2.005  12.071   7.664
 2648POPC   C1B35503   2.127  11.830   8.564
 2648POPC   C2B35504   2.112  11.889   8.264
 2648POPC   C3B35505   2.088  11.823   7.964
 2648POPC   C4B35506   2.082  11.827   7.664
 2649POPC   NC335507  29.138  32.990   9.464
 2649POPC   PO435508  29.152  33.071   9.164
 2649POPC   GL135509  29.111  33.007   8.864
 2649POPC   GL235510  29.254  32.938   8.864
 2649POPC   C1A35511  29.116  33.026   8.564
 2649POPC   D2A35512  29.153  33.056   8.264
 2649POPC   C3A35513  29.154  32.983   7.964
 2649POPC   C4A35514  29.155  33.010   7.664
 2649POPC   C1B35515  29.360  32.845   8.564
 2649POPC   C2B35516  29.381  32.909   8.264
 2649POPC   C3B35517  29.371  32.824   7.964
 2649POPC   C4B35518  29.298  32.888   7.664
 2650POPC   NC335519  41.550  40.812   9.464
 2650POPC   PO435520  41.552  40.755   9.164
 2650POPC   GL135521  41.510  40.748   8.864
 2650POPC   GL235522  41.633  40.843   8.864
 2650POPC   C1A35523  41.537  40.828   8.564
 2650POPC   D2A35524  41.543  40.742   8.264
 2650POPC   C3A35525  41.514  40.791   7.964
 2650POPC   C4A35526  41.539  40.803   7.664
 2650POPC   C1B35527  41.819  40.935   8.564
 2650POPC   C2B35528  41.782  40.909   8.264
 2650POPC   C3B35529  41.773  40.875   7.964
 2650POPC   C4B35530  41.819  40.910   7.664
 2651POPC   NC335531  29.885  29.167   9.464
 2651POPC   PO435532  29.948  29.133   9.164
 2651POPC   GL135533  29.902  29.167   8.864
 2651POPC   GL235534  29.899  29.272   8.864
 2651POPC   C1A35535  29.873  29.176   8.564
 2651POPC   D2A35536  29.936  29.128   8.264
 2651POPC   C3A35537  29.949  29.112   7.964
 2651POPC   C4A35538  29.898  29.187   7.664
 2651POPC   C1B35539  29.919  29.428   8.564
 2651POPC   C2B35540  29.995  29.371   8.264
 2651POPC   C3B35541  29.939  29.433   7.964
 2651POPC   C4B35542  29.973  29.422   7.664
 2652POPC   NC335543   6.657  22.153   9.464
 2652POPC   PO435544   6.606  22.193   9.164
 2652POPC   GL135545   6.673  22.206   8.864
 2652POPC   GL235546   6.804  22.125   8.864
 2652POPC   C1A35547   6.648  22.144   8.564
 2652POPC   D2A35548   6.692  22.126   8.264
 2652POPC   C3A35549   6.680  22.171   7.964
 2652POPC   C4A35550   6.653  22.210   7.664
 2652POPC   C1B35551   6.869  22.109   8.564
 2652POPC   C2B35552   6.829  22.058   8.264
 2652POPC   C3B35553   6.846  22.080   7.964
 2652POPC   C4B35554   6.850  22.113   7.664
 2653POPC   NC335555  37.662   1.207   9.464
 2653POPC   PO435556  37.655   1.167   9.164
 2653POPC   GL135557  37.703   1.240   8.864
 2653POPC   GL235558  37.687   1.090   8.864
 2653POPC   C1A35559  37.639   1.183   8.564
 2653POPC   D2A35560  37.708   1.211   8.264
 2653POPC   C3A35561  37.701   1.165   7.964
 2653POPC   C4A35562  37.711   1.221   7.664
 2653POPC   C1B35563  37.688   0.948   8.564
 2653POPC   C2B35564  37.613   0.977   8.264
 2653POPC   C3B35565  37.611   0.987   7.964
 2653POPC   C4B35566  37.614   0.975   7.664
 2654POPC   NC335567  17.492  40.831   9.464
 2654POPC   PO435568  17.517  40.747   9.164
 2654POPC   GL135569  17.487  40.747   8.864
 2654POPC   GL235570  17.660  40.791   8.864
 2654POPC   C1A35571  17.522  40.747   8.564
 2654POPC   D2A35572  17.509  40.830   8.264
 2654POPC   C3A35573  17.475  40.791   7.964
 2654POPC   C4A35574  17.489  40.767   7.664
 2654POPC   C1B35575  17.772  40.838   8.564
 2654POPC   C2B35576  17.699  40.876   8.264
 2654POPC   C3B35577  17.733  40.838   7.964
 2654POPC   C4B35578  17.752  40.840   7.664
 2655POPC   NC335579  42.384  43.098   9.464
 2655POPC   PO435580  42.349  43.080   9.164
 2655POPC   GL135581  42.305  43.146   8.864
 2655POPC   GL235582  42.329  43.008   8.864
 2655POPC   C1A35583  42.295  43.139   8.564
 2655POPC   D2A35584  42.323  43.072   8.264
 2655POPC   C3A35585  42.345  43.081   7.964
 2655POPC   C4A35586  42.364  43.077   7.664
 2655POPC   C1B35587  42.450  42.885   8.564
 2655POPC   C2B35588  42.370  42.908   8.264
 2655POPC   C3B35589  42.364  42.884   7.964
 2655POPC   C4B35590  42.404  42.847   7.664
 2656POPC   NC335591  25.279  36.085   9.464
 2656POPC   PO435592  25.265  36.142   9.164
 2656POPC   GL135593  25.315  36.157   8.864
 2656POPC   GL235594  25.198  35.974   8.864
 2656POPC   C1A35595  25.222  36.110   8.564
 2656POPC   D2A35596  25.221  36.082   8.264
 2656POPC   C3A35597  25.296  36.163   7.964
 2656POPC   C4A35598  25.219  36.173   7.664
 2656POPC   C1B35599  25.154  35.948   8.564
 2656POPC   C2B35600  25.185  35.934   8.264
 2656POPC   C3B35601  25.152  35.880   7.964
 2656POPC   C4B35602  25.113  35.915   7.664
 2657POPC   NC335603  15.920  22.984   9.464
 2657POPC   PO435604  15.998  22.985   9.164
 2657POPC   GL135605  15.963  22.943   8.864
 2657POPC   GL235606  16.110  22.929   8.864
 2657POPC   C1A35607  15.927  22.908   8.564
 2657POPC   D2A35608  16.005  22.975   8.264
 2657POPC   C3A35609  15.913  22.896   7.964
 2657POPC   C4A35610  16.005  22.983   7.664
 2657POPC   C1B35611  16.193  22.930   8.564
 2657POPC   C2B35612  16.189  22.915   8.264
 2657POPC   C3B35613  16.249  22.974   7.964
 2657POPC   C4B35614  16.170  22.932   7.664
 2658POPC   NC335615  16.714  21.415   9.464
 2658POPC   PO435616  16.752  21.398   9.164
 2658POPC   GL135617  16.692  21.374   8.864
 2658POPC   GL235618  16.799  21.363   8.864
 2658POPC   C1A35619  16.707  21.354   8.564
 2658POPC   D2A35620  16.775  21.367   8.264
 2658POPC   C3A35621  16.686  21.424   7.964
 2658POPC   C4A35622  16.733  21.413   7.664
 2658POPC   C1B35623  16.976  21.214   8.564
 2658POPC   C2B35624  16.915  21.206   8.264
 2658POPC   C3B35625  16.926  21.272   7.964
 2658POPC   C4B35626  16.915  21.219   7.664
 2659POPC   NC335627  40.042  37.667   9.464
 2659POPC   PO435628  40.010  37.676   9.164
 2659POPC   GL135629  40.034  37.713   8.864
 2659POPC   GL235630  40.073  37.738   8.864
 2659POPC   C1A35631  40.019  37.667   8.564
 2659POPC   D2A35632  40.016  37.640   8.264
 2659POPC   C3A35633  40.022  37.722   7.964
 2659POPC   C4A35634  39.977  37.699   7.664
 2659POPC   C1B35635  40.249  37.750   8.564
 2659POPC   C2B35636  40.241  37.811   8.264
 2659POPC   C3B35637  40.277  37.762   7.964
 2659POPC   C4B35638  40.261  37.795   7.664
 2660POPC   NC335639   0.406   8.208   9.464
 2660POPC   PO435640   0.415   8.204   9.164
 2660POPC   GL135641   0.464   8.207   8.864
 2660POPC   GL235642   0.580   8.231   8.864
 2660POPC   C1A35643   0.472   8.151   8.564
 2660POPC   D2A35644   0.420   8.174   8.264
 2660POPC   C3A35645   0.436   8.171   7.964
 2660POPC   C4A35646   0.414   8.201   7.664
 2660POPC   C1B35647   0.648   8.169   8.564
 2660POPC   C2B35648   0.680   8.244   8.264
 2660POPC   C3B35649   0.687   8.239   7.964
 2660POPC   C4B35650   0.724   8.156   7.664
 2661POPC   NC335651   2.808  12.044   9.464
 2661POPC   PO435652   2.788  12.048   9.164
 2661POPC   GL135653   2.793  12.065   8.864
 2661POPC   GL235654   2.699  12.158   8.864
 2661POPC   C1A35655   2.762  12.089   8.564
 2661POPC   D2A35656   2.718  12.035   8.264
 2661POPC   C3A35657   2.813  12.070   7.964
 2661POPC   C4A35658   2.719  12.052   7.664
 2661POPC   C1B35659   2.662  12.235   8.564
 2661POPC   C2B35660   2.661  12.326   8.264
 2661POPC   C3B35661   2.613  12.241   7.964
 2661POPC   C4B35662   2.590  12.300   7.664
 2662POPC   NC335663  41.553  24.463   9.464
 2662POPC   PO435664  41.593  24.515   9.164
 2662POPC   GL135665  41.541  24.450   8.864
 2662POPC   GL235666  41.664  24.392   8.864
 2662POPC   C1A35667  41.543  24.478   8.564
 2662POPC   D2A35668  41.536  24.441   8.264
 2662POPC   C3A35669  41.541  24.496   7.964
 2662POPC   C4A35670  41.594  24.440   7.664
 2662POPC   C1B35671  41.654  24.306   8.564
 2662POPC   C2B35672  41.685  24.235   8.264
 2662POPC   C3B35673  41.741  24.282   7.964
 2662POPC   C4B35674  41.733  24.235   7.664
 2663POPC   NC335675  37.690  29.110   9.464
 2663POPC   PO435676  37.682  29.126   9.164
 2663POPC   GL135677  37.714  29.164   8.864
 2663POPC   GL235678  37.699  29.027   8.864
 2663POPC   C1A35679  37.682  29.187   8.564
 2663POPC   D2A35680  37.721  29.176   8.264
 2663POPC   C3A35681  37.655  29.096   7.964
 2663POPC   C4A35682  37.688  29.175   7.664
 2663POPC   C1B35683  37.792  28.930   8.564
 2663POPC   C2B35684  37.839  28.908   8.264
 2663POPC   C3B35685  37.858  28.971   7.964
 2663POPC   C4B35686  37.818  28.901   7.664
 2664POPC   NC335687   4.341  40.012   9.464
 2664POPC   PO435688   4.298  39.987   9.164
 2664POPC   GL135689   4.282  40.035   8.864
 2664POPC   GL235690   4.466  40.062   8.864
 2664POPC   C1A35691   4.273  39.994   8.564
 2664POPC   D2A35692   4.347  40.046   8.264
 2664POPC   C3A35693   4.320  40.010   7.964
 2664POPC   C4A35694   4.288  39.993   7.664
 2664POPC   C1B35695   4.532  40.165   8.564
 2664POPC   C2B35696   4.499  40.145   8.264
 2664POPC   C3B35697   4.556  40.092   7.964
 2664POPC   C4B35698   4.536  40.190   7.664
 2665POPC   NC335699  43.864  40.832   9.464
 2665POPC   PO435700  43.887  40.760   9.164
 2665POPC   GL135701  43.856  40.759   8.864
 2665POPC   GL235702  43.996  40.671   8.864
 2665POPC   C1A35703  43.901  40.806   8.564
 2665POPC   D2A35704  43.860  40.739   8.264
 2665POPC   C3A35705  43.838  40.786   7.964
 2665POPC   C4A35706  43.916  40.753   7.664
 2665POPC   C1B35707  43.989  40.609   8.564
 2665POPC   C2B35708  44.071  40.571   8.264
 2665POPC   C3B35709  44.017  40.545   7.964
 2665POPC   C4B35710  44.004  40.586   7.664
 2666POPC   NC335711  36.952  11.313   9.464
 2666POPC   PO435712  36.894  11.342   9.164
 2666POPC   GL135713  36.943  11.259   8.864
 2666POPC   GL235714  36.781  11.211   8.864
 2666POPC   C1A35715  36.949  11.283   8.564
 2666POPC   D2A35716  36.887  11.261   8.264
 2666POPC   C3A35717  36.857  11.256   7.964
 2666POPC   C4A35718  36.908  11.259   7.664
 2666POPC   C1B35719  36.710  11.159   8.564
 2666POPC   C2B35720  36.697  11.156   8.264
 2666POPC   C3B35721  36.657  11.164   7.964
 2666POPC   C4B35722  36.726  11.110   7.664
 2667POPC   NC335723   2.811   9.788   9.464
 2667POPC   PO435724   2.762   9.729   9.164
 2667POPC   GL135725   2.742   9.769   8.864
 2667POPC   GL235726   2.807   9.632   8.864
 2667POPC   C1A35727   2.807   9.707   8.564
 2667POPC   D2A35728   2.763   9.772   8.264
 2667POPC   C3A35729   2.770   9.708   7.964
 2667POPC   C4A35730   2.808   9.745   7.664
 2667POPC   C1B35731   2.796   9.504   8.564
 2667POPC   C2B35732   2.780   9.481   8.264
 2667POPC   C3B35733   2.742   9.458   7.964
 2667POPC   C4B35734   2.782   9.475   7.664
 2668POPC   NC335735   5.868   6.660   9.464
 2668POPC   PO435736   5.909   6.693   9.164
 2668POPC   GL135737   5.860   6.681   8.864
 2668POPC   GL235738   5.787   6.598   8.864
 2668POPC   C1A35739   5.901   6.671   8.564
 2668POPC   D2A35740   5.821   6.691   8.264
 2668POPC   C3A35741   5.832   6.655   7.964
 2668POPC   C4A35742   5.827   6.651   7.664
 2668POPC   C1B35743   5.682   6.555   8.564
 2668POPC   C2B35744   5.669   6.537   8.264
 2668POPC   C3B35745   5.682   6.495   7.964
 2668POPC   C4B35746   5.655   6.560   7.664
 2669POPC   NC335747  24.514  14.404   9.464
 2669POPC   PO435748  24.512  14.439   9.164
 2669POPC   GL135749  24.441  14.430   8.864
 2669POPC   GL235750  24.439  14.300   8.864
 2669POPC   C1A35751  24.537  14.363   8.564
 2669POPC   D2A35752  24.503  14.425   8.264
 2669POPC   C3A35753  24.442  14.434   7.964
 2669POPC   C4A35754  24.448  14.389   7.664
 2669POPC   C1B35755  24.341  14.280   8.564
 2669POPC   C2B35756  24.250  14.266   8.264
 2669POPC   C3B35757  24.254  14.286   7.964
 2669POPC   C4B35758  24.262  14.229   7.664
 2670POPC   NC335759  32.217  35.327   9.464
 2670POPC   PO435760  32.268  35.382   9.164
 2670POPC   GL135761  32.211  35.303   8.864
 2670POPC   GL235762  32.191  35.268   8.864
 2670POPC   C1A35763  32.216  35.380   8.564
 2670POPC   D2A35764  32.229  35.397   8.264
 2670POPC   C3A35765  32.204  35.362   7.964
 2670POPC   C4A35766  32.269  35.319   7.664
 2670POPC   C1B35767  32.167  35.121   8.564
 2670POPC   C2B35768  32.171  35.106   8.264
 2670POPC   C3B35769  32.162  35.139   7.964
 2670POPC   C4B35770  32.158  35.088   7.664
 2671POPC   NC335771  38.472  24.467   9.464
 2671POPC   PO435772  38.466  24.501   9.164
 2671POPC   GL135773  38.478  24.508   8.864
 2671POPC   GL235774  38.534  24.483   8.864
 2671POPC   C1A35775  38.463  24.490   8.564
 2671POPC   D2A35776  38.422  24.511   8.264
 2671POPC   C3A35777  38.412  24.529   7.964
 2671POPC   C4A35778  38.483  24.468   7.664
 2671POPC   C1B35779  38.750  24.526   8.564
 2671POPC   C2B35780  38.678  24.524   8.264
 2671POPC   C3B35781  38.748  24.512   7.964
 2671POPC   C4B35782  38.703  24.457   7.664
 2672POPC   NC335783  29.165  35.323   9.464
 2672POPC   PO435784  29.120  35.324   9.164
 2672POPC   GL135785  29.126  35.349   8.864
 2672POPC   GL235786  29.197  35.266   8.864
 2672POPC   C1A35787  29.166  35.396   8.564
 2672POPC   D2A35788  29.106  35.347   8.264
 2672POPC   C3A35789  29.102  35.330   7.964
 2672POPC   C4A35790  29.158  35.358   7.664
 2672POPC   C1B35791  29.250  35.096   8.564
 2672POPC   C2B35792  29.307  35.101   8.264
 2672POPC   C3B35793  29.251  35.156   7.964
 2672POPC   C4B35794  29.301  35.098   7.664
 2673POPC   NC335795  16.681  22.893   9.464
 2673POPC   PO435796  16.765  22.978   9.164
 2673POPC   GL135797  16.690  22.987   8.864
 2673POPC   GL235798  16.759  23.030   8.864
 2673POPC   C1A35799  16.770  22.961   8.564
 2673POPC   D2A35800  16.719  22.946   8.264
 2673POPC   C3A35801  16.773  22.961   7.964
 2673POPC   C4A35802  16.753  22.894   7.664
 2673POPC   C1B35803  16.838  23.194   8.564
 2673POPC   C2B35804  16.785  23.207   8.264
 2673POPC   C3B35805  16.820  23.151   7.964
 2673POPC   C4B35806  16.780  23.156   7.664
 2674POPC   NC335807   5.120   2.721   9.464
 2674POPC   PO435808   5.135   2.784   9.164
 2674POPC   GL135809   5.113   2.805   8.864
 2674POPC   GL235810   5.168   2.653   8.864
 2674POPC   C1A35811   5.082   2.790   8.564
 2674POPC   D2A35812   5.101   2.806   8.264
 2674POPC   C3A35813   5.067   2.738   7.964
 2674POPC   C4A35814   5.063   2.734   7.664
 2674POPC   C1B35815   5.280   2.651   8.564
 2674POPC   C2B35816   5.294   2.582   8.264
 2674POPC   C3B35817   5.284   2.578   7.964
 2674POPC   C4B35818   5.292   2.584   7.664
 2675POPC   NC335819  26.067  20.634   9.464
 2675POPC   PO435820  26.023  20.583   9.164
 2675POPC   GL135821  26.001  20.630   8.864
 2675POPC   GL235822  26.057  20.692   8.864
 2675POPC   C1A35823  26.016  20.622   8.564
 2675POPC   D2A35824  26.061  20.609   8.264
 2675POPC   C3A35825  26.017  20.658   7.964
 2675POPC   C4A35826  26.042  20.657   7.664
 2675POPC   C1B35827  26.050  20.824   8.564
 2675POPC   C2B35828  25.986  20.855   8.264
 2675POPC   C3B35829  26.021  20.814   7.964
 2675POPC   C4B35830  26.005  20.892   7.664
 2676POPC   NC335831  39.239  11.288   9.464
 2676POPC   PO435832  39.231  11.297   9.164
 2676POPC   GL135833  39.234  11.299   8.864
 2676POPC   GL235834  39.367  11.342   8.864
 2676POPC   C1A35835  39.277  11.277   8.564
 2676POPC   D2A35836  39.182  11.294   8.264
 2676POPC   C3A35837  39.208  11.328   7.964
 2676POPC   C4A35838  39.227  11.290   7.664
 2676POPC   C1B35839  39.446  11.278   8.564
 2676POPC   C2B35840  39.462  11.303   8.264
 2676POPC   C3B35841  39.437  11.328   7.964
 2676POPC   C4B35842  39.504  11.298   7.664
 2677POPC   NC335843  37.710  24.539   9.464
 2677POPC   PO435844  37.668  24.532   9.164
 2677POPC   GL135845  37.689  24.499   8.864
 2677POPC   GL235846  37.826  24.454   8.864
 2677POPC   C1A35847  37.700  24.536   8.564
 2677POPC   D2A35848  37.728  24.499   8.264
 2677POPC   C3A35849  37.703  24.462   7.964
 2677POPC   C4A35850  37.716  24.483   7.664
 2677POPC   C1B35851  37.896  24.378   8.564
 2677POPC   C2B35852  37.898  24.427   8.264
 2677POPC   C3B35853  37.906  24.394   7.964
 2677POPC   C4B35854  37.872  24.438   7.664
 2678POPC   NC335855   6.687  14.411   9.464
 2678POPC   PO435856   6.661  14.424   9.164
 2678POPC   GL135857   6.688  14.424   8.864
 2678POPC   GL235858   6.757  14.437   8.864
 2678POPC   C1A35859   6.670  14.418   8.564
 2678POPC   D2A35860   6.652  14.428   8.264
 2678POPC   C3A35861   6.657  14.405   7.964
 2678POPC   C4A35862   6.630  14.433   7.664
 2678POPC   C1B35863   6.908  14.399   8.564
 2678POPC   C2B35864   6.902  14.414   8.264
 2678POPC   C3B35865   6.851  14.417   7.964
 2678POPC   C4B35866   6.889  14.412   7.664
 2679POPC   NC335867  18.315  31.449   9.464
 2679POPC   PO435868  18.258  31.518   9.164
 2679POPC   GL135869  18.327  31.504   8.864
 2679POPC   GL235870  18.162  31.454   8.864
 2679POPC   C1A35871  18.308  31.482   8.564
 2679POPC   D2A35872  18.236  31.484   8.264
 2679POPC   C3A35873  18.286  31.455   7.964
 2679POPC   C4A35874  18.312  31.479   7.664
 2679POPC   C1B35875  18.031  31.523   8.564
 2679POPC   C2B35876  18.044  31.533   8.264
 2679POPC   C3B35877  17.999  31.517   7.964
 2679POPC   C4B35878  18.031  31.504   7.664
 2680POPC   NC335879   1.945  36.889   9.464
 2680POPC   PO435880   1.985  36.941   9.164
 2680POPC   GL135881   2.008  36.899   8.864
 2680POPC   GL235882   1.972  36.989   8.864
 2680POPC   C1A35883   1.948  36.875   8.564
 2680POPC   D2A35884   1.965  36.877   8.264
 2680POPC   C3A35885   1.994  36.874   7.964
 2680POPC   C4A35886   1.974  36.911   7.664
 2680POPC   C1B35887   1.824  37.112   8.564
 2680POPC   C2B35888   1.858  37.116   8.264
 2680POPC   C3B35889   1.837  37.128   7.964
 2680POPC   C4B35890   1.873  37.078   7.664
 2681POPC   NC335891   2.795  11.323   9.464
 2681POPC   PO435892   2.771  11.294   9.164
 2681POPC   GL135893   2.725  11.294   8.864
 2681POPC   GL235894   2.912  11.338   8.864
 2681POPC   C1A35895   2.799  11.348   8.564
 2681POPC   D2A35896   2.745  11.305   8.264
 2681POPC   C3A35897   2.726  11.264   7.964
 2681POPC   C4A35898   2.802  11.306   7.664
 2681POPC   C1B35899   2.969  11.308   8.564
 2681POPC   C2B35900   2.990  11.295   8.264
 2681POPC   C3B35901   3.007  11.299   7.964
 2681POPC   C4B35902   3.029  11.230   7.664
 2682POPC   NC335903   5.093  43.078   9.464
 2682POPC   PO435904   5.130  43.098   9.164
 2682POPC   GL135905   5.126  43.082   8.864
 2682POPC   GL235906   5.188  43.000   8.864
 2682POPC   C1A35907   5.065  43.062   8.564
 2682POPC   D2A35908   5.138  43.112   8.264
 2682POPC   C3A35909   5.048  43.129   7.964
 2682POPC   C4A35910   5.044  43.097   7.664
 2682POPC   C1B35911   5.332  43.013   8.564
 2682POPC   C2B35912   5.339  42.935   8.264
 2682POPC   C3B35913   5.333  42.959   7.964
 2682POPC   C4B35914   5.352  42.938   7.664
 2683POPC   NC335915  37.692  39.237   9.464
 2683POPC   PO435916  37.691  39.238   9.164
 2683POPC   GL135917  37.690  39.198   8.864
 2683POPC   GL235918  37.713  39.362   8.864
 2683POPC   C1A35919  37.661  39.226   8.564
 2683POPC   D2A35920  37.706  39.281   8.264
 2683POPC   C3A35921  37.657  39.206   7.964
 2683POPC   C4A35922  37.688  39.277   7.664
 2683POPC   C1B35923  37.637  39.513   8.564
 2683POPC   C2B35924  37.664  39.498   8.264
 2683POPC   C3B35925  37.664  39.513   7.964
 2683POPC   C4B35926  37.651  39.463   7.664
 2684POPC   NC335927  31.466   9.755   9.464
 2684POPC   PO435928  31.473   9.787   9.164
 2684POPC   GL135929  31.440   9.719   8.864
 2684POPC   GL235930  31.401   9.637   8.864
 2684POPC   C1A35931  31.466   9.792   8.564
 2684POPC   D2A35932  31.439   9.742   8.264
 2684POPC   C3A35933  31.482   9.727   7.964
 2684POPC   C4A35934  31.444   9.704   7.664
 2684POPC   C1B35935  31.290   9.559   8.564
 2684POPC   C2B35936  31.229   9.583   8.264
 2684POPC   C3B35937  31.293   9.552   7.964
 2684POPC   C4B35938  31.228   9.572   7.664
 2685POPC   NC335939  28.411  10.502   9.464
 2685POPC   PO435940  28.382  10.548   9.164
 2685POPC   GL135941  28.347  10.496   8.864
 2685POPC   GL235942  28.487  10.427   8.864
 2685POPC   C1A35943  28.386  10.535   8.564
 2685POPC   D2A35944  28.320  10.495   8.264
 2685POPC   C3A35945  28.395  10.485   7.964
 2685POPC   C4A35946  28.416  10.563   7.664
 2685POPC   C1B35947  28.566  10.448   8.564
 2685POPC   C2B35948  28.611  10.451   8.264
 2685POPC   C3B35949  28.599  10.397   7.964
 2685POPC   C4B35950  28.625  10.462   7.664
 2686POPC   NC335951  12.055  29.181   9.464
 2686POPC   PO435952  12.115  29.161   9.164
 2686POPC   GL135953  12.060  29.173   8.864
 2686POPC   GL235954  12.075  29.250   8.864
 2686POPC   C1A35955  12.123  29.189   8.564
 2686POPC   D2A35956  12.060  29.123   8.264
 2686POPC   C3A35957  12.100  29.154   7.964
 2686POPC   C4A35958  12.027  29.151   7.664
 2686POPC   C1B35959  12.114  29.367   8.564
 2686POPC   C2B35960  12.108  29.378   8.264
 2686POPC   C3B35961  12.160  29.382   7.964
 2686POPC   C4B35962  12.181  29.430   7.664
 2687POPC   NC335963  44.656  35.370   9.464
 2687POPC   PO435964  44.612  35.324   9.164
 2687POPC   GL135965  44.626  35.340   8.864
 2687POPC   GL235966  44.670  35.468   8.864
 2687POPC   C1A35967  44.621  35.339   8.564
 2687POPC   D2A35968  44.694  35.400   8.264
 2687POPC   C3A35969  44.650  35.381   7.964
 2687POPC   C4A35970  44.694  35.329   7.664
 2687POPC   C1B35971  44.789  35.586   8.564
 2687POPC   C2B35972  44.800  35.578   8.264
 2687POPC   C3B35973  44.748  35.558   7.964
 2687POPC   C4B35974  44.811  35.578   7.664
 2688POPC   NC335975  15.908  22.200   9.464
 2688POPC   PO435976  15.988  22.129   9.164
 2688POPC   GL135977  15.943  22.195   8.864
 2688POPC   GL235978  15.939  22.030   8.864
 2688POPC   C1A35979  15.955  22.112   8.564
 2688POPC   D2A35980  15.906  22.160   8.264
 2688POPC   C3A35981  15.987  22.198   7.964
 2688POPC   C4A35982  15.945  22.143   7.664
 2688POPC   C1B35983  15.932  21.961   8.564
 2688POPC   C2B35984  15.865  21.963   8.264
 2688POPC   C3B35985  15.926  21.942   7.964
 2688POPC   C4B35986  15.888  21.897   7.664
 2689POPC   NC335987   9.717   8.993   9.464
 2689POPC   PO435988   9.728   8.993   9.164
 2689POPC   GL135989   9.767   8.966   8.864
 2689POPC   GL235990   9.827   9.061   8.864
 2689POPC   C1A35991   9.780   8.979   8.564
 2689POPC   D2A35992   9.783   9.016   8.264
 2689POPC   C3A35993   9.775   8.980   7.964
 2689POPC   C4A35994   9.735   8.983   7.664
 2689POPC   C1B35995   9.850   9.163   8.564
 2689POPC   C2B35996   9.918   9.211   8.264
 2689POPC   C3B35997   9.884   9.139   7.964
 2689POPC   C4B35998   9.862   9.147   7.664
 2690POPC   NC335999  40.015  26.050   9.464
 2690POPC   PO436000  40.050  26.027   9.164
 2690POPC   GL136001  40.057  26.049   8.864
 2690POPC   GL236002  40.086  26.145   8.864
 2690POPC   C1A36003  39.973  26.075   8.564
 2690POPC   D2A36004  40.029  26.057   8.264
 2690POPC   C3A36005  40.027  26.024   7.964
 2690POPC   C4A36006  40.027  26.078   7.664
 2690POPC   C1B36007  40.138  26.236   8.564
 2690POPC   C2B36008  40.171  26.238   8.264
 2690POPC   C3B36009  40.098  26.230   7.964
 2690POPC   C4B36010  40.135  26.217   7.664
 2691POPC   NC336011  26.077  37.647   9.464
 2691POPC   PO436012  26.070  37.714   9.164
 2691POPC   GL136013  26.012  37.650   8.864
 2691POPC   GL236014  26.157  37.719   8.864
 2691POPC   C1A36015  25.996  37.703   8.564
 2691POPC   D2A36016  26.077  37.643   8.264
 2691POPC   C3A36017  26.014  37.718   7.964
 2691POPC   C4A36018  26.045  37.680   7.664
 2691POPC   C1B36019  26.271  37.694   8.564
 2691POPC   C2B36020  26.297  37.641   8.264
 2691POPC   C3B36021  26.246  37.694   7.964
 2691POPC   C4B36022  26.320  37.659   7.664
 2692POPC   NC336023  20.640   1.247   9.464
 2692POPC   PO436024  20.660   1.249   9.164
 2692POPC   GL136025  20.575   1.238   8.864
 2692POPC   GL236026  20.662   1.184   8.864
 2692POPC   C1A36027  20.612   1.174   8.564
 2692POPC   D2A36028  20.580   1.171   8.264
 2692POPC   C3A36029  20.606   1.197   7.964
 2692POPC   C4A36030  20.632   1.237   7.664
 2692POPC   C1B36031  20.792   1.082   8.564
 2692POPC   C2B36032  20.783   1.062   8.264
 2692POPC   C3B36033  20.831   1.027   7.964
 2692POPC   C4B36034  20.787   1.064   7.664
 2693POPC   NC336035  29.176  36.953   9.464
 2693POPC   PO436036  29.152  36.905   9.164
 2693POPC   GL136037  29.192  36.942   8.864
 2693POPC   GL236038  29.217  36.800   8.864
 2693POPC   C1A36039  29.095  36.898   8.564
 2693POPC   D2A36040  29.195  36.953   8.264
 2693POPC   C3A36041  29.187  36.864   7.964
 2693POPC   C4A36042  29.170  36.910   7.664
 2693POPC   C1B36043  29.320  36.790   8.564
 2693POPC   C2B36044  29.381  36.782   8.264
 2693POPC   C3B36045  29.361  36.725   7.964
 2693POPC   C4B36046  29.349  36.722   7.664
 2694POPC   NC336047  42.382  25.233   9.464
 2694POPC   PO436048  42.330  25.266   9.164
 2694POPC   GL136049  42.315  25.305   8.864
 2694POPC   GL236050  42.450  25.312   8.864
 2694POPC   C1A36051  42.315  25.300   8.564
 2694POPC   D2A36052  42.345  25.231   8.264
 2694POPC   C3A36053  42.303  25.217   7.964
 2694POPC   C4A36054  42.299  25.244   7.664
 2694POPC   C1B36055  42.582  25.442   8.564
 2694POPC   C2B36056  42.578  25.385   8.264
 2694POPC   C3B36057  42.528  25.397   7.964
 2694POPC   C4B36058  42.550  25.361   7.664
 2695POPC   NC336059  26.005  27.598   9.464
 2695POPC   PO436060  26.019  27.609   9.164
 2695POPC   GL136061  26.037  27.626   8.864
 2695POPC   GL236062  25.896  27.606   8.864
 2695POPC   C1A36063  26.076  27.564   8.564
 2695POPC   D2A36064  26.013  27.604   8.264
 2695POPC   C3A36065  26.030  27.585   7.964
 2695POPC   C4A36066  25.993  27.610   7.664
 2695POPC   C1B36067  25.828  27.491   8.564
 2695POPC   C2B36068  25.825  27.552   8.264
 2695POPC   C3B36069  25.797  27.496   7.964
 2695POPC   C4B36070  25.785  27.586   7.664
 2696POPC   NC336071  35.320  38.493   9.464
 2696POPC   PO436072  35.337  38.464   9.164
 2696POPC   GL136073  35.339  38.457   8.864
 2696POPC   GL236074  35.368  38.378   8.864
 2696POPC   C1A36075  35.375  38.476   8.564
 2696POPC   D2A36076  35.371  38.445   8.264
 2696POPC   C3A36077  35.368  38.460   7.964
 2696POPC   C4A36078  35.336  38.473   7.664
 2696POPC   C1B36079  35.294  38.238   8.564
 2696POPC   C2B36080  35.294  38.205   8.264
 2696POPC   C3B36081  35.311  38.253   7.964
 2696POPC   C4B36082  35.274  38.165   7.664
 2697POPC   NC336083  17.459   8.240   9.464
 2697POPC   PO436084  17.532   8.164   9.164
 2697POPC   GL136085  17.537   8.179   8.864
 2697POPC   GL236086  17.618   8.268   8.864
 2697POPC   C1A36087  17.521   8.223   8.564
 2697POPC   D2A36088  17.476   8.229   8.264
 2697POPC   C3A36089  17.518   8.225   7.964
 2697POPC   C4A36090  17.508   8.177   7.664
 2697POPC   C1B36091  17.753   8.303   8.564
 2697POPC   C2B36092  17.784   8.309   8.264
 2697POPC   C3B36093  17.752   8.249   7.964
 2697POPC   C4B36094  17.706   8.281   7.664
 2698POPC   NC336095   9.020  29.947   9.464
 2698POPC   PO436096   9.012  29.912   9.164
 2698POPC   GL136097   8.950  29.959   8.864
 2698POPC   GL236098   8.830  29.944   8.864
 2698POPC   C1A36099   8.971  29.930   8.564
 2698POPC   D2A36100   8.970  29.957   8.264
 2698POPC   C3A36101   8.996  29.963   7.964
 2698POPC   C4A36102   9.017  29.909   7.664
 2698POPC   C1B36103   8.766  30.020   8.564
 2698POPC   C2B36104   8.697  30.003   8.264
 2698POPC   C3B36105   8.765  30.009   7.964
 2698POPC   C4B36106   8.739  29.997   7.664
 2699POPC   NC336107   3.500  17.544   9.464
 2699POPC   PO436108   3.578  17.464   9.164
 2699POPC   GL136109   3.566  17.527   8.864
 2699POPC   GL236110   3.464  17.400   8.864
 2699POPC   C1A36111   3.493  17.538   8.564
 2699POPC   D2A36112   3.571  17.516   8.264
 2699POPC   C3A36113   3.493  17.475   7.964
 2699POPC   C4A36114   3.589  17.487   7.664
 2699POPC   C1B36115   3.317  17.313   8.564
 2699POPC   C2B36116   3.341  17.389   8.264
 2699POPC   C3B36117   3.339  17.343   7.964
 2699POPC   C4B36118   3.404  17.349   7.664
 2700POPC   NC336119  15.923  41.570   9.464
 2700POPC   PO436120  15.968  41.534   9.164
 2700POPC   GL136121  15.964  41.560   8.864
 2700POPC   GL236122  15.994  41.713   8.864
 2700POPC   C1A36123  15.969  41.556   8.564
 2700POPC   D2A36124  15.933  41.548   8.264
 2700POPC   C3A36125  15.906  41.606   7.964
 2700POPC   C4A36126  15.920  41.569   7.664
 2700POPC   C1B36127  15.983  41.787   8.564
 2700POPC   C2B36128  15.976  41.810   8.264
 2700POPC   C3B36129  15.991  41.800   7.964
 2700POPC   C4B36130  15.998  41.833   7.664
 2701POPC   NC336131   5.091  43.929   9.464
 2701POPC   PO436132   5.136  43.899   9.164
 2701POPC   GL136133   5.112  43.870   8.864
 2701POPC   GL236134   5.242  43.925   8.864
 2701POPC   C1A36135   5.066  43.841   8.564
 2701POPC   D2A36136   5.119  43.889   8.264
 2701POPC   C3A36137   5.134  43.853   7.964
 2701POPC   C4A36138   5.075  43.842   7.664
 2701POPC   C1B36139   5.329  44.025   8.564
 2701POPC   C2B36140   5.359  44.005   8.264
 2701POPC   C3B36141   5.289  43.978   7.964
 2701POPC   C4B36142   5.319  43.986   7.664
 2702POPC   NC336143  13.650  39.267   9.464
 2702POPC   PO436144  13.653  39.267   9.164
 2702POPC   GL136145  13.641  39.265   8.864
 2702POPC   GL236146  13.565  39.120   8.864
 2702POPC   C1A36147  13.620  39.196   8.564
 2702POPC   D2A36148  13.629  39.181   8.264
 2702POPC   C3A36149  13.609  39.244   7.964
 2702POPC   C4A36150  13.579  39.211   7.664
 2702POPC   C1B36151  13.456  39.046   8.564
 2702POPC   C2B36152  13.501  39.092   8.264
 2702POPC   C3B36153  13.428  39.050   7.964
 2702POPC   C4B36154  13.484  39.074   7.664
 2703POPC   NC336155   3.533  31.481   9.464
 2703POPC   PO436156   3.559  31.478   9.164
 2703POPC   GL136157   3.546  31.502   8.864
 2703POPC   GL236158   3.703  31.422   8.864
 2703POPC   C1A36159   3.538  31.504   8.564
 2703POPC   D2A36160   3.506  31.466   8.264
 2703POPC   C3A36161   3.553  31.456   7.964
 2703POPC   C4A36162   3.498  31.487   7.664
 2703POPC   C1B36163   3.789  31.446   8.564
 2703POPC   C2B36164   3.811  31.489   8.264
 2703POPC   C3B36165   3.825  31.505   7.964
 2703POPC   C4B36166   3.751  31.489   7.664
 2704POPC   NC336167  20.605  15.969   9.464
 2704POPC   PO436168  20.605  15.993   9.164
 2704POPC   GL136169  20.583  15.950   8.864
 2704POPC   GL236170  20.547  15.983   8.864
 2704POPC   C1A36171  20.597  15.922   8.564
 2704POPC   D2A36172  20.583  15.946   8.264
 2704POPC   C3A36173  20.624  15.951   7.964
 2704POPC   C4A36174  20.590  15.907   7.664
 2704POPC   C1B36175  20.453  16.125   8.564
 2704POPC   C2B36176  20.361  16.146   8.264
 2704POPC   C3B36177  20.427  16.102   7.964
 2704POPC   C4B36178  20.376  16.152   7.664
 2705POPC   NC336179  42.360   9.009   9.464
 2705POPC   PO436180  42.336   8.993   9.164
 2705POPC   GL136181  42.303   8.981   8.864
 2705POPC   GL236182  42.487   8.900   8.864
 2705POPC   C1A36183  42.319   8.929   8.564
 2705POPC   D2A36184  42.300   8.937   8.264
 2705POPC   C3A36185  42.367   8.937   7.964
 2705POPC   C4A36186  42.313   8.980   7.664
 2705POPC   C1B36187  42.592   8.877   8.564
 2705POPC   C2B36188  42.593   8.948   8.264
 2705POPC   C3B36189  42.598   8.902   7.964
 2705POPC   C4B36190  42.598   8.853   7.664
 2706POPC   NC336191  24.531  15.941   9.464
 2706POPC   PO436192  24.490  15.913   9.164
 2706POPC   GL136193  24.448  15.968   8.864
 2706POPC   GL236194  24.351  15.850   8.864
 2706POPC   C1A36195  24.520  15.966   8.564
 2706POPC   D2A36196  24.457  15.997   8.264
 2706POPC   C3A36197  24.458  16.005   7.964
 2706POPC   C4A36198  24.464  15.939   7.664
 2706POPC   C1B36199  24.314  15.872   8.564
 2706POPC   C2B36200  24.288  15.785   8.264
 2706POPC   C3B36201  24.279  15.840   7.964
 2706POPC   C4B36202  24.227  15.791   7.664
 2707POPC   NC336203   8.150  29.157   9.464
 2707POPC   PO436204   8.212  29.166   9.164
 2707POPC   GL136205   8.160  29.192   8.864
 2707POPC   GL236206   8.280  29.160   8.864
 2707POPC   C1A36207   8.214  29.120   8.564
 2707POPC   D2A36208   8.205  29.148   8.264
 2707POPC   C3A36209   8.178  29.166   7.964
 2707POPC   C4A36210   8.215  29.173   7.664
 2707POPC   C1B36211   8.407  29.130   8.564
 2707POPC   C2B36212   8.489  29.041   8.264
 2707POPC   C3B36213   8.479  29.051   7.964
 2707POPC   C4B36214   8.398  29.102   7.664
 2708POPC   NC336215  18.332   5.894   9.464
 2708POPC   PO436216  18.308   5.870   9.164
 2708POPC   GL136217  18.311   5.887   8.864
 2708POPC   GL236218  18.408   5.933   8.864
 2708POPC   C1A36219  18.295   5.906   8.564
 2708POPC   D2A36220  18.265   5.906   8.264
 2708POPC   C3A36221  18.269   5.822   7.964
 2708POPC   C4A36222  18.283   5.887   7.664
 2708POPC   C1B36223  18.464   5.982   8.564
 2708POPC   C2B36224  18.443   6.036   8.264
 2708POPC   C3B36225  18.521   6.042   7.964
 2708POPC   C4B36226  18.462   5.964   7.664
 2709POPC   NC336227  20.643  19.814   9.464
 2709POPC   PO436228  20.599  19.831   9.164
 2709POPC   GL136229  20.613  19.828   8.864
 2709POPC   GL236230  20.728  19.706   8.864
 2709POPC   C1A36231  20.641  19.872   8.564
 2709POPC   D2A36232  20.582  19.832   8.264
 2709POPC   C3A36233  20.578  19.860   7.964
 2709POPC   C4A36234  20.562  19.844   7.664
 2709POPC   C1B36235  20.747  19.696   8.564
 2709POPC   C2B36236  20.801  19.677   8.264
 2709POPC   C3B36237  20.845  19.712   7.964
 2709POPC   C4B36238  20.827  19.699   7.664
 2710POPC   NC336239   8.941   6.661   9.464
 2710POPC   PO436240   8.969   6.601   9.164
 2710POPC   GL136241   8.935   6.650   8.864
 2710POPC   GL236242   9.093   6.548   8.864
 2710POPC   C1A36243   8.999   6.610   8.564
 2710POPC   D2A36244   8.931   6.669   8.264
 2710POPC   C3A36245   8.933   6.664   7.964
 2710POPC   C4A36246   9.011   6.641   7.664
 2710POPC   C1B36247   9.113   6.462   8.564
 2710POPC   C2B36248   9.106   6.403   8.264
 2710POPC   C3B36249   9.133   6.495   7.964
 2710POPC   C4B36250   9.162   6.419   7.664
 2711POPC   NC336251  27.565  12.045   9.464
 2711POPC   PO436252  27.559  12.117   9.164
 2711POPC   GL136253  27.561  12.053   8.864
 2711POPC   GL236254  27.629  12.160   8.864
 2711POPC   C1A36255  27.554  12.077   8.564
 2711POPC   D2A36256  27.572  12.037   8.264
 2711POPC   C3A36257  27.546  12.087   7.964
 2711POPC   C4A36258  27.640  12.123   7.664
 2711POPC   C1B36259  27.685  12.298   8.564
 2711POPC   C2B36260  27.675  12.342   8.264
 2711POPC   C3B36261  27.682  12.304   7.964
 2711POPC   C4B36262  27.688  12.333   7.664
 2712POPC   NC336263  33.073  34.528   9.464
 2712POPC   PO436264  33.001  34.548   9.164
 2712POPC   GL136265  33.041  34.620   8.864
 2712POPC   GL236266  33.078  34.695   8.864
 2712POPC   C1A36267  33.002  34.616   8.564
 2712POPC   D2A36268  33.016  34.569   8.264
 2712POPC   C3A36269  33.047  34.611   7.964
 2712POPC   C4A36270  33.037  34.559   7.664
 2712POPC   C1B36271  33.086  34.799   8.564
 2712POPC   C2B36272  33.178  34.789   8.264
 2712POPC   C3B36273  33.151  34.821   7.964
 2712POPC   C4B36274  33.082  34.756   7.664
 2713POPC   NC336275  18.329  43.900   9.464
 2713POPC   PO436276  18.316  43.921   9.164
 2713POPC   GL136277  18.300  43.899   8.864
 2713POPC   GL236278  18.269  43.985   8.864
 2713POPC   C1A36279  18.312  43.841   8.564
 2713POPC   D2A36280  18.316  43.880   8.264
 2713POPC   C3A36281  18.295  43.837   7.964
 2713POPC   C4A36282  18.253  43.870   7.664
 2713POPC   C1B36283  18.353  44.126   8.564
 2713POPC   C2B36284  18.267  44.086   8.264
 2713POPC   C3B36285  18.331  44.110   7.964
 2713POPC   C4B36286  18.353  44.086   7.664
 2714POPC   NC336287   7.420  38.427   9.464
 2714POPC   PO436288   7.411  38.473   9.164
 2714POPC   GL136289   7.408  38.494   8.864
 2714POPC   GL236290   7.382  38.356   8.864
 2714POPC   C1A36291   7.371  38.440   8.564
 2714POPC   D2A36292   7.400  38.492   8.264
 2714POPC   C3A36293   7.458  38.494   7.964
 2714POPC   C4A36294   7.391  38.445   7.664
 2714POPC   C1B36295   7.389  38.181   8.564
 2714POPC   C2B36296   7.431  38.229   8.264
 2714POPC   C3B36297   7.423  38.231   7.964
 2714POPC   C4B36298   7.412  38.211   7.664
 2715POPC   NC336299   7.469  35.369   9.464
 2715POPC   PO436300   7.439  35.346   9.164
 2715POPC   GL136301   7.408  35.374   8.864
 2715POPC   GL236302   7.574  35.343   8.864
 2715POPC   C1A36303   7.418  35.351   8.564
 2715POPC   D2A36304   7.409  35.398   8.264
 2715POPC   C3A36305   7.427  35.355   7.964
 2715POPC   C4A36306   7.375  35.369   7.664
 2715POPC   C1B36307   7.631  35.410   8.564
 2715POPC   C2B36308   7.702  35.411   8.264
 2715POPC   C3B36309   7.649  35.441   7.964
 2715POPC   C4B36310   7.686  35.455   7.664
 2716POPC   NC336311  15.948  18.312   9.464
 2716POPC   PO436312  15.959  18.257   9.164
 2716POPC   GL136313  15.991  18.303   8.864
 2716POPC   GL236314  16.014  18.191   8.864
 2716POPC   C1A36315  15.939  18.239   8.564
 2716POPC   D2A36316  15.985  18.329   8.264
 2716POPC   C3A36317  15.930  18.252   7.964
 2716POPC   C4A36318  15.954  18.248   7.664
 2716POPC   C1B36319  16.109  18.101   8.564
 2716POPC   C2B36320  16.174  18.157   8.264
 2716POPC   C3B36321  16.167  18.100   7.964
 2716POPC   C4B36322  16.108  18.084   7.664
 2717POPC   NC336323  12.861  29.130   9.464
 2717POPC   PO436324  12.894  29.138   9.164
 2717POPC   GL136325  12.844  29.125   8.864
 2717POPC   GL236326  12.963  29.190   8.864
 2717POPC   C1A36327  12.868  29.139   8.564
 2717POPC   D2A36328  12.900  29.158   8.264
 2717POPC   C3A36329  12.871  29.183   7.964
 2717POPC   C4A36330  12.858  29.180   7.664
 2717POPC   C1B36331  13.085  29.297   8.564
 2717POPC   C2B36332  13.077  29.216   8.264
 2717POPC   C3B36333  13.032  29.219   7.964
 2717POPC   C4B36334  13.069  29.270   7.664
 2718POPC   NC336335  40.806  26.071   9.464
 2718POPC   PO436336  40.769  26.065   9.164
 2718POPC   GL136337  40.792  26.000   8.864
 2718POPC   GL236338  40.861  26.111   8.864
 2718POPC   C1A36339  40.752  26.042   8.564
 2718POPC   D2A36340  40.826  26.038   8.264
 2718POPC   C3A36341  40.736  26.010   7.964
 2718POPC   C4A36342  40.824  26.071   7.664
 2718POPC   C1B36343  40.819  26.246   8.564
 2718POPC   C2B36344  40.867  26.286   8.264
 2718POPC   C3B36345  40.832  26.293   7.964
 2718POPC   C4B36346  40.825  26.263   7.664
 2719POPC   NC336347  22.190   7.406   9.464
 2719POPC   PO436348  22.159   7.452   9.164
 2719POPC   GL136349  22.197   7.437   8.864
 2719POPC   GL236350  22.194   7.546   8.864
 2719POPC   C1A36351  22.128   7.423   8.564
 2719POPC   D2A36352  22.156   7.469   8.264
 2719POPC   C3A36353  22.151   7.417   7.964
 2719POPC   C4A36354  22.131   7.392   7.664
 2719POPC   C1B36355  22.356   7.671   8.564
 2719POPC   C2B36356  22.339   7.638   8.264
 2719POPC   C3B36357  22.344   7.624   7.964
 2719POPC   C4B36358  22.354   7.665   7.664
 2720POPC   NC336359  18.327  26.778   9.464
 2720POPC   PO436360  18.288  26.792   9.164
 2720POPC   GL136361  18.325  26.839   8.864
 2720POPC   GL236362  18.338  26.785   8.864
 2720POPC   C1A36363  18.268  26.781   8.564
 2720POPC   D2A36364  18.240  26.775   8.264
 2720POPC   C3A36365  18.269  26.845   7.964
 2720POPC   C4A36366  18.311  26.858   7.664
 2720POPC   C1B36367  18.499  26.671   8.564
 2720POPC   C2B36368  18.525  26.674   8.264
 2720POPC   C3B36369  18.505  26.644   7.964
 2720POPC   C4B36370  18.483  26.654   7.664
 2721POPC   NC336371  42.343  16.691   9.464
 2721POPC   PO436372  42.310  16.692   9.164
 2721POPC   GL136373  42.350  16.740   8.864
 2721POPC   GL236374  42.308  16.557   8.864
 2721POPC   C1A36375  42.370  16.733   8.564
 2721POPC   D2A36376  42.291  16.775   8.264
 2721POPC   C3A36377  42.369  16.682   7.964
 2721POPC   C4A36378  42.301  16.773   7.664
 2721POPC   C1B36379  42.294  16.479   8.564
 2721POPC   C2B36380  42.292  16.462   8.264
 2721POPC   C3B36381  42.282  16.438   7.964
 2721POPC   C4B36382  42.320  16.514   7.664
 2722POPC   NC336383  15.948   8.192   9.464
 2722POPC   PO436384  15.967   8.240   9.164
 2722POPC   GL136385  15.950   8.184   8.864
 2722POPC   GL236386  15.937   8.266   8.864
 2722POPC   C1A36387  15.986   8.183   8.564
 2722POPC   D2A36388  15.947   8.180   8.264
 2722POPC   C3A36389  15.965   8.176   7.964
 2722POPC   C4A36390  15.953   8.174   7.664
 2722POPC   C1B36391  15.847   8.458   8.564
 2722POPC   C2B36392  15.917   8.417   8.264
 2722POPC   C3B36393  15.842   8.421   7.964
 2722POPC   C4B36394  15.842   8.446   7.664
 2723POPC   NC336395  17.460  24.492   9.464
 2723POPC   PO436396  17.548  24.512   9.164
 2723POPC   GL136397  17.539  24.538   8.864
 2723POPC   GL236398  17.426  24.416   8.864
 2723POPC   C1A36399  17.504  24.484   8.564
 2723POPC   D2A36400  17.504  24.498   8.264
 2723POPC   C3A36401  17.458  24.457   7.964
 2723POPC   C4A36402  17.458  24.481   7.664
 2723POPC   C1B36403  17.370  24.346   8.564
 2723POPC   C2B36404  17.291  24.358   8.264
 2723POPC   C3B36405  17.334  24.317   7.964
 2723POPC   C4B36406  17.303  24.280   7.664
 2724POPC   NC336407  36.090  16.730   9.464
 2724POPC   PO436408  36.108  16.743   9.164
 2724POPC   GL136409  36.165  16.705   8.864
 2724POPC   GL236410  36.178  16.805   8.864
 2724POPC   C1A36411  36.160  16.725   8.564
 2724POPC   D2A36412  36.114  16.714   8.264
 2724POPC   C3A36413  36.111  16.743   7.964
 2724POPC   C4A36414  36.120  16.697   7.664
 2724POPC   C1B36415  36.324  16.912   8.564
 2724POPC   C2B36416  36.358  16.853   8.264
 2724POPC   C3B36417  36.318  16.913   7.964
 2724POPC   C4B36418  36.357  16.893   7.664
 2725POPC   NC336419  26.831  42.296   9.464
 2725POPC   PO436420  26.866  42.347   9.164
 2725POPC   GL136421  26.795  42.319   8.864
 2725POPC   GL236422  26.811  42.422   8.864
 2725POPC   C1A36423  26.811  42.328   8.564
 2725POPC   D2A36424  26.840  42.325   8.264
 2725POPC   C3A36425  26.834  42.306   7.964
 2725POPC   C4A36426  26.848  42.364   7.664
 2725POPC   C1B36427  26.813  42.609   8.564
 2725POPC   C2B36428  26.747  42.567   8.264
 2725POPC   C3B36429  26.814  42.594   7.964
 2725POPC   C4B36430  26.787  42.580   7.664
 2726POPC   NC336431  40.801  14.380   9.464
 2726POPC   PO436432  40.767  14.410   9.164
 2726POPC   GL136433  40.827  14.397   8.864
 2726POPC   GL236434  40.857  14.489   8.864
 2726POPC   C1A36435  40.788  14.368   8.564
 2726POPC   D2A36436  40.751  14.432   8.264
 2726POPC   C3A36437  40.754  14.425   7.964
 2726POPC   C4A36438  40.734  14.427   7.664
 2726POPC   C1B36439  40.848  14.669   8.564
 2726POPC   C2B36440  40.886  14.614   8.264
 2726POPC   C3B36441  40.860  14.616   7.964
 2726POPC   C4B36442  40.898  14.669   7.664
 2727POPC   NC336443  19.798   9.787   9.464
 2727POPC   PO436444  19.809   9.704   9.164
 2727POPC   GL136445  19.875   9.780   8.864
 2727POPC   GL236446  19.846   9.891   8.864
 2727POPC   C1A36447  19.852   9.724   8.564
 2727POPC   D2A36448  19.875   9.735   8.264
 2727POPC   C3A36449  19.794   9.727   7.964
 2727POPC   C4A36450  19.810   9.739   7.664
 2727POPC   C1B36451  19.784   9.969   8.564
 2727POPC   C2B36452  19.807  10.033   8.264
 2727POPC   C3B36453  19.812   9.976   7.964
 2727POPC   C4B36454  19.755   9.986   7.664
 2728POPC   NC336455  20.613  40.779   9.464
 2728POPC   PO436456  20.640  40.824   9.164
 2728POPC   GL136457  20.598  40.737   8.864
 2728POPC   GL236458  20.520  40.679   8.864
 2728POPC   C1A36459  20.620  40.781   8.564
 2728POPC   D2A36460  20.631  40.747   8.264
 2728POPC   C3A36461  20.588  40.808   7.964
 2728POPC   C4A36462  20.604  40.755   7.664
 2728POPC   C1B36463  20.430  40.577   8.564
 2728POPC   C2B36464  20.492  40.541   8.264
 2728POPC   C3B36465  20.520  40.604   7.964
 2728POPC   C4B36466  20.498  40.602   7.664
 2729POPC   NC336467  36.166  13.584   9.464
 2729POPC   PO436468  36.109  13.623   9.164
 2729POPC   GL136469  36.100  13.600   8.864
 2729POPC   GL236470  36.011  13.514   8.864
 2729POPC   C1A36471  36.078  13.603   8.564
 2729POPC   D2A36472  36.172  13.616   8.264
 2729POPC   C3A36473  36.138  13.598   7.964
 2729POPC   C4A36474  36.097  13.616   7.664
 2729POPC   C1B36475  35.983  13.469   8.564
 2729POPC   C2B36476  35.939  13.485   8.264
 2729POPC   C3B36477  35.941  13.472   7.964
 2729POPC   C4B36478  35.952  13.510   7.664
 2730POPC   NC336479   1.999  16.685   9.464
 2730POPC   PO436480   1.972  16.685   9.164
 2730POPC   GL136481   1.992  16.739   8.864
 2730POPC   GL236482   2.076  16.756   8.864
 2730POPC   C1A36483   2.021  16.770   8.564
 2730POPC   D2A36484   1.970  16.739   8.264
 2730POPC   C3A36485   1.966  16.715   7.964
 2730POPC   C4A36486   1.998  16.724   7.664
 2730POPC   C1B36487   2.283  16.737   8.564
 2730POPC   C2B36488   2.246  16.694   8.264
 2730POPC   C3B36489   2.276  16.743   7.964
 2730POPC   C4B36490   2.203  16.704   7.664
 2731POPC   NC336491  12.871   8.177   9.464
 2731POPC   PO436492  12.871   8.174   9.164
 2731POPC   GL136493  12.845   8.168   8.864
 2731POPC   GL236494  12.733   8.180   8.864
 2731POPC   C1A36495  12.811   8.194   8.564
 2731POPC   D2A36496  12.811   8.244   8.264
 2731POPC   C3A36497  12.867   8.166   7.964
 2731POPC   C4A36498  12.844   8.182   7.664
 2731POPC   C1B36499  12.610   8.149   8.564
 2731POPC   C2B36500  12.656   8.099   8.264
 2731POPC   C3B36501  12.619   8.087   7.964
 2731POPC   C4B36502  12.621   8.110   7.664
 2732POPC   NC336503  32.985  33.844   9.464
 2732POPC   PO436504  32.984  33.774   9.164
 2732POPC   GL136505  33.034  33.828   8.864
 2732POPC   GL236506  32.919  33.727   8.864
 2732POPC   C1A36507  33.062  33.841   8.564
 2732POPC   D2A36508  32.990  33.840   8.264
 2732POPC   C3A36509  32.985  33.753   7.964
 2732POPC   C4A36510  33.051  33.821   7.664
 2732POPC   C1B36511  32.886  33.615   8.564
 2732POPC   C2B36512  32.877  33.625   8.264
 2732POPC   C3B36513  32.879  33.619   7.964
 2732POPC   C4B36514  32.882  33.663   7.664
 2733POPC   NC336515  33.801   6.649   9.464
 2733POPC   PO436516  33.831   6.646   9.164
 2733POPC   GL136517  33.750   6.639   8.864
 2733POPC   GL236518  33.866   6.521   8.864
 2733POPC   C1A36519  33.755   6.678   8.564
 2733POPC   D2A36520  33.797   6.641   8.264
 2733POPC   C3A36521  33.754   6.667   7.964
 2733POPC   C4A36522  33.789   6.640   7.664
 2733POPC   C1B36523  33.982   6.478   8.564
 2733POPC   C2B36524  33.975   6.416   8.264
 2733POPC   C3B36525  33.978   6.418   7.964
 2733POPC   C4B36526  33.933   6.419   7.664
 2734POPC   NC336527   7.380  33.017   9.464
 2734POPC   PO436528   7.439  32.987   9.164
 2734POPC   GL136529   7.432  33.038   8.864
 2734POPC   GL236530   7.540  32.962   8.864
 2734POPC   C1A36531   7.468  33.040   8.564
 2734POPC   D2A36532   7.388  32.977   8.264
 2734POPC   C3A36533   7.375  33.059   7.964
 2734POPC   C4A36534   7.406  32.985   7.664
 2734POPC   C1B36535   7.642  32.955   8.564
 2734POPC   C2B36536   7.697  32.937   8.264
 2734POPC   C3B36537   7.626  32.946   7.964
 2734POPC   C4B36538   7.687  33.007   7.664
 2735POPC   NC336539  26.851  40.736   9.464
 2735POPC   PO436540  26.840  40.784   9.164
 2735POPC   GL136541  26.850  40.811   8.864
 2735POPC   GL236542  26.895  40.893   8.864
 2735POPC   C1A36543  26.811  40.765   8.564
 2735POPC   D2A36544  26.780  40.822   8.264
 2735POPC   C3A36545  26.859  40.759   7.964
 2735POPC   C4A36546  26.799  40.758   7.664
 2735POPC   C1B36547  26.965  40.986   8.564
 2735POPC   C2B36548  27.052  40.900   8.264
 2735POPC   C3B36549  27.054  40.949   7.964
 2735POPC   C4B36550  27.051  40.913   7.664
 2736POPC   NC336551  29.872  27.562   9.464
 2736POPC   PO436552  29.892  27.577   9.164
 2736POPC   GL136553  29.937  27.583   8.864
 2736POPC   GL236554  29.763  27.509   8.864
 2736POPC   C1A36555  29.875  27.607   8.564
 2736POPC   D2A36556  29.957  27.606   8.264
 2736POPC   C3A36557  29.941  27.572   7.964
 2736POPC   C4A36558  29.913  27.628   7.664
 2736POPC   C1B36559  29.731  27.525   8.564
 2736POPC   C2B36560  29.697  27.534   8.264
 2736POPC   C3B36561  29.704  27.480   7.964
 2736POPC   C4B36562  29.645  27.518   7.664
 2737POPC   NC336563  26.022  19.798   9.464
 2737POPC   PO436564  26.020  19.874   9.164
 2737POPC   GL136565  26.038  19.828   8.864
 2737POPC   GL236566  25.998  19.976   8.864
 2737POPC   C1A36567  26.064  19.837   8.564
 2737POPC   D2A36568  26.046  19.862   8.264
 2737POPC   C3A36569  26.056  19.845   7.964
 2737POPC   C4A36570  26.006  19.831   7.664
 2737POPC   C1B36571  26.027  20.077   8.564
 2737POPC   C2B36572  26.032  20.054   8.264
 2737POPC   C3B36573  26.058  20.119   7.964
 2737POPC   C4B36574  26.001  20.107   7.664
 2738POPC   NC336575   5.098  27.565   9.464
 2738POPC   PO436576   5.115  27.599   9.164
 2738POPC   GL136577   5.048  27.553   8.864
 2738POPC   GL236578   5.037  27.529   8.864
 2738POPC   C1A36579   5.096  27.623   8.564
 2738POPC   D2A36580   5.124  27.582   8.264
 2738POPC   C3A36581   5.101  27.552   7.964
 2738POPC   C4A36582   5.124  27.622   7.664
 2738POPC   C1B36583   4.891  27.398   8.564
 2738POPC   C2B36584   4.914  27.352   8.264
 2738POPC   C3B36585   4.914  27.387   7.964
 2738POPC   C4B36586   4.892  27.400   7.664
 2739POPC   NC336587  16.716  20.629   9.464
 2739POPC   PO436588  16.775  20.612   9.164
 2739POPC   GL136589  16.722  20.583   8.864
 2739POPC   GL236590  16.683  20.485   8.864
 2739POPC   C1A36591  16.777  20.657   8.564
 2739POPC   D2A36592  16.681  20.620   8.264
 2739POPC   C3A36593  16.725  20.566   7.964
 2739POPC   C4A36594  16.729  20.564   7.664
 2739POPC   C1B36595  16.591  20.456   8.564
 2739POPC   C2B36596  16.597  20.390   8.264
 2739POPC   C3B36597  16.549  20.432   7.964
 2739POPC   C4B36598  16.571  20.391   7.664
 2740POPC   NC336599   1.175  20.586   9.464
 2740POPC   PO436600   1.220  20.622   9.164
 2740POPC   GL136601   1.193  20.639   8.864
 2740POPC   GL236602   1.291  20.675   8.864
 2740POPC   C1A36603   1.249  20.590   8.564
 2740POPC   D2A36604   1.213  20.598   8.264
 2740POPC   C3A36605   1.237  20.577   7.964
 2740POPC   C4A36606   1.214  20.629   7.664
 2740POPC   C1B36607   1.336  20.814   8.564
 2740POPC   C2B36608   1.286  20.849   8.264
 2740POPC   C3B36609   1.292  20.804   7.964
 2740POPC   C4B36610   1.341  20.858   7.664
 2741POPC   NC336611  41.605   5.107   9.464
 2741POPC   PO436612  41.531   5.135   9.164
 2741POPC   GL136613  41.578   5.060   8.864
 2741POPC   GL236614  41.594   4.995   8.864
 2741POPC   C1A36615  41.575   5.141   8.564
 2741POPC   D2A36616  41.524   5.050   8.264
 2741POPC   C3A36617  41.555   5.093   7.964
 2741POPC   C4A36618  41.568   5.080   7.664
 2741POPC   C1B36619  41.518   4.836   8.564
 2741POPC   C2B36620  41.520   4.838   8.264
 2741POPC   C3B36621  41.606   4.812   7.964
 2741POPC   C4B36622  41.594   4.880   7.664
 2742POPC   NC336623  30.665  14.410   9.464
 2742POPC   PO436624  30.670  14.383   9.164
 2742POPC   GL136625  30.686  14.437   8.864
 2742POPC   GL236626  30.610  14.469   8.864
 2742POPC   C1A36627  30.674  14.422   8.564
 2742POPC   D2A36628  30.710  14.389   8.264
 2742POPC   C3A36629  30.740  14.385   7.964
 2742POPC   C4A36630  30.714  14.368   7.664
 2742POPC   C1B36631  30.606  14.638   8.564
 2742POPC   C2B36632  30.573  14.625   8.264
 2742POPC   C3B36633  30.529  14.631   7.964
 2742POPC   C4B36634  30.585  14.658   7.664
 2743POPC   NC336635  24.517   8.217   9.464
 2743POPC   PO436636  24.477   8.185   9.164
 2743POPC   GL136637  24.458   8.154   8.864
 2743POPC   GL236638  24.486   8.064   8.864
 2743POPC   C1A36639  24.461   8.189   8.564
 2743POPC   D2A36640  24.501   8.161   8.264
 2743POPC   C3A36641  24.483   8.204   7.964
 2743POPC   C4A36642  24.534   8.148   7.664
 2743POPC   C1B36643  24.421   7.968   8.564
 2743POPC   C2B36644  24.386   7.984   8.264
 2743POPC   C3B36645  24.393   7.921   7.964
 2743POPC   C4B36646  24.395   7.972   7.664
 2744POPC   NC336647  34.570  38.479   9.464
 2744POPC   PO436648  34.586  38.410   9.164
 2744POPC   GL136649  34.584  38.468   8.864
 2744POPC   GL236650  34.560  38.317   8.864
 2744POPC   C1A36651  34.602  38.464   8.564
 2744POPC   D2A36652  34.563  38.420   8.264
 2744POPC   C3A36653  34.609  38.466   7.964
 2744POPC   C4A36654  34.617  38.499   7.664
 2744POPC   C1B36655  34.518  38.219   8.564
 2744POPC   C2B36656  34.513  38.210   8.264
 2744POPC   C3B36657  34.510  38.198   7.964
 2744POPC   C4B36658  34.538  38.239   7.664
 2745POPC   NC336659   8.989  16.733   9.464
 2745POPC   PO436660   8.983  16.760   9.164
 2745POPC   GL136661   8.971  16.708   8.864
 2745POPC   GL236662   8.934  16.619   8.864
 2745POPC   C1A36663   8.932  16.765   8.564
 2745POPC   D2A36664   8.989  16.770   8.264
 2745POPC   C3A36665   9.019  16.695   7.964
 2745POPC   C4A36666   9.005  16.717   7.664
 2745POPC   C1B36667   8.896  16.456   8.564
 2745POPC   C2B36668   8.960  16.515   8.264
 2745POPC   C3B36669   8.914  16.472   7.964
 2745POPC   C4B36670   8.883  16.466   7.664
 2746POPC   NC336671   5.843   1.172   9.464
 2746POPC   PO436672   5.848   1.253   9.164
 2746POPC   GL136673   5.846   1.188   8.864
 2746POPC   GL236674   5.771   1.160   8.864
 2746POPC   C1A36675   5.853   1.234   8.564
 2746POPC   D2A36676   5.859   1.217   8.264
 2746POPC   C3A36677   5.882   1.224   7.964
 2746POPC   C4A36678   5.860   1.185   7.664
 2746POPC   C1B36679   5.732   0.993   8.564
 2746POPC   C2B36680   5.735   0.988   8.264
 2746POPC   C3B36681   5.710   1.027   7.964
 2746POPC   C4B36682   5.731   0.988   7.664
 2747POPC   NC336683  18.272  44.685   9.464
 2747POPC   PO436684  18.261  44.680   9.164
 2747POPC   GL136685  18.288  44.659   8.864
 2747POPC   GL236686  18.188  44.751   8.864
 2747POPC   C1A36687  18.325  44.665   8.564
 2747POPC   D2A36688  18.273  44.662   8.264
 2747POPC   C3A36689  18.298  44.643   7.964
 2747POPC   C4A36690  18.255  44.615   7.664
 2747POPC   C1B36691  18.060  44.833   8.564
 2747POPC   C2B36692  18.036  44.821   8.264
 2747POPC   C3B36693  18.080  44.822   7.964
 2747POPC   C4B36694  18.098  44.836   7.664
 2748POPC   NC336695  35.307  21.353   9.464
 2748POPC   PO436696  35.353  21.385   9.164
 2748POPC   GL136697  35.352  21.344   8.864
 2748POPC   GL236698  35.276  21.499   8.864
 2748POPC   C1A36699  35.303  21.357   8.564
 2748POPC   D2A36700  35.351  21.400   8.264
 2748POPC   C3A36701  35.338  21.417   7.964
 2748POPC   C4A36702  35.332  21.414   7.664
 2748POPC   C1B36703  35.271  21.579   8.564
 2748POPC   C2B36704  35.236  21.595   8.264
 2748POPC   C3B36705  35.262  21.616   7.964
 2748POPC   C4B36706  35.223  21.581   7.664
 2749POPC   NC336707  37.652   4.278   9.464
 2749POPC   PO436708  37.666   4.297   9.164
 2749POPC   GL136709  37.711   4.304   8.864
 2749POPC   GL236710  37.725   4.194   8.864
 2749POPC   C1A36711  37.720   4.324   8.564
 2749POPC   D2A36712  37.694   4.336   8.264
 2749POPC   C3A36713  37.668   4.290   7.964
 2749POPC   C4A36714  37.636   4.365   7.664
 2749POPC   C1B36715  37.840   4.132   8.564
 2749POPC   C2B36716  37.837   4.132   8.264
 2749POPC   C3B36717  37.814   4.091   7.964
 2749POPC   C4B36718  37.767   4.093   7.664
 2750POPC   NC336719   8.971  41.538   9.464
 2750POPC   PO436720   9.004  41.551   9.164
 2750POPC   GL136721   8.931  41.521   8.864
 2750POPC   GL236722   9.098  41.546   8.864
 2750POPC   C1A36723   8.970  41.533   8.564
 2750POPC   D2A36724   8.923  41.574   8.264
 2750POPC   C3A36725   8.984  41.576   7.964
 2750POPC   C4A36726   8.932  41.519   7.664
 2750POPC   C1B36727   9.212  41.588   8.564
 2750POPC   C2B36728   9.251  41.523   8.264
 2750POPC   C3B36729   9.194  41.528   7.964
 2750POPC   C4B36730   9.265  41.530   7.664
 2751POPC   NC336731   3.554   1.180   9.464
 2751POPC   PO436732   3.515   1.185   9.164
 2751POPC   GL136733   3.504   1.192   8.864
 2751POPC   GL236734   3.458   1.083   8.864
 2751POPC   C1A36735   3.523   1.170   8.564
 2751POPC   D2A36736   3.505   1.168   8.264
 2751POPC   C3A36737   3.583   1.230   7.964
 2751POPC   C4A36738   3.588   1.226   7.664
 2751POPC   C1B36739   3.428   1.026   8.564
 2751POPC   C2B36740   3.425   1.009   8.264
 2751POPC   C3B36741   3.411   1.041   7.964
 2751POPC   C4B36742   3.439   1.026   7.664
 2752POPC   NC336743  12.845  18.239   9.464
 2752POPC   PO436744  12.807  18.275   9.164
 2752POPC   GL136745  12.826  18.255   8.864
 2752POPC   GL236746  12.931  18.306   8.864
 2752POPC   C1A36747  12.862  18.295   8.564
 2752POPC   D2A36748  12.807  18.279   8.264
 2752POPC   C3A36749  12.841  18.266   7.964
 2752POPC   C4A36750  12.862  18.309   7.664
 2752POPC   C1B36751  13.049  18.416   8.564
 2752POPC   C2B36752  13.105  18.420   8.264
 2752POPC   C3B36753  13.092  18.349   7.964
 2752POPC   C4B36754  13.057  18.363   7.664
 2753POPC   NC336755  16.699   1.250   9.464
 2753POPC   PO436756  16.692   1.255   9.164
 2753POPC   GL136757  16.760   1.182   8.864
 2753POPC   GL236758  16.734   1.048   8.864
 2753POPC   C1A36759  16.745   1.177   8.564
 2753POPC   D2A36760  16.689   1.215   8.264
 2753POPC   C3A36761  16.684   1.197   7.964
 2753POPC   C4A36762  16.771   1.178   7.664
 2753POPC   C1B36763  16.748   0.932   8.564
 2753POPC   C2B36764  16.715   0.946   8.264
 2753POPC   C3B36765  16.761   0.972   7.964
 2753POPC   C4B36766  16.751   0.943   7.664
 2754POPC   NC336767  28.325  34.625   9.464
 2754POPC   PO436768  28.409  34.539   9.164
 2754POPC   GL136769  28.354  34.607   8.864
 2754POPC   GL236770  28.441  34.661   8.864
 2754POPC   C1A36771  28.338  34.575   8.564
 2754POPC   D2A36772  28.396  34.574   8.264
 2754POPC   C3A36773  28.349  34.561   7.964
 2754POPC   C4A36774  28.378  34.576   7.664
 2754POPC   C1B36775  28.580  34.733   8.564
 2754POPC   C2B36776  28.611  34.755   8.264
 2754POPC   C3B36777  28.564  34.689   7.964
 2754POPC   C4B36778  28.553  34.735   7.664
 2755POPC   NC336779   7.402  44.709   9.464
 2755POPC   PO436780   7.392  44.663   9.164
 2755POPC   GL136781   7.384  44.635   8.864
 2755POPC   GL236782   7.293  44.734   8.864
 2755POPC   C1A36783   7.412  44.626   8.564
 2755POPC   D2A36784   7.436  44.613   8.264
 2755POPC   C3A36785   7.410  44.642   7.964
 2755POPC   C4A36786   7.440  44.634   7.664
 2755POPC   C1B36787   7.228  44.816   8.564
 2755POPC   C2B36788   7.255  44.832   8.264
 2755POPC   C3B36789   7.291  44.799   7.964
 2755POPC   C4B36790   7.236  44.816   7.664
 2756POPC   NC336791  29.963  12.833   9.464
 2756POPC   PO436792  29.901  12.824   9.164
 2756POPC   GL136793  29.963  12.843   8.864
 2756POPC   GL236794  30.050  12.944   8.864
 2756POPC   C1A36795  29.880  12.883   8.564
 2756POPC   D2A36796  29.936  12.887   8.264
 2756POPC   C3A36797  29.942  12.881   7.964
 2756POPC   C4A36798  29.893  12.890   7.664
 2756POPC   C1B36799  30.109  12.933   8.564
 2756POPC   C2B36800  30.095  12.930   8.264
 2756POPC   C3B36801  30.092  12.955   7.964
 2756POPC   C4B36802  30.174  12.961   7.664
 2757POPC   NC336803  19.805   2.017   9.464
 2757POPC   PO436804  19.849   2.035   9.164
 2757POPC   GL136805  19.802   1.973   8.864
 2757POPC   GL236806  19.669   1.990   8.864
 2757POPC   C1A36807  19.855   1.953   8.564
 2757POPC   D2A36808  19.801   2.037   8.264
 2757POPC   C3A36809  19.848   2.037   7.964
 2757POPC   C4A36810  19.828   2.033   7.664
 2757POPC   C1B36811  19.613   2.030   8.564
 2757POPC   C2B36812  19.588   2.028   8.264
 2757POPC   C3B36813  19.615   2.008   7.964
 2757POPC   C4B36814  19.546   2.042   7.664
 2758POPC   NC336815  31.446  43.109   9.464
 2758POPC   PO436816  31.475  43.112   9.164
 2758POPC   GL136817  31.444  43.084   8.864
 2758POPC   GL236818  31.409  43.051   8.864
 2758POPC   C1A36819  31.492  43.107   8.564
 2758POPC   D2A36820  31.471  43.075   8.264
 2758POPC   C3A36821  31.444  43.082   7.964
 2758POPC   C4A36822  31.504  43.113   7.664
 2758POPC   C1B36823  31.273  42.957   8.564
 2758POPC   C2B36824  31.287  42.914   8.264
 2758POPC   C3B36825  31.269  42.916   7.964
 2758POPC   C4B36826  31.341  42.956   7.664
 2759POPC   NC336827  22.904  22.895   9.464
 2759POPC   PO436828  22.899  22.926   9.164
 2759POPC   GL136829  22.971  22.915   8.864
 2759POPC   GL236830  23.047  22.924   8.864
 2759POPC   C1A36831  22.963  22.957   8.564
 2759POPC   D2A36832  22.896  22.936   8.264
 2759POPC   C3A36833  22.893  22.986   7.964
 2759POPC   C4A36834  22.968  22.979   7.664
 2759POPC   C1B36835  23.136  22.945   8.564
 2759POPC   C2B36836  23.184  22.986   8.264
 2759POPC   C3B36837  23.168  22.981   7.964
 2759POPC   C4B36838  23.174  23.022   7.664
 2760POPC   NC336839  29.159   0.393   9.464
 2760POPC   PO436840  29.124   0.478   9.164
 2760POPC   GL136841  29.167   0.389   8.864
 2760POPC   GL236842  29.144   0.598   8.864
 2760POPC   C1A36843  29.166   0.437   8.564
 2760POPC   D2A36844  29.171   0.409   8.264
 2760POPC   C3A36845  29.134   0.418   7.964
 2760POPC   C4A36846  29.170   0.457   7.664
 2760POPC   C1B36847  29.231   0.644   8.564
 2760POPC   C2B36848  29.168   0.697   8.264
 2760POPC   C3B36849  29.231   0.725   7.964
 2760POPC   C4B36850  29.194   0.669   7.664
 2761POPC   NC336851  43.913   5.840   9.464
 2761POPC   PO436852  43.886   5.819   9.164
 2761POPC   GL136853  43.917   5.819   8.864
 2761POPC   GL236854  43.958   5.798   8.864
 2761POPC   C1A36855  43.867   5.918   8.564
 2761POPC   D2A36856  43.899   5.861   8.264
 2761POPC   C3A36857  43.861   5.869   7.964
 2761POPC   C4A36858  43.919   5.867   7.664
 2761POPC   C1B36859  44.008   5.654   8.564
 2761POPC   C2B36860  44.045   5.700   8.264
 2761POPC   C3B36861  44.029   5.630   7.964
 2761POPC   C4B36862  43.999   5.674   7.664
 2762POPC   NC336863  30.694  15.153   9.464
 2762POPC   PO436864  30.678  15.132   9.164
 2762POPC   GL136865  30.654  15.159   8.864
 2762POPC   GL236866  30.862  15.142   8.864
 2762POPC   C1A36867  30.669  15.180   8.564
 2762POPC   D2A36868  30.688  15.167   8.264
 2762POPC   C3A36869  30.684  15.228   7.964
 2762POPC   C4A36870  30.683  15.174   7.664
 2762POPC   C1B36871  30.994  15.215   8.564
 2762POPC   C2B36872  30.921  15.217   8.264
 2762POPC   C3B36873  30.924  15.179   7.964
 2762POPC   C4B36874  30.908  15.209   7.664
 2763POPC   NC336875   4.341   6.632   9.464
 2763POPC   PO436876   4.363   6.608   9.164
 2763POPC   GL136877   4.363   6.596   8.864
 2763POPC   GL236878   4.244   6.756   8.864
 2763POPC   C1A36879   4.308   6.646   8.564
 2763POPC   D2A36880   4.323   6.601   8.264
 2763POPC   C3A36881   4.320   6.607   7.964
 2763POPC   C4A36882   4.290   6.669   7.664
 2763POPC   C1B36883   4.082   6.799   8.564
 2763POPC   C2B36884   4.157   6.750   8.264
 2763POPC   C3B36885   4.098   6.764   7.964
 2763POPC   C4B36886   4.110   6.778   7.664
 2764POPC   NC336887  25.221  43.113   9.464
 2764POPC   PO436888  25.260  43.160   9.164
 2764POPC   GL136889  25.247  43.067   8.864
 2764POPC   GL236890  25.348  43.185   8.864
 2764POPC   C1A36891  25.289  43.079   8.564
 2764POPC   D2A36892  25.280  43.115   8.264
 2764POPC   C3A36893  25.303  43.108   7.964
 2764POPC   C4A36894  25.248  43.099   7.664
 2764POPC   C1B36895  25.475  43.308   8.564
 2764POPC   C2B36896  25.462  43.275   8.264
 2764POPC   C3B36897  25.481  43.256   7.964
 2764POPC   C4B36898  25.413  43.323   7.664
 2765POPC   NC336899  42.350  34.617   9.464
 2765POPC   PO436900  42.296  34.559   9.164
 2765POPC   GL136901  42.347  34.553   8.864
 2765POPC   GL236902  42.375  34.434   8.864
 2765POPC   C1A36903  42.310  34.607   8.564
 2765POPC   D2A36904  42.287  34.604   8.264
 2765POPC   C3A36905  42.335  34.554   7.964
 2765POPC   C4A36906  42.292  34.556   7.664
 2765POPC   C1B36907  42.463  34.374   8.564
 2765POPC   C2B36908  42.492  34.416   8.264
 2765POPC   C3B36909  42.509  34.378   7.964
 2765POPC   C4B36910  42.472  34.425   7.664
 2766POPC   NC336911   2.794  27.632   9.464
 2766POPC   PO436912   2.719  27.604   9.164
 2766POPC   GL136913   2.807  27.638   8.864
 2766POPC   GL236914   2.632  27.531   8.864
 2766POPC   C1A36915   2.749  27.598   8.564
 2766POPC   D2A36916   2.769  27.620   8.264
 2766POPC   C3A36917   2.742  27.579   7.964
 2766POPC   C4A36918   2.725  27.595   7.664
 2766POPC   C1B36919   2.561  27.486   8.564
 2766POPC   C2B36920   2.537  27.395   8.264
 2766POPC   C3B36921   2.567  27.476   7.964
 2766POPC   C4B36922   2.603  27.487   7.664
 2767POPC   NC336923   1.167  17.474   9.464
 2767POPC   PO436924   1.260  17.494   9.164
 2767POPC   GL136925   1.233  17.485   8.864
 2767POPC   GL236926   1.115  17.529   8.864
 2767POPC   C1A36927   1.187  17.492   8.564
 2767POPC   D2A36928   1.212  17.462   8.264
 2767POPC   C3A36929   1.181  17.525   7.964
 2767POPC   C4A36930   1.202  17.463   7.664
 2767POPC   C1B36931   1.015  17.540   8.564
 2767POPC   C2B36932   0.927  17.539   8.264
 2767POPC   C3B36933   0.944  17.526   7.964
 2767POPC   C4B36934   0.993  17.552   7.664
 2768POPC   NC336935   5.082  39.219   9.464
 2768POPC   PO436936   5.075  39.246   9.164
 2768POPC   GL136937   5.127  39.229   8.864
 2768POPC   GL236938   5.110  39.133   8.864
 2768POPC   C1A36939   5.140  39.233   8.564
 2768POPC   D2A36940   5.104  39.222   8.264
 2768POPC   C3A36941   5.050  39.228   7.964
 2768POPC   C4A36942   5.070  39.210   7.664
 2768POPC   C1B36943   5.181  38.946   8.564
 2768POPC   C2B36944   5.166  38.970   8.264
 2768POPC   C3B36945   5.145  38.957   7.964
 2768POPC   C4B36946   5.139  38.978   7.664
 2769POPC   NC336947  44.681   5.893   9.464
 2769POPC   PO436948  44.693   5.919   9.164
 2769POPC   GL136949  44.687   5.836   8.864
 2769POPC   GL236950  44.807   5.813   8.864
 2769POPC   C1A36951  44.616   5.882   8.564
 2769POPC   D2A36952  44.691   5.856   8.264
 2769POPC   C3A36953  44.703   5.860   7.964
 2769POPC   C4A36954  44.615   5.865   7.664
 2769POPC   C1B36955  44.851   5.765   8.564
 2769POPC   C2B36956  44.897   5.795   8.264
 2769POPC   C3B36957  44.920   5.755   7.964
 2769POPC   C4B36958  44.850   5.752   7.664
 2770POPC   NC336959   0.452  23.752   9.464
 2770POPC   PO436960   0.450  23.743   9.164
 2770POPC   GL136961   0.475  23.714   8.864
 2770POPC   GL236962   0.571  23.690   8.864
 2770POPC   C1A36963   0.427  23.755   8.564
 2770POPC   D2A36964   0.478  23.729   8.264
 2770POPC   C3A36965   0.471  23.751   7.964
 2770POPC   C4A36966   0.390  23.696   7.664
 2770POPC   C1B36967   0.685  23.650   8.564
 2770POPC   C2B36968   0.699  23.626   8.264
 2770POPC   C3B36969   0.666  23.650   7.964
 2770POPC   C4B36970   0.632  23.676   7.664
 2771POPC   NC336971   1.256   2.754   9.464
 2771POPC   PO436972   1.166   2.799   9.164
 2771POPC   GL136973   1.192   2.794   8.864
 2771POPC   GL236974   1.153   2.599   8.864
 2771POPC   C1A36975   1.166   2.732   8.564
 2771POPC   D2A36976   1.245   2.735   8.264
 2771POPC   C3A36977   1.184   2.786   7.964
 2771POPC   C4A36978   1.244   2.799   7.664
 2771POPC   C1B36979   1.126   2.478   8.564
 2771POPC   C2B36980   1.179   2.527   8.264
 2771POPC   C3B36981   1.169   2.496   7.964
 2771POPC   C4B36982   1.204   2.508   7.664
 2772POPC   NC336983   0.401  16.769   9.464
 2772POPC   PO436984   0.426  16.736   9.164
 2772POPC   GL136985   0.422  16.770   8.864
 2772POPC   GL236986   0.530  16.677   8.864
 2772POPC   C1A36987   0.479  16.698   8.564
 2772POPC   D2A36988   0.446  16.689   8.264
 2772POPC   C3A36989   0.391  16.693   7.964
 2772POPC   C4A36990   0.397  16.744   7.664
 2772POPC   C1B36991   0.651  16.645   8.564
 2772POPC   C2B36992   0.648  16.734   8.264
 2772POPC   C3B36993   0.718  16.688   7.964
 2772POPC   C4B36994   0.672  16.688   7.664
 2773POPC   NC336995   2.760  10.484   9.464
 2773POPC   PO436996   2.798  10.501   9.164
 2773POPC   GL136997   2.749  10.502   8.864
 2773POPC   GL236998   2.883  10.522   8.864
 2773POPC   C1A36999   2.739  10.559   8.564
 2773POPC   D2A37000   2.788  10.566   8.264
 2773POPC   C3A37001   2.719  10.555   7.964
 2773POPC   C4A37002   2.769  10.501   7.664
 2773POPC   C1B37003   3.041  10.452   8.564
 2773POPC   C2B37004   2.996  10.475   8.264
 2773POPC   C3B37005   2.970  10.429   7.964
 2773POPC   C4B37006   3.025  10.501   7.664
 2774POPC   NC337007  30.738  29.905   9.464
 2774POPC   PO437008  30.742  29.882   9.164
 2774POPC   GL137009  30.649  29.905   8.864
 2774POPC   GL237010  30.731  30.003   8.864
 2774POPC   C1A37011  30.706  29.900   8.564
 2774POPC   D2A37012  30.712  29.923   8.264
 2774POPC   C3A37013  30.744  29.949   7.964
 2774POPC   C4A37014  30.684  29.970   7.664
 2774POPC   C1B37015  30.730  30.215   8.564
 2774POPC   C2B37016  30.752  30.152   8.264
 2774POPC   C3B37017  30.693  30.126   7.964
 2774POPC   C4B37018  30.742  30.176   7.664
 2775POPC   NC337019  17.539   2.778   9.464
 2775POPC   PO437020  17.478   2.781   9.164
 2775POPC   GL137021  17.479   2.758   8.864
 2775POPC   GL237022  17.483   2.612   8.864
 2775POPC   C1A37023  17.538   2.796   8.564
 2775POPC   D2A37024  17.458   2.735   8.264
 2775POPC   C3A37025  17.490   2.741   7.964
 2775POPC   C4A37026  17.556   2.741   7.664
 2775POPC   C1B37027  17.572   2.490   8.564
 2775POPC   C2B37028  17.573   2.566   8.264
 2775POPC   C3B37029  17.527   2.470   7.964
 2775POPC   C4B37030  17.506   2.513   7.664
 2776POPC   NC337031  41.605  25.244   9.464
 2776POPC   PO437032  41.514  25.221   9.164
 2776POPC   GL137033  41.515  25.309   8.864
 2776POPC   GL237034  41.653  25.349   8.864
 2776POPC   C1A37035  41.587  25.238   8.564
 2776POPC   D2A37036  41.599  25.310   8.264
 2776POPC   C3A37037  41.593  25.233   7.964
 2776POPC   C4A37038  41.599  25.267   7.664
 2776POPC   C1B37039  41.656  25.481   8.564
 2776POPC   C2B37040  41.737  25.484   8.264
 2776POPC   C3B37041  41.738  25.519   7.964
 2776POPC   C4B37042  41.671  25.507   7.664
 2777POPC   NC337043  41.585   5.915   9.464
 2777POPC   PO437044  41.555   5.856   9.164
 2777POPC   GL137045  41.580   5.821   8.864
 2777POPC   GL237046  41.424   5.812   8.864
 2777POPC   C1A37047  41.561   5.896   8.564
 2777POPC   D2A37048  41.534   5.862   8.264
 2777POPC   C3A37049  41.509   5.846   7.964
 2777POPC   C4A37050  41.566   5.909   7.664
 2777POPC   C1B37051  41.328   5.780   8.564
 2777POPC   C2B37052  41.326   5.827   8.264
 2777POPC   C3B37053  41.297   5.753   7.964
 2777POPC   C4B37054  41.314   5.777   7.664
 2778POPC   NC337055  26.781   1.201   9.464
 2778POPC   PO437056  26.805   1.220   9.164
 2778POPC   GL137057  26.857   1.197   8.864
 2778POPC   GL237058  26.941   1.319   8.864
 2778POPC   C1A37059  26.812   1.176   8.564
 2778POPC   D2A37060  26.843   1.199   8.264
 2778POPC   C3A37061  26.827   1.193   7.964
 2778POPC   C4A37062  26.859   1.194   7.664
 2778POPC   C1B37063  27.013   1.435   8.564
 2778POPC   C2B37064  27.000   1.423   8.264
 2778POPC   C3B37065  27.014   1.448   7.964
 2778POPC   C4B37066  27.013   1.419   7.664
 2779POPC   NC337067   3.588  19.087   9.464
 2779POPC   PO437068   3.504  19.071   9.164
 2779POPC   GL137069   3.534  19.042   8.864
 2779POPC   GL237070   3.442  19.136   8.864
 2779POPC   C1A37071   3.515  19.071   8.564
 2779POPC   D2A37072   3.580  19.082   8.264
 2779POPC   C3A37073   3.544  19.107   7.964
 2779POPC   C4A37074   3.529  19.042   7.664
 2779POPC   C1B37075   3.430  19.288   8.564
 2779POPC   C2B37076   3.449  19.273   8.264
 2779POPC   C3B37077   3.401  19.237   7.964
 2779POPC   C4B37078   3.449  19.305   7.664
 2780POPC   NC337079  26.032  21.413   9.464
 2780POPC   PO437080  26.003  21.415   9.164
 2780POPC   GL137081  26.010  21.371   8.864
 2780POPC   GL237082  26.092  21.310   8.864
 2780POPC   C1A37083  26.053  21.419   8.564
 2780POPC   D2A37084  26.006  21.384   8.264
 2780POPC   C3A37085  25.995  21.418   7.964
 2780POPC   C4A37086  26.001  21.344   7.664
 2780POPC   C1B37087  26.108  21.159   8.564
 2780POPC   C2B37088  26.105  21.109   8.264
 2780POPC   C3B37089  26.085  21.187   7.964
 2780POPC   C4B37090  26.160  21.132   7.664
 2781POPC   NC337091  15.137  36.928   9.464
 2781POPC   PO437092  15.143  36.882   9.164
 2781POPC   GL137093  15.141  36.877   8.864
 2781POPC   GL237094  15.275  36.774   8.864
 2781POPC   C1A37095  15.174  36.933   8.564
 2781POPC   D2A37096  15.165  36.908   8.264
 2781POPC   C3A37097  15.173  36.900   7.964
 2781POPC   C4A37098  15.216  36.863   7.664
 2781POPC   C1B37099  15.317  36.681   8.564
 2781POPC   C2B37100  15.322  36.746   8.264
 2781POPC   C3B37101  15.349  36.712   7.964
 2781POPC   C4B37102  15.345  36.697   7.664
 2782POPC   NC337103  23.685  22.976   9.464
 2782POPC   PO437104  23.703  22.942   9.164
 2782POPC   GL137105  23.703  22.969   8.864
 2782POPC   GL237106  23.853  22.949   8.864
 2782POPC   C1A37107  23.701  22.936   8.564
 2782POPC   D2A37108  23.679  22.901   8.264
 2782POPC   C3A37109  23.691  22.968   7.964
 2782POPC   C4A37110  23.711  22.913   7.664
 2782POPC   C1B37111  24.009  22.946   8.564
 2782POPC   C2B37112  23.994  22.939   8.264
 2782POPC   C3B37113  23.984  22.948   7.964
 2782POPC   C4B37114  23.997  22.964   7.664
 2783POPC   NC337115  19.039  15.936   9.464
 2783POPC   PO437116  19.069  15.914   9.164
 2783POPC   GL137117  19.086  15.928   8.864
 2783POPC   GL237118  18.992  15.878   8.864
 2783POPC   C1A37119  19.086  15.928   8.564
 2783POPC   D2A37120  19.106  15.941   8.264
 2783POPC   C3A37121  19.052  15.906   7.964
 2783POPC   C4A37122  19.030  15.977   7.664
 2783POPC   C1B37123  18.940  15.682   8.564
 2783POPC   C2B37124  19.019  15.769   8.264
 2783POPC   C3B37125  18.951  15.707   7.964
 2783POPC   C4B37126  19.022  15.681   7.664
 2784POPC   NC337127  36.109  41.583   9.464
 2784POPC   PO437128  36.103  41.510   9.164
 2784POPC   GL137129  36.102  41.530   8.864
 2784POPC   GL237130  35.998  41.510   8.864
 2784POPC   C1A37131  36.162  41.520   8.564
 2784POPC   D2A37132  36.170  41.596   8.264
 2784POPC   C3A37133  36.108  41.523   7.964
 2784POPC   C4A37134  36.152  41.509   7.664
 2784POPC   C1B37135  35.919  41.546   8.564
 2784POPC   C2B37136  35.917  41.552   8.264
 2784POPC   C3B37137  35.855  41.519   7.964
 2784POPC   C4B37138  35.831  41.513   7.664
 2785POPC   NC337139   4.349  12.821   9.464
 2785POPC   PO437140   4.276  12.842   9.164
 2785POPC   GL137141   4.311  12.813   8.864
 2785POPC   GL237142   4.359  12.962   8.864
 2785POPC   C1A37143   4.308  12.894   8.564
 2785POPC   D2A37144   4.360  12.837   8.264
 2785POPC   C3A37145   4.355  12.880   7.964
 2785POPC   C4A37146   4.275  12.892   7.664
 2785POPC   C1B37147   4.346  13.084   8.564
 2785POPC   C2B37148   4.358  13.128   8.264
 2785POPC   C3B37149   4.372  13.090   7.964
 2785POPC   C4B37150   4.356  13.092   7.664
 2786POPC   NC337151   3.538   5.136   9.464
 2786POPC   PO437152   3.557   5.132   9.164
 2786POPC   GL137153   3.571   5.115   8.864
 2786POPC   GL237154   3.407   5.016   8.864
 2786POPC   C1A37155   3.507   5.138   8.564
 2786POPC   D2A37156   3.588   5.089   8.264
 2786POPC   C3A37157   3.499   5.057   7.964
 2786POPC   C4A37158   3.539   5.044   7.664
 2786POPC   C1B37159   3.377   4.870   8.564
 2786POPC   C2B37160   3.413   4.953   8.264
 2786POPC   C3B37161   3.384   4.953   7.964
 2786POPC   C4B37162   3.352   4.906   7.664
 2787POPC   NC337163   9.734  13.660   9.464
 2787POPC   PO437164   9.726  13.595   9.164
 2787POPC   GL137165   9.721  13.660   8.864
 2787POPC   GL237166   9.880  13.615   8.864
 2787POPC   C1A37167   9.742  13.580   8.564
 2787POPC   D2A37168   9.726  13.642   8.264
 2787POPC   C3A37169   9.762  13.654   7.964
 2787POPC   C4A37170   9.747  13.626   7.664
 2787POPC   C1B37171   9.984  13.574   8.564
 2787POPC   C2B37172  10.002  13.656   8.264
 2787POPC   C3B37173   9.967  13.636   7.964
 2787POPC   C4B37174   9.949  13.630   7.664
 2788POPC   NC337175   7.422  39.220   9.464
 2788POPC   PO437176   7.393  39.252   9.164
 2788POPC   GL137177   7.384  39.218   8.864
 2788POPC   GL237178   7.569  39.199   8.864
 2788POPC   C1A37179   7.372  39.208   8.564
 2788POPC   D2A37180   7.443  39.215   8.264
 2788POPC   C3A37181   7.465  39.221   7.964
 2788POPC   C4A37182   7.409  39.255   7.664
 2788POPC   C1B37183   7.632  39.072   8.564
 2788POPC   C2B37184   7.578  39.083   8.264
 2788POPC   C3B37185   7.589  39.035   7.964
 2788POPC   C4B37186   7.625  39.056   7.664
 2789POPC   NC337187  19.800  11.316   9.464
 2789POPC   PO437188  19.828  11.251   9.164
 2789POPC   GL137189  19.884  11.273   8.864
 2789POPC   GL237190  19.961  11.299   8.864
 2789POPC   C1A37191  19.844  11.271   8.564
 2789POPC   D2A37192  19.838  11.284   8.264
 2789POPC   C3A37193  19.859  11.338   7.964
 2789POPC   C4A37194  19.835  11.349   7.664
 2789POPC   C1B37195  20.099  11.196   8.564
 2789POPC   C2B37196  20.089  11.181   8.264
 2789POPC   C3B37197  20.021  11.183   7.964
 2789POPC   C4B37198  20.038  11.252   7.664
 2790POPC   NC337199   6.652  17.467   9.464
 2790POPC   PO437200   6.627  17.531   9.164
 2790POPC   GL137201   6.597  17.552   8.864
 2790POPC   GL237202   6.729  17.505   8.864
 2790POPC   C1A37203   6.657  17.553   8.564
 2790POPC   D2A37204   6.636  17.470   8.264
 2790POPC   C3A37205   6.598  17.506   7.964
 2790POPC   C4A37206   6.621  17.509   7.664
 2790POPC   C1B37207   6.882  17.570   8.564
 2790POPC   C2B37208   6.940  17.513   8.264
 2790POPC   C3B37209   6.850  17.560   7.964
 2790POPC   C4B37210   6.896  17.512   7.664
 2791POPC   NC337211  35.367  17.554   9.464
 2791POPC   PO437212  35.335  17.517   9.164
 2791POPC   GL137213  35.344  17.520   8.864
 2791POPC   GL237214  35.409  17.600   8.864
 2791POPC   C1A37215  35.323  17.514   8.564
 2791POPC   D2A37216  35.329  17.547   8.264
 2791POPC   C3A37217  35.358  17.478   7.964
 2791POPC   C4A37218  35.357  17.478   7.664
 2791POPC   C1B37219  35.425  17.750   8.564
 2791POPC   C2B37220  35.455  17.789   8.264
 2791POPC   C3B37221  35.397  17.751   7.964
 2791POPC   C4B37222  35.419  17.728   7.664
 2792POPC   NC337223   6.670   8.192   9.464
 2792POPC   PO437224   6.617   8.218   9.164
 2792POPC   GL137225   6.668   8.207   8.864
 2792POPC   GL237226   6.680   8.030   8.864
 2792POPC   C1A37227   6.692   8.221   8.564
 2792POPC   D2A37228   6.651   8.230   8.264
 2792POPC   C3A37229   6.670   8.153   7.964
 2792POPC   C4A37230   6.673   8.241   7.664
 2792POPC   C1B37231   6.664   7.902   8.564
 2792POPC   C2B37232   6.695   7.988   8.264
 2792POPC   C3B37233   6.710   7.925   7.964
 2792POPC   C4B37234   6.712   7.947   7.664
 2793POPC   NC337235   1.195   5.076   9.464
 2793POPC   PO437236   1.232   5.058   9.164
 2793POPC   GL137237   1.212   5.122   8.864
 2793POPC   GL237238   1.336   5.140   8.864
 2793POPC   C1A37239   1.204   5.099   8.564
 2793POPC   D2A37240   1.228   5.086   8.264
 2793POPC   C3A37241   1.235   5.127   7.964
 2793POPC   C4A37242   1.261   5.095   7.664
 2793POPC   C1B37243   1.494   5.192   8.564
 2793POPC   C2B37244   1.470   5.152   8.264
 2793POPC   C3B37245   1.481   5.122   7.964
 2793POPC   C4B37246   1.490   5.145   7.664
 2794POPC   NC337247   3.530  12.882   9.464
 2794POPC   PO437248   3.590  12.899   9.164
 2794POPC   GL137249   3.509  12.811   8.864
 2794POPC   GL237250   3.595  12.970   8.864
 2794POPC   C1A37251   3.517  12.869   8.564
 2794POPC   D2A37252   3.554  12.851   8.264
 2794POPC   C3A37253   3.587  12.871   7.964
 2794POPC   C4A37254   3.583  12.879   7.664
 2794POPC   C1B37255   3.694  13.012   8.564
 2794POPC   C2B37256   3.633  13.057   8.264
 2794POPC   C3B37257   3.645  13.056   7.964
 2794POPC   C4B37258   3.719  13.084   7.664
 2795POPC   NC337259   8.196  30.715   9.464
 2795POPC   PO437260   8.237  30.656   9.164
 2795POPC   GL137261   8.211  30.689   8.864
 2795POPC   GL237262   8.267  30.611   8.864
 2795POPC   C1A37263   8.231  30.698   8.564
 2795POPC   D2A37264   8.207  30.682   8.264
 2795POPC   C3A37265   8.181  30.694   7.964
 2795POPC   C4A37266   8.172  30.731   7.664
 2795POPC   C1B37267   8.196  30.440   8.564
 2795POPC   C2B37268   8.231  30.429   8.264
 2795POPC   C3B37269   8.204  30.464   7.964
 2795POPC   C4B37270   8.290  30.469   7.664
 2796POPC   NC337271  39.258  32.292   9.464
 2796POPC   PO437272  39.254  32.241   9.164
 2796POPC   GL137273  39.210  32.202   8.864
 2796POPC   GL237274  39.097  32.198   8.864
 2796POPC   C1A37275  39.247  32.269   8.564
 2796POPC   D2A37276  39.278  32.202   8.264
 2796POPC   C3A37277  39.256  32.296   7.964
 2796POPC   C4A37278  39.199  32.242   7.664
 2796POPC   C1B37279  39.039  32.100   8.564
 2796POPC   C2B37280  39.030  32.123   8.264
 2796POPC   C3B37281  39.089  32.069   7.964
 2796POPC   C4B37282  39.040  32.082   7.664
 2797POPC   NC337283  29.934  37.716   9.464
 2797POPC   PO437284  29.887  37.648   9.164
 2797POPC   GL137285  29.885  37.667   8.864
 2797POPC   GL237286  29.862  37.560   8.864
 2797POPC   C1A37287  29.922  37.632   8.564
 2797POPC   D2A37288  29.910  37.728   8.264
 2797POPC   C3A37289  29.926  37.689   7.964
 2797POPC   C4A37290  29.925  37.696   7.664
 2797POPC   C1B37291  29.783  37.471   8.564
 2797POPC   C2B37292  29.737  37.491   8.264
 2797POPC   C3B37293  29.779  37.510   7.964
 2797POPC   C4B37294  29.791  37.493   7.664
 2798POPC   NC337295  22.130  36.136   9.464
 2798POPC   PO437296  22.188  36.165   9.164
 2798POPC   GL137297  22.183  36.081   8.864
 2798POPC   GL237298  22.266  36.175   8.864
 2798POPC   C1A37299  22.181  36.103   8.564
 2798POPC   D2A37300  22.170  36.160   8.264
 2798POPC   C3A37301  22.176  36.132   7.964
 2798POPC   C4A37302  22.177  36.078   7.664
 2798POPC   C1B37303  22.441  36.207   8.564
 2798POPC   C2B37304  22.413  36.206   8.264
 2798POPC   C3B37305  22.407  36.116   7.964
 2798POPC   C4B37306  22.437  36.175   7.664
 2799POPC   NC337307  44.631   6.612   9.464
 2799POPC   PO437308  44.613   6.601   9.164
 2799POPC   GL137309  44.654   6.637   8.864
 2799POPC   GL237310  44.567   6.675   8.864
 2799POPC   C1A37311  44.669   6.631   8.564
 2799POPC   D2A37312  44.711   6.652   8.264
 2799POPC   C3A37313  44.634   6.635   7.964
 2799POPC   C4A37314  44.640   6.664   7.664
 2799POPC   C1B37315  44.370   6.700   8.564
 2799POPC   C2B37316  44.393   6.683   8.264
 2799POPC   C3B37317  44.416   6.640   7.964
 2799POPC   C4B37318  44.375   6.694   7.664
 2800POPC   NC337319  43.130  42.331   9.464
 2800POPC   PO437320  43.149  42.354   9.164
 2800POPC   GL137321  43.117  42.353   8.864
 2800POPC   GL237322  43.018  42.337   8.864
 2800POPC   C1A37323  43.096  42.334   8.564
 2800POPC   D2A37324  43.129  42.373   8.264
 2800POPC   C3A37325  43.126  42.347   7.964
 2800POPC   C4A37326  43.119  42.351   7.664
 2800POPC   C1B37327  42.906  42.295   8.564
 2800POPC   C2B37328  42.842  42.332   8.264
 2800POPC   C3B37329  42.909  42.317   7.964
 2800POPC   C4B37330  42.850  42.345   7.664
 2801POPC   NC337331   7.394  19.109   9.464
 2801POPC   PO437332   7.455  19.090   9.164
 2801POPC   GL137333   7.429  19.032   8.864
 2801POPC   GL237334   7.534  18.956   8.864
 2801POPC   C1A37335   7.442  19.019   8.564
 2801POPC   D2A37336   7.409  19.067   8.264
 2801POPC   C3A37337   7.384  19.039   7.964
 2801POPC   C4A37338   7.450  19.032   7.664
 2801POPC   C1B37339   7.619  18.878   8.564
 2801POPC   C2B37340   7.630  18.904   8.264
 2801POPC   C3B37341   7.667  18.947   7.964
 2801POPC   C4B37342   7.640  18.868   7.664
 2802POPC   NC337343  13.620  13.641   9.464
 2802POPC   PO437344  13.632  13.583   9.164
 2802POPC   GL137345  13.622  13.604   8.864
 2802POPC   GL237346  13.524  13.687   8.864
 2802POPC   C1A37347  13.606  13.639   8.564
 2802POPC   D2A37348  13.643  13.638   8.264
 2802POPC   C3A37349  13.658  13.656   7.964
 2802POPC   C4A37350  13.610  13.598   7.664
 2802POPC   C1B37351  13.365  13.659   8.564
 2802POPC   C2B37352  13.401  13.654   8.264
 2802POPC   C3B37353  13.392  13.751   7.964
 2802POPC   C4B37354  13.413  13.739   7.664
 2803POPC   NC337355   5.055  15.189   9.464
 2803POPC   PO437356   5.055  15.229   9.164
 2803POPC   GL137357   5.079  15.188   8.864
 2803POPC   GL237358   5.065  15.022   8.864
 2803POPC   C1A37359   5.126  15.190   8.564
 2803POPC   D2A37360   5.093  15.145   8.264
 2803POPC   C3A37361   5.108  15.180   7.964
 2803POPC   C4A37362   5.087  15.227   7.664
 2803POPC   C1B37363   5.078  14.899   8.564
 2803POPC   C2B37364   5.055  14.951   8.264
 2803POPC   C3B37365   5.103  14.960   7.964
 2803POPC   C4B37366   5.063  14.887   7.664
 2804POPC   NC337367  10.507  43.907   9.464
 2804POPC   PO437368  10.514  43.875   9.164
 2804POPC   GL137369  10.549  43.857   8.864
 2804POPC   GL237370  10.545  43.774   8.864
 2804POPC   C1A37371  10.529  43.915   8.564
 2804POPC   D2A37372  10.474  43.848   8.264
 2804POPC   C3A37373  10.554  43.842   7.964
 2804POPC   C4A37374  10.509  43.841   7.664
 2804POPC   C1B37375  10.660  43.667   8.564
 2804POPC   C2B37376  10.630  43.657   8.264
 2804POPC   C3B37377  10.625  43.620   7.964
 2804POPC   C4B37378  10.689  43.684   7.664
 2805POPC   NC337379   8.227  38.484   9.464
 2805POPC   PO437380   8.219  38.420   9.164
 2805POPC   GL137381   8.175  38.442   8.864
 2805POPC   GL237382   8.355  38.495   8.864
 2805POPC   C1A37383   8.149  38.462   8.564
 2805POPC   D2A37384   8.150  38.464   8.264
 2805POPC   C3A37385   8.185  38.458   7.964
 2805POPC   C4A37386   8.166  38.459   7.664
 2805POPC   C1B37387   8.420  38.503   8.564
 2805POPC   C2B37388   8.397  38.460   8.264
 2805POPC   C3B37389   8.488  38.455   7.964
 2805POPC   C4B37390   8.472  38.444   7.664
 2806POPC   NC337391  39.237  43.075   9.464
 2806POPC   PO437392  39.188  43.157   9.164
 2806POPC   GL137393  39.189  43.088   8.864
 2806POPC   GL237394  39.094  43.142   8.864
 2806POPC   C1A37395  39.223  43.074   8.564
 2806POPC   D2A37396  39.265  43.097   8.264
 2806POPC   C3A37397  39.215  43.106   7.964
 2806POPC   C4A37398  39.237  43.096   7.664
 2806POPC   C1B37399  38.978  43.260   8.564
 2806POPC   C2B37400  39.012  43.229   8.264
 2806POPC   C3B37401  39.017  43.203   7.964
 2806POPC   C4B37402  39.008  43.283   7.664
 2807POPC   NC337403  19.787  18.283   9.464
 2807POPC   PO437404  19.880  18.317   9.164
 2807POPC   GL137405  19.842  18.244   8.864
 2807POPC   GL237406  19.745  18.278   8.864
 2807POPC   C1A37407  19.861  18.254   8.564
 2807POPC   D2A37408  19.795  18.239   8.264
 2807POPC   C3A37409  19.876  18.281   7.964
 2807POPC   C4A37410  19.800  18.333   7.664
 2807POPC   C1B37411  19.620  18.347   8.564
 2807POPC   C2B37412  19.540  18.294   8.264
 2807POPC   C3B37413  19.633  18.287   7.964
 2807POPC   C4B37414  19.578  18.271   7.664
 2808POPC   NC337415  15.930   2.729   9.464
 2808POPC   PO437416  15.943   2.761   9.164
 2808POPC   GL137417  15.973   2.801   8.864
 2808POPC   GL237418  16.094   2.674   8.864
 2808POPC   C1A37419  15.936   2.730   8.564
 2808POPC   D2A37420  15.946   2.800   8.264
 2808POPC   C3A37421  15.926   2.810   7.964
 2808POPC   C4A37422  15.990   2.735   7.664
 2808POPC   C1B37423  16.139   2.662   8.564
 2808POPC   C2B37424  16.201   2.621   8.264
 2808POPC   C3B37425  16.163   2.628   7.964
 2808POPC   C4B37426  16.139   2.661   7.664
 2809POPC   NC337427  13.644  40.781   9.464
 2809POPC   PO437428  13.590  40.738   9.164
 2809POPC   GL137429  13.587  40.743   8.864
 2809POPC   GL237430  13.614  40.902   8.864
 2809POPC   C1A37431  13.658  40.776   8.564
 2809POPC   D2A37432  13.673  40.739   8.264
 2809POPC   C3A37433  13.632  40.754   7.964
 2809POPC   C4A37434  13.588  40.823   7.664
 2809POPC   C1B37435  13.665  40.995   8.564
 2809POPC   C2B37436  13.681  41.041   8.264
 2809POPC   C3B37437  13.650  40.994   7.964
 2809POPC   C4B37438  13.673  41.071   7.664
 2810POPC   NC337439   7.382  31.504   9.464
 2810POPC   PO437440   7.402  31.439   9.164
 2810POPC   GL137441   7.398  31.452   8.864
 2810POPC   GL237442   7.555  31.393   8.864
 2810POPC   C1A37443   7.413  31.469   8.564
 2810POPC   D2A37444   7.457  31.462   8.264
 2810POPC   C3A37445   7.382  31.479   7.964
 2810POPC   C4A37446   7.430  31.426   7.664
 2810POPC   C1B37447   7.637  31.363   8.564
 2810POPC   C2B37448   7.662  31.402   8.264
 2810POPC   C3B37449   7.636  31.379   7.964
 2810POPC   C4B37450   7.675  31.396   7.664
 2811POPC   NC337451   8.208  26.075   9.464
 2811POPC   PO437452   8.171  26.085   9.164
 2811POPC   GL137453   8.170  25.999   8.864
 2811POPC   GL237454   8.266  26.073   8.864
 2811POPC   C1A37455   8.200  26.022   8.564
 2811POPC   D2A37456   8.210  26.009   8.264
 2811POPC   C3A37457   8.245  26.018   7.964
 2811POPC   C4A37458   8.157  26.080   7.664
 2811POPC   C1B37459   8.413  26.119   8.564
 2811POPC   C2B37460   8.397  26.174   8.264
 2811POPC   C3B37461   8.433  26.130   7.964
 2811POPC   C4B37462   8.438  26.154   7.664
 2812POPC   NC337463  19.032   7.400   9.464
 2812POPC   PO437464  19.046   7.395   9.164
 2812POPC   GL137465  19.087   7.419   8.864
 2812POPC   GL237466  19.073   7.296   8.864
 2812POPC   C1A37467  19.064   7.460   8.564
 2812POPC   D2A37468  19.046   7.468   8.264
 2812POPC   C3A37469  19.104   7.419   7.964
 2812POPC   C4A37470  19.020   7.457   7.664
 2812POPC   C1B37471  19.171   7.174   8.564
 2812POPC   C2B37472  19.188   7.165   8.264
 2812POPC   C3B37473  19.156   7.229   7.964
 2812POPC   C4B37474  19.142   7.170   7.664
 2813POPC   NC337475   0.397  22.171   9.464
 2813POPC   PO437476   0.425  22.139   9.164
 2813POPC   GL137477   0.467  22.150   8.864
 2813POPC   GL237478   0.489  22.300   8.864
 2813POPC   C1A37479   0.442  22.186   8.564
 2813POPC   D2A37480   0.411  22.120   8.264
 2813POPC   C3A37481   0.465  22.211   7.964
 2813POPC   C4A37482   0.451  22.161   7.664
 2813POPC   C1B37483   0.635  22.366   8.564
 2813POPC   C2B37484   0.661  22.356   8.264
 2813POPC   C3B37485   0.655  22.308   7.964
 2813POPC   C4B37486   0.566  22.347   7.664
 2814POPC   NC337487   5.844   5.105   9.464
 2814POPC   PO437488   5.895   5.124   9.164
 2814POPC   GL137489   5.846   5.047   8.864
 2814POPC   GL237490   5.815   5.266   8.864
 2814POPC   C1A37491   5.870   5.093   8.564
 2814POPC   D2A37492   5.904   5.048   8.264
 2814POPC   C3A37493   5.856   5.053   7.964
 2814POPC   C4A37494   5.905   5.135   7.664
 2814POPC   C1B37495   5.804   5.297   8.564
 2814POPC   C2B37496   5.839   5.333   8.264
 2814POPC   C3B37497   5.861   5.353   7.964
 2814POPC   C4B37498   5.870   5.306   7.664
 2815POPC   NC337499  39.227  39.270   9.464
 2815POPC   PO437500  39.261  39.216   9.164
 2815POPC   GL137501  39.277  39.258   8.864
 2815POPC   GL237502  39.062  39.190   8.864
 2815POPC   C1A37503  39.235  39.212   8.564
 2815POPC   D2A37504  39.214  39.233   8.264
 2815POPC   C3A37505  39.224  39.250   7.964
 2815POPC   C4A37506  39.255  39.206   7.664
 2815POPC   C1B37507  39.022  39.128   8.564
 2815POPC   C2B37508  39.027  39.167   8.264
 2815POPC   C3B37509  38.949  39.188   7.964
 2815POPC   C4B37510  39.026  39.208   7.664
 2816POPC   NC337511  34.528   0.457   9.464
 2816POPC   PO437512  34.606   0.424   9.164
 2816POPC   GL137513  34.555   0.389   8.864
 2816POPC   GL237514  34.555   0.280   8.864
 2816POPC   C1A37515  34.558   0.454   8.564
 2816POPC   D2A37516  34.554   0.457   8.264
 2816POPC   C3A37517  34.530   0.408   7.964
 2816POPC   C4A37518  34.538   0.448   7.664
 2816POPC   C1B37519  34.553   0.184   8.564
 2816POPC   C2B37520  34.594   0.189   8.264
 2816POPC   C3B37521  34.541   0.170   7.964
 2816POPC   C4B37522  34.616   0.222   7.664
 2817POPC   NC337523   4.324  42.316   9.464
 2817POPC   PO437524   4.353  42.310   9.164
 2817POPC   GL137525   4.342  42.346   8.864
 2817POPC   GL237526   4.266  42.449   8.864
 2817POPC   C1A37527   4.362  42.379   8.564
 2817POPC   D2A37528   4.281  42.359   8.264
 2817POPC   C3A37529   4.295  42.323   7.964
 2817POPC   C4A37530   4.300  42.287   7.664
 2817POPC   C1B37531   4.344  42.536   8.564
 2817POPC   C2B37532   4.291  42.593   8.264
 2817POPC   C3B37533   4.318  42.603   7.964
 2817POPC   C4B37534   4.352  42.552   7.664
 2818POPC   NC337535  19.019  44.682   9.464
 2818POPC   PO437536  19.021  44.697   9.164
 2818POPC   GL137537  19.037  44.653   8.864
 2818POPC   GL237538  19.009  44.766   8.864
 2818POPC   C1A37539  19.055  44.660   8.564
 2818POPC   D2A37540  19.024  44.703   8.264
 2818POPC   C3A37541  19.027  44.666   7.964
 2818POPC   C4A37542  19.087  44.653   7.664
 2818POPC   C1B37543  19.014  44.857   8.564
 2818POPC   C2B37544  19.022  44.946   8.264
 2818POPC   C3B37545  19.001  44.918   7.964
 2818POPC   C4B37546  19.013  44.939   7.664
 2819POPC   NC337547  25.282   7.415   9.464
 2819POPC   PO437548  25.290   7.407   9.164
 2819POPC   GL137549  25.241   7.393   8.864
 2819POPC   GL237550  25.177   7.454   8.864
 2819POPC   C1A37551  25.278   7.469   8.564
 2819POPC   D2A37552  25.219   7.410   8.264
 2819POPC   C3A37553  25.294   7.397   7.964
 2819POPC   C4A37554  25.216   7.429   7.664
 2819POPC   C1B37555  25.104   7.599   8.564
 2819POPC   C2B37556  25.025   7.560   8.264
 2819POPC   C3B37557  25.090   7.567   7.964
 2819POPC   C4B37558  25.103   7.514   7.664
 2820POPC   NC337559  22.927  43.843   9.464
 2820POPC   PO437560  22.925  43.906   9.164
 2820POPC   GL137561  22.889  43.891   8.864
 2820POPC   GL237562  23.035  43.859   8.864
 2820POPC   C1A37563  22.968  43.909   8.564
 2820POPC   D2A37564  22.961  43.906   8.264
 2820POPC   C3A37565  22.939  43.903   7.964
 2820POPC   C4A37566  22.943  43.848   7.664
 2820POPC   C1B37567  23.117  43.720   8.564
 2820POPC   C2B37568  23.118  43.796   8.264
 2820POPC   C3B37569  23.120  43.723   7.964
 2820POPC   C4B37570  23.172  43.761   7.664
 2821POPC   NC337571  25.313   8.968   9.464
 2821POPC   PO437572  25.259   8.974   9.164
 2821POPC   GL137573  25.240   9.014   8.864
 2821POPC   GL237574  25.153   9.020   8.864
 2821POPC   C1A37575  25.301   8.930   8.564
 2821POPC   D2A37576  25.265   8.994   8.264
 2821POPC   C3A37577  25.266   8.927   7.964
 2821POPC   C4A37578  25.258   9.017   7.664
 2821POPC   C1B37579  25.017   8.965   8.564
 2821POPC   C2B37580  25.063   8.991   8.264
 2821POPC   C3B37581  24.969   9.045   7.964
 2821POPC   C4B37582  25.065   9.045   7.664
 2822POPC   NC337583  27.628  35.361   9.464
 2822POPC   PO437584  27.621  35.391   9.164
 2822POPC   GL137585  27.634  35.348   8.864
 2822POPC   GL237586  27.467  35.275   8.864
 2822POPC   C1A37587  27.642  35.317   8.564
 2822POPC   D2A37588  27.607  35.400   8.264
 2822POPC   C3A37589  27.613  35.387   7.964
 2822POPC   C4A37590  27.575  35.373   7.664
 2822POPC   C1B37591  27.363  35.226   8.564
 2822POPC   C2B37592  27.342  35.245   8.264
 2822POPC   C3B37593  27.314  35.213   7.964
 2822POPC   C4B37594  27.369  35.249   7.664
 2823POPC   NC337595  17.465   6.615   9.464
 2823POPC   PO437596  17.508   6.648   9.164
 2823POPC   GL137597  17.484   6.596   8.864
 2823POPC   GL237598  17.428   6.760   8.864
 2823POPC   C1A37599  17.539   6.605   8.564
 2823POPC   D2A37600  17.480   6.659   8.264
 2823POPC   C3A37601  17.544   6.667   7.964
 2823POPC   C4A37602  17.554   6.616   7.664
 2823POPC   C1B37603  17.335   6.894   8.564
 2823POPC   C2B37604  17.333   6.836   8.264
 2823POPC   C3B37605  17.330   6.860   7.964
 2823POPC   C4B37606  17.349   6.806   7.664
 2824POPC   NC337607  15.980   4.319   9.464
 2824POPC   PO437608  15.965   4.347   9.164
 2824POPC   GL137609  15.971   4.287   8.864
 2824POPC   GL237610  16.015   4.221   8.864
 2824POPC   C1A37611  15.975   4.356   8.564
 2824POPC   D2A37612  15.951   4.286   8.264
 2824POPC   C3A37613  16.005   4.342   7.964
 2824POPC   C4A37614  15.950   4.335   7.664
 2824POPC   C1B37615  16.001   4.035   8.564
 2824POPC   C2B37616  15.998   4.061   8.264
 2824POPC   C3B37617  15.996   4.088   7.964
 2824POPC   C4B37618  15.974   4.078   7.664
 2825POPC   NC337619  29.939  36.147   9.464
 2825POPC   PO437620  29.924  36.151   9.164
 2825POPC   GL137621  29.891  36.122   8.864
 2825POPC   GL237622  29.755  36.187   8.864
 2825POPC   C1A37623  29.921  36.127   8.564
 2825POPC   D2A37624  29.969  36.119   8.264
 2825POPC   C3A37625  29.887  36.132   7.964
 2825POPC   C4A37626  29.890  36.150   7.664
 2825POPC   C1B37627  29.652  36.189   8.564
 2825POPC   C2B37628  29.689  36.165   8.264
 2825POPC   C3B37629  29.677  36.218   7.964
 2825POPC   C4B37630  29.673  36.198   7.664
 2826POPC   NC337631  34.543  43.933   9.464
 2826POPC   PO437632  34.548  43.870   9.164
 2826POPC   GL137633  34.571  43.861   8.864
 2826POPC   GL237634  34.579  43.720   8.864
 2826POPC   C1A37635  34.568  43.843   8.564
 2826POPC   D2A37636  34.571  43.915   8.264
 2826POPC   C3A37637  34.610  43.871   7.964
 2826POPC   C4A37638  34.527  43.845   7.664
 2826POPC   C1B37639  34.595  43.643   8.564
 2826POPC   C2B37640  34.580  43.680   8.264
 2826POPC   C3B37641  34.572  43.652   7.964
 2826POPC   C4B37642  34.611  43.617   7.664
 2827POPC   NC337643  30.725   4.337   9.464
 2827POPC   PO437644  30.686   4.361   9.164
 2827POPC   GL137645  30.659   4.326   8.864
 2827POPC   GL237646  30.616   4.428   8.864
 2827POPC   C1A37647  30.731   4.285   8.564
 2827POPC   D2A37648  30.679   4.313   8.264
 2827POPC   C3A37649  30.688   4.288   7.964
 2827POPC   C4A37650  30.653   4.349   7.664
 2827POPC   C1B37651  30.495   4.536   8.564
 2827POPC   C2B37652  30.530   4.487   8.264
 2827POPC   C3B37653  30.560   4.547   7.964
 2827POPC   C4B37654  30.501   4.493   7.664
 2828POPC   NC337655   5.105  24.454   9.464
 2828POPC   PO437656   5.047  24.486   9.164
 2828POPC   GL137657   5.054  24.491   8.864
 2828POPC   GL237658   4.986  24.383   8.864
 2828POPC   C1A37659   5.083  24.526   8.564
 2828POPC   D2A37660   5.124  24.451   8.264
 2828POPC   C3A37661   5.098  24.537   7.964
 2828POPC   C4A37662   5.087  24.524   7.664
 2828POPC   C1B37663   4.881  24.335   8.564
 2828POPC   C2B37664   4.830  24.394   8.264
 2828POPC   C3B37665   4.834  24.337   7.964
 2828POPC   C4B37666   4.889  24.399   7.664
 2829POPC   NC337667  39.270   6.606   9.464
 2829POPC   PO437668  39.248   6.685   9.164
 2829POPC   GL137669  39.261   6.617   8.864
 2829POPC   GL237670  39.156   6.668   8.864
 2829POPC   C1A37671  39.203   6.625   8.564
 2829POPC   D2A37672  39.185   6.623   8.264
 2829POPC   C3A37673  39.242   6.664   7.964
 2829POPC   C4A37674  39.269   6.636   7.664
 2829POPC   C1B37675  38.969   6.649   8.564
 2829POPC   C2B37676  38.961   6.580   8.264
 2829POPC   C3B37677  39.026   6.627   7.964
 2829POPC   C4B37678  38.968   6.670   7.664
 2830POPC   NC337679  20.579  24.453   9.464
 2830POPC   PO437680  20.561  24.496   9.164
 2830POPC   GL137681  20.569  24.510   8.864
 2830POPC   GL237682  20.459  24.471   8.864
 2830POPC   C1A37683  20.660  24.539   8.564
 2830POPC   D2A37684  20.620  24.515   8.264
 2830POPC   C3A37685  20.596  24.515   7.964
 2830POPC   C4A37686  20.642  24.485   7.664
 2830POPC   C1B37687  20.338  24.380   8.564
 2830POPC   C2B37688  20.429  24.352   8.264
 2830POPC   C3B37689  20.364  24.424   7.964
 2830POPC   C4B37690  20.403  24.339   7.664
 2831POPC   NC337691  22.960  37.685   9.464
 2831POPC   PO437692  22.952  37.642   9.164
 2831POPC   GL137693  22.972  37.722   8.864
 2831POPC   GL237694  22.990  37.715   8.864
 2831POPC   C1A37695  22.892  37.722   8.564
 2831POPC   D2A37696  22.908  37.702   8.264
 2831POPC   C3A37697  22.969  37.644   7.964
 2831POPC   C4A37698  22.894  37.694   7.664
 2831POPC   C1B37699  23.105  37.876   8.564
 2831POPC   C2B37700  23.151  37.844   8.264
 2831POPC   C3B37701  23.119  37.871   7.964
 2831POPC   C4B37702  23.142  37.860   7.664
 2832POPC   NC337703  32.999  19.799   9.464
 2832POPC   PO437704  33.044  19.805   9.164
 2832POPC   GL137705  32.984  19.884   8.864
 2832POPC   GL237706  33.168  19.823   8.864
 2832POPC   C1A37707  33.007  19.877   8.564
 2832POPC   D2A37708  33.023  19.879   8.264
 2832POPC   C3A37709  33.000  19.834   7.964
 2832POPC   C4A37710  32.981  19.844   7.664
 2832POPC   C1B37711  33.299  19.884   8.564
 2832POPC   C2B37712  33.224  19.866   8.264
 2832POPC   C3B37713  33.297  19.848   7.964
 2832POPC   C4B37714  33.261  19.855   7.664
 2833POPC   NC337715  28.355  29.096   9.464
 2833POPC   PO437716  28.411  29.140   9.164
 2833POPC   GL137717  28.345  29.179   8.864
 2833POPC   GL237718  28.445  29.245   8.864
 2833POPC   C1A37719  28.400  29.158   8.564
 2833POPC   D2A37720  28.391  29.172   8.264
 2833POPC   C3A37721  28.332  29.152   7.964
 2833POPC   C4A37722  28.402  29.098   7.664
 2833POPC   C1B37723  28.437  29.400   8.564
 2833POPC   C2B37724  28.388  29.374   8.264
 2833POPC   C3B37725  28.433  29.338   7.964
 2833POPC   C4B37726  28.412  29.354   7.664
 2834POPC   NC337727  13.582   8.973   9.464
 2834POPC   PO437728  13.675   8.951   9.164
 2834POPC   GL137729  13.669   8.923   8.864
 2834POPC   GL237730  13.601   8.807   8.864
 2834POPC   C1A37731  13.601   8.973   8.564
 2834POPC   D2A37732  13.587   8.982   8.264
 2834POPC   C3A37733  13.630   8.976   7.964
 2834POPC   C4A37734  13.617   8.983   7.664
 2834POPC   C1B37735  13.696   8.732   8.564
 2834POPC   C2B37736  13.643   8.679   8.264
 2834POPC   C3B37737  13.614   8.764   7.964
 2834POPC   C4B37738  13.689   8.723   7.664
 2835POPC   NC337739   6.684  33.016   9.464
 2835POPC   PO437740   6.603  32.995   9.164
 2835POPC   GL137741   6.619  32.974   8.864
 2835POPC   GL237742   6.756  32.975   8.864
 2835POPC   C1A37743   6.655  33.001   8.564
 2835POPC   D2A37744   6.685  33.047   8.264
 2835POPC   C3A37745   6.685  33.019   7.964
 2835POPC   C4A37746   6.644  33.026   7.664
 2835POPC   C1B37747   6.896  32.988   8.564
 2835POPC   C2B37748   6.899  32.951   8.264
 2835POPC   C3B37749   6.866  32.932   7.964
 2835POPC   C4B37750   6.877  32.995   7.664
 2836POPC   NC337751  18.284  43.127   9.464
 2836POPC   PO437752  18.253  43.144   9.164
 2836POPC   GL137753  18.287  43.078   8.864
 2836POPC   GL237754  18.382  43.024   8.864
 2836POPC   C1A37755  18.304  43.127   8.564
 2836POPC   D2A37756  18.311  43.122   8.264
 2836POPC   C3A37757  18.260  43.146   7.964
 2836POPC   C4A37758  18.259  43.149   7.664
 2836POPC   C1B37759  18.442  42.932   8.564
 2836POPC   C2B37760  18.454  42.956   8.264
 2836POPC   C3B37761  18.404  42.922   7.964
 2836POPC   C4B37762  18.415  42.881   7.664
 2837POPC   NC337763  17.516  13.667   9.464
 2837POPC   PO437764  17.527  13.647   9.164
 2837POPC   GL137765  17.524  13.608   8.864
 2837POPC   GL237766  17.586  13.719   8.864
 2837POPC   C1A37767  17.495  13.606   8.564
 2837POPC   D2A37768  17.492  13.606   8.264
 2837POPC   C3A37769  17.479  13.607   7.964
 2837POPC   C4A37770  17.546  13.658   7.664
 2837POPC   C1B37771  17.607  13.884   8.564
 2837POPC   C2B37772  17.584  13.843   8.264
 2837POPC   C3B37773  17.587  13.839   7.964
 2837POPC   C4B37774  17.614  13.874   7.664
 2838POPC   NC337775  42.339  13.653   9.464
 2838POPC   PO437776  42.309  13.626   9.164
 2838POPC   GL137777  42.300  13.642   8.864
 2838POPC   GL237778  42.237  13.497   8.864
 2838POPC   C1A37779  42.371  13.603   8.564
 2838POPC   D2A37780  42.347  13.606   8.264
 2838POPC   C3A37781  42.335  13.589   7.964
 2838POPC   C4A37782  42.354  13.583   7.664
 2838POPC   C1B37783  42.178  13.386   8.564
 2838POPC   C2B37784  42.152  13.440   8.264
 2838POPC   C3B37785  42.146  13.454   7.964
 2838POPC   C4B37786  42.224  13.472   7.664
 2839POPC   NC337787  19.030  33.057   9.464
 2839POPC   PO437788  19.054  33.043   9.164
 2839POPC   GL137789  19.022  32.989   8.864
 2839POPC   GL237790  19.149  32.928   8.864
 2839POPC   C1A37791  19.068  33.027   8.564
 2839POPC   D2A37792  19.028  33.050   8.264
 2839POPC   C3A37793  19.073  33.055   7.964
 2839POPC   C4A37794  19.049  33.055   7.664
 2839POPC   C1B37795  19.266  32.886   8.564
 2839POPC   C2B37796  19.321  32.849   8.264
 2839POPC   C3B37797  19.235  32.934   7.964
 2839POPC   C4B37798  19.306  32.896   7.664
 2840POPC   NC337799  29.891  28.354   9.464
 2840POPC   PO437800  29.903  28.322   9.164
 2840POPC   GL137801  29.892  28.385   8.864
 2840POPC   GL237802  29.891  28.209   8.864
 2840POPC   C1A37803  29.871  28.340   8.564
 2840POPC   D2A37804  29.884  28.337   8.264
 2840POPC   C3A37805  29.895  28.405   7.964
 2840POPC   C4A37806  29.938  28.418   7.664
 2840POPC   C1B37807  29.845  28.115   8.564
 2840POPC   C2B37808  29.820  28.173   8.264
 2840POPC   C3B37809  29.890  28.122   7.964
 2840POPC   C4B37810  29.865  28.160   7.664
 2841POPC   NC337811  41.538   9.770   9.464
 2841POPC   PO437812  41.553   9.797   9.164
 2841POPC   GL137813  41.561   9.781   8.864
 2841POPC   GL237814  41.474   9.911   8.864
 2841POPC   C1A37815  41.565   9.706   8.564
 2841POPC   D2A37816  41.555   9.734   8.264
 2841POPC   C3A37817  41.556   9.717   7.964
 2841POPC   C4A37818  41.556   9.706   7.664
 2841POPC   C1B37819  41.467   9.949   8.564
 2841POPC   C2B37820  41.510  10.002   8.264
 2841POPC   C3B37821  41.446   9.950   7.964
 2841POPC   C4B37822  41.513   9.941   7.664
 2842POPC   NC337823  12.122  40.034   9.464
 2842POPC   PO437824  12.102  40.017   9.164
 2842POPC   GL137825  12.029  40.011   8.864
 2842POPC   GL237826  12.241  39.965   8.864
 2842POPC   C1A37827  12.043  39.999   8.564
 2842POPC   D2A37828  12.097  39.972   8.264
 2842POPC   C3A37829  12.041  40.055   7.964
 2842POPC   C4A37830  12.030  39.993   7.664
 2842POPC   C1B37831  12.309  39.892   8.564
 2842POPC   C2B37832  12.330  39.955   8.264
 2842POPC   C3B37833  12.295  39.899   7.964
 2842POPC   C4B37834  12.295  39.893   7.664
 2843POPC   NC337835  22.141   1.171   9.464
 2843POPC   PO437836  22.179   1.258   9.164
 2843POPC   GL137837  22.171   1.229   8.864
 2843POPC   GL237838  22.284   1.189   8.864
 2843POPC   C1A37839  22.127   1.195   8.564
 2843POPC   D2A37840  22.174   1.178   8.264
 2843POPC   C3A37841  22.120   1.209   7.964
 2843POPC   C4A37842  22.181   1.167   7.664
 2843POPC   C1B37843  22.392   1.150   8.564
 2843POPC   C2B37844  22.437   1.099   8.264
 2843POPC   C3B37845  22.378   1.132   7.964
 2843POPC   C4B37846  22.425   1.098   7.664
 2844POPC   NC337847  36.175   2.003   9.464
 2844POPC   PO437848  36.092   2.018   9.164
 2844POPC   GL137849  36.162   2.035   8.864
 2844POPC   GL237850  35.997   2.026   8.864
 2844POPC   C1A37851  36.096   1.961   8.564
 2844POPC   D2A37852  36.096   1.985   8.264
 2844POPC   C3A37853  36.078   1.949   7.964
 2844POPC   C4A37854  36.138   1.952   7.664
 2844POPC   C1B37855  35.843   2.039   8.564
 2844POPC   C2B37856  35.843   2.041   8.264
 2844POPC   C3B37857  35.852   1.986   7.964
 2844POPC   C4B37858  35.862   1.956   7.664
 2845POPC   NC337859  37.672  25.247   9.464
 2845POPC   PO437860  37.639  25.238   9.164
 2845POPC   GL137861  37.639  25.254   8.864
 2845POPC   GL237862  37.631  25.133   8.864
 2845POPC   C1A37863  37.666  25.216   8.564
 2845POPC   D2A37864  37.691  25.312   8.264
 2845POPC   C3A37865  37.685  25.249   7.964
 2845POPC   C4A37866  37.666  25.265   7.664
 2845POPC   C1B37867  37.552  25.015   8.564
 2845POPC   C2B37868  37.607  25.012   8.264
 2845POPC   C3B37869  37.631  25.004   7.964
 2845POPC   C4B37870  37.581  24.985   7.664
 2846POPC   NC337871  25.309   4.355   9.464
 2846POPC   PO437872  25.260   4.314   9.164
 2846POPC   GL137873  25.238   4.271   8.864
 2846POPC   GL237874  25.261   4.395   8.864
 2846POPC   C1A37875  25.299   4.361   8.564
 2846POPC   D2A37876  25.244   4.313   8.264
 2846POPC   C3A37877  25.263   4.354   7.964
 2846POPC   C4A37878  25.280   4.277   7.664
 2846POPC   C1B37879  25.201   4.575   8.564
 2846POPC   C2B37880  25.226   4.560   8.264
 2846POPC   C3B37881  25.220   4.554   7.964
 2846POPC   C4B37882  25.218   4.567   7.664
 2847POPC   NC337883  14.452  12.872   9.464
 2847POPC   PO437884  14.407  12.847   9.164
 2847POPC   GL137885  14.403  12.888   8.864
 2847POPC   GL237886  14.313  12.826   8.864
 2847POPC   C1A37887  14.436  12.881   8.564
 2847POPC   D2A37888  14.365  12.821   8.264
 2847POPC   C3A37889  14.382  12.897   7.964
 2847POPC   C4A37890  14.397  12.864   7.664
 2847POPC   C1B37891  14.179  12.658   8.564
 2847POPC   C2B37892  14.222  12.703   8.264
 2847POPC   C3B37893  14.164  12.742   7.964
 2847POPC   C4B37894  14.246  12.682   7.664
 2848POPC   NC337895  38.477   5.873   9.464
 2848POPC   PO437896  38.492   5.848   9.164
 2848POPC   GL137897  38.425   5.843   8.864
 2848POPC   GL237898  38.285   5.841   8.864
 2848POPC   C1A37899  38.421   5.855   8.564
 2848POPC   D2A37900  38.453   5.916   8.264
 2848POPC   C3A37901  38.416   5.847   7.964
 2848POPC   C4A37902  38.500   5.847   7.664
 2848POPC   C1B37903  38.221   5.931   8.564
 2848POPC   C2B37904  38.240   5.879   8.264
 2848POPC   C3B37905  38.236   5.871   7.964
 2848POPC   C4B37906  38.206   5.850   7.664
 2849POPC   NC337907   3.587  24.449   9.464
 2849POPC   PO437908   3.559  24.505   9.164
 2849POPC   GL137909   3.506  24.500   8.864
 2849POPC   GL237910   3.597  24.363   8.864
 2849POPC   C1A37911   3.582  24.516   8.564
 2849POPC   D2A37912   3.573  24.481   8.264
 2849POPC   C3A37913   3.497  24.474   7.964
 2849POPC   C4A37914   3.561  24.527   7.664
 2849POPC   C1B37915   3.591  24.250   8.564
 2849POPC   C2B37916   3.642  24.232   8.264
 2849POPC   C3B37917   3.643  24.232   7.964
 2849POPC   C4B37918   3.626  24.261   7.664
 2850POPC   NC337919  27.629   3.549   9.464
 2850POPC   PO437920  27.593   3.498   9.164
 2850POPC   GL137921  27.547   3.497   8.864
 2850POPC   GL237922  27.701   3.428   8.864
 2850POPC   C1A37923  27.561   3.584   8.564
 2850POPC   D2A37924  27.602   3.518   8.264
 2850POPC   C3A37925  27.597   3.565   7.964
 2850POPC   C4A37926  27.571   3.532   7.664
 2850POPC   C1B37927  27.739   3.348   8.564
 2850POPC   C2B37928  27.750   3.378   8.264
 2850POPC   C3B37929  27.712   3.308   7.964
 2850POPC   C4B37930  27.752   3.314   7.664
 2851POPC   NC337931  40.042   6.663   9.464
 2851POPC   PO437932  39.984   6.690   9.164
 2851POPC   GL137933  40.028   6.673   8.864
 2851POPC   GL237934  40.130   6.616   8.864
 2851POPC   C1A37935  39.997   6.659   8.564
 2851POPC   D2A37936  39.959   6.604   8.264
 2851POPC   C3A37937  39.979   6.606   7.964
 2851POPC   C4A37938  39.993   6.649   7.664
 2851POPC   C1B37939  40.204   6.536   8.564
 2851POPC   C2B37940  40.244   6.493   8.264
 2851POPC   C3B37941  40.196   6.464   7.964
 2851POPC   C4B37942  40.244   6.525   7.664
 2852POPC   NC337943  15.205  29.193   9.464
 2852POPC   PO437944  15.138  29.125   9.164
 2852POPC   GL137945  15.149  29.137   8.864
 2852POPC   GL237946  15.312  29.133   8.864
 2852POPC   C1A37947  15.172  29.097   8.564
 2852POPC   D2A37948  15.135  29.153   8.264
 2852POPC   C3A37949  15.184  29.165   7.964
 2852POPC   C4A37950  15.156  29.193   7.664
 2852POPC   C1B37951  15.447  29.239   8.564
 2852POPC   C2B37952  15.458  29.188   8.264
 2852POPC   C3B37953  15.385  29.163   7.964
 2852POPC   C4B37954  15.390  29.195   7.664
 2853POPC   NC337955  10.489  36.937   9.464
 2853POPC   PO437956  10.528  36.899   9.164
 2853POPC   GL137957  10.517  36.932   8.864
 2853POPC   GL237958  10.357  36.869   8.864
 2853POPC   C1A37959  10.526  36.859   8.564
 2853POPC   D2A37960  10.549  36.912   8.264
 2853POPC   C3A37961  10.484  36.918   7.964
 2853POPC   C4A37962  10.478  36.924   7.664
 2853POPC   C1B37963  10.285  36.801   8.564
 2853POPC   C2B37964  10.276  36.808   8.264
 2853POPC   C3B37965  10.317  36.882   7.964
 2853POPC   C4B37966  10.244  36.816   7.664
 2854POPC   NC337967   4.300  28.369   9.464
 2854POPC   PO437968   4.317  28.412   9.164
 2854POPC   GL137969   4.321  28.416   8.864
 2854POPC   GL237970   4.219  28.401   8.864
 2854POPC   C1A37971   4.270  28.401   8.564
 2854POPC   D2A37972   4.358  28.413   8.264
 2854POPC   C3A37973   4.309  28.340   7.964
 2854POPC   C4A37974   4.291  28.387   7.664
 2854POPC   C1B37975   4.110  28.487   8.564
 2854POPC   C2B37976   4.107  28.474   8.264
 2854POPC   C3B37977   4.058  28.478   7.964
 2854POPC   C4B37978   4.126  28.395   7.664
 2855POPC   NC337979  23.694  29.095   9.464
 2855POPC   PO437980  23.709  29.111   9.164
 2855POPC   GL137981  23.695  29.179   8.864
 2855POPC   GL237982  23.627  29.252   8.864
 2855POPC   C1A37983  23.758  29.167   8.564
 2855POPC   D2A37984  23.732  29.172   8.264
 2855POPC   C3A37985  23.670  29.138   7.964
 2855POPC   C4A37986  23.713  29.163   7.664
 2855POPC   C1B37987  23.536  29.330   8.564
 2855POPC   C2B37988  23.610  29.369   8.264
 2855POPC   C3B37989  23.611  29.405   7.964
 2855POPC   C4B37990  23.624  29.383   7.664
 2856POPC   NC337991  14.437   8.246   9.464
 2856POPC   PO437992  14.441   8.152   9.164
 2856POPC   GL137993  14.413   8.157   8.864
 2856POPC   GL237994  14.555   8.238   8.864
 2856POPC   C1A37995  14.428   8.208   8.564
 2856POPC   D2A37996  14.388   8.220   8.264
 2856POPC   C3A37997  14.365   8.225   7.964
 2856POPC   C4A37998  14.403   8.238   7.664
 2856POPC   C1B37999  14.654   8.298   8.564
 2856POPC   C2B38000  14.617   8.278   8.264
 2856POPC   C3B38001  14.619   8.269   7.964
 2856POPC   C4B38002  14.586   8.359   7.664
 2857POPC   NC338003  20.560  43.141   9.464
 2857POPC   PO438004  20.580  43.130   9.164
 2857POPC   GL138005  20.620  43.068   8.864
 2857POPC   GL238006  20.554  43.053   8.864
 2857POPC   C1A38007  20.615  43.142   8.564
 2857POPC   D2A38008  20.626  43.108   8.264
 2857POPC   C3A38009  20.577  43.073   7.964
 2857POPC   C4A38010  20.596  43.149   7.664
 2857POPC   C1B38011  20.480  42.892   8.564
 2857POPC   C2B38012  20.455  42.864   8.264
 2857POPC   C3B38013  20.477  42.921   7.964
 2857POPC   C4B38014  20.415  42.882   7.664
 2858POPC   NC338015  35.354   9.772   9.464
 2858POPC   PO438016  35.321   9.731   9.164
 2858POPC   GL138017  35.355   9.783   8.864
 2858POPC   GL238018  35.330   9.632   8.864
 2858POPC   C1A38019  35.332   9.775   8.564
 2858POPC   D2A38020  35.397   9.707   8.264
 2858POPC   C3A38021  35.376   9.741   7.964
 2858POPC   C4A38022  35.310   9.731   7.664
 2858POPC   C1B38023  35.355   9.529   8.564
 2858POPC   C2B38024  35.363   9.505   8.264
 2858POPC   C3B38025  35.425   9.492   7.964
 2858POPC   C4B38026  35.360   9.486   7.664
 2859POPC   NC338027  37.635  15.955   9.464
 2859POPC   PO438028  37.638  15.992   9.164
 2859POPC   GL138029  37.708  15.951   8.864
 2859POPC   GL238030  37.742  15.924   8.864
 2859POPC   C1A38031  37.647  16.005   8.564
 2859POPC   D2A38032  37.651  15.971   8.264
 2859POPC   C3A38033  37.655  15.962   7.964
 2859POPC   C4A38034  37.647  15.998   7.664
 2859POPC   C1B38035  37.911  15.857   8.564
 2859POPC   C2B38036  37.863  15.855   8.264
 2859POPC   C3B38037  37.855  15.800   7.964
 2859POPC   C4B38038  37.888  15.841   7.664
 2860POPC   NC338039   1.963  43.155   9.464
 2860POPC   PO438040   2.008  43.103   9.164
 2860POPC   GL138041   1.990  43.114   8.864
 2860POPC   GL238042   1.936  43.213   8.864
 2860POPC   C1A38043   1.984  43.150   8.564
 2860POPC   D2A38044   1.966  43.121   8.264
 2860POPC   C3A38045   1.965  43.099   7.964
 2860POPC   C4A38046   2.000  43.147   7.664
 2860POPC   C1B38047   1.894  43.309   8.564
 2860POPC   C2B38048   1.897  43.383   8.264
 2860POPC   C3B38049   1.848  43.339   7.964
 2860POPC   C4B38050   1.913  43.320   7.664
 2861POPC   NC338051  27.563   7.412   9.464
 2861POPC   PO438052  27.612   7.442   9.164
 2861POPC   GL138053  27.619   7.429   8.864
 2861POPC   GL238054  27.667   7.573   8.864
 2861POPC   C1A38055  27.602   7.466   8.564
 2861POPC   D2A38056  27.582   7.455   8.264
 2861POPC   C3A38057  27.601   7.423   7.964
 2861POPC   C4A38058  27.603   7.432   7.664
 2861POPC   C1B38059  27.779   7.616   8.564
 2861POPC   C2B38060  27.783   7.671   8.264
 2861POPC   C3B38061  27.762   7.625   7.964
 2861POPC   C4B38062  27.771   7.608   7.664
 2862POPC   NC338063  16.714  13.647   9.464
 2862POPC   PO438064  16.769  13.636   9.164
 2862POPC   GL138065  16.746  13.650   8.864
 2862POPC   GL238066  16.879  13.621   8.864
 2862POPC   C1A38067  16.778  13.580   8.564
 2862POPC   D2A38068  16.776  13.631   8.264
 2862POPC   C3A38069  16.780  13.671   7.964
 2862POPC   C4A38070  16.693  13.599   7.664
 2862POPC   C1B38071  16.957  13.696   8.564
 2862POPC   C2B38072  16.967  13.718   8.264
 2862POPC   C3B38073  17.004  13.623   7.964
 2862POPC   C4B38074  16.996  13.704   7.664
 2863POPC   NC338075  40.747  26.777   9.464
 2863POPC   PO438076  40.787  26.817   9.164
 2863POPC   GL138077  40.759  26.772   8.864
 2863POPC   GL238078  40.844  26.960   8.864
 2863POPC   C1A38079  40.792  26.790   8.564
 2863POPC   D2A38080  40.767  26.837   8.264
 2863POPC   C3A38081  40.783  26.807   7.964
 2863POPC   C4A38082  40.785  26.813   7.664
 2863POPC   C1B38083  40.897  27.067   8.564
 2863POPC   C2B38084  40.938  27.060   8.264
 2863POPC   C3B38085  40.949  26.992   7.964
 2863POPC   C4B38086  40.958  27.027   7.664
 2864POPC   NC338087  19.818  25.315   9.464
 2864POPC   PO438088  19.818  25.279   9.164
 2864POPC   GL138089  19.847  25.235   8.864
 2864POPC   GL238090  19.892  25.372   8.864
 2864POPC   C1A38091  19.853  25.279   8.564
 2864POPC   D2A38092  19.853  25.278   8.264
 2864POPC   C3A38093  19.802  25.242   7.964
 2864POPC   C4A38094  19.865  25.290   7.664
 2864POPC   C1B38095  19.936  25.452   8.564
 2864POPC   C2B38096  19.939  25.547   8.264
 2864POPC   C3B38097  19.953  25.518   7.964
 2864POPC   C4B38098  19.906  25.532   7.664
 2865POPC   NC338099   4.340   8.191   9.464
 2865POPC   PO438100   4.298   8.158   9.164
 2865POPC   GL138101   4.346   8.177   8.864
 2865POPC   GL238102   4.375   8.089   8.864
 2865POPC   C1A38103   4.366   8.187   8.564
 2865POPC   D2A38104   4.282   8.189   8.264
 2865POPC   C3A38105   4.307   8.147   7.964
 2865POPC   C4A38106   4.318   8.227   7.664
 2865POPC   C1B38107   4.390   7.997   8.564
 2865POPC   C2B38108   4.435   7.945   8.264
 2865POPC   C3B38109   4.369   7.974   7.964
 2865POPC   C4B38110   4.363   7.942   7.664
 2866POPC   NC338111  26.038  28.386   9.464
 2866POPC   PO438112  26.068  28.377   9.164
 2866POPC   GL138113  26.017  28.342   8.864
 2866POPC   GL238114  25.965  28.269   8.864
 2866POPC   C1A38115  26.006  28.341   8.564
 2866POPC   D2A38116  26.018  28.336   8.264
 2866POPC   C3A38117  26.071  28.369   7.964
 2866POPC   C4A38118  26.069  28.405   7.664
 2866POPC   C1B38119  25.967  28.087   8.564
 2866POPC   C2B38120  25.937  28.153   8.264
 2866POPC   C3B38121  25.966  28.091   7.964
 2866POPC   C4B38122  25.944  28.159   7.664
 2867POPC   NC338123  15.973  24.526   9.464
 2867POPC   PO438124  15.996  24.447   9.164
 2867POPC   GL138125  15.990  24.502   8.864
 2867POPC   GL238126  15.820  24.412   8.864
 2867POPC   C1A38127  15.919  24.452   8.564
 2867POPC   D2A38128  15.980  24.502   8.264
 2867POPC   C3A38129  15.968  24.467   7.964
 2867POPC   C4A38130  15.977  24.487   7.664
 2867POPC   C1B38131  15.763  24.435   8.564
 2867POPC   C2B38132  15.754  24.365   8.264
 2867POPC   C3B38133  15.768  24.417   7.964
 2867POPC   C4B38134  15.750  24.398   7.664
 2868POPC   NC338135  40.005  16.728   9.464
 2868POPC   PO438136  39.970  16.748   9.164
 2868POPC   GL138137  40.036  16.698   8.864
 2868POPC   GL238138  40.132  16.851   8.864
 2868POPC   C1A38139  40.048  16.694   8.564
 2868POPC   D2A38140  39.981  16.724   8.264
 2868POPC   C3A38141  40.053  16.708   7.964
 2868POPC   C4A38142  39.967  16.750   7.664
 2868POPC   C1B38143  40.130  16.890   8.564
 2868POPC   C2B38144  40.179  16.943   8.264
 2868POPC   C3B38145  40.199  16.885   7.964
 2868POPC   C4B38146  40.205  16.951   7.664
 2869POPC   NC338147  41.510   2.785   9.464
 2869POPC   PO438148  41.584   2.758   9.164
 2869POPC   GL138149  41.571   2.737   8.864
 2869POPC   GL238150  41.410   2.822   8.864
 2869POPC   C1A38151  41.530   2.811   8.564
 2869POPC   D2A38152  41.513   2.749   8.264
 2869POPC   C3A38153  41.511   2.756   7.964
 2869POPC   C4A38154  41.512   2.716   7.664
 2869POPC   C1B38155  41.335   2.939   8.564
 2869POPC   C2B38156  41.369   2.876   8.264
 2869POPC   C3B38157  41.399   2.938   7.964
 2869POPC   C4B38158  41.378   2.929   7.664
 2870POPC   NC338159   5.137   5.917   9.464
 2870POPC   PO438160   5.077   5.865   9.164
 2870POPC   GL138161   5.078   5.878   8.864
 2870POPC   GL238162   5.027   5.935   8.864
 2870POPC   C1A38163   5.143   5.876   8.564
 2870POPC   D2A38164   5.107   5.912   8.264
 2870POPC   C3A38165   5.092   5.843   7.964
 2870POPC   C4A38166   5.126   5.848   7.664
 2870POPC   C1B38167   4.851   6.023   8.564
 2870POPC   C2B38168   4.884   6.040   8.264
 2870POPC   C3B38169   4.919   6.069   7.964
 2870POPC   C4B38170   4.879   5.991   7.664
 2871POPC   NC338171   1.972   2.748   9.464
 2871POPC   PO438172   2.002   2.726   9.164
 2871POPC   GL138173   1.959   2.796   8.864
 2871POPC   GL238174   1.859   2.746   8.864
 2871POPC   C1A38175   1.965   2.793   8.564
 2871POPC   D2A38176   1.964   2.811   8.264
 2871POPC   C3A38177   1.942   2.766   7.964
 2871POPC   C4A38178   1.971   2.773   7.664
 2871POPC   C1B38179   1.698   2.831   8.564
 2871POPC   C2B38180   1.759   2.780   8.264
 2871POPC   C3B38181   1.716   2.814   7.964
 2871POPC   C4B38182   1.719   2.823   7.664
 2872POPC   NC338183  15.977   7.424   9.464
 2872POPC   PO438184  15.918   7.392   9.164
 2872POPC   GL138185  15.946   7.404   8.864
 2872POPC   GL238186  15.986   7.250   8.864
 2872POPC   C1A38187  15.923   7.468   8.564
 2872POPC   D2A38188  15.910   7.399   8.264
 2872POPC   C3A38189  15.936   7.412   7.964
 2872POPC   C4A38190  15.986   7.456   7.664
 2872POPC   C1B38191  15.902   7.194   8.564
 2872POPC   C2B38192  15.934   7.187   8.264
 2872POPC   C3B38193  15.886   7.198   7.964
 2872POPC   C4B38194  15.888   7.158   7.664
 2873POPC   NC338195  10.564  12.095   9.464
 2873POPC   PO438196  10.527  12.126   9.164
 2873POPC   GL138197  10.539  12.115   8.864
 2873POPC   GL238198  10.534  12.228   8.864
 2873POPC   C1A38199  10.543  12.081   8.564
 2873POPC   D2A38200  10.494  12.070   8.264
 2873POPC   C3A38201  10.563  12.125   7.964
 2873POPC   C4A38202  10.515  12.055   7.664
 2873POPC   C1B38203  10.491  12.351   8.564
 2873POPC   C2B38204  10.458  12.301   8.264
 2873POPC   C3B38205  10.443  12.281   7.964
 2873POPC   C4B38206  10.480  12.289   7.664
 2874POPC   NC338207  22.121  29.927   9.464
 2874POPC   PO438208  22.143  29.950   9.164
 2874POPC   GL138209  22.190  29.928   8.864
 2874POPC   GL238210  21.992  29.903   8.864
 2874POPC   C1A38211  22.146  29.964   8.564
 2874POPC   D2A38212  22.198  29.959   8.264
 2874POPC   C3A38213  22.179  29.950   7.964
 2874POPC   C4A38214  22.149  29.951   7.664
 2874POPC   C1B38215  21.911  29.890   8.564
 2874POPC   C2B38216  21.953  29.907   8.264
 2874POPC   C3B38217  21.952  29.934   7.964
 2874POPC   C4B38218  21.958  29.939   7.664
 2875POPC   NC338219  11.336  29.911   9.464
 2875POPC   PO438220  11.324  29.923   9.164
 2875POPC   GL138221  11.261  29.882   8.864
 2875POPC   GL238222  11.190  29.933   8.864
 2875POPC   C1A38223  11.313  29.930   8.564
 2875POPC   D2A38224  11.302  29.905   8.264
 2875POPC   C3A38225  11.262  29.920   7.964
 2875POPC   C4A38226  11.309  29.962   7.664
 2875POPC   C1B38227  11.107  29.964   8.564
 2875POPC   C2B38228  11.044  30.016   8.264
 2875POPC   C3B38229  11.023  30.029   7.964
 2875POPC   C4B38230  11.009  30.000   7.664
 2876POPC   NC338231   1.944  13.608   9.464
 2876POPC   PO438232   2.030  13.667   9.164
 2876POPC   GL138233   1.971  13.643   8.864
 2876POPC   GL238234   1.844  13.666   8.864
 2876POPC   C1A38235   1.952  13.628   8.564
 2876POPC   D2A38236   1.980  13.671   8.264
 2876POPC   C3A38237   1.942  13.601   7.964
 2876POPC   C4A38238   1.963  13.598   7.664
 2876POPC   C1B38239   1.818  13.767   8.564
 2876POPC   C2B38240   1.754  13.753   8.264
 2876POPC   C3B38241   1.748  13.790   7.964
 2876POPC   C4B38242   1.756  13.734   7.664
 2877POPC   NC338243  32.221  32.211   9.464
 2877POPC   PO438244  32.286  32.258   9.164
 2877POPC   GL138245  32.287  32.210   8.864
 2877POPC   GL238246  32.165  32.222   8.864
 2877POPC   C1A38247  32.258  32.272   8.564
 2877POPC   D2A38248  32.247  32.239   8.264
 2877POPC   C3A38249  32.242  32.283   7.964
 2877POPC   C4A38250  32.251  32.205   7.664
 2877POPC   C1B38251  32.082  32.107   8.564
 2877POPC   C2B38252  32.008  32.117   8.264
 2877POPC   C3B38253  32.016  32.125   7.964
 2877POPC   C4B38254  32.047  32.130   7.664
 2878POPC   NC338255  43.084  29.116   9.464
 2878POPC   PO438256  43.125  29.159   9.164
 2878POPC   GL138257  43.100  29.156   8.864
 2878POPC   GL238258  43.177  29.012   8.864
 2878POPC   C1A38259  43.135  29.169   8.564
 2878POPC   D2A38260  43.155  29.160   8.264
 2878POPC   C3A38261  43.110  29.155   7.964
 2878POPC   C4A38262  43.157  29.100   7.664
 2878POPC   C1B38263  43.249  28.982   8.564
 2878POPC   C2B38264  43.282  28.909   8.264
 2878POPC   C3B38265  43.237  28.916   7.964
 2878POPC   C4B38266  43.269  28.905   7.664
 2879POPC   NC338267   5.135  12.099   9.464
 2879POPC   PO438268   5.117  12.106   9.164
 2879POPC   GL138269   5.117  12.099   8.864
 2879POPC   GL238270   5.135  12.227   8.864
 2879POPC   C1A38271   5.056  12.045   8.564
 2879POPC   D2A38272   5.131  12.083   8.264
 2879POPC   C3A38273   5.113  12.118   7.964
 2879POPC   C4A38274   5.129  12.060   7.664
 2879POPC   C1B38275   5.168  12.317   8.564
 2879POPC   C2B38276   5.162  12.276   8.264
 2879POPC   C3B38277   5.211  12.272   7.964
 2879POPC   C4B38278   5.223  12.353   7.664
 2880POPC   NC338279   5.832  17.478   9.464
 2880POPC   PO438280   5.872  17.471   9.164
 2880POPC   GL138281   5.876  17.513   8.864
 2880POPC   GL238282   5.891  17.401   8.864
 2880POPC   C1A38283   5.900  17.480   8.564
 2880POPC   D2A38284   5.887  17.507   8.264
 2880POPC   C3A38285   5.881  17.459   7.964
 2880POPC   C4A38286   5.900  17.512   7.664
 2880POPC   C1B38287   5.992  17.250   8.564
 2880POPC   C2B38288   5.981  17.335   8.264
 2880POPC   C3B38289   6.016  17.302   7.964
 2880POPC   C4B38290   6.049  17.287   7.664
 2881POPC   NC338291  22.142  26.019   9.464
 2881POPC   PO438292  22.132  26.032   9.164
 2881POPC   GL138293  22.155  26.085   8.864
 2881POPC   GL238294  22.038  25.950   8.864
 2881POPC   C1A38295  22.140  26.006   8.564
 2881POPC   D2A38296  22.154  26.033   8.264
 2881POPC   C3A38297  22.156  26.022   7.964
 2881POPC   C4A38298  22.162  26.046   7.664
 2881POPC   C1B38299  21.963  25.853   8.564
 2881POPC   C2B38300  22.013  25.876   8.264
 2881POPC   C3B38301  22.014  25.907   7.964
 2881POPC   C4B38302  21.930  25.917   7.664
 2882POPC   NC338303   8.246  36.882   9.464
 2882POPC   PO438304   8.225  36.906   9.164
 2882POPC   GL138305   8.227  36.930   8.864
 2882POPC   GL238306   8.035  36.886   8.864
 2882POPC   C1A38307   8.225  36.874   8.564
 2882POPC   D2A38308   8.189  36.870   8.264
 2882POPC   C3A38309   8.165  36.883   7.964
 2882POPC   C4A38310   8.233  36.888   7.664
 2882POPC   C1B38311   7.916  36.809   8.564
 2882POPC   C2B38312   7.915  36.853   8.264
 2882POPC   C3B38313   7.986  36.784   7.964
 2882POPC   C4B38314   7.919  36.788   7.664
 2883POPC   NC338315  22.942  35.378   9.464
 2883POPC   PO438316  22.977  35.303   9.164
 2883POPC   GL138317  22.935  35.393   8.864
 2883POPC   GL238318  22.852  35.287   8.864
 2883POPC   C1A38319  22.899  35.338   8.564
 2883POPC   D2A38320  22.919  35.351   8.264
 2883POPC   C3A38321  22.949  35.366   7.964
 2883POPC   C4A38322  22.976  35.333   7.664
 2883POPC   C1B38323  22.655  35.357   8.564
 2883POPC   C2B38324  22.671  35.268   8.264
 2883POPC   C3B38325  22.738  35.273   7.964
 2883POPC   C4B38326  22.679  35.273   7.664
 2884POPC   NC338327   9.018  44.651   9.464
 2884POPC   PO438328   8.944  44.624   9.164
 2884POPC   GL138329   9.006  44.663   8.864
 2884POPC   GL238330   8.802  44.613   8.864
 2884POPC   C1A38331   8.948  44.697   8.564
 2884POPC   D2A38332   9.000  44.619   8.264
 2884POPC   C3A38333   8.944  44.619   7.964
 2884POPC   C4A38334   8.984  44.685   7.664
 2884POPC   C1B38335   8.740  44.605   8.564
 2884POPC   C2B38336   8.721  44.673   8.264
 2884POPC   C3B38337   8.742  44.657   7.964
 2884POPC   C4B38338   8.700  44.647   7.664
 2885POPC   NC338339  44.711  20.576   9.464
 2885POPC   PO438340  44.656  20.627   9.164
 2885POPC   GL138341  44.702  20.632   8.864
 2885POPC   GL238342  44.696  20.520   8.864
 2885POPC   C1A38343  44.657  20.613   8.564
 2885POPC   D2A38344  44.623  20.598   8.264
 2885POPC   C3A38345  44.635  20.654   7.964
 2885POPC   C4A38346  44.688  20.604   7.664
 2885POPC   C1B38347  44.837  20.425   8.564
 2885POPC   C2B38348  44.787  20.356   8.264
 2885POPC   C3B38349  44.767  20.432   7.964
 2885POPC   C4B38350  44.770  20.381   7.664
 2886POPC   NC338351  29.896   3.517   9.464
 2886POPC   PO438352  29.938   3.503   9.164
 2886POPC   GL138353  29.896   3.516   8.864
 2886POPC   GL238354  29.863   3.601   8.864
 2886POPC   C1A38355  29.964   3.541   8.564
 2886POPC   D2A38356  29.968   3.529   8.264
 2886POPC   C3A38357  29.954   3.555   7.964
 2886POPC   C4A38358  29.883   3.579   7.664
 2886POPC   C1B38359  29.741   3.638   8.564
 2886POPC   C2B38360  29.672   3.657   8.264
 2886POPC   C3B38361  29.741   3.675   7.964
 2886POPC   C4B38362  29.724   3.655   7.664
 2887POPC   NC338363  22.145  41.558   9.464
 2887POPC   PO438364  22.124  41.510   9.164
 2887POPC   GL138365  22.124  41.535   8.864
 2887POPC   GL238366  22.064  41.606   8.864
 2887POPC   C1A38367  22.211  41.565   8.564
 2887POPC   D2A38368  22.182  41.577   8.264
 2887POPC   C3A38369  22.198  41.587   7.964
 2887POPC   C4A38370  22.195  41.568   7.664
 2887POPC   C1B38371  21.934  41.623   8.564
 2887POPC   C2B38372  21.926  41.608   8.264
 2887POPC   C3B38373  21.935  41.661   7.964
 2887POPC   C4B38374  21.905  41.592   7.664
 2888POPC   NC338375  34.615   1.177   9.464
 2888POPC   PO438376  34.600   1.258   9.164
 2888POPC   GL138377  34.549   1.220   8.864
 2888POPC   GL238378  34.572   1.065   8.864
 2888POPC   C1A38379  34.543   1.243   8.564
 2888POPC   D2A38380  34.598   1.208   8.264
 2888POPC   C3A38381  34.527   1.237   7.964
 2888POPC   C4A38382  34.587   1.257   7.664
 2888POPC   C1B38383  34.561   0.930   8.564
 2888POPC   C2B38384  34.605   0.973   8.264
 2888POPC   C3B38385  34.536   0.936   7.964
 2888POPC   C4B38386  34.572   0.932   7.664
 2889POPC   NC338387  19.821  24.517   9.464
 2889POPC   PO438388  19.851  24.476   9.164
 2889POPC   GL138389  19.825  24.528   8.864
 2889POPC   GL238390  19.880  24.608   8.864
 2889POPC   C1A38391  19.809  24.496   8.564
 2889POPC   D2A38392  19.834  24.477   8.264
 2889POPC   C3A38393  19.816  24.531   7.964
 2889POPC   C4A38394  19.816  24.442   7.664
 2889POPC   C1B38395  19.831  24.710   8.564
 2889POPC   C2B38396  19.877  24.703   8.264
 2889POPC   C3B38397  19.854  24.786   7.964
 2889POPC   C4B38398  19.883  24.737   7.664
 2890POPC   NC338399  20.626  15.211   9.464
 2890POPC   PO438400  20.612  15.142   9.164
 2890POPC   GL138401  20.650  15.207   8.864
 2890POPC   GL238402  20.767  15.081   8.864
 2890POPC   C1A38403  20.586  15.189   8.564
 2890POPC   D2A38404  20.595  15.168   8.264
 2890POPC   C3A38405  20.563  15.149   7.964
 2890POPC   C4A38406  20.637  15.152   7.664
 2890POPC   C1B38407  20.832  15.095   8.564
 2890POPC   C2B38408  20.794  15.112   8.264
 2890POPC   C3B38409  20.829  15.042   7.964
 2890POPC   C4B38410  20.831  15.090   7.664
 2891POPC   NC338411  42.350  12.816   9.464
 2891POPC   PO438412  42.353  12.850   9.164
 2891POPC   GL138413  42.325  12.900   8.864
 2891POPC   GL238414  42.434  12.745   8.864
 2891POPC   C1A38415  42.350  12.897   8.564
 2891POPC   D2A38416  42.289  12.807   8.264
 2891POPC   C3A38417  42.363  12.894   7.964
 2891POPC   C4A38418  42.368  12.820   7.664
 2891POPC   C1B38419  42.536  12.681   8.564
 2891POPC   C2B38420  42.585  12.709   8.264
 2891POPC   C3B38421  42.559  12.664   7.964
 2891POPC   C4B38422  42.510  12.711   7.664
 2892POPC   NC338423  26.772  21.404   9.464
 2892POPC   PO438424  26.802  21.408   9.164
 2892POPC   GL138425  26.866  21.376   8.864
 2892POPC   GL238426  26.848  21.254   8.864
 2892POPC   C1A38427  26.846  21.419   8.564
 2892POPC   D2A38428  26.814  21.410   8.264
 2892POPC   C3A38429  26.859  21.409   7.964
 2892POPC   C4A38430  26.794  21.374   7.664
 2892POPC   C1B38431  26.781  21.101   8.564
 2892POPC   C2B38432  26.816  21.118   8.264
 2892POPC   C3B38433  26.861  21.109   7.964
 2892POPC   C4B38434  26.810  21.109   7.664
 2893POPC   NC338435  40.027  40.037   9.464
 2893POPC   PO438436  40.015  40.055   9.164
 2893POPC   GL138437  40.000  40.030   8.864
 2893POPC   GL238438  40.098  39.889   8.864
 2893POPC   C1A38439  40.053  40.049   8.564
 2893POPC   D2A38440  40.051  40.037   8.264
 2893POPC   C3A38441  40.050  39.984   7.964
 2893POPC   C4A38442  40.052  40.037   7.664
 2893POPC   C1B38443  40.210  39.780   8.564
 2893POPC   C2B38444  40.195  39.818   8.264
 2893POPC   C3B38445  40.170  39.845   7.964
 2893POPC   C4B38446  40.130  39.818   7.664
 2894POPC   NC338447  33.039   0.391   9.464
 2894POPC   PO438448  33.023   0.442   9.164
 2894POPC   GL138449  33.036   0.471   8.864
 2894POPC   GL238450  33.097   0.406   8.864
 2894POPC   C1A38451  33.046   0.457   8.564
 2894POPC   D2A38452  32.988   0.423   8.264
 2894POPC   C3A38453  33.023   0.463   7.964
 2894POPC   C4A38454  33.053   0.483   7.664
 2894POPC   C1B38455  33.299   0.336   8.564
 2894POPC   C2B38456  33.273   0.340   8.264
 2894POPC   C3B38457  33.268   0.392   7.964
 2894POPC   C4B38458  33.316   0.349   7.664
 2895POPC   NC338459  22.137   5.869   9.464
 2895POPC   PO438460  22.144   5.863   9.164
 2895POPC   GL138461  22.185   5.827   8.864
 2895POPC   GL238462  22.303   5.905   8.864
 2895POPC   C1A38463  22.204   5.834   8.564
 2895POPC   D2A38464  22.197   5.887   8.264
 2895POPC   C3A38465  22.163   5.847   7.964
 2895POPC   C4A38466  22.134   5.852   7.664
 2895POPC   C1B38467  22.386   5.943   8.564
 2895POPC   C2B38468  22.386   6.025   8.264
 2895POPC   C3B38469  22.353   5.929   7.964
 2895POPC   C4B38470  22.361   5.995   7.664
 2896POPC   NC338471   4.304   8.963   9.464
 2896POPC   PO438472   4.280   8.929   9.164
 2896POPC   GL138473   4.286   8.955   8.864
 2896POPC   GL238474   4.150   8.907   8.864
 2896POPC   C1A38475   4.322   8.967   8.564
 2896POPC   D2A38476   4.272   9.002   8.264
 2896POPC   C3A38477   4.335   8.975   7.964
 2896POPC   C4A38478   4.316   8.951   7.664
 2896POPC   C1B38479   4.104   8.938   8.564
 2896POPC   C2B38480   4.068   8.893   8.264
 2896POPC   C3B38481   4.056   8.939   7.964
 2896POPC   C4B38482   4.030   8.976   7.664
 2897POPC   NC338483  35.311  44.613   9.464
 2897POPC   PO438484  35.401  44.669   9.164
 2897POPC   GL138485  35.353  44.629   8.864
 2897POPC   GL238486  35.300  44.749   8.864
 2897POPC   C1A38487  35.383  44.700   8.564
 2897POPC   D2A38488  35.310  44.671   8.264
 2897POPC   C3A38489  35.310  44.698   7.964
 2897POPC   C4A38490  35.305  44.631   7.664
 2897POPC   C1B38491  35.134  44.792   8.564
 2897POPC   C2B38492  35.183  44.831   8.264
 2897POPC   C3B38493  35.120  44.823   7.964
 2897POPC   C4B38494  35.176  44.805   7.664
 2898POPC   NC338495   6.634  13.669   9.464
 2898POPC   PO438496   6.672  13.639   9.164
 2898POPC   GL138497   6.631  13.596   8.864
 2898POPC   GL238498   6.754  13.560   8.864
 2898POPC   C1A38499   6.613  13.603   8.564
 2898POPC   D2A38500   6.685  13.586   8.264
 2898POPC   C3A38501   6.622  13.672   7.964
 2898POPC   C4A38502   6.623  13.644   7.664
 2898POPC   C1B38503   6.869  13.500   8.564
 2898POPC   C2B38504   6.923  13.498   8.264
 2898POPC   C3B38505   6.916  13.579   7.964
 2898POPC   C4B38506   6.924  13.517   7.664
 2899POPC   NC338507  19.047  13.584   9.464
 2899POPC   PO438508  19.039  13.652   9.164
 2899POPC   GL138509  19.063  13.653   8.864
 2899POPC   GL238510  19.213  13.524   8.864
 2899POPC   C1A38511  19.025  13.591   8.564
 2899POPC   D2A38512  19.042  13.641   8.264
 2899POPC   C3A38513  19.027  13.604   7.964
 2899POPC   C4A38514  19.024  13.612   7.664
 2899POPC   C1B38515  19.268  13.532   8.564
 2899POPC   C2B38516  19.243  13.518   8.264
 2899POPC   C3B38517  19.283  13.542   7.964
 2899POPC   C4B38518  19.309  13.469   7.664
 2900POPC   NC338519   5.128  31.462   9.464
 2900POPC   PO438520   5.122  31.511   9.164
 2900POPC   GL138521   5.102  31.502   8.864
 2900POPC   GL238522   4.992  31.360   8.864
 2900POPC   C1A38523   5.078  31.492   8.564
 2900POPC   D2A38524   5.046  31.506   8.264
 2900POPC   C3A38525   5.051  31.488   7.964
 2900POPC   C4A38526   5.049  31.499   7.664
 2900POPC   C1B38527   4.957  31.264   8.564
 2900POPC   C2B38528   5.002  31.225   8.264
 2900POPC   C3B38529   4.993  31.226   7.964
 2900POPC   C4B38530   4.979  31.273   7.664
 2901POPC   NC338531   5.079  41.549   9.464
 2901POPC   PO438532   5.116  41.551   9.164
 2901POPC   GL138533   5.076  41.526   8.864
 2901POPC   GL238534   5.238  41.520   8.864
 2901POPC   C1A38535   5.099  41.543   8.564
 2901POPC   D2A38536   5.122  41.565   8.264
 2901POPC   C3A38537   5.056  41.533   7.964
 2901POPC   C4A38538   5.070  41.546   7.664
 2901POPC   C1B38539   5.353  41.587   8.564
 2901POPC   C2B38540   5.317  41.516   8.264
 2901POPC   C3B38541   5.332  41.559   7.964
 2901POPC   C4B38542   5.295  41.534   7.664
 2902POPC   NC338543  23.687  25.222   9.464
 2902POPC   PO438544  23.676  25.235   9.164
 2902POPC   GL138545  23.669  25.274   8.864
 2902POPC   GL238546  23.716  25.421   8.864
 2902POPC   C1A38547  23.703  25.266   8.564
 2902POPC   D2A38548  23.745  25.282   8.264
 2902POPC   C3A38549  23.714  25.223   7.964
 2902POPC   C4A38550  23.737  25.245   7.664
 2902POPC   C1B38551  23.693  25.537   8.564
 2902POPC   C2B38552  23.645  25.490   8.264
 2902POPC   C3B38553  23.629  25.547   7.964
 2902POPC   C4B38554  23.681  25.529   7.664
 2903POPC   NC338555   2.786  22.169   9.464
 2903POPC   PO438556   2.727  22.134   9.164
 2903POPC   GL138557   2.768  22.202   8.864
 2903POPC   GL238558   2.793  22.298   8.864
 2903POPC   C1A38559   2.723  22.155   8.564
 2903POPC   D2A38560   2.812  22.211   8.264
 2903POPC   C3A38561   2.795  22.164   7.964
 2903POPC   C4A38562   2.765  22.132   7.664
 2903POPC   C1B38563   2.725  22.453   8.564
 2903POPC   C2B38564   2.723  22.397   8.264
 2903POPC   C3B38565   2.773  22.400   7.964
 2903POPC   C4B38566   2.749  22.411   7.664
 2904POPC   NC338567  31.475   8.223   9.464
 2904POPC   PO438568  31.460   8.173   9.164
 2904POPC   GL138569  31.515   8.184   8.864
 2904POPC   GL238570  31.612   8.145   8.864
 2904POPC   C1A38571  31.438   8.157   8.564
 2904POPC   D2A38572  31.516   8.175   8.264
 2904POPC   C3A38573  31.427   8.187   7.964
 2904POPC   C4A38574  31.438   8.185   7.664
 2904POPC   C1B38575  31.664   8.042   8.564
 2904POPC   C2B38576  31.686   8.037   8.264
 2904POPC   C3B38577  31.653   8.033   7.964
 2904POPC   C4B38578  31.639   8.015   7.664
 2905POPC   NC338579   5.875  44.655   9.464
 2905POPC   PO438580   5.906  44.665   9.164
 2905POPC   GL138581   5.857  44.683   8.864
 2905POPC   GL238582   5.812  44.560   8.864
 2905POPC   C1A38583   5.852  44.691   8.564
 2905POPC   D2A38584   5.885  44.626   8.264
 2905POPC   C3A38585   5.853  44.682   7.964
 2905POPC   C4A38586   5.866  44.657   7.664
 2905POPC   C1B38587   5.778  44.410   8.564
 2905POPC   C2B38588   5.688  44.454   8.264
 2905POPC   C3B38589   5.719  44.467   7.964
 2905POPC   C4B38590   5.767  44.472   7.664
 2906POPC   NC338591  39.988  22.923   9.464
 2906POPC   PO438592  39.979  22.972   9.164
 2906POPC   GL138593  40.052  22.985   8.864
 2906POPC   GL238594  40.070  23.079   8.864
 2906POPC   C1A38595  39.973  22.947   8.564
 2906POPC   D2A38596  39.985  22.888   8.264
 2906POPC   C3A38597  39.982  22.968   7.964
 2906POPC   C4A38598  40.009  22.952   7.664
 2906POPC   C1B38599  40.119  23.179   8.564
 2906POPC   C2B38600  40.080  23.129   8.264
 2906POPC   C3B38601  40.110  23.200   7.964
 2906POPC   C4B38602  40.151  23.211   7.664
 2907POPC   NC338603  18.309   2.782   9.464
 2907POPC   PO438604  18.271   2.794   9.164
 2907POPC   GL138605  18.237   2.717   8.864
 2907POPC   GL238606  18.158   2.660   8.864
 2907POPC   C1A38607  18.314   2.763   8.564
 2907POPC   D2A38608  18.274   2.744   8.264
 2907POPC   C3A38609  18.298   2.804   7.964
 2907POPC   C4A38610  18.278   2.720   7.664
 2907POPC   C1B38611  18.166   2.578   8.564
 2907POPC   C2B38612  18.140   2.601   8.264
 2907POPC   C3B38613  18.132   2.553   7.964
 2907POPC   C4B38614  18.081   2.531   7.664
 2908POPC   NC338615  24.534  10.547   9.464
 2908POPC   PO438616  24.468  10.478   9.164
 2908POPC   GL138617  24.491  10.500   8.864
 2908POPC   GL238618  24.471  10.418   8.864
 2908POPC   C1A38619  24.456  10.501   8.564
 2908POPC   D2A38620  24.524  10.567   8.264
 2908POPC   C3A38621  24.495  10.538   7.964
 2908POPC   C4A38622  24.497  10.568   7.664
 2908POPC   C1B38623  24.372  10.299   8.564
 2908POPC   C2B38624  24.383  10.326   8.264
 2908POPC   C3B38625  24.379  10.263   7.964
 2908POPC   C4B38626  24.358  10.294   7.664
 2909POPC   NC338627  25.255  11.285   9.464
 2909POPC   PO438628  25.256  11.327   9.164
 2909POPC   GL138629  25.287  11.272   8.864
 2909POPC   GL238630  25.299  11.446   8.864
 2909POPC   C1A38631  25.295  11.323   8.564
 2909POPC   D2A38632  25.307  11.347   8.264
 2909POPC   C3A38633  25.263  11.294   7.964
 2909POPC   C4A38634  25.270  11.268   7.664
 2909POPC   C1B38635  25.357  11.575   8.564
 2909POPC   C2B38636  25.365  11.513   8.264
 2909POPC   C3B38637  25.351  11.552   7.964
 2909POPC   C4B38638  25.356  11.590   7.664
 2910POPC   NC338639   0.434  44.636   9.464
 2910POPC   PO438640   0.390  44.683   9.164
 2910POPC   GL138641   0.474  44.664   8.864
 2910POPC   GL238642   0.393  44.495   8.864
 2910POPC   C1A38643   0.427  44.670   8.564
 2910POPC   D2A38644   0.473  44.665   8.264
 2910POPC   C3A38645   0.428  44.631   7.964
 2910POPC   C4A38646   0.468  44.621   7.664
 2910POPC   C1B38647   0.429  44.439   8.564
 2910POPC   C2B38648   0.364  44.394   8.264
 2910POPC   C3B38649   0.345  44.372   7.964
 2910POPC   C4B38650   0.354  44.417   7.664
 2911POPC   NC338651  33.810  29.923   9.464
 2911POPC   PO438652  33.750  29.885   9.164
 2911POPC   GL138653  33.760  29.893   8.864
 2911POPC   GL238654  33.841  29.829   8.864
 2911POPC   C1A38655  33.762  29.908   8.564
 2911POPC   D2A38656  33.791  29.920   8.264
 2911POPC   C3A38657  33.768  29.959   7.964
 2911POPC   C4A38658  33.790  29.960   7.664
 2911POPC   C1B38659  33.808  29.715   8.564
 2911POPC   C2B38660  33.865  29.650   8.264
 2911POPC   C3B38661  33.802  29.665   7.964
 2911POPC   C4B38662  33.797  29.632   7.664
 2912POPC   NC338663  28.343   5.857   9.464
 2912POPC   PO438664  28.388   5.892   9.164
 2912POPC   GL138665  28.343   5.847   8.864
 2912POPC   GL238666  28.364   6.024   8.864
 2912POPC   C1A38667  28.362   5.848   8.564
 2912POPC   D2A38668  28.358   5.891   8.264
 2912POPC   C3A38669  28.403   5.852   7.964
 2912POPC   C4A38670  28.359   5.896   7.664
 2912POPC   C1B38671  28.275   6.137   8.564
 2912POPC   C2B38672  28.270   6.077   8.264
 2912POPC   C3B38673  28.320   6.105   7.964
 2912POPC   C4B38674  28.298   6.144   7.664
 2913POPC   NC338675  18.262  37.660   9.464
 2913POPC   PO438676  18.265  37.674   9.164
 2913POPC   GL138677  18.294  37.717   8.864
 2913POPC   GL238678  18.452  37.739   8.864
 2913POPC   C1A38679  18.257  37.692   8.564
 2913POPC   D2A38680  18.323  37.716   8.264
 2913POPC   C3A38681  18.280  37.630   7.964
 2913POPC   C4A38682  18.279  37.681   7.664
 2913POPC   C1B38683  18.551  37.685   8.564
 2913POPC   C2B38684  18.547  37.765   8.264
 2913POPC   C3B38685  18.498  37.681   7.964
 2913POPC   C4B38686  18.543  37.757   7.664
 2914POPC   NC338687  22.182  44.682   9.464
 2914POPC   PO438688  22.159  44.690   9.164
 2914POPC   GL138689  22.201  44.688   8.864
 2914POPC   GL238690  22.110  44.767   8.864
 2914POPC   C1A38691  22.178  44.659   8.564
 2914POPC   D2A38692  22.158  44.680   8.264
 2914POPC   C3A38693  22.181  44.709   7.964
 2914POPC   C4A38694  22.138  44.660   7.664
 2914POPC   C1B38695  22.029  44.873   8.564
 2914POPC   C2B38696  22.085  44.906   8.264
 2914POPC   C3B38697  22.084  44.885   7.964
 2914POPC   C4B38698  22.049  44.914   7.664
 2915POPC   NC338699  29.194  43.886   9.464
 2915POPC   PO438700  29.156  43.879   9.164
 2915POPC   GL138701  29.164  43.918   8.864
 2915POPC   GL238702  29.046  43.969   8.864
 2915POPC   C1A38703  29.150  43.901   8.564
 2915POPC   D2A38704  29.154  43.912   8.264
 2915POPC   C3A38705  29.099  43.887   7.964
 2915POPC   C4A38706  29.176  43.872   7.664
 2915POPC   C1B38707  29.011  44.080   8.564
 2915POPC   C2B38708  28.978  44.115   8.264
 2915POPC   C3B38709  29.018  44.113   7.964
 2915POPC   C4B38710  29.039  44.090   7.664
 2916POPC   NC338711  43.116  26.024   9.464
 2916POPC   PO438712  43.102  26.036   9.164
 2916POPC   GL138713  43.142  26.042   8.864
 2916POPC   GL238714  43.181  26.158   8.864
 2916POPC   C1A38715  43.071  26.091   8.564
 2916POPC   D2A38716  43.068  26.025   8.264
 2916POPC   C3A38717  43.158  26.007   7.964
 2916POPC   C4A38718  43.132  26.067   7.664
 2916POPC   C1B38719  43.250  26.184   8.564
 2916POPC   C2B38720  43.308  26.274   8.264
 2916POPC   C3B38721  43.229  26.208   7.964
 2916POPC   C4B38722  43.272  26.185   7.664
 2917POPC   NC338723   2.716  38.451   9.464
 2917POPC   PO438724   2.731  38.430   9.164
 2917POPC   GL138725   2.755  38.438   8.864
 2917POPC   GL238726   2.926  38.441   8.864
 2917POPC   C1A38727   2.791  38.496   8.564
 2917POPC   D2A38728   2.749  38.409   8.264
 2917POPC   C3A38729   2.763  38.468   7.964
 2917POPC   C4A38730   2.745  38.491   7.664
 2917POPC   C1B38731   2.967  38.468   8.564
 2917POPC   C2B38732   2.976  38.478   8.264
 2917POPC   C3B38733   2.986  38.411   7.964
 2917POPC   C4B38734   3.037  38.463   7.664
 2918POPC   NC338735  34.563  32.236   9.464
 2918POPC   PO438736  34.561  32.245   9.164
 2918POPC   GL138737  34.597  32.216   8.864
 2918POPC   GL238738  34.605  32.121   8.864
 2918POPC   C1A38739  34.549  32.246   8.564
 2918POPC   D2A38740  34.623  32.252   8.264
 2918POPC   C3A38741  34.624  32.297   7.964
 2918POPC   C4A38742  34.527  32.257   7.664
 2918POPC   C1B38743  34.594  31.984   8.564
 2918POPC   C2B38744  34.582  32.045   8.264
 2918POPC   C3B38745  34.512  32.048   7.964
 2918POPC   C4B38746  34.561  31.959   7.664
 2919POPC   NC338747  20.655   8.923   9.464
 2919POPC   PO438748  20.585   8.942   9.164
 2919POPC   GL138749  20.657   8.951   8.864
 2919POPC   GL238750  20.679   9.077   8.864
 2919POPC   C1A38751  20.567   9.005   8.564
 2919POPC   D2A38752  20.592   9.008   8.264
 2919POPC   C3A38753  20.647   8.987   7.964
 2919POPC   C4A38754  20.632   8.954   7.664
 2919POPC   C1B38755  20.785   9.114   8.564
 2919POPC   C2B38756  20.818   9.112   8.264
 2919POPC   C3B38757  20.850   9.119   7.964
 2919POPC   C4B38758  20.821   9.094   7.664
 2920POPC   NC338759  11.305   3.539   9.464
 2920POPC   PO438760  11.288   3.573   9.164
 2920POPC   GL138761  11.251   3.506   8.864
 2920POPC   GL238762  11.402   3.657   8.864
 2920POPC   C1A38763  11.346   3.584   8.564
 2920POPC   D2A38764  11.287   3.525   8.264
 2920POPC   C3A38765  11.294   3.555   7.964
 2920POPC   C4A38766  11.294   3.498   7.664
 2920POPC   C1B38767  11.467   3.760   8.564
 2920POPC   C2B38768  11.451   3.735   8.264
 2920POPC   C3B38769  11.486   3.701   7.964
 2920POPC   C4B38770  11.438   3.742   7.664
 2921POPC   NC338771  34.582   5.076   9.464
 2921POPC   PO438772  34.613   5.135   9.164
 2921POPC   GL138773  34.552   5.063   8.864
 2921POPC   GL238774  34.644   5.084   8.864
 2921POPC   C1A38775  34.602   5.108   8.564
 2921POPC   D2A38776  34.583   5.109   8.264
 2921POPC   C3A38777  34.616   5.066   7.964
 2921POPC   C4A38778  34.598   5.065   7.664
 2921POPC   C1B38779  34.847   5.037   8.564
 2921POPC   C2B38780  34.839   4.993   8.264
 2921POPC   C3B38781  34.846   5.010   7.964
 2921POPC   C4B38782  34.763   4.987   7.664
 2922POPC   NC338783  19.865  12.116   9.464
 2922POPC   PO438784  19.815  12.068   9.164
 2922POPC   GL138785  19.854  12.108   8.864
 2922POPC   GL238786  19.771  12.155   8.864
 2922POPC   C1A38787  19.797  12.104   8.564
 2922POPC   D2A38788  19.786  12.075   8.264
 2922POPC   C3A38789  19.868  12.086   7.964
 2922POPC   C4A38790  19.793  12.037   7.664
 2922POPC   C1B38791  19.797  12.269   8.564
 2922POPC   C2B38792  19.726  12.284   8.264
 2922POPC   C3B38793  19.750  12.301   7.964
 2922POPC   C4B38794  19.792  12.314   7.664
 2923POPC   NC338795   2.791   5.907   9.464
 2923POPC   PO438796   2.748   5.909   9.164
 2923POPC   GL138797   2.799   5.903   8.864
 2923POPC   GL238798   2.781   5.774   8.864
 2923POPC   C1A38799   2.755   5.915   8.564
 2923POPC   D2A38800   2.739   5.900   8.264
 2923POPC   C3A38801   2.795   5.851   7.964
 2923POPC   C4A38802   2.789   5.824   7.664
 2923POPC   C1B38803   2.733   5.608   8.564
 2923POPC   C2B38804   2.739   5.614   8.264
 2923POPC   C3B38805   2.790   5.650   7.964
 2923POPC   C4B38806   2.740   5.660   7.664
 2924POPC   NC338807  31.449  29.966   9.464
 2924POPC   PO438808  31.484  29.960   9.164
 2924POPC   GL138809  31.455  29.946   8.864
 2924POPC   GL238810  31.452  29.826   8.864
 2924POPC   C1A38811  31.445  29.879   8.564
 2924POPC   D2A38812  31.500  29.884   8.264
 2924POPC   C3A38813  31.517  29.900   7.964
 2924POPC   C4A38814  31.492  29.966   7.664
 2924POPC   C1B38815  31.495  29.683   8.564
 2924POPC   C2B38816  31.462  29.698   8.264
 2924POPC   C3B38817  31.458  29.648   7.964
 2924POPC   C4B38818  31.412  29.625   7.664
 2925POPC   NC338819  27.569  12.879   9.464
 2925POPC   PO438820  27.594  12.886   9.164
 2925POPC   GL138821  27.625  12.862   8.864
 2925POPC   GL238822  27.458  12.805   8.864
 2925POPC   C1A38823  27.569  12.806   8.564
 2925POPC   D2A38824  27.618  12.826   8.264
 2925POPC   C3A38825  27.545  12.896   7.964
 2925POPC   C4A38826  27.546  12.821   7.664
 2925POPC   C1B38827  27.379  12.862   8.564
 2925POPC   C2B38828  27.347  12.788   8.264
 2925POPC   C3B38829  27.324  12.778   7.964
 2925POPC   C4B38830  27.324  12.815   7.664
 2926POPC   NC338831  42.319  44.679   9.464
 2926POPC   PO438832  42.371  44.646   9.164
 2926POPC   GL138833  42.375  44.646   8.864
 2926POPC   GL238834  42.292  44.603   8.864
 2926POPC   C1A38835  42.296  44.697   8.564
 2926POPC   D2A38836  42.345  44.661   8.264
 2926POPC   C3A38837  42.290  44.661   7.964
 2926POPC   C4A38838  42.311  44.613   7.664
 2926POPC   C1B38839  42.151  44.474   8.564
 2926POPC   C2B38840  42.200  44.522   8.264
 2926POPC   C3B38841  42.133  44.471   7.964
 2926POPC   C4B38842  42.212  44.446   7.664
 2927POPC   NC338843  29.154  26.082   9.464
 2927POPC   PO438844  29.139  26.021   9.164
 2927POPC   GL138845  29.190  26.078   8.864
 2927POPC   GL238846  29.005  26.062   8.864
 2927POPC   C1A38847  29.140  26.054   8.564
 2927POPC   D2A38848  29.149  26.049   8.264
 2927POPC   C3A38849  29.192  26.045   7.964
 2927POPC   C4A38850  29.103  26.071   7.664
 2927POPC   C1B38851  28.900  26.150   8.564
 2927POPC   C2B38852  28.953  26.085   8.264
 2927POPC   C3B38853  28.929  26.087   7.964
 2927POPC   C4B38854  28.873  26.081   7.664
 2928POPC   NC338855  42.328  29.139   9.464
 2928POPC   PO438856  42.314  29.156   9.164
 2928POPC   GL138857  42.301  29.176   8.864
 2928POPC   GL238858  42.392  29.052   8.864
 2928POPC   C1A38859  42.287  29.156   8.564
 2928POPC   D2A38860  42.362  29.194   8.264
 2928POPC   C3A38861  42.286  29.122   7.964
 2928POPC   C4A38862  42.309  29.169   7.664
 2928POPC   C1B38863  42.488  28.955   8.564
 2928POPC   C2B38864  42.559  28.978   8.264
 2928POPC   C3B38865  42.571  29.007   7.964
 2928POPC   C4B38866  42.584  29.033   7.664
 2929POPC   NC338867  15.955  14.395   9.464
 2929POPC   PO438868  15.940  14.371   9.164
 2929POPC   GL138869  15.983  14.402   8.864
 2929POPC   GL238870  15.900  14.536   8.864
 2929POPC   C1A38871  15.953  14.419   8.564
 2929POPC   D2A38872  15.931  14.425   8.264
 2929POPC   C3A38873  15.996  14.413   7.964
 2929POPC   C4A38874  15.910  14.443   7.664
 2929POPC   C1B38875  15.835  14.644   8.564
 2929POPC   C2B38876  15.844  14.582   8.264
 2929POPC   C3B38877  15.808  14.662   7.964
 2929POPC   C4B38878  15.855  14.611   7.664
 2930POPC   NC338879  32.254  34.544   9.464
 2930POPC   PO438880  32.230  34.609   9.164
 2930POPC   GL138881  32.281  34.611   8.864
 2930POPC   GL238882  32.315  34.698   8.864
 2930POPC   C1A38883  32.239  34.567   8.564
 2930POPC   D2A38884  32.208  34.539   8.264
 2930POPC   C3A38885  32.288  34.588   7.964
 2930POPC   C4A38886  32.260  34.538   7.664
 2930POPC   C1B38887  32.318  34.829   8.564
 2930POPC   C2B38888  32.269  34.796   8.264
 2930POPC   C3B38889  32.335  34.780   7.964
 2930POPC   C4B38890  32.340  34.855   7.664
 2931POPC   NC338891   3.582  39.238   9.464
 2931POPC   PO438892   3.571  39.189   9.164
 2931POPC   GL138893   3.518  39.225   8.864
 2931POPC   GL238894   3.483  39.128   8.864
 2931POPC   C1A38895   3.496  39.189   8.564
 2931POPC   D2A38896   3.501  39.209   8.264
 2931POPC   C3A38897   3.543  39.268   7.964
 2931POPC   C4A38898   3.566  39.256   7.664
 2931POPC   C1B38899   3.475  38.992   8.564
 2931POPC   C2B38900   3.423  39.005   8.264
 2931POPC   C3B38901   3.476  39.006   7.964
 2931POPC   C4B38902   3.453  39.049   7.664
 2932POPC   NC338903   8.991  30.737   9.464
 2932POPC   PO438904   8.993  30.670   9.164
 2932POPC   GL138905   8.976  30.732   8.864
 2932POPC   GL238906   8.819  30.696   8.864
 2932POPC   C1A38907   8.944  30.691   8.564
 2932POPC   D2A38908   8.927  30.725   8.264
 2932POPC   C3A38909   9.001  30.655   7.964
 2932POPC   C4A38910   9.022  30.665   7.664
 2932POPC   C1B38911   8.718  30.757   8.564
 2932POPC   C2B38912   8.743  30.781   8.264
 2932POPC   C3B38913   8.737  30.797   7.964
 2932POPC   C4B38914   8.743  30.819   7.664
 2933POPC   NC338915  26.036   5.055   9.464
 2933POPC   PO438916  26.013   5.083   9.164
 2933POPC   GL138917  26.083   5.139   8.864
 2933POPC   GL238918  25.894   5.086   8.864
 2933POPC   C1A38919  25.994   5.058   8.564
 2933POPC   D2A38920  26.040   5.140   8.264
 2933POPC   C3A38921  26.047   5.062   7.964
 2933POPC   C4A38922  26.051   5.098   7.664
 2933POPC   C1B38923  25.839   5.048   8.564
 2933POPC   C2B38924  25.802   5.061   8.264
 2933POPC   C3B38925  25.748   5.132   7.964
 2933POPC   C4B38926  25.758   5.053   7.664
 2934POPC   NC338927  21.415  25.244   9.464
 2934POPC   PO438928  21.367  25.299   9.164
 2934POPC   GL138929  21.349  25.286   8.864
 2934POPC   GL238930  21.316  25.411   8.864
 2934POPC   C1A38931  21.350  25.301   8.564
 2934POPC   D2A38932  21.342  25.248   8.264
 2934POPC   C3A38933  21.376  25.258   7.964
 2934POPC   C4A38934  21.337  25.273   7.664
 2934POPC   C1B38935  21.284  25.470   8.564
 2934POPC   C2B38936  21.216  25.436   8.264
 2934POPC   C3B38937  21.299  25.471   7.964
 2934POPC   C4B38938  21.246  25.453   7.664
 2935POPC   NC338939   8.222  34.573   9.464
 2935POPC   PO438940   8.178  34.586   9.164
 2935POPC   GL138941   8.155  34.598   8.864
 2935POPC   GL238942   8.028  34.535   8.864
 2935POPC   C1A38943   8.225  34.565   8.564
 2935POPC   D2A38944   8.190  34.531   8.264
 2935POPC   C3A38945   8.180  34.600   7.964
 2935POPC   C4A38946   8.232  34.564   7.664
 2935POPC   C1B38947   7.993  34.603   8.564
 2935POPC   C2B38948   7.969  34.552   8.264
 2935POPC   C3B38949   7.959  34.532   7.964
 2935POPC   C4B38950   7.938  34.554   7.664
 2936POPC   NC338951  14.368  25.280   9.464
 2936POPC   PO438952  14.389  25.226   9.164
 2936POPC   GL138953  14.361  25.253   8.864
 2936POPC   GL238954  14.457  25.149   8.864
 2936POPC   C1A38955  14.370  25.291   8.564
 2936POPC   D2A38956  14.369  25.221   8.264
 2936POPC   C3A38957  14.423  25.254   7.964
 2936POPC   C4A38958  14.394  25.244   7.664
 2936POPC   C1B38959  14.648  25.083   8.564
 2936POPC   C2B38960  14.624  25.069   8.264
 2936POPC   C3B38961  14.613  25.136   7.964
 2936POPC   C4B38962  14.621  25.127   7.664
 2937POPC   NC338963  12.808  15.970   9.464
 2937POPC   PO438964  12.809  15.948   9.164
 2937POPC   GL138965  12.847  15.996   8.864
 2937POPC   GL238966  12.996  15.982   8.864
 2937POPC   C1A38967  12.823  15.935   8.564
 2937POPC   D2A38968  12.865  15.941   8.264
 2937POPC   C3A38969  12.894  15.985   7.964
 2937POPC   C4A38970  12.858  15.990   7.664
 2937POPC   C1B38971  13.116  15.991   8.564
 2937POPC   C2B38972  13.052  15.983   8.264
 2937POPC   C3B38973  13.074  16.033   7.964
 2937POPC   C4B38974  13.079  16.001   7.664
 2938POPC   NC338975  22.184  20.654   9.464
 2938POPC   PO438976  22.132  20.622   9.164
 2938POPC   GL138977  22.119  20.654   8.864
 2938POPC   GL238978  22.180  20.771   8.864
 2938POPC   C1A38979  22.177  20.641   8.564
 2938POPC   D2A38980  22.114  20.653   8.264
 2938POPC   C3A38981  22.180  20.633   7.964
 2938POPC   C4A38982  22.174  20.603   7.664
 2938POPC   C1B38983  22.178  20.822   8.564
 2938POPC   C2B38984  22.256  20.810   8.264
 2938POPC   C3B38985  22.211  20.864   7.964
 2938POPC   C4B38986  22.232  20.901   7.664
 2939POPC   NC338987   4.330   3.495   9.464
 2939POPC   PO438988   4.337   3.550   9.164
 2939POPC   GL138989   4.363   3.566   8.864
 2939POPC   GL238990   4.368   3.428   8.864
 2939POPC   C1A38991   4.321   3.505   8.564
 2939POPC   D2A38992   4.270   3.516   8.264
 2939POPC   C3A38993   4.296   3.581   7.964
 2939POPC   C4A38994   4.326   3.582   7.664
 2939POPC   C1B38995   4.490   3.390   8.564
 2939POPC   C2B38996   4.527   3.362   8.264
 2939POPC   C3B38997   4.546   3.384   7.964
 2939POPC   C4B38998   4.534   3.353   7.664
 2940POPC   NC338999  10.513  38.501   9.464
 2940POPC   PO439000  10.564  38.483   9.164
 2940POPC   GL139001  10.475  38.461   8.864
 2940POPC   GL239002  10.475  38.578   8.864
 2940POPC   C1A39003  10.572  38.429   8.564
 2940POPC   D2A39004  10.548  38.477   8.264
 2940POPC   C3A39005  10.560  38.409   7.964
 2940POPC   C4A39006  10.508  38.446   7.664
 2940POPC   C1B39007  10.500  38.690   8.564
 2940POPC   C2B39008  10.496  38.678   8.264
 2940POPC   C3B39009  10.424  38.720   7.964
 2940POPC   C4B39010  10.500  38.717   7.664
 2941POPC   NC339011   4.338   1.257   9.464
 2941POPC   PO439012   4.364   1.208   9.164
 2941POPC   GL139013   4.347   1.209   8.864
 2941POPC   GL239014   4.302   1.364   8.864
 2941POPC   C1A39015   4.267   1.164   8.564
 2941POPC   D2A39016   4.291   1.250   8.264
 2941POPC   C3A39017   4.294   1.194   7.964
 2941POPC   C4A39018   4.365   1.217   7.664
 2941POPC   C1B39019   4.242   1.485   8.564
 2941POPC   C2B39020   4.266   1.459   8.264
 2941POPC   C3B39021   4.294   1.489   7.964
 2941POPC   C4B39022   4.279   1.438   7.664
 2942POPC   NC339023  34.604   3.537   9.464
 2942POPC   PO439024  34.582   3.519   9.164
 2942POPC   GL139025  34.558   3.580   8.864
 2942POPC   GL239026  34.528   3.601   8.864
 2942POPC   C1A39027  34.622   3.561   8.564
 2942POPC   D2A39028  34.552   3.510   8.264
 2942POPC   C3A39029  34.556   3.511   7.964
 2942POPC   C4A39030  34.583   3.589   7.664
 2942POPC   C1B39031  34.415   3.744   8.564
 2942POPC   C2B39032  34.411   3.717   8.264
 2942POPC   C3B39033  34.366   3.755   7.964
 2942POPC   C4B39034  34.453   3.758   7.664
 2943POPC   NC339035  24.472   7.467   9.464
 2943POPC   PO439036  24.452   7.392   9.164
 2943POPC   GL139037  24.534   7.461   8.864
 2943POPC   GL239038  24.616   7.450   8.864
 2943POPC   C1A39039  24.454   7.431   8.564
 2943POPC   D2A39040  24.491   7.430   8.264
 2943POPC   C3A39041  24.508   7.406   7.964
 2943POPC   C4A39042  24.444   7.422   7.664
 2943POPC   C1B39043  24.717   7.345   8.564
 2943POPC   C2B39044  24.716   7.416   8.264
 2943POPC   C3B39045  24.697   7.355   7.964
 2943POPC   C4B39046  24.731   7.362   7.664
 2944POPC   NC339047  25.315  21.423   9.464
 2944POPC   PO439048  25.263  21.379   9.164
 2944POPC   GL139049  25.282  21.338   8.864
 2944POPC   GL239050  25.341  21.503   8.864
 2944POPC   C1A39051  25.277  21.428   8.564
 2944POPC   D2A39052  25.288  21.361   8.264
 2944POPC   C3A39053  25.237  21.414   7.964
 2944POPC   C4A39054  25.291  21.430   7.664
 2944POPC   C1B39055  25.445  21.560   8.564
 2944POPC   C2B39056  25.437  21.552   8.264
 2944POPC   C3B39057  25.509  21.489   7.964
 2944POPC   C4B39058  25.460  21.544   7.664
 2945POPC   NC339059  36.169  43.890   9.464
 2945POPC   PO439060  36.096  43.891   9.164
 2945POPC   GL139061  36.102  43.897   8.864
 2945POPC   GL239062  36.009  43.890   8.864
 2945POPC   C1A39063  36.117  43.865   8.564
 2945POPC   D2A39064  36.078  43.847   8.264
 2945POPC   C3A39065  36.082  43.883   7.964
 2945POPC   C4A39066  36.108  43.873   7.664
 2945POPC   C1B39067  35.879  43.805   8.564
 2945POPC   C2B39068  35.928  43.843   8.264
 2945POPC   C3B39069  35.854  43.858   7.964
 2945POPC   C4B39070  35.859  43.856   7.664
 2946POPC   NC339071  22.906  39.208   9.464
 2946POPC   PO439072  22.953  39.266   9.164
 2946POPC   GL139073  22.976  39.264   8.864
 2946POPC   GL239074  22.859  39.232   8.864
 2946POPC   C1A39075  22.901  39.281   8.564
 2946POPC   D2A39076  22.986  39.205   8.264
 2946POPC   C3A39077  22.909  39.217   7.964
 2946POPC   C4A39078  22.967  39.223   7.664
 2946POPC   C1B39079  22.670  39.301   8.564
 2946POPC   C2B39080  22.682  39.304   8.264
 2946POPC   C3B39081  22.733  39.344   7.964
 2946POPC   C4B39082  22.700  39.284   7.664
 2947POPC   NC339083   2.753  36.171   9.464
 2947POPC   PO439084   2.797  36.146   9.164
 2947POPC   GL139085   2.815  36.139   8.864
 2947POPC   GL239086   2.671  36.226   8.864
 2947POPC   C1A39087   2.737  36.155   8.564
 2947POPC   D2A39088   2.808  36.159   8.264
 2947POPC   C3A39089   2.796  36.110   7.964
 2947POPC   C4A39090   2.786  36.156   7.664
 2947POPC   C1B39091   2.607  36.277   8.564
 2947POPC   C2B39092   2.570  36.345   8.264
 2947POPC   C3B39093   2.566  36.352   7.964
 2947POPC   C4B39094   2.603  36.307   7.664
 2948POPC   NC339095  32.268   2.796   9.464
 2948POPC   PO439096  32.237   2.726   9.164
 2948POPC   GL139097  32.268   2.725   8.864
 2948POPC   GL239098  32.288   2.657   8.864
 2948POPC   C1A39099  32.198   2.790   8.564
 2948POPC   D2A39100  32.202   2.752   8.264
 2948POPC   C3A39101  32.212   2.745   7.964
 2948POPC   C4A39102  32.219   2.785   7.664
 2948POPC   C1B39103  32.341   2.518   8.564
 2948POPC   C2B39104  32.290   2.503   8.264
 2948POPC   C3B39105  32.272   2.563   7.964
 2948POPC   C4B39106  32.274   2.475   7.664
 2949POPC   NC339107  43.100  44.654   9.464
 2949POPC   PO439108  43.083  44.626   9.164
 2949POPC   GL139109  43.104  44.672   8.864
 2949POPC   GL239110  43.089  44.548   8.864
 2949POPC   C1A39111  43.075  44.697   8.564
 2949POPC   D2A39112  43.112  44.683   8.264
 2949POPC   C3A39113  43.080  44.704   7.964
 2949POPC   C4A39114  43.160  44.704   7.664
 2949POPC   C1B39115  43.120  44.397   8.564
 2949POPC   C2B39116  43.156  44.426   8.264
 2949POPC   C3B39117  43.149  44.381   7.964
 2949POPC   C4B39118  43.131  44.448   7.664
 2950POPC   NC339119  41.574  31.473   9.464
 2950POPC   PO439120  41.608  31.521   9.164
 2950POPC   GL139121  41.555  31.436   8.864
 2950POPC   GL239122  41.617  31.380   8.864
 2950POPC   C1A39123  41.590  31.424   8.564
 2950POPC   D2A39124  41.556  31.464   8.264
 2950POPC   C3A39125  41.608  31.472   7.964
 2950POPC   C4A39126  41.562  31.424   7.664
 2950POPC   C1B39127  41.738  31.279   8.564
 2950POPC   C2B39128  41.720  31.291   8.264
 2950POPC   C3B39129  41.785  31.289   7.964
 2950POPC   C4B39130  41.710  31.328   7.664
 2951POPC   NC339131  23.726  39.187   9.464
 2951POPC   PO439132  23.710  39.205   9.164
 2951POPC   GL139133  23.707  39.227   8.864
 2951POPC   GL239134  23.645  39.276   8.864
 2951POPC   C1A39135  23.743  39.223   8.564
 2951POPC   D2A39136  23.719  39.201   8.264
 2951POPC   C3A39137  23.726  39.205   7.964
 2951POPC   C4A39138  23.712  39.212   7.664
 2951POPC   C1B39139  23.464  39.359   8.564
 2951POPC   C2B39140  23.505  39.267   8.264
 2951POPC   C3B39141  23.519  39.340   7.964
 2951POPC   C4B39142  23.492  39.352   7.664
 2952POPC   NC339143  27.633  33.050   9.464
 2952POPC   PO439144  27.612  33.070   9.164
 2952POPC   GL139145  27.633  33.032   8.864
 2952POPC   GL239146  27.638  32.920   8.864
 2952POPC   C1A39147  27.581  33.051   8.564
 2952POPC   D2A39148  27.579  33.070   8.264
 2952POPC   C3A39149  27.554  32.993   7.964
 2952POPC   C4A39150  27.550  33.057   7.664
 2952POPC   C1B39151  27.781  32.896   8.564
 2952POPC   C2B39152  27.807  32.873   8.264
 2952POPC   C3B39153  27.770  32.907   7.964
 2952POPC   C4B39154  27.820  32.890   7.664
 2953POPC   NC339155   9.016  36.167   9.464
 2953POPC   PO439156   8.975  36.130   9.164
 2953POPC   GL139157   9.010  36.083   8.864
 2953POPC   GL239158   9.003  36.216   8.864
 2953POPC   C1A39159   8.955  36.165   8.564
 2953POPC   D2A39160   8.928  36.123   8.264
 2953POPC   C3A39161   9.007  36.146   7.964
 2953POPC   C4A39162   8.961  36.158   7.664
 2953POPC   C1B39163   9.171  36.296   8.564
 2953POPC   C2B39164   9.164  36.284   8.264
 2953POPC   C3B39165   9.094  36.281   7.964
 2953POPC   C4B39166   9.142  36.339   7.664
 2954POPC   NC339167  43.868  15.161   9.464
 2954POPC   PO439168  43.903  15.205   9.164
 2954POPC   GL139169  43.896  15.225   8.864
 2954POPC   GL239170  43.906  15.064   8.864
 2954POPC   C1A39171  43.864  15.131   8.564
 2954POPC   D2A39172  43.890  15.202   8.264
 2954POPC   C3A39173  43.918  15.176   7.964
 2954POPC   C4A39174  43.853  15.224   7.664
 2954POPC   C1B39175  43.838  14.912   8.564
 2954POPC   C2B39176  43.869  14.923   8.264
 2954POPC   C3B39177  43.919  14.895   7.964
 2954POPC   C4B39178  43.841  14.976   7.664
 2955POPC   NC339179   5.103   6.673   9.464
 2955POPC   PO439180   5.093   6.693   9.164
 2955POPC   GL139181   5.080   6.661   8.864
 2955POPC   GL239182   5.172   6.675   8.864
 2955POPC   C1A39183   5.104   6.630   8.564
 2955POPC   D2A39184   5.094   6.673   8.264
 2955POPC   C3A39185   5.134   6.655   7.964
 2955POPC   C4A39186   5.094   6.628   7.664
 2955POPC   C1B39187   5.328   6.628   8.564
 2955POPC   C2B39188   5.386   6.644   8.264
 2955POPC   C3B39189   5.336   6.678   7.964
 2955POPC   C4B39190   5.358   6.695   7.664
 2956POPC   NC339191   8.245   5.913   9.464
 2956POPC   PO439192   8.177   5.870   9.164
 2956POPC   GL139193   8.219   5.829   8.864
 2956POPC   GL239194   8.186   5.780   8.864
 2956POPC   C1A39195   8.211   5.864   8.564
 2956POPC   D2A39196   8.157   5.850   8.264
 2956POPC   C3A39197   8.245   5.883   7.964
 2956POPC   C4A39198   8.194   5.897   7.664
 2956POPC   C1B39199   8.169   5.598   8.564
 2956POPC   C2B39200   8.203   5.611   8.264
 2956POPC   C3B39201   8.170   5.623   7.964
 2956POPC   C4B39202   8.173   5.629   7.664
 2957POPC   NC339203  23.749  19.032   9.464
 2957POPC   PO439204  23.694  19.015   9.164
 2957POPC   GL139205  23.722  19.052   8.864
 2957POPC   GL239206  23.615  18.972   8.864
 2957POPC   C1A39207  23.753  19.027   8.564
 2957POPC   D2A39208  23.704  19.101   8.264
 2957POPC   C3A39209  23.678  19.022   7.964
 2957POPC   C4A39210  23.675  19.040   7.664
 2957POPC   C1B39211  23.520  18.938   8.564
 2957POPC   C2B39212  23.470  18.917   8.264
 2957POPC   C3B39213  23.550  18.877   7.964
 2957POPC   C4B39214  23.533  18.901   7.664
 2958POPC   NC339215   6.626   7.465   9.464
 2958POPC   PO439216   6.669   7.395   9.164
 2958POPC   GL139217   6.675   7.410   8.864
 2958POPC   GL239218   6.548   7.516   8.864
 2958POPC   C1A39219   6.595   7.464   8.564
 2958POPC   D2A39220   6.660   7.449   8.264
 2958POPC   C3A39221   6.656   7.412   7.964
 2958POPC   C4A39222   6.635   7.373   7.664
 2958POPC   C1B39223   6.441   7.610   8.564
 2958POPC   C2B39224   6.408   7.568   8.264
 2958POPC   C3B39225   6.467   7.569   7.964
 2958POPC   C4B39226   6.489   7.589   7.664
 2959POPC   NC339227  41.599  29.912   9.464
 2959POPC   PO439228  41.516  29.929   9.164
 2959POPC   GL139229  41.544  29.937   8.864
 2959POPC   GL239230  41.523  29.766   8.864
 2959POPC   C1A39231  41.604  29.876   8.564
 2959POPC   D2A39232  41.518  29.912   8.264
 2959POPC   C3A39233  41.556  29.941   7.964
 2959POPC   C4A39234  41.573  29.932   7.664
 2959POPC   C1B39235  41.572  29.714   8.564
 2959POPC   C2B39236  41.584  29.719   8.264
 2959POPC   C3B39237  41.531  29.646   7.964
 2959POPC   C4B39238  41.523  29.678   7.664
 2960POPC   NC339239  36.864  26.796   9.464
 2960POPC   PO439240  36.869  26.846   9.164
 2960POPC   GL139241  36.945  26.810   8.864
 2960POPC   GL239242  36.985  26.872   8.864
 2960POPC   C1A39243  36.928  26.854   8.564
 2960POPC   D2A39244  36.863  26.835   8.264
 2960POPC   C3A39245  36.891  26.866   7.964
 2960POPC   C4A39246  36.890  26.836   7.664
 2960POPC   C1B39247  37.045  26.978   8.564
 2960POPC   C2B39248  37.059  26.977   8.264
 2960POPC   C3B39249  37.097  27.034   7.964
 2960POPC   C4B39250  37.083  27.006   7.664
 2961POPC   NC339251  22.951   0.441   9.464
 2961POPC   PO439252  22.963   0.456   9.164
 2961POPC   GL139253  22.980   0.394   8.864
 2961POPC   GL239254  22.980   0.365   8.864
 2961POPC   C1A39255  22.905   0.410   8.564
 2961POPC   D2A39256  22.942   0.411   8.264
 2961POPC   C3A39257  22.941   0.413   7.964
 2961POPC   C4A39258  22.930   0.418   7.664
 2961POPC   C1B39259  23.107   0.292   8.564
 2961POPC   C2B39260  23.073   0.242   8.264
 2961POPC   C3B39261  23.160   0.214   7.964
 2961POPC   C4B39262  23.121   0.284   7.664
 2962POPC   NC339263  28.328  24.481   9.464
 2962POPC   PO439264  28.322  24.505   9.164
 2962POPC   GL139265  28.416  24.510   8.864
 2962POPC   GL239266  28.454  24.397   8.864
 2962POPC   C1A39267  28.396  24.515   8.564
 2962POPC   D2A39268  28.380  24.527   8.264
 2962POPC   C3A39269  28.331  24.460   7.964
 2962POPC   C4A39270  28.326  24.462   7.664
 2962POPC   C1B39271  28.422  24.247   8.564
 2962POPC   C2B39272  28.476  24.293   8.264
 2962POPC   C3B39273  28.450  24.235   7.964
 2962POPC   C4B39274  28.474  24.257   7.664
 2963POPC   NC339275  29.964   2.783   9.464
 2963POPC   PO439276  29.914   2.734   9.164
 2963POPC   GL139277  29.901   2.769   8.864
 2963POPC   GL239278  29.851   2.659   8.864
 2963POPC   C1A39279  29.968   2.746   8.564
 2963POPC   D2A39280  29.911   2.789   8.264
 2963POPC   C3A39281  29.923   2.759   7.964
 2963POPC   C4A39282  29.935   2.784   7.664
 2963POPC   C1B39283  29.809   2.530   8.564
 2963POPC   C2B39284  29.813   2.576   8.264
 2963POPC   C3B39285  29.829   2.501   7.964
 2963POPC   C4B39286  29.846   2.501   7.664
 2964POPC   NC339287   8.945  22.904   9.464
 2964POPC   PO439288   8.962  22.918   9.164
 2964POPC   GL139289   9.015  22.895   8.864
 2964POPC   GL239290   8.885  22.843   8.864
 2964POPC   C1A39291   8.972  22.907   8.564
 2964POPC   D2A39292   8.957  22.901   8.264
 2964POPC   C3A39293   8.974  22.922   7.964
 2964POPC   C4A39294   8.986  22.966   7.664
 2964POPC   C1B39295   8.910  22.760   8.564
 2964POPC   C2B39296   8.849  22.671   8.264
 2964POPC   C3B39297   8.838  22.722   7.964
 2964POPC   C4B39298   8.839  22.747   7.664
 2965POPC   NC339299  21.353  12.899   9.464
 2965POPC   PO439300  21.351  12.886   9.164
 2965POPC   GL139301  21.355  12.889   8.864
 2965POPC   GL239302  21.483  12.830   8.864
 2965POPC   C1A39303  21.399  12.841   8.564
 2965POPC   D2A39304  21.378  12.850   8.264
 2965POPC   C3A39305  21.397  12.898   7.964
 2965POPC   C4A39306  21.394  12.849   7.664
 2965POPC   C1B39307  21.632  12.745   8.564
 2965POPC   C2B39308  21.601  12.841   8.264
 2965POPC   C3B39309  21.652  12.832   7.964
 2965POPC   C4B39310  21.677  12.764   7.664
 2966POPC   NC339311  40.824  40.799   9.464
 2966POPC   PO439312  40.788  40.762   9.164
 2966POPC   GL139313  40.778  40.758   8.864
 2966POPC   GL239314  40.709  40.763   8.864
 2966POPC   C1A39315  40.831  40.743   8.564
 2966POPC   D2A39316  40.765  40.812   8.264
 2966POPC   C3A39317  40.829  40.810   7.964
 2966POPC   C4A39318  40.831  40.765   7.664
 2966POPC   C1B39319  40.548  40.654   8.564
 2966POPC   C2B39320  40.594  40.645   8.264
 2966POPC   C3B39321  40.572  40.712   7.964
 2966POPC   C4B39322  40.589  40.700   7.664
 2967POPC   NC339323  26.855   2.802   9.464
 2967POPC   PO439324  26.860   2.772   9.164
 2967POPC   GL139325  26.785   2.722   8.864
 2967POPC   GL239326  26.744   2.689   8.864
 2967POPC   C1A39327  26.780   2.814   8.564
 2967POPC   D2A39328  26.820   2.727   8.264
 2967POPC   C3A39329  26.827   2.763   7.964
 2967POPC   C4A39330  26.791   2.732   7.664
 2967POPC   C1B39331  26.741   2.562   8.564
 2967POPC   C2B39332  26.703   2.482   8.264
 2967POPC   C3B39333  26.762   2.563   7.964
 2967POPC   C4B39334  26.702   2.518   7.664
 2968POPC   NC339335  37.668  14.433   9.464
 2968POPC   PO439336  37.656  14.354   9.164
 2968POPC   GL139337  37.661  14.389   8.864
 2968POPC   GL239338  37.824  14.318   8.864
 2968POPC   C1A39339  37.707  14.401   8.564
 2968POPC   D2A39340  37.674  14.356   8.264
 2968POPC   C3A39341  37.698  14.358   7.964
 2968POPC   C4A39342  37.671  14.357   7.664
 2968POPC   C1B39343  37.868  14.331   8.564
 2968POPC   C2B39344  37.881  14.304   8.264
 2968POPC   C3B39345  37.955  14.321   7.964
 2968POPC   C4B39346  37.929  14.269   7.664
 2969POPC   NC339347  36.906  20.575   9.464
 2969POPC   PO439348  36.891  20.589   9.164
 2969POPC   GL139349  36.883  20.588   8.864
 2969POPC   GL239350  36.950  20.459   8.864
 2969POPC   C1A39351  36.858  20.597   8.564
 2969POPC   D2A39352  36.924  20.636   8.264
 2969POPC   C3A39353  36.884  20.659   7.964
 2969POPC   C4A39354  36.944  20.648   7.664
 2969POPC   C1B39355  37.018  20.387   8.564
 2969POPC   C2B39356  36.992  20.413   8.264
 2969POPC   C3B39357  36.977  20.392   7.964
 2969POPC   C4B39358  37.020  20.424   7.664
 2970POPC   NC339359  32.253  29.933   9.464
 2970POPC   PO439360  32.217  29.908   9.164
 2970POPC   GL139361  32.294  29.963   8.864
 2970POPC   GL239362  32.189  29.993   8.864
 2970POPC   C1A39363  32.277  29.943   8.564
 2970POPC   D2A39364  32.198  29.928   8.264
 2970POPC   C3A39365  32.243  29.899   7.964
 2970POPC   C4A39366  32.272  29.927   7.664
 2970POPC   C1B39367  32.197  30.155   8.564
 2970POPC   C2B39368  32.149  30.154   8.264
 2970POPC   C3B39369  32.192  30.196   7.964
 2970POPC   C4B39370  32.201  30.114   7.664
 2971POPC   NC339371  13.670  32.292   9.464
 2971POPC   PO439372  13.648  32.237   9.164
 2971POPC   GL139373  13.581  32.272   8.864
 2971POPC   GL239374  13.482  32.305   8.864
 2971POPC   C1A39375  13.660  32.239   8.564
 2971POPC   D2A39376  13.650  32.201   8.264
 2971POPC   C3A39377  13.583  32.282   7.964
 2971POPC   C4A39378  13.618  32.259   7.664
 2971POPC   C1B39379  13.413  32.383   8.564
 2971POPC   C2B39380  13.451  32.358   8.264
 2971POPC   C3B39381  13.472  32.406   7.964
 2971POPC   C4B39382  13.431  32.359   7.664
 2972POPC   NC339383  25.998  43.081   9.464
 2972POPC   PO439384  26.018  43.159   9.164
 2972POPC   GL139385  26.053  43.118   8.864
 2972POPC   GL239386  26.140  43.166   8.864
 2972POPC   C1A39387  26.075  43.100   8.564
 2972POPC   D2A39388  26.059  43.130   8.264
 2972POPC   C3A39389  26.088  43.146   7.964
 2972POPC   C4A39390  26.026  43.150   7.664
 2972POPC   C1B39391  26.225  43.303   8.564
 2972POPC   C2B39392  26.209  43.247   8.264
 2972POPC   C3B39393  26.177  43.249   7.964
 2972POPC   C4B39394  26.250  43.299   7.664
 2973POPC   NC339395  40.744  10.479   9.464
 2973POPC   PO439396  40.805  10.539   9.164
 2973POPC   GL139397  40.743  10.529   8.864
 2973POPC   GL239398  40.922  10.424   8.864
 2973POPC   C1A39399  40.786  10.512   8.564
 2973POPC   D2A39400  40.828  10.509   8.264
 2973POPC   C3A39401  40.829  10.567   7.964
 2973POPC   C4A39402  40.804  10.534   7.664
 2973POPC   C1B39403  41.014  10.371   8.564
 2973POPC   C2B39404  41.043  10.441   8.264
 2973POPC   C3B39405  40.955  10.350   7.964
 2973POPC   C4B39406  40.969  10.397   7.664
 2974POPC   NC339407   4.319  10.566   9.464
 2974POPC   PO439408   4.342  10.519   9.164
 2974POPC   GL139409   4.355  10.556   8.864
 2974POPC   GL239410   4.358  10.615   8.864
 2974POPC   C1A39411   4.318  10.512   8.564
 2974POPC   D2A39412   4.307  10.483   8.264
 2974POPC   C3A39413   4.362  10.563   7.964
 2974POPC   C4A39414   4.298  10.548   7.664
 2974POPC   C1B39415   4.351  10.773   8.564
 2974POPC   C2B39416   4.291  10.785   8.264
 2974POPC   C3B39417   4.349  10.812   7.964
 2974POPC   C4B39418   4.348  10.746   7.664
 2975POPC   NC339419   1.949  44.705   9.464
 2975POPC   PO439420   1.984  44.657   9.164
 2975POPC   GL139421   1.954  44.686   8.864
 2975POPC   GL239422   1.858  44.718   8.864
 2975POPC   C1A39423   1.996  44.638   8.564
 2975POPC   D2A39424   1.941  44.638   8.264
 2975POPC   C3A39425   2.027  44.644   7.964
 2975POPC   C4A39426   2.004  44.685   7.664
 2975POPC   C1B39427   1.757  44.701   8.564
 2975POPC   C2B39428   1.772  44.708   8.264
 2975POPC   C3B39429   1.716  44.721   7.964
 2975POPC   C4B39430   1.702  44.718   7.664
 2976POPC   NC339431  34.539  19.830   9.464
 2976POPC   PO439432  34.538  19.847   9.164
 2976POPC   GL139433  34.537  19.848   8.864
 2976POPC   GL239434  34.668  19.733   8.864
 2976POPC   C1A39435  34.551  19.808   8.564
 2976POPC   D2A39436  34.549  19.882   8.264
 2976POPC   C3A39437  34.618  19.792   7.964
 2976POPC   C4A39438  34.587  19.794   7.664
 2976POPC   C1B39439  34.677  19.630   8.564
 2976POPC   C2B39440  34.712  19.671   8.264
 2976POPC   C3B39441  34.708  19.617   7.964
 2976POPC   C4B39442  34.752  19.584   7.664
 2977POPC   NC339443   8.978   8.230   9.464
 2977POPC   PO439444   8.944   8.246   9.164
 2977POPC   GL139445   8.977   8.159   8.864
 2977POPC   GL239446   8.888   8.097   8.864
 2977POPC   C1A39447   8.974   8.232   8.564
 2977POPC   D2A39448   8.950   8.216   8.264
 2977POPC   C3A39449   8.990   8.208   7.964
 2977POPC   C4A39450   8.977   8.175   7.664
 2977POPC   C1B39451   8.783   8.076   8.564
 2977POPC   C2B39452   8.749   7.996   8.264
 2977POPC   C3B39453   8.824   8.062   7.964
 2977POPC   C4B39454   8.771   7.979   7.664
 2978POPC   NC339455  37.702  29.968   9.464
 2978POPC   PO439456  37.648  29.922   9.164
 2978POPC   GL139457  37.665  29.893   8.864
 2978POPC   GL239458  37.559  29.831   8.864
 2978POPC   C1A39459  37.676  29.919   8.564
 2978POPC   D2A39460  37.642  29.895   8.264
 2978POPC   C3A39461  37.698  29.934   7.964
 2978POPC   C4A39462  37.710  29.964   7.664
 2978POPC   C1B39463  37.488  29.781   8.564
 2978POPC   C2B39464  37.505  29.727   8.264
 2978POPC   C3B39465  37.478  29.725   7.964
 2978POPC   C4B39466  37.538  29.703   7.664
 2979POPC   NC339467  35.338   3.543   9.464
 2979POPC   PO439468  35.363   3.587   9.164
 2979POPC   GL139469  35.309   3.511   8.864
 2979POPC   GL239470  35.244   3.517   8.864
 2979POPC   C1A39471  35.308   3.532   8.564
 2979POPC   D2A39472  35.311   3.525   8.264
 2979POPC   C3A39473  35.364   3.560   7.964
 2979POPC   C4A39474  35.317   3.518   7.664
 2979POPC   C1B39475  35.103   3.427   8.564
 2979POPC   C2B39476  35.144   3.404   8.264
 2979POPC   C3B39477  35.094   3.484   7.964
 2979POPC   C4B39478  35.102   3.471   7.664
 2980POPC   NC339479   0.449   6.632   9.464
 2980POPC   PO439480   0.478   6.677   9.164
 2980POPC   GL139481   0.459   6.619   8.864
 2980POPC   GL239482   0.478   6.798   8.864
 2980POPC   C1A39483   0.470   6.677   8.564
 2980POPC   D2A39484   0.397   6.678   8.264
 2980POPC   C3A39485   0.439   6.673   7.964
 2980POPC   C4A39486   0.389   6.607   7.664
 2980POPC   C1B39487   0.518   6.914   8.564
 2980POPC   C2B39488   0.602   6.828   8.264
 2980POPC   C3B39489   0.588   6.821   7.964
 2980POPC   C4B39490   0.561   6.889   7.664
 2981POPC   NC339491   3.587  14.435   9.464
 2981POPC   PO439492   3.567  14.413   9.164
 2981POPC   GL139493   3.509  14.408   8.864
 2981POPC   GL239494   3.571  14.256   8.864
 2981POPC   C1A39495   3.573  14.364   8.564
 2981POPC   D2A39496   3.576  14.443   8.264
 2981POPC   C3A39497   3.503  14.365   7.964
 2981POPC   C4A39498   3.590  14.384   7.664
 2981POPC   C1B39499   3.667  14.135   8.564
 2981POPC   C2B39500   3.601  14.193   8.264
 2981POPC   C3B39501   3.613  14.144   7.964
 2981POPC   C4B39502   3.620  14.181   7.664
 2982POPC   NC339503  32.262  41.605   9.464
 2982POPC   PO439504  32.271  41.519   9.164
 2982POPC   GL139505  32.204  41.541   8.864
 2982POPC   GL239506  32.288  41.454   8.864
 2982POPC   C1A39507  32.214  41.561   8.564
 2982POPC   D2A39508  32.228  41.544   8.264
 2982POPC   C3A39509  32.275  41.526   7.964
 2982POPC   C4A39510  32.230  41.555   7.664
 2982POPC   C1B39511  32.242  41.308   8.564
 2982POPC   C2B39512  32.270  41.289   8.264
 2982POPC   C3B39513  32.306  41.275   7.964
 2982POPC   C4B39514  32.242  41.325   7.664
 2983POPC   NC339515  22.932  31.482   9.464
 2983POPC   PO439516  22.920  31.517   9.164
 2983POPC   GL139517  22.908  31.442   8.864
 2983POPC   GL239518  22.840  31.408   8.864
 2983POPC   C1A39519  22.901  31.463   8.564
 2983POPC   D2A39520  22.892  31.447   8.264
 2983POPC   C3A39521  22.975  31.448   7.964
 2983POPC   C4A39522  22.942  31.441   7.664
 2983POPC   C1B39523  22.837  31.227   8.564
 2983POPC   C2B39524  22.825  31.280   8.264
 2983POPC   C3B39525  22.769  31.297   7.964
 2983POPC   C4B39526  22.762  31.288   7.664
 2984POPC   NC339527  42.349   6.684   9.464
 2984POPC   PO439528  42.303   6.676   9.164
 2984POPC   GL139529  42.378   6.676   8.864
 2984POPC   GL239530  42.242   6.681   8.864
 2984POPC   C1A39531  42.336   6.668   8.564
 2984POPC   D2A39532  42.358   6.670   8.264
 2984POPC   C3A39533  42.365   6.614   7.964
 2984POPC   C4A39534  42.308   6.611   7.664
 2984POPC   C1B39535  42.169   6.825   8.564
 2984POPC   C2B39536  42.107   6.759   8.264
 2984POPC   C3B39537  42.114   6.801   7.964
 2984POPC   C4B39538  42.176   6.841   7.664
 2985POPC   NC339539  37.633   1.970   9.464
 2985POPC   PO439540  37.643   1.992   9.164
 2985POPC   GL139541  37.657   2.004   8.864
 2985POPC   GL239542  37.605   1.966   8.864
 2985POPC   C1A39543  37.665   1.959   8.564
 2985POPC   D2A39544  37.669   1.977   8.264
 2985POPC   C3A39545  37.693   1.963   7.964
 2985POPC   C4A39546  37.635   1.992   7.664
 2985POPC   C1B39547  37.494   1.898   8.564
 2985POPC   C2B39548  37.471   1.845   8.264
 2985POPC   C3B39549  37.464   1.890   7.964
 2985POPC   C4B39550  37.447   1.880   7.664
 2986POPC   NC339551  19.836  12.825   9.464
 2986POPC   PO439552  19.864  12.803   9.164
 2986POPC   GL139553  19.864  12.888   8.864
 2986POPC   GL239554  20.005  12.846   8.864
 2986POPC   C1A39555  19.786  12.867   8.564
 2986POPC   D2A39556  19.806  12.869   8.264
 2986POPC   C3A39557  19.863  12.839   7.964
 2986POPC   C4A39558  19.786  12.836   7.664
 2986POPC   C1B39559  20.104  12.880   8.564
 2986POPC   C2B39560  20.072  12.839   8.264
 2986POPC   C3B39561  20.037  12.898   7.964
 2986POPC   C4B39562  20.072  12.851   7.664
 2987POPC   NC339563   0.471   3.532   9.464
 2987POPC   PO439564   0.405   3.567   9.164
 2987POPC   GL139565   0.463   3.546   8.864
 2987POPC   GL239566   0.274   3.503   8.864
 2987POPC   C1A39567   0.418   3.565   8.564
 2987POPC   D2A39568   0.474   3.531   8.264
 2987POPC   C3A39569   0.403   3.535   7.964
 2987POPC   C4A39570   0.410   3.495   7.664
 2987POPC   C1B39571   0.224   3.518   8.564
 2987POPC   C2B39572   0.151   3.559   8.264
 2987POPC   C3B39573   0.175   3.539   7.964
 2987POPC   C4B39574   0.147   3.509   7.664
 2988POPC   NC339575   6.680  15.148   9.464
 2988POPC   PO439576   6.613  15.159   9.164
 2988POPC   GL139577   6.653  15.207   8.864
 2988POPC   GL239578   6.619  15.080   8.864
 2988POPC   C1A39579   6.599  15.171   8.564
 2988POPC   D2A39580   6.643  15.190   8.264
 2988POPC   C3A39581   6.683  15.199   7.964
 2988POPC   C4A39582   6.673  15.226   7.664
 2988POPC   C1B39583   6.634  14.935   8.564
 2988POPC   C2B39584   6.636  14.912   8.264
 2988POPC   C3B39585   6.614  14.939   7.964
 2988POPC   C4B39586   6.666  14.974   7.664
 2989POPC   NC339587  22.988  16.746   9.464
 2989POPC   PO439588  22.969  16.768   9.164
 2989POPC   GL139589  22.939  16.738   8.864
 2989POPC   GL239590  23.021  16.604   8.864
 2989POPC   C1A39591  22.895  16.708   8.564
 2989POPC   D2A39592  22.915  16.744   8.264
 2989POPC   C3A39593  22.934  16.714   7.964
 2989POPC   C4A39594  22.906  16.732   7.664
 2989POPC   C1B39595  23.081  16.543   8.564
 2989POPC   C2B39596  23.103  16.535   8.264
 2989POPC   C3B39597  23.151  16.510   7.964
 2989POPC   C4B39598  23.140  16.587   7.664
 2990POPC   NC339599  31.471  14.389   9.464
 2990POPC   PO439600  31.441  14.372   9.164
 2990POPC   GL139601  31.440  14.389   8.864
 2990POPC   GL239602  31.575  14.354   8.864
 2990POPC   C1A39603  31.424  14.413   8.564
 2990POPC   D2A39604  31.457  14.446   8.264
 2990POPC   C3A39605  31.490  14.402   7.964
 2990POPC   C4A39606  31.494  14.362   7.664
 2990POPC   C1B39607  31.672  14.232   8.564
 2990POPC   C2B39608  31.651  14.256   8.264
 2990POPC   C3B39609  31.677  14.258   7.964
 2990POPC   C4B39610  31.688  14.301   7.664
 2991POPC   NC339611  13.582  36.116   9.464
 2991POPC   PO439612  13.628  36.111   9.164
 2991POPC   GL139613  13.598  36.159   8.864
 2991POPC   GL239614  13.646  35.995   8.864
 2991POPC   C1A39615  13.622  36.174   8.564
 2991POPC   D2A39616  13.629  36.122   8.264
 2991POPC   C3A39617  13.604  36.118   7.964
 2991POPC   C4A39618  13.646  36.103   7.664
 2991POPC   C1B39619  13.625  35.896   8.564
 2991POPC   C2B39620  13.617  35.901   8.264
 2991POPC   C3B39621  13.534  35.856   7.964
 2991POPC   C4B39622  13.551  35.879   7.664
 2992POPC   NC339623  22.135  27.547   9.464
 2992POPC   PO439624  22.207  27.544   9.164
 2992POPC   GL139625  22.174  27.640   8.864
 2992POPC   GL239626  22.200  27.724   8.864
 2992POPC   C1A39627  22.209  27.632   8.564
 2992POPC   D2A39628  22.188  27.631   8.264
 2992POPC   C3A39629  22.115  27.634   7.964
 2992POPC   C4A39630  22.211  27.642   7.664
 2992POPC   C1B39631  22.343  27.830   8.564
 2992POPC   C2B39632  22.289  27.829   8.264
 2992POPC   C3B39633  22.342  27.820   7.964
 2992POPC   C4B39634  22.336  27.841   7.664
 2993POPC   NC339635  11.348  43.085   9.464
 2993POPC   PO439636  11.294  43.139   9.164
 2993POPC   GL139637  11.306  43.069   8.864
 2993POPC   GL239638  11.453  43.088   8.864
 2993POPC   C1A39639  11.262  43.155   8.564
 2993POPC   D2A39640  11.301  43.147   8.264
 2993POPC   C3A39641  11.254  43.136   7.964
 2993POPC   C4A39642  11.301  43.119   7.664
 2993POPC   C1B39643  11.510  43.029   8.564
 2993POPC   C2B39644  11.534  43.070   8.264
 2993POPC   C3B39645  11.507  42.972   7.964
 2993POPC   C4B39646  11.486  43.047   7.664
 2994POPC   NC339647  13.606  41.534   9.464
 2994POPC   PO439648  13.596  41.589   9.164
 2994POPC   GL139649  13.643  41.517   8.864
 2994POPC   GL239650  13.654  41.408   8.864
 2994POPC   C1A39651  13.599  41.547   8.564
 2994POPC   D2A39652  13.667  41.598   8.264
 2994POPC   C3A39653  13.678  41.514   7.964
 2994POPC   C4A39654  13.599  41.560   7.664
 2994POPC   C1B39655  13.724  41.296   8.564
 2994POPC   C2B39656  13.701  41.344   8.264
 2994POPC   C3B39657  13.673  41.303   7.964
 2994POPC   C4B39658  13.706  41.353   7.664
 2995POPC   NC339659   5.865  16.684   9.464
 2995POPC   PO439660   5.853  16.761   9.164
 2995POPC   GL139661   5.848  16.734   8.864
 2995POPC   GL239662   5.787  16.683   8.864
 2995POPC   C1A39663   5.910  16.763   8.564
 2995POPC   D2A39664   5.899  16.698   8.264
 2995POPC   C3A39665   5.832  16.767   7.964
 2995POPC   C4A39666   5.876  16.748   7.664
 2995POPC   C1B39667   5.626  16.703   8.564
 2995POPC   C2B39668   5.634  16.670   8.264
 2995POPC   C3B39669   5.581  16.620   7.964
 2995POPC   C4B39670   5.643  16.660   7.664
 2996POPC   NC339671  22.195  33.005   9.464
 2996POPC   PO439672  22.153  32.976   9.164
 2996POPC   GL139673  22.149  32.992   8.864
 2996POPC   GL239674  22.048  33.034   8.864
 2996POPC   C1A39675  22.180  33.015   8.564
 2996POPC   D2A39676  22.195  32.977   8.264
 2996POPC   C3A39677  22.178  32.989   7.964
 2996POPC   C4A39678  22.127  33.039   7.664
 2996POPC   C1B39679  21.870  32.963   8.564
 2996POPC   C2B39680  21.941  33.014   8.264
 2996POPC   C3B39681  21.883  32.972   7.964
 2996POPC   C4B39682  21.875  32.943   7.664
 2997POPC   NC339683  43.929   3.507   9.464
 2997POPC   PO439684  43.885   3.503   9.164
 2997POPC   GL139685  43.923   3.590   8.864
 2997POPC   GL239686  43.986   3.456   8.864
 2997POPC   C1A39687  43.845   3.499   8.564
 2997POPC   D2A39688  43.891   3.577   8.264
 2997POPC   C3A39689  43.868   3.520   7.964
 2997POPC   C4A39690  43.879   3.535   7.664
 2997POPC   C1B39691  44.073   3.344   8.564
 2997POPC   C2B39692  44.031   3.338   8.264
 2997POPC   C3B39693  44.066   3.416   7.964
 2997POPC   C4B39694  44.072   3.428   7.664
 2998POPC   NC339695  10.478  28.334   9.464
 2998POPC   PO439696  10.499  28.400   9.164
 2998POPC   GL139697  10.497  28.377   8.864
 2998POPC   GL239698  10.440  28.311   8.864
 2998POPC   C1A39699  10.571  28.382   8.564
 2998POPC   D2A39700  10.501  28.365   8.264
 2998POPC   C3A39701  10.480  28.363   7.964
 2998POPC   C4A39702  10.478  28.341   7.664
 2998POPC   C1B39703  10.297  28.201   8.564
 2998POPC   C2B39704  10.352  28.188   8.264
 2998POPC   C3B39705  10.336  28.190   7.964
 2998POPC   C4B39706  10.347  28.198   7.664
 2999POPC   NC339707  13.638  15.167   9.464
 2999POPC   PO439708  13.670  15.155   9.164
 2999POPC   GL139709  13.628  15.143   8.864
 2999POPC   GL239710  13.561  15.148   8.864
 2999POPC   C1A39711  13.655  15.192   8.564
 2999POPC   D2A39712  13.591  15.194   8.264
 2999POPC   C3A39713  13.658  15.132   7.964
 2999POPC   C4A39714  13.609  15.222   7.664
 2999POPC   C1B39715  13.407  15.108   8.564
 2999POPC   C2B39716  13.406  15.115   8.264
 2999POPC   C3B39717  13.390  15.084   7.964
 2999POPC   C4B39718  13.415  15.108   7.664
 3000POPC   NC339719  38.432  25.266   9.464
 3000POPC   PO439720  38.482  25.259   9.164
 3000POPC   GL139721  38.454  25.223   8.864
 3000POPC   GL239722  38.423  25.426   8.864
 3000POPC   C1A39723  38.485  25.232   8.564
 3000POPC   D2A39724  38.412  25.222   8.264
 3000POPC   C3A39725  38.417  25.226   7.964
 3000POPC   C4A39726  38.411  25.250   7.664
 3000POPC   C1B39727  38.461  25.514   8.564
 3000POPC   C2B39728  38.453  25.548   8.264
 3000POPC   C3B39729  38.415  25.565   7.964
 3000POPC   C4B39730  38.453  25.486   7.664
 3001POPC   NC339731  31.424  37.659   9.464
 3001POPC   PO439732  31.522  37.718   9.164
 3001POPC   GL139733  31.506  37.653   8.864
 3001POPC   GL239734  31.551  37.606   8.864
 3001POPC   C1A39735  31.444  37.655   8.564
 3001POPC   D2A39736  31.506  37.690   8.264
 3001POPC   C3A39737  31.457  37.718   7.964
 3001POPC   C4A39738  31.492  37.669   7.664
 3001POPC   C1B39739  31.668  37.501   8.564
 3001POPC   C2B39740  31.674  37.558   8.264
 3001POPC   C3B39741  31.696  37.537   7.964
 3001POPC   C4B39742  31.656  37.479   7.664
 3002POPC   NC339743  28.413  25.235   9.464
 3002POPC   PO439744  28.378  25.222   9.164
 3002POPC   GL139745  28.368  25.280   8.864
 3002POPC   GL239746  28.213  25.287   8.864
 3002POPC   C1A39747  28.383  25.221   8.564
 3002POPC   D2A39748  28.410  25.277   8.264
 3002POPC   C3A39749  28.333  25.295   7.964
 3002POPC   C4A39750  28.340  25.275   7.664
 3002POPC   C1B39751  28.160  25.216   8.564
 3002POPC   C2B39752  28.143  25.229   8.264
 3002POPC   C3B39753  28.152  25.232   7.964
 3002POPC   C4B39754  28.135  25.243   7.664
 3003POPC   NC339755  38.431  19.881   9.464
 3003POPC   PO439756  38.452  19.787   9.164
 3003POPC   GL139757  38.502  19.797   8.864
 3003POPC   GL239758  38.548  19.861   8.864
 3003POPC   C1A39759  38.437  19.842   8.564
 3003POPC   D2A39760  38.502  19.787   8.264
 3003POPC   C3A39761  38.431  19.807   7.964
 3003POPC   C4A39762  38.478  19.882   7.664
 3003POPC   C1B39763  38.677  19.858   8.564
 3003POPC   C2B39764  38.737  19.824   8.264
 3003POPC   C3B39765  38.753  19.862   7.964
 3003POPC   C4B39766  38.659  19.848   7.664
 3004POPC   NC339767   7.416   1.183   9.464
 3004POPC   PO439768   7.460   1.263   9.164
 3004POPC   GL139769   7.454   1.247   8.864
 3004POPC   GL239770   7.288   1.278   8.864
 3004POPC   C1A39771   7.390   1.264   8.564
 3004POPC   D2A39772   7.401   1.259   8.264
 3004POPC   C3A39773   7.437   1.257   7.964
 3004POPC   C4A39774   7.460   1.184   7.664
 3004POPC   C1B39775   7.198   1.340   8.564
 3004POPC   C2B39776   7.213   1.325   8.264
 3004POPC   C3B39777   7.253   1.340   7.964
 3004POPC   C4B39778   7.220   1.362   7.664
 3005POPC   NC339779  11.291  18.281   9.464
 3005POPC   PO439780  11.305  18.326   9.164
 3005POPC   GL139781  11.344  18.308   8.864
 3005POPC   GL239782  11.169  18.268   8.864
 3005POPC   C1A39783  11.318  18.251   8.564
 3005POPC   D2A39784  11.316  18.288   8.264
 3005POPC   C3A39785  11.262  18.298   7.964
 3005POPC   C4A39786  11.338  18.301   7.664
 3005POPC   C1B39787  11.048  18.281   8.564
 3005POPC   C2B39788  11.044  18.205   8.264
 3005POPC   C3B39789  11.074  18.239   7.964
 3005POPC   C4B39790  11.005  18.287   7.664
 3006POPC   NC339791  27.548  11.327   9.464
 3006POPC   PO439792  27.609  11.291   9.164
 3006POPC   GL139793  27.612  11.322   8.864
 3006POPC   GL239794  27.511  11.215   8.864
 3006POPC   C1A39795  27.632  11.319   8.564
 3006POPC   D2A39796  27.547  11.325   8.264
 3006POPC   C3A39797  27.627  11.286   7.964
 3006POPC   C4A39798  27.592  11.259   7.664
 3006POPC   C1B39799  27.362  11.175   8.564
 3006POPC   C2B39800  27.390  11.202   8.264
 3006POPC   C3B39801  27.396  11.182   7.964
 3006POPC   C4B39802  27.391  11.222   7.664
 3007POPC   NC339803   5.075  38.425   9.464
 3007POPC   PO439804   5.096  38.457   9.164
 3007POPC   GL139805   5.135  38.484   8.864
 3007POPC   GL239806   4.992  38.530   8.864
 3007POPC   C1A39807   5.095  38.460   8.564
 3007POPC   D2A39808   5.138  38.463   8.264
 3007POPC   C3A39809   5.079  38.409   7.964
 3007POPC   C4A39810   5.109  38.458   7.664
 3007POPC   C1B39811   4.899  38.506   8.564
 3007POPC   C2B39812   4.852  38.554   8.264
 3007POPC   C3B39813   4.877  38.585   7.964
 3007POPC   C4B39814   4.872  38.581   7.664
 3008POPC   NC339815  39.247  42.355   9.464
 3008POPC   PO439816  39.217  42.327   9.164
 3008POPC   GL139817  39.260  42.308   8.864
 3008POPC   GL239818  39.324  42.247   8.864
 3008POPC   C1A39819  39.268  42.295   8.564
 3008POPC   D2A39820  39.191  42.286   8.264
 3008POPC   C3A39821  39.247  42.299   7.964
 3008POPC   C4A39822  39.245  42.378   7.664
 3008POPC   C1B39823  39.456  42.194   8.564
 3008POPC   C2B39824  39.385  42.116   8.264
 3008POPC   C3B39825  39.362  42.138   7.964
 3008POPC   C4B39826  39.440  42.110   7.664
 3009POPC   NC339827   5.140  20.576   9.464
 3009POPC   PO439828   5.073  20.638   9.164
 3009POPC   GL139829   5.122  20.598   8.864
 3009POPC   GL239830   5.159  20.452   8.864
 3009POPC   C1A39831   5.077  20.616   8.564
 3009POPC   D2A39832   5.083  20.581   8.264
 3009POPC   C3A39833   5.079  20.649   7.964
 3009POPC   C4A39834   5.071  20.643   7.664
 3009POPC   C1B39835   5.097  20.360   8.564
 3009POPC   C2B39836   5.080  20.314   8.264
 3009POPC   C3B39837   5.110  20.361   7.964
 3009POPC   C4B39838   5.137  20.355   7.664
 3010POPC   NC339839   4.277  37.665   9.464
 3010POPC   PO439840   4.300  37.690   9.164
 3010POPC   GL139841   4.291  37.646   8.864
 3010POPC   GL239842   4.312  37.542   8.864
 3010POPC   C1A39843   4.272  37.677   8.564
 3010POPC   D2A39844   4.269  37.665   8.264
 3010POPC   C3A39845   4.340  37.724   7.964
 3010POPC   C4A39846   4.336  37.717   7.664
 3010POPC   C1B39847   4.436  37.444   8.564
 3010POPC   C2B39848   4.417  37.469   8.264
 3010POPC   C3B39849   4.400  37.461   7.964
 3010POPC   C4B39850   4.361  37.490   7.664
 3011POPC   NC339851  25.297   1.943   9.464
 3011POPC   PO439852  25.258   2.027   9.164
 3011POPC   GL139853  25.296   1.987   8.864
 3011POPC   GL239854  25.343   1.924   8.864
 3011POPC   C1A39855  25.281   1.953   8.564
 3011POPC   D2A39856  25.271   2.020   8.264
 3011POPC   C3A39857  25.306   1.962   7.964
 3011POPC   C4A39858  25.268   1.973   7.664
 3011POPC   C1B39859  25.495   1.867   8.564
 3011POPC   C2B39860  25.471   1.887   8.264
 3011POPC   C3B39861  25.464   1.884   7.964
 3011POPC   C4B39862  25.471   1.896   7.664
 3012POPC   NC339863  42.331  33.027   9.464
 3012POPC   PO439864  42.324  33.003   9.164
 3012POPC   GL139865  42.290  33.036   8.864
 3012POPC   GL239866  42.288  32.875   8.864
 3012POPC   C1A39867  42.320  33.039   8.564
 3012POPC   D2A39868  42.345  33.014   8.264
 3012POPC   C3A39869  42.333  33.071   7.964
 3012POPC   C4A39870  42.301  32.988   7.664
 3012POPC   C1B39871  42.275  32.768   8.564
 3012POPC   C2B39872  42.339  32.825   8.264
 3012POPC   C3B39873  42.302  32.811   7.964
 3012POPC   C4B39874  42.305  32.803   7.664
 3013POPC   NC339875  13.671  20.576   9.464
 3013POPC   PO439876  13.665  20.595   9.164
 3013POPC   GL139877  13.623  20.580   8.864
 3013POPC   GL239878  13.635  20.735   8.864
 3013POPC   C1A39879  13.645  20.652   8.564
 3013POPC   D2A39880  13.661  20.585   8.264
 3013POPC   C3A39881  13.622  20.636   7.964
 3013POPC   C4A39882  13.665  20.600   7.664
 3013POPC   C1B39883  13.559  20.809   8.564
 3013POPC   C2B39884  13.600  20.887   8.264
 3013POPC   C3B39885  13.574  20.855   7.964
 3013POPC   C4B39886  13.560  20.827   7.664
 3014POPC   NC339887  24.464  23.729   9.464
 3014POPC   PO439888  24.446  23.671   9.164
 3014POPC   GL139889  24.447  23.715   8.864
 3014POPC   GL239890  24.569  23.683   8.864
 3014POPC   C1A39891  24.536  23.712   8.564
 3014POPC   D2A39892  24.480  23.690   8.264
 3014POPC   C3A39893  24.470  23.704   7.964
 3014POPC   C4A39894  24.505  23.721   7.664
 3014POPC   C1B39895  24.743  23.787   8.564
 3014POPC   C2B39896  24.709  23.720   8.264
 3014POPC   C3B39897  24.724  23.776   7.964
 3014POPC   C4B39898  24.711  23.724   7.664
 3015POPC   NC339899  23.695  28.340   9.464
 3015POPC   PO439900  23.700  28.414   9.164
 3015POPC   GL139901  23.740  28.369   8.864
 3015POPC   GL239902  23.579  28.394   8.864
 3015POPC   C1A39903  23.760  28.381   8.564
 3015POPC   D2A39904  23.710  28.325   8.264
 3015POPC   C3A39905  23.698  28.351   7.964
 3015POPC   C4A39906  23.716  28.419   7.664
 3015POPC   C1B39907  23.468  28.499   8.564
 3015POPC   C2B39908  23.489  28.422   8.264
 3015POPC   C3B39909  23.492  28.476   7.964
 3015POPC   C4B39910  23.523  28.436   7.664
 3016POPC   NC339911   7.445  15.959   9.464
 3016POPC   PO439912   7.377  15.990   9.164
 3016POPC   GL139913   7.386  15.965   8.864
 3016POPC   GL239914   7.501  15.863   8.864
 3016POPC   C1A39915   7.454  15.942   8.564
 3016POPC   D2A39916   7.403  15.945   8.264
 3016POPC   C3A39917   7.444  15.906   7.964
 3016POPC   C4A39918   7.399  15.990   7.664
 3016POPC   C1B39919   7.558  15.713   8.564
 3016POPC   C2B39920   7.575  15.768   8.264
 3016POPC   C3B39921   7.514  15.714   7.964
 3016POPC   C4B39922   7.517  15.730   7.664
 3017POPC   NC339923  32.259  38.418   9.464
 3017POPC   PO439924  32.266  38.461   9.164
 3017POPC   GL139925  32.202  38.492   8.864
 3017POPC   GL239926  32.333  38.531   8.864
 3017POPC   C1A39927  32.207  38.466   8.564
 3017POPC   D2A39928  32.224  38.420   8.264
 3017POPC   C3A39929  32.275  38.473   7.964
 3017POPC   C4A39930  32.239  38.440   7.664
 3017POPC   C1B39931  32.447  38.653   8.564
 3017POPC   C2B39932  32.413  38.615   8.264
 3017POPC   C3B39933  32.399  38.669   7.964
 3017POPC   C4B39934  32.465  38.646   7.664
 3018POPC   NC339935  30.711  43.106   9.464
 3018POPC   PO439936  30.709  43.125   9.164
 3018POPC   GL139937  30.675  43.135   8.864
 3018POPC   GL239938  30.809  43.253   8.864
 3018POPC   C1A39939  30.704  43.101   8.564
 3018POPC   D2A39940  30.674  43.113   8.264
 3018POPC   C3A39941  30.682  43.079   7.964
 3018POPC   C4A39942  30.670  43.152   7.664
 3018POPC   C1B39943  30.892  43.286   8.564
 3018POPC   C2B39944  30.829  43.316   8.264
 3018POPC   C3B39945  30.861  43.286   7.964
 3018POPC   C4B39946  30.903  43.343   7.664
 3019POPC   NC339947  16.683   5.133   9.464
 3019POPC   PO439948  16.773   5.056   9.164
 3019POPC   GL139949  16.706   5.079   8.864
 3019POPC   GL239950  16.660   5.000   8.864
 3019POPC   C1A39951  16.724   5.091   8.564
 3019POPC   D2A39952  16.692   5.128   8.264
 3019POPC   C3A39953  16.731   5.099   7.964
 3019POPC   C4A39954  16.755   5.046   7.664
 3019POPC   C1B39955  16.564   4.855   8.564
 3019POPC   C2B39956  16.607   4.897   8.264
 3019POPC   C3B39957  16.606   4.923   7.964
 3019POPC   C4B39958  16.627   4.876   7.664
 3020POPC   NC339959  18.290  12.050   9.464
 3020POPC   PO439960  18.299  12.080   9.164
 3020POPC   GL139961  18.249  12.041   8.864
 3020POPC   GL239962  18.151  12.163   8.864
 3020POPC   C1A39963  18.262  12.076   8.564
 3020POPC   D2A39964  18.287  12.089   8.264
 3020POPC   C3A39965  18.285  12.064   7.964
 3020POPC   C4A39966  18.316  12.064   7.664
 3020POPC   C1B39967  18.095  12.238   8.564
 3020POPC   C2B39968  18.153  12.252   8.264
 3020POPC   C3B39969  18.098  12.244   7.964
 3020POPC   C4B39970  18.151  12.301   7.664
 3021POPC   NC339971  43.918  26.851   9.464
 3021POPC   PO439972  43.836  26.821   9.164
 3021POPC   GL139973  43.889  26.866   8.864
 3021POPC   GL239974  44.037  26.841   8.864
 3021POPC   C1A39975  43.899  26.850   8.564
 3021POPC   D2A39976  43.877  26.854   8.264
 3021POPC   C3A39977  43.856  26.773   7.964
 3021POPC   C4A39978  43.852  26.846   7.664
 3021POPC   C1B39979  44.063  26.904   8.564
 3021POPC   C2B39980  44.111  26.979   8.264
 3021POPC   C3B39981  44.139  26.900   7.964
 3021POPC   C4B39982  44.146  26.927   7.664
 3022POPC   NC339983   4.303  40.765   9.464
 3022POPC   PO439984   4.281  40.765   9.164
 3022POPC   GL139985   4.306  40.826   8.864
 3022POPC   GL239986   4.228  40.693   8.864
 3022POPC   C1A39987   4.269  40.759   8.564
 3022POPC   D2A39988   4.329  40.797   8.264
 3022POPC   C3A39989   4.349  40.818   7.964
 3022POPC   C4A39990   4.349  40.831   7.664
 3022POPC   C1B39991   4.050  40.662   8.564
 3022POPC   C2B39992   4.116  40.675   8.264
 3022POPC   C3B39993   4.134  40.686   7.964
 3022POPC   C4B39994   4.092  40.661   7.664
 3023POPC   NC339995  15.149  10.545   9.464
 3023POPC   PO439996  15.225  10.479   9.164
 3023POPC   GL139997  15.165  10.568   8.864
 3023POPC   GL239998  15.170  10.612   8.864
 3023POPC   C1A39999  15.220  10.487   8.564
 3023POPC   D2A40000  15.156  10.518   8.264
 3023POPC   C3A40001  15.138  10.505   7.964
 3023POPC   C4A40002  15.143  10.490   7.664
 3023POPC   C1B40003  15.194  10.724   8.564
 3023POPC   C2B40004  15.188  10.823   8.264
 3023POPC   C3B40005  15.165  10.799   7.964
 3023POPC   C4B40006  15.187  10.742   7.664
 3024POPC   NC340007   6.682   1.205   9.464
 3024POPC   PO440008   6.640   1.199   9.164
 3024POPC   GL140009   6.669   1.250   8.864
 3024POPC   GL240010   6.697   1.150   8.864
 3024POPC   C1A40011   6.617   1.255   8.564
 3024POPC   D2A40012   6.640   1.198   8.264
 3024POPC   C3A40013   6.659   1.258   7.964
 3024POPC   C4A40014   6.635   1.238   7.664
 3024POPC   C1B40015   6.850   1.015   8.564
 3024POPC   C2B40016   6.799   1.047   8.264
 3024POPC   C3B40017   6.810   1.020   7.964
 3024POPC   C4B40018   6.784   1.022   7.664
 3025POPC   NC340019  39.238  36.946   9.464
 3025POPC   PO440020  39.197  36.934   9.164
 3025POPC   GL140021  39.268  36.923   8.864
 3025POPC   GL240022  39.099  36.920   8.864
 3025POPC   C1A40023  39.224  36.919   8.564
 3025POPC   D2A40024  39.278  36.881   8.264
 3025POPC   C3A40025  39.250  36.885   7.964
 3025POPC   C4A40026  39.266  36.859   7.664
 3025POPC   C1B40027  39.009  36.923   8.564
 3025POPC   C2B40028  38.973  36.984   8.264
 3025POPC   C3B40029  39.022  36.910   7.964
 3025POPC   C4B40030  39.025  36.973   7.664
 3026POPC   NC340031  22.140  23.690   9.464
 3026POPC   PO440032  22.167  23.697   9.164
 3026POPC   GL140033  22.130  23.689   8.864
 3026POPC   GL240034  22.069  23.622   8.864
 3026POPC   C1A40035  22.195  23.712   8.564
 3026POPC   D2A40036  22.171  23.704   8.264
 3026POPC   C3A40037  22.174  23.720   7.964
 3026POPC   C4A40038  22.200  23.727   7.664
 3026POPC   C1B40039  22.049  23.529   8.564
 3026POPC   C2B40040  22.051  23.482   8.264
 3026POPC   C3B40041  22.041  23.478   7.964
 3026POPC   C4B40042  22.111  23.487   7.664
 3027POPC   NC340043   7.411  26.008   9.464
 3027POPC   PO440044   7.470  26.048   9.164
 3027POPC   GL140045   7.447  26.075   8.864
 3027POPC   GL240046   7.328  26.103   8.864
 3027POPC   C1A40047   7.401  26.021   8.564
 3027POPC   D2A40048   7.416  26.030   8.264
 3027POPC   C3A40049   7.385  26.075   7.964
 3027POPC   C4A40050   7.419  26.063   7.664
 3027POPC   C1B40051   7.201  26.237   8.564
 3027POPC   C2B40052   7.241  26.254   8.264
 3027POPC   C3B40053   7.233  26.191   7.964
 3027POPC   C4B40054   7.200  26.182   7.664
 3028POPC   NC340055  28.354  42.371   9.464
 3028POPC   PO440056  28.388  42.359   9.164
 3028POPC   GL140057  28.419  42.355   8.864
 3028POPC   GL240058  28.345  42.454   8.864
 3028POPC   C1A40059  28.399  42.335   8.564
 3028POPC   D2A40060  28.319  42.310   8.264
 3028POPC   C3A40061  28.323  42.366   7.964
 3028POPC   C4A40062  28.340  42.324   7.664
 3028POPC   C1B40063  28.337  42.586   8.564
 3028POPC   C2B40064  28.333  42.555   8.264
 3028POPC   C3B40065  28.287  42.538   7.964
 3028POPC   C4B40066  28.283  42.613   7.664
 3029POPC   NC340067  33.831  22.188   9.464
 3029POPC   PO440068  33.825  22.144   9.164
 3029POPC   GL140069  33.798  22.181   8.864
 3029POPC   GL240070  33.680  22.086   8.864
 3029POPC   C1A40071  33.766  22.148   8.564
 3029POPC   D2A40072  33.835  22.148   8.264
 3029POPC   C3A40073  33.806  22.118   7.964
 3029POPC   C4A40074  33.825  22.160   7.664
 3029POPC   C1B40075  33.608  22.024   8.564
 3029POPC   C2B40076  33.610  21.997   8.264
 3029POPC   C3B40077  33.603  22.029   7.964
 3029POPC   C4B40078  33.628  21.954   7.664
 3030POPC   NC340079  12.892  11.281   9.464
 3030POPC   PO440080  12.885  11.282   9.164
 3030POPC   GL140081  12.847  11.282   8.864
 3030POPC   GL240082  12.976  11.244   8.864
 3030POPC   C1A40083  12.900  11.268   8.564
 3030POPC   D2A40084  12.807  11.320   8.264
 3030POPC   C3A40085  12.805  11.344   7.964
 3030POPC   C4A40086  12.850  11.255   7.664
 3030POPC   C1B40087  13.119  11.147   8.564
 3030POPC   C2B40088  13.065  11.166   8.264
 3030POPC   C3B40089  13.062  11.224   7.964
 3030POPC   C4B40090  13.112  11.228   7.664
 3031POPC   NC340091   6.671  43.927   9.464
 3031POPC   PO440092   6.679  43.836   9.164
 3031POPC   GL140093   6.624  43.837   8.864
 3031POPC   GL240094   6.547  43.862   8.864
 3031POPC   C1A40095   6.620  43.860   8.564
 3031POPC   D2A40096   6.635  43.844   8.264
 3031POPC   C3A40097   6.674  43.891   7.964
 3031POPC   C4A40098   6.663  43.882   7.664
 3031POPC   C1B40099   6.448  43.746   8.564
 3031POPC   C2B40100   6.468  43.756   8.264
 3031POPC   C3B40101   6.439  43.784   7.964
 3031POPC   C4B40102   6.475  43.789   7.664
 3032POPC   NC340103  33.066  29.117   9.464
 3032POPC   PO440104  33.073  29.131   9.164
 3032POPC   GL140105  32.984  29.169   8.864
 3032POPC   GL240106  32.965  29.215   8.864
 3032POPC   C1A40107  33.005  29.178   8.564
 3032POPC   D2A40108  33.014  29.190   8.264
 3032POPC   C3A40109  33.068  29.153   7.964
 3032POPC   C4A40110  32.974  29.139   7.664
 3032POPC   C1B40111  32.939  29.358   8.564
 3032POPC   C2B40112  32.891  29.384   8.264
 3032POPC   C3B40113  32.881  29.408   7.964
 3032POPC   C4B40114  32.936  29.363   7.664
 3033POPC   NC340115  24.497  36.891   9.464
 3033POPC   PO440116  24.518  36.928   9.164
 3033POPC   GL140117  24.504  36.935   8.864
 3033POPC   GL240118  24.466  36.810   8.864
 3033POPC   C1A40119  24.445  36.867   8.564
 3033POPC   D2A40120  24.470  36.942   8.264
 3033POPC   C3A40121  24.505  36.895   7.964
 3033POPC   C4A40122  24.518  36.915   7.664
 3033POPC   C1B40123  24.441  36.661   8.564
 3033POPC   C2B40124  24.493  36.624   8.264
 3033POPC   C3B40125  24.435  36.619   7.964
 3033POPC   C4B40126  24.456  36.655   7.664
 3034POPC   NC340127  14.445  29.960   9.464
 3034POPC   PO440128  14.375  29.881   9.164
 3034POPC   GL140129  14.357  29.963   8.864
 3034POPC   GL240130  14.276  29.948   8.864
 3034POPC   C1A40131  14.449  29.970   8.564
 3034POPC   D2A40132  14.386  29.872   8.264
 3034POPC   C3A40133  14.411  29.878   7.964
 3034POPC   C4A40134  14.428  29.941   7.664
 3034POPC   C1B40135  14.114  30.026   8.564
 3034POPC   C2B40136  14.147  29.977   8.264
 3034POPC   C3B40137  14.166  30.025   7.964
 3034POPC   C4B40138  14.117  30.018   7.664
 3035POPC   NC340139   0.469  12.065   9.464
 3035POPC   PO440140   0.459  12.080   9.164
 3035POPC   GL140141   0.470  12.091   8.864
 3035POPC   GL240142   0.452  11.926   8.864
 3035POPC   C1A40143   0.485  12.046   8.564
 3035POPC   D2A40144   0.487  12.111   8.264
 3035POPC   C3A40145   0.465  12.033   7.964
 3035POPC   C4A40146   0.440  12.121   7.664
 3035POPC   C1B40147   0.568  11.890   8.564
 3035POPC   C2B40148   0.584  11.874   8.264
 3035POPC   C3B40149   0.533  11.897   7.964
 3035POPC   C4B40150   0.496  11.848   7.664
 3036POPC   NC340151  43.117   5.823   9.464
 3036POPC   PO440152  43.094   5.916   9.164
 3036POPC   GL140153  43.149   5.914   8.864
 3036POPC   GL240154  43.036   5.857   8.864
 3036POPC   C1A40155  43.091   5.904   8.564
 3036POPC   D2A40156  43.122   5.864   8.264
 3036POPC   C3A40157  43.105   5.887   7.964
 3036POPC   C4A40158  43.134   5.824   7.664
 3036POPC   C1B40159  42.893   5.847   8.564
 3036POPC   C2B40160  42.899   5.827   8.264
 3036POPC   C3B40161  42.827   5.860   7.964
 3036POPC   C4B40162  42.904   5.833   7.664
 3037POPC   NC340163  22.210  33.790   9.464
 3037POPC   PO440164  22.207  33.751   9.164
 3037POPC   GL140165  22.186  33.791   8.864
 3037POPC   GL240166  22.090  33.867   8.864
 3037POPC   C1A40167  22.195  33.800   8.564
 3037POPC   D2A40168  22.133  33.847   8.264
 3037POPC   C3A40169  22.151  33.753   7.964
 3037POPC   C4A40170  22.137  33.785   7.664
 3037POPC   C1B40171  21.906  33.861   8.564
 3037POPC   C2B40172  21.937  33.851   8.264
 3037POPC   C3B40173  21.930  33.913   7.964
 3037POPC   C4B40174  21.935  33.876   7.664
 3038POPC   NC340175  37.709  18.316   9.464
 3038POPC   PO440176  37.639  18.255   9.164
 3038POPC   GL140177  37.675  18.314   8.864
 3038POPC   GL240178  37.758  18.276   8.864
 3038POPC   C1A40179  37.658  18.257   8.564
 3038POPC   D2A40180  37.657  18.273   8.264
 3038POPC   C3A40181  37.638  18.245   7.964
 3038POPC   C4A40182  37.670  18.330   7.664
 3038POPC   C1B40183  37.895  18.259   8.564
 3038POPC   C2B40184  37.947  18.249   8.264
 3038POPC   C3B40185  37.907  18.216   7.964
 3038POPC   C4B40186  37.885  18.207   7.664
 3039POPC   NC340187  34.575  15.213   9.464
 3039POPC   PO440188  34.598  15.173   9.164
 3039POPC   GL140189  34.578  15.153   8.864
 3039POPC   GL240190  34.649  15.188   8.864
 3039POPC   C1A40191  34.573  15.182   8.564
 3039POPC   D2A40192  34.612  15.178   8.264
 3039POPC   C3A40193  34.546  15.145   7.964
 3039POPC   C4A40194  34.583  15.158   7.664
 3039POPC   C1B40195  34.796  15.124   8.564
 3039POPC   C2B40196  34.825  15.083   8.264
 3039POPC   C3B40197  34.864  15.070   7.964
 3039POPC   C4B40198  34.844  15.072   7.664
 3040POPC   NC340199  15.978  29.921   9.464
 3040POPC   PO440200  15.966  29.900   9.164
 3040POPC   GL140201  15.996  29.924   8.864
 3040POPC   GL240202  16.040  29.854   8.864
 3040POPC   C1A40203  15.960  29.908   8.564
 3040POPC   D2A40204  16.002  29.964   8.264
 3040POPC   C3A40205  15.988  29.936   7.964
 3040POPC   C4A40206  15.964  29.948   7.664
 3040POPC   C1B40207  16.124  29.692   8.564
 3040POPC   C2B40208  16.107  29.700   8.264
 3040POPC   C3B40209  16.080  29.683   7.964
 3040POPC   C4B40210  16.155  29.739   7.664
 3041POPC   NC340211  44.658  15.935   9.464
 3041POPC   PO440212  44.656  15.923   9.164
 3041POPC   GL140213  44.666  15.991   8.864
 3041POPC   GL240214  44.582  15.855   8.864
 3041POPC   C1A40215  44.709  15.977   8.564
 3041POPC   D2A40216  44.685  15.958   8.264
 3041POPC   C3A40217  44.646  15.990   7.964
 3041POPC   C4A40218  44.654  15.908   7.664
 3041POPC   C1B40219  44.476  15.821   8.564
 3041POPC   C2B40220  44.436  15.796   8.264
 3041POPC   C3B40221  44.485  15.844   7.964
 3041POPC   C4B40222  44.416  15.860   7.664
 3042POPC   NC340223   1.242  15.956   9.464
 3042POPC   PO440224   1.182  15.974   9.164
 3042POPC   GL140225   1.220  15.942   8.864
 3042POPC   GL240226   1.174  15.821   8.864
 3042POPC   C1A40227   1.180  15.922   8.564
 3042POPC   D2A40228   1.166  15.959   8.264
 3042POPC   C3A40229   1.210  15.969   7.964
 3042POPC   C4A40230   1.182  15.995   7.664
 3042POPC   C1B40231   1.173  15.719   8.564
 3042POPC   C2B40232   1.212  15.713   8.264
 3042POPC   C3B40233   1.262  15.736   7.964
 3042POPC   C4B40234   1.194  15.737   7.664
 3043POPC   NC340235   1.242  42.366   9.464
 3043POPC   PO440236   1.188  42.376   9.164
 3043POPC   GL140237   1.232  42.370   8.864
 3043POPC   GL240238   1.137  42.451   8.864
 3043POPC   C1A40239   1.178  42.342   8.564
 3043POPC   D2A40240   1.203  42.299   8.264
 3043POPC   C3A40241   1.207  42.367   7.964
 3043POPC   C4A40242   1.190  42.290   7.664
 3043POPC   C1B40243   1.045  42.509   8.564
 3043POPC   C2B40244   1.067  42.501   8.264
 3043POPC   C3B40245   0.999  42.502   7.964
 3043POPC   C4B40246   1.060  42.502   7.664
 3044POPC   NC340247   4.282  21.364   9.464
 3044POPC   PO440248   4.359  21.361   9.164
 3044POPC   GL140249   4.274  21.354   8.864
 3044POPC   GL240250   4.320  21.288   8.864
 3044POPC   C1A40251   4.333  21.337   8.564
 3044POPC   D2A40252   4.366  21.338   8.264
 3044POPC   C3A40253   4.285  21.367   7.964
 3044POPC   C4A40254   4.336  21.347   7.664
 3044POPC   C1B40255   4.216  21.105   8.564
 3044POPC   C2B40256   4.183  21.202   8.264
 3044POPC   C3B40257   4.261  21.106   7.964
 3044POPC   C4B40258   4.258  21.145   7.664
 3045POPC   NC340259  22.987   1.223   9.464
 3045POPC   PO440260  22.967   1.193   9.164
 3045POPC   GL140261  22.938   1.238   8.864
 3045POPC   GL240262  23.016   1.285   8.864
 3045POPC   C1A40263  22.897   1.235   8.564
 3045POPC   D2A40264  22.965   1.176   8.264
 3045POPC   C3A40265  22.967   1.224   7.964
 3045POPC   C4A40266  22.912   1.236   7.664
 3045POPC   C1B40267  23.109   1.379   8.564
 3045POPC   C2B40268  23.167   1.385   8.264
 3045POPC   C3B40269  23.119   1.361   7.964
 3045POPC   C4B40270  23.185   1.392   7.664
 3046POPC   NC340271  34.537   2.009   9.464
 3046POPC   PO440272  34.545   2.038   9.164
 3046POPC   GL140273  34.585   2.032   8.864
 3046POPC   GL240274  34.605   2.144   8.864
 3046POPC   C1A40275  34.625   1.977   8.564
 3046POPC   D2A40276  34.558   1.984   8.264
 3046POPC   C3A40277  34.579   1.987   7.964
 3046POPC   C4A40278  34.590   1.952   7.664
 3046POPC   C1B40279  34.687   2.233   8.564
 3046POPC   C2B40280  34.632   2.238   8.264
 3046POPC   C3B40281  34.674   2.235   7.964
 3046POPC   C4B40282  34.633   2.227   7.664
 3047POPC   NC340283  15.915  15.201   9.464
 3047POPC   PO440284  15.965  15.176   9.164
 3047POPC   GL140285  15.991  15.146   8.864
 3047POPC   GL240286  15.958  15.081   8.864
 3047POPC   C1A40287  15.986  15.207   8.564
 3047POPC   D2A40288  15.944  15.177   8.264
 3047POPC   C3A40289  15.986  15.169   7.964
 3047POPC   C4A40290  15.999  15.227   7.664
 3047POPC   C1B40291  15.939  14.943   8.564
 3047POPC   C2B40292  15.952  14.911   8.264
 3047POPC   C3B40293  15.886  14.916   7.964
 3047POPC   C4B40294  15.919  14.970   7.664
 3048POPC   NC340295  22.186  22.917   9.464
 3048POPC   PO440296  22.168  22.977   9.164
 3048POPC   GL140297  22.149  22.927   8.864
 3048POPC   GL240298  22.170  22.836   8.864
 3048POPC   C1A40299  22.158  22.961   8.564
 3048POPC   D2A40300  22.182  22.914   8.264
 3048POPC   C3A40301  22.201  22.913   7.964
 3048POPC   C4A40302  22.121  22.892   7.664
 3048POPC   C1B40303  22.139  22.698   8.564
 3048POPC   C2B40304  22.128  22.662   8.264
 3048POPC   C3B40305  22.137  22.651   7.964
 3048POPC   C4B40306  22.088  22.650   7.664
 3049POPC   NC340307   7.452  37.714   9.464
 3049POPC   PO440308   7.391  37.695   9.164
 3049POPC   GL140309   7.373  37.709   8.864
 3049POPC   GL240310   7.551  37.697   8.864
 3049POPC   C1A40311   7.396  37.684   8.564
 3049POPC   D2A40312   7.413  37.645   8.264
 3049POPC   C3A40313   7.410  37.700   7.964
 3049POPC   C4A40314   7.414  37.679   7.664
 3049POPC   C1B40315   7.675  37.653   8.564
 3049POPC   C2B40316   7.675  37.657   8.264
 3049POPC   C3B40317   7.704  37.645   7.964
 3049POPC   C4B40318   7.710  37.627   7.664
 3050POPC   NC340319  25.285   5.905   9.464
 3050POPC   PO440320  25.266   5.894   9.164
 3050POPC   GL140321  25.263   5.874   8.864
 3050POPC   GL240322  25.110   5.818   8.864
 3050POPC   C1A40323  25.260   5.891   8.564
 3050POPC   D2A40324  25.295   5.855   8.264
 3050POPC   C3A40325  25.238   5.877   7.964
 3050POPC   C4A40326  25.241   5.828   7.664
 3050POPC   C1B40327  24.991   5.852   8.564
 3050POPC   C2B40328  25.018   5.796   8.264
 3050POPC   C3B40329  25.061   5.812   7.964
 3050POPC   C4B40330  25.045   5.868   7.664
 3051POPC   NC340331   8.226  18.318   9.464
 3051POPC   PO440332   8.221  18.271   9.164
 3051POPC   GL140333   8.156  18.261   8.864
 3051POPC   GL240334   8.345  18.287   8.864
 3051POPC   C1A40335   8.232  18.323   8.564
 3051POPC   D2A40336   8.168  18.305   8.264
 3051POPC   C3A40337   8.187  18.331   7.964
 3051POPC   C4A40338   8.169  18.287   7.664
 3051POPC   C1B40339   8.462  18.394   8.564
 3051POPC   C2B40340   8.452  18.369   8.264
 3051POPC   C3B40341   8.460  18.345   7.964
 3051POPC   C4B40342   8.459  18.360   7.664
 3052POPC   NC340343   0.467   0.412   9.464
 3052POPC   PO440344   0.440   0.425   9.164
 3052POPC   GL140345   0.415   0.446   8.864
 3052POPC   GL240346   0.495   0.500   8.864
 3052POPC   C1A40347   0.440   0.485   8.564
 3052POPC   D2A40348   0.407   0.462   8.264
 3052POPC   C3A40349   0.419   0.477   7.964
 3052POPC   C4A40350   0.460   0.476   7.664
 3052POPC   C1B40351   0.588   0.628   8.564
 3052POPC   C2B40352   0.551   0.588   8.264
 3052POPC   C3B40353   0.599   0.639   7.964
 3052POPC   C4B40354   0.570   0.657   7.664
 3053POPC   NC340355  35.376  23.676   9.464
 3053POPC   PO440356  35.318  23.759   9.164
 3053POPC   GL140357  35.356  23.683   8.864
 3053POPC   GL240358  35.429  23.741   8.864
 3053POPC   C1A40359  35.310  23.725   8.564
 3053POPC   D2A40360  35.356  23.721   8.264
 3053POPC   C3A40361  35.360  23.714   7.964
 3053POPC   C4A40362  35.368  23.730   7.664
 3053POPC   C1B40363  35.606  23.829   8.564
 3053POPC   C2B40364  35.605  23.819   8.264
 3053POPC   C3B40365  35.576  23.869   7.964
 3053POPC   C4B40366  35.568  23.801   7.664
 3054POPC   NC340367   5.845   7.444   9.464
 3054POPC   PO440368   5.883   7.451   9.164
 3054POPC   GL140369   5.847   7.439   8.864
 3054POPC   GL240370   5.810   7.316   8.864
 3054POPC   C1A40371   5.871   7.382   8.564
 3054POPC   D2A40372   5.910   7.458   8.264
 3054POPC   C3A40373   5.879   7.412   7.964
 3054POPC   C4A40374   5.848   7.466   7.664
 3054POPC   C1B40375   5.722   7.258   8.564
 3054POPC   C2B40376   5.716   7.268   8.264
 3054POPC   C3B40377   5.744   7.186   7.964
 3054POPC   C4B40378   5.713   7.267   7.664
 3055POPC   NC340379   1.224  21.374   9.464
 3055POPC   PO440380   1.171  21.382   9.164
 3055POPC   GL140381   1.204  21.403   8.864
 3055POPC   GL240382   1.358  21.324   8.864
 3055POPC   C1A40383   1.225  21.372   8.564
 3055POPC   D2A40384   1.256  21.379   8.264
 3055POPC   C3A40385   1.205  21.424   7.964
 3055POPC   C4A40386   1.165  21.384   7.664
 3055POPC   C1B40387   1.432  21.314   8.564
 3055POPC   C2B40388   1.407  21.311   8.264
 3055POPC   C3B40389   1.477  21.333   7.964
 3055POPC   C4B40390   1.458  21.268   7.664
 3056POPC   NC340391  17.469   5.844   9.464
 3056POPC   PO440392  17.492   5.911   9.164
 3056POPC   GL140393  17.464   5.869   8.864
 3056POPC   GL240394  17.594   5.890   8.864
 3056POPC   C1A40395  17.489   5.835   8.564
 3056POPC   D2A40396  17.542   5.826   8.264
 3056POPC   C3A40397  17.543   5.873   7.964
 3056POPC   C4A40398  17.482   5.854   7.664
 3056POPC   C1B40399  17.714   6.028   8.564
 3056POPC   C2B40400  17.757   6.024   8.264
 3056POPC   C3B40401  17.685   6.023   7.964
 3056POPC   C4B40402  17.746   5.971   7.664
 3057POPC   NC340403  38.478  31.496   9.464
 3057POPC   PO440404  38.488  31.486   9.164
 3057POPC   GL140405  38.465  31.479   8.864
 3057POPC   GL240406  38.491  31.324   8.864
 3057POPC   C1A40407  38.423  31.491   8.564
 3057POPC   D2A40408  38.466  31.450   8.264
 3057POPC   C3A40409  38.451  31.436   7.964
 3057POPC   C4A40410  38.497  31.493   7.664
 3057POPC   C1B40411  38.528  31.232   8.564
 3057POPC   C2B40412  38.458  31.183   8.264
 3057POPC   C3B40413  38.507  31.222   7.964
 3057POPC   C4B40414  38.513  31.219   7.664
 3058POPC   NC340415  37.640  40.029   9.464
 3058POPC   PO440416  37.638  40.026   9.164
 3058POPC   GL140417  37.636  39.985   8.864
 3058POPC   GL240418  37.673  40.176   8.864
 3058POPC   C1A40419  37.714  40.022   8.564
 3058POPC   D2A40420  37.711  40.056   8.264
 3058POPC   C3A40421  37.640  39.967   7.964
 3058POPC   C4A40422  37.659  39.993   7.664
 3058POPC   C1B40423  37.748  40.259   8.564
 3058POPC   C2B40424  37.737  40.241   8.264
 3058POPC   C3B40425  37.728  40.290   7.964
 3058POPC   C4B40426  37.794  40.261   7.664
 3059POPC   NC340427   2.736  37.632   9.464
 3059POPC   PO440428   2.721  37.688   9.164
 3059POPC   GL140429   2.784  37.720   8.864
 3059POPC   GL240430   2.841  37.599   8.864
 3059POPC   C1A40431   2.717  37.630   8.564
 3059POPC   D2A40432   2.796  37.704   8.264
 3059POPC   C3A40433   2.769  37.688   7.964
 3059POPC   C4A40434   2.720  37.688   7.664
 3059POPC   C1B40435   2.928  37.480   8.564
 3059POPC   C2B40436   2.927  37.478   8.264
 3059POPC   C3B40437   2.912  37.472   7.964
 3059POPC   C4B40438   2.883  37.499   7.664
 3060POPC   NC340439  33.054   4.325   9.464
 3060POPC   PO440440  32.990   4.367   9.164
 3060POPC   GL140441  33.024   4.345   8.864
 3060POPC   GL240442  32.938   4.231   8.864
 3060POPC   C1A40443  33.074   4.284   8.564
 3060POPC   D2A40444  33.055   4.354   8.264
 3060POPC   C3A40445  33.053   4.276   7.964
 3060POPC   C4A40446  33.059   4.357   7.664
 3060POPC   C1B40447  32.886   4.086   8.564
 3060POPC   C2B40448  32.817   4.094   8.264
 3060POPC   C3B40449  32.841   4.109   7.964
 3060POPC   C4B40450  32.867   4.144   7.664
 3061POPC   NC340451  34.603  24.482   9.464
 3061POPC   PO440452  34.602  24.444   9.164
 3061POPC   GL140453  34.587  24.442   8.864
 3061POPC   GL240454  34.503  24.407   8.864
 3061POPC   C1A40455  34.571  24.502   8.564
 3061POPC   D2A40456  34.601  24.512   8.264
 3061POPC   C3A40457  34.548  24.493   7.964
 3061POPC   C4A40458  34.573  24.522   7.664
 3061POPC   C1B40459  34.337  24.349   8.564
 3061POPC   C2B40460  34.316  24.350   8.264
 3061POPC   C3B40461  34.390  24.374   7.964
 3061POPC   C4B40462  34.384  24.343   7.664
 3062POPC   NC340463  29.914  30.735   9.464
 3062POPC   PO440464  29.895  30.719   9.164
 3062POPC   GL140465  29.883  30.703   8.864
 3062POPC   GL240466  29.862  30.787   8.864
 3062POPC   C1A40467  29.919  30.664   8.564
 3062POPC   D2A40468  29.913  30.713   8.264
 3062POPC   C3A40469  29.906  30.727   7.964
 3062POPC   C4A40470  29.899  30.696   7.664
 3062POPC   C1B40471  29.799  30.890   8.564
 3062POPC   C2B40472  29.800  30.946   8.264
 3062POPC   C3B40473  29.798  30.928   7.964
 3062POPC   C4B40474  29.835  30.947   7.664
 3063POPC   NC340475  36.912  44.659   9.464
 3063POPC   PO440476  36.901  44.686   9.164
 3063POPC   GL140477  36.926  44.620   8.864
 3063POPC   GL240478  37.062  44.673   8.864
 3063POPC   C1A40479  36.891  44.654   8.564
 3063POPC   D2A40480  36.906  44.709   8.264
 3063POPC   C3A40481  36.866  44.625   7.964
 3063POPC   C4A40482  36.931  44.661   7.664
 3063POPC   C1B40483  37.096  44.542   8.564
 3063POPC   C2B40484  37.156  44.635   8.264
 3063POPC   C3B40485  37.188  44.539   7.964
 3063POPC   C4B40486  37.109  44.544   7.664
 3064POPC   NC340487  41.606   8.224   9.464
 3064POPC   PO440488  41.568   8.169   9.164
 3064POPC   GL140489  41.549   8.222   8.864
 3064POPC   GL240490  41.496   8.140   8.864
 3064POPC   C1A40491  41.518   8.166   8.564
 3064POPC   D2A40492  41.571   8.147   8.264
 3064POPC   C3A40493  41.559   8.161   7.964
 3064POPC   C4A40494  41.540   8.186   7.664
 3064POPC   C1B40495  41.385   8.013   8.564
 3064POPC   C2B40496  41.394   8.060   8.264
 3064POPC   C3B40497  41.376   8.052   7.964
 3064POPC   C4B40498  41.349   8.021   7.664
 3065POPC   NC340499  33.053  31.509   9.464
 3065POPC   PO440500  33.044  31.501   9.164
 3065POPC   GL140501  32.975  31.479   8.864
 3065POPC   GL240502  33.163  31.549   8.864
 3065POPC   C1A40503  33.010  31.423   8.564
 3065POPC   D2A40504  33.069  31.430   8.264
 3065POPC   C3A40505  32.980  31.486   7.964
 3065POPC   C4A40506  33.035  31.475   7.664
 3065POPC   C1B40507  33.267  31.565   8.564
 3065POPC   C2B40508  33.197  31.616   8.264
 3065POPC   C3B40509  33.254  31.548   7.964
 3065POPC   C4B40510  33.204  31.629   7.664
 3066POPC   NC340511  26.068  22.970   9.464
 3066POPC   PO440512  26.012  22.917   9.164
 3066POPC   GL140513  26.010  22.949   8.864
 3066POPC   GL240514  26.057  22.803   8.864
 3066POPC   C1A40515  26.048  22.976   8.564
 3066POPC   D2A40516  26.016  22.890   8.264
 3066POPC   C3A40517  26.084  22.982   7.964
 3066POPC   C4A40518  26.059  22.934   7.664
 3066POPC   C1B40519  26.047  22.701   8.564
 3066POPC   C2B40520  26.023  22.681   8.264
 3066POPC   C3B40521  26.048  22.732   7.964
 3066POPC   C4B40522  26.038  22.734   7.664
 3067POPC   NC340523   0.390  20.585   9.464
 3067POPC   PO440524   0.397  20.649   9.164
 3067POPC   GL140525   0.393  20.628   8.864
 3067POPC   GL240526   0.461  20.668   8.864
 3067POPC   C1A40527   0.456  20.563   8.564
 3067POPC   D2A40528   0.389  20.565   8.264
 3067POPC   C3A40529   0.426  20.598   7.964
 3067POPC   C4A40530   0.458  20.611   7.664
 3067POPC   C1B40531   0.588  20.791   8.564
 3067POPC   C2B40532   0.602  20.839   8.264
 3067POPC   C3B40533   0.586  20.845   7.964
 3067POPC   C4B40534   0.598  20.856   7.664
 3068POPC   NC340535  32.201  43.132   9.464
 3068POPC   PO440536  32.289  43.076   9.164
 3068POPC   GL140537  32.297  43.077   8.864
 3068POPC   GL240538  32.287  43.214   8.864
 3068POPC   C1A40539  32.274  43.072   8.564
 3068POPC   D2A40540  32.216  43.107   8.264
 3068POPC   C3A40541  32.249  43.091   7.964
 3068POPC   C4A40542  32.236  43.151   7.664
 3068POPC   C1B40543  32.412  43.289   8.564
 3068POPC   C2B40544  32.423  43.322   8.264
 3068POPC   C3B40545  32.413  43.311   7.964
 3068POPC   C4B40546  32.408  43.278   7.664
 3069POPC   NC340547  42.300  26.769   9.464
 3069POPC   PO440548  42.365  26.835   9.164
 3069POPC   GL140549  42.341  26.798   8.864
 3069POPC   GL240550  42.417  26.674   8.864
 3069POPC   C1A40551  42.337  26.843   8.564
 3069POPC   D2A40552  42.343  26.791   8.264
 3069POPC   C3A40553  42.367  26.787   7.964
 3069POPC   C4A40554  42.378  26.825   7.664
 3069POPC   C1B40555  42.441  26.568   8.564
 3069POPC   C2B40556  42.450  26.624   8.264
 3069POPC   C3B40557  42.491  26.598   7.964
 3069POPC   C4B40558  42.416  26.563   7.664
 3070POPC   NC340559  13.641  12.826   9.464
 3070POPC   PO440560  13.636  12.818   9.164
 3070POPC   GL140561  13.646  12.825   8.864
 3070POPC   GL240562  13.658  12.991   8.864
 3070POPC   C1A40563  13.622  12.829   8.564
 3070POPC   D2A40564  13.582  12.901   8.264
 3070POPC   C3A40565  13.645  12.893   7.964
 3070POPC   C4A40566  13.653  12.818   7.664
 3070POPC   C1B40567  13.667  13.066   8.564
 3070POPC   C2B40568  13.743  13.067   8.264
 3070POPC   C3B40569  13.692  13.052   7.964
 3070POPC   C4B40570  13.747  13.073   7.664
 3071POPC   NC340571  36.098  12.851   9.464
 3071POPC   PO440572  36.096  12.829   9.164
 3071POPC   GL140573  36.117  12.877   8.864
 3071POPC   GL240574  36.109  12.953   8.864
 3071POPC   C1A40575  36.124  12.814   8.564
 3071POPC   D2A40576  36.095  12.807   8.264
 3071POPC   C3A40577  36.144  12.806   7.964
 3071POPC   C4A40578  36.088  12.813   7.664
 3071POPC   C1B40579  35.989  13.118   8.564
 3071POPC   C2B40580  36.029  13.101   8.264
 3071POPC   C3B40581  36.056  13.058   7.964
 3071POPC   C4B40582  36.039  13.040   7.664
 3072POPC   NC340583  12.091  30.722   9.464
 3072POPC   PO440584  12.065  30.710   9.164
 3072POPC   GL140585  12.035  30.692   8.864
 3072POPC   GL240586  12.130  30.577   8.864
 3072POPC   C1A40587  12.098  30.686   8.564
 3072POPC   D2A40588  12.079  30.712   8.264
 3072POPC   C3A40589  12.111  30.697   7.964
 3072POPC   C4A40590  12.026  30.735   7.664
 3072POPC   C1B40591  12.101  30.429   8.564
 3072POPC   C2B40592  12.115  30.487   8.264
 3072POPC   C3B40593  12.163  30.462   7.964
 3072POPC   C4B40594  12.160  30.454   7.664
 3073POPC   NC340595  26.029   4.339   9.464
 3073POPC   PO440596  26.020   4.285   9.164
 3073POPC   GL140597  26.014   4.276   8.864
 3073POPC   GL240598  26.004   4.454   8.864
 3073POPC   C1A40599  26.053   4.342   8.564
 3073POPC   D2A40600  26.062   4.305   8.264
 3073POPC   C3A40601  26.059   4.277   7.964
 3073POPC   C4A40602  26.042   4.330   7.664
 3073POPC   C1B40603  25.877   4.467   8.564
 3073POPC   C2B40604  25.870   4.526   8.264
 3073POPC   C3B40605  25.873   4.457   7.964
 3073POPC   C4B40606  25.855   4.548   7.664
 3074POPC   NC340607   2.745   8.939   9.464
 3074POPC   PO440608   2.741   8.972   9.164
 3074POPC   GL140609   2.738   8.923   8.864
 3074POPC   GL240610   2.741   8.823   8.864
 3074POPC   C1A40611   2.762   8.967   8.564
 3074POPC   D2A40612   2.799   8.998   8.264
 3074POPC   C3A40613   2.730   8.975   7.964
 3074POPC   C4A40614   2.764   9.017   7.664
 3074POPC   C1B40615   2.606   8.777   8.564
 3074POPC   C2B40616   2.671   8.766   8.264
 3074POPC   C3B40617   2.665   8.711   7.964
 3074POPC   C4B40618   2.621   8.717   7.664
 3075POPC   NC340619  29.939  14.399   9.464
 3075POPC   PO440620  29.895  14.375   9.164
 3075POPC   GL140621  29.920  14.368   8.864
 3075POPC   GL240622  29.974  14.305   8.864
 3075POPC   C1A40623  29.952  14.358   8.564
 3075POPC   D2A40624  29.893  14.449   8.264
 3075POPC   C3A40625  29.961  14.371   7.964
 3075POPC   C4A40626  29.884  14.441   7.664
 3075POPC   C1B40627  29.953  14.185   8.564
 3075POPC   C2B40628  29.935  14.144   8.264
 3075POPC   C3B40629  29.921  14.150   7.964
 3075POPC   C4B40630  29.917  14.119   7.664
 3076POPC   NC340631  13.615  37.725   9.464
 3076POPC   PO440632  13.600  37.654   9.164
 3076POPC   GL140633  13.611  37.650   8.864
 3076POPC   GL240634  13.494  37.753   8.864
 3076POPC   C1A40635  13.586  37.728   8.564
 3076POPC   D2A40636  13.593  37.716   8.264
 3076POPC   C3A40637  13.664  37.710   7.964
 3076POPC   C4A40638  13.621  37.710   7.664
 3076POPC   C1B40639  13.451  37.792   8.564
 3076POPC   C2B40640  13.463  37.829   8.264
 3076POPC   C3B40641  13.448  37.875   7.964
 3076POPC   C4B40642  13.389  37.853   7.664
 3077POPC   NC340643  17.538  26.833   9.464
 3077POPC   PO440644  17.484  26.833   9.164
 3077POPC   GL140645  17.510  26.798   8.864
 3077POPC   GL240646  17.440  26.927   8.864
 3077POPC   C1A40647  17.489  26.802   8.564
 3077POPC   D2A40648  17.520  26.779   8.264
 3077POPC   C3A40649  17.468  26.864   7.964
 3077POPC   C4A40650  17.521  26.840   7.664
 3077POPC   C1B40651  17.434  27.029   8.564
 3077POPC   C2B40652  17.390  27.031   8.264
 3077POPC   C3B40653  17.423  27.021   7.964
 3077POPC   C4B40654  17.381  27.095   7.664
 3078POPC   NC340655   9.004  38.439   9.464
 3078POPC   PO440656   8.961  38.461   9.164
 3078POPC   GL140657   9.006  38.464   8.864
 3078POPC   GL240658   9.012  38.310   8.864
 3078POPC   C1A40659   8.937  38.407   8.564
 3078POPC   D2A40660   8.961  38.443   8.264
 3078POPC   C3A40661   8.995  38.431   7.964
 3078POPC   C4A40662   8.989  38.469   7.664
 3078POPC   C1B40663   9.119  38.219   8.564
 3078POPC   C2B40664   9.130  38.243   8.264
 3078POPC   C3B40665   9.093  38.225   7.964
 3078POPC   C4B40666   9.134  38.194   7.664
 3079POPC   NC340667  17.468  16.732   9.464
 3079POPC   PO440668  17.498  16.739   9.164
 3079POPC   GL140669  17.532  16.733   8.864
 3079POPC   GL240670  17.557  16.621   8.864
 3079POPC   C1A40671  17.556  16.765   8.564
 3079POPC   D2A40672  17.538  16.761   8.264
 3079POPC   C3A40673  17.462  16.773   7.964
 3079POPC   C4A40674  17.460  16.756   7.664
 3079POPC   C1B40675  17.529  16.477   8.564
 3079POPC   C2B40676  17.551  16.534   8.264
 3079POPC   C3B40677  17.523  16.477   7.964
 3079POPC   C4B40678  17.539  16.512   7.664
 3080POPC   NC340679  34.602  11.340   9.464
 3080POPC   PO440680  34.532  11.327   9.164
 3080POPC   GL140681  34.613  11.281   8.864
 3080POPC   GL240682  34.477  11.192   8.864
 3080POPC   C1A40683  34.623  11.349   8.564
 3080POPC   D2A40684  34.609  11.340   8.264
 3080POPC   C3A40685  34.625  11.305   7.964
 3080POPC   C4A40686  34.561  11.262   7.664
 3080POPC   C1B40687  34.381  11.169   8.564
 3080POPC   C2B40688  34.363  11.076   8.264
 3080POPC   C3B40689  34.360  11.098   7.964
 3080POPC   C4B40690  34.379  11.126   7.664
 3081POPC   NC340691   9.765   7.405   9.464
 3081POPC   PO440692   9.739   7.433   9.164
 3081POPC   GL140693   9.761   7.391   8.864
 3081POPC   GL240694   9.869   7.351   8.864
 3081POPC   C1A40695   9.781   7.470   8.564
 3081POPC   D2A40696   9.706   7.438   8.264
 3081POPC   C3A40697   9.779   7.439   7.964
 3081POPC   C4A40698   9.754   7.396   7.664
 3081POPC   C1B40699  10.032   7.384   8.564
 3081POPC   C2B40700  10.025   7.356   8.264
 3081POPC   C3B40701  10.026   7.379   7.964
 3081POPC   C4B40702  10.007   7.388   7.664
 3082POPC   NC340703  12.820  21.346   9.464
 3082POPC   PO440704  12.865  21.339   9.164
 3082POPC   GL140705  12.901  21.372   8.864
 3082POPC   GL240706  12.717  21.341   8.864
 3082POPC   C1A40707  12.819  21.380   8.564
 3082POPC   D2A40708  12.857  21.397   8.264
 3082POPC   C3A40709  12.891  21.338   7.964
 3082POPC   C4A40710  12.884  21.385   7.664
 3082POPC   C1B40711  12.571  21.375   8.564
 3082POPC   C2B40712  12.637  21.372   8.264
 3082POPC   C3B40713  12.607  21.395   7.964
 3082POPC   C4B40714  12.625  21.408   7.664
 3083POPC   NC340715  36.113   3.535   9.464
 3083POPC   PO440716  36.168   3.591   9.164
 3083POPC   GL140717  36.116   3.508   8.864
 3083POPC   GL240718  36.081   3.628   8.864
 3083POPC   C1A40719  36.107   3.499   8.564
 3083POPC   D2A40720  36.155   3.551   8.264
 3083POPC   C3A40721  36.122   3.571   7.964
 3083POPC   C4A40722  36.081   3.583   7.664
 3083POPC   C1B40723  36.041   3.790   8.564
 3083POPC   C2B40724  36.084   3.787   8.264
 3083POPC   C3B40725  36.029   3.779   7.964
 3083POPC   C4B40726  36.059   3.790   7.664
 3084POPC   NC340727  17.471  43.902   9.464
 3084POPC   PO440728  17.518  43.904   9.164
 3084POPC   GL140729  17.493  43.873   8.864
 3084POPC   GL240730  17.636  43.795   8.864
 3084POPC   C1A40731  17.514  43.840   8.564
 3084POPC   D2A40732  17.556  43.891   8.264
 3084POPC   C3A40733  17.501  43.845   7.964
 3084POPC   C4A40734  17.544  43.877   7.664
 3084POPC   C1B40735  17.740  43.707   8.564
 3084POPC   C2B40736  17.694  43.739   8.264
 3084POPC   C3B40737  17.691  43.735   7.964
 3084POPC   C4B40738  17.661  43.726   7.664
 3085POPC   NC340739  32.268   5.063   9.464
 3085POPC   PO440740  32.222   5.140   9.164
 3085POPC   GL140741  32.246   5.114   8.864
 3085POPC   GL240742  32.245   4.932   8.864
 3085POPC   C1A40743  32.286   5.063   8.564
 3085POPC   D2A40744  32.235   5.078   8.264
 3085POPC   C3A40745  32.267   5.062   7.964
 3085POPC   C4A40746  32.222   5.069   7.664
 3085POPC   C1B40747  32.325   4.859   8.564
 3085POPC   C2B40748  32.295   4.904   8.264
 3085POPC   C3B40749  32.363   4.883   7.964
 3085POPC   C4B40750  32.341   4.871   7.664
 3086POPC   NC340751  15.198  14.384   9.464
 3086POPC   PO440752  15.134  14.363   9.164
 3086POPC   GL140753  15.171  14.437   8.864
 3086POPC   GL240754  15.095  14.462   8.864
 3086POPC   C1A40755  15.170  14.426   8.564
 3086POPC   D2A40756  15.153  14.422   8.264
 3086POPC   C3A40757  15.134  14.443   7.964
 3086POPC   C4A40758  15.197  14.442   7.664
 3086POPC   C1B40759  15.022  14.520   8.564
 3086POPC   C2B40760  15.019  14.581   8.264
 3086POPC   C3B40761  14.985  14.590   7.964
 3086POPC   C4B40762  15.023  14.583   7.664
 3087POPC   NC340763   3.529  41.598   9.464
 3087POPC   PO440764   3.530  41.517   9.164
 3087POPC   GL140765   3.536  41.531   8.864
 3087POPC   GL240766   3.668  41.499   8.864
 3087POPC   C1A40767   3.534  41.605   8.564
 3087POPC   D2A40768   3.500  41.595   8.264
 3087POPC   C3A40769   3.523  41.563   7.964
 3087POPC   C4A40770   3.494  41.542   7.664
 3087POPC   C1B40771   3.797  41.483   8.564
 3087POPC   C2B40772   3.796  41.429   8.264
 3087POPC   C3B40773   3.763  41.466   7.964
 3087POPC   C4B40774   3.798  41.453   7.664
 3088POPC   NC340775  19.849  19.097   9.464
 3088POPC   PO440776  19.835  19.013   9.164
 3088POPC   GL140777  19.808  19.079   8.864
 3088POPC   GL240778  19.667  19.021   8.864
 3088POPC   C1A40779  19.789  19.063   8.564
 3088POPC   D2A40780  19.796  19.042   8.264
 3088POPC   C3A40781  19.830  19.058   7.964
 3088POPC   C4A40782  19.841  19.070   7.664
 3088POPC   C1B40783  19.555  19.013   8.564
 3088POPC   C2B40784  19.561  18.974   8.264
 3088POPC   C3B40785  19.613  19.037   7.964
 3088POPC   C4B40786  19.595  18.958   7.664
 3089POPC   NC340787  40.800  17.500   9.464
 3089POPC   PO440788  40.823  17.467   9.164
 3089POPC   GL140789  40.783  17.532   8.864
 3089POPC   GL240790  40.876  17.661   8.864
 3089POPC   C1A40791  40.782  17.476   8.564
 3089POPC   D2A40792  40.764  17.518   8.264
 3089POPC   C3A40793  40.824  17.545   7.964
 3089POPC   C4A40794  40.827  17.553   7.664
 3089POPC   C1B40795  40.892  17.726   8.564
 3089POPC   C2B40796  40.909  17.761   8.264
 3089POPC   C3B40797  40.852  17.718   7.964
 3089POPC   C4B40798  40.867  17.698   7.664
 3090POPC   NC340799  17.537   9.721   9.464
 3090POPC   PO440800  17.497   9.709   9.164
 3090POPC   GL140801  17.474   9.723   8.864
 3090POPC   GL240802  17.482   9.905   8.864
 3090POPC   C1A40803  17.520   9.790   8.564
 3090POPC   D2A40804  17.497   9.746   8.264
 3090POPC   C3A40805  17.520   9.729   7.964
 3090POPC   C4A40806  17.474   9.739   7.664
 3090POPC   C1B40807  17.453  10.021   8.564
 3090POPC   C2B40808  17.501   9.962   8.264
 3090POPC   C3B40809  17.487   9.961   7.964
 3090POPC   C4B40810  17.435  10.025   7.664
 3091POPC   NC340811  13.676  26.846   9.464
 3091POPC   PO440812  13.605  26.824   9.164
 3091POPC   GL140813  13.652  26.858   8.864
 3091POPC   GL240814  13.728  26.915   8.864
 3091POPC   C1A40815  13.622  26.814   8.564
 3091POPC   D2A40816  13.636  26.828   8.264
 3091POPC   C3A40817  13.667  26.794   7.964
 3091POPC   C4A40818  13.604  26.770   7.664
 3091POPC   C1B40819  13.769  26.989   8.564
 3091POPC   C2B40820  13.723  27.077   8.264
 3091POPC   C3B40821  13.776  27.074   7.964
 3091POPC   C4B40822  13.720  26.997   7.664
 3092POPC   NC340823  39.263  37.696   9.464
 3092POPC   PO440824  39.210  37.727   9.164
 3092POPC   GL140825  39.252  37.714   8.864
 3092POPC   GL240826  39.149  37.715   8.864
 3092POPC   C1A40827  39.234  37.635   8.564
 3092POPC   D2A40828  39.243  37.642   8.264
 3092POPC   C3A40829  39.229  37.719   7.964
 3092POPC   C4A40830  39.187  37.720   7.664
 3092POPC   C1B40831  39.009  37.802   8.564
 3092POPC   C2B40832  39.045  37.745   8.264
 3092POPC   C3B40833  38.978  37.799   7.964
 3092POPC   C4B40834  38.958  37.835   7.664
 3093POPC   NC340835  22.154   0.396   9.464
 3093POPC   PO440836  22.135   0.487   9.164
 3093POPC   GL140837  22.148   0.411   8.864
 3093POPC   GL240838  22.187   0.315   8.864
 3093POPC   C1A40839  22.126   0.436   8.564
 3093POPC   D2A40840  22.170   0.460   8.264
 3093POPC   C3A40841  22.198   0.404   7.964
 3093POPC   C4A40842  22.192   0.393   7.664
 3093POPC   C1B40843  22.205   0.239   8.564
 3093POPC   C2B40844  22.239   0.221   8.264
 3093POPC   C3B40845  22.158   0.186   7.964
 3093POPC   C4B40846  22.182   0.187   7.664
 3094POPC   NC340847  13.631  31.458   9.464
 3094POPC   PO440848  13.581  31.453   9.164
 3094POPC   GL140849  13.608  31.443   8.864
 3094POPC   GL240850  13.510  31.527   8.864
 3094POPC   C1A40851  13.651  31.513   8.564
 3094POPC   D2A40852  13.662  31.492   8.264
 3094POPC   C3A40853  13.610  31.459   7.964
 3094POPC   C4A40854  13.659  31.425   7.664
 3094POPC   C1B40855  13.408  31.658   8.564
 3094POPC   C2B40856  13.450  31.670   8.264
 3094POPC   C3B40857  13.428  31.648   7.964
 3094POPC   C4B40858  13.480  31.619   7.664
 3095POPC   NC340859   6.606   9.741   9.464
 3095POPC   PO440860   6.596   9.703   9.164
 3095POPC   GL140861   6.650   9.732   8.864
 3095POPC   GL240862   6.776   9.697   8.864
 3095POPC   C1A40863   6.663   9.756   8.564
 3095POPC   D2A40864   6.609   9.737   8.264
 3095POPC   C3A40865   6.644   9.786   7.964
 3095POPC   C4A40866   6.604   9.784   7.664
 3095POPC   C1B40867   6.848   9.610   8.564
 3095POPC   C2B40868   6.869   9.558   8.264
 3095POPC   C3B40869   6.810   9.558   7.964
 3095POPC   C4B40870   6.801   9.558   7.664
 3096POPC   NC340871  12.066   0.445   9.464
 3096POPC   PO440872  12.048   0.487   9.164
 3096POPC   GL140873  12.035   0.413   8.864
 3096POPC   GL240874  11.968   0.322   8.864
 3096POPC   C1A40875  12.100   0.462   8.564
 3096POPC   D2A40876  12.070   0.456   8.264
 3096POPC   C3A40877  12.075   0.403   7.964
 3096POPC   C4A40878  12.050   0.413   7.664
 3096POPC   C1B40879  11.925   0.177   8.564
 3096POPC   C2B40880  11.932   0.201   8.264
 3096POPC   C3B40881  11.924   0.191   7.964
 3096POPC   C4B40882  11.921   0.228   7.664
 3097POPC   NC340883   5.067  26.016   9.464
 3097POPC   PO440884   5.096  26.090   9.164
 3097POPC   GL140885   5.124  26.016   8.864
 3097POPC   GL240886   5.149  25.929   8.864
 3097POPC   C1A40887   5.060  26.019   8.564
 3097POPC   D2A40888   5.074  26.009   8.264
 3097POPC   C3A40889   5.067  26.047   7.964
 3097POPC   C4A40890   5.116  25.996   7.664
 3097POPC   C1B40891   5.189  25.826   8.564
 3097POPC   C2B40892   5.183  25.810   8.264
 3097POPC   C3B40893   5.176  25.762   7.964
 3097POPC   C4B40894   5.211  25.820   7.664
 3098POPC   NC340895  40.796   4.362   9.464
 3098POPC   PO440896  40.749   4.331   9.164
 3098POPC   GL140897  40.749   4.315   8.864
 3098POPC   GL240898  40.714   4.390   8.864
 3098POPC   C1A40899  40.767   4.323   8.564
 3098POPC   D2A40900  40.743   4.342   8.264
 3098POPC   C3A40901  40.734   4.346   7.964
 3098POPC   C4A40902  40.767   4.301   7.664
 3098POPC   C1B40903  40.637   4.562   8.564
 3098POPC   C2B40904  40.685   4.561   8.264
 3098POPC   C3B40905  40.617   4.553   7.964
 3098POPC   C4B40906  40.702   4.512   7.664
 3099POPC   NC340907  18.299  25.237   9.464
 3099POPC   PO440908  18.245  25.303   9.164
 3099POPC   GL140909  18.304  25.238   8.864
 3099POPC   GL240910  18.346  25.337   8.864
 3099POPC   C1A40911  18.284  25.231   8.564
 3099POPC   D2A40912  18.246  25.285   8.264
 3099POPC   C3A40913  18.329  25.266   7.964
 3099POPC   C4A40914  18.301  25.302   7.664
 3099POPC   C1B40915  18.395  25.440   8.564
 3099POPC   C2B40916  18.403  25.482   8.264
 3099POPC   C3B40917  18.386  25.486   7.964
 3099POPC   C4B40918  18.364  25.440   7.664
 3100POPC   NC340919   5.853  11.301   9.464
 3100POPC   PO440920   5.825  11.256   9.164
 3100POPC   GL140921   5.876  11.303   8.864
 3100POPC   GL240922   5.871  11.401   8.864
 3100POPC   C1A40923   5.909  11.339   8.564
 3100POPC   D2A40924   5.899  11.335   8.264
 3100POPC   C3A40925   5.885  11.345   7.964
 3100POPC   C4A40926   5.877  11.317   7.664
 3100POPC   C1B40927   5.936  11.540   8.564
 3100POPC   C2B40928   5.910  11.535   8.264
 3100POPC   C3B40929   5.936  11.580   7.964
 3100POPC   C4B40930   5.894  11.515   7.664
 3101POPC   NC340931   0.407  21.430   9.464
 3101POPC   PO440932   0.411  21.435   9.164
 3101POPC   GL140933   0.438  21.404   8.864
 3101POPC   GL240934   0.391  21.314   8.864
 3101POPC   C1A40935   0.479  21.406   8.564
 3101POPC   D2A40936   0.473  21.346   8.264
 3101POPC   C3A40937   0.423  21.374   7.964
 3101POPC   C4A40938   0.479  21.385   7.664
 3101POPC   C1B40939   0.241  21.228   8.564
 3101POPC   C2B40940   0.275  21.249   8.264
 3101POPC   C3B40941   0.235  21.254   7.964
 3101POPC   C4B40942   0.249  21.239   7.664
 3102POPC   NC340943  19.077  20.583   9.464
 3102POPC   PO440944  19.031  20.571   9.164
 3102POPC   GL140945  19.087  20.596   8.864
 3102POPC   GL240946  18.938  20.611   8.864
 3102POPC   C1A40947  19.063  20.614   8.564
 3102POPC   D2A40948  19.046  20.586   8.264
 3102POPC   C3A40949  19.023  20.616   7.964
 3102POPC   C4A40950  19.074  20.563   7.664
 3102POPC   C1B40951  18.802  20.550   8.564
 3102POPC   C2B40952  18.868  20.538   8.264
 3102POPC   C3B40953  18.857  20.523   7.964
 3102POPC   C4B40954  18.780  20.522   7.664
 3103POPC   NC340955   8.952   9.708   9.464
 3103POPC   PO440956   9.000   9.703   9.164
 3103POPC   GL140957   9.000   9.764   8.864
 3103POPC   GL240958   9.043   9.879   8.864
 3103POPC   C1A40959   8.991   9.747   8.564
 3103POPC   D2A40960   8.969   9.703   8.264
 3103POPC   C3A40961   8.932   9.723   7.964
 3103POPC   C4A40962   8.937   9.752   7.664
 3103POPC   C1B40963   9.169   9.960   8.564
 3103POPC   C2B40964   9.200   9.884   8.264
 3103POPC   C3B40965   9.122   9.887   7.964
 3103POPC   C4B40966   9.170   9.956   7.664
 3104POPC   NC340967  34.615  40.781   9.464
 3104POPC   PO440968  34.539  40.801   9.164
 3104POPC   GL140969  34.540  40.782   8.864
 3104POPC   GL240970  34.697  40.761   8.864
 3104POPC   C1A40971  34.583  40.805   8.564
 3104POPC   D2A40972  34.592  40.827   8.264
 3104POPC   C3A40973  34.599  40.813   7.964
 3104POPC   C4A40974  34.604  40.785   7.664
 3104POPC   C1B40975  34.802  40.707   8.564
 3104POPC   C2B40976  34.829  40.652   8.264
 3104POPC   C3B40977  34.816  40.651   7.964
 3104POPC   C4B40978  34.773  40.717   7.664
 3105POPC   NC340979  15.945   9.018   9.464
 3105POPC   PO440980  15.944   8.987   9.164
 3105POPC   GL140981  16.001   8.973   8.864
 3105POPC   GL240982  15.889   9.047   8.864
 3105POPC   C1A40983  15.934   8.930   8.564
 3105POPC   D2A40984  16.003   8.942   8.264
 3105POPC   C3A40985  15.987   8.997   7.964
 3105POPC   C4A40986  15.972   8.957   7.664
 3105POPC   C1B40987  15.882   9.207   8.564
 3105POPC   C2B40988  15.930   9.206   8.264
 3105POPC   C3B40989  15.923   9.181   7.964
 3105POPC   C4B40990  15.927   9.223   7.664
 3106POPC   NC340991  35.374   1.206   9.464
 3106POPC   PO440992  35.316   1.211   9.164
 3106POPC   GL140993  35.387   1.245   8.864
 3106POPC   GL240994  35.252   1.302   8.864
 3106POPC   C1A40995  35.352   1.216   8.564
 3106POPC   D2A40996  35.360   1.200   8.264
 3106POPC   C3A40997  35.351   1.217   7.964
 3106POPC   C4A40998  35.347   1.225   7.664
 3106POPC   C1B40999  35.172   1.360   8.564
 3106POPC   C2B41000  35.162   1.414   8.264
 3106POPC   C3B41001  35.183   1.399   7.964
 3106POPC   C4B41002  35.135   1.388   7.664
 3107POPC   NC341003  36.159   4.367   9.464
 3107POPC   PO441004  36.164   4.294   9.164
 3107POPC   GL141005  36.079   4.321   8.864
 3107POPC   GL241006  36.164   4.238   8.864
 3107POPC   C1A41007  36.168   4.319   8.564
 3107POPC   D2A41008  36.154   4.298   8.264
 3107POPC   C3A41009  36.110   4.340   7.964
 3107POPC   C4A41010  36.098   4.310   7.664
 3107POPC   C1B41011  36.271   4.107   8.564
 3107POPC   C2B41012  36.262   4.091   8.264
 3107POPC   C3B41013  36.262   4.122   7.964
 3107POPC   C4B41014  36.343   4.114   7.664
 3108POPC   NC341015  33.780  20.622   9.464
 3108POPC   PO441016  33.759  20.616   9.164
 3108POPC   GL141017  33.787  20.600   8.864
 3108POPC   GL241018  33.715  20.528   8.864
 3108POPC   C1A41019  33.766  20.604   8.564
 3108POPC   D2A41020  33.776  20.634   8.264
 3108POPC   C3A41021  33.769  20.621   7.964
 3108POPC   C4A41022  33.763  20.619   7.664
 3108POPC   C1B41023  33.616  20.454   8.564
 3108POPC   C2B41024  33.678  20.441   8.264
 3108POPC   C3B41025  33.623  20.391   7.964
 3108POPC   C4B41026  33.613  20.447   7.664
 3109POPC   NC341027  27.632   1.171   9.464
 3109POPC   PO441028  27.563   1.226   9.164
 3109POPC   GL141029  27.570   1.217   8.864
 3109POPC   GL241030  27.701   1.136   8.864
 3109POPC   C1A41031  27.566   1.224   8.564
 3109POPC   D2A41032  27.640   1.216   8.264
 3109POPC   C3A41033  27.607   1.234   7.964
 3109POPC   C4A41034  27.637   1.256   7.664
 3109POPC   C1B41035  27.871   1.075   8.564
 3109POPC   C2B41036  27.788   1.152   8.264
 3109POPC   C3B41037  27.803   1.090   7.964
 3109POPC   C4B41038  27.810   1.064   7.664
 3110POPC   NC341039  19.857  37.680   9.464
 3110POPC   PO441040  19.854  37.635   9.164
 3110POPC   GL141041  19.829  37.652   8.864
 3110POPC   GL241042  19.924  37.556   8.864
 3110POPC   C1A41043  19.810  37.711   8.564
 3110POPC   D2A41044  19.844  37.644   8.264
 3110POPC   C3A41045  19.785  37.722   7.964
 3110POPC   C4A41046  19.840  37.709   7.664
 3110POPC   C1B41047  20.053  37.471   8.564
 3110POPC   C2B41048  20.062  37.488   8.264
 3110POPC   C3B41049  20.067  37.489   7.964
 3110POPC   C4B41050  20.061  37.485   7.664
 3111POPC   NC341051   2.734  31.456   9.464
 3111POPC   PO441052   2.762  31.448   9.164
 3111POPC   GL141053   2.786  31.475   8.864
 3111POPC   GL241054   2.670  31.507   8.864
 3111POPC   C1A41055   2.738  31.479   8.564
 3111POPC   D2A41056   2.800  31.477   8.264
 3111POPC   C3A41057   2.798  31.476   7.964
 3111POPC   C4A41058   2.785  31.501   7.664
 3111POPC   C1B41059   2.491  31.503   8.564
 3111POPC   C2B41060   2.497  31.502   8.264
 3111POPC   C3B41061   2.522  31.504   7.964
 3111POPC   C4B41062   2.530  31.528   7.664
 3112POPC   NC341063  24.507  34.540   9.464
 3112POPC   PO441064  24.496  34.532   9.164
 3112POPC   GL141065  24.517  34.567   8.864
 3112POPC   GL241066  24.577  34.630   8.864
 3112POPC   C1A41067  24.490  34.560   8.564
 3112POPC   D2A41068  24.498  34.616   8.264
 3112POPC   C3A41069  24.440  34.591   7.964
 3112POPC   C4A41070  24.535  34.601   7.664
 3112POPC   C1B41071  24.699  34.634   8.564
 3112POPC   C2B41072  24.758  34.606   8.264
 3112POPC   C3B41073  24.749  34.620   7.964
 3112POPC   C4B41074  24.700  34.579   7.664
 3113POPC   NC341075  43.139  25.279   9.464
 3113POPC   PO441076  43.083  25.227   9.164
 3113POPC   GL141077  43.141  25.225   8.864
 3113POPC   GL241078  43.034  25.303   8.864
 3113POPC   C1A41079  43.153  25.224   8.564
 3113POPC   D2A41080  43.090  25.286   8.264
 3113POPC   C3A41081  43.156  25.275   7.964
 3113POPC   C4A41082  43.154  25.227   7.664
 3113POPC   C1B41083  42.864  25.380   8.564
 3113POPC   C2B41084  42.885  25.301   8.264
 3113POPC   C3B41085  42.870  25.348   7.964
 3113POPC   C4B41086  42.833  25.313   7.664
 3114POPC   NC341087  20.611   8.194   9.464
 3114POPC   PO441088  20.606   8.147   9.164
 3114POPC   GL141089  20.577   8.227   8.864
 3114POPC   GL241090  20.695   8.182   8.864
 3114POPC   C1A41091  20.573   8.152   8.564
 3114POPC   D2A41092  20.648   8.188   8.264
 3114POPC   C3A41093  20.566   8.205   7.964
 3114POPC   C4A41094  20.646   8.201   7.664
 3114POPC   C1B41095  20.876   8.215   8.564
 3114POPC   C2B41096  20.846   8.233   8.264
 3114POPC   C3B41097  20.825   8.251   7.964
 3114POPC   C4B41098  20.813   8.253   7.664
 3115POPC   NC341099  12.881  43.854   9.464
 3115POPC   PO441100  12.804  43.844   9.164
 3115POPC   GL141101  12.824  43.885   8.864
 3115POPC   GL241102  12.725  43.940   8.864
 3115POPC   C1A41103  12.896  43.896   8.564
 3115POPC   D2A41104  12.899  43.876   8.264
 3115POPC   C3A41105  12.836  43.915   7.964
 3115POPC   C4A41106  12.881  43.899   7.664
 3115POPC   C1B41107  12.664  44.027   8.564
 3115POPC   C2B41108  12.649  43.994   8.264
 3115POPC   C3B41109  12.641  44.025   7.964
 3115POPC   C4B41110  12.706  43.999   7.664
 3116POPC   NC341111  18.325  21.423   9.464
 3116POPC   PO441112  18.287  21.346   9.164
 3116POPC   GL141113  18.251  21.368   8.864
 3116POPC   GL241114  18.120  21.309   8.864
 3116POPC   C1A41115  18.298  21.385   8.564
 3116POPC   D2A41116  18.269  21.357   8.264
 3116POPC   C3A41117  18.306  21.351   7.964
 3116POPC   C4A41118  18.246  21.365   7.664
 3116POPC   C1B41119  18.067  21.255   8.564
 3116POPC   C2B41120  18.086  21.297   8.264
 3116POPC   C3B41121  18.085  21.292   7.964
 3116POPC   C4B41122  18.091  21.243   7.664
 3117POPC   NC341123  16.709  14.394   9.464
 3117POPC   PO441124  16.720  14.360   9.164
 3117POPC   GL141125  16.716  14.388   8.864
 3117POPC   GL241126  16.636  14.359   8.864
 3117POPC   C1A41127  16.724  14.439   8.564
 3117POPC   D2A41128  16.774  14.432   8.264
 3117POPC   C3A41129  16.709  14.374   7.964
 3117POPC   C4A41130  16.684  14.442   7.664
 3117POPC   C1B41131  16.497  14.376   8.564
 3117POPC   C2B41132  16.511  14.443   8.264
 3117POPC   C3B41133  16.493  14.426   7.964
 3117POPC   C4B41134  16.475  14.382   7.664
 3118POPC   NC341135   7.376  26.773   9.464
 3118POPC   PO441136   7.452  26.812   9.164
 3118POPC   GL141137   7.466  26.865   8.864
 3118POPC   GL241138   7.500  26.790   8.864
 3118POPC   C1A41139   7.464  26.801   8.564
 3118POPC   D2A41140   7.469  26.782   8.264
 3118POPC   C3A41141   7.447  26.808   7.964
 3118POPC   C4A41142   7.445  26.776   7.664
 3118POPC   C1B41143   7.678  26.720   8.564
 3118POPC   C2B41144   7.694  26.757   8.264
 3118POPC   C3B41145   7.665  26.761   7.964
 3118POPC   C4B41146   7.645  26.673   7.664
 3119POPC   NC341147   1.943   6.649   9.464
 3119POPC   PO441148   1.990   6.677   9.164
 3119POPC   GL141149   1.966   6.673   8.864
 3119POPC   GL241150   1.881   6.616   8.864
 3119POPC   C1A41151   2.037   6.662   8.564
 3119POPC   D2A41152   1.993   6.628   8.264
 3119POPC   C3A41153   1.995   6.604   7.964
 3119POPC   C4A41154   1.951   6.600   7.664
 3119POPC   C1B41155   1.769   6.477   8.564
 3119POPC   C2B41156   1.767   6.554   8.264
 3119POPC   C3B41157   1.782   6.513   7.964
 3119POPC   C4B41158   1.786   6.565   7.664
 3120POPC   NC341159  37.669  27.625   9.464
 3120POPC   PO441160  37.700  27.546   9.164
 3120POPC   GL141161  37.630  27.643   8.864
 3120POPC   GL241162  37.709  27.485   8.864
 3120POPC   C1A41163  37.649  27.633   8.564
 3120POPC   D2A41164  37.676  27.628   8.264
 3120POPC   C3A41165  37.724  27.579   7.964
 3120POPC   C4A41166  37.706  27.636   7.664
 3120POPC   C1B41167  37.678  27.325   8.564
 3120POPC   C2B41168  37.665  27.293   8.264
 3120POPC   C3B41169  37.721  27.362   7.964
 3120POPC   C4B41170  37.672  27.379   7.664
 3121POPC   NC341171  13.674  43.123   9.464
 3121POPC   PO441172  13.606  43.067   9.164
 3121POPC   GL141173  13.670  43.124   8.864
 3121POPC   GL241174  13.683  42.994   8.864
 3121POPC   C1A41175  13.662  43.134   8.564
 3121POPC   D2A41176  13.590  43.133   8.264
 3121POPC   C3A41177  13.669  43.101   7.964
 3121POPC   C4A41178  13.625  43.121   7.664
 3121POPC   C1B41179  13.733  42.854   8.564
 3121POPC   C2B41180  13.771  42.831   8.264
 3121POPC   C3B41181  13.690  42.866   7.964
 3121POPC   C4B41182  13.752  42.903   7.664
 3122POPC   NC341183  27.571   7.420   5.564
 3122POPC   PO441184  27.590   7.396   5.864
 3122POPC   GL141185  27.613   7.422   6.164
 3122POPC   GL241186  27.697   7.468   6.164
 3122POPC   C1A41187  27.591   7.394   6.464
 3122POPC   D2A41188  27.595   7.417   6.764
 3122POPC   C3A41189  27.599   7.420   7.064
 3122POPC   C4A41190  27.562   7.376   7.364
 3122POPC   C1B41191  27.833   7.481   6.464
 3122POPC   C2B41192  27.867   7.480   6.764
 3122POPC   C3B41193  27.883   7.482   7.064
 3122POPC   C4B41194  27.799   7.480   7.364
 3123POPC   NC341195  32.989   8.956   5.564
 3123POPC   PO441196  32.988   9.020   5.864
 3123POPC   GL141197  33.004   8.967   6.164
 3123POPC   GL241198  32.980   9.061   6.164
 3123POPC   C1A41199  33.043   8.976   6.464
 3123POPC   D2A41200  32.990   8.946   6.764
 3123POPC   C3A41201  33.030   8.932   7.064
 3123POPC   C4A41202  33.011   8.938   7.364
 3123POPC   C1B41203  32.883   9.171   6.464
 3123POPC   C2B41204  32.874   9.201   6.764
 3123POPC   C3B41205  32.891   9.137   7.064
 3123POPC   C4B41206  32.828   9.185   7.364
 3124POPC   NC341207  23.696   1.223   5.564
 3124POPC   PO441208  23.749   1.198   5.864
 3124POPC   GL141209  23.757   1.185   6.164
 3124POPC   GL241210  23.588   1.244   6.164
 3124POPC   C1A41211  23.746   1.248   6.464
 3124POPC   D2A41212  23.760   1.230   6.764
 3124POPC   C3A41213  23.747   1.260   7.064
 3124POPC   C4A41214  23.745   1.207   7.364
 3124POPC   C1B41215  23.521   1.319   6.464
 3124POPC   C2B41216  23.505   1.380   6.764
 3124POPC   C3B41217  23.540   1.322   7.064
 3124POPC   C4B41218  23.472   1.327   7.364
 3125POPC   NC341219  14.378  24.507   5.564
 3125POPC   PO441220  14.357  24.491   5.864
 3125POPC   GL141221  14.390  24.507   6.164
 3125POPC   GL241222  14.298  24.529   6.164
 3125POPC   C1A41223  14.360  24.531   6.464
 3125POPC   D2A41224  14.448  24.461   6.764
 3125POPC   C3A41225  14.379  24.457   7.064
 3125POPC   C4A41226  14.395  24.518   7.364
 3125POPC   C1B41227  14.229  24.570   6.464
 3125POPC   C2B41228  14.168  24.571   6.764
 3125POPC   C3B41229  14.177  24.663   7.064
 3125POPC   C4B41230  14.169  24.593   7.364
 3126POPC   NC341231  26.005  10.496   5.564
 3126POPC   PO441232  26.087  10.513   5.864
 3126POPC   GL141233  26.075  10.527   6.164
 3126POPC   GL241234  25.999  10.682   6.164
 3126POPC   C1A41235  26.075  10.486   6.464
 3126POPC   D2A41236  26.077  10.534   6.764
 3126POPC   C3A41237  26.075  10.541   7.064
 3126POPC   C4A41238  26.065  10.530   7.364
 3126POPC   C1B41239  25.957  10.715   6.464
 3126POPC   C2B41240  25.973  10.791   6.764
 3126POPC   C3B41241  25.987  10.776   7.064
 3126POPC   C4B41242  25.932  10.773   7.364
 3127POPC   NC341243  22.905  20.582   5.564
 3127POPC   PO441244  22.926  20.564   5.864
 3127POPC   GL141245  22.945  20.642   6.164
 3127POPC   GL241246  22.871  20.481   6.164
 3127POPC   C1A41247  22.908  20.602   6.464
 3127POPC   D2A41248  22.896  20.639   6.764
 3127POPC   C3A41249  22.974  20.616   7.064
 3127POPC   C4A41250  22.899  20.599   7.364
 3127POPC   C1B41251  22.911  20.319   6.464
 3127POPC   C2B41252  22.914  20.402   6.764
 3127POPC   C3B41253  22.891  20.319   7.064
 3127POPC   C4B41254  22.918  20.361   7.364
 3128POPC   NC341255  36.127  32.232   5.564
 3128POPC   PO441256  36.103  32.218   5.864
 3128POPC   GL141257  36.079  32.249   6.164
 3128POPC   GL241258  36.086  32.353   6.164
 3128POPC   C1A41259  36.083  32.232   6.464
 3128POPC   D2A41260  36.080  32.235   6.764
 3128POPC   C3A41261  36.118  32.231   7.064
 3128POPC   C4A41262  36.092  32.280   7.364
 3128POPC   C1B41263  36.087  32.513   6.464
 3128POPC   C2B41264  36.055  32.459   6.764
 3128POPC   C3B41265  36.090  32.474   7.064
 3128POPC   C4B41266  36.088  32.539   7.364
 3129POPC   NC341267  13.631  34.552   5.564
 3129POPC   PO441268  13.609  34.541   5.864
 3129POPC   GL141269  13.650  34.579   6.164
 3129POPC   GL241270  13.477  34.576   6.164
 3129POPC   C1A41271  13.583  34.549   6.464
 3129POPC   D2A41272  13.610  34.584   6.764
 3129POPC   C3A41273  13.579  34.614   7.064
 3129POPC   C4A41274  13.613  34.605   7.364
 3129POPC   C1B41275  13.370  34.630   6.464
 3129POPC   C2B41276  13.399  34.679   6.764
 3129POPC   C3B41277  13.435  34.703   7.064
 3129POPC   C4B41278  13.435  34.676   7.364
 3130POPC   NC341279  31.504  12.044   5.564
 3130POPC   PO441280  31.507  12.043   5.864
 3130POPC   GL141281  31.502  12.036   6.164
 3130POPC   GL241282  31.425  12.161   6.164
 3130POPC   C1A41283  31.442  12.062   6.464
 3130POPC   D2A41284  31.434  12.117   6.764
 3130POPC   C3A41285  31.488  12.116   7.064
 3130POPC   C4A41286  31.441  12.060   7.364
 3130POPC   C1B41287  31.372  12.282   6.464
 3130POPC   C2B41288  31.344  12.334   6.764
 3130POPC   C3B41289  31.358  12.286   7.064
 3130POPC   C4B41290  31.335  12.330   7.364
 3131POPC   NC341291  36.947  22.133   5.564
 3131POPC   PO441292  36.864  22.146   5.864
 3131POPC   GL141293  36.893  22.203   6.164
 3131POPC   GL241294  36.994  22.107   6.164
 3131POPC   C1A41295  36.951  22.176   6.464
 3131POPC   D2A41296  36.948  22.186   6.764
 3131POPC   C3A41297  36.933  22.201   7.064
 3131POPC   C4A41298  36.864  22.128   7.364
 3131POPC   C1B41299  37.129  22.104   6.464
 3131POPC   C2B41300  37.149  22.118   6.764
 3131POPC   C3B41301  37.176  22.109   7.064
 3131POPC   C4B41302  37.183  22.083   7.364
 3132POPC   NC341303  20.618  19.826   5.564
 3132POPC   PO441304  20.579  19.789   5.864
 3132POPC   GL141305  20.614  19.792   6.164
 3132POPC   GL241306  20.772  19.861   6.164
 3132POPC   C1A41307  20.657  19.825   6.464
 3132POPC   D2A41308  20.633  19.877   6.764
 3132POPC   C3A41309  20.620  19.813   7.064
 3132POPC   C4A41310  20.567  19.868   7.364
 3132POPC   C1B41311  20.811  19.833   6.464
 3132POPC   C2B41312  20.858  19.826   6.764
 3132POPC   C3B41313  20.820  19.855   7.064
 3132POPC   C4B41314  20.833  19.808   7.364
 3133POPC   NC341315  22.174   6.653   5.564
 3133POPC   PO441316  22.159   6.632   5.864
 3133POPC   GL141317  22.129   6.660   6.164
 3133POPC   GL241318  22.022   6.716   6.164
 3133POPC   C1A41319  22.127   6.679   6.464
 3133POPC   D2A41320  22.161   6.679   6.764
 3133POPC   C3A41321  22.190   6.658   7.064
 3133POPC   C4A41322  22.209   6.694   7.364
 3133POPC   C1B41323  21.886   6.663   6.464
 3133POPC   C2B41324  21.955   6.755   6.764
 3133POPC   C3B41325  21.959   6.756   7.064
 3133POPC   C4B41326  21.963   6.717   7.364
 3134POPC   NC341327  35.305  16.001   5.564
 3134POPC   PO441328  35.336  15.977   5.864
 3134POPC   GL141329  35.388  15.940   6.164
 3134POPC   GL241330  35.321  16.046   6.164
 3134POPC   C1A41331  35.336  15.967   6.464
 3134POPC   D2A41332  35.335  15.937   6.764
 3134POPC   C3A41333  35.388  15.912   7.064
 3134POPC   C4A41334  35.321  15.971   7.364
 3134POPC   C1B41335  35.200  16.110   6.464
 3134POPC   C2B41336  35.220  16.167   6.764
 3134POPC   C3B41337  35.161  16.154   7.064
 3134POPC   C4B41338  35.245  16.128   7.364
 3135POPC   NC341339  10.495  26.838   5.564
 3135POPC   PO441340  10.512  26.791   5.864
 3135POPC   GL141341  10.548  26.776   6.164
 3135POPC   GL241342  10.505  26.976   6.164
 3135POPC   C1A41343  10.481  26.848   6.464
 3135POPC   D2A41344  10.556  26.788   6.764
 3135POPC   C3A41345  10.503  26.778   7.064
 3135POPC   C4A41346  10.520  26.795   7.364
 3135POPC   C1B41347  10.484  27.032   6.464
 3135POPC   C2B41348  10.526  27.099   6.764
 3135POPC   C3B41349  10.498  27.065   7.064
 3135POPC   C4B41350  10.466  27.090   7.364
 3136POPC   NC341351  40.009  19.078   5.564
 3136POPC   PO441352  40.051  19.021   5.864
 3136POPC   GL141353  39.958  19.102   6.164
 3136POPC   GL241354  39.920  19.142   6.164
 3136POPC   C1A41355  40.008  19.108   6.464
 3136POPC   D2A41356  39.978  19.060   6.764
 3136POPC   C3A41357  39.982  19.058   7.064
 3136POPC   C4A41358  39.985  19.066   7.364
 3136POPC   C1B41359  39.860  19.263   6.464
 3136POPC   C2B41360  39.855  19.230   6.764
 3136POPC   C3B41361  39.836  19.223   7.064
 3136POPC   C4B41362  39.828  19.202   7.364
 3137POPC   NC341363  20.567  29.174   5.564
 3137POPC   PO441364  20.641  29.124   5.864
 3137POPC   GL141365  20.583  29.098   6.164
 3137POPC   GL241366  20.575  29.025   6.164
 3137POPC   C1A41367  20.603  29.148   6.464
 3137POPC   D2A41368  20.607  29.138   6.764
 3137POPC   C3A41369  20.600  29.114   7.064
 3137POPC   C4A41370  20.561  29.143   7.364
 3137POPC   C1B41371  20.562  28.867   6.464
 3137POPC   C2B41372  20.549  28.891   6.764
 3137POPC   C3B41373  20.579  28.860   7.064
 3137POPC   C4B41374  20.547  28.922   7.364
 3138POPC   NC341375  15.908  19.025   5.564
 3138POPC   PO441376  15.906  19.010   5.864
 3138POPC   GL141377  15.928  19.096   6.164
 3138POPC   GL241378  15.993  19.128   6.164
 3138POPC   C1A41379  15.959  19.027   6.464
 3138POPC   D2A41380  15.995  19.040   6.764
 3138POPC   C3A41381  15.948  19.042   7.064
 3138POPC   C4A41382  15.909  19.023   7.364
 3138POPC   C1B41383  16.039  19.307   6.464
 3138POPC   C2B41384  16.038  19.272   6.764
 3138POPC   C3B41385  15.997  19.319   7.064
 3138POPC   C4B41386  16.084  19.306   7.364
 3139POPC   NC341387  37.653  12.876   5.564
 3139POPC   PO441388  37.702  12.896   5.864
 3139POPC   GL141389  37.651  12.804   6.164
 3139POPC   GL241390  37.639  12.745   6.164
 3139POPC   C1A41391  37.631  12.818   6.464
 3139POPC   D2A41392  37.665  12.828   6.764
 3139POPC   C3A41393  37.710  12.803   7.064
 3139POPC   C4A41394  37.639  12.830   7.364
 3139POPC   C1B41395  37.664  12.625   6.464
 3139POPC   C2B41396  37.613  12.616   6.764
 3139POPC   C3B41397  37.687  12.620   7.064
 3139POPC   C4B41398  37.623  12.629   7.364
 3140POPC   NC341399   8.996   8.241   5.564
 3140POPC   PO441400   8.994   8.165   5.864
 3140POPC   GL141401   8.953   8.218   6.164
 3140POPC   GL241402   9.042   8.296   6.164
 3140POPC   C1A41403   8.959   8.188   6.464
 3140POPC   D2A41404   8.983   8.149   6.764
 3140POPC   C3A41405   8.982   8.236   7.064
 3140POPC   C4A41406   9.017   8.165   7.364
 3140POPC   C1B41407   9.129   8.445   6.464
 3140POPC   C2B41408   9.120   8.360   6.764
 3140POPC   C3B41409   9.138   8.386   7.064
 3140POPC   C4B41410   9.170   8.415   7.364
 3141POPC   NC341411  42.346  31.470   5.564
 3141POPC   PO441412  42.357  31.442   5.864
 3141POPC   GL141413  42.334  31.510   6.164
 3141POPC   GL241414  42.421  31.362   6.164
 3141POPC   C1A41415  42.325  31.486   6.464
 3141POPC   D2A41416  42.318  31.451   6.764
 3141POPC   C3A41417  42.372  31.440   7.064
 3141POPC   C4A41418  42.340  31.463   7.364
 3141POPC   C1B41419  42.450  31.308   6.464
 3141POPC   C2B41420  42.473  31.302   6.764
 3141POPC   C3B41421  42.432  31.298   7.064
 3141POPC   C4B41422  42.416  31.283   7.364
 3142POPC   NC341423   0.420  21.380   5.564
 3142POPC   PO441424   0.389  21.356   5.864
 3142POPC   GL141425   0.410  21.428   6.164
 3142POPC   GL241426   0.596  21.425   6.164
 3142POPC   C1A41427   0.421  21.369   6.464
 3142POPC   D2A41428   0.398  21.402   6.764
 3142POPC   C3A41429   0.415  21.385   7.064
 3142POPC   C4A41430   0.419  21.419   7.364
 3142POPC   C1B41431   0.709  21.490   6.464
 3142POPC   C2B41432   0.653  21.471   6.764
 3142POPC   C3B41433   0.689  21.456   7.064
 3142POPC   C4B41434   0.694  21.534   7.364
 3143POPC   NC341435  37.651  40.749   5.564
 3143POPC   PO441436  37.684  40.773   5.864
 3143POPC   GL141437  37.704  40.783   6.164
 3143POPC   GL241438  37.641  40.676   6.164
 3143POPC   C1A41439  37.640  40.807   6.464
 3143POPC   D2A41440  37.654  40.825   6.764
 3143POPC   C3A41441  37.699  40.797   7.064
 3143POPC   C4A41442  37.667  40.809   7.364
 3143POPC   C1B41443  37.689  40.544   6.464
 3143POPC   C2B41444  37.681  40.554   6.764
 3143POPC   C3B41445  37.678  40.558   7.064
 3143POPC   C4B41446  37.637  40.526   7.364
 3144POPC   NC341447  40.832  17.483   5.564
 3144POPC   PO441448  40.759  17.509   5.864
 3144POPC   GL141449  40.785  17.531   6.164
 3144POPC   GL241450  40.694  17.365   6.164
 3144POPC   C1A41451  40.744  17.519   6.464
 3144POPC   D2A41452  40.751  17.460   6.764
 3144POPC   C3A41453  40.774  17.517   7.064
 3144POPC   C4A41454  40.763  17.536   7.364
 3144POPC   C1B41455  40.679  17.323   6.464
 3144POPC   C2B41456  40.643  17.294   6.764
 3144POPC   C3B41457  40.630  17.305   7.064
 3144POPC   C4B41458  40.605  17.343   7.364
 3145POPC   NC341459  33.019  33.019   5.564
 3145POPC   PO441460  33.061  33.020   5.864
 3145POPC   GL141461  33.037  33.018   6.164
 3145POPC   GL241462  33.048  33.099   6.164
 3145POPC   C1A41463  33.033  33.009   6.464
 3145POPC   D2A41464  33.007  33.058   6.764
 3145POPC   C3A41465  33.013  32.998   7.064
 3145POPC   C4A41466  33.032  33.024   7.364
 3145POPC   C1B41467  33.035  33.308   6.464
 3145POPC   C2B41468  33.024  33.244   6.764
 3145POPC   C3B41469  33.072  33.261   7.064
 3145POPC   C4B41470  33.057  33.256   7.364
 3146POPC   NC341471  11.253   7.445   5.564
 3146POPC   PO441472  11.345   7.451   5.864
 3146POPC   GL141473  11.336   7.422   6.164
 3146POPC   GL241474  11.204   7.443   6.164
 3146POPC   C1A41475  11.253   7.454   6.464
 3146POPC   D2A41476  11.348   7.378   6.764
 3146POPC   C3A41477  11.333   7.412   7.064
 3146POPC   C4A41478  11.303   7.381   7.364
 3146POPC   C1B41479  11.086   7.522   6.464
 3146POPC   C2B41480  11.049   7.485   6.764
 3146POPC   C3B41481  11.024   7.492   7.064
 3146POPC   C4B41482  11.100   7.518   7.364
 3147POPC   NC341483  39.237  25.998   5.564
 3147POPC   PO441484  39.251  26.004   5.864
 3147POPC   GL141485  39.228  26.034   6.164
 3147POPC   GL241486  39.262  25.918   6.164
 3147POPC   C1A41487  39.236  26.064   6.464
 3147POPC   D2A41488  39.278  26.022   6.764
 3147POPC   C3A41489  39.211  26.067   7.064
 3147POPC   C4A41490  39.201  26.041   7.364
 3147POPC   C1B41491  39.263  25.817   6.464
 3147POPC   C2B41492  39.279  25.779   6.764
 3147POPC   C3B41493  39.203  25.779   7.064
 3147POPC   C4B41494  39.283  25.769   7.364
 3148POPC   NC341495  35.357   5.063   5.564
 3148POPC   PO441496  35.345   5.092   5.864
 3148POPC   GL141497  35.321   5.074   6.164
 3148POPC   GL241498  35.297   5.180   6.164
 3148POPC   C1A41499  35.304   5.118   6.464
 3148POPC   D2A41500  35.369   5.091   6.764
 3148POPC   C3A41501  35.336   5.138   7.064
 3148POPC   C4A41502  35.363   5.062   7.364
 3148POPC   C1B41503  35.245   5.383   6.464
 3148POPC   C2B41504  35.288   5.337   6.764
 3148POPC   C3B41505  35.327   5.337   7.064
 3148POPC   C4B41506  35.267   5.348   7.364
 3149POPC   NC341507   3.573   8.159   5.564
 3149POPC   PO441508   3.523   8.161   5.864
 3149POPC   GL141509   3.535   8.228   6.164
 3149POPC   GL241510   3.530   8.033   6.164
 3149POPC   C1A41511   3.510   8.218   6.464
 3149POPC   D2A41512   3.551   8.246   6.764
 3149POPC   C3A41513   3.509   8.196   7.064
 3149POPC   C4A41514   3.547   8.196   7.364
 3149POPC   C1B41515   3.602   7.934   6.464
 3149POPC   C2B41516   3.586   7.980   6.764
 3149POPC   C3B41517   3.584   7.986   7.064
 3149POPC   C4B41518   3.552   7.991   7.364
 3150POPC   NC341519  36.119  22.189   5.564
 3150POPC   PO441520  36.134  22.178   5.864
 3150POPC   GL141521  36.147  22.163   6.164
 3150POPC   GL241522  36.257  22.058   6.164
 3150POPC   C1A41523  36.173  22.200   6.464
 3150POPC   D2A41524  36.078  22.160   6.764
 3150POPC   C3A41525  36.091  22.204   7.064
 3150POPC   C4A41526  36.172  22.131   7.364
 3150POPC   C1B41527  36.379  22.049   6.464
 3150POPC   C2B41528  36.284  21.996   6.764
 3150POPC   C3B41529  36.346  22.034   7.064
 3150POPC   C4B41530  36.348  22.061   7.364
 3151POPC   NC341531  34.564  29.874   5.564
 3151POPC   PO441532  34.530  29.949   5.864
 3151POPC   GL141533  34.552  29.942   6.164
 3151POPC   GL241534  34.517  29.996   6.164
 3151POPC   C1A41535  34.571  29.931   6.464
 3151POPC   D2A41536  34.571  29.919   6.764
 3151POPC   C3A41537  34.582  29.963   7.064
 3151POPC   C4A41538  34.547  29.970   7.364
 3151POPC   C1B41539  34.498  30.165   6.464
 3151POPC   C2B41540  34.502  30.111   6.764
 3151POPC   C3B41541  34.506  30.150   7.064
 3151POPC   C4B41542  34.439  30.154   7.364
 3152POPC   NC341543  33.769  38.463   5.564
 3152POPC   PO441544  33.818  38.455   5.864
 3152POPC   GL141545  33.772  38.409   6.164
 3152POPC   GL241546  33.892  38.541   6.164
 3152POPC   C1A41547  33.799  38.448   6.464
 3152POPC   D2A41548  33.789  38.413   6.764
 3152POPC   C3A41549  33.757  38.505   7.064
 3152POPC   C4A41550  33.822  38.429   7.364
 3152POPC   C1B41551  33.950  38.669   6.464
 3152POPC   C2B41552  33.940  38.679   6.764
 3152POPC   C3B41553  33.923  38.681   7.064
 3152POPC   C4B41554  33.901  38.630   7.364
 3153POPC   NC341555  44.684  19.043   5.564
 3153POPC   PO441556  44.648  19.095   5.864
 3153POPC   GL141557  44.646  19.061   6.164
 3153POPC   GL241558  44.696  18.976   6.164
 3153POPC   C1A41559  44.642  19.084   6.464
 3153POPC   D2A41560  44.696  19.009   6.764
 3153POPC   C3A41561  44.702  19.021   7.064
 3153POPC   C4A41562  44.680  19.047   7.364
 3153POPC   C1B41563  44.821  18.808   6.464
 3153POPC   C2B41564  44.784  18.898   6.764
 3153POPC   C3B41565  44.819  18.879   7.064
 3153POPC   C4B41566  44.773  18.820   7.364
 3154POPC   NC341567  19.051  43.132   5.564
 3154POPC   PO441568  19.062  43.106   5.864
 3154POPC   GL141569  19.016  43.107   6.164
 3154POPC   GL241570  19.103  43.175   6.164
 3154POPC   C1A41571  19.023  43.086   6.464
 3154POPC   D2A41572  19.011  43.122   6.764
 3154POPC   C3A41573  19.093  43.122   7.064
 3154POPC   C4A41574  19.032  43.129   7.364
 3154POPC   C1B41575  19.257  43.291   6.464
 3154POPC   C2B41576  19.248  43.242   6.764
 3154POPC   C3B41577  19.200  43.308   7.064
 3154POPC   C4B41578  19.257  43.317   7.364
 3155POPC   NC341579   2.797   2.747   5.564
 3155POPC   PO441580   2.722   2.763   5.864
 3155POPC   GL141581   2.718   2.734   6.164
 3155POPC   GL241582   2.790   2.919   6.164
 3155POPC   C1A41583   2.749   2.812   6.464
 3155POPC   D2A41584   2.809   2.749   6.764
 3155POPC   C3A41585   2.765   2.750   7.064
 3155POPC   C4A41586   2.720   2.790   7.364
 3155POPC   C1B41587   2.764   3.062   6.464
 3155POPC   C2B41588   2.736   3.041   6.764
 3155POPC   C3B41589   2.761   3.049   7.064
 3155POPC   C4B41590   2.800   3.032   7.364
 3156POPC   NC341591  15.987  12.834   5.564
 3156POPC   PO441592  15.975  12.806   5.864
 3156POPC   GL141593  15.973  12.828   6.164
 3156POPC   GL241594  15.847  12.787   6.164
 3156POPC   C1A41595  15.991  12.814   6.464
 3156POPC   D2A41596  15.974  12.833   6.764
 3156POPC   C3A41597  15.997  12.848   7.064
 3156POPC   C4A41598  15.935  12.842   7.364
 3156POPC   C1B41599  15.812  12.677   6.464
 3156POPC   C2B41600  15.848  12.651   6.764
 3156POPC   C3B41601  15.783  12.643   7.064
 3156POPC   C4B41602  15.823  12.668   7.364
 3157POPC   NC341603   6.654  27.547   5.564
 3157POPC   PO441604   6.635  27.623   5.864
 3157POPC   GL141605   6.610  27.570   6.164
 3157POPC   GL241606   6.561  27.464   6.164
 3157POPC   C1A41607   6.621  27.563   6.464
 3157POPC   D2A41608   6.606  27.641   6.764
 3157POPC   C3A41609   6.640  27.560   7.064
 3157POPC   C4A41610   6.671  27.628   7.364
 3157POPC   C1B41611   6.501  27.319   6.464
 3157POPC   C2B41612   6.535  27.315   6.764
 3157POPC   C3B41613   6.585  27.408   7.064
 3157POPC   C4B41614   6.590  27.392   7.364
 3158POPC   NC341615  29.140  43.925   5.564
 3158POPC   PO441616  29.176  43.917   5.864
 3158POPC   GL141617  29.157  43.864   6.164
 3158POPC   GL241618  29.251  43.778   6.164
 3158POPC   C1A41619  29.146  43.907   6.464
 3158POPC   D2A41620  29.170  43.911   6.764
 3158POPC   C3A41621  29.148  43.847   7.064
 3158POPC   C4A41622  29.162  43.861   7.364
 3158POPC   C1B41623  29.270  43.697   6.464
 3158POPC   C2B41624  29.350  43.682   6.764
 3158POPC   C3B41625  29.268  43.701   7.064
 3158POPC   C4B41626  29.298  43.740   7.364
 3159POPC   NC341627  15.938  36.114   5.564
 3159POPC   PO441628  15.975  36.173   5.864
 3159POPC   GL141629  15.964  36.105   6.164
 3159POPC   GL241630  15.831  36.033   6.164
 3159POPC   C1A41631  15.966  36.168   6.464
 3159POPC   D2A41632  15.975  36.162   6.764
 3159POPC   C3A41633  15.947  36.142   7.064
 3159POPC   C4A41634  15.945  36.151   7.364
 3159POPC   C1B41635  15.779  35.900   6.464
 3159POPC   C2B41636  15.790  35.952   6.764
 3159POPC   C3B41637  15.800  35.943   7.064
 3159POPC   C4B41638  15.822  35.922   7.364
 3160POPC   NC341639  22.180   3.559   5.564
 3160POPC   PO441640  22.155   3.551   5.864
 3160POPC   GL141641  22.191   3.493   6.164
 3160POPC   GL241642  22.027   3.604   6.164
 3160POPC   C1A41643  22.128   3.543   6.464
 3160POPC   D2A41644  22.198   3.513   6.764
 3160POPC   C3A41645  22.157   3.541   7.064
 3160POPC   C4A41646  22.115   3.497   7.364
 3160POPC   C1B41647  21.994   3.662   6.464
 3160POPC   C2B41648  21.910   3.658   6.764
 3160POPC   C3B41649  21.950   3.691   7.064
 3160POPC   C4B41650  21.992   3.684   7.364
 3161POPC   NC341651  24.441   0.455   5.564
 3161POPC   PO441652  24.524   0.471   5.864
 3161POPC   GL141653  24.525   0.482   6.164
 3161POPC   GL241654  24.342   0.460   6.164
 3161POPC   C1A41655  24.509   0.472   6.464
 3161POPC   D2A41656  24.499   0.421   6.764
 3161POPC   C3A41657  24.463   0.422   7.064
 3161POPC   C4A41658  24.462   0.389   7.364
 3161POPC   C1B41659  24.276   0.549   6.464
 3161POPC   C2B41660  24.326   0.582   6.764
 3161POPC   C3B41661  24.274   0.565   7.064
 3161POPC   C4B41662  24.234   0.555   7.364
 3162POPC   NC341663  39.224  42.349   5.564
 3162POPC   PO441664  39.218  42.352   5.864
 3162POPC   GL141665  39.259  42.344   6.164
 3162POPC   GL241666  39.263  42.481   6.164
 3162POPC   C1A41667  39.249  42.314   6.464
 3162POPC   D2A41668  39.255  42.324   6.764
 3162POPC   C3A41669  39.276  42.361   7.064
 3162POPC   C4A41670  39.210  42.336   7.364
 3162POPC   C1B41671  39.221  42.577   6.464
 3162POPC   C2B41672  39.189  42.556   6.764
 3162POPC   C3B41673  39.207  42.630   7.064
 3162POPC   C4B41674  39.258  42.546   7.364
 3163POPC   NC341675  17.536  43.062   5.564
 3163POPC   PO441676  17.501  43.109   5.864
 3163POPC   GL141677  17.492  43.158   6.164
 3163POPC   GL241678  17.534  43.227   6.164
 3163POPC   C1A41679  17.516  43.120   6.464
 3163POPC   D2A41680  17.475  43.090   6.764
 3163POPC   C3A41681  17.542  43.117   7.064
 3163POPC   C4A41682  17.525  43.088   7.364
 3163POPC   C1B41683  17.501  43.316   6.464
 3163POPC   C2B41684  17.480  43.357   6.764
 3163POPC   C3B41685  17.531  43.390   7.064
 3163POPC   C4B41686  17.467  43.320   7.364
 3164POPC   NC341687   5.863  38.485   5.564
 3164POPC   PO441688   5.908  38.445   5.864
 3164POPC   GL141689   5.854  38.451   6.164
 3164POPC   GL241690   5.727  38.375   6.164
 3164POPC   C1A41691   5.820  38.461   6.464
 3164POPC   D2A41692   5.919  38.437   6.764
 3164POPC   C3A41693   5.903  38.438   7.064
 3164POPC   C4A41694   5.901  38.435   7.364
 3164POPC   C1B41695   5.677  38.320   6.464
 3164POPC   C2B41696   5.624  38.280   6.764
 3164POPC   C3B41697   5.631  38.348   7.064
 3164POPC   C4B41698   5.669  38.362   7.364
 3165POPC   NC341699  27.620  36.912   5.564
 3165POPC   PO441700  27.614  36.897   5.864
 3165POPC   GL141701  27.586  36.927   6.164
 3165POPC   GL241702  27.735  36.980   6.164
 3165POPC   C1A41703  27.596  36.897   6.464
 3165POPC   D2A41704  27.618  36.915   6.764
 3165POPC   C3A41705  27.574  36.900   7.064
 3165POPC   C4A41706  27.554  36.886   7.364
 3165POPC   C1B41707  27.779  36.943   6.464
 3165POPC   C2B41708  27.818  37.041   6.764
 3165POPC   C3B41709  27.876  37.011   7.064
 3165POPC   C4B41710  27.844  36.944   7.364
 3166POPC   NC341711  33.003   4.295   5.564
 3166POPC   PO441712  33.069   4.302   5.864
 3166POPC   GL141713  33.062   4.307   6.164
 3166POPC   GL241714  32.940   4.424   6.164
 3166POPC   C1A41715  33.069   4.332   6.464
 3166POPC   D2A41716  33.062   4.276   6.764
 3166POPC   C3A41717  32.991   4.321   7.064
 3166POPC   C4A41718  33.031   4.342   7.364
 3166POPC   C1B41719  32.926   4.554   6.464
 3166POPC   C2B41720  32.904   4.571   6.764
 3166POPC   C3B41721  32.942   4.533   7.064
 3166POPC   C4B41722  32.901   4.573   7.364
 3167POPC   NC341723  36.888  30.668   5.564
 3167POPC   PO441724  36.908  30.742   5.864
 3167POPC   GL141725  36.939  30.726   6.164
 3167POPC   GL241726  37.024  30.703   6.164
 3167POPC   C1A41727  36.907  30.732   6.464
 3167POPC   D2A41728  36.877  30.678   6.764
 3167POPC   C3A41729  36.930  30.676   7.064
 3167POPC   C4A41730  36.929  30.699   7.364
 3167POPC   C1B41731  37.197  30.758   6.464
 3167POPC   C2B41732  37.115  30.715   6.764
 3167POPC   C3B41733  37.120  30.718   7.064
 3167POPC   C4B41734  37.111  30.770   7.364
 3168POPC   NC341735  28.416  15.150   5.564
 3168POPC   PO441736  28.402  15.192   5.864
 3168POPC   GL141737  28.415  15.132   6.164
 3168POPC   GL241738  28.419  15.218   6.164
 3168POPC   C1A41739  28.416  15.163   6.464
 3168POPC   D2A41740  28.411  15.203   6.764
 3168POPC   C3A41741  28.366  15.217   7.064
 3168POPC   C4A41742  28.322  15.147   7.364
 3168POPC   C1B41743  28.580  15.381   6.464
 3168POPC   C2B41744  28.521  15.342   6.764
 3168POPC   C3B41745  28.522  15.349   7.064
 3168POPC   C4B41746  28.521  15.295   7.364
 3169POPC   NC341747  22.113  33.778   5.564
 3169POPC   PO441748  22.137  33.779   5.864
 3169POPC   GL141749  22.185  33.844   6.164
 3169POPC   GL241750  22.070  33.704   6.164
 3169POPC   C1A41751  22.197  33.765   6.464
 3169POPC   D2A41752  22.146  33.761   6.764
 3169POPC   C3A41753  22.180  33.780   7.064
 3169POPC   C4A41754  22.157  33.835   7.364
 3169POPC   C1B41755  22.049  33.601   6.464
 3169POPC   C2B41756  21.981  33.564   6.764
 3169POPC   C3B41757  21.975  33.584   7.064
 3169POPC   C4B41758  22.053  33.588   7.364
 3170POPC   NC341759  33.751  37.654   5.564
 3170POPC   PO441760  33.752  37.704   5.864
 3170POPC   GL141761  33.813  37.649   6.164
 3170POPC   GL241762  33.716  37.801   6.164
 3170POPC   C1A41763  33.798  37.664   6.464
 3170POPC   D2A41764  33.769  37.713   6.764
 3170POPC   C3A41765  33.821  37.712   7.064
 3170POPC   C4A41766  33.832  37.701   7.364
 3170POPC   C1B41767  33.557  37.853   6.464
 3170POPC   C2B41768  33.563  37.851   6.764
 3170POPC   C3B41769  33.555  37.814   7.064
 3170POPC   C4B41770  33.599  37.783   7.364
 3171POPC   NC341771  33.837  15.187   5.564
 3171POPC   PO441772  33.758  15.152   5.864
 3171POPC   GL141773  33.840  15.185   6.164
 3171POPC   GL241774  33.777  15.028   6.164
 3171POPC   C1A41775  33.796  15.137   6.464
 3171POPC   D2A41776  33.800  15.176   6.764
 3171POPC   C3A41777  33.823  15.147   7.064
 3171POPC   C4A41778  33.768  15.200   7.364
 3171POPC   C1B41779  33.762  14.924   6.464
 3171POPC   C2B41780  33.783  14.933   6.764
 3171POPC   C3B41781  33.798  14.911   7.064
 3171POPC   C4B41782  33.833  14.976   7.364
 3172POPC   NC341783  16.738  36.933   5.564
 3172POPC   PO441784  16.773  36.947   5.864
 3172POPC   GL141785  16.750  36.864   6.164
 3172POPC   GL241786  16.837  37.056   6.164
 3172POPC   C1A41787  16.743  36.898   6.464
 3172POPC   D2A41788  16.700  36.893   6.764
 3172POPC   C3A41789  16.733  36.891   7.064
 3172POPC   C4A41790  16.699  36.870   7.364
 3172POPC   C1B41791  16.906  37.155   6.464
 3172POPC   C2B41792  16.907  37.163   6.764
 3172POPC   C3B41793  16.857  37.086   7.064
 3172POPC   C4B41794  16.853  37.079   7.364
 3173POPC   NC341795   9.753  25.290   5.564
 3173POPC   PO441796   9.777  25.231   5.864
 3173POPC   GL141797   9.713  25.310   6.164
 3173POPC   GL241798   9.640  25.216   6.164
 3173POPC   C1A41799   9.714  25.232   6.464
 3173POPC   D2A41800   9.785  25.304   6.764
 3173POPC   C3A41801   9.747  25.288   7.064
 3173POPC   C4A41802   9.781  25.227   7.364
 3173POPC   C1B41803   9.523  25.277   6.464
 3173POPC   C2B41804   9.548  25.271   6.764
 3173POPC   C3B41805   9.472  25.261   7.064
 3173POPC   C4B41806   9.452  25.287   7.364
 3174POPC   NC341807   5.829  37.676   5.564
 3174POPC   PO441808   5.879  37.715   5.864
 3174POPC   GL141809   5.893  37.648   6.164
 3174POPC   GL241810   5.981  37.686   6.164
 3174POPC   C1A41811   5.903  37.686   6.464
 3174POPC   D2A41812   5.903  37.692   6.764
 3174POPC   C3A41813   5.919  37.654   7.064
 3174POPC   C4A41814   5.887  37.710   7.364
 3174POPC   C1B41815   6.120  37.645   6.464
 3174POPC   C2B41816   6.138  37.680   6.764
 3174POPC   C3B41817   6.113  37.699   7.064
 3174POPC   C4B41818   6.129  37.660   7.364
 3175POPC   NC341819   6.617  14.426   5.564
 3175POPC   PO441820   6.678  14.452   5.864
 3175POPC   GL141821   6.648  14.407   6.164
 3175POPC   GL241822   6.569  14.338   6.164
 3175POPC   C1A41823   6.692  14.357   6.464
 3175POPC   D2A41824   6.605  14.430   6.764
 3175POPC   C3A41825   6.678  14.441   7.064
 3175POPC   C4A41826   6.607  14.393   7.364
 3175POPC   C1B41827   6.503  14.236   6.464
 3175POPC   C2B41828   6.415  14.255   6.764
 3175POPC   C3B41829   6.505  14.255   7.064
 3175POPC   C4B41830   6.411  14.189   7.364
 3176POPC   NC341831  42.319  38.489   5.564
 3176POPC   PO441832  42.289  38.461   5.864
 3176POPC   GL141833  42.320  38.486   6.164
 3176POPC   GL241834  42.167  38.434   6.164
 3176POPC   C1A41835  42.296  38.479   6.464
 3176POPC   D2A41836  42.337  38.487   6.764
 3176POPC   C3A41837  42.378  38.461   7.064
 3176POPC   C4A41838  42.360  38.458   7.364
 3176POPC   C1B41839  42.114  38.392   6.464
 3176POPC   C2B41840  42.140  38.391   6.764
 3176POPC   C3B41841  42.064  38.387   7.064
 3176POPC   C4B41842  42.096  38.343   7.364
 3177POPC   NC341843   2.769  18.303   5.564
 3177POPC   PO441844   2.784  18.264   5.864
 3177POPC   GL141845   2.783  18.275   6.164
 3177POPC   GL241846   2.675  18.246   6.164
 3177POPC   C1A41847   2.742  18.237   6.464
 3177POPC   D2A41848   2.735  18.308   6.764
 3177POPC   C3A41849   2.802  18.321   7.064
 3177POPC   C4A41850   2.766  18.255   7.364
 3177POPC   C1B41851   2.504  18.298   6.464
 3177POPC   C2B41852   2.514  18.233   6.764
 3177POPC   C3B41853   2.554  18.270   7.064
 3177POPC   C4B41854   2.534  18.304   7.364
 3178POPC   NC341855   7.397  30.685   5.564
 3178POPC   PO441856   7.413  30.673   5.864
 3178POPC   GL141857   7.463  30.694   6.164
 3178POPC   GL241858   7.534  30.553   6.164
 3178POPC   C1A41859   7.463  30.652   6.464
 3178POPC   D2A41860   7.456  30.649   6.764
 3178POPC   C3A41861   7.462  30.653   7.064
 3178POPC   C4A41862   7.464  30.688   7.364
 3178POPC   C1B41863   7.604  30.490   6.464
 3178POPC   C2B41864   7.536  30.529   6.764
 3178POPC   C3B41865   7.540  30.541   7.064
 3178POPC   C4B41866   7.567  30.536   7.364
 3179POPC   NC341867  36.942  27.574   5.564
 3179POPC   PO441868  36.864  27.573   5.864
 3179POPC   GL141869  36.890  27.548   6.164
 3179POPC   GL241870  36.942  27.746   6.164
 3179POPC   C1A41871  36.920  27.595   6.464
 3179POPC   D2A41872  36.856  27.557   6.764
 3179POPC   C3A41873  36.854  27.577   7.064
 3179POPC   C4A41874  36.879  27.568   7.364
 3179POPC   C1B41875  37.024  27.757   6.464
 3179POPC   C2B41876  37.078  27.782   6.764
 3179POPC   C3B41877  37.085  27.755   7.064
 3179POPC   C4B41878  37.021  27.829   7.364
 3180POPC   NC341879  10.502  19.854   5.564
 3180POPC   PO441880  10.521  19.870   5.864
 3180POPC   GL141881  10.526  19.864   6.164
 3180POPC   GL241882  10.476  19.997   6.164
 3180POPC   C1A41883  10.484  19.846   6.464
 3180POPC   D2A41884  10.483  19.820   6.764
 3180POPC   C3A41885  10.536  19.837   7.064
 3180POPC   C4A41886  10.572  19.846   7.364
 3180POPC   C1B41887  10.532  20.069   6.464
 3180POPC   C2B41888  10.504  20.069   6.764
 3180POPC   C3B41889  10.479  20.033   7.064
 3180POPC   C4B41890  10.538  20.055   7.364
 3181POPC   NC341891  22.975   1.180   5.564
 3181POPC   PO441892  22.964   1.229   5.864
 3181POPC   GL141893  22.910   1.260   6.164
 3181POPC   GL241894  22.784   1.240   6.164
 3181POPC   C1A41895  22.907   1.203   6.464
 3181POPC   D2A41896  22.912   1.169   6.764
 3181POPC   C3A41897  22.984   1.206   7.064
 3181POPC   C4A41898  22.968   1.248   7.364
 3181POPC   C1B41899  22.685   1.262   6.464
 3181POPC   C2B41900  22.735   1.269   6.764
 3181POPC   C3B41901  22.644   1.269   7.064
 3181POPC   C4B41902  22.677   1.267   7.364
 3182POPC   NC341903  31.483  12.876   5.564
 3182POPC   PO441904  31.455  12.883   5.864
 3182POPC   GL141905  31.424  12.827   6.164
 3182POPC   GL241906  31.319  12.745   6.164
 3182POPC   C1A41907  31.443  12.885   6.464
 3182POPC   D2A41908  31.436  12.842   6.764
 3182POPC   C3A41909  31.500  12.867   7.064
 3182POPC   C4A41910  31.488  12.851   7.364
 3182POPC   C1B41911  31.203  12.762   6.464
 3182POPC   C2B41912  31.286  12.754   6.764
 3182POPC   C3B41913  31.245  12.702   7.064
 3182POPC   C4B41914  31.206  12.691   7.364
 3183POPC   NC341915  17.508  42.308   5.564
 3183POPC   PO441916  17.479  42.333   5.864
 3183POPC   GL141917  17.530  42.345   6.164
 3183POPC   GL241918  17.542  42.185   6.164
 3183POPC   C1A41919  17.548  42.349   6.464
 3183POPC   D2A41920  17.463  42.350   6.764
 3183POPC   C3A41921  17.556  42.307   7.064
 3183POPC   C4A41922  17.516  42.366   7.364
 3183POPC   C1B41923  17.591  42.089   6.464
 3183POPC   C2B41924  17.672  42.158   6.764
 3183POPC   C3B41925  17.632  42.135   7.064
 3183POPC   C4B41926  17.609  42.109   7.364
 3184POPC   NC341927  44.690  19.845   5.564
 3184POPC   PO441928  44.618  19.867   5.864
 3184POPC   GL141929  44.631  19.836   6.164
 3184POPC   GL241930  44.556  19.696   6.164
 3184POPC   C1A41931  44.675  19.876   6.464
 3184POPC   D2A41932  44.614  19.788   6.764
 3184POPC   C3A41933  44.693  19.813   7.064
 3184POPC   C4A41934  44.615  19.881   7.364
 3184POPC   C1B41935  44.543  19.652   6.464
 3184POPC   C2B41936  44.572  19.624   6.764
 3184POPC   C3B41937  44.574  19.599   7.064
 3184POPC   C4B41938  44.575  19.566   7.364
 3185POPC   NC341939  35.319  14.368   5.564
 3185POPC   PO441940  35.395  14.440   5.864
 3185POPC   GL141941  35.355  14.388   6.164
 3185POPC   GL241942  35.274  14.336   6.164
 3185POPC   C1A41943  35.379  14.365   6.464
 3185POPC   D2A41944  35.343  14.417   6.764
 3185POPC   C3A41945  35.400  14.403   7.064
 3185POPC   C4A41946  35.333  14.402   7.364
 3185POPC   C1B41947  35.112  14.300   6.464
 3185POPC   C2B41948  35.145  14.340   6.764
 3185POPC   C3B41949  35.147  14.282   7.064
 3185POPC   C4B41950  35.088  14.361   7.364
 3186POPC   NC341951  15.164  11.316   5.564
 3186POPC   PO441952  15.165  11.308   5.864
 3186POPC   GL141953  15.131  11.341   6.164
 3186POPC   GL241954  15.234  11.232   6.164
 3186POPC   C1A41955  15.178  11.336   6.464
 3186POPC   D2A41956  15.185  11.309   6.764
 3186POPC   C3A41957  15.175  11.331   7.064
 3186POPC   C4A41958  15.155  11.285   7.364
 3186POPC   C1B41959  15.328  11.112   6.464
 3186POPC   C2B41960  15.260  11.076   6.764
 3186POPC   C3B41961  15.297  11.092   7.064
 3186POPC   C4B41962  15.264  11.117   7.364
 3187POPC   NC341963  18.260  22.905   5.564
 3187POPC   PO441964  18.304  22.918   5.864
 3187POPC   GL141965  18.275  22.899   6.164
 3187POPC   GL241966  18.187  23.067   6.164
 3187POPC   C1A41967  18.305  22.945   6.464
 3187POPC   D2A41968  18.246  22.935   6.764
 3187POPC   C3A41969  18.314  22.922   7.064
 3187POPC   C4A41970  18.314  22.937   7.364
 3187POPC   C1B41971  18.157  23.077   6.464
 3187POPC   C2B41972  18.061  23.099   6.764
 3187POPC   C3B41973  18.092  23.090   7.064
 3187POPC   C4B41974  18.122  23.145   7.364
 3188POPC   NC341975  33.070  21.366   5.564
 3188POPC   PO441976  33.061  21.398   5.864
 3188POPC   GL141977  33.007  21.355   6.164
 3188POPC   GL241978  33.012  21.312   6.164
 3188POPC   C1A41979  33.024  21.343   6.464
 3188POPC   D2A41980  33.056  21.417   6.764
 3188POPC   C3A41981  33.022  21.345   7.064
 3188POPC   C4A41982  33.037  21.343   7.364
 3188POPC   C1B41983  32.952  21.144   6.464
 3188POPC   C2B41984  33.017  21.098   6.764
 3188POPC   C3B41985  33.034  21.126   7.064
 3188POPC   C4B41986  33.035  21.173   7.364
 3189POPC   NC341987  16.767   5.834   5.564
 3189POPC   PO441988  16.725   5.822   5.864
 3189POPC   GL141989  16.694   5.857   6.164
 3189POPC   GL241990  16.794   5.715   6.164
 3189POPC   C1A41991  16.754   5.827   6.464
 3189POPC   D2A41992  16.715   5.846   6.764
 3189POPC   C3A41993  16.731   5.865   7.064
 3189POPC   C4A41994  16.765   5.914   7.364
 3189POPC   C1B41995  16.775   5.586   6.464
 3189POPC   C2B41996  16.814   5.670   6.764
 3189POPC   C3B41997  16.854   5.667   7.064
 3189POPC   C4B41998  16.830   5.628   7.364
 3190POPC   NC341999  16.745  19.090   5.564
 3190POPC   PO442000  16.721  19.074   5.864
 3190POPC   GL142001  16.771  19.046   6.164
 3190POPC   GL242002  16.639  19.120   6.164
 3190POPC   C1A42003  16.744  19.072   6.464
 3190POPC   D2A42004  16.745  19.034   6.764
 3190POPC   C3A42005  16.776  19.039   7.064
 3190POPC   C4A42006  16.714  19.050   7.364
 3190POPC   C1B42007  16.512  19.218   6.464
 3190POPC   C2B42008  16.572  19.191   6.764
 3190POPC   C3B42009  16.559  19.240   7.064
 3190POPC   C4B42010  16.541  19.233   7.364
 3191POPC   NC342011  36.106  12.041   5.564
 3191POPC   PO442012  36.128  12.062   5.864
 3191POPC   GL142013  36.173  12.098   6.164
 3191POPC   GL242014  36.209  12.055   6.164
 3191POPC   C1A42015  36.170  12.094   6.464
 3191POPC   D2A42016  36.170  12.077   6.764
 3191POPC   C3A42017  36.159  12.086   7.064
 3191POPC   C4A42018  36.122  12.045   7.364
 3191POPC   C1B42019  36.333  12.004   6.464
 3191POPC   C2B42020  36.379  12.012   6.764
 3191POPC   C3B42021  36.388  12.012   7.064
 3191POPC   C4B42022  36.393  11.985   7.364
 3192POPC   NC342023   7.425  18.283   5.564
 3192POPC   PO442024   7.446  18.276   5.864
 3192POPC   GL142025   7.375  18.269   6.164
 3192POPC   GL242026   7.506  18.318   6.164
 3192POPC   C1A42027   7.384  18.293   6.464
 3192POPC   D2A42028   7.426  18.291   6.764
 3192POPC   C3A42029   7.437  18.278   7.064
 3192POPC   C4A42030   7.374  18.277   7.364
 3192POPC   C1B42031   7.674  18.256   6.464
 3192POPC   C2B42032   7.683  18.287   6.764
 3192POPC   C3B42033   7.635  18.248   7.064
 3192POPC   C4B42034   7.628  18.223   7.364
 3193POPC   NC342035   5.889  20.563   5.564
 3193POPC   PO442036   5.866  20.649   5.864
 3193POPC   GL142037   5.893  20.615   6.164
 3193POPC   GL242038   5.853  20.755   6.164
 3193POPC   C1A42039   5.869  20.564   6.464
 3193POPC   D2A42040   5.900  20.643   6.764
 3193POPC   C3A42041   5.821  20.616   7.064
 3193POPC   C4A42042   5.906  20.588   7.364
 3193POPC   C1B42043   5.757  20.841   6.464
 3193POPC   C2B42044   5.734  20.835   6.764
 3193POPC   C3B42045   5.732  20.883   7.064
 3193POPC   C4B42046   5.756  20.853   7.364
 3194POPC   NC342047   8.177   0.420   5.564
 3194POPC   PO442048   8.230   0.469   5.864
 3194POPC   GL142049   8.169   0.401   6.164
 3194POPC   GL242050   8.218   0.342   6.164
 3194POPC   C1A42051   8.153   0.436   6.464
 3194POPC   D2A42052   8.214   0.455   6.764
 3194POPC   C3A42053   8.228   0.481   7.064
 3194POPC   C4A42054   8.163   0.402   7.364
 3194POPC   C1B42055   8.313   0.264   6.464
 3194POPC   C2B42056   8.340   0.179   6.764
 3194POPC   C3B42057   8.349   0.209   7.064
 3194POPC   C4B42058   8.279   0.263   7.364
 3195POPC   NC342059   3.560  44.624   5.564
 3195POPC   PO442060   3.498  44.620   5.864
 3195POPC   GL142061   3.532  44.629   6.164
 3195POPC   GL242062   3.629  44.762   6.164
 3195POPC   C1A42063   3.578  44.650   6.464
 3195POPC   D2A42064   3.546  44.704   6.764
 3195POPC   C3A42065   3.526  44.657   7.064
 3195POPC   C4A42066   3.559  44.707   7.364
 3195POPC   C1B42067   3.673  44.857   6.464
 3195POPC   C2B42068   3.709  44.873   6.764
 3195POPC   C3B42069   3.705  44.863   7.064
 3195POPC   C4B42070   3.658  44.887   7.364
 3196POPC   NC342071  15.950   4.275   5.564
 3196POPC   PO442072  15.943   4.349   5.864
 3196POPC   GL142073  15.980   4.299   6.164
 3196POPC   GL242074  15.992   4.465   6.164
 3196POPC   C1A42075  15.926   4.339   6.464
 3196POPC   D2A42076  15.918   4.337   6.764
 3196POPC   C3A42077  15.990   4.307   7.064
 3196POPC   C4A42078  15.996   4.328   7.364
 3196POPC   C1B42079  16.091   4.590   6.464
 3196POPC   C2B42080  16.041   4.513   6.764
 3196POPC   C3B42081  15.995   4.595   7.064
 3196POPC   C4B42082  16.003   4.583   7.364
 3197POPC   NC342083  44.672  44.644   5.564
 3197POPC   PO442084  44.693  44.653   5.864
 3197POPC   GL142085  44.690  44.654   6.164
 3197POPC   GL242086  44.732  44.750   6.164
 3197POPC   C1A42087  44.693  44.653   6.464
 3197POPC   D2A42088  44.620  44.617   6.764
 3197POPC   C3A42089  44.634  44.652   7.064
 3197POPC   C4A42090  44.617  44.636   7.364
 3197POPC   C1B42091  44.890  44.797   6.464
 3197POPC   C2B42092  44.844  44.830   6.764
 3197POPC   C3B42093  44.820  44.877   7.064
 3197POPC   C4B42094  44.829  44.825   7.364
 3198POPC   NC342095  20.562  28.334   5.564
 3198POPC   PO442096  20.603  28.365   5.864
 3198POPC   GL142097  20.605  28.390   6.164
 3198POPC   GL242098  20.573  28.268   6.164
 3198POPC   C1A42099  20.588  28.393   6.464
 3198POPC   D2A42100  20.648  28.336   6.764
 3198POPC   C3A42101  20.570  28.382   7.064
 3198POPC   C4A42102  20.572  28.370   7.364
 3198POPC   C1B42103  20.494  28.099   6.464
 3198POPC   C2B42104  20.547  28.165   6.764
 3198POPC   C3B42105  20.540  28.162   7.064
 3198POPC   C4B42106  20.557  28.138   7.364
 3199POPC   NC342107  43.927  16.723   5.564
 3199POPC   PO442108  43.872  16.765   5.864
 3199POPC   GL142109  43.867  16.737   6.164
 3199POPC   GL242110  44.018  16.837   6.164
 3199POPC   C1A42111  43.897  16.755   6.464
 3199POPC   D2A42112  43.920  16.735   6.764
 3199POPC   C3A42113  43.845  16.709   7.064
 3199POPC   C4A42114  43.883  16.748   7.364
 3199POPC   C1B42115  44.058  16.812   6.464
 3199POPC   C2B42116  44.063  16.818   6.764
 3199POPC   C3B42117  44.086  16.810   7.064
 3199POPC   C4B42118  44.080  16.813   7.364
 3200POPC   NC342119  27.579  34.543   5.564
 3200POPC   PO442120  27.639  34.531   5.864
 3200POPC   GL142121  27.621  34.606   6.164
 3200POPC   GL242122  27.676  34.527   6.164
 3200POPC   C1A42123  27.633  34.598   6.464
 3200POPC   D2A42124  27.613  34.544   6.764
 3200POPC   C3A42125  27.565  34.592   7.064
 3200POPC   C4A42126  27.608  34.574   7.364
 3200POPC   C1B42127  27.859  34.531   6.464
 3200POPC   C2B42128  27.857  34.559   6.764
 3200POPC   C3B42129  27.818  34.574   7.064
 3200POPC   C4B42130  27.824  34.530   7.364
 3201POPC   NC342131  43.861  14.412   5.564
 3201POPC   PO442132  43.875  14.400   5.864
 3201POPC   GL142133  43.849  14.403   6.164
 3201POPC   GL242134  43.759  14.448   6.164
 3201POPC   C1A42135  43.848  14.437   6.464
 3201POPC   D2A42136  43.912  14.452   6.764
 3201POPC   C3A42137  43.877  14.396   7.064
 3201POPC   C4A42138  43.876  14.443   7.364
 3201POPC   C1B42139  43.730  14.614   6.464
 3201POPC   C2B42140  43.743  14.580   6.764
 3201POPC   C3B42141  43.765  14.575   7.064
 3201POPC   C4B42142  43.724  14.618   7.364
 3202POPC   NC342143  12.072   6.640   5.564
 3202POPC   PO442144  12.110   6.658   5.864
 3202POPC   GL142145  12.118   6.606   6.164
 3202POPC   GL242146  12.215   6.604   6.164
 3202POPC   C1A42147  12.079   6.688   6.464
 3202POPC   D2A42148  12.085   6.673   6.764
 3202POPC   C3A42149  12.081   6.690   7.064
 3202POPC   C4A42150  12.106   6.640   7.364
 3202POPC   C1B42151  12.349   6.605   6.464
 3202POPC   C2B42152  12.288   6.651   6.764
 3202POPC   C3B42153  12.285   6.595   7.064
 3202POPC   C4B42154  12.356   6.623   7.364
 3203POPC   NC342155   8.186   5.128   5.564
 3203POPC   PO442156   8.222   5.118   5.864
 3203POPC   GL142157   8.159   5.103   6.164
 3203POPC   GL242158   8.142   5.200   6.164
 3203POPC   C1A42159   8.238   5.143   6.464
 3203POPC   D2A42160   8.193   5.095   6.764
 3203POPC   C3A42161   8.167   5.081   7.064
 3203POPC   C4A42162   8.161   5.091   7.364
 3203POPC   C1B42163   8.083   5.287   6.464
 3203POPC   C2B42164   8.126   5.346   6.764
 3203POPC   C3B42165   8.131   5.283   7.064
 3203POPC   C4B42166   8.125   5.311   7.364
 3204POPC   NC342167  23.702  26.833   5.564
 3204POPC   PO442168  23.691  26.811   5.864
 3204POPC   GL142169  23.694  26.819   6.164
 3204POPC   GL242170  23.764  26.852   6.164
 3204POPC   C1A42171  23.673  26.845   6.464
 3204POPC   D2A42172  23.682  26.825   6.764
 3204POPC   C3A42173  23.670  26.788   7.064
 3204POPC   C4A42174  23.694  26.867   7.364
 3204POPC   C1B42175  23.861  27.022   6.464
 3204POPC   C2B42176  23.899  26.988   6.764
 3204POPC   C3B42177  23.901  26.966   7.064
 3204POPC   C4B42178  23.942  26.947   7.364
 3205POPC   NC342179   8.979  40.743   5.564
 3205POPC   PO442180   8.956  40.755   5.864
 3205POPC   GL142181   9.015  40.815   6.164
 3205POPC   GL242182   9.092  40.704   6.164
 3205POPC   C1A42183   9.015  40.768   6.464
 3205POPC   D2A42184   9.011  40.769   6.764
 3205POPC   C3A42185   8.946  40.798   7.064
 3205POPC   C4A42186   8.998  40.824   7.364
 3205POPC   C1B42187   9.114  40.557   6.464
 3205POPC   C2B42188   9.134  40.575   6.764
 3205POPC   C3B42189   9.143  40.645   7.064
 3205POPC   C4B42190   9.172  40.625   7.364
 3206POPC   NC342191   5.087  19.020   5.564
 3206POPC   PO442192   5.089  19.068   5.864
 3206POPC   GL142193   5.095  19.093   6.164
 3206POPC   GL242194   5.249  19.061   6.164
 3206POPC   C1A42195   5.050  19.070   6.464
 3206POPC   D2A42196   5.104  19.057   6.764
 3206POPC   C3A42197   5.073  19.044   7.064
 3206POPC   C4A42198   5.104  19.028   7.364
 3206POPC   C1B42199   5.361  18.963   6.464
 3206POPC   C2B42200   5.376  19.046   6.764
 3206POPC   C3B42201   5.299  18.999   7.064
 3206POPC   C4B42202   5.346  19.002   7.364
 3207POPC   NC342203  33.014  38.437   5.564
 3207POPC   PO442204  33.071  38.443   5.864
 3207POPC   GL142205  33.014  38.415   6.164
 3207POPC   GL242206  32.906  38.497   6.164
 3207POPC   C1A42207  33.049  38.496   6.464
 3207POPC   D2A42208  33.043  38.498   6.764
 3207POPC   C3A42209  33.042  38.494   7.064
 3207POPC   C4A42210  33.029  38.409   7.364
 3207POPC   C1B42211  32.830  38.486   6.464
 3207POPC   C2B42212  32.822  38.519   6.764
 3207POPC   C3B42213  32.773  38.541   7.064
 3207POPC   C4B42214  32.783  38.557   7.364
 3208POPC   NC342215  23.724  25.243   5.564
 3208POPC   PO442216  23.668  25.231   5.864
 3208POPC   GL142217  23.732  25.282   6.164
 3208POPC   GL242218  23.816  25.167   6.164
 3208POPC   C1A42219  23.674  25.281   6.464
 3208POPC   D2A42220  23.749  25.246   6.764
 3208POPC   C3A42221  23.733  25.300   7.064
 3208POPC   C4A42222  23.712  25.315   7.364
 3208POPC   C1B42223  23.864  25.018   6.464
 3208POPC   C2B42224  23.878  25.065   6.764
 3208POPC   C3B42225  23.831  25.028   7.064
 3208POPC   C4B42226  23.783  25.019   7.364
 3209POPC   NC342227  24.459  36.127   5.564
 3209POPC   PO442228  24.539  36.170   5.864
 3209POPC   GL142229  24.461  36.177   6.164
 3209POPC   GL242230  24.450  36.296   6.164
 3209POPC   C1A42231  24.494  36.109   6.464
 3209POPC   D2A42232  24.460  36.089   6.764
 3209POPC   C3A42233  24.443  36.146   7.064
 3209POPC   C4A42234  24.519  36.080   7.364
 3209POPC   C1B42235  24.425  36.321   6.464
 3209POPC   C2B42236  24.447  36.316   6.764
 3209POPC   C3B42237  24.415  36.393   7.064
 3209POPC   C4B42238  24.452  36.361   7.364
 3210POPC   NC342239  19.092  24.529   5.564
 3210POPC   PO442240  19.103  24.441   5.864
 3210POPC   GL142241  19.077  24.440   6.164
 3210POPC   GL242242  19.153  24.366   6.164
 3210POPC   C1A42243  19.019  24.540   6.464
 3210POPC   D2A42244  19.060  24.458   6.764
 3210POPC   C3A42245  19.039  24.492   7.064
 3210POPC   C4A42246  19.016  24.512   7.364
 3210POPC   C1B42247  19.220  24.220   6.464
 3210POPC   C2B42248  19.198  24.236   6.764
 3210POPC   C3B42249  19.128  24.218   7.064
 3210POPC   C4B42250  19.210  24.291   7.364
 3211POPC   NC342251  34.528   0.406   5.564
 3211POPC   PO442252  34.617   0.444   5.864
 3211POPC   GL142253  34.580   0.442   6.164
 3211POPC   GL242254  34.445   0.389   6.164
 3211POPC   C1A42255  34.536   0.453   6.464
 3211POPC   D2A42256  34.590   0.472   6.764
 3211POPC   C3A42257  34.589   0.434   7.064
 3211POPC   C4A42258  34.613   0.480   7.364
 3211POPC   C1B42259  34.300   0.430   6.464
 3211POPC   C2B42260  34.368   0.440   6.764
 3211POPC   C3B42261  34.305   0.413   7.064
 3211POPC   C4B42262  34.315   0.474   7.364
 3212POPC   NC342263  26.821   8.202   5.564
 3212POPC   PO442264  26.828   8.161   5.864
 3212POPC   GL142265  26.864   8.220   6.164
 3212POPC   GL242266  26.939   8.252   6.164
 3212POPC   C1A42267  26.837   8.156   6.464
 3212POPC   D2A42268  26.831   8.220   6.764
 3212POPC   C3A42269  26.785   8.177   7.064
 3212POPC   C4A42270  26.824   8.175   7.364
 3212POPC   C1B42271  27.004   8.431   6.464
 3212POPC   C2B42272  26.943   8.447   6.764
 3212POPC   C3B42273  26.996   8.389   7.064
 3212POPC   C4B42274  26.943   8.416   7.364
 3213POPC   NC342275  11.299  36.132   5.564
 3213POPC   PO442276  11.339  36.099   5.864
 3213POPC   GL142277  11.317  36.150   6.164
 3213POPC   GL242278  11.187  36.107   6.164
 3213POPC   C1A42279  11.345  36.142   6.464
 3213POPC   D2A42280  11.293  36.106   6.764
 3213POPC   C3A42281  11.278  36.082   7.064
 3213POPC   C4A42282  11.260  36.156   7.364
 3213POPC   C1B42283  11.070  36.059   6.464
 3213POPC   C2B42284  11.068  36.085   6.764
 3213POPC   C3B42285  11.047  36.087   7.064
 3213POPC   C4B42286  11.044  36.034   7.364
 3214POPC   NC342287   1.961  19.813   5.564
 3214POPC   PO442288   1.950  19.841   5.864
 3214POPC   GL142289   2.021  19.827   6.164
 3214POPC   GL242290   1.963  19.742   6.164
 3214POPC   C1A42291   2.018  19.866   6.464
 3214POPC   D2A42292   1.946  19.787   6.764
 3214POPC   C3A42293   2.008  19.873   7.064
 3214POPC   C4A42294   2.021  19.798   7.364
 3214POPC   C1B42295   1.972  19.623   6.464
 3214POPC   C2B42296   1.972  19.625   6.764
 3214POPC   C3B42297   1.993  19.581   7.064
 3214POPC   C4B42298   2.005  19.627   7.364
 3215POPC   NC342299   6.656  12.892   5.564
 3215POPC   PO442300   6.629  12.886   5.864
 3215POPC   GL142301   6.597  12.804   6.164
 3215POPC   GL242302   6.784  12.793   6.164
 3215POPC   C1A42303   6.613  12.807   6.464
 3215POPC   D2A42304   6.650  12.896   6.764
 3215POPC   C3A42305   6.649  12.826   7.064
 3215POPC   C4A42306   6.600  12.824   7.364
 3215POPC   C1B42307   6.850  12.831   6.464
 3215POPC   C2B42308   6.897  12.823   6.764
 3215POPC   C3B42309   6.856  12.790   7.064
 3215POPC   C4B42310   6.855  12.815   7.364
 3216POPC   NC342311  19.061  35.348   5.564
 3216POPC   PO442312  19.023  35.365   5.864
 3216POPC   GL142313  19.069  35.352   6.164
 3216POPC   GL242314  19.032  35.478   6.164
 3216POPC   C1A42315  19.098  35.383   6.464
 3216POPC   D2A42316  19.091  35.358   6.764
 3216POPC   C3A42317  19.070  35.370   7.064
 3216POPC   C4A42318  19.076  35.395   7.364
 3216POPC   C1B42319  18.944  35.534   6.464
 3216POPC   C2B42320  18.941  35.613   6.764
 3216POPC   C3B42321  18.953  35.591   7.064
 3216POPC   C4B42322  18.962  35.533   7.364
 3217POPC   NC342323   5.819  29.965   5.564
 3217POPC   PO442324   5.900  29.900   5.864
 3217POPC   GL142325   5.839  29.958   6.164
 3217POPC   GL242326   5.866  29.774   6.164
 3217POPC   C1A42327   5.832  29.928   6.464
 3217POPC   D2A42328   5.864  29.911   6.764
 3217POPC   C3A42329   5.841  29.936   7.064
 3217POPC   C4A42330   5.853  29.903   7.364
 3217POPC   C1B42331   5.903  29.652   6.464
 3217POPC   C2B42332   5.920  29.713   6.764
 3217POPC   C3B42333   5.964  29.681   7.064
 3217POPC   C4B42334   5.978  29.685   7.364
 3218POPC   NC342335  21.383  33.844   5.564
 3218POPC   PO442336  21.351  33.845   5.864
 3218POPC   GL142337  21.362  33.834   6.164
 3218POPC   GL242338  21.351  33.927   6.164
 3218POPC   C1A42339  21.391  33.832   6.464
 3218POPC   D2A42340  21.363  33.817   6.764
 3218POPC   C3A42341  21.407  33.772   7.064
 3218POPC   C4A42342  21.348  33.757   7.364
 3218POPC   C1B42343  21.296  34.041   6.464
 3218POPC   C2B42344  21.302  34.077   6.764
 3218POPC   C3B42345  21.311  34.092   7.064
 3218POPC   C4B42346  21.368  33.996   7.364
 3219POPC   NC342347  22.943  38.428   5.564
 3219POPC   PO442348  22.985  38.425   5.864
 3219POPC   GL142349  22.927  38.458   6.164
 3219POPC   GL242350  23.031  38.379   6.164
 3219POPC   C1A42351  22.926  38.443   6.464
 3219POPC   D2A42352  22.895  38.417   6.764
 3219POPC   C3A42353  22.921  38.442   7.064
 3219POPC   C4A42354  22.964  38.504   7.364
 3219POPC   C1B42355  23.122  38.283   6.464
 3219POPC   C2B42356  23.108  38.269   6.764
 3219POPC   C3B42357  23.085  38.275   7.064
 3219POPC   C4B42358  23.126  38.306   7.364
 3220POPC   NC342359  12.812   8.951   5.564
 3220POPC   PO442360  12.861   9.010   5.864
 3220POPC   GL142361  12.802   9.006   6.164
 3220POPC   GL242362  12.905   9.100   6.164
 3220POPC   C1A42363  12.806   8.955   6.464
 3220POPC   D2A42364  12.895   8.958   6.764
 3220POPC   C3A42365  12.883   8.966   7.064
 3220POPC   C4A42366  12.828   8.998   7.364
 3220POPC   C1B42367  12.965   9.181   6.464
 3220POPC   C2B42368  12.983   9.158   6.764
 3220POPC   C3B42369  12.911   9.241   7.064
 3220POPC   C4B42370  12.903   9.177   7.364
 3221POPC   NC342371  39.989  39.984   5.564
 3221POPC   PO442372  39.973  39.998   5.864
 3221POPC   GL142373  39.982  40.005   6.164
 3221POPC   GL242374  39.974  39.923   6.164
 3221POPC   C1A42375  40.010  39.993   6.464
 3221POPC   D2A42376  40.011  40.023   6.764
 3221POPC   C3A42377  39.968  40.046   7.064
 3221POPC   C4A42378  40.054  40.044   7.364
 3221POPC   C1B42379  39.970  39.788   6.464
 3221POPC   C2B42380  40.008  39.766   6.764
 3221POPC   C3B42381  40.041  39.739   7.064
 3221POPC   C4B42382  40.030  39.792   7.364
 3222POPC   NC342383  13.647   6.666   5.564
 3222POPC   PO442384  13.645   6.599   5.864
 3222POPC   GL142385  13.641   6.629   6.164
 3222POPC   GL242386  13.509   6.632   6.164
 3222POPC   C1A42387  13.653   6.602   6.464
 3222POPC   D2A42388  13.624   6.603   6.764
 3222POPC   C3A42389  13.653   6.643   7.064
 3222POPC   C4A42390  13.603   6.693   7.364
 3222POPC   C1B42391  13.415   6.677   6.464
 3222POPC   C2B42392  13.370   6.685   6.764
 3222POPC   C3B42393  13.351   6.725   7.064
 3222POPC   C4B42394  13.421   6.723   7.364
 3223POPC   NC342395  15.981  37.635   5.564
 3223POPC   PO442396  15.914  37.710   5.864
 3223POPC   GL142397  15.948  37.718   6.164
 3223POPC   GL242398  16.007  37.759   6.164
 3223POPC   C1A42399  15.991  37.654   6.464
 3223POPC   D2A42400  15.991  37.697   6.764
 3223POPC   C3A42401  15.977  37.672   7.064
 3223POPC   C4A42402  15.989  37.669   7.364
 3223POPC   C1B42403  16.113  37.899   6.464
 3223POPC   C2B42404  16.161  37.900   6.764
 3223POPC   C3B42405  16.134  37.819   7.064
 3223POPC   C4B42406  16.103  37.900   7.364
 3224POPC   NC342407  19.054  38.495   5.564
 3224POPC   PO442408  19.073  38.434   5.864
 3224POPC   GL142409  19.093  38.409   6.164
 3224POPC   GL242410  18.931  38.379   6.164
 3224POPC   C1A42411  19.087  38.486   6.464
 3224POPC   D2A42412  19.028  38.485   6.764
 3224POPC   C3A42413  19.089  38.484   7.064
 3224POPC   C4A42414  19.090  38.463   7.364
 3224POPC   C1B42415  18.800  38.294   6.464
 3224POPC   C2B42416  18.889  38.311   6.764
 3224POPC   C3B42417  18.864  38.308   7.064
 3224POPC   C4B42418  18.887  38.311   7.364
 3225POPC   NC342419   5.870  25.231   5.564
 3225POPC   PO442420   5.870  25.259   5.864
 3225POPC   GL142421   5.829  25.226   6.164
 3225POPC   GL242422   5.797  25.352   6.164
 3225POPC   C1A42423   5.823  25.285   6.464
 3225POPC   D2A42424   5.826  25.225   6.764
 3225POPC   C3A42425   5.859  25.276   7.064
 3225POPC   C4A42426   5.907  25.290   7.364
 3225POPC   C1B42427   5.603  25.357   6.464
 3225POPC   C2B42428   5.612  25.398   6.764
 3225POPC   C3B42429   5.681  25.406   7.064
 3225POPC   C4B42430   5.665  25.393   7.364
 3226POPC   NC342431   7.379  19.029   5.564
 3226POPC   PO442432   7.396  19.054   5.864
 3226POPC   GL142433   7.373  19.077   6.164
 3226POPC   GL242434   7.318  18.921   6.164
 3226POPC   C1A42435   7.449  19.104   6.464
 3226POPC   D2A42436   7.393  19.073   6.764
 3226POPC   C3A42437   7.443  19.077   7.064
 3226POPC   C4A42438   7.406  19.070   7.364
 3226POPC   C1B42439   7.281  18.843   6.464
 3226POPC   C2B42440   7.285  18.929   6.764
 3226POPC   C3B42441   7.233  18.888   7.064
 3226POPC   C4B42442   7.217  18.902   7.364
 3227POPC   NC342443  38.416  39.222   5.564
 3227POPC   PO442444  38.456  39.189   5.864
 3227POPC   GL142445  38.411  39.251   6.164
 3227POPC   GL242446  38.613  39.189   6.164
 3227POPC   C1A42447  38.445  39.265   6.464
 3227POPC   D2A42448  38.477  39.190   6.764
 3227POPC   C3A42449  38.504  39.182   7.064
 3227POPC   C4A42450  38.489  39.190   7.364
 3227POPC   C1B42451  38.697  39.230   6.464
 3227POPC   C2B42452  38.682  39.218   6.764
 3227POPC   C3B42453  38.731  39.257   7.064
 3227POPC   C4B42454  38.736  39.258   7.364
 3228POPC   NC342455  18.303  43.126   5.564
 3228POPC   PO442456  18.325  43.159   5.864
 3228POPC   GL142457  18.320  43.069   6.164
 3228POPC   GL242458  18.250  42.945   6.164
 3228POPC   C1A42459  18.244  43.090   6.464
 3228POPC   D2A42460  18.317  43.097   6.764
 3228POPC   C3A42461  18.302  43.122   7.064
 3228POPC   C4A42462  18.318  43.104   7.364
 3228POPC   C1B42463  18.315  42.888   6.464
 3228POPC   C2B42464  18.258  42.819   6.764
 3228POPC   C3B42465  18.253  42.846   7.064
 3228POPC   C4B42466  18.338  42.821   7.364
 3229POPC   NC342467  33.848  15.947   5.564
 3229POPC   PO442468  33.809  15.985   5.864
 3229POPC   GL142469  33.832  15.914   6.164
 3229POPC   GL242470  33.954  15.954   6.164
 3229POPC   C1A42471  33.793  15.988   6.464
 3229POPC   D2A42472  33.765  15.967   6.764
 3229POPC   C3A42473  33.831  15.941   7.064
 3229POPC   C4A42474  33.760  15.912   7.364
 3229POPC   C1B42475  34.059  16.013   6.464
 3229POPC   C2B42476  34.027  16.009   6.764
 3229POPC   C3B42477  34.060  16.019   7.064
 3229POPC   C4B42478  34.054  16.035   7.364
 3230POPC   NC342479  33.847  44.652   5.564
 3230POPC   PO442480  33.761  44.674   5.864
 3230POPC   GL142481  33.794  44.707   6.164
 3230POPC   GL242482  33.857  44.545   6.164
 3230POPC   C1A42483  33.759  44.656   6.464
 3230POPC   D2A42484  33.808  44.695   6.764
 3230POPC   C3A42485  33.834  44.622   7.064
 3230POPC   C4A42486  33.753  44.696   7.364
 3230POPC   C1B42487  33.862  44.385   6.464
 3230POPC   C2B42488  33.843  44.384   6.764
 3230POPC   C3B42489  33.846  44.372   7.064
 3230POPC   C4B42490  33.827  44.448   7.364
 3231POPC   NC342491  30.680   0.411   5.564
 3231POPC   PO442492  30.740   0.397   5.864
 3231POPC   GL142493  30.698   0.445   6.164
 3231POPC   GL242494  30.561   0.441   6.164
 3231POPC   C1A42495  30.654   0.458   6.464
 3231POPC   D2A42496  30.710   0.390   6.764
 3231POPC   C3A42497  30.712   0.448   7.064
 3231POPC   C4A42498  30.660   0.450   7.364
 3231POPC   C1B42499  30.443   0.483   6.464
 3231POPC   C2B42500  30.429   0.474   6.764
 3231POPC   C3B42501  30.437   0.425   7.064
 3231POPC   C4B42502  30.446   0.480   7.364
 3232POPC   NC342503  15.159  36.904   5.564
 3232POPC   PO442504  15.190  36.918   5.864
 3232POPC   GL142505  15.209  36.880   6.164
 3232POPC   GL242506  15.221  36.787   6.164
 3232POPC   C1A42507  15.142  36.913   6.464
 3232POPC   D2A42508  15.193  36.939   6.764
 3232POPC   C3A42509  15.180  36.901   7.064
 3232POPC   C4A42510  15.215  36.917   7.364
 3232POPC   C1B42511  15.125  36.693   6.464
 3232POPC   C2B42512  15.153  36.679   6.764
 3232POPC   C3B42513  15.134  36.608   7.064
 3232POPC   C4B42514  15.120  36.639   7.364
 3233POPC   NC342515  40.791   6.598   5.564
 3233POPC   PO442516  40.794   6.664   5.864
 3233POPC   GL142517  40.757   6.679   6.164
 3233POPC   GL242518  40.832   6.783   6.164
 3233POPC   C1A42519  40.735   6.639   6.464
 3233POPC   D2A42520  40.804   6.646   6.764
 3233POPC   C3A42521  40.806   6.653   7.064
 3233POPC   C4A42522  40.815   6.679   7.364
 3233POPC   C1B42523  40.959   6.877   6.464
 3233POPC   C2B42524  40.893   6.848   6.764
 3233POPC   C3B42525  40.920   6.840   7.064
 3233POPC   C4B42526  40.890   6.828   7.364
 3234POPC   NC342527  42.373  37.668   5.564
 3234POPC   PO442528  42.319  37.712   5.864
 3234POPC   GL142529  42.290  37.660   6.164
 3234POPC   GL242530  42.286  37.765   6.164
 3234POPC   C1A42531  42.339  37.638   6.464
 3234POPC   D2A42532  42.311  37.675   6.764
 3234POPC   C3A42533  42.372  37.682   7.064
 3234POPC   C4A42534  42.362  37.713   7.364
 3234POPC   C1B42535  42.240  37.930   6.464
 3234POPC   C2B42536  42.238  37.924   6.764
 3234POPC   C3B42537  42.259  37.951   7.064
 3234POPC   C4B42538  42.225  37.863   7.364
 3235POPC   NC342539   1.166  29.121   5.564
 3235POPC   PO442540   1.242  29.172   5.864
 3235POPC   GL142541   1.250  29.113   6.164
 3235POPC   GL242542   1.288  29.058   6.164
 3235POPC   C1A42543   1.177  29.102   6.464
 3235POPC   D2A42544   1.248  29.137   6.764
 3235POPC   C3A42545   1.255  29.133   7.064
 3235POPC   C4A42546   1.219  29.101   7.364
 3235POPC   C1B42547   1.409  29.018   6.464
 3235POPC   C2B42548   1.441  28.994   6.764
 3235POPC   C3B42549   1.421  29.049   7.064
 3235POPC   C4B42550   1.411  29.003   7.364
 3236POPC   NC342551  12.061  12.045   5.564
 3236POPC   PO442552  12.084  12.037   5.864
 3236POPC   GL142553  12.062  12.050   6.164
 3236POPC   GL242554  12.088  12.175   6.164
 3236POPC   C1A42555  12.075  12.038   6.464
 3236POPC   D2A42556  12.103  12.126   6.764
 3236POPC   C3A42557  12.062  12.119   7.064
 3236POPC   C4A42558  12.044  12.119   7.364
 3236POPC   C1B42559  12.046  12.272   6.464
 3236POPC   C2B42560  12.019  12.274   6.764
 3236POPC   C3B42561  11.965  12.303   7.064
 3236POPC   C4B42562  12.023  12.285   7.364
 3237POPC   NC342563  29.170   6.689   5.564
 3237POPC   PO442564  29.181   6.618   5.864
 3237POPC   GL142565  29.167   6.657   6.164
 3237POPC   GL242566  29.020   6.654   6.164
 3237POPC   C1A42567  29.116   6.656   6.464
 3237POPC   D2A42568  29.158   6.680   6.764
 3237POPC   C3A42569  29.113   6.640   7.064
 3237POPC   C4A42570  29.188   6.682   7.364
 3237POPC   C1B42571  28.888   6.642   6.464
 3237POPC   C2B42572  28.937   6.693   6.764
 3237POPC   C3B42573  28.902   6.669   7.064
 3237POPC   C4B42574  28.905   6.714   7.364
 3238POPC   NC342575   5.825  26.025   5.564
 3238POPC   PO442576   5.831  26.063   5.864
 3238POPC   GL142577   5.840  26.018   6.164
 3238POPC   GL242578   5.838  25.883   6.164
 3238POPC   C1A42579   5.915  26.058   6.464
 3238POPC   D2A42580   5.825  25.993   6.764
 3238POPC   C3A42581   5.857  26.040   7.064
 3238POPC   C4A42582   5.879  26.031   7.364
 3238POPC   C1B42583   5.867  25.826   6.464
 3238POPC   C2B42584   5.891  25.768   6.764
 3238POPC   C3B42585   5.844  25.799   7.064
 3238POPC   C4B42586   5.818  25.770   7.364
 3239POPC   NC342587  12.871  27.544   5.564
 3239POPC   PO442588  12.838  27.637   5.864
 3239POPC   GL142589  12.884  27.557   6.164
 3239POPC   GL242590  12.883  27.457   6.164
 3239POPC   C1A42591  12.852  27.601   6.464
 3239POPC   D2A42592  12.847  27.634   6.764
 3239POPC   C3A42593  12.848  27.556   7.064
 3239POPC   C4A42594  12.838  27.554   7.364
 3239POPC   C1B42595  12.855  27.358   6.464
 3239POPC   C2B42596  12.854  27.370   6.764
 3239POPC   C3B42597  12.861  27.363   7.064
 3239POPC   C4B42598  12.887  27.333   7.364
 3240POPC   NC342599   5.046   5.046   5.564
 3240POPC   PO442600   5.069   5.074   5.864
 3240POPC   GL142601   5.046   5.063   6.164
 3240POPC   GL242602   5.011   4.956   6.164
 3240POPC   C1A42603   5.084   5.143   6.464
 3240POPC   D2A42604   5.124   5.107   6.764
 3240POPC   C3A42605   5.103   5.057   7.064
 3240POPC   C4A42606   5.093   5.063   7.364
 3240POPC   C1B42607   4.975   4.846   6.464
 3240POPC   C2B42608   5.008   4.848   6.764
 3240POPC   C3B42609   4.998   4.895   7.064
 3240POPC   C4B42610   4.970   4.898   7.364
 3241POPC   NC342611  15.131  22.140   5.564
 3241POPC   PO442612  15.146  22.160   5.864
 3241POPC   GL142613  15.193  22.172   6.164
 3241POPC   GL242614  15.221  22.079   6.164
 3241POPC   C1A42615  15.154  22.115   6.464
 3241POPC   D2A42616  15.222  22.133   6.764
 3241POPC   C3A42617  15.183  22.171   7.064
 3241POPC   C4A42618  15.167  22.167   7.364
 3241POPC   C1B42619  15.203  21.930   6.464
 3241POPC   C2B42620  15.187  21.883   6.764
 3241POPC   C3B42621  15.219  21.911   7.064
 3241POPC   C4B42622  15.206  21.951   7.364
 3242POPC   NC342623  24.490  28.332   5.564
 3242POPC   PO442624  24.475  28.366   5.864
 3242POPC   GL142625  24.511  28.387   6.164
 3242POPC   GL242626  24.423  28.464   6.164
 3242POPC   C1A42627  24.524  28.371   6.464
 3242POPC   D2A42628  24.514  28.402   6.764
 3242POPC   C3A42629  24.485  28.321   7.064
 3242POPC   C4A42630  24.516  28.409   7.364
 3242POPC   C1B42631  24.245  28.513   6.464
 3242POPC   C2B42632  24.313  28.479   6.764
 3242POPC   C3B42633  24.281  28.471   7.064
 3242POPC   C4B42634  24.270  28.436   7.364
 3243POPC   NC342635  40.747  14.394   5.564
 3243POPC   PO442636  40.775  14.365   5.864
 3243POPC   GL142637  40.766  14.410   6.164
 3243POPC   GL242638  40.686  14.523   6.164
 3243POPC   C1A42639  40.734  14.413   6.464
 3243POPC   D2A42640  40.811  14.446   6.764
 3243POPC   C3A42641  40.824  14.420   7.064
 3243POPC   C4A42642  40.777  14.354   7.364
 3243POPC   C1B42643  40.550  14.506   6.464
 3243POPC   C2B42644  40.586  14.596   6.764
 3243POPC   C3B42645  40.537  14.523   7.064
 3243POPC   C4B42646  40.563  14.579   7.364
 3244POPC   NC342647  11.292  11.295   5.564
 3244POPC   PO442648  11.304  11.306   5.864
 3244POPC   GL142649  11.256  11.302   6.164
 3244POPC   GL242650  11.312  11.438   6.164
 3244POPC   C1A42651  11.261  11.273   6.464
 3244POPC   D2A42652  11.311  11.301   6.764
 3244POPC   C3A42653  11.311  11.319   7.064
 3244POPC   C4A42654  11.328  11.251   7.364
 3244POPC   C1B42655  11.311  11.567   6.464
 3244POPC   C2B42656  11.312  11.546   6.764
 3244POPC   C3B42657  11.385  11.506   7.064
 3244POPC   C4B42658  11.394  11.578   7.364
 3245POPC   NC342659  36.176  25.243   5.564
 3245POPC   PO442660  36.091  25.259   5.864
 3245POPC   GL142661  36.083  25.223   6.164
 3245POPC   GL242662  36.155  25.132   6.164
 3245POPC   C1A42663  36.108  25.309   6.464
 3245POPC   D2A42664  36.098  25.240   6.764
 3245POPC   C3A42665  36.161  25.298   7.064
 3245POPC   C4A42666  36.137  25.259   7.364
 3245POPC   C1B42667  36.240  25.050   6.464
 3245POPC   C2B42668  36.315  25.097   6.764
 3245POPC   C3B42669  36.266  25.106   7.064
 3245POPC   C4B42670  36.296  25.039   7.364
 3246POPC   NC342671  27.557  19.028   5.564
 3246POPC   PO442672  27.583  19.088   5.864
 3246POPC   GL142673  27.565  19.011   6.164
 3246POPC   GL242674  27.633  19.142   6.164
 3246POPC   C1A42675  27.563  19.074   6.464
 3246POPC   D2A42676  27.609  19.061   6.764
 3246POPC   C3A42677  27.546  19.081   7.064
 3246POPC   C4A42678  27.642  19.055   7.364
 3246POPC   C1B42679  27.619  19.268   6.464
 3246POPC   C2B42680  27.626  19.307   6.764
 3246POPC   C3B42681  27.640  19.322   7.064
 3246POPC   C4B42682  27.694  19.343   7.364
 3247POPC   NC342683   9.721  22.143   5.564
 3247POPC   PO442684   9.761  22.171   5.864
 3247POPC   GL142685   9.715  22.120   6.164
 3247POPC   GL242686   9.704  22.018   6.164
 3247POPC   C1A42687   9.721  22.206   6.464
 3247POPC   D2A42688   9.765  22.121   6.764
 3247POPC   C3A42689   9.707  22.147   7.064
 3247POPC   C4A42690   9.726  22.183   7.364
 3247POPC   C1B42691   9.753  21.930   6.464
 3247POPC   C2B42692   9.762  21.884   6.764
 3247POPC   C3B42693   9.717  21.867   7.064
 3247POPC   C4B42694   9.790  21.912   7.364
 3248POPC   NC342695  20.570  22.194   5.564
 3248POPC   PO442696  20.600  22.194   5.864
 3248POPC   GL142697  20.565  22.185   6.164
 3248POPC   GL242698  20.575  22.024   6.164
 3248POPC   C1A42699  20.617  22.192   6.464
 3248POPC   D2A42700  20.572  22.207   6.764
 3248POPC   C3A42701  20.642  22.113   7.064
 3248POPC   C4A42702  20.562  22.136   7.364
 3248POPC   C1B42703  20.421  21.985   6.464
 3248POPC   C2B42704  20.483  21.989   6.764
 3248POPC   C3B42705  20.475  21.958   7.064
 3248POPC   C4B42706  20.484  21.985   7.364
 3249POPC   NC342707  22.978  24.458   5.564
 3249POPC   PO442708  22.912  24.538   5.864
 3249POPC   GL142709  22.967  24.477   6.164
 3249POPC   GL242710  22.888  24.325   6.164
 3249POPC   C1A42711  22.949  24.441   6.464
 3249POPC   D2A42712  22.898  24.525   6.764
 3249POPC   C3A42713  22.923  24.475   7.064
 3249POPC   C4A42714  22.907  24.469   7.364
 3249POPC   C1B42715  22.856  24.232   6.464
 3249POPC   C2B42716  22.858  24.251   6.764
 3249POPC   C3B42717  22.842  24.263   7.064
 3249POPC   C4B42718  22.807  24.209   7.364
 3250POPC   NC342719  33.057  29.889   5.564
 3250POPC   PO442720  33.051  29.956   5.864
 3250POPC   GL142721  33.032  29.969   6.164
 3250POPC   GL242722  33.116  29.985   6.164
 3250POPC   C1A42723  32.978  29.917   6.464
 3250POPC   D2A42724  33.037  29.947   6.764
 3250POPC   C3A42725  33.070  29.968   7.064
 3250POPC   C4A42726  32.981  29.952   7.364
 3250POPC   C1B42727  33.270  30.065   6.464
 3250POPC   C2B42728  33.258  30.060   6.764
 3250POPC   C3B42729  33.251  30.043   7.064
 3250POPC   C4B42730  33.282  30.001   7.364
 3251POPC   NC342731   7.438  39.264   5.564
 3251POPC   PO442732   7.418  39.267   5.864
 3251POPC   GL142733   7.395  39.190   6.164
 3251POPC   GL242734   7.533  39.352   6.164
 3251POPC   C1A42735   7.468  39.240   6.464
 3251POPC   D2A42736   7.388  39.259   6.764
 3251POPC   C3A42737   7.372  39.219   7.064
 3251POPC   C4A42738   7.456  39.211   7.364
 3251POPC   C1B42739   7.635  39.410   6.464
 3251POPC   C2B42740   7.584  39.389   6.764
 3251POPC   C3B42741   7.558  39.436   7.064
 3251POPC   C4B42742   7.610  39.408   7.364
 3252POPC   NC342743  44.624  38.459   5.564
 3252POPC   PO442744  44.634  38.426   5.864
 3252POPC   GL142745  44.639  38.501   6.164
 3252POPC   GL242746  44.686  38.379   6.164
 3252POPC   C1A42747  44.692  38.449   6.464
 3252POPC   D2A42748  44.645  38.411   6.764
 3252POPC   C3A42749  44.656  38.465   7.064
 3252POPC   C4A42750  44.691  38.454   7.364
 3252POPC   C1B42751  44.697  38.174   6.464
 3252POPC   C2B42752  44.737  38.178   6.764
 3252POPC   C3B42753  44.716  38.231   7.064
 3252POPC   C4B42754  44.708  38.210   7.364
 3253POPC   NC342755   9.786  15.196   5.564
 3253POPC   PO442756   9.715  15.220   5.864
 3253POPC   GL142757   9.744  15.225   6.164
 3253POPC   GL242758   9.760  15.294   6.164
 3253POPC   C1A42759   9.727  15.152   6.464
 3253POPC   D2A42760   9.786  15.166   6.764
 3253POPC   C3A42761   9.729  15.202   7.064
 3253POPC   C4A42762   9.785  15.158   7.364
 3253POPC   C1B42763   9.674  15.407   6.464
 3253POPC   C2B42764   9.687  15.467   6.764
 3253POPC   C3B42765   9.711  15.376   7.064
 3253POPC   C4B42766   9.692  15.378   7.364
 3254POPC   NC342767  28.398  31.488   5.564
 3254POPC   PO442768  28.347  31.469   5.864
 3254POPC   GL142769  28.405  31.461   6.164
 3254POPC   GL242770  28.235  31.432   6.164
 3254POPC   C1A42771  28.413  31.444   6.464
 3254POPC   D2A42772  28.403  31.441   6.764
 3254POPC   C3A42773  28.338  31.516   7.064
 3254POPC   C4A42774  28.334  31.461   7.364
 3254POPC   C1B42775  28.217  31.308   6.464
 3254POPC   C2B42776  28.226  31.278   6.764
 3254POPC   C3B42777  28.201  31.336   7.064
 3254POPC   C4B42778  28.173  31.280   7.364
 3255POPC   NC342779   5.086  10.548   5.564
 3255POPC   PO442780   5.138  10.546   5.864
 3255POPC   GL142781   5.083  10.519   6.164
 3255POPC   GL242782   5.008  10.444   6.164
 3255POPC   C1A42783   5.082  10.543   6.464
 3255POPC   D2A42784   5.111  10.496   6.764
 3255POPC   C3A42785   5.099  10.489   7.064
 3255POPC   C4A42786   5.131  10.497   7.364
 3255POPC   C1B42787   5.018  10.288   6.464
 3255POPC   C2B42788   4.988  10.266   6.764
 3255POPC   C3B42789   4.987  10.251   7.064
 3255POPC   C4B42790   4.999  10.332   7.364
 3256POPC   NC342791   0.431  25.306   5.564
 3256POPC   PO442792   0.466  25.280   5.864
 3256POPC   GL142793   0.401  25.234   6.164
 3256POPC   GL242794   0.485  25.373   6.164
 3256POPC   C1A42795   0.429  25.233   6.464
 3256POPC   D2A42796   0.413  25.300   6.764
 3256POPC   C3A42797   0.464  25.231   7.064
 3256POPC   C4A42798   0.403  25.256   7.364
 3256POPC   C1B42799   0.602  25.422   6.464
 3256POPC   C2B42800   0.631  25.445   6.764
 3256POPC   C3B42801   0.579  25.402   7.064
 3256POPC   C4B42802   0.584  25.417   7.364
 3257POPC   NC342803  33.838  19.072   5.564
 3257POPC   PO442804  33.773  19.070   5.864
 3257POPC   GL142805  33.779  19.060   6.164
 3257POPC   GL242806  33.909  18.995   6.164
 3257POPC   C1A42807  33.812  19.090   6.464
 3257POPC   D2A42808  33.804  19.027   6.764
 3257POPC   C3A42809  33.831  19.055   7.064
 3257POPC   C4A42810  33.796  19.064   7.364
 3257POPC   C1B42811  34.040  18.997   6.464
 3257POPC   C2B42812  34.001  18.937   6.764
 3257POPC   C3B42813  34.046  18.958   7.064
 3257POPC   C4B42814  34.012  18.984   7.364
 3258POPC   NC342815  44.653   0.400   5.564
 3258POPC   PO442816  44.670   0.435   5.864
 3258POPC   GL142817  44.697   0.477   6.164
 3258POPC   GL242818  44.770   0.525   6.164
 3258POPC   C1A42819  44.683   0.481   6.464
 3258POPC   D2A42820  44.697   0.453   6.764
 3258POPC   C3A42821  44.632   0.469   7.064
 3258POPC   C4A42822  44.622   0.425   7.364
 3258POPC   C1B42823  44.893   0.580   6.464
 3258POPC   C2B42824  44.852   0.530   6.764
 3258POPC   C3B42825  44.875   0.593   7.064
 3258POPC   C4B42826  44.936   0.503   7.364
 3259POPC   NC342827  42.362  29.179   5.564
 3259POPC   PO442828  42.331  29.170   5.864
 3259POPC   GL142829  42.374  29.099   6.164
 3259POPC   GL242830  42.282  29.240   6.164
 3259POPC   C1A42831  42.371  29.107   6.464
 3259POPC   D2A42832  42.366  29.193   6.764
 3259POPC   C3A42833  42.338  29.096   7.064
 3259POPC   C4A42834  42.344  29.102   7.364
 3259POPC   C1B42835  42.203  29.355   6.464
 3259POPC   C2B42836  42.198  29.400   6.764
 3259POPC   C3B42837  42.222  29.341   7.064
 3259POPC   C4B42838  42.238  29.377   7.364
 3260POPC   NC342839   6.624  33.005   5.564
 3260POPC   PO442840   6.688  33.066   5.864
 3260POPC   GL142841   6.636  33.026   6.164
 3260POPC   GL242842   6.555  33.018   6.164
 3260POPC   C1A42843   6.639  33.062   6.464
 3260POPC   D2A42844   6.679  33.060   6.764
 3260POPC   C3A42845   6.612  33.013   7.064
 3260POPC   C4A42846   6.670  32.978   7.364
 3260POPC   C1B42847   6.346  33.053   6.464
 3260POPC   C2B42848   6.347  33.014   6.764
 3260POPC   C3B42849   6.426  33.079   7.064
 3260POPC   C4B42850   6.401  33.032   7.364
 3261POPC   NC342851  43.118   4.322   5.564
 3261POPC   PO442852  43.080   4.304   5.864
 3261POPC   GL142853  43.105   4.354   6.164
 3261POPC   GL242854  43.153   4.198   6.164
 3261POPC   C1A42855  43.074   4.279   6.464
 3261POPC   D2A42856  43.079   4.341   6.764
 3261POPC   C3A42857  43.073   4.340   7.064
 3261POPC   C4A42858  43.079   4.361   7.364
 3261POPC   C1B42859  43.189   4.087   6.464
 3261POPC   C2B42860  43.214   4.054   6.764
 3261POPC   C3B42861  43.201   4.109   7.064
 3261POPC   C4B42862  43.207   4.056   7.364
 3262POPC   NC342863  22.918  17.466   5.564
 3262POPC   PO442864  22.893  17.520   5.864
 3262POPC   GL142865  22.980  17.526   6.164
 3262POPC   GL242866  23.077  17.587   6.164
 3262POPC   C1A42867  22.909  17.520   6.464
 3262POPC   D2A42868  22.955  17.519   6.764
 3262POPC   C3A42869  22.976  17.489   7.064
 3262POPC   C4A42870  22.964  17.536   7.364
 3262POPC   C1B42871  23.206  17.579   6.464
 3262POPC   C2B42872  23.140  17.621   6.764
 3262POPC   C3B42873  23.161  17.642   7.064
 3262POPC   C4B42874  23.215  17.543   7.364
 3263POPC   NC342875  23.729  20.658   5.564
 3263POPC   PO442876  23.762  20.568   5.864
 3263POPC   GL142877  23.755  20.642   6.164
 3263POPC   GL242878  23.541  20.595   6.164
 3263POPC   C1A42879  23.667  20.608   6.464
 3263POPC   D2A42880  23.734  20.639   6.764
 3263POPC   C3A42881  23.733  20.643   7.064
 3263POPC   C4A42882  23.747  20.624   7.364
 3263POPC   C1B42883  23.457  20.613   6.464
 3263POPC   C2B42884  23.415  20.574   6.764
 3263POPC   C3B42885  23.508  20.600   7.064
 3263POPC   C4B42886  23.482  20.596   7.364
 3264POPC   NC342887  29.097   7.388   5.564
 3264POPC   PO442888  29.119   7.453   5.864
 3264POPC   GL142889  29.165   7.459   6.164
 3264POPC   GL242890  29.152   7.518   6.164
 3264POPC   C1A42891  29.106   7.409   6.464
 3264POPC   D2A42892  29.185   7.397   6.764
 3264POPC   C3A42893  29.162   7.469   7.064
 3264POPC   C4A42894  29.096   7.391   7.364
 3264POPC   C1B42895  29.187   7.701   6.464
 3264POPC   C2B42896  29.091   7.653   6.764
 3264POPC   C3B42897  29.144   7.687   7.064
 3264POPC   C4B42898  29.144   7.687   7.364
 3265POPC   NC342899   1.982  26.043   5.564
 3265POPC   PO442900   1.986  25.993   5.864
 3265POPC   GL142901   1.969  26.091   6.164
 3265POPC   GL242902   1.914  26.009   6.164
 3265POPC   C1A42903   1.961  26.074   6.464
 3265POPC   D2A42904   1.989  26.063   6.764
 3265POPC   C3A42905   1.968  26.031   7.064
 3265POPC   C4A42906   1.979  26.083   7.364
 3265POPC   C1B42907   1.843  25.861   6.464
 3265POPC   C2B42908   1.823  25.930   6.764
 3265POPC   C3B42909   1.825  25.847   7.064
 3265POPC   C4B42910   1.815  25.850   7.364
 3266POPC   NC342911  34.576  26.060   5.564
 3266POPC   PO442912  34.532  26.020   5.864
 3266POPC   GL142913  34.579  26.013   6.164
 3266POPC   GL242914  34.610  26.150   6.164
 3266POPC   C1A42915  34.579  26.019   6.464
 3266POPC   D2A42916  34.613  26.073   6.764
 3266POPC   C3A42917  34.622  26.006   7.064
 3266POPC   C4A42918  34.548  26.061   7.364
 3266POPC   C1B42919  34.628  26.250   6.464
 3266POPC   C2B42920  34.586  26.249   6.764
 3266POPC   C3B42921  34.574  26.323   7.064
 3266POPC   C4B42922  34.662  26.266   7.364
 3267POPC   NC342923  22.142  27.603   5.564
 3267POPC   PO442924  22.134  27.602   5.864
 3267POPC   GL142925  22.134  27.554   6.164
 3267POPC   GL242926  22.133  27.719   6.164
 3267POPC   C1A42927  22.142  27.600   6.464
 3267POPC   D2A42928  22.180  27.591   6.764
 3267POPC   C3A42929  22.124  27.621   7.064
 3267POPC   C4A42930  22.129  27.614   7.364
 3267POPC   C1B42931  22.168  27.845   6.464
 3267POPC   C2B42932  22.098  27.860   6.764
 3267POPC   C3B42933  22.127  27.816   7.064
 3267POPC   C4B42934  22.130  27.878   7.364
 3268POPC   NC342935  19.796  20.626   5.564
 3268POPC   PO442936  19.799  20.566   5.864
 3268POPC   GL142937  19.860  20.603   6.164
 3268POPC   GL242938  19.678  20.530   6.164
 3268POPC   C1A42939  19.789  20.643   6.464
 3268POPC   D2A42940  19.805  20.652   6.764
 3268POPC   C3A42941  19.848  20.605   7.064
 3268POPC   C4A42942  19.866  20.580   7.364
 3268POPC   C1B42943  19.640  20.483   6.464
 3268POPC   C2B42944  19.604  20.536   6.764
 3268POPC   C3B42945  19.567  20.514   7.064
 3268POPC   C4B42946  19.573  20.486   7.364
 3269POPC   NC342947  14.432   4.359   5.564
 3269POPC   PO442948  14.370   4.347   5.864
 3269POPC   GL142949  14.397   4.331   6.164
 3269POPC   GL242950  14.298   4.293   6.164
 3269POPC   C1A42951  14.432   4.290   6.464
 3269POPC   D2A42952  14.385   4.280   6.764
 3269POPC   C3A42953  14.395   4.349   7.064
 3269POPC   C4A42954  14.399   4.297   7.364
 3269POPC   C1B42955  14.177   4.320   6.464
 3269POPC   C2B42956  14.127   4.380   6.764
 3269POPC   C3B42957  14.119   4.312   7.064
 3269POPC   C4B42958  14.155   4.346   7.364
 3270POPC   NC342959   1.224  36.908   5.564
 3270POPC   PO442960   1.240  36.902   5.864
 3270POPC   GL142961   1.175  36.949   6.164
 3270POPC   GL242962   1.251  36.813   6.164
 3270POPC   C1A42963   1.257  36.929   6.464
 3270POPC   D2A42964   1.230  36.868   6.764
 3270POPC   C3A42965   1.236  36.873   7.064
 3270POPC   C4A42966   1.207  36.883   7.364
 3270POPC   C1B42967   1.312  36.719   6.464
 3270POPC   C2B42968   1.356  36.680   6.764
 3270POPC   C3B42969   1.347  36.711   7.064
 3270POPC   C4B42970   1.327  36.721   7.364
 3271POPC   NC342971   2.796  29.135   5.564
 3271POPC   PO442972   2.781  29.141   5.864
 3271POPC   GL142973   2.721  29.182   6.164
 3271POPC   GL242974   2.700  29.048   6.164
 3271POPC   C1A42975   2.788  29.134   6.464
 3271POPC   D2A42976   2.733  29.174   6.764
 3271POPC   C3A42977   2.785  29.150   7.064
 3271POPC   C4A42978   2.778  29.176   7.364
 3271POPC   C1B42979   2.693  28.938   6.464
 3271POPC   C2B42980   2.673  28.943   6.764
 3271POPC   C3B42981   2.697  28.890   7.064
 3271POPC   C4B42982   2.622  28.902   7.364
 3272POPC   NC342983  14.412   7.410   5.564
 3272POPC   PO442984  14.410   7.411   5.864
 3272POPC   GL142985  14.452   7.373   6.164
 3272POPC   GL242986  14.337   7.293   6.164
 3272POPC   C1A42987  14.401   7.469   6.464
 3272POPC   D2A42988  14.376   7.450   6.764
 3272POPC   C3A42989  14.428   7.427   7.064
 3272POPC   C4A42990  14.436   7.402   7.364
 3272POPC   C1B42991  14.293   7.211   6.464
 3272POPC   C2B42992  14.305   7.230   6.764
 3272POPC   C3B42993  14.259   7.251   7.064
 3272POPC   C4B42994  14.245   7.248   7.364
 3273POPC   NC342995  38.459  26.851   5.564
 3273POPC   PO442996  38.448  26.769   5.864
 3273POPC   GL142997  38.453  26.814   6.164
 3273POPC   GL242998  38.514  26.750   6.164
 3273POPC   C1A42999  38.442  26.767   6.464
 3273POPC   D2A43000  38.496  26.854   6.764
 3273POPC   C3A43001  38.408  26.821   7.064
 3273POPC   C4A43002  38.449  26.784   7.364
 3273POPC   C1B43003  38.579  26.605   6.464
 3273POPC   C2B43004  38.523  26.540   6.764
 3273POPC   C3B43005  38.588  26.594   7.064
 3273POPC   C4B43006  38.560  26.572   7.364
 3274POPC   NC343007  19.800   7.408   5.564
 3274POPC   PO443008  19.790   7.411   5.864
 3274POPC   GL143009  19.806   7.418   6.164
 3274POPC   GL243010  19.705   7.344   6.164
 3274POPC   C1A43011  19.787   7.379   6.464
 3274POPC   D2A43012  19.862   7.391   6.764
 3274POPC   C3A43013  19.830   7.372   7.064
 3274POPC   C4A43014  19.876   7.446   7.364
 3274POPC   C1B43015  19.653   7.217   6.464
 3274POPC   C2B43016  19.641   7.208   6.764
 3274POPC   C3B43017  19.617   7.197   7.064
 3274POPC   C4B43018  19.631   7.252   7.364
 3275POPC   NC343019  30.703  12.870   5.564
 3275POPC   PO443020  30.732  12.876   5.864
 3275POPC   GL143021  30.722  12.870   6.164
 3275POPC   GL243022  30.848  12.865   6.164
 3275POPC   C1A43023  30.728  12.823   6.464
 3275POPC   D2A43024  30.692  12.891   6.764
 3275POPC   C3A43025  30.738  12.841   7.064
 3275POPC   C4A43026  30.721  12.823   7.364
 3275POPC   C1B43027  30.983  12.850   6.464
 3275POPC   C2B43028  30.992  12.799   6.764
 3275POPC   C3B43029  30.959  12.799   7.064
 3275POPC   C4B43030  30.975  12.803   7.364
 3276POPC   NC343031  28.392   2.728   5.564
 3276POPC   PO443032  28.332   2.724   5.864
 3276POPC   GL143033  28.378   2.796   6.164
 3276POPC   GL243034  28.482   2.674   6.164
 3276POPC   C1A43035  28.345   2.787   6.464
 3276POPC   D2A43036  28.360   2.787   6.764
 3276POPC   C3A43037  28.340   2.771   7.064
 3276POPC   C4A43038  28.321   2.742   7.364
 3276POPC   C1B43039  28.644   2.701   6.464
 3276POPC   C2B43040  28.612   2.695   6.764
 3276POPC   C3B43041  28.623   2.700   7.064
 3276POPC   C4B43042  28.584   2.664   7.364
 3277POPC   NC343043  23.694  36.127   5.564
 3277POPC   PO443044  23.746  36.147   5.864
 3277POPC   GL143045  23.724  36.078   6.164
 3277POPC   GL243046  23.756  36.259   6.164
 3277POPC   C1A43047  23.733  36.154   6.464
 3277POPC   D2A43048  23.693  36.081   6.764
 3277POPC   C3A43049  23.744  36.167   7.064
 3277POPC   C4A43050  23.714  36.130   7.364
 3277POPC   C1B43051  23.802  36.377   6.464
 3277POPC   C2B43052  23.825  36.368   6.764
 3277POPC   C3B43053  23.771  36.393   7.064
 3277POPC   C4B43054  23.784  36.320   7.364
 3278POPC   NC343055  35.311  17.505   5.564
 3278POPC   PO443056  35.337  17.476   5.864
 3278POPC   GL143057  35.395  17.505   6.164
 3278POPC   GL243058  35.377  17.642   6.164
 3278POPC   C1A43059  35.345  17.494   6.464
 3278POPC   D2A43060  35.323  17.468   6.764
 3278POPC   C3A43061  35.361  17.531   7.064
 3278POPC   C4A43062  35.328  17.555   7.364
 3278POPC   C1B43063  35.383  17.797   6.464
 3278POPC   C2B43064  35.417  17.744   6.764
 3278POPC   C3B43065  35.381  17.804   7.064
 3278POPC   C4B43066  35.393  17.735   7.364
 3279POPC   NC343067  11.311   6.678   5.564
 3279POPC   PO443068  11.267   6.668   5.864
 3279POPC   GL143069  11.315   6.694   6.164
 3279POPC   GL243070  11.232   6.668   6.164
 3279POPC   C1A43071  11.316   6.691   6.464
 3279POPC   D2A43072  11.338   6.608   6.764
 3279POPC   C3A43073  11.319   6.673   7.064
 3279POPC   C4A43074  11.338   6.610   7.364
 3279POPC   C1B43075  11.033   6.718   6.464
 3279POPC   C2B43076  11.099   6.698   6.764
 3279POPC   C3B43077  11.055   6.746   7.064
 3279POPC   C4B43078  11.023   6.783   7.364
 3280POPC   NC343079  29.933   1.993   5.564
 3280POPC   PO443080  29.909   2.027   5.864
 3280POPC   GL143081  29.951   1.941   6.164
 3280POPC   GL243082  29.771   1.945   6.164
 3280POPC   C1A43083  29.965   1.990   6.464
 3280POPC   D2A43084  29.897   1.963   6.764
 3280POPC   C3A43085  29.872   1.962   7.064
 3280POPC   C4A43086  29.890   1.945   7.364
 3280POPC   C1B43087  29.677   1.959   6.464
 3280POPC   C2B43088  29.650   1.959   6.764
 3280POPC   C3B43089  29.702   2.004   7.064
 3280POPC   C4B43090  29.644   1.997   7.364
 3281POPC   NC343091   0.433  28.364   5.564
 3281POPC   PO443092   0.393  28.388   5.864
 3281POPC   GL143093   0.418  28.405   6.164
 3281POPC   GL243094   0.296  28.413   6.164
 3281POPC   C1A43095   0.468  28.332   6.464
 3281POPC   D2A43096   0.395  28.321   6.764
 3281POPC   C3A43097   0.411  28.386   7.064
 3281POPC   C4A43098   0.451  28.322   7.364
 3281POPC   C1B43099   0.213  28.500   6.464
 3281POPC   C2B43100   0.217  28.568   6.764
 3281POPC   C3B43101   0.254  28.567   7.064
 3281POPC   C4B43102   0.285  28.563   7.364
 3282POPC   NC343103   0.450   8.196   5.564
 3282POPC   PO443104   0.487   8.219   5.864
 3282POPC   GL143105   0.436   8.214   6.164
 3282POPC   GL243106   0.587   8.295   6.164
 3282POPC   C1A43107   0.470   8.163   6.464
 3282POPC   D2A43108   0.485   8.183   6.764
 3282POPC   C3A43109   0.397   8.169   7.064
 3282POPC   C4A43110   0.422   8.196   7.364
 3282POPC   C1B43111   0.677   8.299   6.464
 3282POPC   C2B43112   0.677   8.370   6.764
 3282POPC   C3B43113   0.659   8.366   7.064
 3282POPC   C4B43114   0.614   8.347   7.364
 3283POPC   NC343115  29.965  17.503   5.564
 3283POPC   PO443116  29.960  17.545   5.864
 3283POPC   GL143117  29.909  17.521   6.164
 3283POPC   GL243118  29.771  17.491   6.164
 3283POPC   C1A43119  29.921  17.471   6.464
 3283POPC   D2A43120  29.932  17.525   6.764
 3283POPC   C3A43121  29.929  17.489   7.064
 3283POPC   C4A43122  29.912  17.538   7.364
 3283POPC   C1B43123  29.740  17.351   6.464
 3283POPC   C2B43124  29.727  17.358   6.764
 3283POPC   C3B43125  29.699  17.342   7.064
 3283POPC   C4B43126  29.755  17.380   7.364
 3284POPC   NC343127   1.947  11.346   5.564
 3284POPC   PO443128   1.979  11.272   5.864
 3284POPC   GL143129   1.957  11.257   6.164
 3284POPC   GL243130   2.087  11.265   6.164
 3284POPC   C1A43131   2.013  11.253   6.464
 3284POPC   D2A43132   2.022  11.259   6.764
 3284POPC   C3A43133   2.005  11.263   7.064
 3284POPC   C4A43134   1.990  11.287   7.364
 3284POPC   C1B43135   2.197  11.280   6.464
 3284POPC   C2B43136   2.218  11.282   6.764
 3284POPC   C3B43137   2.212  11.297   7.064
 3284POPC   C4B43138   2.212  11.254   7.364
 3285POPC   NC343139  12.097  13.626   5.564
 3285POPC   PO443140  12.061  13.608   5.864
 3285POPC   GL143141  12.087  13.615   6.164
 3285POPC   GL243142  12.191  13.747   6.164
 3285POPC   C1A43143  12.047  13.601   6.464
 3285POPC   D2A43144  12.030  13.659   6.764
 3285POPC   C3A43145  12.098  13.641   7.064
 3285POPC   C4A43146  12.108  13.615   7.364
 3285POPC   C1B43147  12.199  13.799   6.464
 3285POPC   C2B43148  12.256  13.857   6.764
 3285POPC   C3B43149  12.246  13.793   7.064
 3285POPC   C4B43150  12.169  13.830   7.364
 3286POPC   NC343151  32.237   8.196   5.564
 3286POPC   PO443152  32.278   8.212   5.864
 3286POPC   GL143153  32.296   8.166   6.164
 3286POPC   GL243154  32.412   8.191   6.164
 3286POPC   C1A43155  32.249   8.222   6.464
 3286POPC   D2A43156  32.287   8.195   6.764
 3286POPC   C3A43157  32.288   8.185   7.064
 3286POPC   C4A43158  32.253   8.205   7.364
 3286POPC   C1B43159  32.547   8.235   6.464
 3286POPC   C2B43160  32.479   8.255   6.764
 3286POPC   C3B43161  32.544   8.190   7.064
 3286POPC   C4B43162  32.458   8.247   7.364
 3287POPC   NC343163   8.957  19.870   5.564
 3287POPC   PO443164   9.015  19.814   5.864
 3287POPC   GL143165   8.988  19.855   6.164
 3287POPC   GL243166   8.996  19.668   6.164
 3287POPC   C1A43167   8.923  19.862   6.464
 3287POPC   D2A43168   8.992  19.869   6.764
 3287POPC   C3A43169   8.999  19.831   7.064
 3287POPC   C4A43170   8.978  19.873   7.364
 3287POPC   C1B43171   8.904  19.601   6.464
 3287POPC   C2B43172   8.898  19.582   6.764
 3287POPC   C3B43173   8.971  19.608   7.064
 3287POPC   C4B43174   8.935  19.599   7.364
 3288POPC   NC343175  43.106  40.822   5.564
 3288POPC   PO443176  43.061  40.735   5.864
 3288POPC   GL143177  43.083  40.753   6.164
 3288POPC   GL243178  43.214  40.757   6.164
 3288POPC   C1A43179  43.085  40.745   6.464
 3288POPC   D2A43180  43.075  40.755   6.764
 3288POPC   C3A43181  43.130  40.819   7.064
 3288POPC   C4A43182  43.095  40.795   7.364
 3288POPC   C1B43183  43.307  40.735   6.464
 3288POPC   C2B43184  43.368  40.727   6.764
 3288POPC   C3B43185  43.327  40.679   7.064
 3288POPC   C4B43186  43.323  40.657   7.364
 3289POPC   NC343187  12.850  16.744   5.564
 3289POPC   PO443188  12.848  16.753   5.864
 3289POPC   GL143189  12.838  16.731   6.164
 3289POPC   GL243190  12.829  16.623   6.164
 3289POPC   C1A43191  12.815  16.780   6.464
 3289POPC   D2A43192  12.899  16.730   6.764
 3289POPC   C3A43193  12.889  16.727   7.064
 3289POPC   C4A43194  12.810  16.774   7.364
 3289POPC   C1B43195  12.892  16.452   6.464
 3289POPC   C2B43196  12.902  16.522   6.764
 3289POPC   C3B43197  12.953  16.520   7.064
 3289POPC   C4B43198  12.855  16.528   7.364
 3290POPC   NC343199  11.269   8.236   5.564
 3290POPC   PO443200  11.333   8.244   5.864
 3290POPC   GL143201  11.325   8.171   6.164
 3290POPC   GL243202  11.291   8.102   6.164
 3290POPC   C1A43203  11.349   8.217   6.464
 3290POPC   D2A43204  11.308   8.208   6.764
 3290POPC   C3A43205  11.300   8.175   7.064
 3290POPC   C4A43206  11.275   8.147   7.364
 3290POPC   C1B43207  11.379   7.954   6.464
 3290POPC   C2B43208  11.407   7.930   6.764
 3290POPC   C3B43209  11.367   7.967   7.064
 3290POPC   C4B43210  11.355   7.960   7.364
 3291POPC   NC343211  26.829  24.510   5.564
 3291POPC   PO443212  26.790  24.451   5.864
 3291POPC   GL143213  26.806  24.466   6.164
 3291POPC   GL243214  26.937  24.455   6.164
 3291POPC   C1A43215  26.767  24.470   6.464
 3291POPC   D2A43216  26.817  24.536   6.764
 3291POPC   C3A43217  26.783  24.484   7.064
 3291POPC   C4A43218  26.780  24.458   7.364
 3291POPC   C1B43219  27.081  24.489   6.464
 3291POPC   C2B43220  27.069  24.494   6.764
 3291POPC   C3B43221  27.019  24.452   7.064
 3291POPC   C4B43222  27.039  24.450   7.364
 3292POPC   NC343223  12.898  19.098   5.564
 3292POPC   PO443224  12.814  19.015   5.864
 3292POPC   GL143225  12.875  19.023   6.164
 3292POPC   GL243226  12.810  18.967   6.164
 3292POPC   C1A43227  12.856  19.035   6.464
 3292POPC   D2A43228  12.879  19.104   6.764
 3292POPC   C3A43229  12.813  19.077   7.064
 3292POPC   C4A43230  12.827  19.097   7.364
 3292POPC   C1B43231  12.792  18.817   6.464
 3292POPC   C2B43232  12.801  18.876   6.764
 3292POPC   C3B43233  12.748  18.853   7.064
 3292POPC   C4B43234  12.743  18.804   7.364
 3293POPC   NC343235  16.711  44.658   5.564
 3293POPC   PO443236  16.749  44.656   5.864
 3293POPC   GL143237  16.732  44.683   6.164
 3293POPC   GL243238  16.727  44.825   6.164
 3293POPC   C1A43239  16.688  44.680   6.464
 3293POPC   D2A43240  16.710  44.706   6.764
 3293POPC   C3A43241  16.743  44.647   7.064
 3293POPC   C4A43242  16.751  44.660   7.364
 3293POPC   C1B43243  16.833  44.947   6.464
 3293POPC   C2B43244  16.766  44.942   6.764
 3293POPC   C3B43245  16.821  44.932   7.064
 3293POPC   C4B43246  16.854  44.910   7.364
 3294POPC   NC343247   3.585  24.485   5.564
 3294POPC   PO443248   3.528  24.464   5.864
 3294POPC   GL143249   3.568  24.535   6.164
 3294POPC   GL243250   3.533  24.576   6.164
 3294POPC   C1A43251   3.564  24.496   6.464
 3294POPC   D2A43252   3.590  24.478   6.764
 3294POPC   C3A43253   3.544  24.460   7.064
 3294POPC   C4A43254   3.510  24.452   7.364
 3294POPC   C1B43255   3.521  24.687   6.464
 3294POPC   C2B43256   3.497  24.693   6.764
 3294POPC   C3B43257   3.440  24.772   7.064
 3294POPC   C4B43258   3.453  24.752   7.364
 3295POPC   NC343259  29.943  35.392   5.564
 3295POPC   PO443260  29.921  35.343   5.864
 3295POPC   GL143261  29.900  35.304   6.164
 3295POPC   GL243262  29.837  35.446   6.164
 3295POPC   C1A43263  29.878  35.338   6.464
 3295POPC   D2A43264  29.899  35.352   6.764
 3295POPC   C3A43265  29.969  35.336   7.064
 3295POPC   C4A43266  29.908  35.369   7.364
 3295POPC   C1B43267  29.735  35.421   6.464
 3295POPC   C2B43268  29.725  35.463   6.764
 3295POPC   C3B43269  29.719  35.444   7.064
 3295POPC   C4B43270  29.690  35.467   7.364
 3296POPC   NC343271  19.095  10.513   5.564
 3296POPC   PO443272  19.106  10.565   5.864
 3296POPC   GL143273  19.101  10.574   6.164
 3296POPC   GL243274  19.224  10.545   6.164
 3296POPC   C1A43275  19.102  10.524   6.464
 3296POPC   D2A43276  19.084  10.555   6.764
 3296POPC   C3A43277  19.033  10.496   7.064
 3296POPC   C4A43278  19.082  10.489   7.364
 3296POPC   C1B43279  19.254  10.628   6.464
 3296POPC   C2B43280  19.268  10.621   6.764
 3296POPC   C3B43281  19.284  10.549   7.064
 3296POPC   C4B43282  19.348  10.540   7.364
 3297POPC   NC343283  43.901  44.633   5.564
 3297POPC   PO443284  43.837  44.697   5.864
 3297POPC   GL143285  43.883  44.632   6.164
 3297POPC   GL243286  43.735  44.561   6.164
 3297POPC   C1A43287  43.861  44.667   6.464
 3297POPC   D2A43288  43.873  44.679   6.764
 3297POPC   C3A43289  43.841  44.693   7.064
 3297POPC   C4A43290  43.893  44.635   7.364
 3297POPC   C1B43291  43.651  44.518   6.464
 3297POPC   C2B43292  43.676  44.581   6.764
 3297POPC   C3B43293  43.627  44.586   7.064
 3297POPC   C4B43294  43.689  44.520   7.364
 3298POPC   NC343295  33.027  19.032   5.564
 3298POPC   PO443296  33.053  19.072   5.864
 3298POPC   GL143297  33.054  19.013   6.164
 3298POPC   GL243298  33.118  19.144   6.164
 3298POPC   C1A43299  33.045  19.093   6.464
 3298POPC   D2A43300  32.987  19.017   6.764
 3298POPC   C3A43301  32.996  19.017   7.064
 3298POPC   C4A43302  32.978  19.075   7.364
 3298POPC   C1B43303  33.128  19.290   6.464
 3298POPC   C2B43304  33.140  19.288   6.764
 3298POPC   C3B43305  33.183  19.259   7.064
 3298POPC   C4B43306  33.139  19.263   7.364
 3299POPC   NC343307  38.480  43.154   5.564
 3299POPC   PO443308  38.441  43.158   5.864
 3299POPC   GL143309  38.463  43.135   6.164
 3299POPC   GL243310  38.581  43.130   6.164
 3299POPC   C1A43311  38.451  43.129   6.464
 3299POPC   D2A43312  38.426  43.092   6.764
 3299POPC   C3A43313  38.499  43.154   7.064
 3299POPC   C4A43314  38.425  43.134   7.364
 3299POPC   C1B43315  38.685  43.162   6.464
 3299POPC   C2B43316  38.742  43.152   6.764
 3299POPC   C3B43317  38.674  43.207   7.064
 3299POPC   C4B43318  38.715  43.202   7.364
 3300POPC   NC343319   2.724   4.352   5.564
 3300POPC   PO443320   2.719   4.350   5.864
 3300POPC   GL143321   2.740   4.331   6.164
 3300POPC   GL243322   2.667   4.366   6.164
 3300POPC   C1A43323   2.732   4.343   6.464
 3300POPC   D2A43324   2.753   4.333   6.764
 3300POPC   C3A43325   2.803   4.332   7.064
 3300POPC   C4A43326   2.768   4.288   7.364
 3300POPC   C1B43327   2.564   4.442   6.464
 3300POPC   C2B43328   2.493   4.405   6.764
 3300POPC   C3B43329   2.523   4.396   7.064
 3300POPC   C4B43330   2.553   4.376   7.364
 3301POPC   NC343331  19.845  33.764   5.564
 3301POPC   PO443332  19.829  33.799   5.864
 3301POPC   GL143333  19.864  33.762   6.164
 3301POPC   GL243334  19.940  33.822   6.164
 3301POPC   C1A43335  19.824  33.791   6.464
 3301POPC   D2A43336  19.875  33.791   6.764
 3301POPC   C3A43337  19.859  33.798   7.064
 3301POPC   C4A43338  19.807  33.795   7.364
 3301POPC   C1B43339  20.097  33.902   6.464
 3301POPC   C2B43340  20.106  33.844   6.764
 3301POPC   C3B43341  20.026  33.863   7.064
 3301POPC   C4B43342  20.083  33.860   7.364
 3302POPC   NC343343  43.914  15.990   5.564
 3302POPC   PO443344  43.898  15.957   5.864
 3302POPC   GL143345  43.879  15.934   6.164
 3302POPC   GL243346  43.802  16.085   6.164
 3302POPC   C1A43347  43.852  15.936   6.464
 3302POPC   D2A43348  43.881  15.987   6.764
 3302POPC   C3A43349  43.842  15.906   7.064
 3302POPC   C4A43350  43.906  15.942   7.364
 3302POPC   C1B43351  43.753  16.096   6.464
 3302POPC   C2B43352  43.705  16.120   6.764
 3302POPC   C3B43353  43.705  16.184   7.064
 3302POPC   C4B43354  43.705  16.138   7.364
 3303POPC   NC343355   5.897  22.184   5.564
 3303POPC   PO443356   5.883  22.161   5.864
 3303POPC   GL143357   5.917  22.203   6.164
 3303POPC   GL243358   5.769  22.169   6.164
 3303POPC   C1A43359   5.899  22.153   6.464
 3303POPC   D2A43360   5.829  22.198   6.764
 3303POPC   C3A43361   5.833  22.162   7.064
 3303POPC   C4A43362   5.903  22.177   7.364
 3303POPC   C1B43363   5.643  22.132   6.464
 3303POPC   C2B43364   5.655  22.070   6.764
 3303POPC   C3B43365   5.615  22.059   7.064
 3303POPC   C4B43366   5.642  22.056   7.364
 3304POPC   NC343367  13.666  38.445   5.564
 3304POPC   PO443368  13.593  38.447   5.864
 3304POPC   GL143369  13.676  38.477   6.164
 3304POPC   GL243370  13.704  38.585   6.164
 3304POPC   C1A43371  13.611  38.486   6.464
 3304POPC   D2A43372  13.672  38.413   6.764
 3304POPC   C3A43373  13.647  38.459   7.064
 3304POPC   C4A43374  13.634  38.433   7.364
 3304POPC   C1B43375  13.769  38.670   6.464
 3304POPC   C2B43376  13.737  38.677   6.764
 3304POPC   C3B43377  13.732  38.685   7.064
 3304POPC   C4B43378  13.685  38.675   7.364
 3305POPC   NC343379   5.055  22.164   5.564
 3305POPC   PO443380   5.115  22.151   5.864
 3305POPC   GL143381   5.138  22.164   6.164
 3305POPC   GL243382   5.123  22.019   6.164
 3305POPC   C1A43383   5.086  22.154   6.464
 3305POPC   D2A43384   5.079  22.210   6.764
 3305POPC   C3A43385   5.050  22.181   7.064
 3305POPC   C4A43386   5.139  22.153   7.364
 3305POPC   C1B43387   5.183  21.897   6.464
 3305POPC   C2B43388   5.140  21.930   6.764
 3305POPC   C3B43389   5.149  21.898   7.064
 3305POPC   C4B43390   5.142  21.971   7.364
 3306POPC   NC343391  12.042  34.544   5.564
 3306POPC   PO443392  12.083  34.531   5.864
 3306POPC   GL143393  12.090  34.558   6.164
 3306POPC   GL243394  12.137  34.648   6.164
 3306POPC   C1A43395  12.028  34.578   6.464
 3306POPC   D2A43396  12.105  34.538   6.764
 3306POPC   C3A43397  12.038  34.557   7.064
 3306POPC   C4A43398  12.076  34.553   7.364
 3306POPC   C1B43399  12.214  34.803   6.464
 3306POPC   C2B43400  12.239  34.727   6.764
 3306POPC   C3B43401  12.233  34.736   7.064
 3306POPC   C4B43402  12.230  34.808   7.364
 3307POPC   NC343403  31.479  33.797   5.564
 3307POPC   PO443404  31.448  33.813   5.864
 3307POPC   GL143405  31.473  33.835   6.164
 3307POPC   GL243406  31.340  33.708   6.164
 3307POPC   C1A43407  31.488  33.844   6.464
 3307POPC   D2A43408  31.512  33.755   6.764
 3307POPC   C3A43409  31.506  33.844   7.064
 3307POPC   C4A43410  31.464  33.831   7.364
 3307POPC   C1B43411  31.296  33.634   6.464
 3307POPC   C2B43412  31.326  33.635   6.764
 3307POPC   C3B43413  31.287  33.595   7.064
 3307POPC   C4B43414  31.269  33.608   7.364
 3308POPC   NC343415  44.621  27.567   5.564
 3308POPC   PO443416  44.710  27.638   5.864
 3308POPC   GL143417  44.693  27.636   6.164
 3308POPC   GL243418  44.631  27.749   6.164
 3308POPC   C1A43419  44.705  27.617   6.464
 3308POPC   D2A43420  44.654  27.635   6.764
 3308POPC   C3A43421  44.694  27.555   7.064
 3308POPC   C4A43422  44.686  27.592   7.364
 3308POPC   C1B43423  44.661  27.805   6.464
 3308POPC   C2B43424  44.622  27.861   6.764
 3308POPC   C3B43425  44.695  27.805   7.064
 3308POPC   C4B43426  44.635  27.836   7.364
 3309POPC   NC343427  29.119  34.582   5.564
 3309POPC   PO443428  29.178  34.620   5.864
 3309POPC   GL143429  29.117  34.530   6.164
 3309POPC   GL243430  29.129  34.434   6.164
 3309POPC   C1A43431  29.117  34.575   6.464
 3309POPC   D2A43432  29.109  34.600   6.764
 3309POPC   C3A43433  29.117  34.545   7.064
 3309POPC   C4A43434  29.165  34.614   7.364
 3309POPC   C1B43435  29.179  34.312   6.464
 3309POPC   C2B43436  29.184  34.285   6.764
 3309POPC   C3B43437  29.149  34.284   7.064
 3309POPC   C4B43438  29.174  34.352   7.364
 3310POPC   NC343439  22.180  21.427   5.564
 3310POPC   PO443440  22.198  21.424   5.864
 3310POPC   GL143441  22.193  21.416   6.164
 3310POPC   GL243442  22.107  21.491   6.164
 3310POPC   C1A43443  22.167  21.401   6.464
 3310POPC   D2A43444  22.170  21.361   6.764
 3310POPC   C3A43445  22.192  21.343   7.064
 3310POPC   C4A43446  22.207  21.373   7.364
 3310POPC   C1B43447  22.039  21.580   6.464
 3310POPC   C2B43448  21.981  21.600   6.764
 3310POPC   C3B43449  22.042  21.600   7.064
 3310POPC   C4B43450  22.027  21.598   7.364
 3311POPC   NC343451  14.426  30.687   5.564
 3311POPC   PO443452  14.369  30.653   5.864
 3311POPC   GL143453  14.393  30.743   6.164
 3311POPC   GL243454  14.560  30.726   6.164
 3311POPC   C1A43455  14.390  30.717   6.464
 3311POPC   D2A43456  14.385  30.719   6.764
 3311POPC   C3A43457  14.432  30.671   7.064
 3311POPC   C4A43458  14.381  30.725   7.364
 3311POPC   C1B43459  14.631  30.836   6.464
 3311POPC   C2B43460  14.616  30.765   6.764
 3311POPC   C3B43461  14.620  30.777   7.064
 3311POPC   C4B43462  14.665  30.831   7.364
 3312POPC   NC343463  16.706   1.209   5.564
 3312POPC   PO443464  16.775   1.199   5.864
 3312POPC   GL143465  16.709   1.178   6.164
 3312POPC   GL243466  16.635   1.281   6.164
 3312POPC   C1A43467  16.763   1.228   6.464
 3312POPC   D2A43468  16.724   1.249   6.764
 3312POPC   C3A43469  16.764   1.202   7.064
 3312POPC   C4A43470  16.773   1.195   7.364
 3312POPC   C1B43471  16.610   1.484   6.464
 3312POPC   C2B43472  16.578   1.444   6.764
 3312POPC   C3B43473  16.581   1.437   7.064
 3312POPC   C4B43474  16.634   1.424   7.364
 3313POPC   NC343475  39.270  22.937   5.564
 3313POPC   PO443476  39.267  22.905   5.864
 3313POPC   GL143477  39.204  22.943   6.164
 3313POPC   GL243478  39.289  22.837   6.164
 3313POPC   C1A43479  39.213  22.974   6.464
 3313POPC   D2A43480  39.267  22.954   6.764
 3313POPC   C3A43481  39.184  22.960   7.064
 3313POPC   C4A43482  39.252  22.985   7.364
 3313POPC   C1B43483  39.443  22.821   6.464
 3313POPC   C2B43484  39.443  22.815   6.764
 3313POPC   C3B43485  39.402  22.749   7.064
 3313POPC   C4B43486  39.398  22.771   7.364
 3314POPC   NC343487  27.548   9.702   5.564
 3314POPC   PO443488  27.611   9.746   5.864
 3314POPC   GL143489  27.636   9.761   6.164
 3314POPC   GL243490  27.535   9.668   6.164
 3314POPC   C1A43491  27.634   9.760   6.464
 3314POPC   D2A43492  27.580   9.710   6.764
 3314POPC   C3A43493  27.627   9.734   7.064
 3314POPC   C4A43494  27.564   9.797   7.364
 3314POPC   C1B43495  27.408   9.575   6.464
 3314POPC   C2B43496  27.443   9.597   6.764
 3314POPC   C3B43497  27.482   9.531   7.064
 3314POPC   C4B43498  27.402   9.519   7.364
 3315POPC   NC343499   5.902  31.513   5.564
 3315POPC   PO443500   5.888  31.469   5.864
 3315POPC   GL143501   5.883  31.425   6.164
 3315POPC   GL243502   5.992  31.357   6.164
 3315POPC   C1A43503   5.898  31.437   6.464
 3315POPC   D2A43504   5.863  31.494   6.764
 3315POPC   C3A43505   5.876  31.473   7.064
 3315POPC   C4A43506   5.828  31.432   7.364
 3315POPC   C1B43507   6.076  31.297   6.464
 3315POPC   C2B43508   6.076  31.295   6.764
 3315POPC   C3B43509   6.066  31.315   7.064
 3315POPC   C4B43510   6.035  31.344   7.364
 3316POPC   NC343511  40.012  15.913   5.564
 3316POPC   PO443512  40.032  15.959   5.864
 3316POPC   GL143513  39.960  15.961   6.164
 3316POPC   GL243514  40.101  16.105   6.164
 3316POPC   C1A43515  40.048  15.934   6.464
 3316POPC   D2A43516  39.959  15.947   6.764
 3316POPC   C3A43517  40.025  15.906   7.064
 3316POPC   C4A43518  40.015  15.932   7.364
 3316POPC   C1B43519  40.122  16.204   6.464
 3316POPC   C2B43520  40.126  16.141   6.764
 3316POPC   C3B43521  40.063  16.189   7.064
 3316POPC   C4B43522  40.090  16.215   7.364
 3317POPC   NC343523  40.002   5.058   5.564
 3317POPC   PO443524  40.043   5.137   5.864
 3317POPC   GL143525  39.971   5.060   6.164
 3317POPC   GL243526  40.131   5.020   6.164
 3317POPC   C1A43527  40.038   5.126   6.464
 3317POPC   D2A43528  40.049   5.127   6.764
 3317POPC   C3A43529  39.965   5.048   7.064
 3317POPC   C4A43530  40.035   5.091   7.364
 3317POPC   C1B43531  40.199   4.918   6.464
 3317POPC   C2B43532  40.223   4.965   6.764
 3317POPC   C3B43533  40.225   4.938   7.064
 3317POPC   C4B43534  40.185   4.896   7.364
 3318POPC   NC343535  37.641  42.286   5.564
 3318POPC   PO443536  37.671  42.297   5.864
 3318POPC   GL143537  37.701  42.338   6.164
 3318POPC   GL243538  37.739  42.459   6.164
 3318POPC   C1A43539  37.678  42.374   6.464
 3318POPC   D2A43540  37.714  42.346   6.764
 3318POPC   C3A43541  37.717  42.342   7.064
 3318POPC   C4A43542  37.699  42.325   7.364
 3318POPC   C1B43543  37.855  42.462   6.464
 3318POPC   C2B43544  37.886  42.446   6.764
 3318POPC   C3B43545  37.882  42.465   7.064
 3318POPC   C4B43546  37.830  42.440   7.364
 3319POPC   NC343547  17.514  12.087   5.564
 3319POPC   PO443548  17.542  12.106   5.864
 3319POPC   GL143549  17.512  12.117   6.164
 3319POPC   GL243550  17.415  12.202   6.164
 3319POPC   C1A43551  17.487  12.036   6.464
 3319POPC   D2A43552  17.510  12.099   6.764
 3319POPC   C3A43553  17.511  12.031   7.064
 3319POPC   C4A43554  17.524  12.118   7.364
 3319POPC   C1B43555  17.370  12.283   6.464
 3319POPC   C2B43556  17.416  12.352   6.764
 3319POPC   C3B43557  17.403  12.355   7.064
 3319POPC   C4B43558  17.462  12.299   7.364
 3320POPC   NC343559  41.537  29.926   5.564
 3320POPC   PO443560  41.539  29.952   5.864
 3320POPC   GL143561  41.562  29.931   6.164
 3320POPC   GL243562  41.483  29.935   6.164
 3320POPC   C1A43563  41.586  29.963   6.464
 3320POPC   D2A43564  41.595  29.906   6.764
 3320POPC   C3A43565  41.518  29.874   7.064
 3320POPC   C4A43566  41.509  29.955   7.364
 3320POPC   C1B43567  41.329  29.995   6.464
 3320POPC   C2B43568  41.325  29.988   6.764
 3320POPC   C3B43569  41.332  29.961   7.064
 3320POPC   C4B43570  41.327  29.922   7.364
 3321POPC   NC343571  39.984  41.607   5.564
 3321POPC   PO443572  39.994  41.512   5.864
 3321POPC   GL143573  39.988  41.539   6.164
 3321POPC   GL243574  39.863  41.474   6.164
 3321POPC   C1A43575  40.056  41.546   6.464
 3321POPC   D2A43576  40.007  41.601   6.764
 3321POPC   C3A43577  39.993  41.593   7.064
 3321POPC   C4A43578  40.055  41.593   7.364
 3321POPC   C1B43579  39.735  41.481   6.464
 3321POPC   C2B43580  39.734  41.408   6.764
 3321POPC   C3B43581  39.827  41.407   7.064
 3321POPC   C4B43582  39.823  41.476   7.364
 3322POPC   NC343583  36.925  29.912   5.564
 3322POPC   PO443584  36.860  29.964   5.864
 3322POPC   GL143585  36.932  29.944   6.164
 3322POPC   GL243586  36.751  29.901   6.164
 3322POPC   C1A43587  36.899  29.914   6.464
 3322POPC   D2A43588  36.940  29.947   6.764
 3322POPC   C3A43589  36.928  29.879   7.064
 3322POPC   C4A43590  36.876  29.897   7.364
 3322POPC   C1B43591  36.661  29.984   6.464
 3322POPC   C2B43592  36.615  29.977   6.764
 3322POPC   C3B43593  36.708  29.992   7.064
 3322POPC   C4B43594  36.692  29.953   7.364
 3323POPC   NC343595  36.917  21.422   5.564
 3323POPC   PO443596  36.863  21.386   5.864
 3323POPC   GL143597  36.919  21.356   6.164
 3323POPC   GL243598  36.893  21.558   6.164
 3323POPC   C1A43599  36.923  21.345   6.464
 3323POPC   D2A43600  36.885  21.401   6.764
 3323POPC   C3A43601  36.873  21.348   7.064
 3323POPC   C4A43602  36.943  21.384   7.364
 3323POPC   C1B43603  36.943  21.588   6.464
 3323POPC   C2B43604  36.875  21.610   6.764
 3323POPC   C3B43605  36.908  21.590   7.064
 3323POPC   C4B43606  36.900  21.595   7.364
 3324POPC   NC343607  30.732  14.447   5.564
 3324POPC   PO443608  30.699  14.428   5.864
 3324POPC   GL143609  30.738  14.450   6.164
 3324POPC   GL243610  30.804  14.530   6.164
 3324POPC   C1A43611  30.745  14.417   6.464
 3324POPC   D2A43612  30.682  14.392   6.764
 3324POPC   C3A43613  30.745  14.394   7.064
 3324POPC   C4A43614  30.740  14.376   7.364
 3324POPC   C1B43615  30.772  14.648   6.464
 3324POPC   C2B43616  30.809  14.631   6.764
 3324POPC   C3B43617  30.824  14.627   7.064
 3324POPC   C4B43618  30.828  14.601   7.364
 3325POPC   NC343619   1.227   4.345   5.564
 3325POPC   PO443620   1.191   4.302   5.864
 3325POPC   GL143621   1.166   4.282   6.164
 3325POPC   GL243622   1.343   4.428   6.164
 3325POPC   C1A43623   1.166   4.360   6.464
 3325POPC   D2A43624   1.164   4.367   6.764
 3325POPC   C3A43625   1.263   4.297   7.064
 3325POPC   C4A43626   1.181   4.364   7.364
 3325POPC   C1B43627   1.420   4.439   6.464
 3325POPC   C2B43628   1.401   4.424   6.764
 3325POPC   C3B43629   1.395   4.502   7.064
 3325POPC   C4B43630   1.434   4.430   7.364
 3326POPC   NC343631  20.586  36.933   5.564
 3326POPC   PO443632  20.632  36.858   5.864
 3326POPC   GL143633  20.597  36.930   6.164
 3326POPC   GL243634  20.497  36.972   6.164
 3326POPC   C1A43635  20.593  36.936   6.464
 3326POPC   D2A43636  20.573  36.872   6.764
 3326POPC   C3A43637  20.647  36.869   7.064
 3326POPC   C4A43638  20.659  36.927   7.364
 3326POPC   C1B43639  20.453  37.124   6.464
 3326POPC   C2B43640  20.449  37.148   6.764
 3326POPC   C3B43641  20.487  37.075   7.064
 3326POPC   C4B43642  20.480  37.071   7.364
 3327POPC   NC343643  25.234   5.115   5.564
 3327POPC   PO443644  25.304   5.059   5.864
 3327POPC   GL143645  25.301   5.123   6.164
 3327POPC   GL243646  25.163   5.087   6.164
 3327POPC   C1A43647  25.242   5.127   6.464
 3327POPC   D2A43648  25.314   5.105   6.764
 3327POPC   C3A43649  25.254   5.136   7.064
 3327POPC   C4A43650  25.217   5.137   7.364
 3327POPC   C1B43651  25.028   5.079   6.464
 3327POPC   C2B43652  25.017   5.053   6.764
 3327POPC   C3B43653  25.066   5.113   7.064
 3327POPC   C4B43654  24.978   5.082   7.364
 3328POPC   NC343655  29.183  32.245   5.564
 3328POPC   PO443656  29.106  32.213   5.864
 3328POPC   GL143657  29.135  32.275   6.164
 3328POPC   GL243658  29.042  32.176   6.164
 3328POPC   C1A43659  29.154  32.256   6.464
 3328POPC   D2A43660  29.184  32.274   6.764
 3328POPC   C3A43661  29.159  32.297   7.064
 3328POPC   C4A43662  29.184  32.292   7.364
 3328POPC   C1B43663  28.922  32.151   6.464
 3328POPC   C2B43664  28.951  32.176   6.764
 3328POPC   C3B43665  28.894  32.211   7.064
 3328POPC   C4B43666  28.915  32.181   7.364
 3329POPC   NC343667   3.586  18.290   5.564
 3329POPC   PO443668   3.520  18.294   5.864
 3329POPC   GL143669   3.552  18.303   6.164
 3329POPC   GL243670   3.410  18.259   6.164
 3329POPC   C1A43671   3.579  18.262   6.464
 3329POPC   D2A43672   3.542  18.266   6.764
 3329POPC   C3A43673   3.503  18.254   7.064
 3329POPC   C4A43674   3.546  18.314   7.364
 3329POPC   C1B43675   3.331  18.245   6.464
 3329POPC   C2B43676   3.269  18.240   6.764
 3329POPC   C3B43677   3.318  18.323   7.064
 3329POPC   C4B43678   3.307  18.280   7.364
 3330POPC   NC343679   8.960   0.472   5.564
 3330POPC   PO443680   8.957   0.389   5.864
 3330POPC   GL143681   8.939   0.394   6.164
 3330POPC   GL243682   9.112   0.463   6.164
 3330POPC   C1A43683   8.955   0.455   6.464
 3330POPC   D2A43684   8.933   0.423   6.764
 3330POPC   C3A43685   8.988   0.470   7.064
 3330POPC   C4A43686   8.931   0.403   7.364
 3330POPC   C1B43687   9.214   0.546   6.464
 3330POPC   C2B43688   9.258   0.543   6.764
 3330POPC   C3B43689   9.231   0.467   7.064
 3330POPC   C4B43690   9.229   0.517   7.364
 3331POPC   NC343691  25.308   9.730   5.564
 3331POPC   PO443692  25.242   9.719   5.864
 3331POPC   GL143693  25.252   9.718   6.164
 3331POPC   GL243694  25.105   9.794   6.164
 3331POPC   C1A43695  25.270   9.740   6.464
 3331POPC   D2A43696  25.233   9.774   6.764
 3331POPC   C3A43697  25.299   9.740   7.064
 3331POPC   C4A43698  25.231   9.790   7.364
 3331POPC   C1B43699  25.049   9.815   6.464
 3331POPC   C2B43700  25.013   9.870   6.764
 3331POPC   C3B43701  25.016   9.854   7.064
 3331POPC   C4B43702  25.028   9.835   7.364
 3332POPC   NC343703  11.330  29.956   5.564
 3332POPC   PO443704  11.318  29.948   5.864
 3332POPC   GL143705  11.251  29.880   6.164
 3332POPC   GL243706  11.169  29.967   6.164
 3332POPC   C1A43707  11.343  29.955   6.464
 3332POPC   D2A43708  11.319  29.949   6.764
 3332POPC   C3A43709  11.254  29.890   7.064
 3332POPC   C4A43710  11.288  29.900   7.364
 3332POPC   C1B43711  11.049  30.002   6.464
 3332POPC   C2B43712  11.090  29.964   6.764
 3332POPC   C3B43713  11.023  29.983   7.064
 3332POPC   C4B43714  11.029  29.920   7.364
 3333POPC   NC343715  14.386  43.088   5.564
 3333POPC   PO443716  14.374  43.114   5.864
 3333POPC   GL143717  14.427  43.063   6.164
 3333POPC   GL243718  14.523  43.135   6.164
 3333POPC   C1A43719  14.435  43.149   6.464
 3333POPC   D2A43720  14.444  43.105   6.764
 3333POPC   C3A43721  14.413  43.080   7.064
 3333POPC   C4A43722  14.415  43.154   7.364
 3333POPC   C1B43723  14.647  43.176   6.464
 3333POPC   C2B43724  14.619  43.218   6.764
 3333POPC   C3B43725  14.669  43.200   7.064
 3333POPC   C4B43726  14.661  43.218   7.364
 3334POPC   NC343727  36.869  16.745   5.564
 3334POPC   PO443728  36.856  16.710   5.864
 3334POPC   GL143729  36.891  16.682   6.164
 3334POPC   GL243730  36.843  16.564   6.164
 3334POPC   C1A43731  36.921  16.772   6.464
 3334POPC   D2A43732  36.893  16.775   6.764
 3334POPC   C3A43733  36.894  16.751   7.064
 3334POPC   C4A43734  36.952  16.772   7.364
 3334POPC   C1B43735  36.834  16.544   6.464
 3334POPC   C2B43736  36.852  16.544   6.764
 3334POPC   C3B43737  36.855  16.519   7.064
 3334POPC   C4B43738  36.800  16.517   7.364
 3335POPC   NC343739   9.754   4.355   5.564
 3335POPC   PO443740   9.732   4.349   5.864
 3335POPC   GL143741   9.741   4.281   6.164
 3335POPC   GL243742   9.891   4.317   6.164
 3335POPC   C1A43743   9.796   4.358   6.464
 3335POPC   D2A43744   9.747   4.320   6.764
 3335POPC   C3A43745   9.727   4.359   7.064
 3335POPC   C4A43746   9.796   4.344   7.364
 3335POPC   C1B43747   9.979   4.223   6.464
 3335POPC   C2B43748   9.986   4.285   6.764
 3335POPC   C3B43749   9.972   4.271   7.064
 3335POPC   C4B43750   9.947   4.303   7.364
 3336POPC   NC343751  38.421  21.425   5.564
 3336POPC   PO443752  38.486  21.403   5.864
 3336POPC   GL143753  38.496  21.408   6.164
 3336POPC   GL243754  38.380  21.319   6.164
 3336POPC   C1A43755  38.433  21.346   6.464
 3336POPC   D2A43756  38.423  21.416   6.764
 3336POPC   C3A43757  38.489  21.355   7.064
 3336POPC   C4A43758  38.455  21.390   7.364
 3336POPC   C1B43759  38.361  21.136   6.464
 3336POPC   C2B43760  38.352  21.142   6.764
 3336POPC   C3B43761  38.294  21.195   7.064
 3336POPC   C4B43762  38.288  21.137   7.364
 3337POPC   NC343763  16.766  41.538   5.564
 3337POPC   PO443764  16.701  41.605   5.864
 3337POPC   GL143765  16.683  41.547   6.164
 3337POPC   GL243766  16.893  41.614   6.164
 3337POPC   C1A43767  16.767  41.584   6.464
 3337POPC   D2A43768  16.752  41.535   6.764
 3337POPC   C3A43769  16.690  41.513   7.064
 3337POPC   C4A43770  16.763  41.518   7.364
 3337POPC   C1B43771  16.987  41.688   6.464
 3337POPC   C2B43772  16.959  41.684   6.764
 3337POPC   C3B43773  16.968  41.642   7.064
 3337POPC   C4B43774  16.964  41.667   7.364
 3338POPC   NC343775  35.323  12.087   5.564
 3338POPC   PO443776  35.336  12.030   5.864
 3338POPC   GL143777  35.358  12.043   6.164
 3338POPC   GL243778  35.345  12.153   6.164
 3338POPC   C1A43779  35.380  12.030   6.464
 3338POPC   D2A43780  35.381  12.108   6.764
 3338POPC   C3A43781  35.329  12.080   7.064
 3338POPC   C4A43782  35.394  12.115   7.364
 3338POPC   C1B43783  35.302  12.293   6.464
 3338POPC   C2B43784  35.272  12.279   6.764
 3338POPC   C3B43785  35.283  12.346   7.064
 3338POPC   C4B43786  35.312  12.344   7.364
 3339POPC   NC343787  14.386  29.182   5.564
 3339POPC   PO443788  14.370  29.119   5.864
 3339POPC   GL143789  14.447  29.147   6.164
 3339POPC   GL243790  14.524  29.135   6.164
 3339POPC   C1A43791  14.374  29.104   6.464
 3339POPC   D2A43792  14.392  29.192   6.764
 3339POPC   C3A43793  14.446  29.112   7.064
 3339POPC   C4A43794  14.356  29.139   7.364
 3339POPC   C1B43795  14.656  29.090   6.464
 3339POPC   C2B43796  14.684  29.087   6.764
 3339POPC   C3B43797  14.623  29.050   7.064
 3339POPC   C4B43798  14.685  29.079   7.364
 3340POPC   NC343799  39.184   0.405   5.564
 3340POPC   PO443800  39.240   0.468   5.864
 3340POPC   GL143801  39.267   0.447   6.164
 3340POPC   GL243802  39.097   0.481   6.164
 3340POPC   C1A43803  39.186   0.393   6.464
 3340POPC   D2A43804  39.232   0.435   6.764
 3340POPC   C3A43805  39.203   0.395   7.064
 3340POPC   C4A43806  39.195   0.438   7.364
 3340POPC   C1B43807  38.993   0.587   6.464
 3340POPC   C2B43808  38.976   0.571   6.764
 3340POPC   C3B43809  39.017   0.527   7.064
 3340POPC   C4B43810  39.054   0.513   7.364
 3341POPC   NC343811  41.516  26.830   5.564
 3341POPC   PO443812  41.511  26.795   5.864
 3341POPC   GL143813  41.583  26.828   6.164
 3341POPC   GL243814  41.461  26.688   6.164
 3341POPC   C1A43815  41.581  26.822   6.464
 3341POPC   D2A43816  41.599  26.792   6.764
 3341POPC   C3A43817  41.605  26.814   7.064
 3341POPC   C4A43818  41.594  26.864   7.364
 3341POPC   C1B43819  41.486  26.539   6.464
 3341POPC   C2B43820  41.458  26.575   6.764
 3341POPC   C3B43821  41.495  26.574   7.064
 3341POPC   C4B43822  41.473  26.582   7.364
 3342POPC   NC343823  12.851  19.785   5.564
 3342POPC   PO443824  12.802  19.878   5.864
 3342POPC   GL143825  12.837  19.833   6.164
 3342POPC   GL243826  12.905  19.683   6.164
 3342POPC   C1A43827  12.862  19.848   6.464
 3342POPC   D2A43828  12.816  19.811   6.764
 3342POPC   C3A43829  12.873  19.867   7.064
 3342POPC   C4A43830  12.805  19.795   7.364
 3342POPC   C1B43831  12.816  19.545   6.464
 3342POPC   C2B43832  12.842  19.604   6.764
 3342POPC   C3B43833  12.911  19.566   7.064
 3342POPC   C4B43834  12.878  19.576   7.364
 3343POPC   NC343835  19.056  26.020   5.564
 3343POPC   PO443836  19.102  26.014   5.864
 3343POPC   GL143837  19.089  26.062   6.164
 3343POPC   GL243838  19.177  25.991   6.164
 3343POPC   C1A43839  19.046  26.056   6.464
 3343POPC   D2A43840  19.041  26.062   6.764
 3343POPC   C3A43841  19.107  26.013   7.064
 3343POPC   C4A43842  19.050  26.063   7.364
 3343POPC   C1B43843  19.316  26.021   6.464
 3343POPC   C2B43844  19.340  26.016   6.764
 3343POPC   C3B43845  19.306  25.976   7.064
 3343POPC   C4B43846  19.303  25.947   7.364
 3344POPC   NC343847  39.265  36.154   5.564
 3344POPC   PO443848  39.274  36.080   5.864
 3344POPC   GL143849  39.239  36.132   6.164
 3344POPC   GL243850  39.151  36.078   6.164
 3344POPC   C1A43851  39.262  36.105   6.464
 3344POPC   D2A43852  39.205  36.166   6.764
 3344POPC   C3A43853  39.260  36.165   7.064
 3344POPC   C4A43854  39.191  36.120   7.364
 3344POPC   C1B43855  39.064  35.978   6.464
 3344POPC   C2B43856  39.032  35.994   6.764
 3344POPC   C3B43857  39.018  35.963   7.064
 3344POPC   C4B43858  38.987  35.994   7.364
 3345POPC   NC343859  27.544  33.836   5.564
 3345POPC   PO443860  27.615  33.833   5.864
 3345POPC   GL143861  27.617  33.798   6.164
 3345POPC   GL243862  27.644  33.682   6.164
 3345POPC   C1A43863  27.591  33.776   6.464
 3345POPC   D2A43864  27.600  33.775   6.764
 3345POPC   C3A43865  27.607  33.837   7.064
 3345POPC   C4A43866  27.600  33.790   7.364
 3345POPC   C1B43867  27.800  33.618   6.464
 3345POPC   C2B43868  27.792  33.581   6.764
 3345POPC   C3B43869  27.738  33.620   7.064
 3345POPC   C4B43870  27.717  33.648   7.364
 3346POPC   NC343871   5.870  26.824   5.564
 3346POPC   PO443872   5.838  26.809   5.864
 3346POPC   GL143873   5.837  26.820   6.164
 3346POPC   GL243874   5.919  26.928   6.164
 3346POPC   C1A43875   5.860  26.773   6.464
 3346POPC   D2A43876   5.837  26.775   6.764
 3346POPC   C3A43877   5.821  26.814   7.064
 3346POPC   C4A43878   5.834  26.860   7.364
 3346POPC   C1B43879   6.077  26.964   6.464
 3346POPC   C2B43880   6.012  26.953   6.764
 3346POPC   C3B43881   6.058  27.002   7.064
 3346POPC   C4B43882   6.027  27.034   7.364
 3347POPC   NC343883  26.826  40.036   5.564
 3347POPC   PO443884  26.775  40.024   5.864
 3347POPC   GL143885  26.834  40.014   6.164
 3347POPC   GL243886  26.889  39.845   6.164
 3347POPC   C1A43887  26.769  39.988   6.464
 3347POPC   D2A43888  26.799  39.977   6.764
 3347POPC   C3A43889  26.844  39.982   7.064
 3347POPC   C4A43890  26.797  40.015   7.364
 3347POPC   C1B43891  26.970  39.789   6.464
 3347POPC   C2B43892  26.931  39.808   6.764
 3347POPC   C3B43893  26.948  39.736   7.064
 3347POPC   C4B43894  26.910  39.789   7.364
 3348POPC   NC343895  13.652  26.067   5.564
 3348POPC   PO443896  13.623  26.079   5.864
 3348POPC   GL143897  13.582  26.050   6.164
 3348POPC   GL243898  13.711  26.126   6.164
 3348POPC   C1A43899  13.585  26.023   6.464
 3348POPC   D2A43900  13.603  26.067   6.764
 3348POPC   C3A43901  13.616  26.022   7.064
 3348POPC   C4A43902  13.606  26.054   7.364
 3348POPC   C1B43903  13.807  26.149   6.464
 3348POPC   C2B43904  13.865  26.167   6.764
 3348POPC   C3B43905  13.823  26.234   7.064
 3348POPC   C4B43906  13.818  26.234   7.364
 3349POPC   NC343907   4.303  27.634   5.564
 3349POPC   PO443908   4.363  27.576   5.864
 3349POPC   GL143909   4.292  27.601   6.164
 3349POPC   GL243910   4.301  27.461   6.164
 3349POPC   C1A43911   4.292  27.555   6.464
 3349POPC   D2A43912   4.336  27.608   6.764
 3349POPC   C3A43913   4.336  27.550   7.064
 3349POPC   C4A43914   4.342  27.567   7.364
 3349POPC   C1B43915   4.203  27.407   6.464
 3349POPC   C2B43916   4.171  27.368   6.764
 3349POPC   C3B43917   4.184  27.392   7.064
 3349POPC   C4B43918   4.227  27.398   7.364
 3350POPC   NC343919  41.579   4.317   5.564
 3350POPC   PO443920  41.551   4.281   5.864
 3350POPC   GL143921  41.574   4.343   6.164
 3350POPC   GL243922  41.478   4.293   6.164
 3350POPC   C1A43923  41.604   4.290   6.464
 3350POPC   D2A43924  41.601   4.351   6.764
 3350POPC   C3A43925  41.569   4.297   7.064
 3350POPC   C4A43926  41.581   4.275   7.364
 3350POPC   C1B43927  41.326   4.227   6.464
 3350POPC   C2B43928  41.305   4.214   6.764
 3350POPC   C3B43929  41.335   4.252   7.064
 3350POPC   C4B43930  41.295   4.215   7.364
 3351POPC   NC343931  20.615  27.603   5.564
 3351POPC   PO443932  20.613  27.605   5.864
 3351POPC   GL143933  20.657  27.605   6.164
 3351POPC   GL243934  20.617  27.734   6.164
 3351POPC   C1A43935  20.577  27.636   6.464
 3351POPC   D2A43936  20.608  27.569   6.764
 3351POPC   C3A43937  20.652  27.639   7.064
 3351POPC   C4A43938  20.653  27.551   7.364
 3351POPC   C1B43939  20.664  27.822   6.464
 3351POPC   C2B43940  20.635  27.803   6.764
 3351POPC   C3B43941  20.714  27.793   7.064
 3351POPC   C4B43942  20.627  27.836   7.364
 3352POPC   NC343943   9.714   3.530   5.564
 3352POPC   PO443944   9.708   3.494   5.864
 3352POPC   GL143945   9.733   3.590   6.164
 3352POPC   GL243946   9.904   3.452   6.164
 3352POPC   C1A43947   9.738   3.565   6.464
 3352POPC   D2A43948   9.726   3.576   6.764
 3352POPC   C3A43949   9.775   3.530   7.064
 3352POPC   C4A43950   9.796   3.538   7.364
 3352POPC   C1B43951   9.940   3.401   6.464
 3352POPC   C2B43952   9.991   3.398   6.764
 3352POPC   C3B43953   9.967   3.378   7.064
 3352POPC   C4B43954   9.940   3.441   7.364
 3353POPC   NC343955   7.398  29.121   5.564
 3353POPC   PO443956   7.462  29.178   5.864
 3353POPC   GL143957   7.436  29.167   6.164
 3353POPC   GL243958   7.487  29.017   6.164
 3353POPC   C1A43959   7.413  29.146   6.464
 3353POPC   D2A43960   7.463  29.120   6.764
 3353POPC   C3A43961   7.443  29.110   7.064
 3353POPC   C4A43962   7.415  29.118   7.364
 3353POPC   C1B43963   7.659  28.974   6.464
 3353POPC   C2B43964   7.621  28.987   6.764
 3353POPC   C3B43965   7.635  29.039   7.064
 3353POPC   C4B43966   7.626  28.997   7.364
 3354POPC   NC343967  33.047   9.698   5.564
 3354POPC   PO443968  33.041   9.716   5.864
 3354POPC   GL143969  32.977   9.789   6.164
 3354POPC   GL243970  33.076   9.871   6.164
 3354POPC   C1A43971  33.036   9.739   6.464
 3354POPC   D2A43972  32.984   9.768   6.764
 3354POPC   C3A43973  33.049   9.713   7.064
 3354POPC   C4A43974  33.011   9.778   7.364
 3354POPC   C1B43975  33.114  10.006   6.464
 3354POPC   C2B43976  33.134  10.016   6.764
 3354POPC   C3B43977  33.148  10.002   7.064
 3354POPC   C4B43978  33.133  10.011   7.364
 3355POPC   NC343979  12.826   6.638   5.564
 3355POPC   PO443980  12.854   6.620   5.864
 3355POPC   GL143981  12.803   6.616   6.164
 3355POPC   GL243982  12.759   6.653   6.164
 3355POPC   C1A43983  12.820   6.605   6.464
 3355POPC   D2A43984  12.817   6.631   6.764
 3355POPC   C3A43985  12.883   6.626   7.064
 3355POPC   C4A43986  12.824   6.635   7.364
 3355POPC   C1B43987  12.583   6.677   6.464
 3355POPC   C2B43988  12.603   6.664   6.764
 3355POPC   C3B43989  12.630   6.669   7.064
 3355POPC   C4B43990  12.648   6.689   7.364
 3356POPC   NC343991  23.672  41.578   5.564
 3356POPC   PO443992  23.756  41.524   5.864
 3356POPC   GL143993  23.751  41.596   6.164
 3356POPC   GL243994  23.777  41.470   6.164
 3356POPC   C1A43995  23.734  41.559   6.464
 3356POPC   D2A43996  23.670  41.515   6.764
 3356POPC   C3A43997  23.747  41.596   7.064
 3356POPC   C4A43998  23.722  41.577   7.364
 3356POPC   C1B43999  23.846  41.298   6.464
 3356POPC   C2B44000  23.765  41.290   6.764
 3356POPC   C3B44001  23.830  41.362   7.064
 3356POPC   C4B44002  23.760  41.354   7.364
 3357POPC   NC344003  19.041   5.143   5.564
 3357POPC   PO444004  19.050   5.115   5.864
 3357POPC   GL144005  19.094   5.051   6.164
 3357POPC   GL244006  19.163   5.122   6.164
 3357POPC   C1A44007  19.096   5.112   6.464
 3357POPC   D2A44008  19.033   5.069   6.764
 3357POPC   C3A44009  19.102   5.060   7.064
 3357POPC   C4A44010  19.070   5.065   7.364
 3357POPC   C1B44011  19.319   5.177   6.464
 3357POPC   C2B44012  19.329   5.104   6.764
 3357POPC   C3B44013  19.305   5.182   7.064
 3357POPC   C4B44014  19.332   5.139   7.364
 3358POPC   NC344015   5.846  15.930   5.564
 3358POPC   PO444016   5.830  16.002   5.864
 3358POPC   GL144017   5.837  15.997   6.164
 3358POPC   GL244018   5.793  15.924   6.164
 3358POPC   C1A44019   5.837  15.965   6.464
 3358POPC   D2A44020   5.916  15.992   6.764
 3358POPC   C3A44021   5.901  16.001   7.064
 3358POPC   C4A44022   5.875  15.979   7.364
 3358POPC   C1B44023   5.634  15.895   6.464
 3358POPC   C2B44024   5.579  15.932   6.764
 3358POPC   C3B44025   5.634  15.961   7.064
 3358POPC   C4B44026   5.643  15.943   7.364
 3359POPC   NC344027  16.738  43.894   5.564
 3359POPC   PO444028  16.734  43.924   5.864
 3359POPC   GL144029  16.734  43.917   6.164
 3359POPC   GL244030  16.620  43.957   6.164
 3359POPC   C1A44031  16.711  43.901   6.464
 3359POPC   D2A44032  16.692  43.935   6.764
 3359POPC   C3A44033  16.748  43.887   7.064
 3359POPC   C4A44034  16.759  43.872   7.364
 3359POPC   C1B44035  16.563  44.125   6.464
 3359POPC   C2B44036  16.611  44.116   6.764
 3359POPC   C3B44037  16.633  44.076   7.064
 3359POPC   C4B44038  16.610  44.124   7.364
 3360POPC   NC344039  10.509   1.165   5.564
 3360POPC   PO444040  10.533   1.200   5.864
 3360POPC   GL144041  10.543   1.227   6.164
 3360POPC   GL244042  10.398   1.143   6.164
 3360POPC   C1A44043  10.568   1.237   6.464
 3360POPC   D2A44044  10.555   1.249   6.764
 3360POPC   C3A44045  10.496   1.213   7.064
 3360POPC   C4A44046  10.567   1.202   7.364
 3360POPC   C1B44047  10.291   1.160   6.464
 3360POPC   C2B44048  10.272   1.171   6.764
 3360POPC   C3B44049  10.241   1.102   7.064
 3360POPC   C4B44050  10.331   1.125   7.364
 3361POPC   NC344051  33.822   3.562   5.564
 3361POPC   PO444052  33.769   3.520   5.864
 3361POPC   GL144053  33.825   3.570   6.164
 3361POPC   GL244054  33.639   3.509   6.164
 3361POPC   C1A44055  33.839   3.510   6.464
 3361POPC   D2A44056  33.786   3.579   6.764
 3361POPC   C3A44057  33.774   3.583   7.064
 3361POPC   C4A44058  33.844   3.588   7.364
 3361POPC   C1B44059  33.569   3.424   6.464
 3361POPC   C2B44060  33.581   3.469   6.764
 3361POPC   C3B44061  33.561   3.447   7.064
 3361POPC   C4B44062  33.605   3.472   7.364
 3362POPC   NC344063   9.757  16.770   5.564
 3362POPC   PO444064   9.747  16.688   5.864
 3362POPC   GL144065   9.767  16.706   6.164
 3362POPC   GL244066   9.687  16.811   6.164
 3362POPC   C1A44067   9.726  16.765   6.464
 3362POPC   D2A44068   9.755  16.728   6.764
 3362POPC   C3A44069   9.764  16.737   7.064
 3362POPC   C4A44070   9.767  16.778   7.364
 3362POPC   C1B44071   9.659  16.932   6.464
 3362POPC   C2B44072   9.683  16.993   6.764
 3362POPC   C3B44073   9.639  16.941   7.064
 3362POPC   C4B44074   9.613  16.913   7.364
 3363POPC   NC344075  42.371  43.851   5.564
 3363POPC   PO444076  42.361  43.917   5.864
 3363POPC   GL144077  42.299  43.891   6.164
 3363POPC   GL244078  42.293  44.054   6.164
 3363POPC   C1A44079  42.290  43.845   6.464
 3363POPC   D2A44080  42.362  43.870   6.764
 3363POPC   C3A44081  42.371  43.901   7.064
 3363POPC   C4A44082  42.318  43.916   7.364
 3363POPC   C1B44083  42.329  44.174   6.464
 3363POPC   C2B44084  42.298  44.109   6.764
 3363POPC   C3B44085  42.260  44.161   7.064
 3363POPC   C4B44086  42.304  44.124   7.364
 3364POPC   NC344087   3.524  25.995   5.564
 3364POPC   PO444088   3.537  26.027   5.864
 3364POPC   GL144089   3.519  26.045   6.164
 3364POPC   GL244090   3.544  26.150   6.164
 3364POPC   C1A44091   3.589  25.998   6.464
 3364POPC   D2A44092   3.545  26.029   6.764
 3364POPC   C3A44093   3.578  26.079   7.064
 3364POPC   C4A44094   3.519  26.025   7.364
 3364POPC   C1B44095   3.449  26.303   6.464
 3364POPC   C2B44096   3.421  26.248   6.764
 3364POPC   C3B44097   3.497  26.231   7.064
 3364POPC   C4B44098   3.474  26.271   7.364
 3365POPC   NC344099  12.075   5.839   5.564
 3365POPC   PO444100  12.063   5.855   5.864
 3365POPC   GL144101  12.120   5.868   6.164
 3365POPC   GL244102  12.188   5.894   6.164
 3365POPC   C1A44103  12.091   5.849   6.464
 3365POPC   D2A44104  12.120   5.845   6.764
 3365POPC   C3A44105  12.029   5.866   7.064
 3365POPC   C4A44106  12.064   5.893   7.364
 3365POPC   C1B44107  12.288   5.910   6.464
 3365POPC   C2B44108  12.370   5.911   6.764
 3365POPC   C3B44109  12.331   5.899   7.064
 3365POPC   C4B44110  12.361   5.887   7.364
 3366POPC   NC344111  27.578  24.524   5.564
 3366POPC   PO444112  27.629  24.489   5.864
 3366POPC   GL144113  27.610  24.454   6.164
 3366POPC   GL244114  27.698  24.552   6.164
 3366POPC   C1A44115  27.589  24.477   6.464
 3366POPC   D2A44116  27.544  24.476   6.764
 3366POPC   C3A44117  27.547  24.481   7.064
 3366POPC   C4A44118  27.632  24.445   7.364
 3366POPC   C1B44119  27.802  24.638   6.464
 3366POPC   C2B44120  27.791  24.594   6.764
 3366POPC   C3B44121  27.824  24.591   7.064
 3366POPC   C4B44122  27.821  24.682   7.364
 3367POPC   NC344123   1.203   0.475   5.564
 3367POPC   PO444124   1.232   0.433   5.864
 3367POPC   GL144125   1.239   0.389   6.164
 3367POPC   GL244126   1.274   0.569   6.164
 3367POPC   C1A44127   1.232   0.390   6.464
 3367POPC   D2A44128   1.164   0.398   6.764
 3367POPC   C3A44129   1.167   0.410   7.064
 3367POPC   C4A44130   1.210   0.461   7.364
 3367POPC   C1B44131   1.245   0.639   6.464
 3367POPC   C2B44132   1.219   0.665   6.764
 3367POPC   C3B44133   1.267   0.649   7.064
 3367POPC   C4B44134   1.209   0.721   7.364
 3368POPC   NC344135  24.485   5.837   5.564
 3368POPC   PO444136  24.481   5.856   5.864
 3368POPC   GL144137  24.449   5.832   6.164
 3368POPC   GL244138  24.413   5.936   6.164
 3368POPC   C1A44139  24.507   5.825   6.464
 3368POPC   D2A44140  24.537   5.838   6.764
 3368POPC   C3A44141  24.473   5.834   7.064
 3368POPC   C4A44142  24.509   5.890   7.364
 3368POPC   C1B44143  24.297   6.090   6.464
 3368POPC   C2B44144  24.313   6.044   6.764
 3368POPC   C3B44145  24.304   6.082   7.064
 3368POPC   C4B44146  24.316   6.053   7.364
 3369POPC   NC344147  39.277  29.189   5.564
 3369POPC   PO444148  39.240  29.111   5.864
 3369POPC   GL144149  39.215  29.184   6.164
 3369POPC   GL244150  39.144  29.215   6.164
 3369POPC   C1A44151  39.230  29.184   6.464
 3369POPC   D2A44152  39.266  29.132   6.764
 3369POPC   C3A44153  39.256  29.125   7.064
 3369POPC   C4A44154  39.225  29.163   7.364
 3369POPC   C1B44155  39.077  29.359   6.464
 3369POPC   C2B44156  39.068  29.367   6.764
 3369POPC   C3B44157  39.110  29.313   7.064
 3369POPC   C4B44158  39.076  29.379   7.364
 3370POPC   NC344159  41.581  39.964   5.564
 3370POPC   PO444160  41.559  40.013   5.864
 3370POPC   GL144161  41.528  40.015   6.164
 3370POPC   GL244162  41.633  39.843   6.164
 3370POPC   C1A44163  41.560  39.989   6.464
 3370POPC   D2A44164  41.593  40.037   6.764
 3370POPC   C3A44165  41.584  39.984   7.064
 3370POPC   C4A44166  41.549  40.012   7.364
 3370POPC   C1B44167  41.666  39.750   6.464
 3370POPC   C2B44168  41.601  39.788   6.764
 3370POPC   C3B44169  41.654  39.782   7.064
 3370POPC   C4B44170  41.622  39.725   7.364
 3371POPC   NC344171  26.043  13.671   5.564
 3371POPC   PO444172  26.001  13.619   5.864
 3371POPC   GL144173  26.037  13.579   6.164
 3371POPC   GL244174  26.202  13.604   6.164
 3371POPC   C1A44175  26.035  13.671   6.464
 3371POPC   D2A44176  26.016  13.592   6.764
 3371POPC   C3A44177  26.013  13.644   7.064
 3371POPC   C4A44178  26.010  13.671   7.364
 3371POPC   C1B44179  26.274  13.660   6.464
 3371POPC   C2B44180  26.243  13.690   6.764
 3371POPC   C3B44181  26.267  13.713   7.064
 3371POPC   C4B44182  26.293  13.669   7.364
 3372POPC   NC344183  40.048  14.377   5.564
 3372POPC   PO444184  40.053  14.366   5.864
 3372POPC   GL144185  40.004  14.446   6.164
 3372POPC   GL244186  39.932  14.456   6.164
 3372POPC   C1A44187  40.038  14.436   6.464
 3372POPC   D2A44188  39.973  14.449   6.764
 3372POPC   C3A44189  39.975  14.398   7.064
 3372POPC   C4A44190  40.004  14.442   7.364
 3372POPC   C1B44191  39.753  14.477   6.464
 3372POPC   C2B44192  39.739  14.398   6.764
 3372POPC   C3B44193  39.716  14.399   7.064
 3372POPC   C4B44194  39.727  14.447   7.364
 3373POPC   NC344195   9.019  39.189   5.564
 3373POPC   PO444196   8.963  39.228   5.864
 3373POPC   GL144197   8.940  39.245   6.164
 3373POPC   GL244198   8.917  39.124   6.164
 3373POPC   C1A44199   8.939  39.246   6.464
 3373POPC   D2A44200   8.953  39.262   6.764
 3373POPC   C3A44201   8.944  39.251   7.064
 3373POPC   C4A44202   8.951  39.274   7.364
 3373POPC   C1B44203   8.762  39.045   6.464
 3373POPC   C2B44204   8.824  39.008   6.764
 3373POPC   C3B44205   8.837  39.082   7.064
 3373POPC   C4B44206   8.797  39.019   7.364
 3374POPC   NC344207   9.703  30.696   5.564
 3374POPC   PO444208   9.785  30.728   5.864
 3374POPC   GL144209   9.730  30.681   6.164
 3374POPC   GL244210   9.870  30.686   6.164
 3374POPC   C1A44211   9.706  30.714   6.464
 3374POPC   D2A44212   9.756  30.705   6.764
 3374POPC   C3A44213   9.793  30.734   7.064
 3374POPC   C4A44214   9.705  30.698   7.364
 3374POPC   C1B44215   9.977  30.598   6.464
 3374POPC   C2B44216   9.998  30.646   6.764
 3374POPC   C3B44217  10.003  30.588   7.064
 3374POPC   C4B44218  10.017  30.577   7.364
 3375POPC   NC344219  19.856  22.987   5.564
 3375POPC   PO444220  19.826  22.931   5.864
 3375POPC   GL144221  19.852  22.967   6.164
 3375POPC   GL244222  19.781  23.060   6.164
 3375POPC   C1A44223  19.854  22.980   6.464
 3375POPC   D2A44224  19.821  22.967   6.764
 3375POPC   C3A44225  19.807  22.918   7.064
 3375POPC   C4A44226  19.883  22.937   7.364
 3375POPC   C1B44227  19.771  23.220   6.464
 3375POPC   C2B44228  19.755  23.207   6.764
 3375POPC   C3B44229  19.723  23.135   7.064
 3375POPC   C4B44230  19.765  23.225   7.364
 3376POPC   NC344231   1.183   6.661   5.564
 3376POPC   PO444232   1.201   6.637   5.864
 3376POPC   GL144233   1.232   6.614   6.164
 3376POPC   GL244234   1.189   6.786   6.164
 3376POPC   C1A44235   1.173   6.658   6.464
 3376POPC   D2A44236   1.197   6.648   6.764
 3376POPC   C3A44237   1.202   6.666   7.064
 3376POPC   C4A44238   1.250   6.635   7.364
 3376POPC   C1B44239   1.232   6.844   6.464
 3376POPC   C2B44240   1.234   6.929   6.764
 3376POPC   C3B44241   1.297   6.919   7.064
 3376POPC   C4B44242   1.214   6.924   7.364
 3377POPC   NC344243  20.638  25.255   5.564
 3377POPC   PO444244  20.567  25.227   5.864
 3377POPC   GL144245  20.609  25.242   6.164
 3377POPC   GL244246  20.442  25.256   6.164
 3377POPC   C1A44247  20.576  25.246   6.464
 3377POPC   D2A44248  20.565  25.276   6.764
 3377POPC   C3A44249  20.615  25.293   7.064
 3377POPC   C4A44250  20.627  25.221   7.364
 3377POPC   C1B44251  20.332  25.194   6.464
 3377POPC   C2B44252  20.360  25.267   6.764
 3377POPC   C3B44253  20.321  25.234   7.064
 3377POPC   C4B44254  20.337  25.271   7.364
 3378POPC   NC344255  38.434  12.808   5.564
 3378POPC   PO444256  38.455  12.803   5.864
 3378POPC   GL144257  38.420  12.867   6.164
 3378POPC   GL244258  38.491  12.760   6.164
 3378POPC   C1A44259  38.476  12.823   6.464
 3378POPC   D2A44260  38.496  12.863   6.764
 3378POPC   C3A44261  38.495  12.899   7.064
 3378POPC   C4A44262  38.497  12.875   7.364
 3378POPC   C1B44263  38.461  12.615   6.464
 3378POPC   C2B44264  38.508  12.582   6.764
 3378POPC   C3B44265  38.443  12.630   7.064
 3378POPC   C4B44266  38.464  12.567   7.364
 3379POPC   NC344267   1.213  40.794   5.564
 3379POPC   PO444268   1.213  40.819   5.864
 3379POPC   GL144269   1.166  40.805   6.164
 3379POPC   GL244270   1.067  40.877   6.164
 3379POPC   C1A44271   1.262  40.749   6.464
 3379POPC   D2A44272   1.255  40.765   6.764
 3379POPC   C3A44273   1.171  40.774   7.064
 3379POPC   C4A44274   1.189  40.806   7.364
 3379POPC   C1B44275   0.982  40.893   6.464
 3379POPC   C2B44276   1.056  40.913   6.764
 3379POPC   C3B44277   0.994  40.906   7.064
 3379POPC   C4B44278   1.000  40.897   7.364
 3380POPC   NC344279   7.445   6.608   5.564
 3380POPC   PO444280   7.375   6.647   5.864
 3380POPC   GL144281   7.391   6.682   6.164
 3380POPC   GL244282   7.271   6.672   6.164
 3380POPC   C1A44283   7.402   6.663   6.464
 3380POPC   D2A44284   7.468   6.619   6.764
 3380POPC   C3A44285   7.404   6.688   7.064
 3380POPC   C4A44286   7.440   6.655   7.364
 3380POPC   C1B44287   7.250   6.801   6.464
 3380POPC   C2B44288   7.238   6.806   6.764
 3380POPC   C3B44289   7.175   6.801   7.064
 3380POPC   C4B44290   7.181   6.802   7.364
 3381POPC   NC344291  23.740  28.334   5.564
 3381POPC   PO444292  23.687  28.322   5.864
 3381POPC   GL144293  23.713  28.339   6.164
 3381POPC   GL244294  23.614  28.383   6.164
 3381POPC   C1A44295  23.678  28.368   6.464
 3381POPC   D2A44296  23.757  28.356   6.764
 3381POPC   C3A44297  23.727  28.337   7.064
 3381POPC   C4A44298  23.757  28.388   7.364
 3381POPC   C1B44299  23.513  28.449   6.464
 3381POPC   C2B44300  23.494  28.502   6.764
 3381POPC   C3B44301  23.461  28.470   7.064
 3381POPC   C4B44302  23.508  28.451   7.364
 3382POPC   NC344303  35.362  20.633   5.564
 3382POPC   PO444304  35.355  20.592   5.864
 3382POPC   GL144305  35.368  20.604   6.164
 3382POPC   GL244306  35.198  20.646   6.164
 3382POPC   C1A44307  35.360  20.644   6.464
 3382POPC   D2A44308  35.311  20.622   6.764
 3382POPC   C3A44309  35.354  20.586   7.064
 3382POPC   C4A44310  35.389  20.582   7.364
 3382POPC   C1B44311  35.108  20.715   6.464
 3382POPC   C2B44312  35.138  20.690   6.764
 3382POPC   C3B44313  35.076  20.706   7.064
 3382POPC   C4B44314  35.079  20.738   7.364
 3383POPC   NC344315   0.442   5.876   5.564
 3383POPC   PO444316   0.392   5.896   5.864
 3383POPC   GL144317   0.430   5.845   6.164
 3383POPC   GL244318   0.528   5.994   6.164
 3383POPC   C1A44319   0.483   5.850   6.464
 3383POPC   D2A44320   0.470   5.853   6.764
 3383POPC   C3A44321   0.469   5.840   7.064
 3383POPC   C4A44322   0.418   5.874   7.364
 3383POPC   C1B44323   0.666   6.081   6.464
 3383POPC   C2B44324   0.624   6.080   6.764
 3383POPC   C3B44325   0.632   5.986   7.064
 3383POPC   C4B44326   0.628   6.078   7.364
 3384POPC   NC344327   7.464  42.344   5.564
 3384POPC   PO444328   7.384  42.295   5.864
 3384POPC   GL144329   7.417  42.339   6.164
 3384POPC   GL244330   7.548  42.352   6.164
 3384POPC   C1A44331   7.406  42.315   6.464
 3384POPC   D2A44332   7.460  42.363   6.764
 3384POPC   C3A44333   7.390  42.322   7.064
 3384POPC   C4A44334   7.423  42.288   7.364
 3384POPC   C1B44335   7.663  42.328   6.464
 3384POPC   C2B44336   7.715  42.289   6.764
 3384POPC   C3B44337   7.651  42.311   7.064
 3384POPC   C4B44338   7.679  42.320   7.364
 3385POPC   NC344339  33.844  14.370   5.564
 3385POPC   PO444340  33.775  14.439   5.864
 3385POPC   GL144341  33.785  14.393   6.164
 3385POPC   GL244342  33.942  14.485   6.164
 3385POPC   C1A44343  33.765  14.436   6.464
 3385POPC   D2A44344  33.773  14.376   6.764
 3385POPC   C3A44345  33.773  14.401   7.064
 3385POPC   C4A44346  33.812  14.430   7.364
 3385POPC   C1B44347  33.995  14.594   6.464
 3385POPC   C2B44348  34.037  14.572   6.764
 3385POPC   C3B44349  33.993  14.533   7.064
 3385POPC   C4B44350  34.034  14.545   7.364
 3386POPC   NC344351  12.864  35.346   5.564
 3386POPC   PO444352  12.827  35.387   5.864
 3386POPC   GL144353  12.840  35.365   6.164
 3386POPC   GL244354  12.802  35.317   6.164
 3386POPC   C1A44355  12.807  35.369   6.464
 3386POPC   D2A44356  12.892  35.364   6.764
 3386POPC   C3A44357  12.899  35.335   7.064
 3386POPC   C4A44358  12.814  35.348   7.364
 3386POPC   C1B44359  12.638  35.142   6.464
 3386POPC   C2B44360  12.699  35.175   6.764
 3386POPC   C3B44361  12.635  35.207   7.064
 3386POPC   C4B44362  12.656  35.232   7.364
 3387POPC   NC344363  44.614  26.078   5.564
 3387POPC   PO444364  44.677  26.020   5.864
 3387POPC   GL144365  44.652  26.048   6.164
 3387POPC   GL244366  44.690  26.156   6.164
 3387POPC   C1A44367  44.683  26.024   6.464
 3387POPC   D2A44368  44.644  26.054   6.764
 3387POPC   C3A44369  44.668  26.070   7.064
 3387POPC   C4A44370  44.689  26.032   7.364
 3387POPC   C1B44371  44.756  26.236   6.464
 3387POPC   C2B44372  44.695  26.257   6.764
 3387POPC   C3B44373  44.725  26.308   7.064
 3387POPC   C4B44374  44.764  26.268   7.364
 3388POPC   NC344375   3.514  41.518   5.564
 3388POPC   PO444376   3.523  41.515   5.864
 3388POPC   GL144377   3.566  41.587   6.164
 3388POPC   GL244378   3.606  41.480   6.164
 3388POPC   C1A44379   3.518  41.513   6.464
 3388POPC   D2A44380   3.534  41.568   6.764
 3388POPC   C3A44381   3.516  41.533   7.064
 3388POPC   C4A44382   3.540  41.530   7.364
 3388POPC   C1B44383   3.586  41.311   6.464
 3388POPC   C2B44384   3.567  41.269   6.764
 3388POPC   C3B44385   3.584  41.309   7.064
 3388POPC   C4B44386   3.583  41.277   7.364
 3389POPC   NC344387  43.909  17.464   5.564
 3389POPC   PO444388  43.865  17.487   5.864
 3389POPC   GL144389  43.837  17.475   6.164
 3389POPC   GL244390  43.757  17.459   6.164
 3389POPC   C1A44391  43.887  17.466   6.464
 3389POPC   D2A44392  43.928  17.473   6.764
 3389POPC   C3A44393  43.873  17.477   7.064
 3389POPC   C4A44394  43.912  17.505   7.364
 3389POPC   C1B44395  43.664  17.322   6.464
 3389POPC   C2B44396  43.690  17.317   6.764
 3389POPC   C3B44397  43.720  17.348   7.064
 3389POPC   C4B44398  43.712  17.324   7.364
 3390POPC   NC344399  33.034  35.388   5.564
 3390POPC   PO444400  33.041  35.325   5.864
 3390POPC   GL144401  33.063  35.380   6.164
 3390POPC   GL244402  32.906  35.425   6.164
 3390POPC   C1A44403  33.035  35.401   6.464
 3390POPC   D2A44404  32.976  35.338   6.764
 3390POPC   C3A44405  32.977  35.362   7.064
 3390POPC   C4A44406  33.013  35.371   7.364
 3390POPC   C1B44407  32.847  35.524   6.464
 3390POPC   C2B44408  32.852  35.543   6.764
 3390POPC   C3B44409  32.875  35.529   7.064
 3390POPC   C4B44410  32.857  35.541   7.364
 3391POPC   NC344411  37.668  20.621   5.564
 3391POPC   PO444412  37.723  20.617   5.864
 3391POPC   GL144413  37.699  20.587   6.164
 3391POPC   GL244414  37.755  20.470   6.164
 3391POPC   C1A44415  37.703  20.623   6.464
 3391POPC   D2A44416  37.700  20.584   6.764
 3391POPC   C3A44417  37.706  20.582   7.064
 3391POPC   C4A44418  37.729  20.599   7.364
 3391POPC   C1B44419  37.719  20.398   6.464
 3391POPC   C2B44420  37.686  20.352   6.764
 3391POPC   C3B44421  37.718  20.318   7.064
 3391POPC   C4B44422  37.760  20.392   7.364
 3392POPC   NC344423  42.351  36.104   5.564
 3392POPC   PO444424  42.288  36.159   5.864
 3392POPC   GL144425  42.335  36.175   6.164
 3392POPC   GL244426  42.255  36.014   6.164
 3392POPC   C1A44427  42.372  36.091   6.464
 3392POPC   D2A44428  42.314  36.155   6.764
 3392POPC   C3A44429  42.288  36.096   7.064
 3392POPC   C4A44430  42.370  36.116   7.364
 3392POPC   C1B44431  42.237  35.867   6.464
 3392POPC   C2B44432  42.193  35.947   6.764
 3392POPC   C3B44433  42.255  35.937   7.064
 3392POPC   C4B44434  42.230  35.915   7.364
 3393POPC   NC344435   9.721  27.570   5.564
 3393POPC   PO444436   9.742  27.606   5.864
 3393POPC   GL144437   9.767  27.630   6.164
 3393POPC   GL244438   9.776  27.466   6.164
 3393POPC   C1A44439   9.789  27.586   6.464
 3393POPC   D2A44440   9.726  27.577   6.764
 3393POPC   C3A44441   9.777  27.557   7.064
 3393POPC   C4A44442   9.711  27.553   7.364
 3393POPC   C1B44443   9.814  27.362   6.464
 3393POPC   C2B44444   9.804  27.321   6.764
 3393POPC   C3B44445   9.750  27.367   7.064
 3393POPC   C4B44446   9.794  27.395   7.364
 3394POPC   NC344447  19.828  39.184   5.564
 3394POPC   PO444448  19.790  39.200   5.864
 3394POPC   GL144449  19.865  39.198   6.164
 3394POPC   GL244450  19.767  39.156   6.164
 3394POPC   C1A44451  19.850  39.216   6.464
 3394POPC   D2A44452  19.859  39.183   6.764
 3394POPC   C3A44453  19.826  39.223   7.064
 3394POPC   C4A44454  19.808  39.227   7.364
 3394POPC   C1B44455  19.701  39.021   6.464
 3394POPC   C2B44456  19.697  39.054   6.764
 3394POPC   C3B44457  19.653  39.024   7.064
 3394POPC   C4B44458  19.684  39.042   7.364
 3395POPC   NC344459  40.024  31.481   5.564
 3395POPC   PO444460  40.000  31.437   5.864
 3395POPC   GL144461  39.962  31.475   6.164
 3395POPC   GL244462  39.883  31.474   6.164
 3395POPC   C1A44463  40.013  31.445   6.464
 3395POPC   D2A44464  39.959  31.447   6.764
 3395POPC   C3A44465  40.037  31.450   7.064
 3395POPC   C4A44466  40.004  31.438   7.364
 3395POPC   C1B44467  39.725  31.379   6.464
 3395POPC   C2B44468  39.739  31.412   6.764
 3395POPC   C3B44469  39.752  31.440   7.064
 3395POPC   C4B44470  39.739  31.360   7.364
 3396POPC   NC344471  39.267  19.835   5.564
 3396POPC   PO444472  39.251  19.856   5.864
 3396POPC   GL144473  39.188  19.881   6.164
 3396POPC   GL244474  39.308  19.911   6.164
 3396POPC   C1A44475  39.195  19.825   6.464
 3396POPC   D2A44476  39.184  19.836   6.764
 3396POPC   C3A44477  39.217  19.850   7.064
 3396POPC   C4A44478  39.266  19.812   7.364
 3396POPC   C1B44479  39.284  20.033   6.464
 3396POPC   C2B44480  39.347  20.098   6.764
 3396POPC   C3B44481  39.315  20.038   7.064
 3396POPC   C4B44482  39.332  20.037   7.364
 3397POPC   NC344483  17.557  40.050   5.564
 3397POPC   PO444484  17.466  39.995   5.864
 3397POPC   GL144485  17.533  40.053   6.164
 3397POPC   GL244486  17.416  39.890   6.164
 3397POPC   C1A44487  17.515  39.978   6.464
 3397POPC   D2A44488  17.510  39.981   6.764
 3397POPC   C3A44489  17.533  40.043   7.064
 3397POPC   C4A44490  17.511  40.026   7.364
 3397POPC   C1B44491  17.407  39.799   6.464
 3397POPC   C2B44492  17.372  39.796   6.764
 3397POPC   C3B44493  17.421  39.771   7.064
 3397POPC   C4B44494  17.345  39.800   7.364
 3398POPC   NC344495  36.859  15.949   5.564
 3398POPC   PO444496  36.933  15.955   5.864
 3398POPC   GL144497  36.853  15.954   6.164
 3398POPC   GL244498  36.807  15.944   6.164
 3398POPC   C1A44499  36.952  15.966   6.464
 3398POPC   D2A44500  36.856  15.916   6.764
 3398POPC   C3A44501  36.887  15.913   7.064
 3398POPC   C4A44502  36.951  15.919   7.364
 3398POPC   C1B44503  36.672  15.845   6.464
 3398POPC   C2B44504  36.695  15.856   6.764
 3398POPC   C3B44505  36.689  15.891   7.064
 3398POPC   C4B44506  36.636  15.834   7.364
 3399POPC   NC344507  24.461  21.342   5.564
 3399POPC   PO444508  24.522  21.412   5.864
 3399POPC   GL144509  24.476  21.359   6.164
 3399POPC   GL244510  24.428  21.540   6.164
 3399POPC   C1A44511  24.446  21.380   6.464
 3399POPC   D2A44512  24.514  21.424   6.764
 3399POPC   C3A44513  24.448  21.346   7.064
 3399POPC   C4A44514  24.440  21.399   7.364
 3399POPC   C1B44515  24.491  21.642   6.464
 3399POPC   C2B44516  24.452  21.664   6.764
 3399POPC   C3B44517  24.420  21.680   7.064
 3399POPC   C4B44518  24.492  21.668   7.364
 3400POPC   NC344519  12.075  40.040   5.564
 3400POPC   PO444520  12.070  40.036   5.864
 3400POPC   GL144521  12.041  39.993   6.164
 3400POPC   GL244522  12.124  39.875   6.164
 3400POPC   C1A44523  12.110  39.960   6.464
 3400POPC   D2A44524  12.053  40.021   6.764
 3400POPC   C3A44525  12.120  40.044   7.064
 3400POPC   C4A44526  12.062  39.972   7.364
 3400POPC   C1B44527  12.276  39.793   6.464
 3400POPC   C2B44528  12.203  39.799   6.764
 3400POPC   C3B44529  12.278  39.836   7.064
 3400POPC   C4B44530  12.215  39.846   7.364
 3401POPC   NC344531  38.461  32.248   5.564
 3401POPC   PO444532  38.411  32.236   5.864
 3401POPC   GL144533  38.414  32.226   6.164
 3401POPC   GL244534  38.552  32.121   6.164
 3401POPC   C1A44535  38.503  32.285   6.464
 3401POPC   D2A44536  38.480  32.269   6.764
 3401POPC   C3A44537  38.489  32.213   7.064
 3401POPC   C4A44538  38.464  32.202   7.364
 3401POPC   C1B44539  38.650  32.128   6.464
 3401POPC   C2B44540  38.647  32.110   6.764
 3401POPC   C3B44541  38.669  32.037   7.064
 3401POPC   C4B44542  38.614  32.120   7.364
 3402POPC   NC344543   5.860   7.454   5.564
 3402POPC   PO444544   5.868   7.458   5.864
 3402POPC   GL144545   5.914   7.387   6.164
 3402POPC   GL244546   5.757   7.328   6.164
 3402POPC   C1A44547   5.892   7.375   6.464
 3402POPC   D2A44548   5.882   7.454   6.764
 3402POPC   C3A44549   5.879   7.449   7.064
 3402POPC   C4A44550   5.882   7.470   7.364
 3402POPC   C1B44551   5.683   7.300   6.464
 3402POPC   C2B44552   5.696   7.247   6.764
 3402POPC   C3B44553   5.674   7.295   7.064
 3402POPC   C4B44554   5.610   7.260   7.364
 3403POPC   NC344555  21.341   8.968   5.564
 3403POPC   PO444556  21.424   8.942   5.864
 3403POPC   GL144557  21.345   8.934   6.164
 3403POPC   GL244558  21.449   8.884   6.164
 3403POPC   C1A44559  21.345   8.976   6.464
 3403POPC   D2A44560  21.366   8.923   6.764
 3403POPC   C3A44561  21.353   9.001   7.064
 3403POPC   C4A44562  21.369   8.948   7.364
 3403POPC   C1B44563  21.560   8.863   6.464
 3403POPC   C2B44564  21.565   8.788   6.764
 3403POPC   C3B44565  21.625   8.791   7.064
 3403POPC   C4B44566  21.597   8.776   7.364
 3404POPC   NC344567  13.676  19.866   5.564
 3404POPC   PO444568  13.640  19.825   5.864
 3404POPC   GL144569  13.675  19.791   6.164
 3404POPC   GL244570  13.717  19.764   6.164
 3404POPC   C1A44571  13.581  19.877   6.464
 3404POPC   D2A44572  13.590  19.880   6.764
 3404POPC   C3A44573  13.675  19.865   7.064
 3404POPC   C4A44574  13.582  19.816   7.364
 3404POPC   C1B44575  13.775  19.572   6.464
 3404POPC   C2B44576  13.752  19.652   6.764
 3404POPC   C3B44577  13.743  19.633   7.064
 3404POPC   C4B44578  13.778  19.603   7.364
 3405POPC   NC344579  36.151  29.899   5.564
 3405POPC   PO444580  36.148  29.965   5.864
 3405POPC   GL144581  36.112  29.921   6.164
 3405POPC   GL244582  36.222  29.957   6.164
 3405POPC   C1A44583  36.155  29.912   6.464
 3405POPC   D2A44584  36.085  29.882   6.764
 3405POPC   C3A44585  36.078  29.891   7.064
 3405POPC   C4A44586  36.161  29.898   7.364
 3405POPC   C1B44587  36.385  29.946   6.464
 3405POPC   C2B44588  36.347  29.944   6.764
 3405POPC   C3B44589  36.342  29.980   7.064
 3405POPC   C4B44590  36.344  29.979   7.364
 3406POPC   NC344591  21.370   4.319   5.564
 3406POPC   PO444592  21.379   4.346   5.864
 3406POPC   GL144593  21.359   4.284   6.164
 3406POPC   GL244594  21.265   4.219   6.164
 3406POPC   C1A44595  21.390   4.323   6.464
 3406POPC   D2A44596  21.409   4.271   6.764
 3406POPC   C3A44597  21.337   4.367   7.064
 3406POPC   C4A44598  21.422   4.334   7.364
 3406POPC   C1B44599  21.209   4.120   6.464
 3406POPC   C2B44600  21.230   4.149   6.764
 3406POPC   C3B44601  21.235   4.141   7.064
 3406POPC   C4B44602  21.178   4.154   7.364
 3407POPC   NC344603  39.966  16.697   5.564
 3407POPC   PO444604  40.033  16.737   5.864
 3407POPC   GL144605  40.022  16.759   6.164
 3407POPC   GL244606  39.949  16.597   6.164
 3407POPC   C1A44607  39.978  16.772   6.464
 3407POPC   D2A44608  40.014  16.740   6.764
 3407POPC   C3A44609  39.976  16.737   7.064
 3407POPC   C4A44610  39.970  16.778   7.364
 3407POPC   C1B44611  39.914  16.487   6.464
 3407POPC   C2B44612  39.877  16.504   6.764
 3407POPC   C3B44613  39.870  16.522   7.064
 3407POPC   C4B44614  39.888  16.566   7.364
 3408POPC   NC344615  40.797  34.622   5.564
 3408POPC   PO444616  40.799  34.547   5.864
 3408POPC   GL144617  40.788  34.616   6.164
 3408POPC   GL244618  40.898  34.619   6.164
 3408POPC   C1A44619  40.821  34.527   6.464
 3408POPC   D2A44620  40.767  34.582   6.764
 3408POPC   C3A44621  40.740  34.621   7.064
 3408POPC   C4A44622  40.832  34.557   7.364
 3408POPC   C1B44623  40.963  34.702   6.464
 3408POPC   C2B44624  41.059  34.707   6.764
 3408POPC   C3B44625  40.982  34.651   7.064
 3408POPC   C4B44626  41.018  34.662   7.364
 3409POPC   NC344627  20.641  37.687   5.564
 3409POPC   PO444628  20.565  37.661   5.864
 3409POPC   GL144629  20.623  37.673   6.164
 3409POPC   GL244630  20.592  37.788   6.164
 3409POPC   C1A44631  20.617  37.698   6.464
 3409POPC   D2A44632  20.612  37.642   6.764
 3409POPC   C3A44633  20.563  37.668   7.064
 3409POPC   C4A44634  20.642  37.726   7.364
 3409POPC   C1B44635  20.461  37.881   6.464
 3409POPC   C2B44636  20.505  37.870   6.764
 3409POPC   C3B44637  20.439  37.865   7.064
 3409POPC   C4B44638  20.430  37.937   7.364
 3410POPC   NC344639   9.741  21.419   5.564
 3410POPC   PO444640   9.736  21.385   5.864
 3410POPC   GL144641   9.713  21.397   6.164
 3410POPC   GL244642   9.658  21.373   6.164
 3410POPC   C1A44643   9.750  21.374   6.464
 3410POPC   D2A44644   9.734  21.383   6.764
 3410POPC   C3A44645   9.738  21.406   7.064
 3410POPC   C4A44646   9.736  21.342   7.364
 3410POPC   C1B44647   9.510  21.390   6.464
 3410POPC   C2B44648   9.486  21.370   6.764
 3410POPC   C3B44649   9.481  21.332   7.064
 3410POPC   C4B44650   9.459  21.377   7.364
 3411POPC   NC344651   5.071  37.641   5.564
 3411POPC   PO444652   5.069  37.664   5.864
 3411POPC   GL144653   5.088  37.643   6.164
 3411POPC   GL244654   5.250  37.642   6.164
 3411POPC   C1A44655   5.065  37.727   6.464
 3411POPC   D2A44656   5.044  37.640   6.764
 3411POPC   C3A44657   5.086  37.711   7.064
 3411POPC   C4A44658   5.076  37.693   7.364
 3411POPC   C1B44659   5.343  37.683   6.464
 3411POPC   C2B44660   5.367  37.741   6.764
 3411POPC   C3B44661   5.382  37.662   7.064
 3411POPC   C4B44662   5.361  37.661   7.364
 3412POPC   NC344663  21.379   8.165   5.564
 3412POPC   PO444664  21.418   8.225   5.864
 3412POPC   GL144665  21.421   8.182   6.164
 3412POPC   GL244666  21.331   8.035   6.164
 3412POPC   C1A44667  21.371   8.151   6.464
 3412POPC   D2A44668  21.360   8.221   6.764
 3412POPC   C3A44669  21.408   8.227   7.064
 3412POPC   C4A44670  21.400   8.192   7.364
 3412POPC   C1B44671  21.270   8.015   6.464
 3412POPC   C2B44672  21.261   7.980   6.764
 3412POPC   C3B44673  21.309   7.957   7.064
 3412POPC   C4B44674  21.251   7.963   7.364
 3413POPC   NC344675  29.970   2.748   5.564
 3413POPC   PO444676  29.908   2.788   5.864
 3413POPC   GL144677  29.883   2.772   6.164
 3413POPC   GL244678  29.859   2.659   6.164
 3413POPC   C1A44679  29.924   2.743   6.464
 3413POPC   D2A44680  29.941   2.779   6.764
 3413POPC   C3A44681  29.913   2.729   7.064
 3413POPC   C4A44682  29.888   2.787   7.364
 3413POPC   C1B44683  29.699   2.588   6.464
 3413POPC   C2B44684  29.711   2.563   6.764
 3413POPC   C3B44685  29.746   2.616   7.064
 3413POPC   C4B44686  29.736   2.622   7.364
 3414POPC   NC344687   1.999   7.396   5.564
 3414POPC   PO444688   1.950   7.371   5.864
 3414POPC   GL144689   2.030   7.445   6.164
 3414POPC   GL244690   2.065   7.572   6.164
 3414POPC   C1A44691   2.014   7.459   6.464
 3414POPC   D2A44692   1.998   7.417   6.764
 3414POPC   C3A44693   2.002   7.454   7.064
 3414POPC   C4A44694   2.018   7.378   7.364
 3414POPC   C1B44695   2.058   7.686   6.464
 3414POPC   C2B44696   2.062   7.697   6.764
 3414POPC   C3B44697   2.055   7.672   7.064
 3414POPC   C4B44698   2.127   7.645   7.364
 3415POPC   NC344699  13.659  37.647   5.564
 3415POPC   PO444700  13.624  37.693   5.864
 3415POPC   GL144701  13.659  37.656   6.164
 3415POPC   GL244702  13.709  37.786   6.164
 3415POPC   C1A44703  13.669  37.687   6.464
 3415POPC   D2A44704  13.632  37.720   6.764
 3415POPC   C3A44705  13.629  37.726   7.064
 3415POPC   C4A44706  13.673  37.697   7.364
 3415POPC   C1B44707  13.831  37.861   6.464
 3415POPC   C2B44708  13.808  37.814   6.764
 3415POPC   C3B44709  13.870  37.848   7.064
 3415POPC   C4B44710  13.778  37.867   7.364
 3416POPC   NC344711  28.334  29.961   5.564
 3416POPC   PO444712  28.350  29.914   5.864
 3416POPC   GL144713  28.325  29.940   6.164
 3416POPC   GL244714  28.254  29.901   6.164
 3416POPC   C1A44715  28.379  29.970   6.464
 3416POPC   D2A44716  28.340  29.909   6.764
 3416POPC   C3A44717  28.360  29.900   7.064
 3416POPC   C4A44718  28.321  29.917   7.364
 3416POPC   C1B44719  28.177  29.829   6.464
 3416POPC   C2B44720  28.140  29.784   6.764
 3416POPC   C3B44721  28.163  29.850   7.064
 3416POPC   C4B44722  28.188  29.775   7.364
 3417POPC   NC344723   6.660  43.856   5.564
 3417POPC   PO444724   6.622  43.911   5.864
 3417POPC   GL144725   6.604  43.852   6.164
 3417POPC   GL244726   6.720  44.017   6.164
 3417POPC   C1A44727   6.689  43.886   6.464
 3417POPC   D2A44728   6.657  43.849   6.764
 3417POPC   C3A44729   6.684  43.927   7.064
 3417POPC   C4A44730   6.647  43.911   7.364
 3417POPC   C1B44731   6.779  44.013   6.464
 3417POPC   C2B44732   6.846  44.097   6.764
 3417POPC   C3B44733   6.804  44.029   7.064
 3417POPC   C4B44734   6.789  44.027   7.364
 3418POPC   NC344735  18.240  23.731   5.564
 3418POPC   PO444736  18.276  23.720   5.864
 3418POPC   GL144737  18.244  23.739   6.164
 3418POPC   GL244738  18.195  23.643   6.164
 3418POPC   C1A44739  18.262  23.734   6.464
 3418POPC   D2A44740  18.306  23.762   6.764
 3418POPC   C3A44741  18.248  23.665   7.064
 3418POPC   C4A44742  18.315  23.720   7.364
 3418POPC   C1B44743  18.190  23.514   6.464
 3418POPC   C2B44744  18.144  23.484   6.764
 3418POPC   C3B44745  18.159  23.482   7.064
 3418POPC   C4B44746  18.205  23.482   7.364
 3419POPC   NC344747  31.437   2.752   5.564
 3419POPC   PO444748  31.497   2.749   5.864
 3419POPC   GL144749  31.459   2.774   6.164
 3419POPC   GL244750  31.528   2.845   6.164
 3419POPC   C1A44751  31.488   2.791   6.464
 3419POPC   D2A44752  31.490   2.767   6.764
 3419POPC   C3A44753  31.473   2.728   7.064
 3419POPC   C4A44754  31.482   2.813   7.364
 3419POPC   C1B44755  31.485   3.036   6.464
 3419POPC   C2B44756  31.466   2.999   6.764
 3419POPC   C3B44757  31.471   3.027   7.064
 3419POPC   C4B44758  31.439   2.988   7.364
 3420POPC   NC344759  31.469  34.571   5.564
 3420POPC   PO444760  31.495  34.602   5.864
 3420POPC   GL144761  31.483  34.575   6.164
 3420POPC   GL244762  31.484  34.495   6.164
 3420POPC   C1A44763  31.455  34.555   6.464
 3420POPC   D2A44764  31.496  34.581   6.764
 3420POPC   C3A44765  31.441  34.538   7.064
 3420POPC   C4A44766  31.441  34.604   7.364
 3420POPC   C1B44767  31.555  34.340   6.464
 3420POPC   C2B44768  31.476  34.293   6.764
 3420POPC   C3B44769  31.488  34.323   7.064
 3420POPC   C4B44770  31.532  34.333   7.364
 3421POPC   NC344771  22.975  19.841   5.564
 3421POPC   PO444772  22.969  19.791   5.864
 3421POPC   GL144773  22.930  19.862   6.164
 3421POPC   GL244774  22.967  19.668   6.164
 3421POPC   C1A44775  22.920  19.823   6.464
 3421POPC   D2A44776  22.934  19.850   6.764
 3421POPC   C3A44777  22.938  19.867   7.064
 3421POPC   C4A44778  22.922  19.862   7.364
 3421POPC   C1B44779  22.936  19.628   6.464
 3421POPC   C2B44780  22.960  19.560   6.764
 3421POPC   C3B44781  22.891  19.630   7.064
 3421POPC   C4B44782  22.935  19.561   7.364
 3422POPC   NC344783  43.095  12.044   5.564
 3422POPC   PO444784  43.160  12.037   5.864
 3422POPC   GL144785  43.073  12.048   6.164
 3422POPC   GL244786  43.007  12.142   6.164
 3422POPC   C1A44787  43.130  12.112   6.464
 3422POPC   D2A44788  43.097  12.058   6.764
 3422POPC   C3A44789  43.115  12.106   7.064
 3422POPC   C4A44790  43.084  12.049   7.364
 3422POPC   C1B44791  42.945  12.250   6.464
 3422POPC   C2B44792  42.952  12.213   6.764
 3422POPC   C3B44793  42.914  12.225   7.064
 3422POPC   C4B44794  42.967  12.294   7.364
 3423POPC   NC344795  37.633  39.986   5.564
 3423POPC   PO444796  37.650  39.976   5.864
 3423POPC   GL144797  37.670  40.027   6.164
 3423POPC   GL244798  37.612  39.966   6.164
 3423POPC   C1A44799  37.652  39.973   6.464
 3423POPC   D2A44800  37.654  40.049   6.764
 3423POPC   C3A44801  37.721  39.982   7.064
 3423POPC   C4A44802  37.638  40.002   7.364
 3423POPC   C1B44803  37.461  39.947   6.464
 3423POPC   C2B44804  37.405  39.885   6.764
 3423POPC   C3B44805  37.445  39.893   7.064
 3423POPC   C4B44806  37.414  39.868   7.364
 3424POPC   NC344807  25.312  22.913   5.564
 3424POPC   PO444808  25.282  22.980   5.864
 3424POPC   GL144809  25.286  22.955   6.164
 3424POPC   GL244810  25.164  23.016   6.164
 3424POPC   C1A44811  25.218  22.979   6.464
 3424POPC   D2A44812  25.300  22.892   6.764
 3424POPC   C3A44813  25.271  22.978   7.064
 3424POPC   C4A44814  25.314  22.938   7.364
 3424POPC   C1B44815  25.063  23.038   6.464
 3424POPC   C2B44816  25.085  23.085   6.764
 3424POPC   C3B44817  25.013  23.062   7.064
 3424POPC   C4B44818  25.101  23.090   7.364
 3425POPC   NC344819  25.272  24.513   5.564
 3425POPC   PO444820  25.247  24.498   5.864
 3425POPC   GL144821  25.222  24.496   6.164
 3425POPC   GL244822  25.210  24.337   6.164
 3425POPC   C1A44823  25.286  24.442   6.464
 3425POPC   D2A44824  25.292  24.447   6.764
 3425POPC   C3A44825  25.230  24.523   7.064
 3425POPC   C4A44826  25.248  24.457   7.364
 3425POPC   C1B44827  25.196  24.265   6.464
 3425POPC   C2B44828  25.202  24.206   6.764
 3425POPC   C3B44829  25.196  24.264   7.064
 3425POPC   C4B44830  25.216  24.204   7.364
 3426POPC   NC344831  15.981  43.063   5.564
 3426POPC   PO444832  15.935  43.117   5.864
 3426POPC   GL144833  15.951  43.131   6.164
 3426POPC   GL244834  15.921  43.203   6.164
 3426POPC   C1A44835  15.959  43.088   6.464
 3426POPC   D2A44836  15.942  43.135   6.764
 3426POPC   C3A44837  15.958  43.061   7.064
 3426POPC   C4A44838  15.988  43.123   7.364
 3426POPC   C1B44839  15.862  43.336   6.464
 3426POPC   C2B44840  15.876  43.350   6.764
 3426POPC   C3B44841  15.918  43.303   7.064
 3426POPC   C4B44842  15.876  43.346   7.364
 3427POPC   NC344843  33.016  28.387   5.564
 3427POPC   PO444844  33.052  28.418   5.864
 3427POPC   GL144845  33.055  28.373   6.164
 3427POPC   GL244846  33.134  28.240   6.164
 3427POPC   C1A44847  33.006  28.339   6.464
 3427POPC   D2A44848  33.002  28.392   6.764
 3427POPC   C3A44849  32.987  28.397   7.064
 3427POPC   C4A44850  33.005  28.371   7.364
 3427POPC   C1B44851  33.130  28.175   6.464
 3427POPC   C2B44852  33.196  28.123   6.764
 3427POPC   C3B44853  33.121  28.160   7.064
 3427POPC   C4B44854  33.201  28.202   7.364
 3428POPC   NC344855  40.000  12.832   5.564
 3428POPC   PO444856  39.980  12.819   5.864
 3428POPC   GL144857  39.987  12.896   6.164
 3428POPC   GL244858  40.130  12.963   6.164
 3428POPC   C1A44859  40.005  12.813   6.464
 3428POPC   D2A44860  39.959  12.895   6.764
 3428POPC   C3A44861  40.042  12.876   7.064
 3428POPC   C4A44862  40.026  12.835   7.364
 3428POPC   C1B44863  40.189  12.972   6.464
 3428POPC   C2B44864  40.254  12.980   6.764
 3428POPC   C3B44865  40.196  12.974   7.064
 3428POPC   C4B44866  40.154  13.043   7.364
 3429POPC   NC344867  24.534  34.568   5.564
 3429POPC   PO444868  24.526  34.614   5.864
 3429POPC   GL144869  24.490  34.573   6.164
 3429POPC   GL244870  24.407  34.632   6.164
 3429POPC   C1A44871  24.473  34.583   6.464
 3429POPC   D2A44872  24.456  34.530   6.764
 3429POPC   C3A44873  24.532  34.562   7.064
 3429POPC   C4A44874  24.515  34.537   7.364
 3429POPC   C1B44875  24.257  34.642   6.464
 3429POPC   C2B44876  24.252  34.627   6.764
 3429POPC   C3B44877  24.282  34.653   7.064
 3429POPC   C4B44878  24.286  34.696   7.364
 3430POPC   NC344879  40.735  15.228   5.564
 3430POPC   PO444880  40.748  15.168   5.864
 3430POPC   GL144881  40.756  15.135   6.164
 3430POPC   GL244882  40.828  15.055   6.164
 3430POPC   C1A44883  40.761  15.210   6.464
 3430POPC   D2A44884  40.746  15.159   6.764
 3430POPC   C3A44885  40.812  15.214   7.064
 3430POPC   C4A44886  40.813  15.224   7.364
 3430POPC   C1B44887  40.769  14.956   6.464
 3430POPC   C2B44888  40.821  14.894   6.764
 3430POPC   C3B44889  40.846  14.943   7.064
 3430POPC   C4B44890  40.844  14.968   7.364
 3431POPC   NC344891  32.218  35.384   5.564
 3431POPC   PO444892  32.283  35.396   5.864
 3431POPC   GL144893  32.271  35.310   6.164
 3431POPC   GL244894  32.273  35.429   6.164
 3431POPC   C1A44895  32.243  35.347   6.464
 3431POPC   D2A44896  32.290  35.399   6.764
 3431POPC   C3A44897  32.232  35.376   7.064
 3431POPC   C4A44898  32.260  35.323   7.364
 3431POPC   C1B44899  32.354  35.571   6.464
 3431POPC   C2B44900  32.362  35.617   6.764
 3431POPC   C3B44901  32.348  35.581   7.064
 3431POPC   C4B44902  32.368  35.639   7.364
 3432POPC   NC344903   7.436   4.352   5.564
 3432POPC   PO444904   7.408   4.288   5.864
 3432POPC   GL144905   7.381   4.267   6.164
 3432POPC   GL244906   7.278   4.209   6.164
 3432POPC   C1A44907   7.398   4.334   6.464
 3432POPC   D2A44908   7.371   4.298   6.764
 3432POPC   C3A44909   7.371   4.351   7.064
 3432POPC   C4A44910   7.389   4.357   7.364
 3432POPC   C1B44911   7.242   4.165   6.464
 3432POPC   C2B44912   7.224   4.157   6.764
 3432POPC   C3B44913   7.206   4.191   7.064
 3432POPC   C4B44914   7.182   4.192   7.364
 3433POPC   NC344915  37.716  44.665   5.564
 3433POPC   PO444916  37.648  44.711   5.864
 3433POPC   GL144917  37.702  44.684   6.164
 3433POPC   GL244918  37.771  44.785   6.164
 3433POPC   C1A44919  37.676  44.706   6.464
 3433POPC   D2A44920  37.661  44.652   6.764
 3433POPC   C3A44921  37.663  44.698   7.064
 3433POPC   C4A44922  37.633  44.683   7.364
 3433POPC   C1B44923  37.901  44.849   6.464
 3433POPC   C2B44924  37.834  44.796   6.764
 3433POPC   C3B44925  37.824  44.884   7.064
 3433POPC   C4B44926  37.831  44.796   7.364
 3434POPC   NC344927  20.610  38.477   5.564
 3434POPC   PO444928  20.639  38.428   5.864
 3434POPC   GL144929  20.619  38.436   6.164
 3434POPC   GL244930  20.725  38.348   6.164
 3434POPC   C1A44931  20.615  38.432   6.464
 3434POPC   D2A44932  20.575  38.487   6.764
 3434POPC   C3A44933  20.605  38.420   7.064
 3434POPC   C4A44934  20.616  38.455   7.364
 3434POPC   C1B44935  20.770  38.328   6.464
 3434POPC   C2B44936  20.793  38.236   6.764
 3434POPC   C3B44937  20.774  38.261   7.064
 3434POPC   C4B44938  20.782  38.275   7.364
 3435POPC   NC344939  32.295  18.287   5.564
 3435POPC   PO444940  32.219  18.310   5.864
 3435POPC   GL144941  32.228  18.242   6.164
 3435POPC   GL244942  32.243  18.386   6.164
 3435POPC   C1A44943  32.247  18.274   6.464
 3435POPC   D2A44944  32.231  18.268   6.764
 3435POPC   C3A44945  32.298  18.272   7.064
 3435POPC   C4A44946  32.283  18.295   7.364
 3435POPC   C1B44947  32.240  18.489   6.464
 3435POPC   C2B44948  32.289  18.499   6.764
 3435POPC   C3B44949  32.308  18.497   7.064
 3435POPC   C4B44950  32.285  18.483   7.364
 3436POPC   NC344951  43.846  22.968   5.564
 3436POPC   PO444952  43.847  22.895   5.864
 3436POPC   GL144953  43.866  22.894   6.164
 3436POPC   GL244954  44.004  22.882   6.164
 3436POPC   C1A44955  43.861  22.929   6.464
 3436POPC   D2A44956  43.933  22.891   6.764
 3436POPC   C3A44957  43.914  22.910   7.064
 3436POPC   C4A44958  43.900  22.987   7.364
 3436POPC   C1B44959  44.024  22.728   6.464
 3436POPC   C2B44960  44.083  22.694   6.764
 3436POPC   C3B44961  44.021  22.742   7.064
 3436POPC   C4B44962  44.018  22.758   7.364
 3437POPC   NC344963   5.131   5.861   5.564
 3437POPC   PO444964   5.123   5.830   5.864
 3437POPC   GL144965   5.104   5.824   6.164
 3437POPC   GL244966   5.149   6.012   6.164
 3437POPC   C1A44967   5.124   5.901   6.464
 3437POPC   D2A44968   5.133   5.886   6.764
 3437POPC   C3A44969   5.143   5.819   7.064
 3437POPC   C4A44970   5.090   5.840   7.364
 3437POPC   C1B44971   5.157   6.119   6.464
 3437POPC   C2B44972   5.177   6.113   6.764
 3437POPC   C3B44973   5.206   6.123   7.064
 3437POPC   C4B44974   5.160   6.076   7.364
 3438POPC   NC344975   9.749  44.689   5.564
 3438POPC   PO444976   9.760  44.683   5.864
 3438POPC   GL144977   9.707  44.711   6.164
 3438POPC   GL244978   9.779  44.564   6.164
 3438POPC   C1A44979   9.762  44.682   6.464
 3438POPC   D2A44980   9.783  44.657   6.764
 3438POPC   C3A44981   9.702  44.617   7.064
 3438POPC   C4A44982   9.755  44.653   7.364
 3438POPC   C1B44983   9.780  44.435   6.464
 3438POPC   C2B44984   9.753  44.421   6.764
 3438POPC   C3B44985   9.694  44.447   7.064
 3438POPC   C4B44986   9.707  44.387   7.364
 3439POPC   NC344987   3.586  14.427   5.564
 3439POPC   PO444988   3.500  14.377   5.864
 3439POPC   GL144989   3.536  14.392   6.164
 3439POPC   GL244990   3.385  14.461   6.164
 3439POPC   C1A44991   3.500  14.430   6.464
 3439POPC   D2A44992   3.547  14.405   6.764
 3439POPC   C3A44993   3.532  14.432   7.064
 3439POPC   C4A44994   3.563  14.422   7.364
 3439POPC   C1B44995   3.352  14.476   6.464
 3439POPC   C2B44996   3.304  14.452   6.764
 3439POPC   C3B44997   3.344  14.523   7.064
 3439POPC   C4B44998   3.321  14.446   7.364
 3440POPC   NC344999  33.037  44.675   5.564
 3440POPC   PO445000  33.055  44.634   5.864
 3440POPC   GL145001  33.015  44.620   6.164
 3440POPC   GL245002  32.879  44.542   6.164
 3440POPC   C1A45003  33.055  44.635   6.464
 3440POPC   D2A45004  33.060  44.641   6.764
 3440POPC   C3A45005  33.029  44.642   7.064
 3440POPC   C4A45006  32.979  44.689   7.364
 3440POPC   C1B45007  32.818  44.554   6.464
 3440POPC   C2B45008  32.868  44.550   6.764
 3440POPC   C3B45009  32.778  44.535   7.064
 3440POPC   C4B45010  32.843  44.544   7.364
 3441POPC   NC345011  43.062  19.109   5.564
 3441POPC   PO445012  43.108  19.103   5.864
 3441POPC   GL145013  43.138  19.014   6.164
 3441POPC   GL245014  43.009  19.158   6.164
 3441POPC   C1A45015  43.075  19.108   6.464
 3441POPC   D2A45016  43.121  19.043   6.764
 3441POPC   C3A45017  43.138  19.103   7.064
 3441POPC   C4A45018  43.091  19.044   7.364
 3441POPC   C1B45019  42.908  19.192   6.464
 3441POPC   C2B45020  42.862  19.156   6.764
 3441POPC   C3B45021  42.857  19.182   7.064
 3441POPC   C4B45022  42.911  19.136   7.364
 3442POPC   NC345023  33.820   2.722   5.564
 3442POPC   PO445024  33.817   2.805   5.864
 3442POPC   GL145025  33.848   2.771   6.164
 3442POPC   GL245026  33.896   2.714   6.164
 3442POPC   C1A45027  33.777   2.748   6.464
 3442POPC   D2A45028  33.789   2.793   6.764
 3442POPC   C3A45029  33.821   2.760   7.064
 3442POPC   C4A45030  33.812   2.775   7.364
 3442POPC   C1B45031  34.019   2.737   6.464
 3442POPC   C2B45032  34.069   2.724   6.764
 3442POPC   C3B45033  34.002   2.715   7.064
 3442POPC   C4B45034  34.083   2.773   7.364
 3443POPC   NC345035  11.324  43.852   5.564
 3443POPC   PO445036  11.266  43.931   5.864
 3443POPC   GL145037  11.301  43.863   6.164
 3443POPC   GL245038  11.400  43.858   6.164
 3443POPC   C1A45039  11.323  43.839   6.464
 3443POPC   D2A45040  11.295  43.923   6.764
 3443POPC   C3A45041  11.261  43.931   7.064
 3443POPC   C4A45042  11.279  43.872   7.364
 3443POPC   C1B45043  11.560  43.823   6.464
 3443POPC   C2B45044  11.524  43.817   6.764
 3443POPC   C3B45045  11.553  43.825   7.064
 3443POPC   C4B45046  11.540  43.842   7.364
 3444POPC   NC345047  40.796  26.071   5.564
 3444POPC   PO445048  40.749  26.075   5.864
 3444POPC   GL145049  40.741  26.070   6.164
 3444POPC   GL245050  40.676  26.132   6.164
 3444POPC   C1A45051  40.762  26.019   6.464
 3444POPC   D2A45052  40.756  26.079   6.764
 3444POPC   C3A45053  40.781  26.026   7.064
 3444POPC   C4A45054  40.826  26.004   7.364
 3444POPC   C1B45055  40.638  26.172   6.464
 3444POPC   C2B45056  40.616  26.202   6.764
 3444POPC   C3B45057  40.555  26.195   7.064
 3444POPC   C4B45058  40.555  26.238   7.364
 3445POPC   NC345059  14.407  25.245   5.564
 3445POPC   PO445060  14.386  25.290   5.864
 3445POPC   GL145061  14.371  25.268   6.164
 3445POPC   GL245062  14.509  25.230   6.164
 3445POPC   C1A45063  14.447  25.245   6.464
 3445POPC   D2A45064  14.374  25.219   6.764
 3445POPC   C3A45065  14.399  25.284   7.064
 3445POPC   C4A45066  14.434  25.288   7.364
 3445POPC   C1B45067  14.678  25.246   6.464
 3445POPC   C2B45068  14.642  25.263   6.764
 3445POPC   C3B45069  14.649  25.172   7.064
 3445POPC   C4B45070  14.626  25.213   7.364
 3446POPC   NC345071  19.075  44.646   5.564
 3446POPC   PO445072  19.094  44.617   5.864
 3446POPC   GL145073  19.035  44.653   6.164
 3446POPC   GL245074  18.902  44.704   6.164
 3446POPC   C1A45075  19.047  44.641   6.464
 3446POPC   D2A45076  19.095  44.686   6.764
 3446POPC   C3A45077  19.021  44.647   7.064
 3446POPC   C4A45078  19.074  44.712   7.364
 3446POPC   C1B45079  18.821  44.642   6.464
 3446POPC   C2B45080  18.807  44.619   6.764
 3446POPC   C3B45081  18.840  44.686   7.064
 3446POPC   C4B45082  18.807  44.650   7.364
 3447POPC   NC345083  17.507  15.165   5.564
 3447POPC   PO445084  17.504  15.212   5.864
 3447POPC   GL145085  17.473  15.151   6.164
 3447POPC   GL245086  17.412  15.201   6.164
 3447POPC   C1A45087  17.537  15.148   6.464
 3447POPC   D2A45088  17.551  15.146   6.764
 3447POPC   C3A45089  17.495  15.140   7.064
 3447POPC   C4A45090  17.522  15.205   7.364
 3447POPC   C1B45091  17.221  15.219   6.464
 3447POPC   C2B45092  17.250  15.222   6.764
 3447POPC   C3B45093  17.225  15.233   7.064
 3447POPC   C4B45094  17.264  15.192   7.364
 3448POPC   NC345095  12.075  29.892   5.564
 3448POPC   PO445096  12.040  29.964   5.864
 3448POPC   GL145097  12.057  29.928   6.164
 3448POPC   GL245098  12.214  29.945   6.164
 3448POPC   C1A45099  12.026  29.928   6.464
 3448POPC   D2A45100  12.094  29.963   6.764
 3448POPC   C3A45101  12.104  29.944   7.064
 3448POPC   C4A45102  12.081  29.912   7.364
 3448POPC   C1B45103  12.270  30.095   6.464
 3448POPC   C2B45104  12.290  30.057   6.764
 3448POPC   C3B45105  12.301  30.037   7.064
 3448POPC   C4B45106  12.245  30.030   7.364
 3449POPC   NC345107  21.416  12.892   5.564
 3449POPC   PO445108  21.411  12.811   5.864
 3449POPC   GL145109  21.345  12.890   6.164
 3449POPC   GL245110  21.225  12.772   6.164
 3449POPC   C1A45111  21.407  12.838   6.464
 3449POPC   D2A45112  21.398  12.854   6.764
 3449POPC   C3A45113  21.367  12.879   7.064
 3449POPC   C4A45114  21.371  12.861   7.364
 3449POPC   C1B45115  21.172  12.830   6.464
 3449POPC   C2B45116  21.194  12.790   6.764
 3449POPC   C3B45117  21.112  12.770   7.064
 3449POPC   C4B45118  21.124  12.756   7.364
 3450POPC   NC345119  32.293  15.201   5.564
 3450POPC   PO445120  32.294  15.189   5.864
 3450POPC   GL145121  32.264  15.147   6.164
 3450POPC   GL245122  32.145  15.241   6.164
 3450POPC   C1A45123  32.214  15.138   6.464
 3450POPC   D2A45124  32.252  15.202   6.764
 3450POPC   C3A45125  32.250  15.179   7.064
 3450POPC   C4A45126  32.248  15.164   7.364
 3450POPC   C1B45127  32.035  15.240   6.464
 3450POPC   C2B45128  31.995  15.186   6.764
 3450POPC   C3B45129  32.033  15.231   7.064
 3450POPC   C4B45130  31.972  15.226   7.364
 3451POPC   NC345131  43.150  42.329   5.564
 3451POPC   PO445132  43.099  42.366   5.864
 3451POPC   GL145133  43.156  42.355   6.164
 3451POPC   GL245134  42.983  42.437   6.164
 3451POPC   C1A45135  43.103  42.311   6.464
 3451POPC   D2A45136  43.153  42.353   6.764
 3451POPC   C3A45137  43.120  42.316   7.064
 3451POPC   C4A45138  43.133  42.312   7.364
 3451POPC   C1B45139  42.925  42.441   6.464
 3451POPC   C2B45140  42.937  42.526   6.764
 3451POPC   C3B45141  42.944  42.495   7.064
 3451POPC   C4B45142  42.906  42.496   7.364
 3452POPC   NC345143   1.175  21.341   5.564
 3452POPC   PO445144   1.180  21.400   5.864
 3452POPC   GL145145   1.262  21.385   6.164
 3452POPC   GL245146   1.325  21.477   6.164
 3452POPC   C1A45147   1.167  21.391   6.464
 3452POPC   D2A45148   1.182  21.398   6.764
 3452POPC   C3A45149   1.207  21.337   7.064
 3452POPC   C4A45150   1.259  21.362   7.364
 3452POPC   C1B45151   1.378  21.508   6.464
 3452POPC   C2B45152   1.462  21.553   6.764
 3452POPC   C3B45153   1.396  21.536   7.064
 3452POPC   C4B45154   1.387  21.489   7.364
 3453POPC   NC345155   6.657   2.813   5.564
 3453POPC   PO445156   6.666   2.784   5.864
 3453POPC   GL145157   6.680   2.730   6.164
 3453POPC   GL245158   6.810   2.809   6.164
 3453POPC   C1A45159   6.621   2.718   6.464
 3453POPC   D2A45160   6.604   2.783   6.764
 3453POPC   C3A45161   6.599   2.804   7.064
 3453POPC   C4A45162   6.666   2.800   7.364
 3453POPC   C1B45163   6.932   2.801   6.464
 3453POPC   C2B45164   6.876   2.745   6.764
 3453POPC   C3B45165   6.898   2.754   7.064
 3453POPC   C4B45166   6.852   2.764   7.364
 3454POPC   NC345167  11.349  44.682   5.564
 3454POPC   PO445168  11.326  44.652   5.864
 3454POPC   GL145169  11.302  44.654   6.164
 3454POPC   GL245170  11.234  44.595   6.164
 3454POPC   C1A45171  11.294  44.637   6.464
 3454POPC   D2A45172  11.330  44.690   6.764
 3454POPC   C3A45173  11.298  44.676   7.064
 3454POPC   C4A45174  11.252  44.665   7.364
 3454POPC   C1B45175  11.093  44.503   6.464
 3454POPC   C2B45176  11.063  44.541   6.764
 3454POPC   C3B45177  11.144  44.561   7.064
 3454POPC   C4B45178  11.109  44.555   7.364
 3455POPC   NC345179  41.604  24.511   5.564
 3455POPC   PO445180  41.552  24.444   5.864
 3455POPC   GL145181  41.576  24.478   6.164
 3455POPC   GL245182  41.555  24.650   6.164
 3455POPC   C1A45183  41.571  24.502   6.464
 3455POPC   D2A45184  41.585  24.472   6.764
 3455POPC   C3A45185  41.515  24.504   7.064
 3455POPC   C4A45186  41.569  24.512   7.364
 3455POPC   C1B45187  41.470  24.742   6.464
 3455POPC   C2B45188  41.473  24.718   6.764
 3455POPC   C3B45189  41.494  24.764   7.064
 3455POPC   C4B45190  41.467  24.767   7.364
 3456POPC   NC345191  11.266  35.364   5.564
 3456POPC   PO445192  11.303  35.383   5.864
 3456POPC   GL145193  11.257  35.374   6.164
 3456POPC   GL245194  11.242  35.476   6.164
 3456POPC   C1A45195  11.307  35.397   6.464
 3456POPC   D2A45196  11.306  35.338   6.764
 3456POPC   C3A45197  11.282  35.316   7.064
 3456POPC   C4A45198  11.334  35.399   7.364
 3456POPC   C1B45199  11.321  35.555   6.464
 3456POPC   C2B45200  11.238  35.605   6.764
 3456POPC   C3B45201  11.261  35.602   7.064
 3456POPC   C4B45202  11.289  35.615   7.364
 3457POPC   NC345203  36.088  41.510   5.564
 3457POPC   PO445204  36.115  41.567   5.864
 3457POPC   GL145205  36.116  41.522   6.164
 3457POPC   GL245206  36.211  41.654   6.164
 3457POPC   C1A45207  36.105  41.543   6.464
 3457POPC   D2A45208  36.082  41.562   6.764
 3457POPC   C3A45209  36.101  41.518   7.064
 3457POPC   C4A45210  36.093  41.509   7.364
 3457POPC   C1B45211  36.320  41.748   6.464
 3457POPC   C2B45212  36.314  41.736   6.764
 3457POPC   C3B45213  36.332  41.727   7.064
 3457POPC   C4B45214  36.333  41.738   7.364
 3458POPC   NC345215  22.113  44.659   5.564
 3458POPC   PO445216  22.143  44.701   5.864
 3458POPC   GL145217  22.169  44.643   6.164
 3458POPC   GL245218  21.999  44.644   6.164
 3458POPC   C1A45219  22.115  44.614   6.464
 3458POPC   D2A45220  22.131  44.671   6.764
 3458POPC   C3A45221  22.178  44.677   7.064
 3458POPC   C4A45222  22.157  44.697   7.364
 3458POPC   C1B45223  21.882  44.722   6.464
 3458POPC   C2B45224  21.915  44.634   6.764
 3458POPC   C3B45225  21.926  44.666   7.064
 3458POPC   C4B45226  21.950  44.730   7.364
 3459POPC   NC345227  22.196  20.660   5.564
 3459POPC   PO445228  22.144  20.614   5.864
 3459POPC   GL145229  22.149  20.611   6.164
 3459POPC   GL245230  22.002  20.636   6.164
 3459POPC   C1A45231  22.161  20.574   6.464
 3459POPC   D2A45232  22.125  20.605   6.764
 3459POPC   C3A45233  22.182  20.573   7.064
 3459POPC   C4A45234  22.137  20.652   7.364
 3459POPC   C1B45235  21.873  20.563   6.464
 3459POPC   C2B45236  21.898  20.585   6.764
 3459POPC   C3B45237  21.912  20.531   7.064
 3459POPC   C4B45238  21.886  20.526   7.364
 3460POPC   NC345239   5.043  25.303   5.564
 3460POPC   PO445240   5.075  25.312   5.864
 3460POPC   GL145241   5.141  25.244   6.164
 3460POPC   GL245242   5.211  25.210   6.164
 3460POPC   C1A45243   5.119  25.300   6.464
 3460POPC   D2A45244   5.104  25.283   6.764
 3460POPC   C3A45245   5.132  25.282   7.064
 3460POPC   C4A45246   5.050  25.260   7.364
 3460POPC   C1B45247   5.333  25.133   6.464
 3460POPC   C2B45248   5.335  25.093   6.764
 3460POPC   C3B45249   5.307  25.145   7.064
 3460POPC   C4B45250   5.242  25.129   7.364
 3461POPC   NC345251   1.978   3.545   5.564
 3461POPC   PO445252   1.951   3.550   5.864
 3461POPC   GL145253   2.034   3.499   6.164
 3461POPC   GL245254   1.912   3.606   6.164
 3461POPC   C1A45255   2.005   3.538   6.464
 3461POPC   D2A45256   2.008   3.572   6.764
 3461POPC   C3A45257   2.022   3.498   7.064
 3461POPC   C4A45258   2.013   3.585   7.364
 3461POPC   C1B45259   1.849   3.755   6.464
 3461POPC   C2B45260   1.845   3.730   6.764
 3461POPC   C3B45261   1.847   3.790   7.064
 3461POPC   C4B45262   1.821   3.760   7.364
 3462POPC   NC345263  29.963   9.777   5.564
 3462POPC   PO445264  29.943   9.769   5.864
 3462POPC   GL145265  29.891   9.754   6.164
 3462POPC   GL245266  30.034   9.627   6.164
 3462POPC   C1A45267  29.906   9.765   6.464
 3462POPC   D2A45268  29.873   9.789   6.764
 3462POPC   C3A45269  29.942   9.706   7.064
 3462POPC   C4A45270  29.905   9.722   7.364
 3462POPC   C1B45271  30.145   9.606   6.464
 3462POPC   C2B45272  30.132   9.538   6.764
 3462POPC   C3B45273  30.144   9.552   7.064
 3462POPC   C4B45274  30.129   9.561   7.364
 3463POPC   NC345275  33.765  12.818   5.564
 3463POPC   PO445276  33.823  12.855   5.864
 3463POPC   GL145277  33.798  12.842   6.164
 3463POPC   GL245278  33.674  12.913   6.164
 3463POPC   C1A45279  33.808  12.883   6.464
 3463POPC   D2A45280  33.821  12.894   6.764
 3463POPC   C3A45281  33.799  12.847   7.064
 3463POPC   C4A45282  33.849  12.885   7.364
 3463POPC   C1B45283  33.608  13.038   6.464
 3463POPC   C2B45284  33.566  13.025   6.764
 3463POPC   C3B45285  33.590  13.000   7.064
 3463POPC   C4B45286  33.655  13.031   7.364
 3464POPC   NC345287  10.495  32.242   5.564
 3464POPC   PO445288  10.491  32.284   5.864
 3464POPC   GL145289  10.559  32.269   6.164
 3464POPC   GL245290  10.427  32.306   6.164
 3464POPC   C1A45291  10.514  32.234   6.464
 3464POPC   D2A45292  10.562  32.208   6.764
 3464POPC   C3A45293  10.568  32.261   7.064
 3464POPC   C4A45294  10.504  32.250   7.364
 3464POPC   C1B45295  10.333  32.387   6.464
 3464POPC   C2B45296  10.290  32.386   6.764
 3464POPC   C3B45297  10.272  32.346   7.064
 3464POPC   C4B45298  10.343  32.357   7.364
 3465POPC   NC345299  14.416  20.650   5.564
 3465POPC   PO445300  14.429  20.621   5.864
 3465POPC   GL145301  14.417  20.588   6.164
 3465POPC   GL245302  14.517  20.660   6.164
 3465POPC   C1A45303  14.452  20.578   6.464
 3465POPC   D2A45304  14.383  20.574   6.764
 3465POPC   C3A45305  14.376  20.650   7.064
 3465POPC   C4A45306  14.445  20.653   7.364
 3465POPC   C1B45307  14.554  20.756   6.464
 3465POPC   C2B45308  14.547  20.818   6.764
 3465POPC   C3B45309  14.510  20.828   7.064
 3465POPC   C4B45310  14.604  20.794   7.364
 3466POPC   NC345311  19.094   2.788   5.564
 3466POPC   PO445312  19.040   2.740   5.864
 3466POPC   GL145313  19.088   2.725   6.164
 3466POPC   GL245314  19.048   2.905   6.164
 3466POPC   C1A45315  19.043   2.761   6.464
 3466POPC   D2A45316  19.038   2.749   6.764
 3466POPC   C3A45317  19.108   2.773   7.064
 3466POPC   C4A45318  19.050   2.734   7.364
 3466POPC   C1B45319  19.043   2.985   6.464
 3466POPC   C2B45320  18.980   3.029   6.764
 3466POPC   C3B45321  19.059   3.011   7.064
 3466POPC   C4B45322  19.067   3.031   7.364
 3467POPC   NC345323  32.207  33.013   5.564
 3467POPC   PO445324  32.244  32.978   5.864
 3467POPC   GL145325  32.280  33.050   6.164
 3467POPC   GL245326  32.286  32.935   6.164
 3467POPC   C1A45327  32.285  32.984   6.464
 3467POPC   D2A45328  32.200  33.009   6.764
 3467POPC   C3A45329  32.280  32.998   7.064
 3467POPC   C4A45330  32.249  33.005   7.364
 3467POPC   C1B45331  32.245  32.812   6.464
 3467POPC   C2B45332  32.249  32.763   6.764
 3467POPC   C3B45333  32.288  32.815   7.064
 3467POPC   C4B45334  32.290  32.738   7.364
 3468POPC   NC345335  26.807  19.022   5.564
 3468POPC   PO445336  26.798  19.090   5.864
 3468POPC   GL145337  26.818  19.022   6.164
 3468POPC   GL245338  26.940  18.957   6.164
 3468POPC   C1A45339  26.774  19.031   6.464
 3468POPC   D2A45340  26.822  19.072   6.764
 3468POPC   C3A45341  26.809  19.051   7.064
 3468POPC   C4A45342  26.852  19.069   7.364
 3468POPC   C1B45343  27.065  18.918   6.464
 3468POPC   C2B45344  27.045  18.942   6.764
 3468POPC   C3B45345  27.008  18.889   7.064
 3468POPC   C4B45346  27.015  18.878   7.364
 3469POPC   NC345347   4.298  43.911   5.564
 3469POPC   PO445348   4.272  43.906   5.864
 3469POPC   GL145349   4.317  43.919   6.164
 3469POPC   GL245350   4.207  43.840   6.164
 3469POPC   C1A45351   4.277  43.848   6.464
 3469POPC   D2A45352   4.344  43.891   6.764
 3469POPC   C3A45353   4.303  43.910   7.064
 3469POPC   C4A45354   4.346  43.920   7.364
 3469POPC   C1B45355   4.124  43.749   6.464
 3469POPC   C2B45356   4.074  43.778   6.764
 3469POPC   C3B45357   4.142  43.790   7.064
 3469POPC   C4B45358   4.144  43.792   7.364
 3470POPC   NC345359  31.493  43.068   5.564
 3470POPC   PO445360  31.495  43.061   5.864
 3470POPC   GL145361  31.436  43.127   6.164
 3470POPC   GL245362  31.411  43.006   6.164
 3470POPC   C1A45363  31.467  43.136   6.464
 3470POPC   D2A45364  31.484  43.096   6.764
 3470POPC   C3A45365  31.499  43.100   7.064
 3470POPC   C4A45366  31.438  43.076   7.364
 3470POPC   C1B45367  31.233  42.968   6.464
 3470POPC   C2B45368  31.251  42.963   6.764
 3470POPC   C3B45369  31.206  42.970   7.064
 3470POPC   C4B45370  31.224  42.955   7.364
 3471POPC   NC345371  39.272  22.165   5.564
 3471POPC   PO445372  39.238  22.165   5.864
 3471POPC   GL145373  39.230  22.125   6.164
 3471POPC   GL245374  39.189  22.248   6.164
 3471POPC   C1A45375  39.278  22.201   6.464
 3471POPC   D2A45376  39.237  22.190   6.764
 3471POPC   C3A45377  39.239  22.184   7.064
 3471POPC   C4A45378  39.235  22.155   7.364
 3471POPC   C1B45379  39.180  22.369   6.464
 3471POPC   C2B45380  39.124  22.370   6.764
 3471POPC   C3B45381  39.165  22.442   7.064
 3471POPC   C4B45382  39.104  22.404   7.364
 3472POPC   NC345383   8.188  27.600   5.564
 3472POPC   PO445384   8.188  27.611   5.864
 3472POPC   GL145385   8.157  27.561   6.164
 3472POPC   GL245386   8.274  27.622   6.164
 3472POPC   C1A45387   8.163  27.571   6.464
 3472POPC   D2A45388   8.225  27.605   6.764
 3472POPC   C3A45389   8.217  27.585   7.064
 3472POPC   C4A45390   8.155  27.612   7.364
 3472POPC   C1B45391   8.400  27.631   6.464
 3472POPC   C2B45392   8.405  27.681   6.764
 3472POPC   C3B45393   8.466  27.682   7.064
 3472POPC   C4B45394   8.454  27.636   7.364
 3473POPC   NC345395   2.774  12.112   5.564
 3473POPC   PO445396   2.730  12.061   5.864
 3473POPC   GL145397   2.773  12.102   6.164
 3473POPC   GL245398   2.857  12.008   6.164
 3473POPC   C1A45399   2.734  12.032   6.464
 3473POPC   D2A45400   2.718  12.095   6.764
 3473POPC   C3A45401   2.717  12.081   7.064
 3473POPC   C4A45402   2.802  12.029   7.364
 3473POPC   C1B45403   3.053  11.977   6.464
 3473POPC   C2B45404   3.045  12.025   6.764
 3473POPC   C3B45405   2.988  12.019   7.064
 3473POPC   C4B45406   3.053  11.956   7.364
 3474POPC   NC345407   8.190   5.882   5.564
 3474POPC   PO445408   8.165   5.823   5.864
 3474POPC   GL145409   8.237   5.890   6.164
 3474POPC   GL245410   8.144   5.764   6.164
 3474POPC   C1A45411   8.189   5.856   6.464
 3474POPC   D2A45412   8.241   5.864   6.764
 3474POPC   C3A45413   8.182   5.839   7.064
 3474POPC   C4A45414   8.222   5.916   7.364
 3474POPC   C1B45415   8.097   5.590   6.464
 3474POPC   C2B45416   8.106   5.672   6.764
 3474POPC   C3B45417   8.104   5.600   7.064
 3474POPC   C4B45418   8.092   5.600   7.364
 3475POPC   NC345419  23.734   4.307   5.564
 3475POPC   PO445420  23.730   4.289   5.864
 3475POPC   GL145421  23.758   4.357   6.164
 3475POPC   GL245422  23.760   4.270   6.164
 3475POPC   C1A45423  23.677   4.278   6.464
 3475POPC   D2A45424  23.668   4.318   6.764
 3475POPC   C3A45425  23.720   4.345   7.064
 3475POPC   C4A45426  23.700   4.307   7.364
 3475POPC   C1B45427  23.879   4.116   6.464
 3475POPC   C2B45428  23.926   4.127   6.764
 3475POPC   C3B45429  23.902   4.186   7.064
 3475POPC   C4B45430  23.932   4.184   7.364
 3476POPC   NC345431  19.861  15.949   5.564
 3476POPC   PO445432  19.789  15.927   5.864
 3476POPC   GL145433  19.881  16.002   6.164
 3476POPC   GL245434  19.912  16.015   6.164
 3476POPC   C1A45435  19.826  15.996   6.464
 3476POPC   D2A45436  19.848  15.914   6.764
 3476POPC   C3A45437  19.875  15.990   7.064
 3476POPC   C4A45438  19.805  15.972   7.364
 3476POPC   C1B45439  20.088  16.085   6.464
 3476POPC   C2B45440  20.074  16.060   6.764
 3476POPC   C3B45441  20.024  16.132   7.064
 3476POPC   C4B45442  20.007  16.117   7.364
 3477POPC   NC345443  33.007  20.588   5.564
 3477POPC   PO445444  32.982  20.599   5.864
 3477POPC   GL145445  33.016  20.592   6.164
 3477POPC   GL245446  33.089  20.738   6.164
 3477POPC   C1A45447  33.059  20.660   6.464
 3477POPC   D2A45448  32.987  20.609   6.764
 3477POPC   C3A45449  33.037  20.615   7.064
 3477POPC   C4A45450  32.997  20.570   7.364
 3477POPC   C1B45451  33.189  20.861   6.464
 3477POPC   C2B45452  33.160  20.879   6.764
 3477POPC   C3B45453  33.096  20.863   7.064
 3477POPC   C4B45454  33.139  20.856   7.364
 3478POPC   NC345455  37.729  19.089   5.564
 3478POPC   PO445456  37.642  19.082   5.864
 3478POPC   GL145457  37.682  19.093   6.164
 3478POPC   GL245458  37.792  19.054   6.164
 3478POPC   C1A45459  37.675  19.100   6.464
 3478POPC   D2A45460  37.720  19.025   6.764
 3478POPC   C3A45461  37.629  19.063   7.064
 3478POPC   C4A45462  37.687  19.027   7.364
 3478POPC   C1B45463  37.898  19.057   6.464
 3478POPC   C2B45464  37.892  19.097   6.764
 3478POPC   C3B45465  37.936  19.035   7.064
 3478POPC   C4B45466  37.912  19.031   7.364
 3479POPC   NC345467   9.785   8.242   5.564
 3479POPC   PO445468   9.728   8.190   5.864
 3479POPC   GL145469   9.790   8.185   6.164
 3479POPC   GL245470   9.693   8.106   6.164
 3479POPC   C1A45471   9.751   8.245   6.464
 3479POPC   D2A45472   9.725   8.236   6.764
 3479POPC   C3A45473   9.786   8.178   7.064
 3479POPC   C4A45474   9.775   8.212   7.364
 3479POPC   C1B45475   9.608   8.037   6.464
 3479POPC   C2B45476   9.648   7.949   6.764
 3479POPC   C3B45477   9.582   8.014   7.064
 3479POPC   C4B45478   9.591   7.940   7.364
 3480POPC   NC345479  25.222  27.629   5.564
 3480POPC   PO445480  25.292  27.569   5.864
 3480POPC   GL145481  25.267  27.626   6.164
 3480POPC   GL245482  25.360  27.626   6.164
 3480POPC   C1A45483  25.288  27.619   6.464
 3480POPC   D2A45484  25.251  27.610   6.764
 3480POPC   C3A45485  25.224  27.613   7.064
 3480POPC   C4A45486  25.263  27.565   7.364
 3480POPC   C1B45487  25.475  27.595   6.464
 3480POPC   C2B45488  25.518  27.583   6.764
 3480POPC   C3B45489  25.546  27.664   7.064
 3480POPC   C4B45490  25.494  27.660   7.364
 3481POPC   NC345491  24.457   3.501   5.564
 3481POPC   PO445492  24.493   3.510   5.864
 3481POPC   GL145493  24.446   3.566   6.164
 3481POPC   GL245494  24.489   3.376   6.164
 3481POPC   C1A45495  24.455   3.513   6.464
 3481POPC   D2A45496  24.461   3.569   6.764
 3481POPC   C3A45497  24.536   3.498   7.064
 3481POPC   C4A45498  24.519   3.530   7.364
 3481POPC   C1B45499  24.401   3.265   6.464
 3481POPC   C2B45500  24.373   3.256   6.764
 3481POPC   C3B45501  24.402   3.341   7.064
 3481POPC   C4B45502  24.454   3.317   7.364
 3482POPC   NC345503  17.552  30.665   5.564
 3482POPC   PO445504  17.504  30.711   5.864
 3482POPC   GL145505  17.492  30.744   6.164
 3482POPC   GL245506  17.622  30.621   6.164
 3482POPC   C1A45507  17.541  30.716   6.464
 3482POPC   D2A45508  17.476  30.679   6.764
 3482POPC   C3A45509  17.526  30.658   7.064
 3482POPC   C4A45510  17.459  30.700   7.364
 3482POPC   C1B45511  17.739  30.663   6.464
 3482POPC   C2B45512  17.793  30.636   6.764
 3482POPC   C3B45513  17.723  30.621   7.064
 3482POPC   C4B45514  17.727  30.671   7.364
 3483POPC   NC345515  30.684  42.351   5.564
 3483POPC   PO445516  30.662  42.326   5.864
 3483POPC   GL145517  30.696  42.301   6.164
 3483POPC   GL245518  30.734  42.450   6.164
 3483POPC   C1A45519  30.731  42.378   6.464
 3483POPC   D2A45520  30.740  42.287   6.764
 3483POPC   C3A45521  30.702  42.330   7.064
 3483POPC   C4A45522  30.746  42.314   7.364
 3483POPC   C1B45523  30.744  42.623   6.464
 3483POPC   C2B45524  30.703  42.553   6.764
 3483POPC   C3B45525  30.757  42.538   7.064
 3483POPC   C4B45526  30.695  42.586   7.364
 3484POPC   NC345527  33.027  24.525   5.564
 3484POPC   PO445528  33.071  24.496   5.864
 3484POPC   GL145529  33.011  24.528   6.164
 3484POPC   GL245530  33.163  24.592   6.164
 3484POPC   C1A45531  33.028  24.450   6.464
 3484POPC   D2A45532  33.073  24.449   6.764
 3484POPC   C3A45533  33.048  24.477   7.064
 3484POPC   C4A45534  33.036  24.489   7.364
 3484POPC   C1B45535  33.222  24.602   6.464
 3484POPC   C2B45536  33.194  24.660   6.764
 3484POPC   C3B45537  33.213  24.613   7.064
 3484POPC   C4B45538  33.283  24.589   7.364
 3485POPC   NC345539  18.292  32.255   5.564
 3485POPC   PO445540  18.277  32.241   5.864
 3485POPC   GL145541  18.254  32.233   6.164
 3485POPC   GL245542  18.290  32.406   6.164
 3485POPC   C1A45543  18.296  32.269   6.464
 3485POPC   D2A45544  18.268  32.208   6.764
 3485POPC   C3A45545  18.330  32.254   7.064
 3485POPC   C4A45546  18.295  32.254   7.364
 3485POPC   C1B45547  18.212  32.538   6.464
 3485POPC   C2B45548  18.258  32.545   6.764
 3485POPC   C3B45549  18.224  32.537   7.064
 3485POPC   C4B45550  18.257  32.481   7.364
 3486POPC   NC345551  12.896   5.886   5.564
 3486POPC   PO445552  12.886   5.823   5.864
 3486POPC   GL145553  12.838   5.857   6.164
 3486POPC   GL245554  12.978   5.750   6.164
 3486POPC   C1A45555  12.817   5.880   6.464
 3486POPC   D2A45556  12.826   5.879   6.764
 3486POPC   C3A45557  12.893   5.880   7.064
 3486POPC   C4A45558  12.818   5.848   7.364
 3486POPC   C1B45559  12.991   5.698   6.464
 3486POPC   C2B45560  13.061   5.662   6.764
 3486POPC   C3B45561  13.057   5.641   7.064
 3486POPC   C4B45562  12.994   5.641   7.364
 3487POPC   NC345563  19.864  37.632   5.564
 3487POPC   PO445564  19.857  37.631   5.864
 3487POPC   GL145565  19.854  37.708   6.164
 3487POPC   GL245566  19.976  37.734   6.164
 3487POPC   C1A45567  19.878  37.629   6.464
 3487POPC   D2A45568  19.825  37.675   6.764
 3487POPC   C3A45569  19.835  37.650   7.064
 3487POPC   C4A45570  19.860  37.722   7.364
 3487POPC   C1B45571  20.041  37.739   6.464
 3487POPC   C2B45572  20.043  37.740   6.764
 3487POPC   C3B45573  20.074  37.757   7.064
 3487POPC   C4B45574  20.099  37.694   7.364
 3488POPC   NC345575   2.720  28.398   5.564
 3488POPC   PO445576   2.744  28.407   5.864
 3488POPC   GL145577   2.786  28.410   6.164
 3488POPC   GL245578   2.744  28.488   6.164
 3488POPC   C1A45579   2.734  28.386   6.464
 3488POPC   D2A45580   2.797  28.395   6.764
 3488POPC   C3A45581   2.745  28.393   7.064
 3488POPC   C4A45582   2.794  28.325   7.364
 3488POPC   C1B45583   2.789  28.592   6.464
 3488POPC   C2B45584   2.812  28.588   6.764
 3488POPC   C3B45585   2.739  28.640   7.064
 3488POPC   C4B45586   2.815  28.571   7.364
 3489POPC   NC345587  33.064  34.601   5.564
 3489POPC   PO445588  33.018  34.588   5.864
 3489POPC   GL145589  33.050  34.620   6.164
 3489POPC   GL245590  33.079  34.501   6.164
 3489POPC   C1A45591  33.022  34.551   6.464
 3489POPC   D2A45592  33.037  34.572   6.764
 3489POPC   C3A45593  33.006  34.550   7.064
 3489POPC   C4A45594  32.993  34.616   7.364
 3489POPC   C1B45595  33.044  34.356   6.464
 3489POPC   C2B45596  33.038  34.347   6.764
 3489POPC   C3B45597  33.078  34.373   7.064
 3489POPC   C4B45598  33.090  34.371   7.364
 3490POPC   NC345599   1.970  15.172   5.564
 3490POPC   PO445600   2.003  15.209   5.864
 3490POPC   GL145601   1.953  15.205   6.164
 3490POPC   GL245602   2.093  15.176   6.164
 3490POPC   C1A45603   2.034  15.156   6.464
 3490POPC   D2A45604   1.950  15.228   6.764
 3490POPC   C3A45605   1.975  15.130   7.064
 3490POPC   C4A45606   1.964  15.217   7.364
 3490POPC   C1B45607   2.259  15.096   6.464
 3490POPC   C2B45608   2.212  15.107   6.764
 3490POPC   C3B45609   2.263  15.174   7.064
 3490POPC   C4B45610   2.236  15.144   7.364
 3491POPC   NC345611   1.965   5.137   5.564
 3491POPC   PO445612   1.981   5.090   5.864
 3491POPC   GL145613   2.016   5.084   6.164
 3491POPC   GL245614   1.992   5.257   6.164
 3491POPC   C1A45615   1.999   5.056   6.464
 3491POPC   D2A45616   1.996   5.064   6.764
 3491POPC   C3A45617   2.017   5.100   7.064
 3491POPC   C4A45618   1.966   5.065   7.364
 3491POPC   C1B45619   2.073   5.359   6.464
 3491POPC   C2B45620   2.045   5.330   6.764
 3491POPC   C3B45621   2.084   5.370   7.064
 3491POPC   C4B45622   2.086   5.372   7.364
 3492POPC   NC345623  33.033   0.427   5.564
 3492POPC   PO445624  32.995   0.433   5.864
 3492POPC   GL145625  32.996   0.434   6.164
 3492POPC   GL245626  32.968   0.298   6.164
 3492POPC   C1A45627  32.985   0.409   6.464
 3492POPC   D2A45628  33.029   0.409   6.764
 3492POPC   C3A45629  33.053   0.452   7.064
 3492POPC   C4A45630  33.056   0.390   7.364
 3492POPC   C1B45631  33.003   0.186   6.464
 3492POPC   C2B45632  33.030   0.167   6.764
 3492POPC   C3B45633  33.025   0.194   7.064
 3492POPC   C4B45634  32.962   0.144   7.364
 3493POPC   NC345635  32.229  43.864   5.564
 3493POPC   PO445636  32.216  43.871   5.864
 3493POPC   GL145637  32.236  43.867   6.164
 3493POPC   GL245638  32.337  43.750   6.164
 3493POPC   C1A45639  32.262  43.896   6.464
 3493POPC   D2A45640  32.289  43.929   6.764
 3493POPC   C3A45641  32.276  43.925   7.064
 3493POPC   C4A45642  32.217  43.862   7.364
 3493POPC   C1B45643  32.463  43.682   6.464
 3493POPC   C2B45644  32.407  43.731   6.764
 3493POPC   C3B45645  32.379  43.677   7.064
 3493POPC   C4B45646  32.402  43.697   7.364
 3494POPC   NC345647  19.052  19.847   5.564
 3494POPC   PO445648  19.079  19.849   5.864
 3494POPC   GL145649  19.099  19.881   6.164
 3494POPC   GL245650  19.026  19.991   6.164
 3494POPC   C1A45651  19.084  19.799   6.464
 3494POPC   D2A45652  19.049  19.833   6.764
 3494POPC   C3A45653  19.097  19.844   7.064
 3494POPC   C4A45654  19.047  19.788   7.364
 3494POPC   C1B45655  19.081  20.081   6.464
 3494POPC   C2B45656  19.002  20.052   6.764
 3494POPC   C3B45657  19.026  20.133   7.064
 3494POPC   C4B45658  18.995  20.058   7.364
 3495POPC   NC345659  10.519  12.035   5.564
 3495POPC   PO445660  10.537  12.045   5.864
 3495POPC   GL145661  10.499  12.060   6.164
 3495POPC   GL245662  10.503  11.982   6.164
 3495POPC   C1A45663  10.559  12.060   6.464
 3495POPC   D2A45664  10.511  12.120   6.764
 3495POPC   C3A45665  10.572  12.071   7.064
 3495POPC   C4A45666  10.478  12.068   7.364
 3495POPC   C1B45667  10.467  11.861   6.464
 3495POPC   C2B45668  10.516  11.801   6.764
 3495POPC   C3B45669  10.477  11.834   7.064
 3495POPC   C4B45670  10.523  11.799   7.364
 3496POPC   NC345671   5.894  43.137   5.564
 3496POPC   PO445672   5.820  43.154   5.864
 3496POPC   GL145673   5.820  43.094   6.164
 3496POPC   GL245674   5.720  43.108   6.164
 3496POPC   C1A45675   5.903  43.119   6.464
 3496POPC   D2A45676   5.868  43.150   6.764
 3496POPC   C3A45677   5.902  43.087   7.064
 3496POPC   C4A45678   5.867  43.089   7.364
 3496POPC   C1B45679   5.623  43.040   6.464
 3496POPC   C2B45680   5.669  43.105   6.764
 3496POPC   C3B45681   5.611  43.073   7.064
 3496POPC   C4B45682   5.613  43.051   7.364
 3497POPC   NC345683  18.296  30.662   5.564
 3497POPC   PO445684  18.304  30.721   5.864
 3497POPC   GL145685  18.325  30.747   6.164
 3497POPC   GL245686  18.269  30.539   6.164
 3497POPC   C1A45687  18.295  30.666   6.464
 3497POPC   D2A45688  18.330  30.710   6.764
 3497POPC   C3A45689  18.275  30.690   7.064
 3497POPC   C4A45690  18.266  30.668   7.364
 3497POPC   C1B45691  18.188  30.487   6.464
 3497POPC   C2B45692  18.184  30.438   6.764
 3497POPC   C3B45693  18.260  30.426   7.064
 3497POPC   C4B45694  18.248  30.474   7.364
 3498POPC   NC345695  16.728  42.334   5.564
 3498POPC   PO445696  16.716  42.346   5.864
 3498POPC   GL145697  16.780  42.329   6.164
 3498POPC   GL245698  16.665  42.265   6.164
 3498POPC   C1A45699  16.772  42.338   6.464
 3498POPC   D2A45700  16.780  42.340   6.764
 3498POPC   C3A45701  16.751  42.375   7.064
 3498POPC   C4A45702  16.728  42.361   7.364
 3498POPC   C1B45703  16.544  42.244   6.464
 3498POPC   C2B45704  16.461  42.215   6.764
 3498POPC   C3B45705  16.501  42.203   7.064
 3498POPC   C4B45706  16.509  42.219   7.364
 3499POPC   NC345707  40.802  25.229   5.564
 3499POPC   PO445708  40.762  25.229   5.864
 3499POPC   GL145709  40.739  25.298   6.164
 3499POPC   GL245710  40.704  25.309   6.164
 3499POPC   C1A45711  40.776  25.242   6.464
 3499POPC   D2A45712  40.766  25.313   6.764
 3499POPC   C3A45713  40.742  25.231   7.064
 3499POPC   C4A45714  40.751  25.307   7.364
 3499POPC   C1B45715  40.525  25.330   6.464
 3499POPC   C2B45716  40.508  25.325   6.764
 3499POPC   C3B45717  40.568  25.299   7.064
 3499POPC   C4B45718  40.514  25.312   7.364
 3500POPC   NC345719  37.638  24.481   5.564
 3500POPC   PO445720  37.630  24.526   5.864
 3500POPC   GL145721  37.668  24.526   6.164
 3500POPC   GL245722  37.654  24.355   6.164
 3500POPC   C1A45723  37.678  24.441   6.464
 3500POPC   D2A45724  37.727  24.532   6.764
 3500POPC   C3A45725  37.725  24.509   7.064
 3500POPC   C4A45726  37.678  24.487   7.364
 3500POPC   C1B45727  37.631  24.223   6.464
 3500POPC   C2B45728  37.659  24.263   6.764
 3500POPC   C3B45729  37.713  24.221   7.064
 3500POPC   C4B45730  37.678  24.195   7.364
 3501POPC   NC345731  28.381   4.306   5.564
 3501POPC   PO445732  28.403   4.332   5.864
 3501POPC   GL145733  28.392   4.323   6.164
 3501POPC   GL245734  28.261   4.414   6.164
 3501POPC   C1A45735  28.397   4.312   6.464
 3501POPC   D2A45736  28.386   4.269   6.764
 3501POPC   C3A45737  28.376   4.289   7.064
 3501POPC   C4A45738  28.414   4.364   7.364
 3501POPC   C1B45739  28.164   4.465   6.464
 3501POPC   C2B45740  28.171   4.460   6.764
 3501POPC   C3B45741  28.178   4.555   7.064
 3501POPC   C4B45742  28.180   4.503   7.364
 3502POPC   NC345743   8.154  33.071   5.564
 3502POPC   PO445744   8.172  33.016   5.864
 3502POPC   GL145745   8.244  32.986   6.164
 3502POPC   GL245746   8.359  33.060   6.164
 3502POPC   C1A45747   8.214  33.061   6.464
 3502POPC   D2A45748   8.202  32.983   6.764
 3502POPC   C3A45749   8.227  33.066   7.064
 3502POPC   C4A45750   8.195  33.058   7.364
 3502POPC   C1B45751   8.452  33.111   6.464
 3502POPC   C2B45752   8.438  33.042   6.764
 3502POPC   C3B45753   8.410  33.040   7.064
 3502POPC   C4B45754   8.390  33.096   7.364
 3503POPC   NC345755  27.557  28.346   5.564
 3503POPC   PO445756  27.557  28.356   5.864
 3503POPC   GL145757  27.617  28.400   6.164
 3503POPC   GL245758  27.526  28.510   6.164
 3503POPC   C1A45759  27.624  28.376   6.464
 3503POPC   D2A45760  27.604  28.320   6.764
 3503POPC   C3A45761  27.593  28.362   7.064
 3503POPC   C4A45762  27.568  28.396   7.364
 3503POPC   C1B45763  27.459  28.555   6.464
 3503POPC   C2B45764  27.419  28.570   6.764
 3503POPC   C3B45765  27.495  28.548   7.064
 3503POPC   C4B45766  27.486  28.601   7.364
 3504POPC   NC345767   0.407  14.384   5.564
 3504POPC   PO445768   0.434  14.384   5.864
 3504POPC   GL145769   0.411  14.428   6.164
 3504POPC   GL245770   0.280  14.399   6.164
 3504POPC   C1A45771   0.440  14.394   6.464
 3504POPC   D2A45772   0.409  14.354   6.764
 3504POPC   C3A45773   0.481  14.392   7.064
 3504POPC   C4A45774   0.484  14.360   7.364
 3504POPC   C1B45775   0.197  14.490   6.464
 3504POPC   C2B45776   0.247  14.496   6.764
 3504POPC   C3B45777   0.188  14.477   7.064
 3504POPC   C4B45778   0.242  14.467   7.364
 3505POPC   NC345779  35.341  36.882   5.564
 3505POPC   PO445780  35.302  36.854   5.864
 3505POPC   GL145781  35.389  36.934   6.164
 3505POPC   GL245782  35.513  36.887   6.164
 3505POPC   C1A45783  35.341  36.860   6.464
 3505POPC   D2A45784  35.316  36.949   6.764
 3505POPC   C3A45785  35.396  36.875   7.064
 3505POPC   C4A45786  35.332  36.894   7.364
 3505POPC   C1B45787  35.632  36.940   6.464
 3505POPC   C2B45788  35.625  36.978   6.764
 3505POPC   C3B45789  35.585  36.934   7.064
 3505POPC   C4B45790  35.576  36.980   7.364
 3506POPC   NC345791   9.777  42.327   5.564
 3506POPC   PO445792   9.781  42.299   5.864
 3506POPC   GL145793   9.703  42.339   6.164
 3506POPC   GL245794   9.686  42.399   6.164
 3506POPC   C1A45795   9.709  42.345   6.464
 3506POPC   D2A45796   9.771  42.341   6.764
 3506POPC   C3A45797   9.765  42.293   7.064
 3506POPC   C4A45798   9.795  42.363   7.364
 3506POPC   C1B45799   9.500  42.449   6.464
 3506POPC   C2B45800   9.571  42.451   6.764
 3506POPC   C3B45801   9.567  42.509   7.064
 3506POPC   C4B45802   9.577  42.507   7.364
 3507POPC   NC345803  33.061  13.634   5.564
 3507POPC   PO445804  33.012  13.585   5.864
 3507POPC   GL145805  33.010  13.667   6.164
 3507POPC   GL245806  33.049  13.557   6.164
 3507POPC   C1A45807  32.986  13.677   6.464
 3507POPC   D2A45808  33.016  13.626   6.764
 3507POPC   C3A45809  33.018  13.643   7.064
 3507POPC   C4A45810  33.060  13.606   7.364
 3507POPC   C1B45811  33.116  13.414   6.464
 3507POPC   C2B45812  33.113  13.374   6.764
 3507POPC   C3B45813  33.148  13.369   7.064
 3507POPC   C4B45814  33.104  13.434   7.364
 3508POPC   NC345815   3.584  34.572   5.564
 3508POPC   PO445816   3.549  34.582   5.864
 3508POPC   GL145817   3.537  34.547   6.164
 3508POPC   GL245818   3.595  34.483   6.164
 3508POPC   C1A45819   3.579  34.535   6.464
 3508POPC   D2A45820   3.514  34.609   6.764
 3508POPC   C3A45821   3.501  34.534   7.064
 3508POPC   C4A45822   3.580  34.537   7.364
 3508POPC   C1B45823   3.696  34.420   6.464
 3508POPC   C2B45824   3.716  34.421   6.764
 3508POPC   C3B45825   3.730  34.401   7.064
 3508POPC   C4B45826   3.716  34.386   7.364
 3509POPC   NC345827  26.015  25.268   5.564
 3509POPC   PO445828  26.070  25.241   5.864
 3509POPC   GL145829  26.074  25.311   6.164
 3509POPC   GL245830  26.122  25.119   6.164
 3509POPC   C1A45831  26.069  25.276   6.464
 3509POPC   D2A45832  26.069  25.301   6.764
 3509POPC   C3A45833  26.027  25.246   7.064
 3509POPC   C4A45834  26.071  25.306   7.364
 3509POPC   C1B45835  26.152  25.052   6.464
 3509POPC   C2B45836  26.080  25.034   6.764
 3509POPC   C3B45837  26.063  25.022   7.064
 3509POPC   C4B45838  26.133  25.002   7.364
 3510POPC   NC345839   1.185  44.697   5.564
 3510POPC   PO445840   1.222  44.694   5.864
 3510POPC   GL145841   1.229  44.704   6.164
 3510POPC   GL245842   1.101  44.801   6.164
 3510POPC   C1A45843   1.258  44.657   6.464
 3510POPC   D2A45844   1.264  44.654   6.764
 3510POPC   C3A45845   1.239  44.703   7.064
 3510POPC   C4A45846   1.185  44.669   7.364
 3510POPC   C1B45847   1.069  44.797   6.464
 3510POPC   C2B45848   1.083  44.819   6.764
 3510POPC   C3B45849   1.023  44.840   7.064
 3510POPC   C4B45850   1.010  44.854   7.364
 3511POPC   NC345851  10.478  37.666   5.564
 3511POPC   PO445852  10.478  37.646   5.864
 3511POPC   GL145853  10.504  37.634   6.164
 3511POPC   GL245854  10.684  37.700   6.164
 3511POPC   C1A45855  10.537  37.712   6.464
 3511POPC   D2A45856  10.507  37.700   6.764
 3511POPC   C3A45857  10.491  37.672   7.064
 3511POPC   C4A45858  10.482  37.709   7.364
 3511POPC   C1B45859  10.814  37.652   6.464
 3511POPC   C2B45860  10.816  37.628   6.764
 3511POPC   C3B45861  10.745  37.670   7.064
 3511POPC   C4B45862  10.739  37.676   7.364
 3512POPC   NC345863  11.348  16.769   5.564
 3512POPC   PO445864  11.328  16.743   5.864
 3512POPC   GL145865  11.260  16.728   6.164
 3512POPC   GL245866  11.384  16.753   6.164
 3512POPC   C1A45867  11.295  16.780   6.464
 3512POPC   D2A45868  11.307  16.745   6.764
 3512POPC   C3A45869  11.302  16.691   7.064
 3512POPC   C4A45870  11.336  16.764   7.364
 3512POPC   C1B45871  11.494  16.750   6.464
 3512POPC   C2B45872  11.561  16.755   6.764
 3512POPC   C3B45873  11.530  16.793   7.064
 3512POPC   C4B45874  11.530  16.830   7.364
 3513POPC   NC345875  36.866  36.940   5.564
 3513POPC   PO445876  36.894  36.887   5.864
 3513POPC   GL145877  36.942  36.884   6.164
 3513POPC   GL245878  36.899  37.013   6.164
 3513POPC   C1A45879  36.895  36.946   6.464
 3513POPC   D2A45880  36.926  36.917   6.764
 3513POPC   C3A45881  36.865  36.877   7.064
 3513POPC   C4A45882  36.948  36.915   7.364
 3513POPC   C1B45883  36.922  37.150   6.464
 3513POPC   C2B45884  36.981  37.167   6.764
 3513POPC   C3B45885  36.982  37.158   7.064
 3513POPC   C4B45886  36.991  37.122   7.364
 3514POPC   NC345887  28.357  29.110   5.564
 3514POPC   PO445888  28.392  29.148   5.864
 3514POPC   GL145889  28.348  29.119   6.164
 3514POPC   GL245890  28.264  29.280   6.164
 3514POPC   C1A45891  28.369  29.192   6.464
 3514POPC   D2A45892  28.408  29.186   6.764
 3514POPC   C3A45893  28.387  29.126   7.064
 3514POPC   C4A45894  28.354  29.158   7.364
 3514POPC   C1B45895  28.259  29.333   6.464
 3514POPC   C2B45896  28.258  29.375   6.764
 3514POPC   C3B45897  28.251  29.366   7.064
 3514POPC   C4B45898  28.184  29.354   7.364
 3515POPC   NC345899  18.300  40.012   5.564
 3515POPC   PO445900  18.236  40.052   5.864
 3515POPC   GL145901  18.274  39.998   6.164
 3515POPC   GL245902  18.165  40.087   6.164
 3515POPC   C1A45903  18.329  39.995   6.464
 3515POPC   D2A45904  18.241  40.040   6.764
 3515POPC   C3A45905  18.332  40.049   7.064
 3515POPC   C4A45906  18.297  39.988   7.364
 3515POPC   C1B45907  18.033  40.155   6.464
 3515POPC   C2B45908  18.036  40.159   6.764
 3515POPC   C3B45909  18.112  40.171   7.064
 3515POPC   C4B45910  18.069  40.096   7.364
 3516POPC   NC345911   4.305  25.311   5.564
 3516POPC   PO445912   4.279  25.270   5.864
 3516POPC   GL145913   4.289  25.306   6.164
 3516POPC   GL245914   4.236  25.282   6.164
 3516POPC   C1A45915   4.314  25.291   6.464
 3516POPC   D2A45916   4.339  25.293   6.764
 3516POPC   C3A45917   4.275  25.300   7.064
 3516POPC   C4A45918   4.317  25.313   7.364
 3516POPC   C1B45919   4.062  25.366   6.464
 3516POPC   C2B45920   4.096  25.361   6.764
 3516POPC   C3B45921   4.134  25.389   7.064
 3516POPC   C4B45922   4.126  25.351   7.364
 3517POPC   NC345923  18.332   8.928   5.564
 3517POPC   PO445924  18.283   8.931   5.864
 3517POPC   GL145925  18.243   8.928   6.164
 3517POPC   GL245926  18.222   9.021   6.164
 3517POPC   C1A45927  18.288   8.951   6.464
 3517POPC   D2A45928  18.299   8.960   6.764
 3517POPC   C3A45929  18.310   8.926   7.064
 3517POPC   C4A45930  18.255   8.985   7.364
 3517POPC   C1B45931  18.061   9.189   6.464
 3517POPC   C2B45932  18.146   9.177   6.764
 3517POPC   C3B45933  18.118   9.154   7.064
 3517POPC   C4B45934  18.070   9.170   7.364
 3518POPC   NC345935  33.829  40.034   5.564
 3518POPC   PO445936  33.773  40.047   5.864
 3518POPC   GL145937  33.806  39.958   6.164
 3518POPC   GL245938  33.718  39.991   6.164
 3518POPC   C1A45939  33.804  39.986   6.464
 3518POPC   D2A45940  33.773  39.969   6.764
 3518POPC   C3A45941  33.842  40.039   7.064
 3518POPC   C4A45942  33.819  39.995   7.364
 3518POPC   C1B45943  33.605  40.068   6.464
 3518POPC   C2B45944  33.586  40.035   6.764
 3518POPC   C3B45945  33.552  40.027   7.064
 3518POPC   C4B45946  33.584  40.048   7.364
 3519POPC   NC345947  28.388  43.130   5.564
 3519POPC   PO445948  28.374  43.153   5.864
 3519POPC   GL145949  28.402  43.062   6.164
 3519POPC   GL245950  28.259  43.235   6.164
 3519POPC   C1A45951  28.386  43.103   6.464
 3519POPC   D2A45952  28.336  43.070   6.764
 3519POPC   C3A45953  28.393  43.072   7.064
 3519POPC   C4A45954  28.323  43.116   7.364
 3519POPC   C1B45955  28.182  43.262   6.464
 3519POPC   C2B45956  28.240  43.335   6.764
 3519POPC   C3B45957  28.203  43.319   7.064
 3519POPC   C4B45958  28.176  43.279   7.364
 3520POPC   NC345959  22.941  19.073   5.564
 3520POPC   PO445960  22.925  19.031   5.864
 3520POPC   GL145961  22.921  19.064   6.164
 3520POPC   GL245962  22.982  19.150   6.164
 3520POPC   C1A45963  22.980  19.070   6.464
 3520POPC   D2A45964  22.954  19.100   6.764
 3520POPC   C3A45965  22.947  19.047   7.064
 3520POPC   C4A45966  22.892  19.105   7.364
 3520POPC   C1B45967  22.924  19.340   6.464
 3520POPC   C2B45968  22.904  19.281   6.764
 3520POPC   C3B45969  22.914  19.318   7.064
 3520POPC   C4B45970  22.919  19.327   7.364
 3521POPC   NC345971  38.461  40.008   5.564
 3521POPC   PO445972  38.480  39.996   5.864
 3521POPC   GL145973  38.470  40.055   6.164
 3521POPC   GL245974  38.408  39.856   6.164
 3521POPC   C1A45975  38.429  40.043   6.464
 3521POPC   D2A45976  38.424  39.982   6.764
 3521POPC   C3A45977  38.474  40.032   7.064
 3521POPC   C4A45978  38.430  40.025   7.364
 3521POPC   C1B45979  38.389  39.728   6.464
 3521POPC   C2B45980  38.468  39.742   6.764
 3521POPC   C3B45981  38.387  39.779   7.064
 3521POPC   C4B45982  38.397  39.734   7.364
 3522POPC   NC345983  30.651  33.781   5.564
 3522POPC   PO445984  30.688  33.825   5.864
 3522POPC   GL145985  30.682  33.783   6.164
 3522POPC   GL245986  30.861  33.783   6.164
 3522POPC   C1A45987  30.703  33.848   6.464
 3522POPC   D2A45988  30.676  33.807   6.764
 3522POPC   C3A45989  30.691  33.822   7.064
 3522POPC   C4A45990  30.701  33.765   7.364
 3522POPC   C1B45991  30.956  33.827   6.464
 3522POPC   C2B45992  30.939  33.894   6.764
 3522POPC   C3B45993  30.985  33.855   7.064
 3522POPC   C4B45994  30.936  33.833   7.364
 3523POPC   NC345995  19.054  21.393   5.564
 3523POPC   PO445996  19.060  21.406   5.864
 3523POPC   GL145997  19.088  21.383   6.164
 3523POPC   GL245998  19.176  21.476   6.164
 3523POPC   C1A45999  19.059  21.429   6.464
 3523POPC   D2A46000  19.064  21.394   6.764
 3523POPC   C3A46001  19.099  21.366   7.064
 3523POPC   C4A46002  19.036  21.416   7.364
 3523POPC   C1B46003  19.313  21.460   6.464
 3523POPC   C2B46004  19.243  21.526   6.764
 3523POPC   C3B46005  19.292  21.463   7.064
 3523POPC   C4B46006  19.333  21.468   7.364
 3524POPC   NC346007  23.761   3.531   5.564
 3524POPC   PO446008  23.698   3.562   5.864
 3524POPC   GL146009  23.759   3.508   6.164
 3524POPC   GL246010  23.818   3.655   6.164
 3524POPC   C1A46011  23.685   3.582   6.464
 3524POPC   D2A46012  23.698   3.527   6.764
 3524POPC   C3A46013  23.685   3.510   7.064
 3524POPC   C4A46014  23.731   3.586   7.364
 3524POPC   C1B46015  23.797   3.724   6.464
 3524POPC   C2B46016  23.809   3.739   6.764
 3524POPC   C3B46017  23.857   3.770   7.064
 3524POPC   C4B46018  23.806   3.736   7.364
 3525POPC   NC346019  27.615  42.326   5.564
 3525POPC   PO446020  27.569  42.369   5.864
 3525POPC   GL146021  27.579  42.347   6.164
 3525POPC   GL246022  27.498  42.384   6.164
 3525POPC   C1A46023  27.548  42.314   6.464
 3525POPC   D2A46024  27.564  42.300   6.764
 3525POPC   C3A46025  27.571  42.368   7.064
 3525POPC   C4A46026  27.615  42.362   7.364
 3525POPC   C1B46027  27.408  42.472   6.464
 3525POPC   C2B46028  27.435  42.473   6.764
 3525POPC   C3B46029  27.427  42.510   7.064
 3525POPC   C4B46030  27.412  42.447   7.364
 3526POPC   NC346031   6.692  15.164   5.564
 3526POPC   PO446032   6.662  15.133   5.864
 3526POPC   GL146033   6.676  15.144   6.164
 3526POPC   GL246034   6.611  15.086   6.164
 3526POPC   C1A46035   6.661  15.209   6.464
 3526POPC   D2A46036   6.687  15.202   6.764
 3526POPC   C3A46037   6.686  15.171   7.064
 3526POPC   C4A46038   6.654  15.156   7.364
 3526POPC   C1B46039   6.649  14.913   6.464
 3526POPC   C2B46040   6.578  14.909   6.764
 3526POPC   C3B46041   6.612  14.911   7.064
 3526POPC   C4B46042   6.551  14.899   7.364
 3527POPC   NC346043  40.764  22.967   5.564
 3527POPC   PO446044  40.743  22.929   5.864
 3527POPC   GL146045  40.744  22.966   6.164
 3527POPC   GL246046  40.873  22.953   6.164
 3527POPC   C1A46047  40.829  22.977   6.464
 3527POPC   D2A46048  40.798  22.935   6.764
 3527POPC   C3A46049  40.790  22.985   7.064
 3527POPC   C4A46050  40.741  22.904   7.364
 3527POPC   C1B46051  41.052  22.911   6.464
 3527POPC   C2B46052  40.992  22.971   6.764
 3527POPC   C3B46053  41.005  22.916   7.064
 3527POPC   C4B46054  41.027  22.972   7.364
 3528POPC   NC346055  38.438  13.618   5.564
 3528POPC   PO446056  38.479  13.657   5.864
 3528POPC   GL146057  38.438  13.651   6.164
 3528POPC   GL246058  38.394  13.708   6.164
 3528POPC   C1A46059  38.448  13.671   6.464
 3528POPC   D2A46060  38.416  13.634   6.764
 3528POPC   C3A46061  38.473  13.647   7.064
 3528POPC   C4A46062  38.469  13.621   7.364
 3528POPC   C1B46063  38.360  13.833   6.464
 3528POPC   C2B46064  38.395  13.865   6.764
 3528POPC   C3B46065  38.414  13.887   7.064
 3528POPC   C4B46066  38.401  13.885   7.364
 3529POPC   NC346067   8.959  29.182   5.564
 3529POPC   PO446068   9.013  29.169   5.864
 3529POPC   GL146069   9.005  29.161   6.164
 3529POPC   GL246070   8.897  29.074   6.164
 3529POPC   C1A46071   9.020  29.195   6.464
 3529POPC   D2A46072   8.967  29.190   6.764
 3529POPC   C3A46073   8.990  29.166   7.064
 3529POPC   C4A46074   8.960  29.171   7.364
 3529POPC   C1B46075   8.778  29.073   6.464
 3529POPC   C2B46076   8.702  29.025   6.764
 3529POPC   C3B46077   8.750  29.077   7.064
 3529POPC   C4B46078   8.771  29.043   7.364
 3530POPC   NC346079   8.984   2.002   5.564
 3530POPC   PO446080   8.944   2.020   5.864
 3530POPC   GL146081   8.960   2.014   6.164
 3530POPC   GL246082   9.051   1.928   6.164
 3530POPC   C1A46083   8.925   2.017   6.464
 3530POPC   D2A46084   9.018   2.025   6.764
 3530POPC   C3A46085   8.973   2.019   7.064
 3530POPC   C4A46086   8.963   2.022   7.364
 3530POPC   C1B46087   9.220   1.918   6.464
 3530POPC   C2B46088   9.265   2.006   6.764
 3530POPC   C3B46089   9.254   1.953   7.064
 3530POPC   C4B46090   9.251   1.960   7.364
 3531POPC   NC346091  29.931  11.323   5.564
 3531POPC   PO446092  29.884  11.259   5.864
 3531POPC   GL146093  29.952  11.255   6.164
 3531POPC   GL246094  29.867  11.377   6.164
 3531POPC   C1A46095  29.936  11.296   6.464
 3531POPC   D2A46096  29.895  11.292   6.764
 3531POPC   C3A46097  29.927  11.291   7.064
 3531POPC   C4A46098  29.903  11.329   7.364
 3531POPC   C1B46099  29.848  11.533   6.464
 3531POPC   C2B46100  29.802  11.501   6.764
 3531POPC   C3B46101  29.826  11.517   7.064
 3531POPC   C4B46102  29.826  11.561   7.364
 3532POPC   NC346103  21.365   2.796   5.564
 3532POPC   PO446104  21.436   2.732   5.864
 3532POPC   GL146105  21.361   2.734   6.164
 3532POPC   GL246106  21.228   2.754   6.164
 3532POPC   C1A46107  21.421   2.763   6.464
 3532POPC   D2A46108  21.364   2.812   6.764
 3532POPC   C3A46109  21.425   2.799   7.064
 3532POPC   C4A46110  21.435   2.743   7.364
 3532POPC   C1B46111  21.098   2.727   6.464
 3532POPC   C2B46112  21.137   2.718   6.764
 3532POPC   C3B46113  21.132   2.679   7.064
 3532POPC   C4B46114  21.122   2.728   7.364
 3533POPC   NC346115  32.232   5.829   5.564
 3533POPC   PO446116  32.250   5.866   5.864
 3533POPC   GL146117  32.252   5.842   6.164
 3533POPC   GL246118  32.294   5.964   6.164
 3533POPC   C1A46119  32.277   5.828   6.464
 3533POPC   D2A46120  32.264   5.838   6.764
 3533POPC   C3A46121  32.218   5.840   7.064
 3533POPC   C4A46122  32.266   5.896   7.364
 3533POPC   C1B46123  32.331   6.111   6.464
 3533POPC   C2B46124  32.378   6.111   6.764
 3533POPC   C3B46125  32.367   6.080   7.064
 3533POPC   C4B46126  32.335   6.112   7.364
 3534POPC   NC346127  36.092  14.366   5.564
 3534POPC   PO446128  36.161  14.368   5.864
 3534POPC   GL146129  36.093  14.406   6.164
 3534POPC   GL246130  36.120  14.527   6.164
 3534POPC   C1A46131  36.140  14.382   6.464
 3534POPC   D2A46132  36.164  14.442   6.764
 3534POPC   C3A46133  36.140  14.409   7.064
 3534POPC   C4A46134  36.131  14.390   7.364
 3534POPC   C1B46135  36.068  14.667   6.464
 3534POPC   C2B46136  36.124  14.602   6.764
 3534POPC   C3B46137  36.043  14.686   7.064
 3534POPC   C4B46138  36.069  14.656   7.364
 3535POPC   NC346139  43.868  43.094   5.564
 3535POPC   PO446140  43.906  43.138   5.864
 3535POPC   GL146141  43.867  43.104   6.164
 3535POPC   GL246142  43.766  43.191   6.164
 3535POPC   C1A46143  43.908  43.145   6.464
 3535POPC   D2A46144  43.855  43.084   6.764
 3535POPC   C3A46145  43.915  43.118   7.064
 3535POPC   C4A46146  43.867  43.135   7.364
 3535POPC   C1B46147  43.694  43.255   6.464
 3535POPC   C2B46148  43.712  43.269   6.764
 3535POPC   C3B46149  43.650  43.256   7.064
 3535POPC   C4B46150  43.737  43.300   7.364
 3536POPC   NC346151  22.905  25.226   5.564
 3536POPC   PO446152  22.934  25.243   5.864
 3536POPC   GL146153  22.956  25.311   6.164
 3536POPC   GL246154  22.836  25.210   6.164
 3536POPC   C1A46155  22.977  25.288   6.464
 3536POPC   D2A46156  22.967  25.256   6.764
 3536POPC   C3A46157  22.932  25.309   7.064
 3536POPC   C4A46158  22.925  25.276   7.364
 3536POPC   C1B46159  22.751  25.055   6.464
 3536POPC   C2B46160  22.736  25.065   6.764
 3536POPC   C3B46161  22.753  25.064   7.064
 3536POPC   C4B46162  22.731  25.110   7.364
 3537POPC   NC346163  43.096  23.697   5.564
 3537POPC   PO446164  43.140  23.725   5.864
 3537POPC   GL146165  43.158  23.705   6.164
 3537POPC   GL246166  42.980  23.791   6.164
 3537POPC   C1A46167  43.118  23.687   6.464
 3537POPC   D2A46168  43.123  23.665   6.764
 3537POPC   C3A46169  43.114  23.724   7.064
 3537POPC   C4A46170  43.149  23.714   7.364
 3537POPC   C1B46171  42.879  23.794   6.464
 3537POPC   C2B46172  42.925  23.829   6.764
 3537POPC   C3B46173  42.860  23.814   7.064
 3537POPC   C4B46174  42.917  23.800   7.364
 3538POPC   NC346175  31.435  36.131   5.564
 3538POPC   PO446176  31.432  36.170   5.864
 3538POPC   GL146177  31.505  36.146   6.164
 3538POPC   GL246178  31.461  36.207   6.164
 3538POPC   C1A46179  31.516  36.122   6.464
 3538POPC   D2A46180  31.501  36.156   6.764
 3538POPC   C3A46181  31.480  36.127   7.064
 3538POPC   C4A46182  31.430  36.165   7.364
 3538POPC   C1B46183  31.446  36.323   6.464
 3538POPC   C2B46184  31.381  36.346   6.764
 3538POPC   C3B46185  31.434  36.330   7.064
 3538POPC   C4B46186  31.424  36.377   7.364
 3539POPC   NC346187  13.609  33.786   5.564
 3539POPC   PO446188  13.593  33.831   5.864
 3539POPC   GL146189  13.677  33.776   6.164
 3539POPC   GL246190  13.766  33.796   6.164
 3539POPC   C1A46191  13.673  33.811   6.464
 3539POPC   D2A46192  13.628  33.760   6.764
 3539POPC   C3A46193  13.593  33.819   7.064
 3539POPC   C4A46194  13.635  33.782   7.364
 3539POPC   C1B46195  13.875  33.806   6.464
 3539POPC   C2B46196  13.851  33.850   6.764
 3539POPC   C3B46197  13.834  33.805   7.064
 3539POPC   C4B46198  13.865  33.806   7.364
 3540POPC   NC346199  25.223  38.460   5.564
 3540POPC   PO446200  25.296  38.487   5.864
 3540POPC   GL146201  25.233  38.424   6.164
 3540POPC   GL246202  25.274  38.313   6.164
 3540POPC   C1A46203  25.294  38.421   6.464
 3540POPC   D2A46204  25.313  38.445   6.764
 3540POPC   C3A46205  25.289  38.408   7.064
 3540POPC   C4A46206  25.229  38.443   7.364
 3540POPC   C1B46207  25.285  38.236   6.464
 3540POPC   C2B46208  25.264  38.166   6.764
 3540POPC   C3B46209  25.248  38.186   7.064
 3540POPC   C4B46210  25.290  38.199   7.364
 3541POPC   NC346211  12.840   1.171   5.564
 3541POPC   PO446212  12.888   1.246   5.864
 3541POPC   GL146213  12.879   1.193   6.164
 3541POPC   GL246214  12.868   1.047   6.164
 3541POPC   C1A46215  12.855   1.229   6.464
 3541POPC   D2A46216  12.864   1.230   6.764
 3541POPC   C3A46217  12.874   1.260   7.064
 3541POPC   C4A46218  12.829   1.206   7.364
 3541POPC   C1B46219  12.857   0.982   6.464
 3541POPC   C2B46220  12.865   0.934   6.764
 3541POPC   C3B46221  12.785   0.920   7.064
 3541POPC   C4B46222  12.816   0.955   7.364
 3542POPC   NC346223  29.902  28.375   5.564
 3542POPC   PO446224  29.948  28.337   5.864
 3542POPC   GL146225  29.897  28.357   6.164
 3542POPC   GL246226  29.772  28.265   6.164
 3542POPC   C1A46227  29.951  28.393   6.464
 3542POPC   D2A46228  29.927  28.324   6.764
 3542POPC   C3A46229  29.946  28.359   7.064
 3542POPC   C4A46230  29.871  28.399   7.364
 3542POPC   C1B46231  29.719  28.229   6.464
 3542POPC   C2B46232  29.678  28.281   6.764
 3542POPC   C3B46233  29.694  28.220   7.064
 3542POPC   C4B46234  29.709  28.255   7.364
 3543POPC   NC346235  43.104  12.823   5.564
 3543POPC   PO446236  43.109  12.831   5.864
 3543POPC   GL146237  43.137  12.858   6.164
 3543POPC   GL246238  43.132  12.993   6.164
 3543POPC   C1A46239  43.087  12.868   6.464
 3543POPC   D2A46240  43.128  12.820   6.764
 3543POPC   C3A46241  43.109  12.827   7.064
 3543POPC   C4A46242  43.128  12.851   7.364
 3543POPC   C1B46243  43.174  13.119   6.464
 3543POPC   C2B46244  43.179  13.106   6.764
 3543POPC   C3B46245  43.185  13.097   7.064
 3543POPC   C4B46246  43.191  13.081   7.364
 3544POPC   NC346247  32.243  21.366   5.564
 3544POPC   PO446248  32.274  21.411   5.864
 3544POPC   GL146249  32.208  21.401   6.164
 3544POPC   GL246250  32.245  21.314   6.164
 3544POPC   C1A46251  32.219  21.384   6.464
 3544POPC   D2A46252  32.214  21.354   6.764
 3544POPC   C3A46253  32.249  21.387   7.064
 3544POPC   C4A46254  32.291  21.424   7.364
 3544POPC   C1B46255  32.216  21.161   6.464
 3544POPC   C2B46256  32.230  21.098   6.764
 3544POPC   C3B46257  32.222  21.183   7.064
 3544POPC   C4B46258  32.183  21.122   7.364
 3545POPC   NC346259  30.711  30.665   5.564
 3545POPC   PO446260  30.744  30.648   5.864
 3545POPC   GL146261  30.649  30.696   6.164
 3545POPC   GL246262  30.621  30.671   6.164
 3545POPC   C1A46263  30.653  30.702   6.464
 3545POPC   D2A46264  30.658  30.652   6.764
 3545POPC   C3A46265  30.705  30.662   7.064
 3545POPC   C4A46266  30.698  30.660   7.364
 3545POPC   C1B46267  30.459  30.631   6.464
 3545POPC   C2B46268  30.469  30.626   6.764
 3545POPC   C3B46269  30.426  30.577   7.064
 3545POPC   C4B46270  30.418  30.577   7.364
 3546POPC   NC346271  35.310  31.465   5.564
 3546POPC   PO446272  35.350  31.482   5.864
 3546POPC   GL146273  35.389  31.498   6.164
 3546POPC   GL246274  35.446  31.474   6.164
 3546POPC   C1A46275  35.332  31.502   6.464
 3546POPC   D2A46276  35.345  31.435   6.764
 3546POPC   C3A46277  35.369  31.490   7.064
 3546POPC   C4A46278  35.323  31.461   7.364
 3546POPC   C1B46279  35.619  31.607   6.464
 3546POPC   C2B46280  35.549  31.614   6.764
 3546POPC   C3B46281  35.613  31.575   7.064
 3546POPC   C4B46282  35.607  31.587   7.364
 3547POPC   NC346283  26.054  19.840   5.564
 3547POPC   PO446284  26.061  19.795   5.864
 3547POPC   GL146285  26.084  19.849   6.164
 3547POPC   GL246286  26.116  19.868   6.164
 3547POPC   C1A46287  26.052  19.801   6.464
 3547POPC   D2A46288  26.031  19.831   6.764
 3547POPC   C3A46289  26.006  19.825   7.064
 3547POPC   C4A46290  26.037  19.856   7.364
 3547POPC   C1B46291  26.311  19.857   6.464
 3547POPC   C2B46292  26.267  19.911   6.764
 3547POPC   C3B46293  26.315  19.870   7.064
 3547POPC   C4B46294  26.270  19.942   7.364
 3548POPC   NC346295  37.699  43.150   5.564
 3548POPC   PO446296  37.727  43.144   5.864
 3548POPC   GL146297  37.669  43.136   6.164
 3548POPC   GL246298  37.597  42.944   6.164
 3548POPC   C1A46299  37.644  43.138   6.464
 3548POPC   D2A46300  37.707  43.107   6.764
 3548POPC   C3A46301  37.710  43.144   7.064
 3548POPC   C4A46302  37.676  43.125   7.364
 3548POPC   C1B46303  37.638  42.826   6.464
 3548POPC   C2B46304  37.612  42.845   6.764
 3548POPC   C3B46305  37.628  42.881   7.064
 3548POPC   C4B46306  37.591  42.847   7.364
 3549POPC   NC346307  15.156  12.115   5.564
 3549POPC   PO446308  15.174  12.123   5.864
 3549POPC   GL146309  15.188  12.043   6.164
 3549POPC   GL246310  15.181  12.194   6.164
 3549POPC   C1A46311  15.216  12.088   6.464
 3549POPC   D2A46312  15.181  12.056   6.764
 3549POPC   C3A46313  15.196  12.125   7.064
 3549POPC   C4A46314  15.228  12.093   7.364
 3549POPC   C1B46315  15.213  12.361   6.464
 3549POPC   C2B46316  15.193  12.308   6.764
 3549POPC   C3B46317  15.187  12.328   7.064
 3549POPC   C4B46318  15.232  12.309   7.364
 3550POPC   NC346319   5.878  30.650   5.564
 3550POPC   PO446320   5.885  30.672   5.864
 3550POPC   GL146321   5.897  30.663   6.164
 3550POPC   GL246322   5.763  30.813   6.164
 3550POPC   C1A46323   5.877  30.647   6.464
 3550POPC   D2A46324   5.834  30.678   6.764
 3550POPC   C3A46325   5.824  30.673   7.064
 3550POPC   C4A46326   5.854  30.686   7.364
 3550POPC   C1B46327   5.696  30.810   6.464
 3550POPC   C2B46328   5.667  30.810   6.764
 3550POPC   C3B46329   5.623  30.854   7.064
 3550POPC   C4B46330   5.654  30.786   7.364
 3551POPC   NC346331   5.916  12.832   5.564
 3551POPC   PO446332   5.891  12.828   5.864
 3551POPC   GL146333   5.900  12.877   6.164
 3551POPC   GL246334   5.884  12.970   6.164
 3551POPC   C1A46335   5.859  12.815   6.464
 3551POPC   D2A46336   5.834  12.807   6.764
 3551POPC   C3A46337   5.854  12.805   7.064
 3551POPC   C4A46338   5.825  12.830   7.364
 3551POPC   C1B46339   5.888  13.069   6.464
 3551POPC   C2B46340   5.912  13.113   6.764
 3551POPC   C3B46341   5.890  13.103   7.064
 3551POPC   C4B46342   5.857  13.102   7.364
 3552POPC   NC346343  39.987  13.658   5.564
 3552POPC   PO446344  39.973  13.656   5.864
 3552POPC   GL146345  40.013  13.648   6.164
 3552POPC   GL246346  40.147  13.550   6.164
 3552POPC   C1A46347  40.035  13.583   6.464
 3552POPC   D2A46348  39.967  13.655   6.764
 3552POPC   C3A46349  40.056  13.630   7.064
 3552POPC   C4A46350  39.998  13.639   7.364
 3552POPC   C1B46351  40.224  13.496   6.464
 3552POPC   C2B46352  40.201  13.513   6.764
 3552POPC   C3B46353  40.204  13.531   7.064
 3552POPC   C4B46354  40.276  13.500   7.364
 3553POPC   NC346355  21.409  39.269   5.564
 3553POPC   PO446356  21.341  39.208   5.864
 3553POPC   GL146357  21.421  39.247   6.164
 3553POPC   GL246358  21.509  39.201   6.164
 3553POPC   C1A46359  21.377  39.276   6.464
 3553POPC   D2A46360  21.435  39.214   6.764
 3553POPC   C3A46361  21.420  39.249   7.064
 3553POPC   C4A46362  21.392  39.207   7.364
 3553POPC   C1B46363  21.670  39.156   6.464
 3553POPC   C2B46364  21.619  39.228   6.764
 3553POPC   C3B46365  21.621  39.163   7.064
 3553POPC   C4B46366  21.654  39.211   7.364
 3554POPC   NC346367  14.409  19.047   5.564
 3554POPC   PO446368  14.388  19.104   5.864
 3554POPC   GL146369  14.444  19.093   6.164
 3554POPC   GL246370  14.507  19.149   6.164
 3554POPC   C1A46371  14.386  19.051   6.464
 3554POPC   D2A46372  14.371  19.090   6.764
 3554POPC   C3A46373  14.365  19.016   7.064
 3554POPC   C4A46374  14.434  19.043   7.364
 3554POPC   C1B46375  14.532  19.273   6.464
 3554POPC   C2B46376  14.531  19.250   6.764
 3554POPC   C3B46377  14.551  19.189   7.064
 3554POPC   C4B46378  14.543  19.272   7.364
 3555POPC   NC346379   2.748  14.370   5.564
 3555POPC   PO446380   2.761  14.384   5.864
 3555POPC   GL146381   2.782  14.438   6.164
 3555POPC   GL246382   2.802  14.567   6.164
 3555POPC   C1A46383   2.716  14.385   6.464
 3555POPC   D2A46384   2.776  14.373   6.764
 3555POPC   C3A46385   2.725  14.363   7.064
 3555POPC   C4A46386   2.787  14.408   7.364
 3555POPC   C1B46387   2.850  14.615   6.464
 3555POPC   C2B46388   2.799  14.623   6.764
 3555POPC   C3B46389   2.789  14.599   7.064
 3555POPC   C4B46390   2.823  14.689   7.364
 3556POPC   NC346391  34.540  23.687   5.564
 3556POPC   PO446392  34.564  23.694   5.864
 3556POPC   GL146393  34.543  23.751   6.164
 3556POPC   GL246394  34.459  23.561   6.164
 3556POPC   C1A46395  34.596  23.740   6.464
 3556POPC   D2A46396  34.566  23.728   6.764
 3556POPC   C3A46397  34.594  23.757   7.064
 3556POPC   C4A46398  34.549  23.677   7.364
 3556POPC   C1B46399  34.469  23.482   6.464
 3556POPC   C2B46400  34.465  23.456   6.764
 3556POPC   C3B46401  34.489  23.544   7.064
 3556POPC   C4B46402  34.475  23.512   7.364
 3557POPC   NC346403   1.222  11.298   5.564
 3557POPC   PO446404   1.226  11.308   5.864
 3557POPC   GL146405   1.215  11.320   6.164
 3557POPC   GL246406   1.316  11.250   6.164
 3557POPC   C1A46407   1.235  11.262   6.464
 3557POPC   D2A46408   1.240  11.253   6.764
 3557POPC   C3A46409   1.195  11.326   7.064
 3557POPC   C4A46410   1.225  11.261   7.364
 3557POPC   C1B46411   1.446  11.273   6.464
 3557POPC   C2B46412   1.494  11.233   6.764
 3557POPC   C3B46413   1.495  11.221   7.064
 3557POPC   C4B46414   1.420  11.204   7.364
 3558POPC   NC346415  29.877  14.361   5.564
 3558POPC   PO446416  29.921  14.413   5.864
 3558POPC   GL146417  29.928  14.435   6.164
 3558POPC   GL246418  29.969  14.522   6.164
 3558POPC   C1A46419  29.916  14.447   6.464
 3558POPC   D2A46420  29.957  14.392   6.764
 3558POPC   C3A46421  29.965  14.422   7.064
 3558POPC   C4A46422  29.931  14.375   7.364
 3558POPC   C1B46423  30.017  14.650   6.464
 3558POPC   C2B46424  30.109  14.578   6.764
 3558POPC   C3B46425  30.046  14.621   7.064
 3558POPC   C4B46426  30.087  14.639   7.364
 3559POPC   NC346427   9.727  22.977   5.564
 3559POPC   PO446428   9.780  22.981   5.864
 3559POPC   GL146429   9.705  22.893   6.164
 3559POPC   GL246430   9.787  23.052   6.164
 3559POPC   C1A46431   9.731  22.963   6.464
 3559POPC   D2A46432   9.797  22.962   6.764
 3559POPC   C3A46433   9.756  22.896   7.064
 3559POPC   C4A46434   9.743  22.966   7.364
 3559POPC   C1B46435   9.788  23.165   6.464
 3559POPC   C2B46436   9.751  23.177   6.764
 3559POPC   C3B46437   9.769  23.171   7.064
 3559POPC   C4B46438   9.806  23.199   7.364
 3560POPC   NC346439  43.856  13.673   5.564
 3560POPC   PO446440  43.928  13.581   5.864
 3560POPC   GL146441  43.840  13.654   6.164
 3560POPC   GL246442  43.763  13.700   6.164
 3560POPC   C1A46443  43.890  13.594   6.464
 3560POPC   D2A46444  43.893  13.640   6.764
 3560POPC   C3A46445  43.896  13.671   7.064
 3560POPC   C4A46446  43.892  13.636   7.364
 3560POPC   C1B46447  43.618  13.748   6.464
 3560POPC   C2B46448  43.691  13.784   6.764
 3560POPC   C3B46449  43.704  13.711   7.064
 3560POPC   C4B46450  43.712  13.691   7.364
 3561POPC   NC346451  17.554  22.890   5.564
 3561POPC   PO446452  17.478  22.907   5.864
 3561POPC   GL146453  17.480  22.951   6.164
 3561POPC   GL246454  17.503  22.855   6.164
 3561POPC   C1A46455  17.470  22.959   6.464
 3561POPC   D2A46456  17.495  22.956   6.764
 3561POPC   C3A46457  17.461  22.918   7.064
 3561POPC   C4A46458  17.486  22.944   7.364
 3561POPC   C1B46459  17.470  22.695   6.464
 3561POPC   C2B46460  17.537  22.675   6.764
 3561POPC   C3B46461  17.519  22.704   7.064
 3561POPC   C4B46462  17.507  22.680   7.364
 3562POPC   NC346463  19.016  19.085   5.564
 3562POPC   PO446464  19.037  19.059   5.864
 3562POPC   GL146465  19.099  19.056   6.164
 3562POPC   GL246466  19.013  19.134   6.164
 3562POPC   C1A46467  19.107  19.031   6.464
 3562POPC   D2A46468  19.107  19.039   6.764
 3562POPC   C3A46469  19.062  19.096   7.064
 3562POPC   C4A46470  19.033  19.021   7.364
 3562POPC   C1B46471  19.091  19.280   6.464
 3562POPC   C2B46472  19.071  19.304   6.764
 3562POPC   C3B46473  19.002  19.316   7.064
 3562POPC   C4B46474  19.002  19.352   7.364
 3563POPC   NC346475   5.053  39.260   5.564
 3563POPC   PO446476   5.120  39.274   5.864
 3563POPC   GL146477   5.082  39.279   6.164
 3563POPC   GL246478   5.166  39.134   6.164
 3563POPC   C1A46479   5.074  39.276   6.464
 3563POPC   D2A46480   5.072  39.221   6.764
 3563POPC   C3A46481   5.050  39.252   7.064
 3563POPC   C4A46482   5.046  39.239   7.364
 3563POPC   C1B46483   5.308  39.025   6.464
 3563POPC   C2B46484   5.239  39.069   6.764
 3563POPC   C3B46485   5.247  39.030   7.064
 3563POPC   C4B46486   5.324  39.037   7.364
 3564POPC   NC346487   1.955  31.483   5.564
 3564POPC   PO446488   1.985  31.483   5.864
 3564POPC   GL146489   2.007  31.462   6.164
 3564POPC   GL246490   2.145  31.567   6.164
 3564POPC   C1A46491   2.039  31.502   6.464
 3564POPC   D2A46492   1.998  31.453   6.764
 3564POPC   C3A46493   2.035  31.479   7.064
 3564POPC   C4A46494   1.942  31.477   7.364
 3564POPC   C1B46495   2.197  31.553   6.464
 3564POPC   C2B46496   2.186  31.608   6.764
 3564POPC   C3B46497   2.236  31.598   7.064
 3564POPC   C4B46498   2.246  31.629   7.364
 3565POPC   NC346499   4.326   1.183   5.564
 3565POPC   PO446500   4.271   1.233   5.864
 3565POPC   GL146501   4.285   1.239   6.164
 3565POPC   GL246502   4.251   1.371   6.164
 3565POPC   C1A46503   4.285   1.177   6.464
 3565POPC   D2A46504   4.269   1.225   6.764
 3565POPC   C3A46505   4.297   1.179   7.064
 3565POPC   C4A46506   4.277   1.167   7.364
 3565POPC   C1B46507   4.195   1.444   6.464
 3565POPC   C2B46508   4.178   1.446   6.764
 3565POPC   C3B46509   4.179   1.441   7.064
 3565POPC   C4B46510   4.209   1.391   7.364
 3566POPC   NC346511  36.111  38.490   5.564
 3566POPC   PO446512  36.165  38.424   5.864
 3566POPC   GL146513  36.101  38.444   6.164
 3566POPC   GL246514  36.071  38.308   6.164
 3566POPC   C1A46515  36.140  38.428   6.464
 3566POPC   D2A46516  36.156  38.483   6.764
 3566POPC   C3A46517  36.105  38.494   7.064
 3566POPC   C4A46518  36.171  38.496   7.364
 3566POPC   C1B46519  36.102  38.179   6.464
 3566POPC   C2B46520  36.032  38.171   6.764
 3566POPC   C3B46521  36.056  38.230   7.064
 3566POPC   C4B46522  36.091  38.247   7.364
 3567POPC   NC346523  18.245  17.483   5.564
 3567POPC   PO446524  18.251  17.484   5.864
 3567POPC   GL146525  18.237  17.463   6.164
 3567POPC   GL246526  18.256  17.585   6.164
 3567POPC   C1A46527  18.308  17.509   6.464
 3567POPC   D2A46528  18.242  17.517   6.764
 3567POPC   C3A46529  18.270  17.510   7.064
 3567POPC   C4A46530  18.243  17.489   7.364
 3567POPC   C1B46531  18.317  17.785   6.464
 3567POPC   C2B46532  18.293  17.796   6.764
 3567POPC   C3B46533  18.323  17.781   7.064
 3567POPC   C4B46534  18.330  17.779   7.364
 3568POPC   NC346535  11.252  33.064   5.564
 3568POPC   PO446536  11.318  33.066   5.864
 3568POPC   GL146537  11.266  32.995   6.164
 3568POPC   GL246538  11.265  32.883   6.164
 3568POPC   C1A46539  11.344  33.042   6.464
 3568POPC   D2A46540  11.324  32.980   6.764
 3568POPC   C3A46541  11.307  32.982   7.064
 3568POPC   C4A46542  11.297  32.984   7.364
 3568POPC   C1B46543  11.316  32.736   6.464
 3568POPC   C2B46544  11.298  32.771   6.764
 3568POPC   C3B46545  11.286  32.774   7.064
 3568POPC   C4B46546  11.288  32.768   7.364
 3569POPC   NC346547  37.651  26.077   5.564
 3569POPC   PO446548  37.659  26.007   5.864
 3569POPC   GL146549  37.728  26.009   6.164
 3569POPC   GL246550  37.608  26.148   6.164
 3569POPC   C1A46551  37.702  26.086   6.464
 3569POPC   D2A46552  37.673  26.017   6.764
 3569POPC   C3A46553  37.715  26.077   7.064
 3569POPC   C4A46554  37.677  26.017   7.364
 3569POPC   C1B46555  37.496  26.269   6.464
 3569POPC   C2B46556  37.568  26.211   6.764
 3569POPC   C3B46557  37.491  26.230   7.064
 3569POPC   C4B46558  37.520  26.271   7.364
 3570POPC   NC346559  31.468  42.318   5.564
 3570POPC   PO446560  31.455  42.324   5.864
 3570POPC   GL146561  31.516  42.313   6.164
 3570POPC   GL246562  31.325  42.350   6.164
 3570POPC   C1A46563  31.444  42.311   6.464
 3570POPC   D2A46564  31.454  42.384   6.764
 3570POPC   C3A46565  31.459  42.297   7.064
 3570POPC   C4A46566  31.443  42.367   7.364
 3570POPC   C1B46567  31.213  42.289   6.464
 3570POPC   C2B46568  31.268  42.297   6.764
 3570POPC   C3B46569  31.204  42.287   7.064
 3570POPC   C4B46570  31.177  42.274   7.364
 3571POPC   NC346571  26.860  26.063   5.564
 3571POPC   PO446572  26.800  26.042   5.864
 3571POPC   GL146573  26.798  26.050   6.164
 3571POPC   GL246574  26.867  25.912   6.164
 3571POPC   C1A46575  26.788  26.027   6.464
 3571POPC   D2A46576  26.828  26.005   6.764
 3571POPC   C3A46577  26.817  26.057   7.064
 3571POPC   C4A46578  26.827  26.060   7.364
 3571POPC   C1B46579  26.906  25.831   6.464
 3571POPC   C2B46580  26.972  25.807   6.764
 3571POPC   C3B46581  26.915  25.799   7.064
 3571POPC   C4B46582  26.925  25.775   7.364
 3572POPC   NC346583  28.322   1.231   5.564
 3572POPC   PO446584  28.381   1.196   5.864
 3572POPC   GL146585  28.402   1.262   6.164
 3572POPC   GL246586  28.276   1.103   6.164
 3572POPC   C1A46587  28.365   1.179   6.464
 3572POPC   D2A46588  28.369   1.232   6.764
 3572POPC   C3A46589  28.403   1.221   7.064
 3572POPC   C4A46590  28.384   1.178   7.364
 3572POPC   C1B46591  28.207   1.066   6.464
 3572POPC   C2B46592  28.223   1.029   6.764
 3572POPC   C3B46593  28.202   0.981   7.064
 3572POPC   C4B46594  28.206   1.049   7.364
 3573POPC   NC346595  32.294   4.367   5.564
 3573POPC   PO446596  32.266   4.295   5.864
 3573POPC   GL146597  32.273   4.304   6.164
 3573POPC   GL246598  32.289   4.210   6.164
 3573POPC   C1A46599  32.280   4.323   6.464
 3573POPC   D2A46600  32.206   4.285   6.764
 3573POPC   C3A46601  32.297   4.330   7.064
 3573POPC   C4A46602  32.273   4.274   7.364
 3573POPC   C1B46603  32.331   4.127   6.464
 3573POPC   C2B46604  32.405   4.060   6.764
 3573POPC   C3B46605  32.342   4.094   7.064
 3573POPC   C4B46606  32.349   4.137   7.364
 3574POPC   NC346607  22.986  30.703   5.564
 3574POPC   PO446608  22.911  30.675   5.864
 3574POPC   GL146609  22.909  30.704   6.164
 3574POPC   GL246610  23.062  30.639   6.164
 3574POPC   C1A46611  22.947  30.690   6.464
 3574POPC   D2A46612  22.941  30.679   6.764
 3574POPC   C3A46613  22.888  30.727   7.064
 3574POPC   C4A46614  22.921  30.721   7.364
 3574POPC   C1B46615  23.179  30.570   6.464
 3574POPC   C2B46616  23.194  30.581   6.764
 3574POPC   C3B46617  23.142  30.561   7.064
 3574POPC   C4B46618  23.189  30.576   7.364
 3575POPC   NC346619  18.245  18.320   5.564
 3575POPC   PO446620  18.320  18.248   5.864
 3575POPC   GL146621  18.320  18.252   6.164
 3575POPC   GL246622  18.394  18.258   6.164
 3575POPC   C1A46623  18.250  18.321   6.464
 3575POPC   D2A46624  18.268  18.250   6.764
 3575POPC   C3A46625  18.297  18.314   7.064
 3575POPC   C4A46626  18.256  18.289   7.364
 3575POPC   C1B46627  18.481  18.222   6.464
 3575POPC   C2B46628  18.492  18.171   6.764
 3575POPC   C3B46629  18.551  18.169   7.064
 3575POPC   C4B46630  18.537  18.217   7.364
 3576POPC   NC346631  15.999  39.256   5.564
 3576POPC   PO446632  15.943  39.212   5.864
 3576POPC   GL146633  15.951  39.219   6.164
 3576POPC   GL246634  15.839  39.191   6.164
 3576POPC   C1A46635  15.997  39.199   6.464
 3576POPC   D2A46636  16.002  39.184   6.764
 3576POPC   C3A46637  15.993  39.213   7.064
 3576POPC   C4A46638  15.947  39.187   7.364
 3576POPC   C1B46639  15.709  39.163   6.464
 3576POPC   C2B46640  15.683  39.181   6.764
 3576POPC   C3B46641  15.721  39.179   7.064
 3576POPC   C4B46642  15.705  39.142   7.364
 3577POPC   NC346643  41.566  36.888   5.564
 3577POPC   PO446644  41.510  36.951   5.864
 3577POPC   GL146645  41.605  36.879   6.164
 3577POPC   GL246646  41.599  36.785   6.164
 3577POPC   C1A46647  41.551  36.905   6.464
 3577POPC   D2A46648  41.556  36.907   6.764
 3577POPC   C3A46649  41.599  36.896   7.064
 3577POPC   C4A46650  41.549  36.861   7.364
 3577POPC   C1B46651  41.723  36.683   6.464
 3577POPC   C2B46652  41.718  36.656   6.764
 3577POPC   C3B46653  41.665  36.704   7.064
 3577POPC   C4B46654  41.664  36.744   7.364
 3578POPC   NC346655  36.889  14.403   5.564
 3578POPC   PO446656  36.894  14.437   5.864
 3578POPC   GL146657  36.860  14.444   6.164
 3578POPC   GL246658  36.859  14.276   6.164
 3578POPC   C1A46659  36.903  14.398   6.464
 3578POPC   D2A46660  36.946  14.364   6.764
 3578POPC   C3A46661  36.948  14.389   7.064
 3578POPC   C4A46662  36.884  14.434   7.364
 3578POPC   C1B46663  36.783  14.213   6.464
 3578POPC   C2B46664  36.805  14.219   6.764
 3578POPC   C3B46665  36.805  14.146   7.064
 3578POPC   C4B46666  36.759  14.178   7.364
 3579POPC   NC346667  29.104   3.589   5.564
 3579POPC   PO446668  29.116   3.521   5.864
 3579POPC   GL146669  29.157   3.572   6.164
 3579POPC   GL246670  29.272   3.630   6.164
 3579POPC   C1A46671  29.168   3.590   6.464
 3579POPC   D2A46672  29.112   3.501   6.764
 3579POPC   C3A46673  29.122   3.554   7.064
 3579POPC   C4A46674  29.186   3.522   7.364
 3579POPC   C1B46675  29.408   3.611   6.464
 3579POPC   C2B46676  29.368   3.606   6.764
 3579POPC   C3B46677  29.395   3.634   7.064
 3579POPC   C4B46678  29.336   3.599   7.364
 3580POPC   NC346679  24.538  29.171   5.564
 3580POPC   PO446680  24.538  29.167   5.864
 3580POPC   GL146681  24.535  29.107   6.164
 3580POPC   GL246682  24.339  29.131   6.164
 3580POPC   C1A46683  24.456  29.194   6.464
 3580POPC   D2A46684  24.511  29.185   6.764
 3580POPC   C3A46685  24.532  29.189   7.064
 3580POPC   C4A46686  24.443  29.150   7.364
 3580POPC   C1B46687  24.307  29.040   6.464
 3580POPC   C2B46688  24.282  28.981   6.764
 3580POPC   C3B46689  24.295  28.994   7.064
 3580POPC   C4B46690  24.290  29.016   7.364
 3581POPC   NC346691   1.989   4.277   5.564
 3581POPC   PO446692   1.943   4.317   5.864
 3581POPC   GL146693   1.953   4.312   6.164
 3581POPC   GL246694   1.940   4.432   6.164
 3581POPC   C1A46695   2.027   4.301   6.464
 3581POPC   D2A46696   1.959   4.283   6.764
 3581POPC   C3A46697   1.998   4.357   7.064
 3581POPC   C4A46698   2.030   4.274   7.364
 3581POPC   C1B46699   1.818   4.470   6.464
 3581POPC   C2B46700   1.806   4.450   6.764
 3581POPC   C3B46701   1.758   4.516   7.064
 3581POPC   C4B46702   1.798   4.479   7.364
 3582POPC   NC346703  38.418  33.050   5.564
 3582POPC   PO446704  38.413  33.062   5.864
 3582POPC   GL146705  38.478  33.023   6.164
 3582POPC   GL246706  38.330  33.045   6.164
 3582POPC   C1A46707  38.444  32.978   6.464
 3582POPC   D2A46708  38.457  33.021   6.764
 3582POPC   C3A46709  38.475  33.058   7.064
 3582POPC   C4A46710  38.489  32.993   7.364
 3582POPC   C1B46711  38.235  33.005   6.464
 3582POPC   C2B46712  38.203  33.001   6.764
 3582POPC   C3B46713  38.256  32.924   7.064
 3582POPC   C4B46714  38.232  32.968   7.364
 3583POPC   NC346715  39.190  15.160   5.564
 3583POPC   PO446716  39.186  15.150   5.864
 3583POPC   GL146717  39.188  15.139   6.164
 3583POPC   GL246718  39.191  15.104   6.164
 3583POPC   C1A46719  39.214  15.140   6.464
 3583POPC   D2A46720  39.185  15.210   6.764
 3583POPC   C3A46721  39.205  15.209   7.064
 3583POPC   C4A46722  39.266  15.203   7.364
 3583POPC   C1B46723  39.170  14.953   6.464
 3583POPC   C2B46724  39.169  14.961   6.764
 3583POPC   C3B46725  39.174  14.912   7.064
 3583POPC   C4B46726  39.088  14.960   7.364
 3584POPC   NC346727  22.932  14.422   5.564
 3584POPC   PO446728  22.978  14.431   5.864
 3584POPC   GL146729  22.904  14.399   6.164
 3584POPC   GL246730  22.957  14.552   6.164
 3584POPC   C1A46731  22.942  14.387   6.464
 3584POPC   D2A46732  22.935  14.428   6.764
 3584POPC   C3A46733  22.947  14.410   7.064
 3584POPC   C4A46734  22.948  14.430   7.364
 3584POPC   C1B46735  22.994  14.647   6.464
 3584POPC   C2B46736  22.939  14.647   6.764
 3584POPC   C3B46737  22.947  14.693   7.064
 3584POPC   C4B46738  22.973  14.667   7.364
 3585POPC   NC346739  19.840  19.049   5.564
 3585POPC   PO446740  19.813  19.025   5.864
 3585POPC   GL146741  19.790  19.076   6.164
 3585POPC   GL246742  19.862  18.986   6.164
 3585POPC   C1A46743  19.788  19.034   6.464
 3585POPC   D2A46744  19.881  19.046   6.764
 3585POPC   C3A46745  19.852  19.102   7.064
 3585POPC   C4A46746  19.821  19.046   7.364
 3585POPC   C1B46747  19.917  18.805   6.464
 3585POPC   C2B46748  19.909  18.859   6.764
 3585POPC   C3B46749  19.912  18.816   7.064
 3585POPC   C4B46750  19.906  18.824   7.364
 3586POPC   NC346751   2.720   1.173   5.564
 3586POPC   PO446752   2.747   1.205   5.864
 3586POPC   GL146753   2.810   1.252   6.164
 3586POPC   GL246754   2.891   1.181   6.164
 3586POPC   C1A46755   2.739   1.256   6.464
 3586POPC   D2A46756   2.733   1.164   6.764
 3586POPC   C3A46757   2.811   1.259   7.064
 3586POPC   C4A46758   2.777   1.213   7.364
 3586POPC   C1B46759   2.976   1.136   6.464
 3586POPC   C2B46760   2.999   1.178   6.764
 3586POPC   C3B46761   2.983   1.168   7.064
 3586POPC   C4B46762   2.958   1.188   7.364
 3587POPC   NC346763  33.004  12.093   5.564
 3587POPC   PO446764  33.019  12.119   5.864
 3587POPC   GL146765  33.021  12.082   6.164
 3587POPC   GL246766  32.981  12.146   6.164
 3587POPC   C1A46767  33.034  12.122   6.464
 3587POPC   D2A46768  33.074  12.104   6.764
 3587POPC   C3A46769  33.071  12.103   7.064
 3587POPC   C4A46770  33.031  12.051   7.364
 3587POPC   C1B46771  32.883  12.284   6.464
 3587POPC   C2B46772  32.836  12.301   6.764
 3587POPC   C3B46773  32.845  12.321   7.064
 3587POPC   C4B46774  32.867  12.313   7.364
 3588POPC   NC346775  40.830  42.317   5.564
 3588POPC   PO446776  40.804  42.327   5.864
 3588POPC   GL146777  40.797  42.358   6.164
 3588POPC   GL246778  40.761  42.492   6.164
 3588POPC   C1A46779  40.822  42.364   6.464
 3588POPC   D2A46780  40.789  42.299   6.764
 3588POPC   C3A46781  40.770  42.384   7.064
 3588POPC   C4A46782  40.770  42.342   7.364
 3588POPC   C1B46783  40.723  42.623   6.464
 3588POPC   C2B46784  40.764  42.539   6.764
 3588POPC   C3B46785  40.762  42.561   7.064
 3588POPC   C4B46786  40.687  42.549   7.364
 3589POPC   NC346787  31.460  25.255   5.564
 3589POPC   PO446788  31.515  25.226   5.864
 3589POPC   GL146789  31.478  25.223   6.164
 3589POPC   GL246790  31.382  25.319   6.164
 3589POPC   C1A46791  31.490  25.313   6.464
 3589POPC   D2A46792  31.484  25.315   6.764
 3589POPC   C3A46793  31.504  25.272   7.064
 3589POPC   C4A46794  31.485  25.284   7.364
 3589POPC   C1B46795  31.205  25.408   6.464
 3589POPC   C2B46796  31.269  25.358   6.764
 3589POPC   C3B46797  31.276  25.391   7.064
 3589POPC   C4B46798  31.204  25.337   7.364
 3590POPC   NC346799  11.273  19.873   5.564
 3590POPC   PO446800  11.284  19.855   5.864
 3590POPC   GL146801  11.337  19.836   6.164
 3590POPC   GL246802  11.422  19.794   6.164
 3590POPC   C1A46803  11.297  19.837   6.464
 3590POPC   D2A46804  11.275  19.790   6.764
 3590POPC   C3A46805  11.255  19.806   7.064
 3590POPC   C4A46806  11.315  19.828   7.364
 3590POPC   C1B46807  11.578  19.758   6.464
 3590POPC   C2B46808  11.572  19.801   6.764
 3590POPC   C3B46809  11.555  19.770   7.064
 3590POPC   C4B46810  11.591  19.760   7.364
 3591POPC   NC346811  22.969  26.015   5.564
 3591POPC   PO446812  22.912  26.048   5.864
 3591POPC   GL146813  22.986  26.052   6.164
 3591POPC   GL246814  22.893  26.161   6.164
 3591POPC   C1A46815  22.897  26.065   6.464
 3591POPC   D2A46816  22.928  26.065   6.764
 3591POPC   C3A46817  22.934  26.062   7.064
 3591POPC   C4A46818  22.937  26.038   7.364
 3591POPC   C1B46819  22.765  26.245   6.464
 3591POPC   C2B46820  22.808  26.236   6.764
 3591POPC   C3B46821  22.809  26.228   7.064
 3591POPC   C4B46822  22.754  26.218   7.364
 3592POPC   NC346823   5.866   8.239   5.564
 3592POPC   PO446824   5.820   8.209   5.864
 3592POPC   GL146825   5.908   8.176   6.164
 3592POPC   GL246826   5.786   8.306   6.164
 3592POPC   C1A46827   5.851   8.238   6.464
 3592POPC   D2A46828   5.870   8.205   6.764
 3592POPC   C3A46829   5.826   8.226   7.064
 3592POPC   C4A46830   5.919   8.216   7.364
 3592POPC   C1B46831   5.780   8.411   6.464
 3592POPC   C2B46832   5.704   8.369   6.764
 3592POPC   C3B46833   5.703   8.453   7.064
 3592POPC   C4B46834   5.710   8.369   7.364
 3593POPC   NC346835  19.859  41.527   5.564
 3593POPC   PO446836  19.880  41.550   5.864
 3593POPC   GL146837  19.838  41.526   6.164
 3593POPC   GL246838  19.790  41.660   6.164
 3593POPC   C1A46839  19.806  41.509   6.464
 3593POPC   D2A46840  19.790  41.555   6.764
 3593POPC   C3A46841  19.805  41.549   7.064
 3593POPC   C4A46842  19.801  41.565   7.364
 3593POPC   C1B46843  19.733  41.735   6.464
 3593POPC   C2B46844  19.721  41.738   6.764
 3593POPC   C3B46845  19.723  41.739   7.064
 3593POPC   C4B46846  19.668  41.796   7.364
 3594POPC   NC346847  15.220  39.277   5.564
 3594POPC   PO446848  15.174  39.257   5.864
 3594POPC   GL146849  15.145  39.259   6.164
 3594POPC   GL246850  15.208  39.131   6.164
 3594POPC   C1A46851  15.208  39.191   6.464
 3594POPC   D2A46852  15.156  39.185   6.764
 3594POPC   C3A46853  15.137  39.247   7.064
 3594POPC   C4A46854  15.180  39.190   7.364
 3594POPC   C1B46855  15.172  38.938   6.464
 3594POPC   C2B46856  15.187  38.965   6.764
 3594POPC   C3B46857  15.189  39.030   7.064
 3594POPC   C4B46858  15.171  39.001   7.364
 3595POPC   NC346859   7.409  34.596   5.564
 3595POPC   PO446860   7.407  34.611   5.864
 3595POPC   GL146861   7.429  34.538   6.164
 3595POPC   GL246862   7.524  34.495   6.164
 3595POPC   C1A46863   7.373  34.541   6.464
 3595POPC   D2A46864   7.425  34.570   6.764
 3595POPC   C3A46865   7.386  34.595   7.064
 3595POPC   C4A46866   7.391  34.597   7.364
 3595POPC   C1B46867   7.586  34.376   6.464
 3595POPC   C2B46868   7.560  34.343   6.764
 3595POPC   C3B46869   7.597  34.375   7.064
 3595POPC   C4B46870   7.548  34.412   7.364
 3596POPC   NC346871   3.533   9.781   5.564
 3596POPC   PO446872   3.578   9.719   5.864
 3596POPC   GL146873   3.571   9.757   6.164
 3596POPC   GL246874   3.639   9.835   6.164
 3596POPC   C1A46875   3.523   9.700   6.464
 3596POPC   D2A46876   3.520   9.756   6.764
 3596POPC   C3A46877   3.509   9.739   7.064
 3596POPC   C4A46878   3.535   9.719   7.364
 3596POPC   C1B46879   3.687   9.947   6.464
 3596POPC   C2B46880   3.670   9.930   6.764
 3596POPC   C3B46881   3.667   9.910   7.064
 3596POPC   C4B46882   3.657   9.939   7.364
 3597POPC   NC346883  33.829  29.137   5.564
 3597POPC   PO446884  33.841  29.156   5.864
 3597POPC   GL146885  33.829  29.143   6.164
 3597POPC   GL246886  33.719  29.207   6.164
 3597POPC   C1A46887  33.802  29.138   6.464
 3597POPC   D2A46888  33.793  29.115   6.764
 3597POPC   C3A46889  33.777  29.132   7.064
 3597POPC   C4A46890  33.811  29.101   7.364
 3597POPC   C1B46891  33.697  29.395   6.464
 3597POPC   C2B46892  33.666  29.384   6.764
 3597POPC   C3B46893  33.697  29.334   7.064
 3597POPC   C4B46894  33.707  29.334   7.364
 3598POPC   NC346895  29.889   7.406   5.564
 3598POPC   PO446896  29.910   7.376   5.864
 3598POPC   GL146897  29.885   7.376   6.164
 3598POPC   GL246898  29.927   7.491   6.164
 3598POPC   C1A46899  29.877   7.372   6.464
 3598POPC   D2A46900  29.893   7.460   6.764
 3598POPC   C3A46901  29.951   7.377   7.064
 3598POPC   C4A46902  29.921   7.404   7.364
 3598POPC   C1B46903  30.005   7.675   6.464
 3598POPC   C2B46904  29.991   7.638   6.764
 3598POPC   C3B46905  29.985   7.662   7.064
 3598POPC   C4B46906  30.043   7.691   7.364
 3599POPC   NC346907   4.292  40.746   5.564
 3599POPC   PO446908   4.348  40.748   5.864
 3599POPC   GL146909   4.337  40.815   6.164
 3599POPC   GL246910   4.396  40.859   6.164
 3599POPC   C1A46911   4.276  40.756   6.464
 3599POPC   D2A46912   4.353  40.764   6.764
 3599POPC   C3A46913   4.312  40.820   7.064
 3599POPC   C4A46914   4.347  40.831   7.364
 3599POPC   C1B46915   4.406  40.985   6.464
 3599POPC   C2B46916   4.375  40.975   6.764
 3599POPC   C3B46917   4.416  41.052   7.064
 3599POPC   C4B46918   4.441  40.980   7.364
 3600POPC   NC346919  42.361  18.240   5.564
 3600POPC   PO446920  42.297  18.326   5.864
 3600POPC   GL146921  42.369  18.305   6.164
 3600POPC   GL246922  42.400  18.440   6.164
 3600POPC   C1A46923  42.372  18.315   6.464
 3600POPC   D2A46924  42.296  18.233   6.764
 3600POPC   C3A46925  42.296  18.308   7.064
 3600POPC   C4A46926  42.381  18.333   7.364
 3600POPC   C1B46927  42.426  18.501   6.464
 3600POPC   C2B46928  42.501  18.517   6.764
 3600POPC   C3B46929  42.468  18.546   7.064
 3600POPC   C4B46930  42.407  18.507   7.364
 3601POPC   NC346931  24.467  24.478   5.564
 3601POPC   PO446932  24.489  24.514   5.864
 3601POPC   GL146933  24.495  24.469   6.164
 3601POPC   GL246934  24.338  24.548   6.164
 3601POPC   C1A46935  24.522  24.509   6.464
 3601POPC   D2A46936  24.539  24.484   6.764
 3601POPC   C3A46937  24.466  24.492   7.064
 3601POPC   C4A46938  24.519  24.505   7.364
 3601POPC   C1B46939  24.216  24.489   6.464
 3601POPC   C2B46940  24.206  24.466   6.764
 3601POPC   C3B46941  24.280  24.487   7.064
 3601POPC   C4B46942  24.232  24.511   7.364
 3602POPC   NC346943  39.989  37.718   5.564
 3602POPC   PO446944  40.007  37.722   5.864
 3602POPC   GL146945  40.042  37.722   6.164
 3602POPC   GL246946  40.108  37.708   6.164
 3602POPC   C1A46947  40.049  37.726   6.464
 3602POPC   D2A46948  39.966  37.669   6.764
 3602POPC   C3A46949  39.992  37.676   7.064
 3602POPC   C4A46950  40.031  37.698   7.364
 3602POPC   C1B46951  40.281  37.716   6.464
 3602POPC   C2B46952  40.293  37.665   6.764
 3602POPC   C3B46953  40.226  37.711   7.064
 3602POPC   C4B46954  40.302  37.700   7.364
 3603POPC   NC346955  33.818  40.779   5.564
 3603POPC   PO446956  33.785  40.743   5.864
 3603POPC   GL146957  33.784  40.734   6.164
 3603POPC   GL246958  33.662  40.726   6.164
 3603POPC   C1A46959  33.829  40.757   6.464
 3603POPC   D2A46960  33.831  40.773   6.764
 3603POPC   C3A46961  33.753  40.751   7.064
 3603POPC   C4A46962  33.815  40.733   7.364
 3603POPC   C1B46963  33.574  40.676   6.464
 3603POPC   C2B46964  33.544  40.642   6.764
 3603POPC   C3B46965  33.549  40.712   7.064
 3603POPC   C4B46966  33.592  40.674   7.364
 3604POPC   NC346967  33.812   0.419   5.564
 3604POPC   PO446968  33.791   0.390   5.864
 3604POPC   GL146969  33.753   0.476   6.164
 3604POPC   GL246970  33.801   0.556   6.164
 3604POPC   C1A46971  33.813   0.448   6.464
 3604POPC   D2A46972  33.827   0.453   6.764
 3604POPC   C3A46973  33.807   0.486   7.064
 3604POPC   C4A46974  33.770   0.412   7.364
 3604POPC   C1B46975  33.896   0.710   6.464
 3604POPC   C2B46976  33.849   0.704   6.764
 3604POPC   C3B46977  33.844   0.680   7.064
 3604POPC   C4B46978  33.860   0.674   7.364
 3605POPC   NC346979  38.464   5.127   5.564
 3605POPC   PO446980  38.413   5.072   5.864
 3605POPC   GL146981  38.458   5.064   6.164
 3605POPC   GL246982  38.509   5.052   6.164
 3605POPC   C1A46983  38.505   5.139   6.464
 3605POPC   D2A46984  38.409   5.080   6.764
 3605POPC   C3A46985  38.408   5.113   7.064
 3605POPC   C4A46986  38.503   5.142   7.364
 3605POPC   C1B46987  38.602   4.894   6.464
 3605POPC   C2B46988  38.595   4.937   6.764
 3605POPC   C3B46989  38.629   4.931   7.064
 3605POPC   C4B46990  38.620   4.924   7.364
 3606POPC   NC346991  22.903  15.990   5.564
 3606POPC   PO446992  22.972  15.932   5.864
 3606POPC   GL146993  22.892  15.972   6.164
 3606POPC   GL246994  23.048  16.076   6.164
 3606POPC   C1A46995  22.939  15.978   6.464
 3606POPC   D2A46996  22.935  15.916   6.764
 3606POPC   C3A46997  22.917  15.951   7.064
 3606POPC   C4A46998  22.970  15.974   7.364
 3606POPC   C1B46999  23.127  16.085   6.464
 3606POPC   C2B47000  23.165  16.094   6.764
 3606POPC   C3B47001  23.120  16.168   7.064
 3606POPC   C4B47002  23.168  16.105   7.364
 3607POPC   NC347003  17.538  22.135   5.564
 3607POPC   PO447004  17.548  22.138   5.864
 3607POPC   GL147005  17.514  22.178   6.164
 3607POPC   GL247006  17.471  22.092   6.164
 3607POPC   C1A47007  17.469  22.210   6.464
 3607POPC   D2A47008  17.484  22.169   6.764
 3607POPC   C3A47009  17.476  22.161   7.064
 3607POPC   C4A47010  17.533  22.212   7.364
 3607POPC   C1B47011  17.380  22.007   6.464
 3607POPC   C2B47012  17.354  21.989   6.764
 3607POPC   C3B47013  17.338  21.961   7.064
 3607POPC   C4B47014  17.393  21.952   7.364
 3608POPC   NC347015   2.016  35.381   5.564
 3608POPC   PO447016   1.956  35.388   5.864
 3608POPC   GL147017   1.951  35.357   6.164
 3608POPC   GL247018   1.951  35.282   6.164
 3608POPC   C1A47019   1.995  35.362   6.464
 3608POPC   D2A47020   2.028  35.315   6.764
 3608POPC   C3A47021   2.009  35.347   7.064
 3608POPC   C4A47022   2.032  35.349   7.364
 3608POPC   C1B47023   1.878  35.118   6.464
 3608POPC   C2B47024   1.869  35.169   6.764
 3608POPC   C3B47025   1.878  35.114   7.064
 3608POPC   C4B47026   1.889  35.117   7.364
 3609POPC   NC347027  25.243   7.377   5.564
 3609POPC   PO447028  25.240   7.438   5.864
 3609POPC   GL147029  25.224   7.427   6.164
 3609POPC   GL247030  25.312   7.317   6.164
 3609POPC   C1A47031  25.218   7.432   6.464
 3609POPC   D2A47032  25.313   7.467   6.764
 3609POPC   C3A47033  25.253   7.375   7.064
 3609POPC   C4A47034  25.294   7.412   7.364
 3609POPC   C1B47035  25.360   7.168   6.464
 3609POPC   C2B47036  25.408   7.234   6.764
 3609POPC   C3B47037  25.373   7.172   7.064
 3609POPC   C4B47038  25.425   7.231   7.364
 3610POPC   NC347039  38.469  43.865   5.564
 3610POPC   PO447040  38.447  43.910   5.864
 3610POPC   GL147041  38.500  43.847   6.164
 3610POPC   GL247042  38.531  43.957   6.164
 3610POPC   C1A47043  38.470  43.925   6.464
 3610POPC   D2A47044  38.423  43.934   6.764
 3610POPC   C3A47045  38.465  43.910   7.064
 3610POPC   C4A47046  38.482  43.892   7.364
 3610POPC   C1B47047  38.618  44.045   6.464
 3610POPC   C2B47048  38.578  44.075   6.764
 3610POPC   C3B47049  38.574  44.062   7.064
 3610POPC   C4B47050  38.592  44.082   7.364
 3611POPC   NC347051  15.936  13.619   5.564
 3611POPC   PO447052  15.911  13.635   5.864
 3611POPC   GL147053  15.999  13.645   6.164
 3611POPC   GL247054  16.114  13.610   6.164
 3611POPC   C1A47055  15.941  13.675   6.464
 3611POPC   D2A47056  15.968  13.595   6.764
 3611POPC   C3A47057  15.936  13.602   7.064
 3611POPC   C4A47058  15.962  13.662   7.364
 3611POPC   C1B47059  16.176  13.585   6.464
 3611POPC   C2B47060  16.238  13.580   6.764
 3611POPC   C3B47061  16.229  13.561   7.064
 3611POPC   C4B47062  16.233  13.556   7.364
 3612POPC   NC347063  19.847   1.246   5.564
 3612POPC   PO447064  19.823   1.177   5.864
 3612POPC   GL147065  19.803   1.235   6.164
 3612POPC   GL247066  19.754   1.332   6.164
 3612POPC   C1A47067  19.857   1.169   6.464
 3612POPC   D2A47068  19.823   1.166   6.764
 3612POPC   C3A47069  19.802   1.236   7.064
 3612POPC   C4A47070  19.787   1.207   7.364
 3612POPC   C1B47071  19.710   1.448   6.464
 3612POPC   C2B47072  19.721   1.397   6.764
 3612POPC   C3B47073  19.674   1.470   7.064
 3612POPC   C4B47074  19.752   1.418   7.364
 3613POPC   NC347075  30.690  10.571   5.564
 3613POPC   PO447076  30.693  10.520   5.864
 3613POPC   GL147077  30.652  10.507   6.164
 3613POPC   GL247078  30.822  10.414   6.164
 3613POPC   C1A47079  30.703  10.547   6.464
 3613POPC   D2A47080  30.681  10.525   6.764
 3613POPC   C3A47081  30.746  10.562   7.064
 3613POPC   C4A47082  30.676  10.501   7.364
 3613POPC   C1B47083  30.890  10.387   6.464
 3613POPC   C2B47084  30.868  10.336   6.764
 3613POPC   C3B47085  30.860  10.356   7.064
 3613POPC   C4B47086  30.899  10.348   7.364
 3614POPC   NC347087  24.515   7.394   5.564
 3614POPC   PO447088  24.523   7.447   5.864
 3614POPC   GL147089  24.532   7.421   6.164
 3614POPC   GL247090  24.608   7.440   6.164
 3614POPC   C1A47091  24.512   7.399   6.464
 3614POPC   D2A47092  24.501   7.390   6.764
 3614POPC   C3A47093  24.490   7.455   7.064
 3614POPC   C4A47094  24.511   7.372   7.364
 3614POPC   C1B47095  24.770   7.398   6.464
 3614POPC   C2B47096  24.763   7.438   6.764
 3614POPC   C3B47097  24.718   7.405   7.064
 3614POPC   C4B47098  24.770   7.391   7.364
 3615POPC   NC347099  38.433  14.436   5.564
 3615POPC   PO447100  38.406  14.383   5.864
 3615POPC   GL147101  38.480  14.426   6.164
 3615POPC   GL247102  38.285  14.463   6.164
 3615POPC   C1A47103  38.461  14.370   6.464
 3615POPC   D2A47104  38.417  14.384   6.764
 3615POPC   C3A47105  38.433  14.404   7.064
 3615POPC   C4A47106  38.469  14.453   7.364
 3615POPC   C1B47107  38.207  14.472   6.464
 3615POPC   C2B47108  38.203  14.423   6.764
 3615POPC   C3B47109  38.165  14.446   7.064
 3615POPC   C4B47110  38.167  14.416   7.364
 3616POPC   NC347111  32.283  34.534   5.564
 3616POPC   PO447112  32.214  34.556   5.864
 3616POPC   GL147113  32.217  34.574   6.164
 3616POPC   GL247114  32.214  34.707   6.164
 3616POPC   C1A47115  32.287  34.575   6.464
 3616POPC   D2A47116  32.258  34.526   6.764
 3616POPC   C3A47117  32.277  34.581   7.064
 3616POPC   C4A47118  32.207  34.540   7.364
 3616POPC   C1B47119  32.192  34.782   6.464
 3616POPC   C2B47120  32.128  34.857   6.764
 3616POPC   C3B47121  32.120  34.777   7.064
 3616POPC   C4B47122  32.136  34.779   7.364
 3617POPC   NC347123  28.407  33.042   5.564
 3617POPC   PO447124  28.412  33.003   5.864
 3617POPC   GL147125  28.368  33.061   6.164
 3617POPC   GL247126  28.311  32.916   6.164
 3617POPC   C1A47127  28.362  33.061   6.464
 3617POPC   D2A47128  28.414  33.059   6.764
 3617POPC   C3A47129  28.388  33.009   7.064
 3617POPC   C4A47130  28.323  33.028   7.364
 3617POPC   C1B47131  28.288  32.789   6.464
 3617POPC   C2B47132  28.289  32.739   6.764
 3617POPC   C3B47133  28.292  32.762   7.064
 3617POPC   C4B47134  28.247  32.815   7.364
 3618POPC   NC347135   9.022  14.439   5.564
 3618POPC   PO447136   8.955  14.362   5.864
 3618POPC   GL147137   8.924  14.357   6.164
 3618POPC   GL247138   9.002  14.315   6.164
 3618POPC   C1A47139   9.020  14.433   6.464
 3618POPC   D2A47140   8.956  14.453   6.764
 3618POPC   C3A47141   8.934  14.376   7.064
 3618POPC   C4A47142   9.005  14.368   7.364
 3618POPC   C1B47143   8.932  14.139   6.464
 3618POPC   C2B47144   8.954  14.173   6.764
 3618POPC   C3B47145   8.905  14.149   7.064
 3618POPC   C4B47146   8.925  14.193   7.364
 3619POPC   NC347147   6.615  12.098   5.564
 3619POPC   PO447148   6.597  12.030   5.864
 3619POPC   GL147149   6.614  12.054   6.164
 3619POPC   GL247150   6.493  12.176   6.164
 3619POPC   C1A47151   6.610  12.111   6.464
 3619POPC   D2A47152   6.665  12.088   6.764
 3619POPC   C3A47153   6.643  12.069   7.064
 3619POPC   C4A47154   6.659  12.114   7.364
 3619POPC   C1B47155   6.376  12.147   6.464
 3619POPC   C2B47156   6.421  12.202   6.764
 3619POPC   C3B47157   6.446  12.227   7.064
 3619POPC   C4B47158   6.377  12.183   7.364
 3620POPC   NC347159  39.251  21.417   5.564
 3620POPC   PO447160  39.218  21.374   5.864
 3620POPC   GL147161  39.220  21.435   6.164
 3620POPC   GL247162  39.228  21.489   6.164
 3620POPC   C1A47163  39.183  21.355   6.464
 3620POPC   D2A47164  39.209  21.413   6.764
 3620POPC   C3A47165  39.238  21.379   7.064
 3620POPC   C4A47166  39.279  21.371   7.364
 3620POPC   C1B47167  39.261  21.602   6.464
 3620POPC   C2B47168  39.308  21.666   6.764
 3620POPC   C3B47169  39.237  21.628   7.064
 3620POPC   C4B47170  39.236  21.666   7.364
 3621POPC   NC347171   4.308  26.772   5.564
 3621POPC   PO447172   4.292  26.781   5.864
 3621POPC   GL147173   4.312  26.826   6.164
 3621POPC   GL247174   4.409  26.789   6.164
 3621POPC   C1A47175   4.338  26.865   6.464
 3621POPC   D2A47176   4.340  26.836   6.764
 3621POPC   C3A47177   4.273  26.793   7.064
 3621POPC   C4A47178   4.363  26.839   7.364
 3621POPC   C1B47179   4.595  26.787   6.464
 3621POPC   C2B47180   4.555  26.761   6.764
 3621POPC   C3B47181   4.603  26.708   7.064
 3621POPC   C4B47182   4.568  26.736   7.364
 3622POPC   NC347183   8.182   7.392   5.564
 3622POPC   PO447184   8.226   7.385   5.864
 3622POPC   GL147185   8.219   7.428   6.164
 3622POPC   GL247186   8.216   7.569   6.164
 3622POPC   C1A47187   8.181   7.377   6.464
 3622POPC   D2A47188   8.228   7.391   6.764
 3622POPC   C3A47189   8.188   7.379   7.064
 3622POPC   C4A47190   8.220   7.400   7.364
 3622POPC   C1B47191   8.240   7.667   6.464
 3622POPC   C2B47192   8.269   7.636   6.764
 3622POPC   C3B47193   8.289   7.688   7.064
 3622POPC   C4B47194   8.201   7.657   7.364
 3623POPC   NC347195  22.959   6.635   5.564
 3623POPC   PO447196  22.948   6.656   5.864
 3623POPC   GL147197  22.958   6.624   6.164
 3623POPC   GL247198  22.963   6.740   6.164
 3623POPC   C1A47199  22.965   6.645   6.464
 3623POPC   D2A47200  22.965   6.613   6.764
 3623POPC   C3A47201  22.906   6.656   7.064
 3623POPC   C4A47202  22.984   6.631   7.364
 3623POPC   C1B47203  23.103   6.801   6.464
 3623POPC   C2B47204  23.115   6.890   6.764
 3623POPC   C3B47205  23.061   6.834   7.064
 3623POPC   C4B47206  23.060   6.897   7.364
 3624POPC   NC347207  29.893  19.023   5.564
 3624POPC   PO447208  29.929  19.062   5.864
 3624POPC   GL147209  29.896  19.107   6.164
 3624POPC   GL247210  29.930  19.170   6.164
 3624POPC   C1A47211  29.916  19.036   6.464
 3624POPC   D2A47212  29.947  19.058   6.764
 3624POPC   C3A47213  29.891  19.034   7.064
 3624POPC   C4A47214  29.924  19.083   7.364
 3624POPC   C1B47215  29.912  19.352   6.464
 3624POPC   C2B47216  29.945  19.320   6.764
 3624POPC   C3B47217  29.950  19.330   7.064
 3624POPC   C4B47218  29.864  19.301   7.364
 3625POPC   NC347219  19.825  34.527   5.564
 3625POPC   PO447220  19.866  34.579   5.864
 3625POPC   GL147221  19.829  34.588   6.164
 3625POPC   GL247222  19.827  34.475   6.164
 3625POPC   C1A47223  19.882  34.589   6.464
 3625POPC   D2A47224  19.796  34.584   6.764
 3625POPC   C3A47225  19.869  34.565   7.064
 3625POPC   C4A47226  19.844  34.544   7.364
 3625POPC   C1B47227  19.905  34.300   6.464
 3625POPC   C2B47228  19.911  34.330   6.764
 3625POPC   C3B47229  19.950  34.333   7.064
 3625POPC   C4B47230  19.966  34.327   7.364
 3626POPC   NC347231  26.080  36.082   5.564
 3626POPC   PO447232  26.068  36.088   5.864
 3626POPC   GL147233  26.087  36.134   6.164
 3626POPC   GL247234  25.909  36.255   6.164
 3626POPC   C1A47235  26.004  36.160   6.464
 3626POPC   D2A47236  26.047  36.083   6.764
 3626POPC   C3A47237  26.020  36.092   7.064
 3626POPC   C4A47238  26.045  36.108   7.364
 3626POPC   C1B47239  25.830  36.251   6.464
 3626POPC   C2B47240  25.867  36.252   6.764
 3626POPC   C3B47241  25.800  36.242   7.064
 3626POPC   C4B47242  25.805  36.243   7.364
 3627POPC   NC347243  19.878  30.669   5.564
 3627POPC   PO447244  19.828  30.727   5.864
 3627POPC   GL147245  19.789  30.716   6.164
 3627POPC   GL247246  19.732  30.621   6.164
 3627POPC   C1A47247  19.808  30.670   6.464
 3627POPC   D2A47248  19.797  30.661   6.764
 3627POPC   C3A47249  19.873  30.682   7.064
 3627POPC   C4A47250  19.825  30.718   7.364
 3627POPC   C1B47251  19.656  30.500   6.464
 3627POPC   C2B47252  19.688  30.472   6.764
 3627POPC   C3B47253  19.657  30.480   7.064
 3627POPC   C4B47254  19.747  30.497   7.364
 3628POPC   NC347255   6.608  25.267   5.564
 3628POPC   PO447256   6.611  25.255   5.864
 3628POPC   GL147257   6.655  25.239   6.164
 3628POPC   GL247258   6.492  25.381   6.164
 3628POPC   C1A47259   6.621  25.234   6.464
 3628POPC   D2A47260   6.626  25.282   6.764
 3628POPC   C3A47261   6.607  25.313   7.064
 3628POPC   C4A47262   6.608  25.270   7.364
 3628POPC   C1B47263   6.467  25.350   6.464
 3628POPC   C2B47264   6.399  25.444   6.764
 3628POPC   C3B47265   6.388  25.424   7.064
 3628POPC   C4B47266   6.478  25.402   7.364
 3629POPC   NC347267  31.509  19.090   5.564
 3629POPC   PO447268  31.441  19.036   5.864
 3629POPC   GL147269  31.490  19.099   6.164
 3629POPC   GL247270  31.627  19.014   6.164
 3629POPC   C1A47271  31.489  19.090   6.464
 3629POPC   D2A47272  31.498  19.070   6.764
 3629POPC   C3A47273  31.434  19.086   7.064
 3629POPC   C4A47274  31.435  19.104   7.364
 3629POPC   C1B47275  31.718  19.029   6.464
 3629POPC   C2B47276  31.758  19.059   6.764
 3629POPC   C3B47277  31.730  19.051   7.064
 3629POPC   C4B47278  31.686  19.023   7.364
 3630POPC   NC347279  19.012  42.364   5.564
 3630POPC   PO447280  19.073  42.378   5.864
 3630POPC   GL147281  19.096  42.322   6.164
 3630POPC   GL247282  19.160  42.387   6.164
 3630POPC   C1A47283  19.057  42.295   6.464
 3630POPC   D2A47284  19.093  42.310   6.764
 3630POPC   C3A47285  19.098  42.335   7.064
 3630POPC   C4A47286  19.062  42.350   7.364
 3630POPC   C1B47287  19.262  42.492   6.464
 3630POPC   C2B47288  19.251  42.480   6.764
 3630POPC   C3B47289  19.223  42.523   7.064
 3630POPC   C4B47290  19.238  42.509   7.364
 3631POPC   NC347291  28.404   9.780   5.564
 3631POPC   PO447292  28.395   9.705   5.864
 3631POPC   GL147293  28.368   9.780   6.164
 3631POPC   GL247294  28.267   9.640   6.164
 3631POPC   C1A47295  28.342   9.762   6.464
 3631POPC   D2A47296  28.355   9.715   6.764
 3631POPC   C3A47297  28.397   9.768   7.064
 3631POPC   C4A47298  28.380   9.721   7.364
 3631POPC   C1B47299  28.120   9.561   6.464
 3631POPC   C2B47300  28.187   9.590   6.764
 3631POPC   C3B47301  28.122   9.579   7.064
 3631POPC   C4B47302  28.126   9.604   7.364
 3632POPC   NC347303  21.393  43.935   5.564
 3632POPC   PO447304  21.415  43.853   5.864
 3632POPC   GL147305  21.423  43.855   6.164
 3632POPC   GL247306  21.527  43.925   6.164
 3632POPC   C1A47307  21.371  43.863   6.464
 3632POPC   D2A47308  21.365  43.902   6.764
 3632POPC   C3A47309  21.405  43.903   7.064
 3632POPC   C4A47310  21.425  43.870   7.364
 3632POPC   C1B47311  21.624  43.871   6.464
 3632POPC   C2B47312  21.683  43.934   6.764
 3632POPC   C3B47313  21.678  43.852   7.064
 3632POPC   C4B47314  21.658  43.842   7.364
 3633POPC   NC347315   8.149  20.659   5.564
 3633POPC   PO447316   8.147  20.602   5.864
 3633POPC   GL147317   8.198  20.629   6.164
 3633POPC   GL247318   8.141  20.682   6.164
 3633POPC   C1A47319   8.157  20.647   6.464
 3633POPC   D2A47320   8.168  20.613   6.764
 3633POPC   C3A47321   8.184  20.620   7.064
 3633POPC   C4A47322   8.210  20.561   7.364
 3633POPC   C1B47323   8.174  20.882   6.464
 3633POPC   C2B47324   8.131  20.800   6.764
 3633POPC   C3B47325   8.116  20.820   7.064
 3633POPC   C4B47326   8.140  20.849   7.364
 3634POPC   NC347327  40.734  13.630   5.564
 3634POPC   PO447328  40.744  13.580   5.864
 3634POPC   GL147329  40.755  13.666   6.164
 3634POPC   GL247330  40.714  13.709   6.164
 3634POPC   C1A47331  40.799  13.627   6.464
 3634POPC   D2A47332  40.761  13.651   6.764
 3634POPC   C3A47333  40.773  13.667   7.064
 3634POPC   C4A47334  40.797  13.608   7.364
 3634POPC   C1B47335  40.612  13.799   6.464
 3634POPC   C2B47336  40.640  13.844   6.764
 3634POPC   C3B47337  40.659  13.838   7.064
 3634POPC   C4B47338  40.648  13.847   7.364
 3635POPC   NC347339  37.688   1.968   5.564
 3635POPC   PO447340  37.707   1.940   5.864
 3635POPC   GL147341  37.639   1.954   6.164
 3635POPC   GL247342  37.757   1.942   6.164
 3635POPC   C1A47343  37.647   2.005   6.464
 3635POPC   D2A47344  37.696   1.977   6.764
 3635POPC   C3A47345  37.717   2.037   7.064
 3635POPC   C4A47346  37.638   2.016   7.364
 3635POPC   C1B47347  37.880   1.912   6.464
 3635POPC   C2B47348  37.897   1.959   6.764
 3635POPC   C3B47349  37.919   1.950   7.064
 3635POPC   C4B47350  37.907   1.940   7.364
 3636POPC   NC347351  40.783  35.350   5.564
 3636POPC   PO447352  40.826  35.360   5.864
 3636POPC   GL147353  40.742  35.356   6.164
 3636POPC   GL247354  40.695  35.432   6.164
 3636POPC   C1A47355  40.828  35.312   6.464
 3636POPC   D2A47356  40.774  35.358   6.764
 3636POPC   C3A47357  40.819  35.317   7.064
 3636POPC   C4A47358  40.745  35.330   7.364
 3636POPC   C1B47359  40.577  35.526   6.464
 3636POPC   C2B47360  40.633  35.507   6.764
 3636POPC   C3B47361  40.648  35.557   7.064
 3636POPC   C4B47362  40.601  35.552   7.364
 3637POPC   NC347363  26.785  25.282   5.564
 3637POPC   PO447364  26.784  25.252   5.864
 3637POPC   GL147365  26.796  25.255   6.164
 3637POPC   GL247366  26.662  25.246   6.164
 3637POPC   C1A47367  26.798  25.299   6.464
 3637POPC   D2A47368  26.850  25.314   6.764
 3637POPC   C3A47369  26.769  25.283   7.064
 3637POPC   C4A47370  26.867  25.233   7.364
 3637POPC   C1B47371  26.612  25.263   6.464
 3637POPC   C2B47372  26.536  25.265   6.764
 3637POPC   C3B47373  26.531  25.235   7.064
 3637POPC   C4B47374  26.579  25.288   7.364
 3638POPC   NC347375   1.958  14.387   5.564
 3638POPC   PO447376   1.999  14.382   5.864
 3638POPC   GL147377   1.962  14.404   6.164
 3638POPC   GL247378   2.084  14.406   6.164
 3638POPC   C1A47379   1.973  14.378   6.464
 3638POPC   D2A47380   2.021  14.408   6.764
 3638POPC   C3A47381   1.993  14.403   7.064
 3638POPC   C4A47382   2.022  14.377   7.364
 3638POPC   C1B47383   2.232  14.403   6.464
 3638POPC   C2B47384   2.215  14.342   6.764
 3638POPC   C3B47385   2.227  14.346   7.064
 3638POPC   C4B47386   2.234  14.403   7.364
 3639POPC   NC347387  41.566   7.383   5.564
 3639POPC   PO447388  41.559   7.420   5.864
 3639POPC   GL147389  41.606   7.470   6.164
 3639POPC   GL247390  41.486   7.545   6.164
 3639POPC   C1A47391  41.543   7.469   6.464
 3639POPC   D2A47392  41.541   7.420   6.764
 3639POPC   C3A47393  41.588   7.380   7.064
 3639POPC   C4A47394  41.521   7.399   7.364
 3639POPC   C1B47395  41.462   7.617   6.464
 3639POPC   C2B47396  41.527   7.638   6.764
 3639POPC   C3B47397  41.451   7.697   7.064
 3639POPC   C4B47398  41.459   7.654   7.364
 3640POPC   NC347399  30.699   5.121   5.564
 3640POPC   PO447400  30.719   5.052   5.864
 3640POPC   GL147401  30.747   5.104   6.164
 3640POPC   GL247402  30.584   5.227   6.164
 3640POPC   C1A47403  30.690   5.105   6.464
 3640POPC   D2A47404  30.719   5.089   6.764
 3640POPC   C3A47405  30.692   5.093   7.064
 3640POPC   C4A47406  30.664   5.097   7.364
 3640POPC   C1B47407  30.511   5.286   6.464
 3640POPC   C2B47408  30.489   5.237   6.764
 3640POPC   C3B47409  30.535   5.271   7.064
 3640POPC   C4B47410  30.482   5.263   7.364
 3641POPC   NC347411  10.545  31.424   5.564
 3641POPC   PO447412  10.568  31.432   5.864
 3641POPC   GL147413  10.475  31.458   6.164
 3641POPC   GL247414  10.378  31.506   6.164
 3641POPC   C1A47415  10.532  31.489   6.464
 3641POPC   D2A47416  10.509  31.506   6.764
 3641POPC   C3A47417  10.516  31.437   7.064
 3641POPC   C4A47418  10.479  31.439   7.364
 3641POPC   C1B47419  10.234  31.525   6.464
 3641POPC   C2B47420  10.311  31.536   6.764
 3641POPC   C3B47421  10.296  31.560   7.064
 3641POPC   C4B47422  10.323  31.538   7.364
 3642POPC   NC347423  42.371  13.662   5.564
 3642POPC   PO447424  42.304  13.619   5.864
 3642POPC   GL147425  42.290  13.677   6.164
 3642POPC   GL247426  42.453  13.556   6.164
 3642POPC   C1A47427  42.298  13.667   6.464
 3642POPC   D2A47428  42.293  13.595   6.764
 3642POPC   C3A47429  42.328  13.620   7.064
 3642POPC   C4A47430  42.379  13.640   7.364
 3642POPC   C1B47431  42.510  13.547   6.464
 3642POPC   C2B47432  42.554  13.551   6.764
 3642POPC   C3B47433  42.559  13.470   7.064
 3642POPC   C4B47434  42.549  13.495   7.364
 3643POPC   NC347435  17.495  44.707   5.564
 3643POPC   PO447436  17.476  44.654   5.864
 3643POPC   GL147437  17.543  44.635   6.164
 3643POPC   GL247438  17.409  44.644   6.164
 3643POPC   C1A47439  17.484  44.633   6.464
 3643POPC   D2A47440  17.526  44.710   6.764
 3643POPC   C3A47441  17.556  44.679   7.064
 3643POPC   C4A47442  17.524  44.645   7.364
 3643POPC   C1B47443  17.306  44.697   6.464
 3643POPC   C2B47444  17.290  44.615   6.764
 3643POPC   C3B47445  17.263  44.643   7.064
 3643POPC   C4B47446  17.229  44.694   7.364
 3644POPC   NC347447  25.304   2.736   5.564
 3644POPC   PO447448  25.244   2.751   5.864
 3644POPC   GL147449  25.227   2.731   6.164
 3644POPC   GL247450  25.335   2.622   6.164
 3644POPC   C1A47451  25.270   2.805   6.464
 3644POPC   D2A47452  25.232   2.742   6.764
 3644POPC   C3A47453  25.271   2.795   7.064
 3644POPC   C4A47454  25.254   2.809   7.364
 3644POPC   C1B47455  25.311   2.481   6.464
 3644POPC   C2B47456  25.343   2.566   6.764
 3644POPC   C3B47457  25.350   2.484   7.064
 3644POPC   C4B47458  25.317   2.548   7.364
 3645POPC   NC347459  22.117  36.170   5.564
 3645POPC   PO447460  22.135  36.123   5.864
 3645POPC   GL147461  22.164  36.165   6.164
 3645POPC   GL247462  22.003  36.119   6.164
 3645POPC   C1A47463  22.117  36.151   6.464
 3645POPC   D2A47464  22.159  36.126   6.764
 3645POPC   C3A47465  22.179  36.122   7.064
 3645POPC   C4A47466  22.165  36.141   7.364
 3645POPC   C1B47467  21.892  36.164   6.464
 3645POPC   C2B47468  21.909  36.145   6.764
 3645POPC   C3B47469  21.941  36.156   7.064
 3645POPC   C4B47470  21.947  36.162   7.364
 3646POPC   NC347471  37.653  18.269   5.564
 3646POPC   PO447472  37.647  18.268   5.864
 3646POPC   GL147473  37.652  18.330   6.164
 3646POPC   GL247474  37.560  18.356   6.164
 3646POPC   C1A47475  37.648  18.268   6.464
 3646POPC   D2A47476  37.646  18.305   6.764
 3646POPC   C3A47477  37.675  18.317   7.064
 3646POPC   C4A47478  37.692  18.254   7.364
 3646POPC   C1B47479  37.446  18.358   6.464
 3646POPC   C2B47480  37.461  18.341   6.764
 3646POPC   C3B47481  37.481  18.304   7.064
 3646POPC   C4B47482  37.458  18.303   7.364
 3647POPC   NC347483  38.477  42.338   5.564
 3647POPC   PO447484  38.434  42.382   5.864
 3647POPC   GL147485  38.418  42.342   6.164
 3647POPC   GL247486  38.521  42.241   6.164
 3647POPC   C1A47487  38.445  42.310   6.464
 3647POPC   D2A47488  38.428  42.333   6.764
 3647POPC   C3A47489  38.418  42.319   7.064
 3647POPC   C4A47490  38.499  42.365   7.364
 3647POPC   C1B47491  38.449  42.105   6.464
 3647POPC   C2B47492  38.479  42.070   6.764
 3647POPC   C3B47493  38.467  42.115   7.064
 3647POPC   C4B47494  38.439  42.087   7.364
 3648POPC   NC347495  17.547  18.249   5.564
 3648POPC   PO447496  17.507  18.273   5.864
 3648POPC   GL147497  17.521  18.237   6.164
 3648POPC   GL247498  17.434  18.196   6.164
 3648POPC   C1A47499  17.539  18.303   6.464
 3648POPC   D2A47500  17.491  18.308   6.764
 3648POPC   C3A47501  17.467  18.238   7.064
 3648POPC   C4A47502  17.459  18.248   7.364
 3648POPC   C1B47503  17.422  18.044   6.464
 3648POPC   C2B47504  17.424  18.007   6.764
 3648POPC   C3B47505  17.394  18.001   7.064
 3648POPC   C4B47506  17.416  18.051   7.364
 3649POPC   NC347507  44.664  28.332   5.564
 3649POPC   PO447508  44.614  28.350   5.864
 3649POPC   GL147509  44.618  28.362   6.164
 3649POPC   GL247510  44.582  28.248   6.164
 3649POPC   C1A47511  44.677  28.373   6.464
 3649POPC   D2A47512  44.638  28.395   6.764
 3649POPC   C3A47513  44.657  28.330   7.064
 3649POPC   C4A47514  44.643  28.336   7.364
 3649POPC   C1B47515  44.486  28.197   6.464
 3649POPC   C2B47516  44.531  28.133   6.764
 3649POPC   C3B47517  44.577  28.149   7.064
 3649POPC   C4B47518  44.563  28.156   7.364
 3650POPC   NC347519  32.206  22.889   5.564
 3650POPC   PO447520  32.220  22.945   5.864
 3650POPC   GL147521  32.203  22.923   6.164
 3650POPC   GL247522  32.396  22.837   6.164
 3650POPC   C1A47523  32.266  22.933   6.464
 3650POPC   D2A47524  32.210  22.980   6.764
 3650POPC   C3A47525  32.288  22.899   7.064
 3650POPC   C4A47526  32.205  22.904   7.364
 3650POPC   C1B47527  32.464  22.855   6.464
 3650POPC   C2B47528  32.471  22.854   6.764
 3650POPC   C3B47529  32.473  22.782   7.064
 3650POPC   C4B47530  32.473  22.867   7.364
 3651POPC   NC347531  39.240  20.631   5.564
 3651POPC   PO447532  39.232  20.654   5.864
 3651POPC   GL147533  39.232  20.655   6.164
 3651POPC   GL247534  39.301  20.701   6.164
 3651POPC   C1A47535  39.269  20.602   6.464
 3651POPC   D2A47536  39.196  20.636   6.764
 3651POPC   C3A47537  39.199  20.611   7.064
 3651POPC   C4A47538  39.268  20.632   7.364
 3651POPC   C1B47539  39.379  20.734   6.464
 3651POPC   C2B47540  39.373  20.821   6.764
 3651POPC   C3B47541  39.434  20.815   7.064
 3651POPC   C4B47542  39.445  20.819   7.364
 3652POPC   NC347543  37.637  29.111   5.564
 3652POPC   PO447544  37.672  29.181   5.864
 3652POPC   GL147545  37.714  29.167   6.164
 3652POPC   GL247546  37.751  29.272   6.164
 3652POPC   C1A47547  37.647  29.171   6.464
 3652POPC   D2A47548  37.661  29.187   6.764
 3652POPC   C3A47549  37.669  29.100   7.064
 3652POPC   C4A47550  37.690  29.108   7.364
 3652POPC   C1B47551  37.863  29.326   6.464
 3652POPC   C2B47552  37.846  29.369   6.764
 3652POPC   C3B47553  37.896  29.367   7.064
 3652POPC   C4B47554  37.867  29.337   7.364
 3653POPC   NC347555  35.308  16.690   5.564
 3653POPC   PO447556  35.363  16.705   5.864
 3653POPC   GL147557  35.343  16.768   6.164
 3653POPC   GL247558  35.392  16.611   6.164
 3653POPC   C1A47559  35.366  16.750   6.464
 3653POPC   D2A47560  35.378  16.730   6.764
 3653POPC   C3A47561  35.357  16.731   7.064
 3653POPC   C4A47562  35.375  16.684   7.364
 3653POPC   C1B47563  35.387  16.447   6.464
 3653POPC   C2B47564  35.391  16.437   6.764
 3653POPC   C3B47565  35.342  16.515   7.064
 3653POPC   C4B47566  35.330  16.460   7.364
 3654POPC   NC347567  27.545  20.574   5.564
 3654POPC   PO447568  27.558  20.635   5.864
 3654POPC   GL147569  27.622  20.574   6.164
 3654POPC   GL247570  27.715  20.614   6.164
 3654POPC   C1A47571  27.630  20.567   6.464
 3654POPC   D2A47572  27.558  20.610   6.764
 3654POPC   C3A47573  27.568  20.615   7.064
 3654POPC   C4A47574  27.621  20.630   7.364
 3654POPC   C1B47575  27.803  20.615   6.464
 3654POPC   C2B47576  27.879  20.623   6.764
 3654POPC   C3B47577  27.817  20.610   7.064
 3654POPC   C4B47578  27.809  20.585   7.364
 3655POPC   NC347579   7.447  24.506   5.564
 3655POPC   PO447580   7.386  24.512   5.864
 3655POPC   GL147581   7.465  24.470   6.164
 3655POPC   GL247582   7.276  24.556   6.164
 3655POPC   C1A47583   7.385  24.484   6.464
 3655POPC   D2A47584   7.421  24.529   6.764
 3655POPC   C3A47585   7.406  24.456   7.064
 3655POPC   C4A47586   7.424  24.492   7.364
 3655POPC   C1B47587   7.227  24.563   6.464
 3655POPC   C2B47588   7.156  24.560   6.764
 3655POPC   C3B47589   7.231  24.617   7.064
 3655POPC   C4B47590   7.194  24.599   7.364
 3656POPC   NC347591  14.399  17.545   5.564
 3656POPC   PO447592  14.428  17.516   5.864
 3656POPC   GL147593  14.362  17.529   6.164
 3656POPC   GL247594  14.433  17.399   6.164
 3656POPC   C1A47595  14.355  17.543   6.464
 3656POPC   D2A47596  14.407  17.533   6.764
 3656POPC   C3A47597  14.424  17.465   7.064
 3656POPC   C4A47598  14.393  17.505   7.364
 3656POPC   C1B47599  14.401  17.255   6.464
 3656POPC   C2B47600  14.459  17.221   6.764
 3656POPC   C3B47601  14.437  17.281   7.064
 3656POPC   C4B47602  14.422  17.257   7.364
 3657POPC   NC347603   7.406   8.177   5.564
 3657POPC   PO447604   7.402   8.205   5.864
 3657POPC   GL147605   7.463   8.156   6.164
 3657POPC   GL247606   7.452   8.042   6.164
 3657POPC   C1A47607   7.376   8.232   6.464
 3657POPC   D2A47608   7.455   8.233   6.764
 3657POPC   C3A47609   7.460   8.177   7.064
 3657POPC   C4A47610   7.420   8.211   7.364
 3657POPC   C1B47611   7.472   7.919   6.464
 3657POPC   C2B47612   7.489   7.987   6.764
 3657POPC   C3B47613   7.502   7.921   7.064
 3657POPC   C4B47614   7.504   7.935   7.364
 3658POPC   NC347615  27.635  16.721   5.564
 3658POPC   PO447616  27.637  16.701   5.864
 3658POPC   GL147617  27.626  16.766   6.164
 3658POPC   GL247618  27.720  16.665   6.164
 3658POPC   C1A47619  27.557  16.756   6.464
 3658POPC   D2A47620  27.554  16.692   6.764
 3658POPC   C3A47621  27.634  16.744   7.064
 3658POPC   C4A47622  27.592  16.716   7.364
 3658POPC   C1B47623  27.861  16.678   6.464
 3658POPC   C2B47624  27.808  16.690   6.764
 3658POPC   C3B47625  27.814  16.658   7.064
 3658POPC   C4B47626  27.793  16.641   7.364
 3659POPC   NC347627  29.923  43.090   5.564
 3659POPC   PO447628  29.888  43.094   5.864
 3659POPC   GL147629  29.955  43.109   6.164
 3659POPC   GL247630  30.033  43.180   6.164
 3659POPC   C1A47631  29.874  43.086   6.464
 3659POPC   D2A47632  29.956  43.082   6.764
 3659POPC   C3A47633  29.953  43.145   7.064
 3659POPC   C4A47634  29.906  43.085   7.364
 3659POPC   C1B47635  30.112  43.303   6.464
 3659POPC   C2B47636  30.077  43.320   6.764
 3659POPC   C3B47637  30.103  43.320   7.064
 3659POPC   C4B47638  30.149  43.234   7.364
 3660POPC   NC347639  33.830  31.503   5.564
 3660POPC   PO447640  33.840  31.515   5.864
 3660POPC   GL147641  33.777  31.455   6.164
 3660POPC   GL247642  33.689  31.353   6.164
 3660POPC   C1A47643  33.796  31.457   6.464
 3660POPC   D2A47644  33.814  31.439   6.764
 3660POPC   C3A47645  33.807  31.423   7.064
 3660POPC   C4A47646  33.767  31.464   7.364
 3660POPC   C1B47647  33.693  31.222   6.464
 3660POPC   C2B47648  33.686  31.273   6.764
 3660POPC   C3B47649  33.645  31.269   7.064
 3660POPC   C4B47650  33.629  31.222   7.364
 3661POPC   NC347651  22.180  43.100   5.564
 3661POPC   PO447652  22.159  43.132   5.864
 3661POPC   GL147653  22.150  43.118   6.164
 3661POPC   GL247654  22.235  43.097   6.164
 3661POPC   C1A47655  22.155  43.154   6.464
 3661POPC   D2A47656  22.126  43.113   6.764
 3661POPC   C3A47657  22.120  43.124   7.064
 3661POPC   C4A47658  22.137  43.124   7.364
 3661POPC   C1B47659  22.452  43.129   6.464
 3661POPC   C2B47660  22.368  43.145   6.764
 3661POPC   C3B47661  22.373  43.128   7.064
 3661POPC   C4B47662  22.399  43.189   7.364
 3662POPC   NC347663  26.066   5.088   5.564
 3662POPC   PO447664  26.046   5.068   5.864
 3662POPC   GL147665  26.083   5.143   6.164
 3662POPC   GL247666  25.931   4.979   6.164
 3662POPC   C1A47667  26.013   5.097   6.464
 3662POPC   D2A47668  25.994   5.137   6.764
 3662POPC   C3A47669  25.999   5.104   7.064
 3662POPC   C4A47670  26.078   5.125   7.364
 3662POPC   C1B47671  25.960   4.917   6.464
 3662POPC   C2B47672  25.885   4.834   6.764
 3662POPC   C3B47673  25.947   4.877   7.064
 3662POPC   C4B47674  25.889   4.904   7.364
 3663POPC   NC347675  12.892  31.432   5.564
 3663POPC   PO447676  12.859  31.507   5.864
 3663POPC   GL147677  12.813  31.476   6.164
 3663POPC   GL247678  12.838  31.578   6.164
 3663POPC   C1A47679  12.819  31.433   6.464
 3663POPC   D2A47680  12.816  31.456   6.764
 3663POPC   C3A47681  12.865  31.498   7.064
 3663POPC   C4A47682  12.879  31.434   7.364
 3663POPC   C1B47683  12.907  31.740   6.464
 3663POPC   C2B47684  12.875  31.752   6.764
 3663POPC   C3B47685  12.942  31.694   7.064
 3663POPC   C4B47686  12.955  31.716   7.364
 3664POPC   NC347687  15.221   0.434   5.564
 3664POPC   PO447688  15.189   0.467   5.864
 3664POPC   GL147689  15.204   0.474   6.164
 3664POPC   GL247690  15.317   0.396   6.164
 3664POPC   C1A47691  15.184   0.486   6.464
 3664POPC   D2A47692  15.193   0.462   6.764
 3664POPC   C3A47693  15.203   0.412   7.064
 3664POPC   C4A47694  15.166   0.432   7.364
 3664POPC   C1B47695  15.407   0.349   6.464
 3664POPC   C2B47696  15.412   0.274   6.764
 3664POPC   C3B47697  15.370   0.277   7.064
 3664POPC   C4B47698  15.413   0.293   7.364
 3665POPC   NC347699  19.048  36.172   5.564
 3665POPC   PO447700  19.093  36.105   5.864
 3665POPC   GL147701  19.017  36.109   6.164
 3665POPC   GL247702  18.919  36.071   6.164
 3665POPC   C1A47703  19.052  36.175   6.464
 3665POPC   D2A47704  19.062  36.112   6.764
 3665POPC   C3A47705  19.055  36.176   7.064
 3665POPC   C4A47706  19.056  36.127   7.364
 3665POPC   C1B47707  18.819  36.129   6.464
 3665POPC   C2B47708  18.806  36.044   6.764
 3665POPC   C3B47709  18.838  36.121   7.064
 3665POPC   C4B47710  18.815  36.105   7.364
 3666POPC   NC347711   2.810  32.274   5.564
 3666POPC   PO447712   2.729  32.216   5.864
 3666POPC   GL147713   2.749  32.237   6.164
 3666POPC   GL247714   2.671  32.259   6.164
 3666POPC   C1A47715   2.764  32.203   6.464
 3666POPC   D2A47716   2.811  32.218   6.764
 3666POPC   C3A47717   2.730  32.210   7.064
 3666POPC   C4A47718   2.721  32.267   7.364
 3666POPC   C1B47719   2.572  32.327   6.464
 3666POPC   C2B47720   2.509  32.390   6.764
 3666POPC   C3B47721   2.534  32.370   7.064
 3666POPC   C4B47722   2.565  32.377   7.364
 3667POPC   NC347723  29.124  19.098   5.564
 3667POPC   PO447724  29.103  19.034   5.864
 3667POPC   GL147725  29.135  19.090   6.164
 3667POPC   GL247726  29.256  19.082   6.164
 3667POPC   C1A47727  29.135  19.059   6.464
 3667POPC   D2A47728  29.189  19.065   6.764
 3667POPC   C3A47729  29.150  19.097   7.064
 3667POPC   C4A47730  29.173  19.045   7.364
 3667POPC   C1B47731  29.422  19.043   6.464
 3667POPC   C2B47732  29.367  18.999   6.764
 3667POPC   C3B47733  29.426  19.032   7.064
 3667POPC   C4B47734  29.438  19.040   7.364
 3668POPC   NC347735   4.297  39.203   5.564
 3668POPC   PO447736   4.303  39.202   5.864
 3668POPC   GL147737   4.288  39.204   6.164
 3668POPC   GL247738   4.155  39.260   6.164
 3668POPC   C1A47739   4.340  39.197   6.464
 3668POPC   D2A47740   4.289  39.250   6.764
 3668POPC   C3A47741   4.360  39.271   7.064
 3668POPC   C4A47742   4.351  39.242   7.364
 3668POPC   C1B47743   4.117  39.202   6.464
 3668POPC   C2B47744   4.083  39.233   6.764
 3668POPC   C3B47745   4.076  39.253   7.064
 3668POPC   C4B47746   4.084  39.260   7.364
 3669POPC   NC347747   3.545  38.485   5.564
 3669POPC   PO447748   3.529  38.454   5.864
 3669POPC   GL147749   3.579  38.424   6.164
 3669POPC   GL247750   3.714  38.510   6.164
 3669POPC   C1A47751   3.587  38.454   6.464
 3669POPC   D2A47752   3.530  38.462   6.764
 3669POPC   C3A47753   3.577  38.492   7.064
 3669POPC   C4A47754   3.590  38.454   7.364
 3669POPC   C1B47755   3.771  38.526   6.464
 3669POPC   C2B47756   3.781  38.449   6.764
 3669POPC   C3B47757   3.747  38.523   7.064
 3669POPC   C4B47758   3.777  38.488   7.364
 3670POPC   NC347759   9.785  24.478   5.564
 3670POPC   PO447760   9.742  24.500   5.864
 3670POPC   GL147761   9.715  24.478   6.164
 3670POPC   GL247762   9.682  24.570   6.164
 3670POPC   C1A47763   9.713  24.452   6.464
 3670POPC   D2A47764   9.747  24.460   6.764
 3670POPC   C3A47765   9.725  24.459   7.064
 3670POPC   C4A47766   9.734  24.453   7.364
 3670POPC   C1B47767   9.623  24.685   6.464
 3670POPC   C2B47768   9.713  24.698   6.764
 3670POPC   C3B47769   9.706  24.705   7.064
 3670POPC   C4B47770   9.632  24.718   7.364
 3671POPC   NC347771   8.198  29.946   5.564
 3671POPC   PO447772   8.154  29.896   5.864
 3671POPC   GL147773   8.218  29.897   6.164
 3671POPC   GL247774   8.028  29.952   6.164
 3671POPC   C1A47775   8.160  29.934   6.464
 3671POPC   D2A47776   8.183  29.921   6.764
 3671POPC   C3A47777   8.222  29.879   7.064
 3671POPC   C4A47778   8.238  29.905   7.364
 3671POPC   C1B47779   7.912  29.953   6.464
 3671POPC   C2B47780   7.954  29.997   6.764
 3671POPC   C3B47781   8.003  29.973   7.064
 3671POPC   C4B47782   7.941  30.005   7.364
 3672POPC   NC347783  21.409  13.659   5.564
 3672POPC   PO447784  21.416  13.646   5.864
 3672POPC   GL147785  21.368  13.671   6.164
 3672POPC   GL247786  21.560  13.648   6.164
 3672POPC   C1A47787  21.361  13.676   6.464
 3672POPC   D2A47788  21.389  13.656   6.764
 3672POPC   C3A47789  21.401  13.670   7.064
 3672POPC   C4A47790  21.339  13.581   7.364
 3672POPC   C1B47791  21.617  13.630   6.464
 3672POPC   C2B47792  21.637  13.630   6.764
 3672POPC   C3B47793  21.617  13.630   7.064
 3672POPC   C4B47794  21.595  13.650   7.364
 3673POPC   NC347795  30.736  24.522   5.564
 3673POPC   PO447796  30.669  24.466   5.864
 3673POPC   GL147797  30.671  24.459   6.164
 3673POPC   GL247798  30.539  24.562   6.164
 3673POPC   C1A47799  30.741  24.491   6.464
 3673POPC   D2A47800  30.722  24.526   6.764
 3673POPC   C3A47801  30.655  24.531   7.064
 3673POPC   C4A47802  30.701  24.461   7.364
 3673POPC   C1B47803  30.477  24.645   6.464
 3673POPC   C2B47804  30.430  24.563   6.764
 3673POPC   C3B47805  30.510  24.579   7.064
 3673POPC   C4B47806  30.484  24.636   7.364
 3674POPC   NC347807  41.601  19.072   5.564
 3674POPC   PO447808  41.587  19.104   5.864
 3674POPC   GL147809  41.544  19.067   6.164
 3674POPC   GL247810  41.512  19.162   6.164
 3674POPC   C1A47811  41.515  19.055   6.464
 3674POPC   D2A47812  41.513  19.050   6.764
 3674POPC   C3A47813  41.515  19.100   7.064
 3674POPC   C4A47814  41.553  19.094   7.364
 3674POPC   C1B47815  41.506  19.256   6.464
 3674POPC   C2B47816  41.437  19.318   6.764
 3674POPC   C3B47817  41.468  19.298   7.064
 3674POPC   C4B47818  41.418  19.259   7.364
 3675POPC   NC347819   1.246  37.652   5.564
 3675POPC   PO447820   1.175  37.647   5.864
 3675POPC   GL147821   1.194  37.643   6.164
 3675POPC   GL247822   1.183  37.587   6.164
 3675POPC   C1A47823   1.219  37.677   6.464
 3675POPC   D2A47824   1.226  37.644   6.764
 3675POPC   C3A47825   1.254  37.674   7.064
 3675POPC   C4A47826   1.242  37.687   7.364
 3675POPC   C1B47827   1.165  37.457   6.464
 3675POPC   C2B47828   1.182  37.405   6.764
 3675POPC   C3B47829   1.155  37.440   7.064
 3675POPC   C4B47830   1.231  37.428   7.364
 3676POPC   NC347831  12.804  15.195   5.564
 3676POPC   PO447832  12.829  15.192   5.864
 3676POPC   GL147833  12.876  15.203   6.164
 3676POPC   GL247834  12.926  15.092   6.164
 3676POPC   C1A47835  12.879  15.207   6.464
 3676POPC   D2A47836  12.877  15.221   6.764
 3676POPC   C3A47837  12.820  15.166   7.064
 3676POPC   C4A47838  12.813  15.198   7.364
 3676POPC   C1B47839  12.918  14.911   6.464
 3676POPC   C2B47840  12.884  14.910   6.764
 3676POPC   C3B47841  12.940  14.914   7.064
 3676POPC   C4B47842  12.912  14.917   7.364
 3677POPC   NC347843   5.139  32.251   5.564
 3677POPC   PO447844   5.106  32.223   5.864
 3677POPC   GL147845   5.082  32.238   6.164
 3677POPC   GL247846   4.994  32.395   6.164
 3677POPC   C1A47847   5.079  32.260   6.464
 3677POPC   D2A47848   5.085  32.258   6.764
 3677POPC   C3A47849   5.143  32.292   7.064
 3677POPC   C4A47850   5.063  32.259   7.364
 3677POPC   C1B47851   4.923  32.413   6.464
 3677POPC   C2B47852   4.911  32.474   6.764
 3677POPC   C3B47853   4.911  32.492   7.064
 3677POPC   C4B47854   4.964  32.478   7.364
 3678POPC   NC347855  14.418  16.735   5.564
 3678POPC   PO447856  14.446  16.713   5.864
 3678POPC   GL147857  14.403  16.694   6.164
 3678POPC   GL247858  14.317  16.742   6.164
 3678POPC   C1A47859  14.355  16.714   6.464
 3678POPC   D2A47860  14.382  16.735   6.764
 3678POPC   C3A47861  14.387  16.730   7.064
 3678POPC   C4A47862  14.452  16.697   7.364
 3678POPC   C1B47863  14.187  16.788   6.464
 3678POPC   C2B47864  14.111  16.753   6.764
 3678POPC   C3B47865  14.155  16.815   7.064
 3678POPC   C4B47866  14.192  16.809   7.364
 3679POPC   NC347867  10.572  24.458   5.564
 3679POPC   PO447868  10.542  24.510   5.864
 3679POPC   GL147869  10.513  24.497   6.164
 3679POPC   GL247870  10.627  24.496   6.164
 3679POPC   C1A47871  10.478  24.443   6.464
 3679POPC   D2A47872  10.496  24.501   6.764
 3679POPC   C3A47873  10.574  24.455   7.064
 3679POPC   C4A47874  10.507  24.451   7.364
 3679POPC   C1B47875  10.706  24.610   6.464
 3679POPC   C2B47876  10.759  24.631   6.764
 3679POPC   C3B47877  10.725  24.579   7.064
 3679POPC   C4B47878  10.702  24.623   7.364
 3680POPC   NC347879   1.217  19.861   5.564
 3680POPC   PO447880   1.226  19.842   5.864
 3680POPC   GL147881   1.259  19.878   6.164
 3680POPC   GL247882   1.122  19.914   6.164
 3680POPC   C1A47883   1.244  19.796   6.464
 3680POPC   D2A47884   1.190  19.814   6.764
 3680POPC   C3A47885   1.195  19.864   7.064
 3680POPC   C4A47886   1.180  19.877   7.364
 3680POPC   C1B47887   0.995  19.992   6.464
 3680POPC   C2B47888   0.993  19.954   6.764
 3680POPC   C3B47889   1.008  19.957   7.064
 3680POPC   C4B47890   0.997  20.038   7.364
 3681POPC   NC347891  34.597  15.909   5.564
 3681POPC   PO447892  34.590  15.997   5.864
 3681POPC   GL147893  34.568  15.917   6.164
 3681POPC   GL247894  34.608  15.815   6.164
 3681POPC   C1A47895  34.580  15.989   6.464
 3681POPC   D2A47896  34.610  15.926   6.764
 3681POPC   C3A47897  34.540  15.970   7.064
 3681POPC   C4A47898  34.544  15.966   7.364
 3681POPC   C1B47899  34.527  15.701   6.464
 3681POPC   C2B47900  34.545  15.665   6.764
 3681POPC   C3B47901  34.525  15.661   7.064
 3681POPC   C4B47902  34.528  15.681   7.364
 3682POPC   NC347903  26.013   2.744   5.564
 3682POPC   PO447904  26.009   2.770   5.864
 3682POPC   GL147905  26.088   2.742   6.164
 3682POPC   GL247906  26.117   2.792   6.164
 3682POPC   C1A47907  26.056   2.753   6.464
 3682POPC   D2A47908  25.998   2.805   6.764
 3682POPC   C3A47909  26.026   2.783   7.064
 3682POPC   C4A47910  26.021   2.755   7.364
 3682POPC   C1B47911  26.316   2.767   6.464
 3682POPC   C2B47912  26.317   2.717   6.764
 3682POPC   C3B47913  26.330   2.710   7.064
 3682POPC   C4B47914  26.289   2.699   7.364
 3683POPC   NC347915  37.670  33.800   5.564
 3683POPC   PO447916  37.706  33.830   5.864
 3683POPC   GL147917  37.656  33.821   6.164
 3683POPC   GL247918  37.846  33.856   6.164
 3683POPC   C1A47919  37.668  33.751   6.464
 3683POPC   D2A47920  37.631  33.816   6.764
 3683POPC   C3A47921  37.672  33.834   7.064
 3683POPC   C4A47922  37.701  33.836   7.364
 3683POPC   C1B47923  37.939  33.778   6.464
 3683POPC   C2B47924  37.888  33.857   6.764
 3683POPC   C3B47925  37.935  33.811   7.064
 3683POPC   C4B47926  37.958  33.862   7.364
 3684POPC   NC347927   7.394  38.481   5.564
 3684POPC   PO447928   7.458  38.457   5.864
 3684POPC   GL147929   7.385  38.410   6.164
 3684POPC   GL247930   7.430  38.615   6.164
 3684POPC   C1A47931   7.402  38.433   6.464
 3684POPC   D2A47932   7.463  38.459   6.764
 3684POPC   C3A47933   7.437  38.485   7.064
 3684POPC   C4A47934   7.393  38.498   7.364
 3684POPC   C1B47935   7.475  38.733   6.464
 3684POPC   C2B47936   7.515  38.642   6.764
 3684POPC   C3B47937   7.520  38.654   7.064
 3684POPC   C4B47938   7.562  38.707   7.364
 3685POPC   NC347939   2.011  38.472   5.564
 3685POPC   PO447940   2.003  38.441   5.864
 3685POPC   GL147941   2.035  38.421   6.164
 3685POPC   GL247942   2.096  38.370   6.164
 3685POPC   C1A47943   2.038  38.499   6.464
 3685POPC   D2A47944   2.013  38.465   6.764
 3685POPC   C3A47945   2.002  38.505   7.064
 3685POPC   C4A47946   1.996  38.502   7.364
 3685POPC   C1B47947   2.146  38.336   6.464
 3685POPC   C2B47948   2.219  38.253   6.764
 3685POPC   C3B47949   2.195  38.270   7.064
 3685POPC   C4B47950   2.186  38.281   7.364
 3686POPC   NC347951  19.056  41.514   5.564
 3686POPC   PO447952  19.060  41.589   5.864
 3686POPC   GL147953  19.052  41.525   6.164
 3686POPC   GL247954  19.117  41.642   6.164
 3686POPC   C1A47955  19.050  41.607   6.464
 3686POPC   D2A47956  19.078  41.560   6.764
 3686POPC   C3A47957  19.082  41.524   7.064
 3686POPC   C4A47958  19.069  41.594   7.364
 3686POPC   C1B47959  19.154  41.743   6.464
 3686POPC   C2B47960  19.132  41.823   6.764
 3686POPC   C3B47961  19.183  41.779   7.064
 3686POPC   C4B47962  19.146  41.805   7.364
 3687POPC   NC347963  40.813  12.890   5.564
 3687POPC   PO447964  40.747  12.857   5.864
 3687POPC   GL147965  40.760  12.853   6.164
 3687POPC   GL247966  40.880  12.782   6.164
 3687POPC   C1A47967  40.762  12.889   6.464
 3687POPC   D2A47968  40.832  12.890   6.764
 3687POPC   C3A47969  40.766  12.900   7.064
 3687POPC   C4A47970  40.801  12.901   7.364
 3687POPC   C1B47971  40.876  12.664   6.464
 3687POPC   C2B47972  40.877  12.661   6.764
 3687POPC   C3B47973  40.876  12.627   7.064
 3687POPC   C4B47974  40.926  12.667   7.364
 3688POPC   NC347975   5.834  29.189   5.564
 3688POPC   PO447976   5.863  29.096   5.864
 3688POPC   GL147977   5.843  29.152   6.164
 3688POPC   GL247978   5.853  29.287   6.164
 3688POPC   C1A47979   5.845  29.139   6.464
 3688POPC   D2A47980   5.919  29.187   6.764
 3688POPC   C3A47981   5.851  29.143   7.064
 3688POPC   C4A47982   5.904  29.134   7.364
 3688POPC   C1B47983   5.903  29.380   6.464
 3688POPC   C2B47984   5.859  29.387   6.764
 3688POPC   C3B47985   5.853  29.365   7.064
 3688POPC   C4B47986   5.860  29.425   7.364
 3689POPC   NC347987  33.825  22.960   5.564
 3689POPC   PO447988  33.792  22.921   5.864
 3689POPC   GL147989  33.794  22.928   6.164
 3689POPC   GL247990  33.667  23.042   6.164
 3689POPC   C1A47991  33.759  22.900   6.464
 3689POPC   D2A47992  33.805  22.967   6.764
 3689POPC   C3A47993  33.786  22.889   7.064
 3689POPC   C4A47994  33.755  22.900   7.364
 3689POPC   C1B47995  33.637  23.135   6.464
 3689POPC   C2B47996  33.573  23.143   6.764
 3689POPC   C3B47997  33.595  23.086   7.064
 3689POPC   C4B47998  33.626  23.101   7.364
 3690POPC   NC347999  17.527  35.363   5.564
 3690POPC   PO448000  17.506  35.372   5.864
 3690POPC   GL148001  17.496  35.392   6.164
 3690POPC   GL248002  17.620  35.422   6.164
 3690POPC   C1A48003  17.460  35.311   6.464
 3690POPC   D2A48004  17.543  35.312   6.764
 3690POPC   C3A48005  17.491  35.358   7.064
 3690POPC   C4A48006  17.538  35.352   7.364
 3690POPC   C1B48007  17.656  35.521   6.464
 3690POPC   C2B48008  17.675  35.588   6.764
 3690POPC   C3B48009  17.627  35.588   7.064
 3690POPC   C4B48010  17.692  35.492   7.364
 3691POPC   NC348011  43.869   6.650   5.564
 3691POPC   PO448012  43.904   6.644   5.864
 3691POPC   GL148013  43.876   6.674   6.164
 3691POPC   GL248014  43.872   6.765   6.164
 3691POPC   C1A48015  43.870   6.669   6.464
 3691POPC   D2A48016  43.931   6.690   6.764
 3691POPC   C3A48017  43.838   6.677   7.064
 3691POPC   C4A48018  43.912   6.634   7.364
 3691POPC   C1B48019  43.912   6.866   6.464
 3691POPC   C2B48020  43.921   6.909   6.764
 3691POPC   C3B48021  43.862   6.926   7.064
 3691POPC   C4B48022  43.850   6.922   7.364
 3692POPC   NC348023   6.618   1.222   5.564
 3692POPC   PO448024   6.653   1.240   5.864
 3692POPC   GL148025   6.605   1.217   6.164
 3692POPC   GL248026   6.716   1.306   6.164
 3692POPC   C1A48027   6.690   1.188   6.464
 3692POPC   D2A48028   6.620   1.166   6.764
 3692POPC   C3A48029   6.682   1.200   7.064
 3692POPC   C4A48030   6.636   1.263   7.364
 3692POPC   C1B48031   6.764   1.435   6.464
 3692POPC   C2B48032   6.764   1.472   6.764
 3692POPC   C3B48033   6.711   1.482   7.064
 3692POPC   C4B48034   6.784   1.481   7.364
 3693POPC   NC348035  17.480   7.440   5.564
 3693POPC   PO448036  17.501   7.434   5.864
 3693POPC   GL148037  17.527   7.456   6.164
 3693POPC   GL248038  17.438   7.338   6.164
 3693POPC   C1A48039  17.488   7.454   6.464
 3693POPC   D2A48040  17.459   7.379   6.764
 3693POPC   C3A48041  17.534   7.406   7.064
 3693POPC   C4A48042  17.464   7.412   7.364
 3693POPC   C1B48043  17.285   7.269   6.464
 3693POPC   C2B48044  17.370   7.284   6.764
 3693POPC   C3B48045  17.337   7.244   7.064
 3693POPC   C4B48046  17.361   7.240   7.364
 3694POPC   NC348047  10.567  25.273   5.564
 3694POPC   PO448048  10.571  25.230   5.864
 3694POPC   GL148049  10.565  25.250   6.164
 3694POPC   GL248050  10.580  25.186   6.164
 3694POPC   C1A48051  10.476  25.253   6.464
 3694POPC   D2A48052  10.529  25.285   6.764
 3694POPC   C3A48053  10.508  25.297   7.064
 3694POPC   C4A48054  10.541  25.282   7.364
 3694POPC   C1B48055  10.568  25.038   6.464
 3694POPC   C2B48056  10.578  25.055   6.764
 3694POPC   C3B48057  10.570  25.011   7.064
 3694POPC   C4B48058  10.539  25.012   7.364
 3695POPC   NC348059  36.095  24.501   5.564
 3695POPC   PO448060  36.131  24.489   5.864
 3695POPC   GL148061  36.135  24.502   6.164
 3695POPC   GL248062  36.278  24.502   6.164
 3695POPC   C1A48063  36.107  24.512   6.464
 3695POPC   D2A48064  36.116  24.481   6.764
 3695POPC   C3A48065  36.107  24.461   7.064
 3695POPC   C4A48066  36.114  24.492   7.364
 3695POPC   C1B48067  36.367  24.414   6.464
 3695POPC   C2B48068  36.377  24.406   6.764
 3695POPC   C3B48069  36.370  24.408   7.064
 3695POPC   C4B48070  36.362  24.480   7.364
 3696POPC   NC348071  28.391  33.830   5.564
 3696POPC   PO448072  28.325  33.846   5.864
 3696POPC   GL148073  28.405  33.765   6.164
 3696POPC   GL248074  28.399  33.659   6.164
 3696POPC   C1A48075  28.415  33.763   6.464
 3696POPC   D2A48076  28.360  33.795   6.764
 3696POPC   C3A48077  28.368  33.814   7.064
 3696POPC   C4A48078  28.392  33.779   7.364
 3696POPC   C1B48079  28.441  33.590   6.464
 3696POPC   C2B48080  28.441  33.515   6.764
 3696POPC   C3B48081  28.465  33.573   7.064
 3696POPC   C4B48082  28.445  33.589   7.364
 3697POPC   NC348083  12.034   5.120   5.564
 3697POPC   PO448084  12.053   5.104   5.864
 3697POPC   GL148085  12.092   5.047   6.164
 3697POPC   GL248086  12.028   5.157   6.164
 3697POPC   C1A48087  12.076   5.092   6.464
 3697POPC   D2A48088  12.101   5.138   6.764
 3697POPC   C3A48089  12.091   5.122   7.064
 3697POPC   C4A48090  12.125   5.088   7.364
 3697POPC   C1B48091  11.934   5.314   6.464
 3697POPC   C2B48092  11.957   5.271   6.764
 3697POPC   C3B48093  11.894   5.278   7.064
 3697POPC   C4B48094  11.878   5.237   7.364
 3698POPC   NC348095  26.024  33.833   5.564
 3698POPC   PO448096  26.029  33.830   5.864
 3698POPC   GL148097  26.038  33.757   6.164
 3698POPC   GL248098  25.908  33.772   6.164
 3698POPC   C1A48099  26.014  33.819   6.464
 3698POPC   D2A48100  26.056  33.764   6.764
 3698POPC   C3A48101  26.074  33.812   7.064
 3698POPC   C4A48102  26.061  33.773   7.364
 3698POPC   C1B48103  25.813  33.792   6.464
 3698POPC   C2B48104  25.742  33.749   6.764
 3698POPC   C3B48105  25.807  33.754   7.064
 3698POPC   C4B48106  25.825  33.804   7.364
 3699POPC   NC348107   8.965   5.871   5.564
 3699POPC   PO448108   9.014   5.913   5.864
 3699POPC   GL148109   8.948   5.873   6.164
 3699POPC   GL248110   9.006   5.968   6.164
 3699POPC   C1A48111   8.943   5.830   6.464
 3699POPC   D2A48112   8.950   5.873   6.764
 3699POPC   C3A48113   8.986   5.915   7.064
 3699POPC   C4A48114   8.981   5.872   7.364
 3699POPC   C1B48115   9.109   6.132   6.464
 3699POPC   C2B48116   9.097   6.086   6.764
 3699POPC   C3B48117   9.051   6.118   7.064
 3699POPC   C4B48118   9.064   6.135   7.364
 3700POPC   NC348119  34.610  29.099   5.564
 3700POPC   PO448120  34.559  29.143   5.864
 3700POPC   GL148121  34.619  29.131   6.164
 3700POPC   GL248122  34.679  29.095   6.164
 3700POPC   C1A48123  34.618  29.122   6.464
 3700POPC   D2A48124  34.537  29.147   6.764
 3700POPC   C3A48125  34.582  29.159   7.064
 3700POPC   C4A48126  34.605  29.110   7.364
 3700POPC   C1B48127  34.869  29.140   6.464
 3700POPC   C2B48128  34.850  29.086   6.764
 3700POPC   C3B48129  34.827  29.073   7.064
 3700POPC   C4B48130  34.782  29.140   7.364
 3701POPC   NC348131  26.060  18.252   5.564
 3701POPC   PO448132  25.994  18.289   5.864
 3701POPC   GL148133  26.082  18.270   6.164
 3701POPC   GL248134  25.922  18.142   6.164
 3701POPC   C1A48135  26.087  18.299   6.464
 3701POPC   D2A48136  26.071  18.268   6.764
 3701POPC   C3A48137  26.011  18.297   7.064
 3701POPC   C4A48138  26.032  18.249   7.364
 3701POPC   C1B48139  25.947  18.114   6.464
 3701POPC   C2B48140  25.866  18.081   6.764
 3701POPC   C3B48141  25.914  18.080   7.064
 3701POPC   C4B48142  25.906  18.124   7.364
 3702POPC   NC348143   0.404  13.629   5.564
 3702POPC   PO448144   0.408  13.589   5.864
 3702POPC   GL148145   0.422  13.613   6.164
 3702POPC   GL248146   0.313  13.719   6.164
 3702POPC   C1A48147   0.391  13.673   6.464
 3702POPC   D2A48148   0.457  13.653   6.764
 3702POPC   C3A48149   0.412  13.622   7.064
 3702POPC   C4A48150   0.420  13.609   7.364
 3702POPC   C1B48151   0.260  13.760   6.464
 3702POPC   C2B48152   0.254  13.800   6.764
 3702POPC   C3B48153   0.271  13.800   7.064
 3702POPC   C4B48154   0.195  13.820   7.364
 3703POPC   NC348155  37.665  38.462   5.564
 3703POPC   PO448156  37.653  38.475   5.864
 3703POPC   GL148157  37.667  38.479   6.164
 3703POPC   GL248158  37.733  38.525   6.164
 3703POPC   C1A48159  37.695  38.440   6.464
 3703POPC   D2A48160  37.667  38.464   6.764
 3703POPC   C3A48161  37.691  38.486   7.064
 3703POPC   C4A48162  37.659  38.460   7.364
 3703POPC   C1B48163  37.782  38.644   6.464
 3703POPC   C2B48164  37.766  38.698   6.764
 3703POPC   C3B48165  37.753  38.726   7.064
 3703POPC   C4B48166  37.838  38.676   7.364
 3704POPC   NC348167  20.566  35.397   5.564
 3704POPC   PO448168  20.652  35.360   5.864
 3704POPC   GL148169  20.640  35.345   6.164
 3704POPC   GL248170  20.477  35.315   6.164
 3704POPC   C1A48171  20.588  35.401   6.464
 3704POPC   D2A48172  20.643  35.395   6.764
 3704POPC   C3A48173  20.625  35.322   7.064
 3704POPC   C4A48174  20.641  35.398   7.364
 3704POPC   C1B48175  20.357  35.310   6.464
 3704POPC   C2B48176  20.348  35.337   6.764
 3704POPC   C3B48177  20.326  35.315   7.064
 3704POPC   C4B48178  20.373  35.341   7.364
 3705POPC   NC348179  19.077  40.785   5.564
 3705POPC   PO448180  19.090  40.781   5.864
 3705POPC   GL148181  19.051  40.772   6.164
 3705POPC   GL248182  18.984  40.868   6.164
 3705POPC   C1A48183  19.011  40.740   6.464
 3705POPC   D2A48184  19.064  40.746   6.764
 3705POPC   C3A48185  19.060  40.737   7.064
 3705POPC   C4A48186  19.063  40.807   7.364
 3705POPC   C1B48187  18.796  40.850   6.464
 3705POPC   C2B48188  18.865  40.864   6.764
 3705POPC   C3B48189  18.809  40.858   7.064
 3705POPC   C4B48190  18.800  40.898   7.364
 3706POPC   NC348191  18.293  40.822   5.564
 3706POPC   PO448192  18.259  40.788   5.864
 3706POPC   GL148193  18.283  40.785   6.164
 3706POPC   GL248194  18.217  40.662   6.164
 3706POPC   C1A48195  18.267  40.765   6.464
 3706POPC   D2A48196  18.283  40.802   6.764
 3706POPC   C3A48197  18.317  40.758   7.064
 3706POPC   C4A48198  18.290  40.755   7.364
 3706POPC   C1B48199  18.173  40.611   6.464
 3706POPC   C2B48200  18.116  40.581   6.764
 3706POPC   C3B48201  18.165  40.566   7.064
 3706POPC   C4B48202  18.201  40.528   7.364
 3707POPC   NC348203  39.211  43.851   5.564
 3707POPC   PO448204  39.195  43.856   5.864
 3707POPC   GL148205  39.194  43.886   6.164
 3707POPC   GL248206  39.105  43.895   6.164
 3707POPC   C1A48207  39.244  43.918   6.464
 3707POPC   D2A48208  39.189  43.846   6.764
 3707POPC   C3A48209  39.202  43.932   7.064
 3707POPC   C4A48210  39.267  43.925   7.364
 3707POPC   C1B48211  38.981  43.862   6.464
 3707POPC   C2B48212  39.026  43.810   6.764
 3707POPC   C3B48213  38.958  43.821   7.064
 3707POPC   C4B48214  38.986  43.868   7.364
 3708POPC   NC348215  22.964  36.919   5.564
 3708POPC   PO448216  22.958  36.881   5.864
 3708POPC   GL148217  22.957  36.887   6.164
 3708POPC   GL248218  22.914  36.738   6.164
 3708POPC   C1A48219  22.913  36.857   6.464
 3708POPC   D2A48220  22.916  36.901   6.764
 3708POPC   C3A48221  22.956  36.895   7.064
 3708POPC   C4A48222  22.901  36.865   7.364
 3708POPC   C1B48223  22.990  36.633   6.464
 3708POPC   C2B48224  23.021  36.622   6.764
 3708POPC   C3B48225  22.977  36.638   7.064
 3708POPC   C4B48226  22.993  36.665   7.364
 3709POPC   NC348227  39.993   2.788   5.564
 3709POPC   PO448228  40.010   2.767   5.864
 3709POPC   GL148229  39.971   2.765   6.164
 3709POPC   GL248230  39.989   2.691   6.164
 3709POPC   C1A48231  40.046   2.762   6.464
 3709POPC   D2A48232  40.044   2.787   6.764
 3709POPC   C3A48233  39.979   2.728   7.064
 3709POPC   C4A48234  40.023   2.725   7.364
 3709POPC   C1B48235  39.925   2.588   6.464
 3709POPC   C2B48236  39.873   2.552   6.764
 3709POPC   C3B48237  39.917   2.552   7.064
 3709POPC   C4B48238  39.918   2.539   7.364
 3710POPC   NC348239  40.774   2.789   5.564
 3710POPC   PO448240  40.753   2.797   5.864
 3710POPC   GL148241  40.816   2.810   6.164
 3710POPC   GL248242  40.918   2.711   6.164
 3710POPC   C1A48243  40.791   2.752   6.464
 3710POPC   D2A48244  40.749   2.752   6.764
 3710POPC   C3A48245  40.776   2.793   7.064
 3710POPC   C4A48246  40.763   2.723   7.364
 3710POPC   C1B48247  41.026   2.769   6.464
 3710POPC   C2B48248  41.066   2.752   6.764
 3710POPC   C3B48249  41.058   2.773   7.064
 3710POPC   C4B48250  41.011   2.713   7.364
 3711POPC   NC348251  43.098   5.912   5.564
 3711POPC   PO448252  43.083   5.884   5.864
 3711POPC   GL148253  43.088   5.862   6.164
 3711POPC   GL248254  43.012   5.808   6.164
 3711POPC   C1A48255  43.127   5.869   6.464
 3711POPC   D2A48256  43.132   5.838   6.764
 3711POPC   C3A48257  43.100   5.865   7.064
 3711POPC   C4A48258  43.121   5.912   7.364
 3711POPC   C1B48259  42.890   5.819   6.464
 3711POPC   C2B48260  42.910   5.878   6.764
 3711POPC   C3B48261  42.890   5.826   7.064
 3711POPC   C4B48262  42.881   5.853   7.364
 3712POPC   NC348263  37.639  36.928   5.564
 3712POPC   PO448264  37.710  36.901   5.864
 3712POPC   GL148265  37.662  36.872   6.164
 3712POPC   GL248266  37.594  36.966   6.164
 3712POPC   C1A48267  37.634  36.862   6.464
 3712POPC   D2A48268  37.662  36.904   6.764
 3712POPC   C3A48269  37.689  36.873   7.064
 3712POPC   C4A48270  37.681  36.946   7.364
 3712POPC   C1B48271  37.440  37.004   6.464
 3712POPC   C2B48272  37.406  37.045   6.764
 3712POPC   C3B48273  37.420  36.998   7.064
 3712POPC   C4B48274  37.495  37.047   7.364
 3713POPC   NC348275  33.764  23.717   5.564
 3713POPC   PO448276  33.815  23.753   5.864
 3713POPC   GL148277  33.802  23.703   6.164
 3713POPC   GL248278  33.721  23.612   6.164
 3713POPC   C1A48279  33.763  23.761   6.464
 3713POPC   D2A48280  33.752  23.736   6.764
 3713POPC   C3A48281  33.770  23.676   7.064
 3713POPC   C4A48282  33.789  23.676   7.364
 3713POPC   C1B48283  33.720  23.433   6.464
 3713POPC   C2B48284  33.735  23.513   6.764
 3713POPC   C3B48285  33.747  23.458   7.064
 3713POPC   C4B48286  33.713  23.479   7.364
 3714POPC   NC348287  23.716  42.298   5.564
 3714POPC   PO448288  23.682  42.294   5.864
 3714POPC   GL148289  23.699  42.344   6.164
 3714POPC   GL248290  23.713  42.482   6.164
 3714POPC   C1A48291  23.697  42.382   6.464
 3714POPC   D2A48292  23.671  42.345   6.764
 3714POPC   C3A48293  23.694  42.345   7.064
 3714POPC   C4A48294  23.764  42.300   7.364
 3714POPC   C1B48295  23.835  42.546   6.464
 3714POPC   C2B48296  23.841  42.581   6.764
 3714POPC   C3B48297  23.751  42.535   7.064
 3714POPC   C4B48298  23.803  42.552   7.364
 3715POPC   NC348299  22.933   0.481   5.564
 3715POPC   PO448300  22.944   0.447   5.864
 3715POPC   GL148301  22.923   0.404   6.164
 3715POPC   GL248302  23.051   0.300   6.164
 3715POPC   C1A48303  22.981   0.401   6.464
 3715POPC   D2A48304  22.971   0.448   6.764
 3715POPC   C3A48305  22.902   0.409   7.064
 3715POPC   C4A48306  22.902   0.420   7.364
 3715POPC   C1B48307  23.136   0.281   6.464
 3715POPC   C2B48308  23.129   0.229   6.764
 3715POPC   C3B48309  23.087   0.232   7.064
 3715POPC   C4B48310  23.066   0.258   7.364
 3716POPC   NC348311  38.476  12.083   5.564
 3716POPC   PO448312  38.472  12.094   5.864
 3716POPC   GL148313  38.422  12.086   6.164
 3716POPC   GL248314  38.516  12.153   6.164
 3716POPC   C1A48315  38.484  12.033   6.464
 3716POPC   D2A48316  38.431  12.072   6.764
 3716POPC   C3A48317  38.410  12.099   7.064
 3716POPC   C4A48318  38.505  12.077   7.364
 3716POPC   C1B48319  38.552  12.243   6.464
 3716POPC   C2B48320  38.626  12.268   6.764
 3716POPC   C3B48321  38.589  12.252   7.064
 3716POPC   C4B48322  38.573  12.328   7.364
 3717POPC   NC348323  32.236  28.341   5.564
 3717POPC   PO448324  32.246  28.388   5.864
 3717POPC   GL148325  32.259  28.342   6.164
 3717POPC   GL248326  32.098  28.455   6.164
 3717POPC   C1A48327  32.248  28.415   6.464
 3717POPC   D2A48328  32.255  28.362   6.764
 3717POPC   C3A48329  32.255  28.365   7.064
 3717POPC   C4A48330  32.215  28.357   7.364
 3717POPC   C1B48331  31.988  28.450   6.464
 3717POPC   C2B48332  32.014  28.507   6.764
 3717POPC   C3B48333  32.060  28.421   7.064
 3717POPC   C4B48334  32.006  28.502   7.364
 3718POPC   NC348335  21.385   5.914   5.564
 3718POPC   PO448336  21.385   5.900   5.864
 3718POPC   GL148337  21.428   5.824   6.164
 3718POPC   GL248338  21.282   5.808   6.164
 3718POPC   C1A48339  21.402   5.875   6.464
 3718POPC   D2A48340  21.427   5.863   6.764
 3718POPC   C3A48341  21.372   5.836   7.064
 3718POPC   C4A48342  21.407   5.825   7.364
 3718POPC   C1B48343  21.151   5.750   6.464
 3718POPC   C2B48344  21.218   5.715   6.764
 3718POPC   C3B48345  21.247   5.735   7.064
 3718POPC   C4B48346  21.189   5.751   7.364
 3719POPC   NC348347  19.837  29.169   5.564
 3719POPC   PO448348  19.875  29.152   5.864
 3719POPC   GL148349  19.834  29.131   6.164
 3719POPC   GL248350  19.874  29.057   6.164
 3719POPC   C1A48351  19.820  29.128   6.464
 3719POPC   D2A48352  19.870  29.169   6.764
 3719POPC   C3A48353  19.884  29.191   7.064
 3719POPC   C4A48354  19.796  29.176   7.364
 3719POPC   C1B48355  19.850  28.933   6.464
 3719POPC   C2B48356  19.933  28.930   6.764
 3719POPC   C3B48357  19.939  28.896   7.064
 3719POPC   C4B48358  19.857  28.896   7.364
 3720POPC   NC348359  30.683   6.630   5.564
 3720POPC   PO448360  30.657   6.635   5.864
 3720POPC   GL148361  30.729   6.626   6.164
 3720POPC   GL248362  30.646   6.736   6.164
 3720POPC   C1A48363  30.729   6.626   6.464
 3720POPC   D2A48364  30.659   6.660   6.764
 3720POPC   C3A48365  30.647   6.647   7.064
 3720POPC   C4A48366  30.657   6.676   7.364
 3720POPC   C1B48367  30.591   6.807   6.464
 3720POPC   C2B48368  30.584   6.846   6.764
 3720POPC   C3B48369  30.538   6.884   7.064
 3720POPC   C4B48370  30.561   6.875   7.364
 3721POPC   NC348371  17.520  38.412   5.564
 3721POPC   PO448372  17.475  38.411   5.864
 3721POPC   GL148373  17.457  38.422   6.164
 3721POPC   GL248374  17.553  38.291   6.164
 3721POPC   C1A48375  17.468  38.475   6.464
 3721POPC   D2A48376  17.502  38.438   6.764
 3721POPC   C3A48377  17.462  38.449   7.064
 3721POPC   C4A48378  17.552  38.413   7.364
 3721POPC   C1B48379  17.611  38.166   6.464
 3721POPC   C2B48380  17.576  38.184   6.764
 3721POPC   C3B48381  17.558  38.219   7.064
 3721POPC   C4B48382  17.540  38.184   7.364
 3722POPC   NC348383  21.407  20.578   5.564
 3722POPC   PO448384  21.386  20.584   5.864
 3722POPC   GL148385  21.423  20.591   6.164
 3722POPC   GL248386  21.256  20.652   6.164
 3722POPC   C1A48387  21.390  20.658   6.464
 3722POPC   D2A48388  21.409  20.573   6.764
 3722POPC   C3A48389  21.378  20.613   7.064
 3722POPC   C4A48390  21.388  20.576   7.364
 3722POPC   C1B48391  21.177  20.638   6.464
 3722POPC   C2B48392  21.161  20.595   6.764
 3722POPC   C3B48393  21.124  20.635   7.064
 3722POPC   C4B48394  21.132  20.644   7.364
 3723POPC   NC348395  25.311   0.484   5.564
 3723POPC   PO448396  25.279   0.456   5.864
 3723POPC   GL148397  25.303   0.439   6.164
 3723POPC   GL248398  25.346   0.515   6.164
 3723POPC   C1A48399  25.242   0.458   6.464
 3723POPC   D2A48400  25.294   0.413   6.764
 3723POPC   C3A48401  25.243   0.445   7.064
 3723POPC   C4A48402  25.233   0.433   7.364
 3723POPC   C1B48403  25.483   0.603   6.464
 3723POPC   C2B48404  25.462   0.640   6.764
 3723POPC   C3B48405  25.456   0.640   7.064
 3723POPC   C4B48406  25.479   0.597   7.364
 3724POPC   NC348407  29.945  13.667   5.564
 3724POPC   PO448408  29.887  13.621   5.864
 3724POPC   GL148409  29.963  13.657   6.164
 3724POPC   GL248410  29.811  13.649   6.164
 3724POPC   C1A48411  29.954  13.636   6.464
 3724POPC   D2A48412  29.945  13.674   6.764
 3724POPC   C3A48413  29.931  13.630   7.064
 3724POPC   C4A48414  29.947  13.661   7.364
 3724POPC   C1B48415  29.733  13.754   6.464
 3724POPC   C2B48416  29.691  13.704   6.764
 3724POPC   C3B48417  29.657  13.715   7.064
 3724POPC   C4B48418  29.708  13.731   7.364
 3725POPC   NC348419  21.377  14.396   5.564
 3725POPC   PO448420  21.357  14.402   5.864
 3725POPC   GL148421  21.408  14.448   6.164
 3725POPC   GL248422  21.495  14.331   6.164
 3725POPC   C1A48423  21.398  14.431   6.464
 3725POPC   D2A48424  21.362  14.391   6.764
 3725POPC   C3A48425  21.369  14.381   7.064
 3725POPC   C4A48426  21.377  14.438   7.364
 3725POPC   C1B48427  21.616  14.331   6.464
 3725POPC   C2B48428  21.650  14.327   6.764
 3725POPC   C3B48429  21.649  14.382   7.064
 3725POPC   C4B48430  21.644  14.379   7.364
 3726POPC   NC348431  12.834  30.726   5.564
 3726POPC   PO448432  12.885  30.738   5.864
 3726POPC   GL148433  12.867  30.656   6.164
 3726POPC   GL248434  12.706  30.625   6.164
 3726POPC   C1A48435  12.869  30.691   6.464
 3726POPC   D2A48436  12.859  30.647   6.764
 3726POPC   C3A48437  12.873  30.649   7.064
 3726POPC   C4A48438  12.853  30.732   7.364
 3726POPC   C1B48439  12.568  30.641   6.464
 3726POPC   C2B48440  12.631  30.603   6.764
 3726POPC   C3B48441  12.646  30.626   7.064
 3726POPC   C4B48442  12.609  30.677   7.364
 3727POPC   NC348443   7.388  37.631   5.564
 3727POPC   PO448444   7.422  37.661   5.864
 3727POPC   GL148445   7.389  37.715   6.164
 3727POPC   GL248446   7.328  37.808   6.164
 3727POPC   C1A48447   7.441  37.633   6.464
 3727POPC   D2A48448   7.418  37.652   6.764
 3727POPC   C3A48449   7.419  37.710   7.064
 3727POPC   C4A48450   7.444  37.698   7.364
 3727POPC   C1B48451   7.303  37.882   6.464
 3727POPC   C2B48452   7.292  37.936   6.764
 3727POPC   C3B48453   7.304  37.893   7.064
 3727POPC   C4B48454   7.329  37.906   7.364
 3728POPC   NC348455   3.573   4.314   5.564
 3728POPC   PO448456   3.494   4.268   5.864
 3728POPC   GL148457   3.501   4.329   6.164
 3728POPC   GL248458   3.465   4.169   6.164
 3728POPC   C1A48459   3.526   4.313   6.464
 3728POPC   D2A48460   3.543   4.288   6.764
 3728POPC   C3A48461   3.532   4.366   7.064
 3728POPC   C4A48462   3.563   4.311   7.364
 3728POPC   C1B48463   3.421   4.142   6.464
 3728POPC   C2B48464   3.386   4.090   6.764
 3728POPC   C3B48465   3.370   4.092   7.064
 3728POPC   C4B48466   3.441   4.152   7.364
 3729POPC   NC348467  12.028  14.396   5.564
 3729POPC   PO448468  12.031  14.434   5.864
 3729POPC   GL148469  12.042  14.450   6.164
 3729POPC   GL248470  12.234  14.469   6.164
 3729POPC   C1A48471  12.058  14.446   6.464
 3729POPC   D2A48472  12.102  14.367   6.764
 3729POPC   C3A48473  12.030  14.423   7.064
 3729POPC   C4A48474  12.106  14.370   7.364
 3729POPC   C1B48475  12.359  14.509   6.464
 3729POPC   C2B48476  12.340  14.523   6.764
 3729POPC   C3B48477  12.350  14.523   7.064
 3729POPC   C4B48478  12.353  14.501   7.364
 3730POPC   NC348479  43.076  40.039   5.564
 3730POPC   PO448480  43.095  39.970   5.864
 3730POPC   GL148481  43.132  39.980   6.164
 3730POPC   GL248482  43.043  40.111   6.164
 3730POPC   C1A48483  43.091  39.991   6.464
 3730POPC   D2A48484  43.138  39.983   6.764
 3730POPC   C3A48485  43.085  39.986   7.064
 3730POPC   C4A48486  43.085  40.030   7.364
 3730POPC   C1B48487  42.935  40.207   6.464
 3730POPC   C2B48488  42.950  40.177   6.764
 3730POPC   C3B48489  43.021  40.180   7.064
 3730POPC   C4B48490  42.946  40.237   7.364
 3731POPC   NC348491  36.917  34.545   5.564
 3731POPC   PO448492  36.951  34.580   5.864
 3731POPC   GL148493  36.927  34.528   6.164
 3731POPC   GL248494  37.061  34.601   6.164
 3731POPC   C1A48495  36.865  34.561   6.464
 3731POPC   D2A48496  36.880  34.531   6.764
 3731POPC   C3A48497  36.926  34.611   7.064
 3731POPC   C4A48498  36.942  34.590   7.364
 3731POPC   C1B48499  37.112  34.505   6.464
 3731POPC   C2B48500  37.163  34.522   6.764
 3731POPC   C3B48501  37.107  34.556   7.064
 3731POPC   C4B48502  37.162  34.527   7.364
 3732POPC   NC348503  20.582  33.773   5.564
 3732POPC   PO448504  20.645  33.789   5.864
 3732POPC   GL148505  20.655  33.792   6.164
 3732POPC   GL248506  20.551  33.869   6.164
 3732POPC   C1A48507  20.610  33.802   6.464
 3732POPC   D2A48508  20.567  33.803   6.764
 3732POPC   C3A48509  20.576  33.792   7.064
 3732POPC   C4A48510  20.620  33.791   7.364
 3732POPC   C1B48511  20.477  34.026   6.464
 3732POPC   C2B48512  20.463  33.954   6.764
 3732POPC   C3B48513  20.394  33.970   7.064
 3732POPC   C4B48514  20.441  33.935   7.364
 3733POPC   NC348515  27.555  25.308   5.564
 3733POPC   PO448516  27.584  25.292   5.864
 3733POPC   GL148517  27.544  25.311   6.164
 3733POPC   GL248518  27.603  25.145   6.164
 3733POPC   C1A48519  27.604  25.219   6.464
 3733POPC   D2A48520  27.614  25.254   6.764
 3733POPC   C3A48521  27.630  25.313   7.064
 3733POPC   C4A48522  27.559  25.284   7.364
 3733POPC   C1B48523  27.649  25.034   6.464
 3733POPC   C2B48524  27.710  25.049   6.764
 3733POPC   C3B48525  27.730  24.994   7.064
 3733POPC   C4B48526  27.677  25.057   7.364
 3734POPC   NC348527   6.667  18.260   5.564
 3734POPC   PO448528   6.666  18.307   5.864
 3734POPC   GL148529   6.622  18.244   6.164
 3734POPC   GL248530   6.624  18.366   6.164
 3734POPC   C1A48531   6.630  18.245   6.464
 3734POPC   D2A48532   6.636  18.262   6.764
 3734POPC   C3A48533   6.679  18.272   7.064
 3734POPC   C4A48534   6.646  18.315   7.364
 3734POPC   C1B48535   6.622  18.493   6.464
 3734POPC   C2B48536   6.612  18.548   6.764
 3734POPC   C3B48537   6.638  18.496   7.064
 3734POPC   C4B48538   6.659  18.509   7.364
 3735POPC   NC348539  36.120  16.693   5.564
 3735POPC   PO448540  36.153  16.779   5.864
 3735POPC   GL148541  36.114  16.708   6.164
 3735POPC   GL248542  36.170  16.640   6.164
 3735POPC   C1A48543  36.129  16.724   6.464
 3735POPC   D2A48544  36.122  16.779   6.764
 3735POPC   C3A48545  36.111  16.741   7.064
 3735POPC   C4A48546  36.163  16.749   7.364
 3735POPC   C1B48547  36.322  16.517   6.464
 3735POPC   C2B48548  36.261  16.494   6.764
 3735POPC   C3B48549  36.331  16.493   7.064
 3735POPC   C4B48550  36.243  16.573   7.364
 3736POPC   NC348551  38.472   5.861   5.564
 3736POPC   PO448552  38.497   5.885   5.864
 3736POPC   GL148553  38.431   5.881   6.164
 3736POPC   GL248554  38.388   5.774   6.164
 3736POPC   C1A48555  38.413   5.823   6.464
 3736POPC   D2A48556  38.424   5.873   6.764
 3736POPC   C3A48557  38.483   5.836   7.064
 3736POPC   C4A48558  38.469   5.854   7.364
 3736POPC   C1B48559  38.274   5.622   6.464
 3736POPC   C2B48560  38.270   5.621   6.764
 3736POPC   C3B48561  38.353   5.679   7.064
 3736POPC   C4B48562  38.306   5.664   7.364
 3737POPC   NC348563  33.019  26.045   5.564
 3737POPC   PO448564  33.014  26.002   5.864
 3737POPC   GL148565  33.011  25.996   6.164
 3737POPC   GL248566  33.044  26.129   6.164
 3737POPC   C1A48567  33.071  26.091   6.464
 3737POPC   D2A48568  33.072  26.034   6.764
 3737POPC   C3A48569  33.004  26.007   7.064
 3737POPC   C4A48570  32.987  26.073   7.364
 3737POPC   C1B48571  33.073  26.313   6.464
 3737POPC   C2B48572  32.990  26.321   6.764
 3737POPC   C3B48573  33.070  26.281   7.064
 3737POPC   C4B48574  33.020  26.277   7.364
 3738POPC   NC348575   8.168  25.227   5.564
 3738POPC   PO448576   8.188  25.220   5.864
 3738POPC   GL148577   8.195  25.246   6.164
 3738POPC   GL248578   8.273  25.291   6.164
 3738POPC   C1A48579   8.229  25.302   6.464
 3738POPC   D2A48580   8.184  25.243   6.764
 3738POPC   C3A48581   8.191  25.258   7.064
 3738POPC   C4A48582   8.151  25.263   7.364
 3738POPC   C1B48583   8.406  25.302   6.464
 3738POPC   C2B48584   8.466  25.324   6.764
 3738POPC   C3B48585   8.435  25.271   7.064
 3738POPC   C4B48586   8.402  25.297   7.364
 3739POPC   NC348587   9.740  38.424   5.564
 3739POPC   PO448588   9.726  38.446   5.864
 3739POPC   GL148589   9.793  38.494   6.164
 3739POPC   GL248590   9.750  38.567   6.164
 3739POPC   C1A48591   9.797  38.413   6.464
 3739POPC   D2A48592   9.704  38.505   6.764
 3739POPC   C3A48593   9.796  38.407   7.064
 3739POPC   C4A48594   9.721  38.450   7.364
 3739POPC   C1B48595   9.771  38.653   6.464
 3739POPC   C2B48596   9.796  38.659   6.764
 3739POPC   C3B48597   9.767  38.693   7.064
 3739POPC   C4B48598   9.784  38.723   7.364
 3740POPC   NC348599   1.943  21.399   5.564
 3740POPC   PO448600   1.971  21.362   5.864
 3740POPC   GL148601   1.979  21.353   6.164
 3740POPC   GL248602   1.893  21.377   6.164
 3740POPC   C1A48603   2.035  21.388   6.464
 3740POPC   D2A48604   2.003  21.434   6.764
 3740POPC   C3A48605   2.016  21.432   7.064
 3740POPC   C4A48606   2.003  21.423   7.364
 3740POPC   C1B48607   1.782  21.386   6.464
 3740POPC   C2B48608   1.712  21.366   6.764
 3740POPC   C3B48609   1.763  21.372   7.064
 3740POPC   C4B48610   1.696  21.411   7.364
 3741POPC   NC348611  29.136  30.721   5.564
 3741POPC   PO448612  29.184  30.652   5.864
 3741POPC   GL148613  29.193  30.746   6.164
 3741POPC   GL248614  29.261  30.545   6.164
 3741POPC   C1A48615  29.120  30.721   6.464
 3741POPC   D2A48616  29.106  30.741   6.764
 3741POPC   C3A48617  29.117  30.746   7.064
 3741POPC   C4A48618  29.172  30.655   7.364
 3741POPC   C1B48619  29.332  30.482   6.464
 3741POPC   C2B48620  29.244  30.504   6.764
 3741POPC   C3B48621  29.241  30.522   7.064
 3741POPC   C4B48622  29.328  30.500   7.364
 3742POPC   NC348623   5.142  23.743   5.564
 3742POPC   PO448624   5.131  23.740   5.864
 3742POPC   GL148625   5.076  23.745   6.164
 3742POPC   GL248626   5.229  23.643   6.164
 3742POPC   C1A48627   5.077  23.688   6.464
 3742POPC   D2A48628   5.096  23.734   6.764
 3742POPC   C3A48629   5.101  23.732   7.064
 3742POPC   C4A48630   5.132  23.691   7.364
 3742POPC   C1B48631   5.245  23.559   6.464
 3742POPC   C2B48632   5.262  23.593   6.764
 3742POPC   C3B48633   5.323  23.595   7.064
 3742POPC   C4B48634   5.310  23.565   7.364
 3743POPC   NC348635   7.457  28.320   5.564
 3743POPC   PO448636   7.466  28.376   5.864
 3743POPC   GL148637   7.463  28.350   6.164
 3743POPC   GL248638   7.321  28.286   6.164
 3743POPC   C1A48639   7.432  28.348   6.464
 3743POPC   D2A48640   7.454  28.387   6.764
 3743POPC   C3A48641   7.439  28.417   7.064
 3743POPC   C4A48642   7.464  28.369   7.364
 3743POPC   C1B48643   7.196  28.266   6.464
 3743POPC   C2B48644   7.236  28.265   6.764
 3743POPC   C3B48645   7.180  28.259   7.064
 3743POPC   C4B48646   7.211  28.280   7.364
 3744POPC   NC348647   0.459  35.322   5.564
 3744POPC   PO448648   0.397  35.329   5.864
 3744POPC   GL148649   0.444  35.384   6.164
 3744POPC   GL248650   0.469  35.462   6.164
 3744POPC   C1A48651   0.393  35.355   6.464
 3744POPC   D2A48652   0.425  35.393   6.764
 3744POPC   C3A48653   0.483  35.392   7.064
 3744POPC   C4A48654   0.417  35.361   7.364
 3744POPC   C1B48655   0.435  35.630   6.464
 3744POPC   C2B48656   0.413  35.636   6.764
 3744POPC   C3B48657   0.432  35.637   7.064
 3744POPC   C4B48658   0.462  35.612   7.364
 3745POPC   NC348659  13.601  16.762   5.564
 3745POPC   PO448660  13.578  16.737   5.864
 3745POPC   GL148661  13.676  16.772   6.164
 3745POPC   GL248662  13.502  16.817   6.164
 3745POPC   C1A48663  13.617  16.720   6.464
 3745POPC   D2A48664  13.655  16.705   6.764
 3745POPC   C3A48665  13.633  16.759   7.064
 3745POPC   C4A48666  13.642  16.739   7.364
 3745POPC   C1B48667  13.400  16.793   6.464
 3745POPC   C2B48668  13.400  16.851   6.764
 3745POPC   C3B48669  13.425  16.809   7.064
 3745POPC   C4B48670  13.415  16.825   7.364
 3746POPC   NC348671  19.063  27.597   5.564
 3746POPC   PO448672  19.091  27.592   5.864
 3746POPC   GL148673  19.058  27.616   6.164
 3746POPC   GL248674  19.072  27.463   6.164
 3746POPC   C1A48675  19.067  27.545   6.464
 3746POPC   D2A48676  19.032  27.550   6.764
 3746POPC   C3A48677  19.023  27.599   7.064
 3746POPC   C4A48678  19.024  27.642   7.364
 3746POPC   C1B48679  19.158  27.378   6.464
 3746POPC   C2B48680  19.165  27.388   6.764
 3746POPC   C3B48681  19.171  27.394   7.064
 3746POPC   C4B48682  19.194  27.313   7.364
 3747POPC   NC348683  26.849  26.843   5.564
 3747POPC   PO448684  26.851  26.795   5.864
 3747POPC   GL148685  26.842  26.810   6.164
 3747POPC   GL248686  26.966  26.809   6.164
 3747POPC   C1A48687  26.823  26.858   6.464
 3747POPC   D2A48688  26.861  26.777   6.764
 3747POPC   C3A48689  26.804  26.858   7.064
 3747POPC   C4A48690  26.864  26.774   7.364
 3747POPC   C1B48691  27.096  26.869   6.464
 3747POPC   C2B48692  27.070  26.891   6.764
 3747POPC   C3B48693  27.098  26.906   7.064
 3747POPC   C4B48694  27.071  26.824   7.364
 3748POPC   NC348695  22.929  33.006   5.564
 3748POPC   PO448696  22.935  33.041   5.864
 3748POPC   GL148697  22.938  32.988   6.164
 3748POPC   GL248698  22.982  33.184   6.164
 3748POPC   C1A48699  22.965  32.987   6.464
 3748POPC   D2A48700  22.967  33.054   6.764
 3748POPC   C3A48701  22.979  32.993   7.064
 3748POPC   C4A48702  22.918  33.027   7.364
 3748POPC   C1B48703  22.999  33.255   6.464
 3748POPC   C2B48704  22.943  33.255   6.764
 3748POPC   C3B48705  22.984  33.268   7.064
 3748POPC   C4B48706  22.964  33.280   7.364
 3749POPC   NC348707  22.192  39.209   5.564
 3749POPC   PO448708  22.193  39.202   5.864
 3749POPC   GL148709  22.211  39.225   6.164
 3749POPC   GL248710  22.139  39.307   6.164
 3749POPC   C1A48711  22.116  39.255   6.464
 3749POPC   D2A48712  22.202  39.262   6.764
 3749POPC   C3A48713  22.123  39.257   7.064
 3749POPC   C4A48714  22.125  39.227   7.364
 3749POPC   C1B48715  22.181  39.444   6.464
 3749POPC   C2B48716  22.153  39.500   6.764
 3749POPC   C3B48717  22.215  39.526   7.064
 3749POPC   C4B48718  22.230  39.520   7.364
 3750POPC   NC348719  31.428  23.755   5.564
 3750POPC   PO448720  31.456  23.723   5.864
 3750POPC   GL148721  31.424  23.749   6.164
 3750POPC   GL248722  31.470  23.872   6.164
 3750POPC   C1A48723  31.498  23.670   6.464
 3750POPC   D2A48724  31.515  23.667   6.764
 3750POPC   C3A48725  31.441  23.758   7.064
 3750POPC   C4A48726  31.471  23.727   7.364
 3750POPC   C1B48727  31.494  23.968   6.464
 3750POPC   C2B48728  31.486  23.947   6.764
 3750POPC   C3B48729  31.514  23.963   7.064
 3750POPC   C4B48730  31.482  23.954   7.364
 3751POPC   NC348731  31.481  24.527   5.564
 3751POPC   PO448732  31.452  24.511   5.864
 3751POPC   GL148733  31.520  24.534   6.164
 3751POPC   GL248734  31.368  24.483   6.164
 3751POPC   C1A48735  31.471  24.537   6.464
 3751POPC   D2A48736  31.520  24.473   6.764
 3751POPC   C3A48737  31.513  24.464   7.064
 3751POPC   C4A48738  31.445  24.520   7.364
 3751POPC   C1B48739  31.243  24.555   6.464
 3751POPC   C2B48740  31.273  24.511   6.764
 3751POPC   C3B48741  31.189  24.471   7.064
 3751POPC   C4B48742  31.242  24.484   7.364
 3752POPC   NC348743   5.138  26.854   5.564
 3752POPC   PO448744   5.141  26.848   5.864
 3752POPC   GL148745   5.081  26.767   6.164
 3752POPC   GL248746   5.215  26.864   6.164
 3752POPC   C1A48747   5.114  26.769   6.464
 3752POPC   D2A48748   5.127  26.840   6.764
 3752POPC   C3A48749   5.067  26.799   7.064
 3752POPC   C4A48750   5.110  26.812   7.364
 3752POPC   C1B48751   5.316  26.845   6.464
 3752POPC   C2B48752   5.312  26.818   6.764
 3752POPC   C3B48753   5.332  26.837   7.064
 3752POPC   C4B48754   5.389  26.816   7.364
 3753POPC   NC348755  28.369  37.670   5.564
 3753POPC   PO448756  28.327  37.709   5.864
 3753POPC   GL148757  28.381  37.652   6.164
 3753POPC   GL248758  28.357  37.543   6.164
 3753POPC   C1A48759  28.343  37.664   6.464
 3753POPC   D2A48760  28.389  37.708   6.764
 3753POPC   C3A48761  28.325  37.706   7.064
 3753POPC   C4A48762  28.369  37.723   7.364
 3753POPC   C1B48763  28.322  37.457   6.464
 3753POPC   C2B48764  28.275  37.439   6.764
 3753POPC   C3B48765  28.306  37.489   7.064
 3753POPC   C4B48766  28.240  37.477   7.364
 3754POPC   NC348767  39.983  30.694   5.564
 3754POPC   PO448768  40.005  30.693   5.864
 3754POPC   GL148769  40.049  30.652   6.164
 3754POPC   GL248770  39.943  30.781   6.164
 3754POPC   C1A48771  39.991  30.674   6.464
 3754POPC   D2A48772  39.984  30.722   6.764
 3754POPC   C3A48773  40.037  30.647   7.064
 3754POPC   C4A48774  40.013  30.669   7.364
 3754POPC   C1B48775  39.848  30.884   6.464
 3754POPC   C2B48776  39.858  30.909   6.764
 3754POPC   C3B48777  39.888  30.869   7.064
 3754POPC   C4B48778  39.876  30.872   7.364
 3755POPC   NC348779  38.406  20.615   5.564
 3755POPC   PO448780  38.495  20.633   5.864
 3755POPC   GL148781  38.471  20.613   6.164
 3755POPC   GL248782  38.358  20.596   6.164
 3755POPC   C1A48783  38.498  20.654   6.464
 3755POPC   D2A48784  38.444  20.570   6.764
 3755POPC   C3A48785  38.459  20.621   7.064
 3755POPC   C4A48786  38.421  20.656   7.364
 3755POPC   C1B48787  38.232  20.525   6.464
 3755POPC   C2B48788  38.204  20.537   6.764
 3755POPC   C3B48789  38.274  20.476   7.064
 3755POPC   C4B48790  38.233  20.465   7.364
 3756POPC   NC348791  27.587  15.157   5.564
 3756POPC   PO448792  27.565  15.162   5.864
 3756POPC   GL148793  27.600  15.165   6.164
 3756POPC   GL248794  27.671  15.134   6.164
 3756POPC   C1A48795  27.590  15.225   6.464
 3756POPC   D2A48796  27.596  15.141   6.764
 3756POPC   C3A48797  27.564  15.205   7.064
 3756POPC   C4A48798  27.610  15.163   7.364
 3756POPC   C1B48799  27.808  15.168   6.464
 3756POPC   C2B48800  27.799  15.183   6.764
 3756POPC   C3B48801  27.859  15.176   7.064
 3756POPC   C4B48802  27.852  15.186   7.364
 3757POPC   NC348803  43.874  22.129   5.564
 3757POPC   PO448804  43.906  22.144   5.864
 3757POPC   GL148805  43.882  22.117   6.164
 3757POPC   GL248806  43.798  22.311   6.164
 3757POPC   C1A48807  43.861  22.138   6.464
 3757POPC   D2A48808  43.875  22.152   6.764
 3757POPC   C3A48809  43.909  22.159   7.064
 3757POPC   C4A48810  43.910  22.120   7.364
 3757POPC   C1B48811  43.782  22.371   6.464
 3757POPC   C2B48812  43.770  22.357   6.764
 3757POPC   C3B48813  43.765  22.426   7.064
 3757POPC   C4B48814  43.760  22.352   7.364
 3758POPC   NC348815   1.971  28.390   5.564
 3758POPC   PO448816   1.961  28.373   5.864
 3758POPC   GL148817   2.003  28.337   6.164
 3758POPC   GL248818   1.867  28.400   6.164
 3758POPC   C1A48819   1.956  28.388   6.464
 3758POPC   D2A48820   2.029  28.386   6.764
 3758POPC   C3A48821   1.978  28.372   7.064
 3758POPC   C4A48822   2.001  28.349   7.364
 3758POPC   C1B48823   1.731  28.404   6.464
 3758POPC   C2B48824   1.777  28.344   6.764
 3758POPC   C3B48825   1.707  28.343   7.064
 3758POPC   C4B48826   1.786  28.426   7.364
 3759POPC   NC348827  28.359   5.096   5.564
 3759POPC   PO448828  28.401   5.102   5.864
 3759POPC   GL148829  28.328   5.065   6.164
 3759POPC   GL248830  28.445   5.213   6.164
 3759POPC   C1A48831  28.416   5.087   6.464
 3759POPC   D2A48832  28.407   5.088   6.764
 3759POPC   C3A48833  28.391   5.098   7.064
 3759POPC   C4A48834  28.392   5.054   7.364
 3759POPC   C1B48835  28.389   5.300   6.464
 3759POPC   C2B48836  28.478   5.325   6.764
 3759POPC   C3B48837  28.393   5.348   7.064
 3759POPC   C4B48838  28.399   5.384   7.364
 3760POPC   NC348839  37.641  35.349   5.564
 3760POPC   PO448840  37.680  35.349   5.864
 3760POPC   GL148841  37.640  35.302   6.164
 3760POPC   GL248842  37.700  35.195   6.164
 3760POPC   C1A48843  37.716  35.325   6.464
 3760POPC   D2A48844  37.650  35.343   6.764
 3760POPC   C3A48845  37.729  35.390   7.064
 3760POPC   C4A48846  37.657  35.358   7.364
 3760POPC   C1B48847  37.765  35.159   6.464
 3760POPC   C2B48848  37.705  35.078   6.764
 3760POPC   C3B48849  37.730  35.134   7.064
 3760POPC   C4B48850  37.771  35.085   7.364
 3761POPC   NC348851  33.816  30.683   5.564
 3761POPC   PO448852  33.761  30.704   5.864
 3761POPC   GL148853  33.752  30.703   6.164
 3761POPC   GL248854  33.674  30.675   6.164
 3761POPC   C1A48855  33.847  30.710   6.464
 3761POPC   D2A48856  33.761  30.696   6.764
 3761POPC   C3A48857  33.825  30.685   7.064
 3761POPC   C4A48858  33.791  30.649   7.364
 3761POPC   C1B48859  33.522  30.655   6.464
 3761POPC   C2B48860  33.595  30.664   6.764
 3761POPC   C3B48861  33.565  30.680   7.064
 3761POPC   C4B48862  33.536  30.656   7.364
 3762POPC   NC348863  25.304  40.039   5.564
 3762POPC   PO448864  25.294  40.003   5.864
 3762POPC   GL148865  25.299  40.036   6.164
 3762POPC   GL248866  25.283  40.155   6.164
 3762POPC   C1A48867  25.257  39.964   6.464
 3762POPC   D2A48868  25.226  39.979   6.764
 3762POPC   C3A48869  25.230  39.986   7.064
 3762POPC   C4A48870  25.274  40.002   7.364
 3762POPC   C1B48871  25.263  40.284   6.464
 3762POPC   C2B48872  25.282  40.272   6.764
 3762POPC   C3B48873  25.227  40.259   7.064
 3762POPC   C4B48874  25.278  40.277   7.364
 3763POPC   NC348875  19.824  21.387   5.564
 3763POPC   PO448876  19.854  21.371   5.864
 3763POPC   GL148877  19.811  21.392   6.164
 3763POPC   GL248878  19.933  21.321   6.164
 3763POPC   C1A48879  19.789  21.431   6.464
 3763POPC   D2A48880  19.884  21.347   6.764
 3763POPC   C3A48881  19.813  21.370   7.064
 3763POPC   C4A48882  19.839  21.418   7.364
 3763POPC   C1B48883  20.022  21.315   6.464
 3763POPC   C2B48884  20.061  21.257   6.764
 3763POPC   C3B48885  20.017  21.283   7.064
 3763POPC   C4B48886  20.075  21.319   7.364
 3764POPC   NC348887   6.626  40.041   5.564
 3764POPC   PO448888   6.604  40.042   5.864
 3764POPC   GL148889   6.659  39.976   6.164
 3764POPC   GL248890   6.554  39.881   6.164
 3764POPC   C1A48891   6.604  40.011   6.464
 3764POPC   D2A48892   6.657  40.013   6.764
 3764POPC   C3A48893   6.637  40.040   7.064
 3764POPC   C4A48894   6.662  40.052   7.364
 3764POPC   C1B48895   6.429  39.887   6.464
 3764POPC   C2B48896   6.465  39.843   6.764
 3764POPC   C3B48897   6.498  39.801   7.064
 3764POPC   C4B48898   6.448  39.800   7.364
 3765POPC   NC348899  34.589  43.074   5.564
 3765POPC   PO448900  34.537  43.103   5.864
 3765POPC   GL148901  34.606  43.144   6.164
 3765POPC   GL248902  34.617  42.999   6.164
 3765POPC   C1A48903  34.599  43.064   6.464
 3765POPC   D2A48904  34.598  43.157   6.764
 3765POPC   C3A48905  34.565  43.092   7.064
 3765POPC   C4A48906  34.565  43.132   7.364
 3765POPC   C1B48907  34.567  42.907   6.464
 3765POPC   C2B48908  34.514  42.871   6.764
 3765POPC   C3B48909  34.516  42.814   7.064
 3765POPC   C4B48910  34.538  42.875   7.364
 3766POPC   NC348911  25.283  28.348   5.564
 3766POPC   PO448912  25.275  28.417   5.864
 3766POPC   GL148913  25.247  28.394   6.164
 3766POPC   GL248914  25.409  28.280   6.164
 3766POPC   C1A48915  25.278  28.401   6.464
 3766POPC   D2A48916  25.247  28.390   6.764
 3766POPC   C3A48917  25.303  28.368   7.064
 3766POPC   C4A48918  25.256  28.387   7.364
 3766POPC   C1B48919  25.432  28.266   6.464
 3766POPC   C2B48920  25.433  28.240   6.764
 3766POPC   C3B48921  25.500  28.219   7.064
 3766POPC   C4B48922  25.442  28.240   7.364
 3767POPC   NC348923  20.650  39.961   5.564
 3767POPC   PO448924  20.599  40.030   5.864
 3767POPC   GL148925  20.624  40.007   6.164
 3767POPC   GL248926  20.624  39.857   6.164
 3767POPC   C1A48927  20.588  39.976   6.464
 3767POPC   D2A48928  20.601  40.023   6.764
 3767POPC   C3A48929  20.643  40.001   7.064
 3767POPC   C4A48930  20.574  39.961   7.364
 3767POPC   C1B48931  20.687  39.786   6.464
 3767POPC   C2B48932  20.678  39.774   6.764
 3767POPC   C3B48933  20.724  39.800   7.064
 3767POPC   C4B48934  20.702  39.758   7.364
 3768POPC   NC348935  38.441  34.581   5.564
 3768POPC   PO448936  38.487  34.567   5.864
 3768POPC   GL148937  38.486  34.622   6.164
 3768POPC   GL248938  38.433  34.690   6.164
 3768POPC   C1A48939  38.444  34.613   6.464
 3768POPC   D2A48940  38.499  34.551   6.764
 3768POPC   C3A48941  38.466  34.537   7.064
 3768POPC   C4A48942  38.441  34.573   7.364
 3768POPC   C1B48943  38.380  34.836   6.464
 3768POPC   C2B48944  38.393  34.853   6.764
 3768POPC   C3B48945  38.401  34.824   7.064
 3768POPC   C4B48946  38.389  34.866   7.364
 3769POPC   NC348947  40.776  43.063   5.564
 3769POPC   PO448948  40.742  43.111   5.864
 3769POPC   GL148949  40.783  43.110   6.164
 3769POPC   GL248950  40.845  43.234   6.164
 3769POPC   C1A48951  40.768  43.157   6.464
 3769POPC   D2A48952  40.749  43.089   6.764
 3769POPC   C3A48953  40.749  43.150   7.064
 3769POPC   C4A48954  40.755  43.074   7.364
 3769POPC   C1B48955  40.879  43.316   6.464
 3769POPC   C2B48956  40.866  43.325   6.764
 3769POPC   C3B48957  40.874  43.355   7.064
 3769POPC   C4B48958  40.948  43.336   7.364
 3770POPC   NC348959   5.065   9.776   5.564
 3770POPC   PO448960   5.126   9.778   5.864
 3770POPC   GL148961   5.141   9.758   6.164
 3770POPC   GL248962   5.006   9.695   6.164
 3770POPC   C1A48963   5.119   9.711   6.464
 3770POPC   D2A48964   5.115   9.764   6.764
 3770POPC   C3A48965   5.094   9.785   7.064
 3770POPC   C4A48966   5.102   9.746   7.364
 3770POPC   C1B48967   4.882   9.722   6.464
 3770POPC   C2B48968   4.869   9.745   6.764
 3770POPC   C3B48969   4.829   9.757   7.064
 3770POPC   C4B48970   4.882   9.716   7.364
 3771POPC   NC348971   8.162  41.510   5.564
 3771POPC   PO448972   8.148  41.570   5.864
 3771POPC   GL148973   8.158  41.522   6.164
 3771POPC   GL248974   8.084  41.503   6.164
 3771POPC   C1A48975   8.171  41.549   6.464
 3771POPC   D2A48976   8.237  41.602   6.764
 3771POPC   C3A48977   8.228  41.589   7.064
 3771POPC   C4A48978   8.237  41.604   7.364
 3771POPC   C1B48979   7.953  41.457   6.464
 3771POPC   C2B48980   7.965  41.426   6.764
 3771POPC   C3B48981   7.954  41.394   7.064
 3771POPC   C4B48982   7.942  41.456   7.364
 3772POPC   NC348983  26.059  22.160   5.564
 3772POPC   PO448984  26.030  22.164   5.864
 3772POPC   GL148985  25.997  22.128   6.164
 3772POPC   GL248986  26.041  22.072   6.164
 3772POPC   C1A48987  26.032  22.121   6.464
 3772POPC   D2A48988  26.025  22.126   6.764
 3772POPC   C3A48989  26.077  22.168   7.064
 3772POPC   C4A48990  26.028  22.146   7.364
 3772POPC   C1B48991  26.087  21.913   6.464
 3772POPC   C2B48992  26.079  21.875   6.764
 3772POPC   C3B48993  26.136  21.945   7.064
 3772POPC   C4B48994  26.107  21.945   7.364
 3773POPC   NC348995   6.615   4.358   5.564
 3773POPC   PO448996   6.609   4.279   5.864
 3773POPC   GL148997   6.672   4.340   6.164
 3773POPC   GL248998   6.566   4.444   6.164
 3773POPC   C1A48999   6.601   4.346   6.464
 3773POPC   D2A49000   6.608   4.296   6.764
 3773POPC   C3A49001   6.687   4.342   7.064
 3773POPC   C4A49002   6.612   4.360   7.364
 3773POPC   C1B49003   6.543   4.576   6.464
 3773POPC   C2B49004   6.517   4.541   6.764
 3773POPC   C3B49005   6.542   4.555   7.064
 3773POPC   C4B49006   6.587   4.584   7.364
 3774POPC   NC349007  27.547  13.674   5.564
 3774POPC   PO449008  27.590  13.655   5.864
 3774POPC   GL149009  27.617  13.660   6.164
 3774POPC   GL249010  27.619  13.516   6.164
 3774POPC   C1A49011  27.594  13.657   6.464
 3774POPC   D2A49012  27.554  13.675   6.764
 3774POPC   C3A49013  27.612  13.600   7.064
 3774POPC   C4A49014  27.560  13.580   7.364
 3774POPC   C1B49015  27.610  13.415   6.464
 3774POPC   C2B49016  27.696  13.359   6.764
 3774POPC   C3B49017  27.641  13.366   7.064
 3774POPC   C4B49018  27.660  13.376   7.364
 3775POPC   NC349019  27.624  44.660   5.564
 3775POPC   PO449020  27.564  44.628   5.864
 3775POPC   GL149021  27.618  44.681   6.164
 3775POPC   GL249022  27.663  44.570   6.164
 3775POPC   C1A49023  27.619  44.640   6.464
 3775POPC   D2A49024  27.581  44.651   6.764
 3775POPC   C3A49025  27.596  44.667   7.064
 3775POPC   C4A49026  27.638  44.619   7.364
 3775POPC   C1B49027  27.658  44.466   6.464
 3775POPC   C2B49028  27.683  44.444   6.764
 3775POPC   C3B49029  27.634  44.453   7.064
 3775POPC   C4B49030  27.652  44.376   7.364
 3776POPC   NC349031  26.085   3.539   5.564
 3776POPC   PO449032  26.002   3.562   5.864
 3776POPC   GL149033  26.001   3.504   6.164
 3776POPC   GL249034  25.900   3.498   6.164
 3776POPC   C1A49035  26.021   3.516   6.464
 3776POPC   D2A49036  26.070   3.511   6.764
 3776POPC   C3A49037  26.064   3.573   7.064
 3776POPC   C4A49038  26.060   3.505   7.364
 3776POPC   C1B49039  25.841   3.527   6.464
 3776POPC   C2B49040  25.796   3.525   6.764
 3776POPC   C3B49041  25.745   3.543   7.064
 3776POPC   C4B49042  25.801   3.503   7.364
 3777POPC   NC349043  15.182   7.411   5.564
 3777POPC   PO449044  15.193   7.467   5.864
 3777POPC   GL149045  15.208   7.458   6.164
 3777POPC   GL249046  15.304   7.497   6.164
 3777POPC   C1A49047  15.145   7.425   6.464
 3777POPC   D2A49048  15.217   7.377   6.764
 3777POPC   C3A49049  15.182   7.470   7.064
 3777POPC   C4A49050  15.155   7.466   7.364
 3777POPC   C1B49051  15.359   7.554   6.464
 3777POPC   C2B49052  15.340   7.546   6.764
 3777POPC   C3B49053  15.361   7.604   7.064
 3777POPC   C4B49054  15.362   7.569   7.364
 3778POPC   NC349055  22.921  31.505   5.564
 3778POPC   PO449056  22.910  31.472   5.864
 3778POPC   GL149057  22.891  31.426   6.164
 3778POPC   GL249058  22.996  31.602   6.164
 3778POPC   C1A49059  22.977  31.483   6.464
 3778POPC   D2A49060  22.924  31.482   6.764
 3778POPC   C3A49061  22.937  31.499   7.064
 3778POPC   C4A49062  22.979  31.491   7.364
 3778POPC   C1B49063  23.111  31.599   6.464
 3778POPC   C2B49064  23.119  31.686   6.764
 3778POPC   C3B49065  23.106  31.654   7.064
 3778POPC   C4B49066  23.105  31.616   7.364
 3779POPC   NC349067  37.717  29.946   5.564
 3779POPC   PO449068  37.706  29.946   5.864
 3779POPC   GL149069  37.680  29.946   6.164
 3779POPC   GL249070  37.620  29.828   6.164
 3779POPC   C1A49071  37.646  29.957   6.464
 3779POPC   D2A49072  37.718  29.878   6.764
 3779POPC   C3A49073  37.718  29.938   7.064
 3779POPC   C4A49074  37.669  29.914   7.364
 3779POPC   C1B49075  37.491  29.719   6.464
 3779POPC   C2B49076  37.532  29.710   6.764
 3779POPC   C3B49077  37.445  29.719   7.064
 3779POPC   C4B49078  37.513  29.756   7.364
 3780POPC   NC349079  22.200  25.313   5.564
 3780POPC   PO449080  22.140  25.291   5.864
 3780POPC   GL149081  22.122  25.220   6.164
 3780POPC   GL249082  22.225  25.125   6.164
 3780POPC   C1A49083  22.125  25.314   6.464
 3780POPC   D2A49084  22.184  25.287   6.764
 3780POPC   C3A49085  22.166  25.275   7.064
 3780POPC   C4A49086  22.112  25.301   7.364
 3780POPC   C1B49087  22.180  25.010   6.464
 3780POPC   C2B49088  22.220  25.011   6.764
 3780POPC   C3B49089  22.223  25.013   7.064
 3780POPC   C4B49090  22.207  25.057   7.364
 3781POPC   NC349091   1.200  40.048   5.564
 3781POPC   PO449092   1.214  40.010   5.864
 3781POPC   GL149093   1.241  40.013   6.164
 3781POPC   GL249094   1.097  39.925   6.164
 3781POPC   C1A49095   1.173  39.978   6.464
 3781POPC   D2A49096   1.215  39.960   6.764
 3781POPC   C3A49097   1.178  39.971   7.064
 3781POPC   C4A49098   1.245  40.005   7.364
 3781POPC   C1B49099   1.025  39.960   6.464
 3781POPC   C2B49100   0.983  39.962   6.764
 3781POPC   C3B49101   0.930  39.908   7.064
 3781POPC   C4B49102   1.018  39.959   7.364
 3782POPC   NC349103   2.026  19.047   5.564
 3782POPC   PO449104   1.968  19.028   5.864
 3782POPC   GL149105   1.985  19.105   6.164
 3782POPC   GL249106   2.024  19.210   6.164
 3782POPC   C1A49107   1.992  19.030   6.464
 3782POPC   D2A49108   1.959  19.060   6.764
 3782POPC   C3A49109   2.012  19.037   7.064
 3782POPC   C4A49110   1.968  19.093   7.364
 3782POPC   C1B49111   2.013  19.273   6.464
 3782POPC   C2B49112   1.955  19.279   6.764
 3782POPC   C3B49113   1.959  19.268   7.064
 3782POPC   C4B49114   2.003  19.355   7.364
 3783POPC   NC349115  18.306  10.521   5.564
 3783POPC   PO449116  18.271  10.568   5.864
 3783POPC   GL149117  18.283  10.562   6.164
 3783POPC   GL249118  18.212  10.462   6.164
 3783POPC   C1A49119  18.248  10.482   6.464
 3783POPC   D2A49120  18.317  10.566   6.764
 3783POPC   C3A49121  18.322  10.553   7.064
 3783POPC   C4A49122  18.325  10.477   7.364
 3783POPC   C1B49123  18.081  10.384   6.464
 3783POPC   C2B49124  18.077  10.434   6.764
 3783POPC   C3B49125  18.037  10.385   7.064
 3783POPC   C4B49126  18.078  10.370   7.364
 3784POPC   NC349127  12.055  36.940   5.564
 3784POPC   PO449128  12.081  36.933   5.864
 3784POPC   GL149129  12.057  36.858   6.164
 3784POPC   GL249130  12.212  36.965   6.164
 3784POPC   C1A49131  12.078  36.874   6.464
 3784POPC   D2A49132  12.079  36.936   6.764
 3784POPC   C3A49133  12.074  36.890   7.064
 3784POPC   C4A49134  12.073  36.914   7.364
 3784POPC   C1B49135  12.320  37.094   6.464
 3784POPC   C2B49136  12.261  37.084   6.764
 3784POPC   C3B49137  12.226  37.074   7.064
 3784POPC   C4B49138  12.309  37.082   7.364
 3785POPC   NC349139  44.659  42.359   5.564
 3785POPC   PO449140  44.674  42.343   5.864
 3785POPC   GL149141  44.646  42.358   6.164
 3785POPC   GL249142  44.677  42.473   6.164
 3785POPC   C1A49143  44.671  42.297   6.464
 3785POPC   D2A49144  44.628  42.372   6.764
 3785POPC   C3A49145  44.613  42.326   7.064
 3785POPC   C4A49146  44.620  42.383   7.364
 3785POPC   C1B49147  44.666  42.598   6.464
 3785POPC   C2B49148  44.702  42.538   6.764
 3785POPC   C3B49149  44.676  42.596   7.064
 3785POPC   C4B49150  44.669  42.597   7.364
 3786POPC   NC349151   8.947  26.853   5.564
 3786POPC   PO449152   8.965  26.775   5.864
 3786POPC   GL149153   8.959  26.812   6.164
 3786POPC   GL249154   9.068  26.958   6.164
 3786POPC   C1A49155   8.980  26.825   6.464
 3786POPC   D2A49156   8.953  26.826   6.764
 3786POPC   C3A49157   9.009  26.828   7.064
 3786POPC   C4A49158   9.016  26.849   7.364
 3786POPC   C1B49159   9.177  27.042   6.464
 3786POPC   C2B49160   9.100  27.050   6.764
 3786POPC   C3B49161   9.140  27.023   7.064
 3786POPC   C4B49162   9.128  27.002   7.364
 3787POPC   NC349163  39.223  28.334   5.564
 3787POPC   PO449164  39.193  28.351   5.864
 3787POPC   GL149165  39.257  28.343   6.164
 3787POPC   GL249166  39.279  28.251   6.164
 3787POPC   C1A49167  39.221  28.414   6.464
 3787POPC   D2A49168  39.231  28.363   6.764
 3787POPC   C3A49169  39.201  28.364   7.064
 3787POPC   C4A49170  39.276  28.376   7.364
 3787POPC   C1B49171  39.377  28.148   6.464
 3787POPC   C2B49172  39.366  28.213   6.764
 3787POPC   C3B49173  39.371  28.154   7.064
 3787POPC   C4B49174  39.435  28.208   7.364
 3788POPC   NC349175  27.552   2.768   5.564
 3788POPC   PO449176  27.571   2.814   5.864
 3788POPC   GL149177  27.617   2.792   6.164
 3788POPC   GL249178  27.436   2.834   6.164
 3788POPC   C1A49179  27.568   2.742   6.464
 3788POPC   D2A49180  27.581   2.749   6.764
 3788POPC   C3A49181  27.617   2.808   7.064
 3788POPC   C4A49182  27.628   2.794   7.364
 3788POPC   C1B49183  27.352   2.828   6.464
 3788POPC   C2B49184  27.379   2.853   6.764
 3788POPC   C3B49185  27.371   2.901   7.064
 3788POPC   C4B49186  27.326   2.823   7.364
 3789POPC   NC349187  34.583  28.394   5.564
 3789POPC   PO449188  34.531  28.362   5.864
 3789POPC   GL149189  34.558  28.418   6.164
 3789POPC   GL249190  34.416  28.369   6.164
 3789POPC   C1A49191  34.560  28.362   6.464
 3789POPC   D2A49192  34.584  28.320   6.764
 3789POPC   C3A49193  34.625  28.319   7.064
 3789POPC   C4A49194  34.563  28.411   7.364
 3789POPC   C1B49195  34.373  28.419   6.464
 3789POPC   C2B49196  34.299  28.440   6.764
 3789POPC   C3B49197  34.370  28.412   7.064
 3789POPC   C4B49198  34.365  28.393   7.364
 3790POPC   NC349199  41.601  42.344   5.564
 3790POPC   PO449200  41.533  42.362   5.864
 3790POPC   GL149201  41.573  42.355   6.164
 3790POPC   GL249202  41.465  42.395   6.164
 3790POPC   C1A49203  41.527  42.315   6.464
 3790POPC   D2A49204  41.535  42.370   6.764
 3790POPC   C3A49205  41.511  42.290   7.064
 3790POPC   C4A49206  41.519  42.300   7.364
 3790POPC   C1B49207  41.397  42.511   6.464
 3790POPC   C2B49208  41.372  42.523   6.764
 3790POPC   C3B49209  41.411  42.545   7.064
 3790POPC   C4B49210  41.452  42.586   7.364
 3791POPC   NC349211  28.347  28.361   5.564
 3791POPC   PO449212  28.384  28.414   5.864
 3791POPC   GL149213  28.343  28.406   6.164
 3791POPC   GL249214  28.217  28.369   6.164
 3791POPC   C1A49215  28.344  28.326   6.464
 3791POPC   D2A49216  28.366  28.322   6.764
 3791POPC   C3A49217  28.383  28.373   7.064
 3791POPC   C4A49218  28.340  28.394   7.364
 3791POPC   C1B49219  28.123  28.410   6.464
 3791POPC   C2B49220  28.150  28.357   6.764
 3791POPC   C3B49221  28.126  28.334   7.064
 3791POPC   C4B49222  28.075  28.409   7.364
 3792POPC   NC349223  22.206  26.024   5.564
 3792POPC   PO449224  22.169  26.042   5.864
 3792POPC   GL149225  22.171  26.068   6.164
 3792POPC   GL249226  22.097  25.911   6.164
 3792POPC   C1A49227  22.183  26.012   6.464
 3792POPC   D2A49228  22.163  26.030   6.764
 3792POPC   C3A49229  22.120  26.014   7.064
 3792POPC   C4A49230  22.193  25.992   7.364
 3792POPC   C1B49231  22.029  25.828   6.464
 3792POPC   C2B49232  21.990  25.860   6.764
 3792POPC   C3B49233  22.000  25.878   7.064
 3792POPC   C4B49234  21.950  25.831   7.364
 3793POPC   NC349235   6.649  19.824   5.564
 3793POPC   PO449236   6.649  19.811   5.864
 3793POPC   GL149237   6.678  19.850   6.164
 3793POPC   GL249238   6.503  19.787   6.164
 3793POPC   C1A49239   6.626  19.838   6.464
 3793POPC   D2A49240   6.639  19.874   6.764
 3793POPC   C3A49241   6.600  19.791   7.064
 3793POPC   C4A49242   6.664  19.875   7.364
 3793POPC   C1B49243   6.413  19.758   6.464
 3793POPC   C2B49244   6.422  19.824   6.764
 3793POPC   C3B49245   6.419  19.769   7.064
 3793POPC   C4B49246   6.364  19.809   7.364
 3794POPC   NC349247   4.306  35.303   5.564
 3794POPC   PO449248   4.327  35.344   5.864
 3794POPC   GL149249   4.297  35.378   6.164
 3794POPC   GL249250   4.385  35.287   6.164
 3794POPC   C1A49251   4.291  35.370   6.464
 3794POPC   D2A49252   4.315  35.321   6.764
 3794POPC   C3A49253   4.274  35.389   7.064
 3794POPC   C4A49254   4.341  35.366   7.364
 3794POPC   C1B49255   4.555  35.241   6.464
 3794POPC   C2B49256   4.598  35.253   6.764
 3794POPC   C3B49257   4.593  35.289   7.064
 3794POPC   C4B49258   4.590  35.270   7.364
 3795POPC   NC349259   5.120  30.715   5.564
 3795POPC   PO449260   5.043  30.649   5.864
 3795POPC   GL149261   5.130  30.726   6.164
 3795POPC   GL249262   4.958  30.755   6.164
 3795POPC   C1A49263   5.093  30.743   6.464
 3795POPC   D2A49264   5.045  30.745   6.764
 3795POPC   C3A49265   5.056  30.693   7.064
 3795POPC   C4A49266   5.074  30.668   7.364
 3795POPC   C1B49267   4.890  30.914   6.464
 3795POPC   C2B49268   4.885  30.902   6.764
 3795POPC   C3B49269   4.965  30.848   7.064
 3795POPC   C4B49270   4.887  30.855   7.364
 3796POPC   NC349271  40.025  29.876   5.564
 3796POPC   PO449272  39.989  29.882   5.864
 3796POPC   GL149273  40.053  29.953   6.164
 3796POPC   GL249274  39.991  30.045   6.164
 3796POPC   C1A49275  40.041  29.898   6.464
 3796POPC   D2A49276  40.030  29.890   6.764
 3796POPC   C3A49277  40.049  29.946   7.064
 3796POPC   C4A49278  39.988  29.891   7.364
 3796POPC   C1B49279  40.005  30.122   6.464
 3796POPC   C2B49280  39.993  30.138   6.764
 3796POPC   C3B49281  40.066  30.149   7.064
 3796POPC   C4B49282  40.028  30.207   7.364
 3797POPC   NC349283  15.140  15.932   5.564
 3797POPC   PO449284  15.157  15.966   5.864
 3797POPC   GL149285  15.213  16.001   6.164
 3797POPC   GL249286  15.178  15.812   6.164
 3797POPC   C1A49287  15.167  15.980   6.464
 3797POPC   D2A49288  15.160  15.986   6.764
 3797POPC   C3A49289  15.160  16.000   7.064
 3797POPC   C4A49290  15.169  15.965   7.364
 3797POPC   C1B49291  15.179  15.727   6.464
 3797POPC   C2B49292  15.155  15.658   6.764
 3797POPC   C3B49293  15.153  15.661   7.064
 3797POPC   C4B49294  15.143  15.715   7.364
 3798POPC   NC349295  31.509  37.663   5.564
 3798POPC   PO449296  31.425  37.660   5.864
 3798POPC   GL149297  31.432  37.668   6.164
 3798POPC   GL249298  31.561  37.721   6.164
 3798POPC   C1A49299  31.467  37.681   6.464
 3798POPC   D2A49300  31.455  37.711   6.764
 3798POPC   C3A49301  31.440  37.631   7.064
 3798POPC   C4A49302  31.507  37.705   7.364
 3798POPC   C1B49303  31.721  37.724   6.464
 3798POPC   C2B49304  31.753  37.737   6.764
 3798POPC   C3B49305  31.728  37.691   7.064
 3798POPC   C4B49306  31.762  37.755   7.364
 3799POPC   NC349307  15.180  37.641   5.564
 3799POPC   PO449308  15.190  37.684   5.864
 3799POPC   GL149309  15.181  37.650   6.164
 3799POPC   GL249310  15.124  37.592   6.164
 3799POPC   C1A49311  15.187  37.671   6.464
 3799POPC   D2A49312  15.135  37.656   6.764
 3799POPC   C3A49313  15.147  37.638   7.064
 3799POPC   C4A49314  15.182  37.641   7.364
 3799POPC   C1B49315  15.029  37.521   6.464
 3799POPC   C2B49316  14.993  37.464   6.764
 3799POPC   C3B49317  14.992  37.485   7.064
 3799POPC   C4B49318  15.029  37.486   7.364
 3800POPC   NC349319  40.048  40.794   5.564
 3800POPC   PO449320  40.025  40.784   5.864
 3800POPC   GL149321  39.978  40.777   6.164
 3800POPC   GL249322  40.045  40.937   6.164
 3800POPC   C1A49323  40.018  40.738   6.464
 3800POPC   D2A49324  40.017  40.753   6.764
 3800POPC   C3A49325  40.016  40.762   7.064
 3800POPC   C4A49326  40.030  40.780   7.364
 3800POPC   C1B49327  40.109  40.992   6.464
 3800POPC   C2B49328  40.056  41.014   6.764
 3800POPC   C3B49329  40.093  41.022   7.064
 3800POPC   C4B49330  40.133  40.989   7.364
 3801POPC   NC349331  22.986   8.244   5.564
 3801POPC   PO449332  22.964   8.194   5.864
 3801POPC   GL149333  22.977   8.204   6.164
 3801POPC   GL249334  23.050   8.229   6.164
 3801POPC   C1A49335  22.964   8.218   6.464
 3801POPC   D2A49336  22.985   8.178   6.764
 3801POPC   C3A49337  22.897   8.191   7.064
 3801POPC   C4A49338  22.910   8.218   7.364
 3801POPC   C1B49339  23.191   8.159   6.464
 3801POPC   C2B49340  23.206   8.165   6.764
 3801POPC   C3B49341  23.150   8.167   7.064
 3801POPC   C4B49342  23.141   8.114   7.364
 3802POPC   NC349343  18.265  15.217   5.564
 3802POPC   PO449344  18.260  15.177   5.864
 3802POPC   GL149345  18.275  15.196   6.164
 3802POPC   GL249346  18.327  15.037   6.164
 3802POPC   C1A49347  18.290  15.196   6.464
 3802POPC   D2A49348  18.234  15.155   6.764
 3802POPC   C3A49349  18.319  15.199   7.064
 3802POPC   C4A49350  18.318  15.144   7.364
 3802POPC   C1B49351  18.294  14.886   6.464
 3802POPC   C2B49352  18.344  14.949   6.764
 3802POPC   C3B49353  18.348  14.883   7.064
 3802POPC   C4B49354  18.289  14.956   7.364
 3803POPC   NC349355  13.678  43.929   5.564
 3803POPC   PO449356  13.645  43.893   5.864
 3803POPC   GL149357  13.585  43.933   6.164
 3803POPC   GL249358  13.539  43.817   6.164
 3803POPC   C1A49359  13.608  43.913   6.464
 3803POPC   D2A49360  13.597  43.855   6.764
 3803POPC   C3A49361  13.591  43.917   7.064
 3803POPC   C4A49362  13.624  43.849   7.364
 3803POPC   C1B49363  13.468  43.761   6.464
 3803POPC   C2B49364  13.418  43.750   6.764
 3803POPC   C3B49365  13.463  43.776   7.064
 3803POPC   C4B49366  13.446  43.745   7.364
 3804POPC   NC349367  10.557   2.801   5.564
 3804POPC   PO449368  10.500   2.739   5.864
 3804POPC   GL149369  10.526   2.804   6.164
 3804POPC   GL249370  10.419   2.699   6.164
 3804POPC   C1A49371  10.530   2.770   6.464
 3804POPC   D2A49372  10.555   2.815   6.764
 3804POPC   C3A49373  10.571   2.772   7.064
 3804POPC   C4A49374  10.526   2.748   7.364
 3804POPC   C1B49375  10.367   2.583   6.464
 3804POPC   C2B49376  10.329   2.631   6.764
 3804POPC   C3B49377  10.386   2.569   7.064
 3804POPC   C4B49378  10.375   2.552   7.364
 3805POPC   NC349379  41.539  30.725   5.564
 3805POPC   PO449380  41.561  30.657   5.864
 3805POPC   GL149381  41.543  30.650   6.164
 3805POPC   GL249382  41.492  30.790   6.164
 3805POPC   C1A49383  41.516  30.687   6.464
 3805POPC   D2A49384  41.573  30.701   6.764
 3805POPC   C3A49385  41.566  30.718   7.064
 3805POPC   C4A49386  41.524  30.743   7.364
 3805POPC   C1B49387  41.388  30.900   6.464
 3805POPC   C2B49388  41.360  30.916   6.764
 3805POPC   C3B49389  41.362  30.851   7.064
 3805POPC   C4B49390  41.343  30.843   7.364
 3806POPC   NC349391   0.456  44.662   5.564
 3806POPC   PO449392   0.394  44.658   5.864
 3806POPC   GL149393   0.459  44.644   6.164
 3806POPC   GL249394   0.522  44.562   6.164
 3806POPC   C1A49395   0.427  44.640   6.464
 3806POPC   D2A49396   0.465  44.648   6.764
 3806POPC   C3A49397   0.451  44.674   7.064
 3806POPC   C4A49398   0.429  44.692   7.364
 3806POPC   C1B49399   0.684  44.518   6.464
 3806POPC   C2B49400   0.710  44.550   6.764
 3806POPC   C3B49401   0.631  44.537   7.064
 3806POPC   C4B49402   0.661  44.584   7.364
 3807POPC   NC349403   0.410  41.564   5.564
 3807POPC   PO449404   0.397  41.530   5.864
 3807POPC   GL149405   0.407  41.533   6.164
 3807POPC   GL249406   0.377  41.608   6.164
 3807POPC   C1A49407   0.457  41.564   6.464
 3807POPC   D2A49408   0.390  41.590   6.764
 3807POPC   C3A49409   0.391  41.562   7.064
 3807POPC   C4A49410   0.406  41.587   7.364
 3807POPC   C1B49411   0.228  41.666   6.464
 3807POPC   C2B49412   0.267  41.667   6.764
 3807POPC   C3B49413   0.253  41.756   7.064
 3807POPC   C4B49414   0.237  41.741   7.364
 3808POPC   NC349415  14.353  13.617   5.564
 3808POPC   PO449416  14.398  13.626   5.864
 3808POPC   GL149417  14.389  13.634   6.164
 3808POPC   GL249418  14.389  13.472   6.164
 3808POPC   C1A49419  14.388  13.628   6.464
 3808POPC   D2A49420  14.423  13.639   6.764
 3808POPC   C3A49421  14.365  13.647   7.064
 3808POPC   C4A49422  14.421  13.592   7.364
 3808POPC   C1B49423  14.385  13.348   6.464
 3808POPC   C2B49424  14.353  13.398   6.764
 3808POPC   C3B49425  14.414  13.414   7.064
 3808POPC   C4B49426  14.422  13.358   7.364
 3809POPC   NC349427   2.716  13.618   5.564
 3809POPC   PO449428   2.725  13.621   5.864
 3809POPC   GL149429   2.791  13.668   6.164
 3809POPC   GL249430   2.705  13.474   6.164
 3809POPC   C1A49431   2.766  13.618   6.464
 3809POPC   D2A49432   2.774  13.661   6.764
 3809POPC   C3A49433   2.751  13.608   7.064
 3809POPC   C4A49434   2.803  13.627   7.364
 3809POPC   C1B49435   2.743  13.372   6.464
 3809POPC   C2B49436   2.740  13.417   6.764
 3809POPC   C3B49437   2.788  13.337   7.064
 3809POPC   C4B49438   2.768  13.375   7.364
 3810POPC   NC349439  15.964  43.888   5.564
 3810POPC   PO449440  15.965  43.882   5.864
 3810POPC   GL149441  15.980  43.887   6.164
 3810POPC   GL249442  16.047  43.779   6.164
 3810POPC   C1A49443  15.927  43.849   6.464
 3810POPC   D2A49444  15.956  43.882   6.764
 3810POPC   C3A49445  15.943  43.893   7.064
 3810POPC   C4A49446  15.970  43.858   7.364
 3810POPC   C1B49447  16.126  43.718   6.464
 3810POPC   C2B49448  16.049  43.626   6.764
 3810POPC   C3B49449  16.115  43.688   7.064
 3810POPC   C4B49450  16.043  43.713   7.364
 3811POPC   NC349451   5.071  14.443   5.564
 3811POPC   PO449452   5.047  14.404   5.864
 3811POPC   GL149453   5.106  14.361   6.164
 3811POPC   GL249454   5.173  14.451   6.164
 3811POPC   C1A49455   5.072  14.408   6.464
 3811POPC   D2A49456   5.121  14.420   6.764
 3811POPC   C3A49457   5.091  14.364   7.064
 3811POPC   C4A49458   5.073  14.401   7.364
 3811POPC   C1B49459   5.359  14.383   6.464
 3811POPC   C2B49460   5.329  14.464   6.764
 3811POPC   C3B49461   5.374  14.454   7.064
 3811POPC   C4B49462   5.325  14.423   7.364
 3812POPC   NC349463   3.523  25.305   5.564
 3812POPC   PO449464   3.582  25.273   5.864
 3812POPC   GL149465   3.497  25.233   6.164
 3812POPC   GL249466   3.406  25.309   6.164
 3812POPC   C1A49467   3.570  25.250   6.464
 3812POPC   D2A49468   3.539  25.315   6.764
 3812POPC   C3A49469   3.493  25.291   7.064
 3812POPC   C4A49470   3.531  25.288   7.364
 3812POPC   C1B49471   3.308  25.343   6.464
 3812POPC   C2B49472   3.285  25.325   6.764
 3812POPC   C3B49473   3.344  25.305   7.064
 3812POPC   C4B49474   3.347  25.285   7.364
 3813POPC   NC349475  31.500  41.569   5.564
 3813POPC   PO449476  31.477  41.601   5.864
 3813POPC   GL149477  31.504  41.517   6.164
 3813POPC   GL249478  31.455  41.399   6.164
 3813POPC   C1A49479  31.520  41.543   6.464
 3813POPC   D2A49480  31.465  41.576   6.764
 3813POPC   C3A49481  31.447  41.521   7.064
 3813POPC   C4A49482  31.513  41.537   7.364
 3813POPC   C1B49483  31.538  41.284   6.464
 3813POPC   C2B49484  31.496  41.301   6.764
 3813POPC   C3B49485  31.457  41.301   7.064
 3813POPC   C4B49486  31.478  41.308   7.364
 3814POPC   NC349487  10.531  44.646   5.564
 3814POPC   PO449488  10.538  44.701   5.864
 3814POPC   GL149489  10.474  44.666   6.164
 3814POPC   GL249490  10.585  44.790   6.164
 3814POPC   C1A49491  10.480  44.618   6.464
 3814POPC   D2A49492  10.537  44.671   6.764
 3814POPC   C3A49493  10.568  44.613   7.064
 3814POPC   C4A49494  10.570  44.651   7.364
 3814POPC   C1B49495  10.647  44.882   6.464
 3814POPC   C2B49496  10.669  44.868   6.764
 3814POPC   C3B49497  10.666  44.893   7.064
 3814POPC   C4B49498  10.633  44.926   7.364
 3815POPC   NC349499  10.521  41.539   5.564
 3815POPC   PO449500  10.535  41.579   5.864
 3815POPC   GL149501  10.478  41.580   6.164
 3815POPC   GL249502  10.546  41.635   6.164
 3815POPC   C1A49503  10.572  41.601   6.464
 3815POPC   D2A49504  10.487  41.518   6.764
 3815POPC   C3A49505  10.570  41.542   7.064
 3815POPC   C4A49506  10.481  41.581   7.364
 3815POPC   C1B49507  10.650  41.767   6.464
 3815POPC   C2B49508  10.596  41.769   6.764
 3815POPC   C3B49509  10.671  41.785   7.064
 3815POPC   C4B49510  10.614  41.751   7.364
 3816POPC   NC349511  39.223  41.537   5.564
 3816POPC   PO449512  39.205  41.596   5.864
 3816POPC   GL149513  39.220  41.602   6.164
 3816POPC   GL249514  39.218  41.424   6.164
 3816POPC   C1A49515  39.186  41.603   6.464
 3816POPC   D2A49516  39.198  41.591   6.764
 3816POPC   C3A49517  39.247  41.537   7.064
 3816POPC   C4A49518  39.197  41.545   7.364
 3816POPC   C1B49519  39.305  41.305   6.464
 3816POPC   C2B49520  39.349  41.309   6.764
 3816POPC   C3B49521  39.254  41.304   7.064
 3816POPC   C4B49522  39.259  41.287   7.364
 3817POPC   NC349523  24.457   9.022   5.564
 3817POPC   PO449524  24.460   9.018   5.864
 3817POPC   GL149525  24.499   8.981   6.164
 3817POPC   GL249526  24.457   8.900   6.164
 3817POPC   C1A49527  24.532   8.949   6.464
 3817POPC   D2A49528  24.455   8.944   6.764
 3817POPC   C3A49529  24.520   9.020   7.064
 3817POPC   C4A49530  24.480   8.958   7.364
 3817POPC   C1B49531  24.386   8.726   6.464
 3817POPC   C2B49532  24.353   8.722   6.764
 3817POPC   C3B49533  24.407   8.751   7.064
 3817POPC   C4B49534  24.361   8.726   7.364
 3818POPC   NC349535  26.011  41.550   5.564
 3818POPC   PO449536  26.059  41.528   5.864
 3818POPC   GL149537  26.064  41.606   6.164
 3818POPC   GL249538  26.112  41.640   6.164
 3818POPC   C1A49539  26.022  41.608   6.464
 3818POPC   D2A49540  26.027  41.549   6.764
 3818POPC   C3A49541  26.010  41.598   7.064
 3818POPC   C4A49542  26.071  41.512   7.364
 3818POPC   C1B49543  26.202  41.669   6.464
 3818POPC   C2B49544  26.185  41.759   6.764
 3818POPC   C3B49545  26.185  41.703   7.064
 3818POPC   C4B49546  26.260  41.730   7.364
 3819POPC   NC349547   8.984  30.693   5.564
 3819POPC   PO449548   8.977  30.654   5.864
 3819POPC   GL149549   9.010  30.671   6.164
 3819POPC   GL249550   8.882  30.615   6.164
 3819POPC   C1A49551   8.956  30.732   6.464
 3819POPC   D2A49552   8.971  30.650   6.764
 3819POPC   C3A49553   8.948  30.694   7.064
 3819POPC   C4A49554   8.945  30.703   7.364
 3819POPC   C1B49555   8.825  30.464   6.464
 3819POPC   C2B49556   8.841  30.474   6.764
 3819POPC   C3B49557   8.808  30.517   7.064
 3819POPC   C4B49558   8.795  30.482   7.364
 3820POPC   NC349559   5.845   4.303   5.564
 3820POPC   PO449560   5.843   4.306   5.864
 3820POPC   GL149561   5.913   4.268   6.164
 3820POPC   GL249562   5.802   4.388   6.164
 3820POPC   C1A49563   5.892   4.309   6.464
 3820POPC   D2A49564   5.851   4.305   6.764
 3820POPC   C3A49565   5.849   4.311   7.064
 3820POPC   C4A49566   5.822   4.323   7.364
 3820POPC   C1B49567   5.796   4.583   6.464
 3820POPC   C2B49568   5.811   4.524   6.764
 3820POPC   C3B49569   5.829   4.573   7.064
 3820POPC   C4B49570   5.734   4.574   7.364
 3821POPC   NC349571  30.709  33.008   5.564
 3821POPC   PO449572  30.658  33.015   5.864
 3821POPC   GL149573  30.667  33.034   6.164
 3821POPC   GL249574  30.810  33.048   6.164
 3821POPC   C1A49575  30.731  33.000   6.464
 3821POPC   D2A49576  30.743  32.990   6.764
 3821POPC   C3A49577  30.699  33.050   7.064
 3821POPC   C4A49578  30.682  33.028   7.364
 3821POPC   C1B49579  30.949  33.064   6.464
 3821POPC   C2B49580  30.960  33.069   6.764
 3821POPC   C3B49581  30.939  33.100   7.064
 3821POPC   C4B49582  30.917  33.105   7.364
 3822POPC   NC349583   5.885  12.049   5.564
 3822POPC   PO449584   5.899  12.061   5.864
 3822POPC   GL149585   5.881  12.044   6.164
 3822POPC   GL249586   5.748  11.993   6.164
 3822POPC   C1A49587   5.888  12.091   6.464
 3822POPC   D2A49588   5.820  12.121   6.764
 3822POPC   C3A49589   5.846  12.105   7.064
 3822POPC   C4A49590   5.870  12.090   7.364
 3822POPC   C1B49591   5.672  11.997   6.464
 3822POPC   C2B49592   5.633  12.037   6.764
 3822POPC   C3B49593   5.596  11.973   7.064
 3822POPC   C4B49594   5.622  12.009   7.364
 3823POPC   NC349595   7.419  33.072   5.564
 3823POPC   PO449596   7.442  33.070   5.864
 3823POPC   GL149597   7.465  33.010   6.164
 3823POPC   GL249598   7.284  32.927   6.164
 3823POPC   C1A49599   7.434  33.001   6.464
 3823POPC   D2A49600   7.404  33.029   6.764
 3823POPC   C3A49601   7.392  33.013   7.064
 3823POPC   C4A49602   7.371  33.043   7.364
 3823POPC   C1B49603   7.268  32.907   6.464
 3823POPC   C2B49604   7.183  32.852   6.764
 3823POPC   C3B49605   7.261  32.834   7.064
 3823POPC   C4B49606   7.192  32.864   7.364
 3824POPC   NC349607  41.580   1.993   5.564
 3824POPC   PO449608  41.573   1.944   5.864
 3824POPC   GL149609  41.563   2.020   6.164
 3824POPC   GL249610  41.649   1.903   6.164
 3824POPC   C1A49611  41.578   2.039   6.464
 3824POPC   D2A49612  41.539   2.019   6.764
 3824POPC   C3A49613  41.594   1.984   7.064
 3824POPC   C4A49614  41.591   1.993   7.364
 3824POPC   C1B49615  41.783   1.849   6.464
 3824POPC   C2B49616  41.790   1.828   6.764
 3824POPC   C3B49617  41.740   1.889   7.064
 3824POPC   C4B49618  41.783   1.803   7.364
 3825POPC   NC349619  22.137  19.835   5.564
 3825POPC   PO449620  22.177  19.808   5.864
 3825POPC   GL149621  22.133  19.821   6.164
 3825POPC   GL249622  22.264  19.776   6.164
 3825POPC   C1A49623  22.155  19.830   6.464
 3825POPC   D2A49624  22.178  19.865   6.764
 3825POPC   C3A49625  22.185  19.817   7.064
 3825POPC   C4A49626  22.171  19.801   7.364
 3825POPC   C1B49627  22.351  19.686   6.464
 3825POPC   C2B49628  22.342  19.724   6.764
 3825POPC   C3B49629  22.422  19.684   7.064
 3825POPC   C4B49630  22.398  19.740   7.364
 3826POPC   NC349631  37.661   9.744   5.564
 3826POPC   PO449632  37.678   9.781   5.864
 3826POPC   GL149633  37.718   9.721   6.164
 3826POPC   GL249634  37.558   9.647   6.164
 3826POPC   C1A49635  37.720   9.754   6.464
 3826POPC   D2A49636  37.664   9.736   6.764
 3826POPC   C3A49637  37.633   9.734   7.064
 3826POPC   C4A49638  37.676   9.778   7.364
 3826POPC   C1B49639  37.495   9.576   6.464
 3826POPC   C2B49640  37.574   9.509   6.764
 3826POPC   C3B49641  37.554   9.578   7.064
 3826POPC   C4B49642  37.502   9.574   7.364
 3827POPC   NC349643  25.241   5.889   5.564
 3827POPC   PO449644  25.242   5.827   5.864
 3827POPC   GL149645  25.312   5.858   6.164
 3827POPC   GL249646  25.283   5.953   6.164
 3827POPC   C1A49647  25.309   5.867   6.464
 3827POPC   D2A49648  25.224   5.908   6.764
 3827POPC   C3A49649  25.293   5.851   7.064
 3827POPC   C4A49650  25.310   5.843   7.364
 3827POPC   C1B49651  25.291   6.152   6.464
 3827POPC   C2B49652  25.221   6.151   6.764
 3827POPC   C3B49653  25.253   6.149   7.064
 3827POPC   C4B49654  25.201   6.077   7.364
 3828POPC   NC349655  11.346  15.175   5.564
 3828POPC   PO449656  11.306  15.187   5.864
 3828POPC   GL149657  11.286  15.156   6.164
 3828POPC   GL249658  11.158  15.225   6.164
 3828POPC   C1A49659  11.319  15.209   6.464
 3828POPC   D2A49660  11.293  15.203   6.764
 3828POPC   C3A49661  11.305  15.134   7.064
 3828POPC   C4A49662  11.297  15.221   7.364
 3828POPC   C1B49663  11.049  15.209   6.464
 3828POPC   C2B49664  11.051  15.169   6.764
 3828POPC   C3B49665  11.070  15.261   7.064
 3828POPC   C4B49666  11.099  15.256   7.364
 3829POPC   NC349667  30.733  36.907   5.564
 3829POPC   PO449668  30.712  36.875   5.864
 3829POPC   GL149669  30.675  36.885   6.164
 3829POPC   GL249670  30.615  36.818   6.164
 3829POPC   C1A49671  30.732  36.885   6.464
 3829POPC   D2A49672  30.703  36.924   6.764
 3829POPC   C3A49673  30.658  36.919   7.064
 3829POPC   C4A49674  30.732  36.936   7.364
 3829POPC   C1B49675  30.440  36.822   6.464
 3829POPC   C2B49676  30.424  36.825   6.764
 3829POPC   C3B49677  30.469  36.756   7.064
 3829POPC   C4B49678  30.455  36.768   7.364
 3830POPC   NC349679  19.046  33.776   5.564
 3830POPC   PO449680  19.016  33.826   5.864
 3830POPC   GL149681  19.026  33.805   6.164
 3830POPC   GL249682  18.892  33.837   6.164
 3830POPC   C1A49683  19.054  33.822   6.464
 3830POPC   D2A49684  19.078  33.797   6.764
 3830POPC   C3A49685  19.022  33.809   7.064
 3830POPC   C4A49686  19.046  33.846   7.364
 3830POPC   C1B49687  18.810  33.902   6.464
 3830POPC   C2B49688  18.782  33.897   6.764
 3830POPC   C3B49689  18.828  33.873   7.064
 3830POPC   C4B49690  18.797  33.826   7.364
 3831POPC   NC349691  16.744  19.820   5.564
 3831POPC   PO449692  16.776  19.802   5.864
 3831POPC   GL149693  16.694  19.827   6.164
 3831POPC   GL249694  16.724  19.698   6.164
 3831POPC   C1A49695  16.692  19.864   6.464
 3831POPC   D2A49696  16.696  19.829   6.764
 3831POPC   C3A49697  16.775  19.863   7.064
 3831POPC   C4A49698  16.718  19.843   7.364
 3831POPC   C1B49699  16.823  19.637   6.464
 3831POPC   C2B49700  16.823  19.603   6.764
 3831POPC   C3B49701  16.855  19.592   7.064
 3831POPC   C4B49702  16.795  19.556   7.364
 3832POPC   NC349703  30.658   8.930   5.564
 3832POPC   PO449704  30.663   9.006   5.864
 3832POPC   GL149705  30.686   8.946   6.164
 3832POPC   GL249706  30.607   9.064   6.164
 3832POPC   C1A49707  30.699   8.941   6.464
 3832POPC   D2A49708  30.672   9.015   6.764
 3832POPC   C3A49709  30.700   9.008   7.064
 3832POPC   C4A49710  30.729   8.925   7.364
 3832POPC   C1B49711  30.444   9.097   6.464
 3832POPC   C2B49712  30.509   9.134   6.764
 3832POPC   C3B49713  30.456   9.081   7.064
 3832POPC   C4B49714  30.532   9.131   7.364
 3833POPC   NC349715   8.199  39.223   5.564
 3833POPC   PO449716   8.170  39.185   5.864
 3833POPC   GL149717   8.212  39.240   6.164
 3833POPC   GL249718   8.076  39.115   6.164
 3833POPC   C1A49719   8.236  39.217   6.464
 3833POPC   D2A49720   8.210  39.203   6.764
 3833POPC   C3A49721   8.240  39.270   7.064
 3833POPC   C4A49722   8.168  39.182   7.364
 3833POPC   C1B49723   8.018  39.086   6.464
 3833POPC   C2B49724   8.059  39.085   6.764
 3833POPC   C3B49725   7.978  39.028   7.064
 3833POPC   C4B49726   7.994  39.103   7.364
 3834POPC   NC349727  37.682   5.821   5.564
 3834POPC   PO449728  37.726   5.880   5.864
 3834POPC   GL149729  37.631   5.838   6.164
 3834POPC   GL249730  37.714   5.761   6.164
 3834POPC   C1A49731  37.677   5.834   6.464
 3834POPC   D2A49732  37.705   5.866   6.764
 3834POPC   C3A49733  37.681   5.887   7.064
 3834POPC   C4A49734  37.721   5.900   7.364
 3834POPC   C1B49735  37.844   5.649   6.464
 3834POPC   C2B49736  37.810   5.679   6.764
 3834POPC   C3B49737  37.780   5.654   7.064
 3834POPC   C4B49738  37.818   5.675   7.364
 3835POPC   NC349739   3.519  29.917   5.564
 3835POPC   PO449740   3.580  29.923   5.864
 3835POPC   GL149741   3.574  29.970   6.164
 3835POPC   GL249742   3.465  29.979   6.164
 3835POPC   C1A49743   3.570  29.935   6.464
 3835POPC   D2A49744   3.521  29.882   6.764
 3835POPC   C3A49745   3.524  29.903   7.064
 3835POPC   C4A49746   3.532  29.937   7.364
 3835POPC   C1B49747   3.306  30.002   6.464
 3835POPC   C2B49748   3.312  30.021   6.764
 3835POPC   C3B49749   3.280  30.039   7.064
 3835POPC   C4B49750   3.343  30.032   7.364
 3836POPC   NC349751   4.339  41.544   5.564
 3836POPC   PO449752   4.342  41.512   5.864
 3836POPC   GL149753   4.303  41.510   6.164
 3836POPC   GL249754   4.389  41.643   6.164
 3836POPC   C1A49755   4.345  41.530   6.464
 3836POPC   D2A49756   4.272  41.527   6.764
 3836POPC   C3A49757   4.283  41.515   7.064
 3836POPC   C4A49758   4.283  41.522   7.364
 3836POPC   C1B49759   4.476  41.694   6.464
 3836POPC   C2B49760   4.467  41.698   6.764
 3836POPC   C3B49761   4.470  41.744   7.064
 3836POPC   C4B49762   4.490  41.709   7.364
 3837POPC   NC349763  32.205  30.738   5.564
 3837POPC   PO449764  32.232  30.693   5.864
 3837POPC   GL149765  32.218  30.675   6.164
 3837POPC   GL249766  32.111  30.736   6.164
 3837POPC   C1A49767  32.298  30.716   6.464
 3837POPC   D2A49768  32.211  30.685   6.764
 3837POPC   C3A49769  32.245  30.673   7.064
 3837POPC   C4A49770  32.205  30.741   7.364
 3837POPC   C1B49771  32.071  30.900   6.464
 3837POPC   C2B49772  32.107  30.822   6.764
 3837POPC   C3B49773  32.063  30.900   7.064
 3837POPC   C4B49774  32.084  30.871   7.364
 3838POPC   NC349775   1.194  15.991   5.564
 3838POPC   PO449776   1.202  15.976   5.864
 3838POPC   GL149777   1.195  15.956   6.164
 3838POPC   GL249778   1.164  16.028   6.164
 3838POPC   C1A49779   1.167  15.973   6.464
 3838POPC   D2A49780   1.244  15.996   6.764
 3838POPC   C3A49781   1.243  15.977   7.064
 3838POPC   C4A49782   1.247  15.930   7.364
 3838POPC   C1B49783   1.031  16.161   6.464
 3838POPC   C2B49784   1.041  16.140   6.764
 3838POPC   C3B49785   1.069  16.129   7.064
 3838POPC   C4B49786   1.022  16.164   7.364
 3839POPC   NC349787  30.701  35.343   5.564
 3839POPC   PO449788  30.677  35.304   5.864
 3839POPC   GL149789  30.735  35.397   6.164
 3839POPC   GL249790  30.768  35.455   6.164
 3839POPC   C1A49791  30.663  35.388   6.464
 3839POPC   D2A49792  30.741  35.365   6.764
 3839POPC   C3A49793  30.705  35.328   7.064
 3839POPC   C4A49794  30.711  35.332   7.364
 3839POPC   C1B49795  30.783  35.573   6.464
 3839POPC   C2B49796  30.771  35.577   6.764
 3839POPC   C3B49797  30.795  35.539   7.064
 3839POPC   C4B49798  30.758  35.611   7.364
 3840POPC   NC349799  19.079  31.476   5.564
 3840POPC   PO449800  19.061  31.458   5.864
 3840POPC   GL149801  19.104  31.424   6.164
 3840POPC   GL249802  18.940  31.521   6.164
 3840POPC   C1A49803  19.090  31.502   6.464
 3840POPC   D2A49804  19.107  31.423   6.764
 3840POPC   C3A49805  19.020  31.500   7.064
 3840POPC   C4A49806  19.093  31.497   7.364
 3840POPC   C1B49807  18.861  31.678   6.464
 3840POPC   C2B49808  18.942  31.640   6.764
 3840POPC   C3B49809  18.855  31.674   7.064
 3840POPC   C4B49810  18.918  31.662   7.364
 3841POPC   NC349811  40.752  33.829   5.564
 3841POPC   PO449812  40.740  33.758   5.864
 3841POPC   GL149813  40.744  33.810   6.164
 3841POPC   GL249814  40.894  33.890   6.164
 3841POPC   C1A49815  40.802  33.762   6.464
 3841POPC   D2A49816  40.769  33.846   6.764
 3841POPC   C3A49817  40.794  33.811   7.064
 3841POPC   C4A49818  40.803  33.830   7.364
 3841POPC   C1B49819  40.935  34.022   6.464
 3841POPC   C2B49820  40.925  34.016   6.764
 3841POPC   C3B49821  40.863  34.046   7.064
 3841POPC   C4B49822  40.929  34.014   7.364
 3842POPC   NC349823  38.423   4.362   5.564
 3842POPC   PO449824  38.423   4.306   5.864
 3842POPC   GL149825  38.419   4.359   6.164
 3842POPC   GL249826  38.459   4.479   6.164
 3842POPC   C1A49827  38.443   4.289   6.464
 3842POPC   D2A49828  38.464   4.322   6.764
 3842POPC   C3A49829  38.447   4.287   7.064
 3842POPC   C4A49830  38.435   4.315   7.364
 3842POPC   C1B49831  38.531   4.532   6.464
 3842POPC   C2B49832  38.532   4.549   6.764
 3842POPC   C3B49833  38.538   4.512   7.064
 3842POPC   C4B49834  38.532   4.603   7.364
 3843POPC   NC349835  26.029  19.010   5.564
 3843POPC   PO449836  26.080  19.072   5.864
 3843POPC   GL149837  26.070  19.013   6.164
 3843POPC   GL249838  25.950  19.094   6.164
 3843POPC   C1A49839  26.060  19.065   6.464
 3843POPC   D2A49840  26.079  19.082   6.764
 3843POPC   C3A49841  26.089  19.105   7.064
 3843POPC   C4A49842  26.022  19.062   7.364
 3843POPC   C1B49843  25.822  19.156   6.464
 3843POPC   C2B49844  25.798  19.226   6.764
 3843POPC   C3B49845  25.794  19.176   7.064
 3843POPC   C4B49846  25.787  19.147   7.364
 3844POPC   NC349847  27.625   4.275   5.564
 3844POPC   PO449848  27.608   4.301   5.864
 3844POPC   GL149849  27.633   4.326   6.164
 3844POPC   GL249850  27.504   4.288   6.164
 3844POPC   C1A49851  27.576   4.285   6.464
 3844POPC   D2A49852  27.594   4.327   6.764
 3844POPC   C3A49853  27.639   4.274   7.064
 3844POPC   C4A49854  27.621   4.344   7.364
 3844POPC   C1B49855  27.420   4.165   6.464
 3844POPC   C2B49856  27.330   4.221   6.764
 3844POPC   C3B49857  27.401   4.229   7.064
 3844POPC   C4B49858  27.415   4.224   7.364
 3845POPC   NC349859  24.474  17.461   5.564
 3845POPC   PO449860  24.469  17.481   5.864
 3845POPC   GL149861  24.464  17.537   6.164
 3845POPC   GL249862  24.514  17.356   6.164
 3845POPC   C1A49863  24.526  17.481   6.464
 3845POPC   D2A49864  24.499  17.538   6.764
 3845POPC   C3A49865  24.514  17.467   7.064
 3845POPC   C4A49866  24.440  17.482   7.364
 3845POPC   C1B49867  24.476  17.251   6.464
 3845POPC   C2B49868  24.507  17.308   6.764
 3845POPC   C3B49869  24.504  17.232   7.064
 3845POPC   C4B49870  24.417  17.234   7.364
 3846POPC   NC349871  32.266  25.234   5.564
 3846POPC   PO449872  32.292  25.296   5.864
 3846POPC   GL149873  32.288  25.247   6.164
 3846POPC   GL249874  32.123  25.350   6.164
 3846POPC   C1A49875  32.280  25.271   6.464
 3846POPC   D2A49876  32.291  25.291   6.764
 3846POPC   C3A49877  32.233  25.226   7.064
 3846POPC   C4A49878  32.216  25.253   7.364
 3846POPC   C1B49879  32.103  25.473   6.464
 3846POPC   C2B49880  32.047  25.474   6.764
 3846POPC   C3B49881  32.072  25.459   7.064
 3846POPC   C4B49882  32.083  25.448   7.364
 3847POPC   NC349883  29.895  24.505   5.564
 3847POPC   PO449884  29.937  24.475   5.864
 3847POPC   GL149885  29.906  24.539   6.164
 3847POPC   GL249886  29.852  24.639   6.164
 3847POPC   C1A49887  29.899  24.451   6.464
 3847POPC   D2A49888  29.885  24.507   6.764
 3847POPC   C3A49889  29.937  24.518   7.064
 3847POPC   C4A49890  29.944  24.485   7.364
 3847POPC   C1B49891  29.858  24.728   6.464
 3847POPC   C2B49892  29.792  24.732   6.764
 3847POPC   C3B49893  29.852  24.727   7.064
 3847POPC   C4B49894  29.841  24.680   7.364
 3848POPC   NC349895  16.769  22.133   5.564
 3848POPC   PO449896  16.770  22.197   5.864
 3848POPC   GL149897  16.706  22.147   6.164
 3848POPC   GL249898  16.893  22.113   6.164
 3848POPC   C1A49899  16.691  22.184   6.464
 3848POPC   D2A49900  16.737  22.177   6.764
 3848POPC   C3A49901  16.691  22.145   7.064
 3848POPC   C4A49902  16.767  22.169   7.364
 3848POPC   C1B49903  16.948  22.130   6.464
 3848POPC   C2B49904  17.003  22.075   6.764
 3848POPC   C3B49905  16.953  22.122   7.064
 3848POPC   C4B49906  16.953  22.134   7.364
 3849POPC   NC349907  20.632  17.555   5.564
 3849POPC   PO449908  20.588  17.492   5.864
 3849POPC   GL149909  20.593  17.553   6.164
 3849POPC   GL249910  20.635  17.588   6.164
 3849POPC   C1A49911  20.643  17.518   6.464
 3849POPC   D2A49912  20.580  17.469   6.764
 3849POPC   C3A49913  20.582  17.531   7.064
 3849POPC   C4A49914  20.646  17.464   7.364
 3849POPC   C1B49915  20.587  17.756   6.464
 3849POPC   C2B49916  20.599  17.737   6.764
 3849POPC   C3B49917  20.583  17.721   7.064
 3849POPC   C4B49918  20.575  17.744   7.364
 3850POPC   NC349919  43.837  42.349   5.564
 3850POPC   PO449920  43.871  42.361   5.864
 3850POPC   GL149921  43.926  42.307   6.164
 3850POPC   GL249922  43.985  42.299   6.164
 3850POPC   C1A49923  43.864  42.366   6.464
 3850POPC   D2A49924  43.891  42.330   6.764
 3850POPC   C3A49925  43.891  42.298   7.064
 3850POPC   C4A49926  43.886  42.322   7.364
 3850POPC   C1B49927  44.134  42.177   6.464
 3850POPC   C2B49928  44.115  42.204   6.764
 3850POPC   C3B49929  44.115  42.206   7.064
 3850POPC   C4B49930  44.105  42.238   7.364
 3851POPC   NC349931   8.235  28.387   5.564
 3851POPC   PO449932   8.188  28.378   5.864
 3851POPC   GL149933   8.168  28.353   6.164
 3851POPC   GL249934   8.283  28.294   6.164
 3851POPC   C1A49935   8.147  28.341   6.464
 3851POPC   D2A49936   8.221  28.352   6.764
 3851POPC   C3A49937   8.204  28.405   7.064
 3851POPC   C4A49938   8.193  28.414   7.364
 3851POPC   C1B49939   8.321  28.189   6.464
 3851POPC   C2B49940   8.322  28.157   6.764
 3851POPC   C3B49941   8.335  28.109   7.064
 3851POPC   C4B49942   8.333  28.127   7.364
 3852POPC   NC349943  33.844  41.547   5.564
 3852POPC   PO449944  33.832  41.570   5.864
 3852POPC   GL149945  33.849  41.536   6.164
 3852POPC   GL249946  33.886  41.602   6.164
 3852POPC   C1A49947  33.780  41.588   6.464
 3852POPC   D2A49948  33.765  41.516   6.764
 3852POPC   C3A49949  33.781  41.551   7.064
 3852POPC   C4A49950  33.831  41.588   7.364
 3852POPC   C1B49951  34.010  41.751   6.464
 3852POPC   C2B49952  34.002  41.716   6.764
 3852POPC   C3B49953  33.959  41.717   7.064
 3852POPC   C4B49954  34.027  41.717   7.364
 3853POPC   NC349955  28.374   6.672   5.564
 3853POPC   PO449956  28.344   6.661   5.864
 3853POPC   GL149957  28.416   6.671   6.164
 3853POPC   GL249958  28.444   6.771   6.164
 3853POPC   C1A49959  28.417   6.687   6.464
 3853POPC   D2A49960  28.391   6.669   6.764
 3853POPC   C3A49961  28.326   6.659   7.064
 3853POPC   C4A49962  28.383   6.656   7.364
 3853POPC   C1B49963  28.558   6.790   6.464
 3853POPC   C2B49964  28.522   6.835   6.764
 3853POPC   C3B49965  28.547   6.835   7.064
 3853POPC   C4B49966  28.536   6.759   7.364
 3854POPC   NC349967   9.793  10.489   5.564
 3854POPC   PO449968   9.796  10.562   5.864
 3854POPC   GL149969   9.746  10.541   6.164
 3854POPC   GL249970   9.791  10.635   6.164
 3854POPC   C1A49971   9.780  10.547   6.464
 3854POPC   D2A49972   9.701  10.544   6.764
 3854POPC   C3A49973   9.699  10.487   7.064
 3854POPC   C4A49974   9.751  10.568   7.364
 3854POPC   C1B49975   9.880  10.760   6.464
 3854POPC   C2B49976   9.824  10.734   6.764
 3854POPC   C3B49977   9.891  10.778   7.064
 3854POPC   C4B49978   9.864  10.778   7.364
 3855POPC   NC349979  29.116  26.036   5.564
 3855POPC   PO449980  29.189  26.023   5.864
 3855POPC   GL149981  29.182  26.048   6.164
 3855POPC   GL249982  29.162  26.174   6.164
 3855POPC   C1A49983  29.143  26.072   6.464
 3855POPC   D2A49984  29.169  26.009   6.764
 3855POPC   C3A49985  29.163  26.048   7.064
 3855POPC   C4A49986  29.176  26.010   7.364
 3855POPC   C1B49987  29.195  26.269   6.464
 3855POPC   C2B49988  29.253  26.247   6.764
 3855POPC   C3B49989  29.189  26.303   7.064
 3855POPC   C4B49990  29.171  26.313   7.364
 3856POPC   NC349991   0.475  40.017   5.564
 3856POPC   PO449992   0.424  40.007   5.864
 3856POPC   GL149993   0.468  40.031   6.164
 3856POPC   GL249994   0.273  40.052   6.164
 3856POPC   C1A49995   0.419  40.057   6.464
 3856POPC   D2A49996   0.422  39.984   6.764
 3856POPC   C3A49997   0.424  39.964   7.064
 3856POPC   C4A49998   0.422  40.021   7.364
 3856POPC   C1B49999   0.165  40.063   6.464
 3856POPC   C2B50000   0.179  40.114   6.764
 3856POPC   C3B50001   0.242  40.102   7.064
 3856POPC   C4B50002   0.221  40.035   7.364
 3857POPC   NC350003  27.581  18.268   5.564
 3857POPC   PO450004  27.575  18.265   5.864
 3857POPC   GL150005  27.637  18.323   6.164
 3857POPC   GL250006  27.693  18.321   6.164
 3857POPC   C1A50007  27.588  18.243   6.464
 3857POPC   D2A50008  27.624  18.256   6.764
 3857POPC   C3A50009  27.616  18.280   7.064
 3857POPC   C4A50010  27.628  18.259   7.364
 3857POPC   C1B50011  27.757  18.429   6.464
 3857POPC   C2B50012  27.777  18.450   6.764
 3857POPC   C3B50013  27.818  18.500   7.064
 3857POPC   C4B50014  27.811  18.440   7.364
 3858POPC   NC350015   1.209  42.295   5.564
 3858POPC   PO450016   1.240  42.290   5.864
 3858POPC   GL150017   1.247  42.380   6.164
 3858POPC   GL250018   1.307  42.405   6.164
 3858POPC   C1A50019   1.244  42.315   6.464
 3858POPC   D2A50020   1.258  42.340   6.764
 3858POPC   C3A50021   1.248  42.329   7.064
 3858POPC   C4A50022   1.218  42.366   7.364
 3858POPC   C1B50023   1.450  42.398   6.464
 3858POPC   C2B50024   1.455  42.396   6.764
 3858POPC   C3B50025   1.432  42.340   7.064
 3858POPC   C4B50026   1.494  42.422   7.364
 3859POPC   NC350027   2.789   0.458   5.564
 3859POPC   PO450028   2.760   0.427   5.864
 3859POPC   GL150029   2.761   0.465   6.164
 3859POPC   GL250030   2.606   0.471   6.164
 3859POPC   C1A50031   2.785   0.446   6.464
 3859POPC   D2A50032   2.720   0.449   6.764
 3859POPC   C3A50033   2.743   0.461   7.064
 3859POPC   C4A50034   2.755   0.419   7.364
 3859POPC   C1B50035   2.479   0.454   6.464
 3859POPC   C2B50036   2.563   0.519   6.764
 3859POPC   C3B50037   2.554   0.452   7.064
 3859POPC   C4B50038   2.552   0.457   7.364
 3860POPC   NC350039   0.454  43.107   5.564
 3860POPC   PO450040   0.442  43.144   5.864
 3860POPC   GL150041   0.389  43.077   6.164
 3860POPC   GL250042   0.344  43.193   6.164
 3860POPC   C1A50043   0.390  43.088   6.464
 3860POPC   D2A50044   0.437  43.078   6.764
 3860POPC   C3A50045   0.473  43.148   7.064
 3860POPC   C4A50046   0.427  43.087   7.364
 3860POPC   C1B50047   0.278  43.305   6.464
 3860POPC   C2B50048   0.312  43.361   6.764
 3860POPC   C3B50049   0.313  43.371   7.064
 3860POPC   C4B50050   0.352  43.345   7.364
 3861POPC   NC350051  40.778  19.106   5.564
 3861POPC   PO450052  40.785  19.018   5.864
 3861POPC   GL150053  40.773  19.025   6.164
 3861POPC   GL250054  40.825  18.926   6.164
 3861POPC   C1A50055  40.768  19.054   6.464
 3861POPC   D2A50056  40.818  19.030   6.764
 3861POPC   C3A50057  40.772  19.104   7.064
 3861POPC   C4A50058  40.759  19.020   7.364
 3861POPC   C1B50059  40.937  18.843   6.464
 3861POPC   C2B50060  40.995  18.847   6.764
 3861POPC   C3B50061  40.980  18.910   7.064
 3861POPC   C4B50062  40.964  18.856   7.364
 3862POPC   NC350063   5.910  40.741   5.564
 3862POPC   PO450064   5.879  40.830   5.864
 3862POPC   GL150065   5.837  40.798   6.164
 3862POPC   GL250066   5.843  40.692   6.164
 3862POPC   C1A50067   5.829  40.791   6.464
 3862POPC   D2A50068   5.881  40.825   6.764
 3862POPC   C3A50069   5.889  40.745   7.064
 3862POPC   C4A50070   5.846  40.823   7.364
 3862POPC   C1B50071   5.764  40.514   6.464
 3862POPC   C2B50072   5.761  40.513   6.764
 3862POPC   C3B50073   5.801  40.597   7.064
 3862POPC   C4B50074   5.731  40.597   7.364
 3863POPC   NC350075  19.850  29.923   5.564
 3863POPC   PO450076  19.835  29.931   5.864
 3863POPC   GL150077  19.797  29.888   6.164
 3863POPC   GL250078  20.001  29.887   6.164
 3863POPC   C1A50079  19.869  29.950   6.464
 3863POPC   D2A50080  19.793  29.900   6.764
 3863POPC   C3A50081  19.838  29.908   7.064
 3863POPC   C4A50082  19.864  29.959   7.364
 3863POPC   C1B50083  20.044  29.926   6.464
 3863POPC   C2B50084  20.099  29.949   6.764
 3863POPC   C3B50085  20.068  29.943   7.064
 3863POPC   C4B50086  20.070  29.918   7.364
 3864POPC   NC350087   5.134   0.474   5.564
 3864POPC   PO450088   5.102   0.434   5.864
 3864POPC   GL150089   5.076   0.480   6.164
 3864POPC   GL250090   5.178   0.406   6.164
 3864POPC   C1A50091   5.099   0.485   6.464
 3864POPC   D2A50092   5.052   0.442   6.764
 3864POPC   C3A50093   5.084   0.476   7.064
 3864POPC   C4A50094   5.083   0.481   7.364
 3864POPC   C1B50095   5.350   0.373   6.464
 3864POPC   C2B50096   5.315   0.362   6.764
 3864POPC   C3B50097   5.376   0.336   7.064
 3864POPC   C4B50098   5.315   0.384   7.364
 3865POPC   NC350099  12.038  37.727   5.564
 3865POPC   PO450100  12.094  37.632   5.864
 3865POPC   GL150101  12.047  37.632   6.164
 3865POPC   GL250102  12.040  37.558   6.164
 3865POPC   C1A50103  12.074  37.704   6.464
 3865POPC   D2A50104  12.058  37.634   6.764
 3865POPC   C3A50105  12.081  37.688   7.064
 3865POPC   C4A50106  12.112  37.670   7.364
 3865POPC   C1B50107  12.044  37.465   6.464
 3865POPC   C2B50108  12.084  37.411   6.764
 3865POPC   C3B50109  12.108  37.459   7.064
 3865POPC   C4B50110  12.057  37.426   7.364
 3866POPC   NC350111  12.033  42.373   5.564
 3866POPC   PO450112  12.069  42.291   5.864
 3866POPC   GL150113  12.109  42.302   6.164
 3866POPC   GL250114  12.054  42.478   6.164
 3866POPC   C1A50115  12.051  42.304   6.464
 3866POPC   D2A50116  12.047  42.299   6.764
 3866POPC   C3A50117  12.059  42.347   7.064
 3866POPC   C4A50118  12.069  42.348   7.364
 3866POPC   C1B50119  12.016  42.574   6.464
 3866POPC   C2B50120  12.016  42.567   6.764
 3866POPC   C3B50121  12.025  42.536   7.064
 3866POPC   C4B50122  11.974  42.577   7.364
 3867POPC   NC350123  26.847  18.324   5.564
 3867POPC   PO450124  26.853  18.315   5.864
 3867POPC   GL150125  26.836  18.323   6.164
 3867POPC   GL250126  26.778  18.188   6.164
 3867POPC   C1A50127  26.822  18.291   6.464
 3867POPC   D2A50128  26.793  18.295   6.764
 3867POPC   C3A50129  26.795  18.322   7.064
 3867POPC   C4A50130  26.820  18.331   7.364
 3867POPC   C1B50131  26.802  18.043   6.464
 3867POPC   C2B50132  26.808  18.007   6.764
 3867POPC   C3B50133  26.806  18.003   7.064
 3867POPC   C4B50134  26.842  18.028   7.364
 3868POPC   NC350135  18.293  28.404   5.564
 3868POPC   PO450136  18.331  28.407   5.864
 3868POPC   GL150137  18.314  28.340   6.164
 3868POPC   GL250138  18.318  28.524   6.164
 3868POPC   C1A50139  18.270  28.405   6.464
 3868POPC   D2A50140  18.289  28.375   6.764
 3868POPC   C3A50141  18.239  28.325   7.064
 3868POPC   C4A50142  18.319  28.357   7.364
 3868POPC   C1B50143  18.313  28.595   6.464
 3868POPC   C2B50144  18.269  28.593   6.764
 3868POPC   C3B50145  18.266  28.629   7.064
 3868POPC   C4B50146  18.241  28.592   7.364
 3869POPC   NC350147  20.570  15.202   5.564
 3869POPC   PO450148  20.574  15.172   5.864
 3869POPC   GL150149  20.614  15.203   6.164
 3869POPC   GL250150  20.450  15.163   6.164
 3869POPC   C1A50151  20.642  15.183   6.464
 3869POPC   D2A50152  20.648  15.197   6.764
 3869POPC   C3A50153  20.563  15.203   7.064
 3869POPC   C4A50154  20.612  15.180   7.364
 3869POPC   C1B50155  20.402  15.071   6.464
 3869POPC   C2B50156  20.347  15.112   6.764
 3869POPC   C3B50157  20.415  15.081   7.064
 3869POPC   C4B50158  20.405  15.124   7.364
 3870POPC   NC350159   5.833  41.515   5.564
 3870POPC   PO450160   5.882  41.515   5.864
 3870POPC   GL150161   5.884  41.608   6.164
 3870POPC   GL250162   5.718  41.663   6.164
 3870POPC   C1A50163   5.873  41.549   6.464
 3870POPC   D2A50164   5.872  41.563   6.764
 3870POPC   C3A50165   5.904  41.569   7.064
 3870POPC   C4A50166   5.892  41.570   7.364
 3870POPC   C1B50167   5.653  41.685   6.464
 3870POPC   C2B50168   5.671  41.705   6.764
 3870POPC   C3B50169   5.605  41.691   7.064
 3870POPC   C4B50170   5.692  41.690   7.364
 3871POPC   NC350171  33.064  42.339   5.564
 3871POPC   PO450172  33.060  42.297   5.864
 3871POPC   GL150173  33.061  42.288   6.164
 3871POPC   GL250174  33.147  42.283   6.164
 3871POPC   C1A50175  33.066  42.345   6.464
 3871POPC   D2A50176  33.060  42.286   6.764
 3871POPC   C3A50177  33.049  42.316   7.064
 3871POPC   C4A50178  33.028  42.312   7.364
 3871POPC   C1B50179  33.241  42.177   6.464
 3871POPC   C2B50180  33.178  42.208   6.764
 3871POPC   C3B50181  33.234  42.189   7.064
 3871POPC   C4B50182  33.169  42.148   7.364
 3872POPC   NC350183   5.045  40.782   5.564
 3872POPC   PO450184   5.077  40.757   5.864
 3872POPC   GL150185   5.100  40.817   6.164
 3872POPC   GL250186   5.178  40.832   6.164
 3872POPC   C1A50187   5.139  40.806   6.464
 3872POPC   D2A50188   5.085  40.786   6.764
 3872POPC   C3A50189   5.128  40.753   7.064
 3872POPC   C4A50190   5.129  40.776   7.364
 3872POPC   C1B50191   5.318  40.912   6.464
 3872POPC   C2B50192   5.238  40.951   6.764
 3872POPC   C3B50193   5.329  40.954   7.064
 3872POPC   C4B50194   5.238  40.961   7.364
 3873POPC   NC350195  30.684  20.621   5.564
 3873POPC   PO450196  30.679  20.576   5.864
 3873POPC   GL150197  30.733  20.608   6.164
 3873POPC   GL250198  30.655  20.497   6.164
 3873POPC   C1A50199  30.667  20.584   6.464
 3873POPC   D2A50200  30.703  20.644   6.764
 3873POPC   C3A50201  30.664  20.601   7.064
 3873POPC   C4A50202  30.702  20.599   7.364
 3873POPC   C1B50203  30.563  20.363   6.464
 3873POPC   C2B50204  30.599  20.401   6.764
 3873POPC   C3B50205  30.609  20.429   7.064
 3873POPC   C4B50206  30.574  20.398   7.364
 3874POPC   NC350207  34.538  36.905   5.564
 3874POPC   PO450208  34.575  36.950   5.864
 3874POPC   GL150209  34.561  36.925   6.164
 3874POPC   GL250210  34.424  36.956   6.164
 3874POPC   C1A50211  34.553  36.859   6.464
 3874POPC   D2A50212  34.574  36.938   6.764
 3874POPC   C3A50213  34.527  36.933   7.064
 3874POPC   C4A50214  34.560  36.888   7.364
 3874POPC   C1B50215  34.337  37.026   6.464
 3874POPC   C2B50216  34.322  37.045   6.764
 3874POPC   C3B50217  34.414  37.078   7.064
 3874POPC   C4B50218  34.362  37.024   7.364
 3875POPC   NC350219  22.186  14.366   5.564
 3875POPC   PO450220  22.196  14.383   5.864
 3875POPC   GL150221  22.196  14.426   6.164
 3875POPC   GL250222  22.281  14.341   6.164
 3875POPC   C1A50223  22.177  14.395   6.464
 3875POPC   D2A50224  22.206  14.386   6.764
 3875POPC   C3A50225  22.210  14.373   7.064
 3875POPC   C4A50226  22.182  14.406   7.364
 3875POPC   C1B50227  22.336  14.288   6.464
 3875POPC   C2B50228  22.355  14.245   6.764
 3875POPC   C3B50229  22.390  14.217   7.064
 3875POPC   C4B50230  22.400  14.276   7.364
 3876POPC   NC350231  33.052  22.942   5.564
 3876POPC   PO450232  33.070  22.904   5.864
 3876POPC   GL150233  32.987  22.889   6.164
 3876POPC   GL250234  33.134  22.866   6.164
 3876POPC   C1A50235  32.982  22.976   6.464
 3876POPC   D2A50236  33.006  22.942   6.764
 3876POPC   C3A50237  33.024  22.914   7.064
 3876POPC   C4A50238  33.048  22.914   7.364
 3876POPC   C1B50239  33.222  22.911   6.464
 3876POPC   C2B50240  33.234  22.896   6.764
 3876POPC   C3B50241  33.247  22.906   7.064
 3876POPC   C4B50242  33.300  22.857   7.364
 3877POPC   NC350243  11.345  39.238   5.564
 3877POPC   PO450244  11.323  39.225   5.864
 3877POPC   GL150245  11.336  39.202   6.164
 3877POPC   GL250246  11.288  39.114   6.164
 3877POPC   C1A50247  11.272  39.219   6.464
 3877POPC   D2A50248  11.342  39.233   6.764
 3877POPC   C3A50249  11.342  39.265   7.064
 3877POPC   C4A50250  11.269  39.231   7.364
 3877POPC   C1B50251  11.202  38.955   6.464
 3877POPC   C2B50252  11.227  39.002   6.764
 3877POPC   C3B50253  11.266  38.952   7.064
 3877POPC   C4B50254  11.285  38.968   7.364
 3878POPC   NC350255   8.177  39.983   5.564
 3878POPC   PO450256   8.239  39.987   5.864
 3878POPC   GL150257   8.149  40.018   6.164
 3878POPC   GL250258   8.327  40.016   6.164
 3878POPC   C1A50259   8.187  39.973   6.464
 3878POPC   D2A50260   8.234  39.978   6.764
 3878POPC   C3A50261   8.222  39.990   7.064
 3878POPC   C4A50262   8.189  39.967   7.364
 3878POPC   C1B50263   8.480  40.089   6.464
 3878POPC   C2B50264   8.386  40.084   6.764
 3878POPC   C3B50265   8.440  40.115   7.064
 3878POPC   C4B50266   8.423  40.065   7.364
 3879POPC   NC350267   0.425  15.218   5.564
 3879POPC   PO450268   0.392  15.168   5.864
 3879POPC   GL150269   0.427  15.211   6.164
 3879POPC   GL250270   0.365  15.332   6.164
 3879POPC   C1A50271   0.456  15.135   6.464
 3879POPC   D2A50272   0.415  15.195   6.764
 3879POPC   C3A50273   0.428  15.140   7.064
 3879POPC   C4A50274   0.429  15.131   7.364
 3879POPC   C1B50275   0.327  15.408   6.464
 3879POPC   C2B50276   0.374  15.432   6.764
 3879POPC   C3B50277   0.336  15.399   7.064
 3879POPC   C4B50278   0.294  15.373   7.364
 3880POPC   NC350279   8.204  15.959   5.564
 3880POPC   PO450280   8.151  15.933   5.864
 3880POPC   GL150281   8.245  15.984   6.164
 3880POPC   GL250282   8.043  15.872   6.164
 3880POPC   C1A50283   8.203  15.959   6.464
 3880POPC   D2A50284   8.199  15.937   6.764
 3880POPC   C3A50285   8.147  15.935   7.064
 3880POPC   C4A50286   8.199  15.936   7.364
 3880POPC   C1B50287   7.923  15.839   6.464
 3880POPC   C2B50288   7.975  15.844   6.764
 3880POPC   C3B50289   8.001  15.838   7.064
 3880POPC   C4B50290   7.937  15.886   7.364
 3881POPC   NC350291  24.457  13.594   5.564
 3881POPC   PO450292  24.440  13.608   5.864
 3881POPC   GL150293  24.506  13.592   6.164
 3881POPC   GL250294  24.593  13.698   6.164
 3881POPC   C1A50295  24.448  13.668   6.464
 3881POPC   D2A50296  24.492  13.627   6.764
 3881POPC   C3A50297  24.493  13.623   7.064
 3881POPC   C4A50298  24.473  13.659   7.364
 3881POPC   C1B50299  24.651  13.831   6.464
 3881POPC   C2B50300  24.656  13.880   6.764
 3881POPC   C3B50301  24.575  13.790   7.064
 3881POPC   C4B50302  24.623  13.849   7.364
 3882POPC   NC350303  26.071  17.508   5.564
 3882POPC   PO450304  26.083  17.525   5.864
 3882POPC   GL150305  26.018  17.503   6.164
 3882POPC   GL250306  25.989  17.625   6.164
 3882POPC   C1A50307  25.995  17.498   6.464
 3882POPC   D2A50308  26.062  17.468   6.764
 3882POPC   C3A50309  26.050  17.493   7.064
 3882POPC   C4A50310  26.091  17.539   7.364
 3882POPC   C1B50311  25.996  17.795   6.464
 3882POPC   C2B50312  25.997  17.741   6.764
 3882POPC   C3B50313  25.986  17.722   7.064
 3882POPC   C4B50314  26.013  17.749   7.364
 3883POPC   NC350315  26.817  13.647   5.564
 3883POPC   PO450316  26.845  13.646   5.864
 3883POPC   GL150317  26.798  13.643   6.164
 3883POPC   GL250318  26.973  13.641   6.164
 3883POPC   C1A50319  26.852  13.598   6.464
 3883POPC   D2A50320  26.836  13.589   6.764
 3883POPC   C3A50321  26.771  13.580   7.064
 3883POPC   C4A50322  26.833  13.645   7.364
 3883POPC   C1B50323  27.094  13.612   6.464
 3883POPC   C2B50324  27.032  13.602   6.764
 3883POPC   C3B50325  27.107  13.539   7.064
 3883POPC   C4B50326  27.043  13.530   7.364
 3884POPC   NC350327  43.089  38.445   5.564
 3884POPC   PO450328  43.129  38.471   5.864
 3884POPC   GL150329  43.144  38.447   6.164
 3884POPC   GL250330  42.956  38.416   6.164
 3884POPC   C1A50331  43.127  38.464   6.464
 3884POPC   D2A50332  43.155  38.465   6.764
 3884POPC   C3A50333  43.062  38.414   7.064
 3884POPC   C4A50334  43.121  38.429   7.364
 3884POPC   C1B50335  42.934  38.335   6.464
 3884POPC   C2B50336  42.853  38.338   6.764
 3884POPC   C3B50337  42.926  38.291   7.064
 3884POPC   C4B50338  42.852  38.329   7.364
 3885POPC   NC350339  11.289  38.407   5.564
 3885POPC   PO450340  11.311  38.466   5.864
 3885POPC   GL150341  11.333  38.461   6.164
 3885POPC   GL250342  11.239  38.517   6.164
 3885POPC   C1A50343  11.282  38.462   6.464
 3885POPC   D2A50344  11.274  38.491   6.764
 3885POPC   C3A50345  11.256  38.419   7.064
 3885POPC   C4A50346  11.281  38.474   7.364
 3885POPC   C1B50347  11.102  38.687   6.464
 3885POPC   C2B50348  11.106  38.649   6.764
 3885POPC   C3B50349  11.128  38.674   7.064
 3885POPC   C4B50350  11.180  38.670   7.364
 3886POPC   NC350351  22.153  22.139   5.564
 3886POPC   PO450352  22.125  22.115   5.864
 3886POPC   GL150353  22.177  22.167   6.164
 3886POPC   GL250354  22.104  22.073   6.164
 3886POPC   C1A50355  22.171  22.203   6.464
 3886POPC   D2A50356  22.208  22.123   6.764
 3886POPC   C3A50357  22.167  22.171   7.064
 3886POPC   C4A50358  22.133  22.123   7.364
 3886POPC   C1B50359  22.052  21.907   6.464
 3886POPC   C2B50360  22.049  21.960   6.764
 3886POPC   C3B50361  22.019  21.942   7.064
 3886POPC   C4B50362  22.075  21.896   7.364
 3887POPC   NC350363   1.168  13.667   5.564
 3887POPC   PO450364   1.227  13.643   5.864
 3887POPC   GL150365   1.264  13.672   6.164
 3887POPC   GL250366   1.211  13.740   6.164
 3887POPC   C1A50367   1.205  13.650   6.464
 3887POPC   D2A50368   1.224  13.595   6.764
 3887POPC   C3A50369   1.218  13.630   7.064
 3887POPC   C4A50370   1.188  13.600   7.364
 3887POPC   C1B50371   1.238  13.916   6.464
 3887POPC   C2B50372   1.286  13.897   6.764
 3887POPC   C3B50373   1.234  13.848   7.064
 3887POPC   C4B50374   1.255  13.822   7.364
 3888POPC   NC350375  33.809  35.324   5.564
 3888POPC   PO450376  33.804  35.381   5.864
 3888POPC   GL150377  33.760  35.391   6.164
 3888POPC   GL250378  33.883  35.399   6.164
 3888POPC   C1A50379  33.797  35.362   6.464
 3888POPC   D2A50380  33.807  35.369   6.764
 3888POPC   C3A50381  33.767  35.305   7.064
 3888POPC   C4A50382  33.841  35.330   7.364
 3888POPC   C1B50383  34.017  35.390   6.464
 3888POPC   C2B50384  34.049  35.336   6.764
 3888POPC   C3B50385  34.057  35.395   7.064
 3888POPC   C4B50386  34.011  35.369   7.364
 3889POPC   NC350387   8.938  12.810   5.564
 3889POPC   PO450388   8.926  12.804   5.864
 3889POPC   GL150389   9.000  12.822   6.164
 3889POPC   GL250390   8.914  12.751   6.164
 3889POPC   C1A50391   8.974  12.806   6.464
 3889POPC   D2A50392   9.017  12.864   6.764
 3889POPC   C3A50393   8.961  12.836   7.064
 3889POPC   C4A50394   9.019  12.881   7.364
 3889POPC   C1B50395   8.925  12.600   6.464
 3889POPC   C2B50396   8.903  12.609   6.764
 3889POPC   C3B50397   8.899  12.605   7.064
 3889POPC   C4B50398   8.960  12.566   7.364
 3890POPC   NC350399  31.445  22.172   5.564
 3890POPC   PO450400  31.500  22.155   5.864
 3890POPC   GL150401  31.514  22.142   6.164
 3890POPC   GL250402  31.644  22.127   6.164
 3890POPC   C1A50403  31.497  22.141   6.464
 3890POPC   D2A50404  31.520  22.182   6.764
 3890POPC   C3A50405  31.449  22.208   7.064
 3890POPC   C4A50406  31.465  22.181   7.364
 3890POPC   C1B50407  31.678  22.151   6.464
 3890POPC   C2B50408  31.740  22.072   6.764
 3890POPC   C3B50409  31.756  22.122   7.064
 3890POPC   C4B50410  31.673  22.145   7.364
 3891POPC   NC350411  31.463  15.979   5.564
 3891POPC   PO450412  31.437  15.993   5.864
 3891POPC   GL150413  31.507  15.964   6.164
 3891POPC   GL250414  31.356  16.072   6.164
 3891POPC   C1A50415  31.455  15.997   6.464
 3891POPC   D2A50416  31.473  15.930   6.764
 3891POPC   C3A50417  31.443  15.930   7.064
 3891POPC   C4A50418  31.431  15.974   7.364
 3891POPC   C1B50419  31.288  16.111   6.464
 3891POPC   C2B50420  31.339  16.160   6.764
 3891POPC   C3B50421  31.277  16.172   7.064
 3891POPC   C4B50422  31.269  16.133   7.364
 3892POPC   NC350423  14.356  28.370   5.564
 3892POPC   PO450424  14.383  28.385   5.864
 3892POPC   GL150425  14.385  28.360   6.164
 3892POPC   GL250426  14.430  28.292   6.164
 3892POPC   C1A50427  14.361  28.399   6.464
 3892POPC   D2A50428  14.414  28.358   6.764
 3892POPC   C3A50429  14.430  28.387   7.064
 3892POPC   C4A50430  14.385  28.375   7.364
 3892POPC   C1B50431  14.422  28.140   6.464
 3892POPC   C2B50432  14.415  28.098   6.764
 3892POPC   C3B50433  14.381  28.167   7.064
 3892POPC   C4B50434  14.412  28.100   7.364
 3893POPC   NC350435  17.535  41.587   5.564
 3893POPC   PO450436  17.553  41.535   5.864
 3893POPC   GL150437  17.488  41.540   6.164
 3893POPC   GL250438  17.399  41.518   6.164
 3893POPC   C1A50439  17.511  41.585   6.464
 3893POPC   D2A50440  17.521  41.603   6.764
 3893POPC   C3A50441  17.482  41.549   7.064
 3893POPC   C4A50442  17.488  41.520   7.364
 3893POPC   C1B50443  17.308  41.479   6.464
 3893POPC   C2B50444  17.279  41.462   6.764
 3893POPC   C3B50445  17.292  41.513   7.064
 3893POPC   C4B50446  17.295  41.450   7.364
 3894POPC   NC350447  10.565  10.556   5.564
 3894POPC   PO450448  10.521  10.545   5.864
 3894POPC   GL150449  10.526  10.549   6.164
 3894POPC   GL250450  10.644  10.474   6.164
 3894POPC   C1A50451  10.510  10.478   6.464
 3894POPC   D2A50452  10.547  10.562   6.764
 3894POPC   C3A50453  10.523  10.502   7.064
 3894POPC   C4A50454  10.568  10.490   7.364
 3894POPC   C1B50455  10.634  10.286   6.464
 3894POPC   C2B50456  10.719  10.355   6.764
 3894POPC   C3B50457  10.719  10.318   7.064
 3894POPC   C4B50458  10.722  10.278   7.364
 3895POPC   NC350459   9.777   9.001   5.564
 3895POPC   PO450460   9.752   9.003   5.864
 3895POPC   GL150461   9.795   9.005   6.164
 3895POPC   GL250462   9.831   9.076   6.164
 3895POPC   C1A50463   9.767   8.955   6.464
 3895POPC   D2A50464   9.779   8.929   6.764
 3895POPC   C3A50465   9.726   9.021   7.064
 3895POPC   C4A50466   9.715   8.941   7.364
 3895POPC   C1B50467   9.956   9.085   6.464
 3895POPC   C2B50468   9.987   9.183   6.764
 3895POPC   C3B50469   9.962   9.110   7.064
 3895POPC   C4B50470   9.973   9.176   7.364
 3896POPC   NC350471   9.010  28.353   5.564
 3896POPC   PO450472   8.933  28.335   5.864
 3896POPC   GL150473   8.983  28.340   6.164
 3896POPC   GL250474   8.948  28.247   6.164
 3896POPC   C1A50475   8.997  28.368   6.464
 3896POPC   D2A50476   8.947  28.342   6.764
 3896POPC   C3A50477   8.983  28.410   7.064
 3896POPC   C4A50478   8.923  28.368   7.364
 3896POPC   C1B50479   8.886  28.137   6.464
 3896POPC   C2B50480   8.877  28.101   6.764
 3896POPC   C3B50481   8.926  28.090   7.064
 3896POPC   C4B50482   8.935  28.132   7.364
 3897POPC   NC350483  33.056   2.734   5.564
 3897POPC   PO450484  33.036   2.775   5.864
 3897POPC   GL150485  33.046   2.812   6.164
 3897POPC   GL250486  32.993   2.675   6.164
 3897POPC   C1A50487  33.060   2.765   6.464
 3897POPC   D2A50488  33.021   2.797   6.764
 3897POPC   C3A50489  33.013   2.741   7.064
 3897POPC   C4A50490  33.025   2.751   7.364
 3897POPC   C1B50491  32.826   2.532   6.464
 3897POPC   C2B50492  32.868   2.577   6.764
 3897POPC   C3B50493  32.883   2.523   7.064
 3897POPC   C4B50494  32.907   2.609   7.364
 3898POPC   NC350495  42.332   0.409   5.564
 3898POPC   PO450496  42.285   0.482   5.864
 3898POPC   GL150497  42.380   0.475   6.164
 3898POPC   GL250498  42.319   0.575   6.164
 3898POPC   C1A50499  42.323   0.398   6.464
 3898POPC   D2A50500  42.359   0.477   6.764
 3898POPC   C3A50501  42.335   0.439   7.064
 3898POPC   C4A50502  42.325   0.466   7.364
 3898POPC   C1B50503  42.316   0.726   6.464
 3898POPC   C2B50504  42.237   0.666   6.764
 3898POPC   C3B50505  42.236   0.682   7.064
 3898POPC   C4B50506  42.296   0.715   7.364
 3899POPC   NC350507  15.942  40.034   5.564
 3899POPC   PO450508  15.942  40.009   5.864
 3899POPC   GL150509  15.937  40.003   6.164
 3899POPC   GL250510  15.884  40.105   6.164
 3899POPC   C1A50511  15.937  40.039   6.464
 3899POPC   D2A50512  15.957  40.038   6.764
 3899POPC   C3A50513  15.906  39.995   7.064
 3899POPC   C4A50514  15.952  40.017   7.364
 3899POPC   C1B50515  15.796  40.209   6.464
 3899POPC   C2B50516  15.744  40.127   6.764
 3899POPC   C3B50517  15.748  40.208   7.064
 3899POPC   C4B50518  15.730  40.123   7.364
 3900POPC   NC350519  34.593  10.514   5.564
 3900POPC   PO450520  34.566  10.485   5.864
 3900POPC   GL150521  34.612  10.524   6.164
 3900POPC   GL250522  34.426  10.567   6.164
 3900POPC   C1A50523  34.527  10.543   6.464
 3900POPC   D2A50524  34.575  10.545   6.764
 3900POPC   C3A50525  34.533  10.545   7.064
 3900POPC   C4A50526  34.584  10.553   7.364
 3900POPC   C1B50527  34.326  10.563   6.464
 3900POPC   C2B50528  34.278  10.546   6.764
 3900POPC   C3B50529  34.304  10.555   7.064
 3900POPC   C4B50530  34.319  10.540   7.364
 3901POPC   NC350531   9.774   5.072   5.564
 3901POPC   PO450532   9.737   5.088   5.864
 3901POPC   GL150533   9.769   5.105   6.164
 3901POPC   GL250534   9.901   5.103   6.164
 3901POPC   C1A50535   9.797   5.104   6.464
 3901POPC   D2A50536   9.736   5.072   6.764
 3901POPC   C3A50537   9.762   5.056   7.064
 3901POPC   C4A50538   9.792   5.141   7.364
 3901POPC   C1B50539   9.974   5.034   6.464
 3901POPC   C2B50540  10.031   4.985   6.764
 3901POPC   C3B50541   9.980   4.997   7.064
 3901POPC   C4B50542  10.015   5.037   7.364
 3902POPC   NC350543   3.584   3.557   5.564
 3902POPC   PO450544   3.540   3.529   5.864
 3902POPC   GL150545   3.533   3.582   6.164
 3902POPC   GL250546   3.465   3.585   6.164
 3902POPC   C1A50547   3.558   3.570   6.464
 3902POPC   D2A50548   3.534   3.573   6.764
 3902POPC   C3A50549   3.557   3.525   7.064
 3902POPC   C4A50550   3.517   3.520   7.364
 3902POPC   C1B50551   3.292   3.521   6.464
 3902POPC   C2B50552   3.293   3.567   6.764
 3902POPC   C3B50553   3.269   3.501   7.064
 3902POPC   C4B50554   3.317   3.485   7.364
 3903POPC   NC350555   2.800  39.254   5.564
 3903POPC   PO450556   2.718  39.225   5.864
 3903POPC   GL150557   2.721  39.194   6.164
 3903POPC   GL250558   2.802  39.318   6.164
 3903POPC   C1A50559   2.802  39.187   6.464
 3903POPC   D2A50560   2.754  39.188   6.764
 3903POPC   C3A50561   2.748  39.275   7.064
 3903POPC   C4A50562   2.724  39.259   7.364
 3903POPC   C1B50563   2.730  39.492   6.464
 3903POPC   C2B50564   2.728  39.434   6.764
 3903POPC   C3B50565   2.825  39.521   7.064
 3903POPC   C4B50566   2.797  39.446   7.364
 3904POPC   NC350567   8.970  12.081   5.564
 3904POPC   PO450568   9.004  12.104   5.864
 3904POPC   GL150569   9.012  12.079   6.164
 3904POPC   GL250570   8.896  12.060   6.164
 3904POPC   C1A50571   8.992  12.124   6.464
 3904POPC   D2A50572   8.924  12.090   6.764
 3904POPC   C3A50573   8.998  12.069   7.064
 3904POPC   C4A50574   9.011  12.067   7.364
 3904POPC   C1B50575   8.730  12.086   6.464
 3904POPC   C2B50576   8.764  12.107   6.764
 3904POPC   C3B50577   8.774  12.153   7.064
 3904POPC   C4B50578   8.700  12.102   7.364
 3905POPC   NC350579  41.528   1.256   5.564
 3905POPC   PO450580  41.529   1.216   5.864
 3905POPC   GL150581  41.607   1.176   6.164
 3905POPC   GL250582  41.548   1.376   6.164
 3905POPC   C1A50583  41.594   1.218   6.464
 3905POPC   D2A50584  41.556   1.210   6.764
 3905POPC   C3A50585  41.588   1.241   7.064
 3905POPC   C4A50586  41.575   1.186   7.364
 3905POPC   C1B50587  41.602   1.471   6.464
 3905POPC   C2B50588  41.607   1.445   6.764
 3905POPC   C3B50589  41.588   1.424   7.064
 3905POPC   C4B50590  41.621   1.416   7.364
 3906POPC   NC350591  21.409  21.353   5.564
 3906POPC   PO450592  21.379  21.355   5.864
 3906POPC   GL150593  21.409  21.372   6.164
 3906POPC   GL250594  21.518  21.382   6.164
 3906POPC   C1A50595  21.378  21.340   6.464
 3906POPC   D2A50596  21.427  21.419   6.764
 3906POPC   C3A50597  21.430  21.409   7.064
 3906POPC   C4A50598  21.393  21.382   7.364
 3906POPC   C1B50599  21.591  21.321   6.464
 3906POPC   C2B50600  21.621  21.303   6.764
 3906POPC   C3B50601  21.634  21.288   7.064
 3906POPC   C4B50602  21.591  21.366   7.364
 3907POPC   NC350603  19.817  12.858   5.564
 3907POPC   PO450604  19.803  12.890   5.864
 3907POPC   GL150605  19.809  12.840   6.164
 3907POPC   GL250606  19.894  12.680   6.164
 3907POPC   C1A50607  19.829  12.860   6.464
 3907POPC   D2A50608  19.813  12.811   6.764
 3907POPC   C3A50609  19.852  12.867   7.064
 3907POPC   C4A50610  19.819  12.861   7.364
 3907POPC   C1B50611  19.844  12.572   6.464
 3907POPC   C2B50612  19.867  12.615   6.764
 3907POPC   C3B50613  19.858  12.565   7.064
 3907POPC   C4B50614  19.826  12.573   7.364
 3908POPC   NC350615  44.699   5.087   5.564
 3908POPC   PO450616  44.706   5.110   5.864
 3908POPC   GL150617  44.700   5.051   6.164
 3908POPC   GL250618  44.510   5.077   6.164
 3908POPC   C1A50619  44.649   5.121   6.464
 3908POPC   D2A50620  44.695   5.084   6.764
 3908POPC   C3A50621  44.684   5.137   7.064
 3908POPC   C4A50622  44.633   5.079   7.364
 3908POPC   C1B50623  44.459   5.162   6.464
 3908POPC   C2B50624  44.429   5.075   6.764
 3908POPC   C3B50625  44.429   5.085   7.064
 3908POPC   C4B50626  44.371   5.130   7.364
 3909POPC   NC350627  17.541  29.871   5.564
 3909POPC   PO450628  17.483  29.945   5.864
 3909POPC   GL150629  17.483  29.965   6.164
 3909POPC   GL250630  17.613  29.941   6.164
 3909POPC   C1A50631  17.483  29.968   6.464
 3909POPC   D2A50632  17.537  29.872   6.764
 3909POPC   C3A50633  17.551  29.890   7.064
 3909POPC   C4A50634  17.500  29.893   7.364
 3909POPC   C1B50635  17.753  29.908   6.464
 3909POPC   C2B50636  17.712  29.847   6.764
 3909POPC   C3B50637  17.705  29.909   7.064
 3909POPC   C4B50638  17.760  29.830   7.364
 3910POPC   NC350639  19.080  18.303   5.564
 3910POPC   PO450640  19.091  18.306   5.864
 3910POPC   GL150641  19.102  18.270   6.164
 3910POPC   GL250642  19.041  18.395   6.164
 3910POPC   C1A50643  19.039  18.303   6.464
 3910POPC   D2A50644  19.039  18.234   6.764
 3910POPC   C3A50645  19.052  18.292   7.064
 3910POPC   C4A50646  19.074  18.261   7.364
 3910POPC   C1B50647  19.049  18.487   6.464
 3910POPC   C2B50648  19.053  18.496   6.764
 3910POPC   C3B50649  19.112  18.489   7.064
 3910POPC   C4B50650  19.116  18.555   7.364
 3911POPC   NC350651  30.716   1.235   5.564
 3911POPC   PO450652  30.709   1.182   5.864
 3911POPC   GL150653  30.728   1.206   6.164
 3911POPC   GL250654  30.848   1.214   6.164
 3911POPC   C1A50655  30.701   1.187   6.464
 3911POPC   D2A50656  30.697   1.179   6.764
 3911POPC   C3A50657  30.662   1.263   7.064
 3911POPC   C4A50658  30.652   1.169   7.364
 3911POPC   C1B50659  30.971   1.264   6.464
 3911POPC   C2B50660  30.957   1.199   6.764
 3911POPC   C3B50661  30.908   1.266   7.064
 3911POPC   C4B50662  30.940   1.226   7.364
 3912POPC   NC350663  15.929  38.434   5.564
 3912POPC   PO450664  15.943  38.503   5.864
 3912POPC   GL150665  15.938  38.482   6.164
 3912POPC   GL250666  16.043  38.563   6.164
 3912POPC   C1A50667  15.934  38.491   6.464
 3912POPC   D2A50668  15.948  38.469   6.764
 3912POPC   C3A50669  15.973  38.444   7.064
 3912POPC   C4A50670  15.966  38.470   7.364
 3912POPC   C1B50671  16.115  38.608   6.464
 3912POPC   C2B50672  16.191  38.639   6.764
 3912POPC   C3B50673  16.183  38.654   7.064
 3912POPC   C4B50674  16.162  38.636   7.364
 3913POPC   NC350675  39.235   9.732   5.564
 3913POPC   PO450676  39.190   9.729   5.864
 3913POPC   GL150677  39.204   9.770   6.164
 3913POPC   GL250678  39.324   9.790   6.164
 3913POPC   C1A50679  39.279   9.704   6.464
 3913POPC   D2A50680  39.234   9.793   6.764
 3913POPC   C3A50681  39.226   9.763   7.064
 3913POPC   C4A50682  39.237   9.784   7.364
 3913POPC   C1B50683  39.495   9.861   6.464
 3913POPC   C2B50684  39.435   9.882   6.764
 3913POPC   C3B50685  39.430   9.905   7.064
 3913POPC   C4B50686  39.431   9.855   7.364
 3914POPC   NC350687  35.342  36.092   5.564
 3914POPC   PO450688  35.336  36.159   5.864
 3914POPC   GL150689  35.358  36.113   6.164
 3914POPC   GL250690  35.417  36.158   6.164
 3914POPC   C1A50691  35.338  36.139   6.464
 3914POPC   D2A50692  35.315  36.133   6.764
 3914POPC   C3A50693  35.399  36.168   7.064
 3914POPC   C4A50694  35.365  36.079   7.364
 3914POPC   C1B50695  35.596  36.222   6.464
 3914POPC   C2B50696  35.607  36.245   6.764
 3914POPC   C3B50697  35.544  36.257   7.064
 3914POPC   C4B50698  35.592  36.253   7.364
 3915POPC   NC350699   7.384  17.483   5.564
 3915POPC   PO450700   7.452  17.485   5.864
 3915POPC   GL150701   7.413  17.543   6.164
 3915POPC   GL250702   7.539  17.392   6.164
 3915POPC   C1A50703   7.422  17.463   6.464
 3915POPC   D2A50704   7.439  17.547   6.764
 3915POPC   C3A50705   7.421  17.549   7.064
 3915POPC   C4A50706   7.384  17.504   7.364
 3915POPC   C1B50707   7.580  17.371   6.464
 3915POPC   C2B50708   7.622  17.350   6.764
 3915POPC   C3B50709   7.646  17.375   7.064
 3915POPC   C4B50710   7.653  17.338   7.364
 3916POPC   NC350711  36.953  24.510   5.564
 3916POPC   PO450712  36.913  24.444   5.864
 3916POPC   GL150713  36.903  24.441   6.164
 3916POPC   GL250714  36.763  24.507   6.164
 3916POPC   C1A50715  36.936  24.441   6.464
 3916POPC   D2A50716  36.868  24.506   6.764
 3916POPC   C3A50717  36.906  24.502   7.064
 3916POPC   C4A50718  36.910  24.465   7.364
 3916POPC   C1B50719  36.677  24.541   6.464
 3916POPC   C2B50720  36.651  24.486   6.764
 3916POPC   C3B50721  36.615  24.494   7.064
 3916POPC   C4B50722  36.680  24.538   7.364
 3917POPC   NC350723  32.993   7.387   5.564
 3917POPC   PO450724  33.069   7.374   5.864
 3917POPC   GL150725  33.030   7.439   6.164
 3917POPC   GL250726  33.113   7.431   6.164
 3917POPC   C1A50727  33.000   7.455   6.464
 3917POPC   D2A50728  33.005   7.441   6.764
 3917POPC   C3A50729  32.986   7.446   7.064
 3917POPC   C4A50730  33.012   7.468   7.364
 3917POPC   C1B50731  33.238   7.309   6.464
 3917POPC   C2B50732  33.298   7.336   6.764
 3917POPC   C3B50733  33.295   7.327   7.064
 3917POPC   C4B50734  33.241   7.404   7.364
 3918POPC   NC350735  21.363  33.001   5.564
 3918POPC   PO450736  21.392  33.012   5.864
 3918POPC   GL150737  21.386  32.989   6.164
 3918POPC   GL250738  21.305  32.991   6.164
 3918POPC   C1A50739  21.339  32.996   6.464
 3918POPC   D2A50740  21.382  33.010   6.764
 3918POPC   C3A50741  21.343  32.984   7.064
 3918POPC   C4A50742  21.417  32.986   7.364
 3918POPC   C1B50743  21.117  33.000   6.464
 3918POPC   C2B50744  21.175  32.991   6.764
 3918POPC   C3B50745  21.142  33.033   7.064
 3918POPC   C4B50746  21.171  33.014   7.364
 3919POPC   NC350747  21.388  29.113   5.564
 3919POPC   PO450748  21.434  29.194   5.864
 3919POPC   GL150749  21.430  29.152   6.164
 3919POPC   GL250750  21.449  29.082   6.164
 3919POPC   C1A50751  21.356  29.122   6.464
 3919POPC   D2A50752  21.350  29.159   6.764
 3919POPC   C3A50753  21.368  29.160   7.064
 3919POPC   C4A50754  21.391  29.161   7.364
 3919POPC   C1B50755  21.632  29.009   6.464
 3919POPC   C2B50756  21.566  28.990   6.764
 3919POPC   C3B50757  21.609  28.962   7.064
 3919POPC   C4B50758  21.570  29.017   7.364
 3920POPC   NC350759   5.889   6.636   5.564
 3920POPC   PO450760   5.881   6.682   5.864
 3920POPC   GL150761   5.910   6.611   6.164
 3920POPC   GL250762   5.728   6.658   6.164
 3920POPC   C1A50763   5.844   6.624   6.464
 3920POPC   D2A50764   5.862   6.661   6.764
 3920POPC   C3A50765   5.874   6.667   7.064
 3920POPC   C4A50766   5.905   6.646   7.364
 3920POPC   C1B50767   5.637   6.743   6.464
 3920POPC   C2B50768   5.629   6.776   6.764
 3920POPC   C3B50769   5.658   6.761   7.064
 3920POPC   C4B50770   5.611   6.691   7.364
 3921POPC   NC350771  15.964  12.085   5.564
 3921POPC   PO450772  15.934  12.083   5.864
 3921POPC   GL150773  15.978  12.120   6.164
 3921POPC   GL250774  15.815  12.090   6.164
 3921POPC   C1A50775  15.970  12.060   6.464
 3921POPC   D2A50776  15.924  12.027   6.764
 3921POPC   C3A50777  15.965  12.031   7.064
 3921POPC   C4A50778  15.950  12.046   7.364
 3921POPC   C1B50779  15.697  12.205   6.464
 3921POPC   C2B50780  15.737  12.157   6.764
 3921POPC   C3B50781  15.687  12.205   7.064
 3921POPC   C4B50782  15.693  12.183   7.364
 3922POPC   NC350783  34.571  30.743   5.564
 3922POPC   PO450784  34.578  30.664   5.864
 3922POPC   GL150785  34.526  30.659   6.164
 3922POPC   GL250786  34.424  30.724   6.164
 3922POPC   C1A50787  34.550  30.676   6.464
 3922POPC   D2A50788  34.535  30.697   6.764
 3922POPC   C3A50789  34.612  30.655   7.064
 3922POPC   C4A50790  34.545  30.731   7.364
 3922POPC   C1B50791  34.370  30.752   6.464
 3922POPC   C2B50792  34.371  30.695   6.764
 3922POPC   C3B50793  34.340  30.692   7.064
 3922POPC   C4B50794  34.302  30.779   7.364
 3923POPC   NC350795  21.402  41.569   5.564
 3923POPC   PO450796  21.339  41.583   5.864
 3923POPC   GL150797  21.346  41.533   6.164
 3923POPC   GL250798  21.354  41.425   6.164
 3923POPC   C1A50799  21.370  41.580   6.464
 3923POPC   D2A50800  21.342  41.514   6.764
 3923POPC   C3A50801  21.430  41.585   7.064
 3923POPC   C4A50802  21.339  41.526   7.364
 3923POPC   C1B50803  21.212  41.375   6.464
 3923POPC   C2B50804  21.236  41.335   6.764
 3923POPC   C3B50805  21.235  41.323   7.064
 3923POPC   C4B50806  21.296  41.349   7.364
 3924POPC   NC350807  19.045  25.286   5.564
 3924POPC   PO450808  19.028  25.257   5.864
 3924POPC   GL150809  19.017  25.305   6.164
 3924POPC   GL250810  18.993  25.335   6.164
 3924POPC   C1A50811  19.071  25.293   6.464
 3924POPC   D2A50812  19.100  25.282   6.764
 3924POPC   C3A50813  19.072  25.235   7.064
 3924POPC   C4A50814  19.088  25.302   7.364
 3924POPC   C1B50815  18.844  25.399   6.464
 3924POPC   C2B50816  18.812  25.344   6.764
 3924POPC   C3B50817  18.869  25.345   7.064
 3924POPC   C4B50818  18.864  25.362   7.364
 3925POPC   NC350819  16.750  40.773   5.564
 3925POPC   PO450820  16.724  40.792   5.864
 3925POPC   GL150821  16.779  40.795   6.164
 3925POPC   GL250822  16.714  40.666   6.164
 3925POPC   C1A50823  16.749  40.810   6.464
 3925POPC   D2A50824  16.758  40.816   6.764
 3925POPC   C3A50825  16.726  40.757   7.064
 3925POPC   C4A50826  16.688  40.760   7.364
 3925POPC   C1B50827  16.827  40.565   6.464
 3925POPC   C2B50828  16.778  40.550   6.764
 3925POPC   C3B50829  16.816  40.525   7.064
 3925POPC   C4B50830  16.783  40.549   7.364
 3926POPC   NC350831  36.953  20.611   5.564
 3926POPC   PO450832  36.872  20.589   5.864
 3926POPC   GL150833  36.925  20.641   6.164
 3926POPC   GL250834  37.029  20.535   6.164
 3926POPC   C1A50835  36.933  20.627   6.464
 3926POPC   D2A50836  36.937  20.642   6.764
 3926POPC   C3A50837  36.910  20.565   7.064
 3926POPC   C4A50838  36.869  20.624   7.364
 3926POPC   C1B50839  37.166  20.498   6.464
 3926POPC   C2B50840  37.093  20.521   6.764
 3926POPC   C3B50841  37.146  20.554   7.064
 3926POPC   C4B50842  37.094  20.514   7.364
 3927POPC   NC350843  12.049  15.911   5.564
 3927POPC   PO450844  12.089  15.938   5.864
 3927POPC   GL150845  12.107  15.972   6.164
 3927POPC   GL250846  12.093  15.858   6.164
 3927POPC   C1A50847  12.034  15.924   6.464
 3927POPC   D2A50848  12.063  15.997   6.764
 3927POPC   C3A50849  12.091  15.989   7.064
 3927POPC   C4A50850  12.118  15.910   7.364
 3927POPC   C1B50851  12.151  15.756   6.464
 3927POPC   C2B50852  12.125  15.759   6.764
 3927POPC   C3B50853  12.194  15.762   7.064
 3927POPC   C4B50854  12.117  15.695   7.364
 3928POPC   NC350855  26.857  12.096   5.564
 3928POPC   PO450856  26.829  12.120   5.864
 3928POPC   GL150857  26.845  12.100   6.164
 3928POPC   GL250858  26.781  12.222   6.164
 3928POPC   C1A50859  26.860  12.051   6.464
 3928POPC   D2A50860  26.775  12.113   6.764
 3928POPC   C3A50861  26.789  12.070   7.064
 3928POPC   C4A50862  26.790  12.037   7.364
 3928POPC   C1B50863  26.673  12.280   6.464
 3928POPC   C2B50864  26.708  12.268   6.764
 3928POPC   C3B50865  26.696  12.261   7.064
 3928POPC   C4B50866  26.639  12.285   7.364
 3929POPC   NC350867   5.121  15.934   5.564
 3929POPC   PO450868   5.065  15.979   5.864
 3929POPC   GL150869   5.138  15.964   6.164
 3929POPC   GL250870   5.129  15.877   6.164
 3929POPC   C1A50871   5.120  15.950   6.464
 3929POPC   D2A50872   5.070  15.966   6.764
 3929POPC   C3A50873   5.050  16.002   7.064
 3929POPC   C4A50874   5.114  15.957   7.364
 3929POPC   C1B50875   5.084  15.708   6.464
 3929POPC   C2B50876   5.067  15.733   6.764
 3929POPC   C3B50877   5.126  15.704   7.064
 3929POPC   C4B50878   5.128  15.701   7.364
 3930POPC   NC350879   5.137  17.511   5.564
 3930POPC   PO450880   5.047  17.500   5.864
 3930POPC   GL150881   5.080  17.539   6.164
 3930POPC   GL250882   4.965  17.565   6.164
 3930POPC   C1A50883   5.098  17.541   6.464
 3930POPC   D2A50884   5.127  17.473   6.764
 3930POPC   C3A50885   5.088  17.516   7.064
 3930POPC   C4A50886   5.125  17.528   7.364
 3930POPC   C1B50887   4.897  17.690   6.464
 3930POPC   C2B50888   4.908  17.664   6.764
 3930POPC   C3B50889   4.944  17.688   7.064
 3930POPC   C4B50890   4.894  17.680   7.364
 3931POPC   NC350891   0.399  15.915   5.564
 3931POPC   PO450892   0.443  15.994   5.864
 3931POPC   GL150893   0.398  15.953   6.164
 3931POPC   GL250894   0.553  15.866   6.164
 3931POPC   C1A50895   0.418  15.933   6.464
 3931POPC   D2A50896   0.450  15.939   6.764
 3931POPC   C3A50897   0.421  15.990   7.064
 3931POPC   C4A50898   0.439  15.991   7.364
 3931POPC   C1B50899   0.603  15.724   6.464
 3931POPC   C2B50900   0.598  15.721   6.764
 3931POPC   C3B50901   0.587  15.790   7.064
 3931POPC   C4B50902   0.526  15.698   7.364
 3932POPC   NC350903  43.114   1.955   5.564
 3932POPC   PO450904  43.092   2.019   5.864
 3932POPC   GL150905  43.158   2.014   6.164
 3932POPC   GL250906  43.243   1.948   6.164
 3932POPC   C1A50907  43.071   2.030   6.464
 3932POPC   D2A50908  43.145   1.967   6.764
 3932POPC   C3A50909  43.132   2.022   7.064
 3932POPC   C4A50910  43.079   1.954   7.364
 3932POPC   C1B50911  43.317   1.867   6.464
 3932POPC   C2B50912  43.326   1.852   6.764
 3932POPC   C3B50913  43.351   1.862   7.064
 3932POPC   C4B50914  43.318   1.855   7.364
 3933POPC   NC350915   7.457   7.392   5.564
 3933POPC   PO450916   7.409   7.409   5.864
 3933POPC   GL150917   7.423   7.405   6.164
 3933POPC   GL250918   7.513   7.474   6.164
 3933POPC   C1A50919   7.443   7.387   6.464
 3933POPC   D2A50920   7.458   7.387   6.764
 3933POPC   C3A50921   7.413   7.424   7.064
 3933POPC   C4A50922   7.427   7.384   7.364
 3933POPC   C1B50923   7.584   7.647   6.464
 3933POPC   C2B50924   7.618   7.583   6.764
 3933POPC   C3B50925   7.593   7.664   7.064
 3933POPC   C4B50926   7.591   7.663   7.364
 3934POPC   NC350927  40.801   4.311   5.564
 3934POPC   PO450928  40.799   4.283   5.864
 3934POPC   GL150929  40.758   4.366   6.164
 3934POPC   GL250930  40.726   4.210   6.164
 3934POPC   C1A50931  40.743   4.342   6.464
 3934POPC   D2A50932  40.812   4.328   6.764
 3934POPC   C3A50933  40.796   4.305   7.064
 3934POPC   C4A50934  40.751   4.331   7.364
 3934POPC   C1B50935  40.773   4.104   6.464
 3934POPC   C2B50936  40.771   4.036   6.764
 3934POPC   C3B50937  40.709   4.095   7.064
 3934POPC   C4B50938  40.745   4.050   7.364
 3935POPC   NC350939  14.397   8.942   5.564
 3935POPC   PO450940  14.432   8.930   5.864
 3935POPC   GL150941  14.433   8.993   6.164
 3935POPC   GL250942  14.370   8.829   6.164
 3935POPC   C1A50943  14.453   8.999   6.464
 3935POPC   D2A50944  14.371   8.974   6.764
 3935POPC   C3A50945  14.390   8.993   7.064
 3935POPC   C4A50946  14.406   8.994   7.364
 3935POPC   C1B50947  14.295   8.775   6.464
 3935POPC   C2B50948  14.298   8.733   6.764
 3935POPC   C3B50949  14.281   8.763   7.064
 3935POPC   C4B50950  14.275   8.729   7.364
 3936POPC   NC350951  39.205  18.275   5.564
 3936POPC   PO450952  39.253  18.239   5.864
 3936POPC   GL150953  39.206  18.254   6.164
 3936POPC   GL250954  39.133  18.277   6.164
 3936POPC   C1A50955  39.205  18.272   6.464
 3936POPC   D2A50956  39.204  18.332   6.764
 3936POPC   C3A50957  39.233  18.267   7.064
 3936POPC   C4A50958  39.189  18.243   7.364
 3936POPC   C1B50959  39.024  18.252   6.464
 3936POPC   C2B50960  39.018  18.304   6.764
 3936POPC   C3B50961  38.952  18.248   7.064
 3936POPC   C4B50962  38.963  18.279   7.364
 3937POPC   NC350963   1.212  36.168   5.564
 3937POPC   PO450964   1.228  36.163   5.864
 3937POPC   GL150965   1.206  36.144   6.164
 3937POPC   GL250966   1.176  36.017   6.164
 3937POPC   C1A50967   1.169  36.118   6.464
 3937POPC   D2A50968   1.224  36.167   6.764
 3937POPC   C3A50969   1.170  36.151   7.064
 3937POPC   C4A50970   1.243  36.150   7.364
 3937POPC   C1B50971   1.051  35.925   6.464
 3937POPC   C2B50972   1.068  35.884   6.764
 3937POPC   C3B50973   1.123  35.918   7.064
 3937POPC   C4B50974   1.077  35.938   7.364
 3938POPC   NC350975  28.346  25.240   5.564
 3938POPC   PO450976  28.368  25.241   5.864
 3938POPC   GL150977  28.377  25.218   6.164
 3938POPC   GL250978  28.333  25.358   6.164
 3938POPC   C1A50979  28.393  25.253   6.464
 3938POPC   D2A50980  28.364  25.233   6.764
 3938POPC   C3A50981  28.392  25.248   7.064
 3938POPC   C4A50982  28.376  25.271   7.364
 3938POPC   C1B50983  28.338  25.519   6.464
 3938POPC   C2B50984  28.420  25.543   6.764
 3938POPC   C3B50985  28.342  25.475   7.064
 3938POPC   C4B50986  28.391  25.563   7.364
 3939POPC   NC350987  25.312  26.851   5.564
 3939POPC   PO450988  25.285  26.775   5.864
 3939POPC   GL150989  25.246  26.845   6.164
 3939POPC   GL250990  25.370  26.874   6.164
 3939POPC   C1A50991  25.279  26.828   6.464
 3939POPC   D2A50992  25.287  26.825   6.764
 3939POPC   C3A50993  25.244  26.791   7.064
 3939POPC   C4A50994  25.246  26.803   7.364
 3939POPC   C1B50995  25.429  26.960   6.464
 3939POPC   C2B50996  25.507  26.912   6.764
 3939POPC   C3B50997  25.447  26.942   7.064
 3939POPC   C4B50998  25.443  26.950   7.364
 3940POPC   NC350999  36.117  31.458   5.564
 3940POPC   PO451000  36.173  31.462   5.864
 3940POPC   GL151001  36.111  31.486   6.164
 3940POPC   GL251002  36.216  31.534   6.164
 3940POPC   C1A51003  36.086  31.457   6.464
 3940POPC   D2A51004  36.095  31.474   6.764
 3940POPC   C3A51005  36.097  31.482   7.064
 3940POPC   C4A51006  36.092  31.428   7.364
 3940POPC   C1B51007  36.402  31.567   6.464
 3940POPC   C2B51008  36.401  31.481   6.764
 3940POPC   C3B51009  36.356  31.499   7.064
 3940POPC   C4B51010  36.380  31.565   7.364
 3941POPC   NC351011  15.937  20.579   5.564
 3941POPC   PO451012  15.968  20.612   5.864
 3941POPC   GL151013  16.004  20.606   6.164
 3941POPC   GL251014  15.902  20.493   6.164
 3941POPC   C1A51015  15.951  20.582   6.464
 3941POPC   D2A51016  15.969  20.657   6.764
 3941POPC   C3A51017  15.998  20.650   7.064
 3941POPC   C4A51018  15.998  20.592   7.364
 3941POPC   C1B51019  15.831  20.371   6.464
 3941POPC   C2B51020  15.837  20.412   6.764
 3941POPC   C3B51021  15.838  20.394   7.064
 3941POPC   C4B51022  15.838  20.401   7.364
 3942POPC   NC351023  42.377  14.365   5.564
 3942POPC   PO451024  42.306  14.421   5.864
 3942POPC   GL151025  42.306  14.370   6.164
 3942POPC   GL251026  42.333  14.484   6.164
 3942POPC   C1A51027  42.312  14.377   6.464
 3942POPC   D2A51028  42.296  14.425   6.764
 3942POPC   C3A51029  42.329  14.354   7.064
 3942POPC   C4A51030  42.326  14.443   7.364
 3942POPC   C1B51031  42.329  14.682   6.464
 3942POPC   C2B51032  42.297  14.659   6.764
 3942POPC   C3B51033  42.345  14.645   7.064
 3942POPC   C4B51034  42.343  14.642   7.364
 3943POPC   NC351035  21.338   0.438   5.564
 3943POPC   PO451036  21.412   0.445   5.864
 3943POPC   GL151037  21.403   0.429   6.164
 3943POPC   GL251038  21.312   0.365   6.164
 3943POPC   C1A51039  21.425   0.438   6.464
 3943POPC   D2A51040  21.432   0.390   6.764
 3943POPC   C3A51041  21.403   0.427   7.064
 3943POPC   C4A51042  21.410   0.410   7.364
 3943POPC   C1B51043  21.335   0.161   6.464
 3943POPC   C2B51044  21.317   0.244   6.764
 3943POPC   C3B51045  21.330   0.211   7.064
 3943POPC   C4B51046  21.267   0.218   7.364
 3944POPC   NC351047  26.849  33.751   5.564
 3944POPC   PO451048  26.810  33.844   5.864
 3944POPC   GL151049  26.818  33.805   6.164
 3944POPC   GL251050  26.796  33.910   6.164
 3944POPC   C1A51051  26.840  33.804   6.464
 3944POPC   D2A51052  26.836  33.792   6.764
 3944POPC   C3A51053  26.776  33.841   7.064
 3944POPC   C4A51054  26.785  33.777   7.364
 3944POPC   C1B51055  26.702  33.998   6.464
 3944POPC   C2B51056  26.688  34.000   6.764
 3944POPC   C3B51057  26.677  34.061   7.064
 3944POPC   C4B51058  26.737  34.038   7.364
 3945POPC   NC351059  37.636  36.164   5.564
 3945POPC   PO451060  37.676  36.094   5.864
 3945POPC   GL151061  37.655  36.104   6.164
 3945POPC   GL251062  37.664  36.271   6.164
 3945POPC   C1A51063  37.679  36.162   6.464
 3945POPC   D2A51064  37.662  36.114   6.764
 3945POPC   C3A51065  37.664  36.113   7.064
 3945POPC   C4A51066  37.639  36.140   7.364
 3945POPC   C1B51067  37.770  36.406   6.464
 3945POPC   C2B51068  37.741  36.353   6.764
 3945POPC   C3B51069  37.700  36.365   7.064
 3945POPC   C4B51070  37.754  36.373   7.364
 3946POPC   NC351071  14.442   5.097   5.564
 3946POPC   PO451072  14.411   5.056   5.864
 3946POPC   GL151073  14.451   5.095   6.164
 3946POPC   GL251074  14.498   5.067   6.164
 3946POPC   C1A51075  14.419   5.097   6.464
 3946POPC   D2A51076  14.422   5.119   6.764
 3946POPC   C3A51077  14.444   5.107   7.064
 3946POPC   C4A51078  14.406   5.130   7.364
 3946POPC   C1B51079  14.676   5.137   6.464
 3946POPC   C2B51080  14.699   5.163   6.764
 3946POPC   C3B51081  14.642   5.096   7.064
 3946POPC   C4B51082  14.617   5.183   7.364
 3947POPC   NC351083  28.334   0.457   5.564
 3947POPC   PO451084  28.378   0.410   5.864
 3947POPC   GL151085  28.369   0.399   6.164
 3947POPC   GL251086  28.301   0.364   6.164
 3947POPC   C1A51087  28.355   0.436   6.464
 3947POPC   D2A51088  28.385   0.476   6.764
 3947POPC   C3A51089  28.388   0.397   7.064
 3947POPC   C4A51090  28.359   0.437   7.364
 3947POPC   C1B51091  28.188   0.233   6.464
 3947POPC   C2B51092  28.220   0.207   6.764
 3947POPC   C3B51093  28.198   0.230   7.064
 3947POPC   C4B51094  28.163   0.291   7.364
 3948POPC   NC351095   0.440  19.795   5.564
 3948POPC   PO451096   0.456  19.878   5.864
 3948POPC   GL151097   0.434  19.789   6.164
 3948POPC   GL251098   0.268  19.880   6.164
 3948POPC   C1A51099   0.437  19.796   6.464
 3948POPC   D2A51100   0.445  19.816   6.764
 3948POPC   C3A51101   0.471  19.857   7.064
 3948POPC   C4A51102   0.450  19.841   7.364
 3948POPC   C1B51103   0.221  19.907   6.464
 3948POPC   C2B51104   0.153  19.875   6.764
 3948POPC   C3B51105   0.180  19.935   7.064
 3948POPC   C4B51106   0.164  19.884   7.364
 3949POPC   NC351107   2.766  26.779   5.564
 3949POPC   PO451108   2.787  26.836   5.864
 3949POPC   GL151109   2.806  26.820   6.164
 3949POPC   GL251110   2.794  26.728   6.164
 3949POPC   C1A51111   2.813  26.835   6.464
 3949POPC   D2A51112   2.797  26.820   6.764
 3949POPC   C3A51113   2.786  26.814   7.064
 3949POPC   C4A51114   2.811  26.798   7.364
 3949POPC   C1B51115   2.849  26.587   6.464
 3949POPC   C2B51116   2.826  26.638   6.764
 3949POPC   C3B51117   2.902  26.564   7.064
 3949POPC   C4B51118   2.914  26.621   7.364
 3950POPC   NC351119   8.185  10.519   5.564
 3950POPC   PO451120   8.181  10.480   5.864
 3950POPC   GL151121   8.223  10.526   6.164
 3950POPC   GL251122   8.133  10.441   6.164
 3950POPC   C1A51123   8.204  10.492   6.464
 3950POPC   D2A51124   8.221  10.531   6.764
 3950POPC   C3A51125   8.201  10.513   7.064
 3950POPC   C4A51126   8.224  10.560   7.364
 3950POPC   C1B51127   7.995  10.429   6.464
 3950POPC   C2B51128   7.968  10.357   6.764
 3950POPC   C3B51129   7.942  10.416   7.064
 3950POPC   C4B51130   8.016  10.383   7.364
 3951POPC   NC351131  39.276  29.934   5.564
 3951POPC   PO451132  39.280  29.907   5.864
 3951POPC   GL151133  39.264  29.952   6.164
 3951POPC   GL251134  39.304  29.778   6.164
 3951POPC   C1A51135  39.245  29.925   6.464
 3951POPC   D2A51136  39.209  29.873   6.764
 3951POPC   C3A51137  39.188  29.957   7.064
 3951POPC   C4A51138  39.216  29.929   7.364
 3951POPC   C1B51139  39.272  29.684   6.464
 3951POPC   C2B51140  39.314  29.631   6.764
 3951POPC   C3B51141  39.341  29.681   7.064
 3951POPC   C4B51142  39.335  29.707   7.364
 3952POPC   NC351143  44.687   8.157   5.564
 3952POPC   PO451144  44.668   8.208   5.864
 3952POPC   GL151145  44.711   8.194   6.164
 3952POPC   GL251146  44.744   8.082   6.164
 3952POPC   C1A51147  44.702   8.187   6.464
 3952POPC   D2A51148  44.703   8.170   6.764
 3952POPC   C3A51149  44.649   8.240   7.064
 3952POPC   C4A51150  44.668   8.244   7.364
 3952POPC   C1B51151  44.914   8.041   6.464
 3952POPC   C2B51152  44.837   8.099   6.764
 3952POPC   C3B51153  44.839   8.096   7.064
 3952POPC   C4B51154  44.832   8.049   7.364
 3953POPC   NC351155   2.719  11.338   5.564
 3953POPC   PO451156   2.766  11.325   5.864
 3953POPC   GL151157   2.784  11.254   6.164
 3953POPC   GL251158   2.699  11.354   6.164
 3953POPC   C1A51159   2.739  11.267   6.464
 3953POPC   D2A51160   2.747  11.288   6.764
 3953POPC   C3A51161   2.780  11.307   7.064
 3953POPC   C4A51162   2.739  11.273   7.364
 3953POPC   C1B51163   2.502  11.424   6.464
 3953POPC   C2B51164   2.512  11.371   6.764
 3953POPC   C3B51165   2.589  11.426   7.064
 3953POPC   C4B51166   2.549  11.436   7.364
 3954POPC   NC351167  38.493  37.724   5.564
 3954POPC   PO451168  38.496  37.691   5.864
 3954POPC   GL151169  38.457  37.692   6.164
 3954POPC   GL251170  38.431  37.815   6.164
 3954POPC   C1A51171  38.433  37.636   6.464
 3954POPC   D2A51172  38.445  37.700   6.764
 3954POPC   C3A51173  38.456  37.697   7.064
 3954POPC   C4A51174  38.414  37.726   7.364
 3954POPC   C1B51175  38.429  37.930   6.464
 3954POPC   C2B51176  38.416  37.955   6.764
 3954POPC   C3B51177  38.436  37.907   7.064
 3954POPC   C4B51178  38.490  37.921   7.364
 3955POPC   NC351179  38.487   1.993   5.564
 3955POPC   PO451180  38.429   1.953   5.864
 3955POPC   GL151181  38.421   2.015   6.164
 3955POPC   GL251182  38.540   2.118   6.164
 3955POPC   C1A51183  38.482   2.002   6.464
 3955POPC   D2A51184  38.456   2.014   6.764
 3955POPC   C3A51185  38.464   1.949   7.064
 3955POPC   C4A51186  38.437   2.015   7.364
 3955POPC   C1B51187  38.519   2.184   6.464
 3955POPC   C2B51188  38.537   2.201   6.764
 3955POPC   C3B51189  38.574   2.226   7.064
 3955POPC   C4B51190  38.547   2.250   7.364
 3956POPC   NC351191  40.818  36.142   5.564
 3956POPC   PO451192  40.761  36.085   5.864
 3956POPC   GL151193  40.746  36.110   6.164
 3956POPC   GL251194  40.719  36.221   6.164
 3956POPC   C1A51195  40.815  36.095   6.464
 3956POPC   D2A51196  40.744  36.127   6.764
 3956POPC   C3A51197  40.807  36.112   7.064
 3956POPC   C4A51198  40.749  36.118   7.364
 3956POPC   C1B51199  40.573  36.225   6.464
 3956POPC   C2B51200  40.527  36.288   6.764
 3956POPC   C3B51201  40.549  36.276   7.064
 3956POPC   C4B51202  40.564  36.282   7.364
 3957POPC   NC351203  21.372  26.042   5.564
 3957POPC   PO451204  21.360  26.091   5.864
 3957POPC   GL151205  21.436  26.025   6.164
 3957POPC   GL251206  21.433  26.114   6.164
 3957POPC   C1A51207  21.411  26.081   6.464
 3957POPC   D2A51208  21.388  26.090   6.764
 3957POPC   C3A51209  21.390  26.030   7.064
 3957POPC   C4A51210  21.359  26.090   7.364
 3957POPC   C1B51211  21.527  26.270   6.464
 3957POPC   C2B51212  21.478  26.206   6.764
 3957POPC   C3B51213  21.496  26.247   7.064
 3957POPC   C4B51214  21.568  26.243   7.364
 3958POPC   NC351215  19.808  26.025   5.564
 3958POPC   PO451216  19.857  26.004   5.864
 3958POPC   GL151217  19.796  26.080   6.164
 3958POPC   GL251218  19.903  26.011   6.164
 3958POPC   C1A51219  19.842  26.010   6.464
 3958POPC   D2A51220  19.806  26.091   6.764
 3958POPC   C3A51221  19.795  26.089   7.064
 3958POPC   C4A51222  19.872  26.072   7.364
 3958POPC   C1B51223  20.040  25.906   6.464
 3958POPC   C2B51224  20.060  25.890   6.764
 3958POPC   C3B51225  20.056  25.937   7.064
 3958POPC   C4B51226  20.007  25.871   7.364
 3959POPC   NC351227  25.226  16.004   5.564
 3959POPC   PO451228  25.293  15.920   5.864
 3959POPC   GL151229  25.227  16.000   6.164
 3959POPC   GL251230  25.346  16.048   6.164
 3959POPC   C1A51231  25.239  15.941   6.464
 3959POPC   D2A51232  25.226  16.002   6.764
 3959POPC   C3A51233  25.250  15.949   7.064
 3959POPC   C4A51234  25.311  15.917   7.364
 3959POPC   C1B51235  25.522  16.094   6.464
 3959POPC   C2B51236  25.513  16.071   6.764
 3959POPC   C3B51237  25.469  16.035   7.064
 3959POPC   C4B51238  25.541  16.051   7.364
 3960POPC   NC351239   2.805  34.622   5.564
 3960POPC   PO451240   2.784  34.583   5.864
 3960POPC   GL151241   2.792  34.569   6.164
 3960POPC   GL251242   2.659  34.557   6.164
 3960POPC   C1A51243   2.775  34.551   6.464
 3960POPC   D2A51244   2.771  34.626   6.764
 3960POPC   C3A51245   2.761  34.565   7.064
 3960POPC   C4A51246   2.797  34.542   7.364
 3960POPC   C1B51247   2.588  34.442   6.464
 3960POPC   C2B51248   2.600  34.463   6.764
 3960POPC   C3B51249   2.592  34.407   7.064
 3960POPC   C4B51250   2.525  34.400   7.364
 3961POPC   NC351251  29.156  12.822   5.564
 3961POPC   PO451252  29.186  12.807   5.864
 3961POPC   GL151253  29.159  12.846   6.164
 3961POPC   GL251254  29.180  12.788   6.164
 3961POPC   C1A51255  29.162  12.869   6.464
 3961POPC   D2A51256  29.193  12.845   6.764
 3961POPC   C3A51257  29.135  12.862   7.064
 3961POPC   C4A51258  29.115  12.879   7.364
 3961POPC   C1B51259  29.301  12.669   6.464
 3961POPC   C2B51260  29.315  12.611   6.764
 3961POPC   C3B51261  29.243  12.658   7.064
 3961POPC   C4B51262  29.323  12.649   7.364
 3962POPC   NC351263  16.777   2.796   5.564
 3962POPC   PO451264  16.760   2.804   5.864
 3962POPC   GL151265  16.705   2.756   6.164
 3962POPC   GL251266  16.660   2.852   6.164
 3962POPC   C1A51267  16.767   2.742   6.464
 3962POPC   D2A51268  16.752   2.724   6.764
 3962POPC   C3A51269  16.740   2.763   7.064
 3962POPC   C4A51270  16.681   2.730   7.364
 3962POPC   C1B51271  16.544   2.931   6.464
 3962POPC   C2B51272  16.538   2.877   6.764
 3962POPC   C3B51273  16.484   2.897   7.064
 3962POPC   C4B51274  16.502   2.932   7.364
 3963POPC   NC351275   1.172  43.061   5.564
 3963POPC   PO451276   1.203  43.118   5.864
 3963POPC   GL151277   1.235  43.130   6.164
 3963POPC   GL251278   1.274  42.997   6.164
 3963POPC   C1A51279   1.224  43.121   6.464
 3963POPC   D2A51280   1.202  43.100   6.764
 3963POPC   C3A51281   1.231  43.078   7.064
 3963POPC   C4A51282   1.208  43.098   7.364
 3963POPC   C1B51283   1.359  42.891   6.464
 3963POPC   C2B51284   1.351  42.890   6.764
 3963POPC   C3B51285   1.312  42.883   7.064
 3963POPC   C4B51286   1.358  42.922   7.364
 3964POPC   NC351287  13.670  32.212   5.564
 3964POPC   PO451288  13.588  32.214   5.864
 3964POPC   GL151289  13.654  32.223   6.164
 3964POPC   GL251290  13.788  32.233   6.164
 3964POPC   C1A51291  13.662  32.287   6.464
 3964POPC   D2A51292  13.639  32.292   6.764
 3964POPC   C3A51293  13.663  32.248   7.064
 3964POPC   C4A51294  13.669  32.199   7.364
 3964POPC   C1B51295  13.899  32.282   6.464
 3964POPC   C2B51296  13.907  32.317   6.764
 3964POPC   C3B51297  13.883  32.299   7.064
 3964POPC   C4B51298  13.866  32.238   7.364
 3965POPC   NC351299   0.407   9.699   5.564
 3965POPC   PO451300   0.399   9.772   5.864
 3965POPC   GL151301   0.477   9.723   6.164
 3965POPC   GL251302   0.418   9.893   6.164
 3965POPC   C1A51303   0.402   9.699   6.464
 3965POPC   D2A51304   0.424   9.720   6.764
 3965POPC   C3A51305   0.478   9.769   7.064
 3965POPC   C4A51306   0.415   9.730   7.364
 3965POPC   C1B51307   0.379  10.028   6.464
 3965POPC   C2B51308   0.314   9.959   6.764
 3965POPC   C3B51309   0.346  10.023   7.064
 3965POPC   C4B51310   0.348  10.001   7.364
 3966POPC   NC351311  24.488  23.738   5.564
 3966POPC   PO451312  24.448  23.733   5.864
 3966POPC   GL151313  24.500  23.670   6.164
 3966POPC   GL251314  24.606  23.587   6.164
 3966POPC   C1A51315  24.512  23.684   6.464
 3966POPC   D2A51316  24.512  23.692   6.764
 3966POPC   C3A51317  24.471  23.680   7.064
 3966POPC   C4A51318  24.493  23.713   7.364
 3966POPC   C1B51319  24.645  23.579   6.464
 3966POPC   C2B51320  24.630  23.501   6.764
 3966POPC   C3B51321  24.680  23.561   7.064
 3966POPC   C4B51322  24.612  23.541   7.364
 3967POPC   NC351323   5.913  44.631   5.564
 3967POPC   PO451324   5.911  44.616   5.864
 3967POPC   GL151325   5.849  44.680   6.164
 3967POPC   GL251326   5.992  44.635   6.164
 3967POPC   C1A51327   5.843  44.628   6.464
 3967POPC   D2A51328   5.867  44.681   6.764
 3967POPC   C3A51329   5.844  44.684   7.064
 3967POPC   C4A51330   5.878  44.645   7.364
 3967POPC   C1B51331   6.070  44.580   6.464
 3967POPC   C2B51332   6.108  44.574   6.764
 3967POPC   C3B51333   6.060  44.578   7.064
 3967POPC   C4B51334   6.084  44.556   7.364
 3968POPC   NC351335  24.471   5.136   5.564
 3968POPC   PO451336  24.503   5.059   5.864
 3968POPC   GL151337  24.484   5.060   6.164
 3968POPC   GL251338  24.640   5.030   6.164
 3968POPC   C1A51339  24.458   5.054   6.464
 3968POPC   D2A51340  24.501   5.124   6.764
 3968POPC   C3A51341  24.519   5.142   7.064
 3968POPC   C4A51342  24.502   5.059   7.364
 3968POPC   C1B51343  24.724   4.977   6.464
 3968POPC   C2B51344  24.733   4.947   6.764
 3968POPC   C3B51345  24.700   4.921   7.064
 3968POPC   C4B51346  24.658   4.976   7.364
 3969POPC   NC351347   8.194  34.589   5.564
 3969POPC   PO451348   8.244  34.549   5.864
 3969POPC   GL151349   8.179  34.548   6.164
 3969POPC   GL251350   8.091  34.581   6.164
 3969POPC   C1A51351   8.169  34.603   6.464
 3969POPC   D2A51352   8.221  34.588   6.764
 3969POPC   C3A51353   8.192  34.538   7.064
 3969POPC   C4A51354   8.156  34.585   7.364
 3969POPC   C1B51355   7.904  34.617   6.464
 3969POPC   C2B51356   7.965  34.639   6.764
 3969POPC   C3B51357   7.933  34.602   7.064
 3969POPC   C4B51358   7.923  34.568   7.364
 3970POPC   NC351359  29.096  17.521   5.564
 3970POPC   PO451360  29.166  17.476   5.864
 3970POPC   GL151361  29.107  17.520   6.164
 3970POPC   GL251362  29.281  17.497   6.164
 3970POPC   C1A51363  29.119  17.484   6.464
 3970POPC   D2A51364  29.192  17.511   6.764
 3970POPC   C3A51365  29.136  17.484   7.064
 3970POPC   C4A51366  29.099  17.541   7.364
 3970POPC   C1B51367  29.350  17.450   6.464
 3970POPC   C2B51368  29.380  17.417   6.764
 3970POPC   C3B51369  29.382  17.451   7.064
 3970POPC   C4B51370  29.396  17.416   7.364
 3971POPC   NC351371  20.598   0.453   5.564
 3971POPC   PO451372  20.600   0.476   5.864
 3971POPC   GL151373  20.579   0.466   6.164
 3971POPC   GL251374  20.530   0.516   6.164
 3971POPC   C1A51375  20.606   0.450   6.464
 3971POPC   D2A51376  20.595   0.400   6.764
 3971POPC   C3A51377  20.625   0.456   7.064
 3971POPC   C4A51378  20.562   0.424   7.364
 3971POPC   C1B51379  20.571   0.675   6.464
 3971POPC   C2B51380  20.525   0.640   6.764
 3971POPC   C3B51381  20.507   0.647   7.064
 3971POPC   C4B51382  20.529   0.679   7.364
 3972POPC   NC351383  13.603  26.850   5.564
 3972POPC   PO451384  13.622  26.859   5.864
 3972POPC   GL151385  13.594  26.807   6.164
 3972POPC   GL251386  13.726  26.726   6.164
 3972POPC   C1A51387  13.645  26.768   6.464
 3972POPC   D2A51388  13.640  26.770   6.764
 3972POPC   C3A51389  13.621  26.816   7.064
 3972POPC   C4A51390  13.620  26.840   7.364
 3972POPC   C1B51391  13.807  26.676   6.464
 3972POPC   C2B51392  13.836  26.704   6.764
 3972POPC   C3B51393  13.847  26.749   7.064
 3972POPC   C4B51394  13.828  26.741   7.364
 3973POPC   NC351395  10.540   8.973   5.564
 3973POPC   PO451396  10.486   8.934   5.864
 3973POPC   GL151397  10.517   8.923   6.164
 3973POPC   GL251398  10.402   8.985   6.164
 3973POPC   C1A51399  10.572   8.943   6.464
 3973POPC   D2A51400  10.527   9.005   6.764
 3973POPC   C3A51401  10.515   8.964   7.064
 3973POPC   C4A51402  10.560   8.993   7.364
 3973POPC   C1B51403  10.251   8.940   6.464
 3973POPC   C2B51404  10.294   8.867   6.764
 3973POPC   C3B51405  10.276   8.906   7.064
 3973POPC   C4B51406  10.282   8.888   7.364
 3974POPC   NC351407  29.104  29.962   5.564
 3974POPC   PO451408  29.163  29.916   5.864
 3974POPC   GL151409  29.179  29.922   6.164
 3974POPC   GL251410  29.081  30.023   6.164
 3974POPC   C1A51411  29.113  29.924   6.464
 3974POPC   D2A51412  29.125  29.968   6.764
 3974POPC   C3A51413  29.154  29.920   7.064
 3974POPC   C4A51414  29.111  29.966   7.364
 3974POPC   C1B51415  28.970  30.120   6.464
 3974POPC   C2B51416  28.967  30.083   6.764
 3974POPC   C3B51417  28.987  30.049   7.064
 3974POPC   C4B51418  28.927  30.105   7.364
 3975POPC   NC351419  30.687  26.786   5.564
 3975POPC   PO451420  30.743  26.860   5.864
 3975POPC   GL151421  30.664  26.795   6.164
 3975POPC   GL251422  30.658  26.902   6.164
 3975POPC   C1A51423  30.707  26.797   6.464
 3975POPC   D2A51424  30.694  26.861   6.764
 3975POPC   C3A51425  30.734  26.789   7.064
 3975POPC   C4A51426  30.672  26.862   7.364
 3975POPC   C1B51427  30.657  27.030   6.464
 3975POPC   C2B51428  30.685  27.090   6.764
 3975POPC   C3B51429  30.623  27.046   7.064
 3975POPC   C4B51430  30.684  27.044   7.364
 3976POPC   NC351431  26.057   1.192   5.564
 3976POPC   PO451432  26.036   1.220   5.864
 3976POPC   GL151433  26.083   1.182   6.164
 3976POPC   GL251434  26.120   1.125   6.164
 3976POPC   C1A51435  26.064   1.247   6.464
 3976POPC   D2A51436  26.068   1.184   6.764
 3976POPC   C3A51437  26.065   1.195   7.064
 3976POPC   C4A51438  26.025   1.250   7.364
 3976POPC   C1B51439  26.217   1.114   6.464
 3976POPC   C2B51440  26.228   1.066   6.764
 3976POPC   C3B51441  26.212   1.107   7.064
 3976POPC   C4B51442  26.218   1.110   7.364
 3977POPC   NC351443  38.481  16.757   5.564
 3977POPC   PO451444  38.451  16.769   5.864
 3977POPC   GL151445  38.455  16.764   6.164
 3977POPC   GL251446  38.417  16.823   6.164
 3977POPC   C1A51447  38.496  16.688   6.464
 3977POPC   D2A51448  38.422  16.764   6.764
 3977POPC   C3A51449  38.435  16.744   7.064
 3977POPC   C4A51450  38.493  16.743   7.364
 3977POPC   C1B51451  38.309  16.974   6.464
 3977POPC   C2B51452  38.346  16.928   6.764
 3977POPC   C3B51453  38.368  16.928   7.064
 3977POPC   C4B51454  38.372  16.991   7.364
 3978POPC   NC351455  17.508  21.408   5.564
 3978POPC   PO451456  17.518  21.355   5.864
 3978POPC   GL151457  17.534  21.420   6.164
 3978POPC   GL251458  17.464  21.451   6.164
 3978POPC   C1A51459  17.496  21.352   6.464
 3978POPC   D2A51460  17.526  21.374   6.764
 3978POPC   C3A51461  17.527  21.428   7.064
 3978POPC   C4A51462  17.494  21.428   7.364
 3978POPC   C1B51463  17.360  21.620   6.464
 3978POPC   C2B51464  17.357  21.627   6.764
 3978POPC   C3B51465  17.410  21.586   7.064
 3978POPC   C4B51466  17.374  21.616   7.364
 3979POPC   NC351467   1.969  26.820   5.564
 3979POPC   PO451468   2.006  26.841   5.864
 3979POPC   GL151469   2.015  26.770   6.164
 3979POPC   GL251470   2.051  26.701   6.164
 3979POPC   C1A51471   1.948  26.828   6.464
 3979POPC   D2A51472   1.940  26.770   6.764
 3979POPC   C3A51473   2.036  26.841   7.064
 3979POPC   C4A51474   1.984  26.800   7.364
 3979POPC   C1B51475   2.135  26.582   6.464
 3979POPC   C2B51476   2.163  26.585   6.764
 3979POPC   C3B51477   2.172  26.630   7.064
 3979POPC   C4B51478   2.106  26.648   7.364
 3980POPC   NC351479  43.066   7.446   5.564
 3980POPC   PO451480  43.063   7.418   5.864
 3980POPC   GL151481  43.090   7.441   6.164
 3980POPC   GL251482  43.016   7.448   6.164
 3980POPC   C1A51483  43.077   7.467   6.464
 3980POPC   D2A51484  43.071   7.405   6.764
 3980POPC   C3A51485  43.126   7.371   7.064
 3980POPC   C4A51486  43.152   7.470   7.364
 3980POPC   C1B51487  42.920   7.543   6.464
 3980POPC   C2B51488  42.924   7.523   6.764
 3980POPC   C3B51489  42.880   7.479   7.064
 3980POPC   C4B51490  42.870   7.527   7.364
 3981POPC   NC351491  10.551  39.275   5.564
 3981POPC   PO451492  10.499  39.276   5.864
 3981POPC   GL151493  10.483  39.215   6.164
 3981POPC   GL251494  10.641  39.202   6.164
 3981POPC   C1A51495  10.489  39.256   6.464
 3981POPC   D2A51496  10.531  39.217   6.764
 3981POPC   C3A51497  10.488  39.194   7.064
 3981POPC   C4A51498  10.533  39.261   7.364
 3981POPC   C1B51499  10.765  39.203   6.464
 3981POPC   C2B51500  10.757  39.226   6.764
 3981POPC   C3B51501  10.734  39.253   7.064
 3981POPC   C4B51502  10.743  39.251   7.364
 3982POPC   NC351503   0.396  12.047   5.564
 3982POPC   PO451504   0.471  12.071   5.864
 3982POPC   GL151505   0.395  12.067   6.164
 3982POPC   GL251506   0.583  12.111   6.164
 3982POPC   C1A51507   0.419  12.030   6.464
 3982POPC   D2A51508   0.435  12.122   6.764
 3982POPC   C3A51509   0.428  12.051   7.064
 3982POPC   C4A51510   0.392  12.110   7.364
 3982POPC   C1B51511   0.662  12.187   6.464
 3982POPC   C2B51512   0.717  12.137   6.764
 3982POPC   C3B51513   0.673  12.154   7.064
 3982POPC   C4B51514   0.671  12.149   7.364
 3983POPC   NC351515  18.261  13.654   5.564
 3983POPC   PO451516  18.308  13.661   5.864
 3983POPC   GL151517  18.279  13.653   6.164
 3983POPC   GL251518  18.227  13.481   6.164
 3983POPC   C1A51519  18.251  13.655   6.464
 3983POPC   D2A51520  18.245  13.612   6.764
 3983POPC   C3A51521  18.307  13.620   7.064
 3983POPC   C4A51522  18.236  13.605   7.364
 3983POPC   C1B51523  18.131  13.391   6.464
 3983POPC   C2B51524  18.114  13.471   6.764
 3983POPC   C3B51525  18.141  13.448   7.064
 3983POPC   C4B51526  18.097  13.388   7.364
 3984POPC   NC351527  42.309  29.921   5.564
 3984POPC   PO451528  42.287  29.879   5.864
 3984POPC   GL151529  42.383  29.912   6.164
 3984POPC   GL251530  42.335  29.763   6.164
 3984POPC   C1A51531  42.358  29.914   6.464
 3984POPC   D2A51532  42.339  29.886   6.764
 3984POPC   C3A51533  42.347  29.897   7.064
 3984POPC   C4A51534  42.368  29.921   7.364
 3984POPC   C1B51535  42.301  29.646   6.464
 3984POPC   C2B51536  42.278  29.718   6.764
 3984POPC   C3B51537  42.319  29.646   7.064
 3984POPC   C4B51538  42.288  29.712   7.364
 3985POPC   NC351539   5.112  21.420   5.564
 3985POPC   PO451540   5.090  21.400   5.864
 3985POPC   GL151541   5.099  21.391   6.164
 3985POPC   GL251542   5.192  21.379   6.164
 3985POPC   C1A51543   5.072  21.362   6.464
 3985POPC   D2A51544   5.118  21.347   6.764
 3985POPC   C3A51545   5.053  21.406   7.064
 3985POPC   C4A51546   5.117  21.401   7.364
 3985POPC   C1B51547   5.305  21.367   6.464
 3985POPC   C2B51548   5.385  21.394   6.764
 3985POPC   C3B51549   5.310  21.386   7.064
 3985POPC   C4B51550   5.339  21.364   7.364
 3986POPC   NC351551  19.025   6.636   5.564
 3986POPC   PO451552  19.024   6.604   5.864
 3986POPC   GL151553  19.015   6.663   6.164
 3986POPC   GL251554  18.904   6.619   6.164
 3986POPC   C1A51555  19.085   6.655   6.464
 3986POPC   D2A51556  19.101   6.636   6.764
 3986POPC   C3A51557  19.035   6.645   7.064
 3986POPC   C4A51558  19.036   6.685   7.364
 3986POPC   C1B51559  18.787   6.564   6.464
 3986POPC   C2B51560  18.787   6.561   6.764
 3986POPC   C3B51561  18.809   6.561   7.064
 3986POPC   C4B51562  18.837   6.505   7.364
 3987POPC   NC351563  18.314  16.714   5.564
 3987POPC   PO451564  18.286  16.721   5.864
 3987POPC   GL151565  18.301  16.751   6.164
 3987POPC   GL251566  18.420  16.694   6.164
 3987POPC   C1A51567  18.266  16.697   6.464
 3987POPC   D2A51568  18.258  16.765   6.764
 3987POPC   C3A51569  18.308  16.759   7.064
 3987POPC   C4A51570  18.259  16.745   7.364
 3987POPC   C1B51571  18.495  16.616   6.464
 3987POPC   C2B51572  18.557  16.665   6.764
 3987POPC   C3B51573  18.495  16.586   7.064
 3987POPC   C4B51574  18.524  16.618   7.364
 3988POPC   NC351575  26.804  36.909   5.564
 3988POPC   PO451576  26.836  36.869   5.864
 3988POPC   GL151577  26.850  36.929   6.164
 3988POPC   GL251578  26.905  36.902   6.164
 3988POPC   C1A51579  26.829  36.950   6.464
 3988POPC   D2A51580  26.849  36.864   6.764
 3988POPC   C3A51581  26.789  36.943   7.064
 3988POPC   C4A51582  26.851  36.871   7.364
 3988POPC   C1B51583  27.091  36.788   6.464
 3988POPC   C2B51584  27.051  36.832   6.764
 3988POPC   C3B51585  27.031  36.866   7.064
 3988POPC   C4B51586  27.020  36.826   7.364
 3989POPC   NC351587  41.544  39.221   5.564
 3989POPC   PO451588  41.566  39.194   5.864
 3989POPC   GL151589  41.606  39.270   6.164
 3989POPC   GL251590  41.511  39.320   6.164
 3989POPC   C1A51591  41.584  39.238   6.464
 3989POPC   D2A51592  41.609  39.191   6.764
 3989POPC   C3A51593  41.607  39.237   7.064
 3989POPC   C4A51594  41.591  39.231   7.364
 3989POPC   C1B51595  41.450  39.411   6.464
 3989POPC   C2B51596  41.433  39.500   6.764
 3989POPC   C3B51597  41.420  39.427   7.064
 3989POPC   C4B51598  41.435  39.417   7.364
 3990POPC   NC351599  20.613  29.953   5.564
 3990POPC   PO451600  20.646  29.882   5.864
 3990POPC   GL151601  20.647  29.904   6.164
 3990POPC   GL251602  20.674  30.006   6.164
 3990POPC   C1A51603  20.588  29.938   6.464
 3990POPC   D2A51604  20.582  29.873   6.764
 3990POPC   C3A51605  20.655  29.934   7.064
 3990POPC   C4A51606  20.612  29.928   7.364
 3990POPC   C1B51607  20.786  30.049   6.464
 3990POPC   C2B51608  20.847  30.037   6.764
 3990POPC   C3B51609  20.851  30.064   7.064
 3990POPC   C4B51610  20.871  30.024   7.364
 3991POPC   NC351611  42.363   1.203   5.564
 3991POPC   PO451612  42.374   1.191   5.864
 3991POPC   GL151613  42.292   1.214   6.164
 3991POPC   GL251614  42.237   1.262   6.164
 3991POPC   C1A51615  42.350   1.193   6.464
 3991POPC   D2A51616  42.302   1.245   6.764
 3991POPC   C3A51617  42.348   1.245   7.064
 3991POPC   C4A51618  42.342   1.181   7.364
 3991POPC   C1B51619  42.053   1.219   6.464
 3991POPC   C2B51620  42.052   1.213   6.764
 3991POPC   C3B51621  42.078   1.277   7.064
 3991POPC   C4B51622  42.098   1.291   7.364
 3992POPC   NC351623  22.966  42.341   5.564
 3992POPC   PO451624  22.941  42.323   5.864
 3992POPC   GL151625  22.956  42.319   6.164
 3992POPC   GL251626  23.019  42.215   6.164
 3992POPC   C1A51627  22.928  42.285   6.464
 3992POPC   D2A51628  22.976  42.373   6.764
 3992POPC   C3A51629  22.976  42.355   7.064
 3992POPC   C4A51630  22.898  42.370   7.364
 3992POPC   C1B51631  23.149  42.157   6.464
 3992POPC   C2B51632  23.119  42.176   6.764
 3992POPC   C3B51633  23.167  42.137   7.064
 3992POPC   C4B51634  23.118  42.169   7.364
 3993POPC   NC351635  19.035  11.280   5.564
 3993POPC   PO451636  19.022  11.303   5.864
 3993POPC   GL151637  19.068  11.344   6.164
 3993POPC   GL251638  19.091  11.452   6.164
 3993POPC   C1A51639  19.088  11.326   6.464
 3993POPC   D2A51640  19.049  11.266   6.764
 3993POPC   C3A51641  19.107  11.263   7.064
 3993POPC   C4A51642  19.105  11.318   7.364
 3993POPC   C1B51643  19.189  11.499   6.464
 3993POPC   C2B51644  19.128  11.525   6.764
 3993POPC   C3B51645  19.147  11.530   7.064
 3993POPC   C4B51646  19.166  11.558   7.364
 3994POPC   NC351647  15.150  36.169   5.564
 3994POPC   PO451648  15.229  36.165   5.864
 3994POPC   GL151649  15.167  36.137   6.164
 3994POPC   GL251650  15.311  36.068   6.164
 3994POPC   C1A51651  15.178  36.090   6.464
 3994POPC   D2A51652  15.199  36.083   6.764
 3994POPC   C3A51653  15.191  36.111   7.064
 3994POPC   C4A51654  15.159  36.164   7.364
 3994POPC   C1B51655  15.407  35.934   6.464
 3994POPC   C2B51656  15.367  35.992   6.764
 3994POPC   C3B51657  15.391  35.918   7.064
 3994POPC   C4B51658  15.394  35.995   7.364
 3995POPC   NC351659  43.137  41.516   5.564
 3995POPC   PO451660  43.146  41.583   5.864
 3995POPC   GL151661  43.072  41.534   6.164
 3995POPC   GL251662  43.239  41.571   6.164
 3995POPC   C1A51663  43.082  41.524   6.464
 3995POPC   D2A51664  43.100  41.525   6.764
 3995POPC   C3A51665  43.124  41.587   7.064
 3995POPC   C4A51666  43.124  41.561   7.364
 3995POPC   C1B51667  43.324  41.604   6.464
 3995POPC   C2B51668  43.395  41.603   6.764
 3995POPC   C3B51669  43.408  41.516   7.064
 3995POPC   C4B51670  43.403  41.563   7.364
 3996POPC   NC351671  12.852  39.254   5.564
 3996POPC   PO451672  12.834  39.263   5.864
 3996POPC   GL151673  12.810  39.217   6.164
 3996POPC   GL251674  12.736  39.349   6.164
 3996POPC   C1A51675  12.847  39.230   6.464
 3996POPC   D2A51676  12.833  39.269   6.764
 3996POPC   C3A51677  12.846  39.243   7.064
 3996POPC   C4A51678  12.828  39.242   7.364
 3996POPC   C1B51679  12.751  39.458   6.464
 3996POPC   C2B51680  12.741  39.426   6.764
 3996POPC   C3B51681  12.753  39.464   7.064
 3996POPC   C4B51682  12.699  39.423   7.364
 3997POPC   NC351683  41.586   9.791   5.564
 3997POPC   PO451684  41.511   9.796   5.864
 3997POPC   GL151685  41.563   9.732   6.164
 3997POPC   GL251686  41.611   9.796   6.164
 3997POPC   C1A51687  41.573   9.779   6.464
 3997POPC   D2A51688  41.510   9.760   6.764
 3997POPC   C3A51689  41.562   9.774   7.064
 3997POPC   C4A51690  41.570   9.699   7.364
 3997POPC   C1B51691  41.729   9.960   6.464
 3997POPC   C2B51692  41.759   9.916   6.764
 3997POPC   C3B51693  41.705   9.883   7.064
 3997POPC   C4B51694  41.707   9.922   7.364
 3998POPC   NC351695  19.825   2.733   5.564
 3998POPC   PO451696  19.814   2.741   5.864
 3998POPC   GL151697  19.796   2.741   6.164
 3998POPC   GL251698  19.962   2.700   6.164
 3998POPC   C1A51699  19.805   2.752   6.464
 3998POPC   D2A51700  19.842   2.776   6.764
 3998POPC   C3A51701  19.853   2.721   7.064
 3998POPC   C4A51702  19.877   2.800   7.364
 3998POPC   C1B51703  20.118   2.676   6.464
 3998POPC   C2B51704  20.112   2.671   6.764
 3998POPC   C3B51705  20.066   2.656   7.064
 3998POPC   C4B51706  20.125   2.728   7.364
 3999POPC   NC351707  23.673  21.402   5.564
 3999POPC   PO451708  23.667  21.378   5.864
 3999POPC   GL151709  23.730  21.378   6.164
 3999POPC   GL251710  23.660  21.480   6.164
 3999POPC   C1A51711  23.763  21.355   6.464
 3999POPC   D2A51712  23.726  21.424   6.764
 3999POPC   C3A51713  23.695  21.381   7.064
 3999POPC   C4A51714  23.747  21.397   7.364
 3999POPC   C1B51715  23.508  21.539   6.464
 3999POPC   C2B51716  23.533  21.530   6.764
 3999POPC   C3B51717  23.492  21.597   7.064
 3999POPC   C4B51718  23.500  21.568   7.364
 4000POPC   NC351719  40.815   3.499   5.564
 4000POPC   PO451720  40.776   3.553   5.864
 4000POPC   GL151721  40.816   3.544   6.164
 4000POPC   GL251722  40.789   3.392   6.164
 4000POPC   C1A51723  40.737   3.560   6.464
 4000POPC   D2A51724  40.831   3.578   6.764
 4000POPC   C3A51725  40.816   3.525   7.064
 4000POPC   C4A51726  40.832   3.541   7.364
 4000POPC   C1B51727  40.759   3.329   6.464
 4000POPC   C2B51728  40.732   3.254   6.764
 4000POPC   C3B51729  40.717   3.286   7.064
 4000POPC   C4B51730  40.763   3.272   7.364
 4001POPC   NC351731  37.651  30.736   5.564
 4001POPC   PO451732  37.689  30.663   5.864
 4001POPC   GL151733  37.645  30.692   6.164
 4001POPC   GL251734  37.546  30.706   6.164
 4001POPC   C1A51735  37.728  30.676   6.464
 4001POPC   D2A51736  37.690  30.736   6.764
 4001POPC   C3A51737  37.638  30.712   7.064
 4001POPC   C4A51738  37.690  30.665   7.364
 4001POPC   C1B51739  37.460  30.773   6.464
 4001POPC   C2B51740  37.389  30.761   6.764
 4001POPC   C3B51741  37.397  30.790   7.064
 4001POPC   C4B51742  37.480  30.750   7.364
 4002POPC   NC351743   2.777  40.746   5.564
 4002POPC   PO451744   2.731  40.793   5.864
 4002POPC   GL151745   2.802  40.819   6.164
 4002POPC   GL251746   2.720  40.861   6.164
 4002POPC   C1A51747   2.803  40.764   6.464
 4002POPC   D2A51748   2.721  40.824   6.764
 4002POPC   C3A51749   2.729  40.810   7.064
 4002POPC   C4A51750   2.766  40.781   7.364
 4002POPC   C1B51751   2.674  41.049   6.464
 4002POPC   C2B51752   2.731  40.992   6.764
 4002POPC   C3B51753   2.688  41.019   7.064
 4002POPC   C4B51754   2.704  41.013   7.364
 4003POPC   NC351755   0.442   2.022   5.564
 4003POPC   PO451756   0.473   1.955   5.864
 4003POPC   GL151757   0.475   2.017   6.164
 4003POPC   GL251758   0.540   2.080   6.164
 4003POPC   C1A51759   0.396   2.000   6.464
 4003POPC   D2A51760   0.402   2.029   6.764
 4003POPC   C3A51761   0.474   1.948   7.064
 4003POPC   C4A51762   0.428   1.975   7.364
 4003POPC   C1B51763   0.600   2.182   6.464
 4003POPC   C2B51764   0.634   2.197   6.764
 4003POPC   C3B51765   0.615   2.136   7.064
 4003POPC   C4B51766   0.632   2.157   7.364
 4004POPC   NC351767  31.474  13.667   5.564
 4004POPC   PO451768  31.484  13.676   5.864
 4004POPC   GL151769  31.430  13.586   6.164
 4004POPC   GL251770  31.410  13.484   6.164
 4004POPC   C1A51771  31.506  13.619   6.464
 4004POPC   D2A51772  31.465  13.654   6.764
 4004POPC   C3A51773  31.520  13.657   7.064
 4004POPC   C4A51774  31.513  13.624   7.364
 4004POPC   C1B51775  31.279  13.423   6.464
 4004POPC   C2B51776  31.299  13.384   6.764
 4004POPC   C3B51777  31.323  13.378   7.064
 4004POPC   C4B51778  31.352  13.425   7.364
 4005POPC   NC351779   8.945  16.723   5.564
 4005POPC   PO451780   8.929  16.726   5.864
 4005POPC   GL151781   8.989  16.731   6.164
 4005POPC   GL251782   9.046  16.640   6.164
 4005POPC   C1A51783   8.957  16.710   6.464
 4005POPC   D2A51784   8.931  16.689   6.764
 4005POPC   C3A51785   8.992  16.698   7.064
 4005POPC   C4A51786   9.021  16.771   7.364
 4005POPC   C1B51787   9.109  16.517   6.464
 4005POPC   C2B51788   9.080  16.551   6.764
 4005POPC   C3B51789   9.070  16.497   7.064
 4005POPC   C4B51790   9.068  16.474   7.364
 4006POPC   NC351791  43.147  39.184   5.564
 4006POPC   PO451792  43.132  39.250   5.864
 4006POPC   GL151793  43.076  39.251   6.164
 4006POPC   GL251794  43.157  39.296   6.164
 4006POPC   C1A51795  43.144  39.192   6.464
 4006POPC   D2A51796  43.080  39.239   6.764
 4006POPC   C3A51797  43.158  39.211   7.064
 4006POPC   C4A51798  43.108  39.183   7.364
 4006POPC   C1B51799  43.252  39.472   6.464
 4006POPC   C2B51800  43.256  39.473   6.764
 4006POPC   C3B51801  43.242  39.448   7.064
 4006POPC   C4B51802  43.177  39.441   7.364
 4007POPC   NC351803  32.233  12.826   5.564
 4007POPC   PO451804  32.275  12.900   5.864
 4007POPC   GL151805  32.268  12.896   6.164
 4007POPC   GL251806  32.291  12.719   6.164
 4007POPC   C1A51807  32.219  12.848   6.464
 4007POPC   D2A51808  32.231  12.872   6.764
 4007POPC   C3A51809  32.227  12.885   7.064
 4007POPC   C4A51810  32.287  12.851   7.364
 4007POPC   C1B51811  32.290  12.564   6.464
 4007POPC   C2B51812  32.264  12.573   6.764
 4007POPC   C3B51813  32.347  12.632   7.064
 4007POPC   C4B51814  32.286  12.558   7.364
 4008POPC   NC351815   7.434  12.033   5.564
 4008POPC   PO451816   7.377  12.058   5.864
 4008POPC   GL151817   7.450  12.061   6.164
 4008POPC   GL251818   7.490  11.913   6.164
 4008POPC   C1A51819   7.385  12.092   6.464
 4008POPC   D2A51820   7.429  12.120   6.764
 4008POPC   C3A51821   7.399  12.119   7.064
 4008POPC   C4A51822   7.393  12.041   7.364
 4008POPC   C1B51823   7.545  11.859   6.464
 4008POPC   C2B51824   7.557  11.859   6.764
 4008POPC   C3B51825   7.472  11.842   7.064
 4008POPC   C4B51826   7.496  11.857   7.364
 4009POPC   NC351827  11.302  21.347   5.564
 4009POPC   PO451828  11.302  21.359   5.864
 4009POPC   GL151829  11.337  21.344   6.164
 4009POPC   GL251830  11.333  21.309   6.164
 4009POPC   C1A51831  11.324  21.360   6.464
 4009POPC   D2A51832  11.337  21.384   6.764
 4009POPC   C3A51833  11.338  21.398   7.064
 4009POPC   C4A51834  11.350  21.388   7.364
 4009POPC   C1B51835  11.434  21.176   6.464
 4009POPC   C2B51836  11.452  21.209   6.764
 4009POPC   C3B51837  11.406  21.199   7.064
 4009POPC   C4B51838  11.381  21.164   7.364
 4010POPC   NC351839  39.183  39.977   5.564
 4010POPC   PO451840  39.262  39.966   5.864
 4010POPC   GL151841  39.182  40.038   6.164
 4010POPC   GL251842  39.185  39.947   6.164
 4010POPC   C1A51843  39.240  39.999   6.464
 4010POPC   D2A51844  39.190  39.958   6.764
 4010POPC   C3A51845  39.205  39.963   7.064
 4010POPC   C4A51846  39.209  39.958   7.364
 4010POPC   C1B51847  39.148  39.816   6.464
 4010POPC   C2B51848  39.152  39.765   6.764
 4010POPC   C3B51849  39.093  39.798   7.064
 4010POPC   C4B51850  39.064  39.832   7.364
 4011POPC   NC351851  19.027  43.879   5.564
 4011POPC   PO451852  19.089  43.903   5.864
 4011POPC   GL151853  19.108  43.925   6.164
 4011POPC   GL251854  19.232  43.925   6.164
 4011POPC   C1A51855  19.018  43.843   6.464
 4011POPC   D2A51856  19.068  43.912   6.764
 4011POPC   C3A51857  19.022  43.886   7.064
 4011POPC   C4A51858  19.027  43.892   7.364
 4011POPC   C1B51859  19.350  43.877   6.464
 4011POPC   C2B51860  19.289  43.956   6.764
 4011POPC   C3B51861  19.296  43.922   7.064
 4011POPC   C4B51862  19.274  43.947   7.364
 4012POPC   NC351863  13.672  43.135   5.564
 4012POPC   PO451864  13.617  43.135   5.864
 4012POPC   GL151865  13.669  43.150   6.164
 4012POPC   GL251866  13.528  43.188   6.164
 4012POPC   C1A51867  13.616  43.079   6.464
 4012POPC   D2A51868  13.609  43.146   6.764
 4012POPC   C3A51869  13.603  43.098   7.064
 4012POPC   C4A51870  13.581  43.160   7.364
 4012POPC   C1B51871  13.381  43.228   6.464
 4012POPC   C2B51872  13.373  43.163   6.764
 4012POPC   C3B51873  13.424  43.140   7.064
 4012POPC   C4B51874  13.398  43.233   7.364
 4013POPC   NC351875  26.784  44.619   5.564
 4013POPC   PO451876  26.843  44.669   5.864
 4013POPC   GL151877  26.825  44.614   6.164
 4013POPC   GL251878  26.914  44.789   6.164
 4013POPC   C1A51879  26.855  44.701   6.464
 4013POPC   D2A51880  26.773  44.682   6.764
 4013POPC   C3A51881  26.847  44.654   7.064
 4013POPC   C4A51882  26.790  44.693   7.364
 4013POPC   C1B51883  26.895  44.876   6.464
 4013POPC   C2B51884  26.935  44.889   6.764
 4013POPC   C3B51885  26.898  44.861   7.064
 4013POPC   C4B51886  26.977  44.889   7.364
 4014POPC   NC351887  19.808   5.895   5.564
 4014POPC   PO451888  19.795   5.905   5.864
 4014POPC   GL151889  19.880   5.860   6.164
 4014POPC   GL251890  19.702   5.795   6.164
 4014POPC   C1A51891  19.827   5.903   6.464
 4014POPC   D2A51892  19.801   5.870   6.764
 4014POPC   C3A51893  19.821   5.877   7.064
 4014POPC   C4A51894  19.793   5.844   7.364
 4014POPC   C1B51895  19.609   5.829   6.464
 4014POPC   C2B51896  19.636   5.789   6.764
 4014POPC   C3B51897  19.566   5.780   7.064
 4014POPC   C4B51898  19.579   5.792   7.364
 4015POPC   NC351899  44.685  29.176   5.564
 4015POPC   PO451900  44.703  29.125   5.864
 4015POPC   GL151901  44.646  29.115   6.164
 4015POPC   GL251902  44.699  29.284   6.164
 4015POPC   C1A51903  44.684  29.147   6.464
 4015POPC   D2A51904  44.705  29.181   6.764
 4015POPC   C3A51905  44.642  29.167   7.064
 4015POPC   C4A51906  44.629  29.152   7.364
 4015POPC   C1B51907  44.740  29.401   6.464
 4015POPC   C2B51908  44.700  29.411   6.764
 4015POPC   C3B51909  44.732  29.385   7.064
 4015POPC   C4B51910  44.710  29.389   7.364
 4016POPC   NC351911  25.260   8.975   5.564
 4016POPC   PO451912  25.262   9.016   5.864
 4016POPC   GL151913  25.313   9.016   6.164
 4016POPC   GL251914  25.186   9.038   6.164
 4016POPC   C1A51915  25.220   8.976   6.464
 4016POPC   D2A51916  25.234   9.021   6.764
 4016POPC   C3A51917  25.300   8.944   7.064
 4016POPC   C4A51918  25.310   8.932   7.364
 4016POPC   C1B51919  25.037   9.035   6.464
 4016POPC   C2B51920  25.052   9.001   6.764
 4016POPC   C3B51921  25.045   9.002   7.064
 4016POPC   C4B51922  25.068   9.017   7.364
 4017POPC   NC351923  35.374  26.022   5.564
 4017POPC   PO451924  35.351  26.061   5.864
 4017POPC   GL151925  35.308  26.028   6.164
 4017POPC   GL251926  35.378  26.162   6.164
 4017POPC   C1A51927  35.331  26.004   6.464
 4017POPC   D2A51928  35.373  26.020   6.764
 4017POPC   C3A51929  35.343  26.082   7.064
 4017POPC   C4A51930  35.393  25.997   7.364
 4017POPC   C1B51931  35.301  26.241   6.464
 4017POPC   C2B51932  35.296  26.328   6.764
 4017POPC   C3B51933  35.311  26.269   7.064
 4017POPC   C4B51934  35.267  26.267   7.364
 4018POPC   NC351935   6.667  21.349   5.564
 4018POPC   PO451936   6.695  21.363   5.864
 4018POPC   GL151937   6.611  21.397   6.164
 4018POPC   GL251938   6.613  21.482   6.164
 4018POPC   C1A51939   6.633  21.412   6.464
 4018POPC   D2A51940   6.675  21.382   6.764
 4018POPC   C3A51941   6.650  21.372   7.064
 4018POPC   C4A51942   6.622  21.370   7.364
 4018POPC   C1B51943   6.602  21.672   6.464
 4018POPC   C2B51944   6.611  21.595   6.764
 4018POPC   C3B51945   6.599  21.590   7.064
 4018POPC   C4B51946   6.592  21.632   7.364
 4019POPC   NC351947  11.326  10.521   5.564
 4019POPC   PO451948  11.321  10.478   5.864
 4019POPC   GL151949  11.266  10.489   6.164
 4019POPC   GL251950  11.265  10.683   6.164
 4019POPC   C1A51951  11.270  10.544   6.464
 4019POPC   D2A51952  11.256  10.557   6.764
 4019POPC   C3A51953  11.323  10.547   7.064
 4019POPC   C4A51954  11.299  10.506   7.364
 4019POPC   C1B51955  11.279  10.822   6.464
 4019POPC   C2B51956  11.313  10.792   6.764
 4019POPC   C3B51957  11.307  10.727   7.064
 4019POPC   C4B51958  11.254  10.753   7.364
 4020POPC   NC351959  35.331  21.341   5.564
 4020POPC   PO451960  35.340  21.411   5.864
 4020POPC   GL151961  35.356  21.352   6.164
 4020POPC   GL251962  35.441  21.338   6.164
 4020POPC   C1A51963  35.379  21.372   6.464
 4020POPC   D2A51964  35.302  21.358   6.764
 4020POPC   C3A51965  35.316  21.350   7.064
 4020POPC   C4A51966  35.360  21.349   7.364
 4020POPC   C1B51967  35.514  21.245   6.464
 4020POPC   C2B51968  35.507  21.179   6.764
 4020POPC   C3B51969  35.570  21.187   7.064
 4020POPC   C4B51970  35.562  21.160   7.364
 4021POPC   NC351971  43.095  26.087   5.564
 4021POPC   PO451972  43.110  26.063   5.864
 4021POPC   GL151973  43.098  26.032   6.164
 4021POPC   GL251974  43.011  26.002   6.164
 4021POPC   C1A51975  43.116  26.083   6.464
 4021POPC   D2A51976  43.156  26.076   6.764
 4021POPC   C3A51977  43.119  26.003   7.064
 4021POPC   C4A51978  43.149  26.043   7.364
 4021POPC   C1B51979  42.954  25.887   6.464
 4021POPC   C2B51980  42.905  25.907   6.764
 4021POPC   C3B51981  42.893  25.911   7.064
 4021POPC   C4B51982  42.940  25.923   7.364
 4022POPC   NC351983   8.174  37.676   5.564
 4022POPC   PO451984   8.165  37.691   5.864
 4022POPC   GL151985   8.229  37.723   6.164
 4022POPC   GL251986   8.287  37.745   6.164
 4022POPC   C1A51987   8.203  37.655   6.464
 4022POPC   D2A51988   8.229  37.637   6.764
 4022POPC   C3A51989   8.171  37.683   7.064
 4022POPC   C4A51990   8.231  37.720   7.364
 4022POPC   C1B51991   8.274  37.924   6.464
 4022POPC   C2B51992   8.256  37.956   6.764
 4022POPC   C3B51993   8.322  37.916   7.064
 4022POPC   C4B51994   8.334  37.863   7.364
 4023POPC   NC351995  22.902   5.092   5.564
 4023POPC   PO451996  22.934   5.082   5.864
 4023POPC   GL151997  22.970   5.074   6.164
 4023POPC   GL251998  23.023   5.161   6.164
 4023POPC   C1A51999  22.916   5.088   6.464
 4023POPC   D2A52000  22.925   5.099   6.764
 4023POPC   C3A52001  22.957   5.046   7.064
 4023POPC   C4A52002  22.939   5.129   7.364
 4023POPC   C1B52003  23.203   5.153   6.464
 4023POPC   C2B52004  23.206   5.139   6.764
 4023POPC   C3B52005  23.169   5.157   7.064
 4023POPC   C4B52006  23.217   5.096   7.364
 4024POPC   NC352007   8.985  13.674   5.564
 4024POPC   PO452008   9.007  13.630   5.864
 4024POPC   GL152009   8.946  13.618   6.164
 4024POPC   GL252010   8.887  13.568   6.164
 4024POPC   C1A52011   8.981  13.630   6.464
 4024POPC   D2A52012   8.980  13.603   6.764
 4024POPC   C3A52013   8.968  13.674   7.064
 4024POPC   C4A52014   8.942  13.646   7.364
 4024POPC   C1B52015   8.751  13.467   6.464
 4024POPC   C2B52016   8.812  13.465   6.764
 4024POPC   C3B52017   8.804  13.470   7.064
 4024POPC   C4B52018   8.813  13.479   7.364
 4025POPC   NC352019   0.452  19.039   5.564
 4025POPC   PO452020   0.444  19.100   5.864
 4025POPC   GL152021   0.464  19.076   6.164
 4025POPC   GL252022   0.594  19.034   6.164
 4025POPC   C1A52023   0.388  19.054   6.464
 4025POPC   D2A52024   0.488  19.033   6.764
 4025POPC   C3A52025   0.401  19.070   7.064
 4025POPC   C4A52026   0.415  19.030   7.364
 4025POPC   C1B52027   0.677  19.005   6.464
 4025POPC   C2B52028   0.637  19.019   6.764
 4025POPC   C3B52029   0.660  19.022   7.064
 4025POPC   C4B52030   0.676  19.032   7.364
 4026POPC   NC352031  32.284  31.475   5.564
 4026POPC   PO452032  32.217  31.513   5.864
 4026POPC   GL152033  32.246  31.472   6.164
 4026POPC   GL252034  32.355  31.589   6.164
 4026POPC   C1A52035  32.232  31.426   6.464
 4026POPC   D2A52036  32.281  31.471   6.764
 4026POPC   C3A52037  32.288  31.445   7.064
 4026POPC   C4A52038  32.230  31.445   7.364
 4026POPC   C1B52039  32.345  31.635   6.464
 4026POPC   C2B52040  32.359  31.679   6.764
 4026POPC   C3B52041  32.369  31.686   7.064
 4026POPC   C4B52042  32.434  31.672   7.364
 4027POPC   NC352043   5.896  33.845   5.564
 4027POPC   PO452044   5.870  33.769   5.864
 4027POPC   GL152045   5.859  33.826   6.164
 4027POPC   GL252046   5.778  33.675   6.164
 4027POPC   C1A52047   5.883  33.845   6.464
 4027POPC   D2A52048   5.845  33.770   6.764
 4027POPC   C3A52049   5.839  33.823   7.064
 4027POPC   C4A52050   5.865  33.789   7.364
 4027POPC   C1B52051   5.697  33.617   6.464
 4027POPC   C2B52052   5.715  33.606   6.764
 4027POPC   C3B52053   5.753  33.611   7.064
 4027POPC   C4B52054   5.780  33.579   7.364
 4028POPC   NC352055   5.867  19.061   5.564
 4028POPC   PO452056   5.848  19.043   5.864
 4028POPC   GL152057   5.916  19.064   6.164
 4028POPC   GL252058   5.841  18.895   6.164
 4028POPC   C1A52059   5.840  19.061   6.464
 4028POPC   D2A52060   5.849  19.097   6.764
 4028POPC   C3A52061   5.829  19.075   7.064
 4028POPC   C4A52062   5.912  19.067   7.364
 4028POPC   C1B52063   5.833  18.813   6.464
 4028POPC   C2B52064   5.859  18.794   6.764
 4028POPC   C3B52065   5.867  18.775   7.064
 4028POPC   C4B52066   5.923  18.842   7.364
 4029POPC   NC352067   1.957  27.607   5.564
 4029POPC   PO452068   1.971  27.557   5.864
 4029POPC   GL152069   1.980  27.598   6.164
 4029POPC   GL252070   2.160  27.535   6.164
 4029POPC   C1A52071   1.972  27.639   6.464
 4029POPC   D2A52072   1.999  27.626   6.764
 4029POPC   C3A52073   1.998  27.637   7.064
 4029POPC   C4A52074   1.980  27.627   7.364
 4029POPC   C1B52075   2.263  27.586   6.464
 4029POPC   C2B52076   2.289  27.582   6.764
 4029POPC   C3B52077   2.255  27.564   7.064
 4029POPC   C4B52078   2.217  27.588   7.364
 4030POPC   NC352079  25.225  40.813   5.564
 4030POPC   PO452080  25.273  40.777   5.864
 4030POPC   GL152081  25.263  40.830   6.164
 4030POPC   GL252082  25.300  40.836   6.164
 4030POPC   C1A52083  25.236  40.779   6.464
 4030POPC   D2A52084  25.282  40.764   6.764
 4030POPC   C3A52085  25.268  40.767   7.064
 4030POPC   C4A52086  25.314  40.777   7.364
 4030POPC   C1B52087  25.454  41.009   6.464
 4030POPC   C2B52088  25.403  40.945   6.764
 4030POPC   C3B52089  25.429  40.938   7.064
 4030POPC   C4B52090  25.455  41.000   7.364
 4031POPC   NC352091  22.923   4.340   5.564
 4031POPC   PO452092  22.937   4.300   5.864
 4031POPC   GL152093  22.953   4.332   6.164
 4031POPC   GL252094  22.882   4.436   6.164
 4031POPC   C1A52095  22.904   4.297   6.464
 4031POPC   D2A52096  22.937   4.343   6.764
 4031POPC   C3A52097  22.945   4.315   7.064
 4031POPC   C4A52098  22.901   4.311   7.364
 4031POPC   C1B52099  22.961   4.572   6.464
 4031POPC   C2B52100  22.940   4.589   6.764
 4031POPC   C3B52101  22.903   4.534   7.064
 4031POPC   C4B52102  22.960   4.524   7.364
 4032POPC   NC352103  11.348   4.269   5.564
 4032POPC   PO452104  11.311   4.334   5.864
 4032POPC   GL152105  11.293   4.344   6.164
 4032POPC   GL252106  11.327   4.385   6.164
 4032POPC   C1A52107  11.290   4.309   6.464
 4032POPC   D2A52108  11.303   4.332   6.764
 4032POPC   C3A52109  11.347   4.321   7.064
 4032POPC   C4A52110  11.320   4.352   7.364
 4032POPC   C1B52111  11.401   4.581   6.464
 4032POPC   C2B52112  11.358   4.589   6.764
 4032POPC   C3B52113  11.420   4.575   7.064
 4032POPC   C4B52114  11.420   4.533   7.364
 4033POPC   NC352115  26.021   5.895   5.564
 4033POPC   PO452116  26.031   5.885   5.864
 4033POPC   GL152117  26.037   5.845   6.164
 4033POPC   GL252118  25.946   5.812   6.164
 4033POPC   C1A52119  26.070   5.886   6.464
 4033POPC   D2A52120  26.005   5.819   6.764
 4033POPC   C3A52121  26.025   5.875   7.064
 4033POPC   C4A52122  26.055   5.918   7.364
 4033POPC   C1B52123  25.818   5.821   6.464
 4033POPC   C2B52124  25.752   5.830   6.764
 4033POPC   C3B52125  25.836   5.788   7.064
 4033POPC   C4B52126  25.754   5.775   7.364
 4034POPC   NC352127   7.407   9.728   5.564
 4034POPC   PO452128   7.375   9.778   5.864
 4034POPC   GL152129   7.448   9.787   6.164
 4034POPC   GL252130   7.471   9.649   6.164
 4034POPC   C1A52131   7.425   9.748   6.464
 4034POPC   D2A52132   7.372   9.736   6.764
 4034POPC   C3A52133   7.387   9.727   7.064
 4034POPC   C4A52134   7.432   9.701   7.364
 4034POPC   C1B52135   7.543   9.516   6.464
 4034POPC   C2B52136   7.572   9.554   6.764
 4034POPC   C3B52137   7.556   9.531   7.064
 4034POPC   C4B52138   7.523   9.591   7.364
 4035POPC   NC352139  17.486  20.598   5.564
 4035POPC   PO452140  17.489  20.568   5.864
 4035POPC   GL152141  17.532  20.633   6.164
 4035POPC   GL252142  17.423  20.592   6.164
 4035POPC   C1A52143  17.534  20.566   6.464
 4035POPC   D2A52144  17.482  20.656   6.764
 4035POPC   C3A52145  17.546  20.653   7.064
 4035POPC   C4A52146  17.492  20.595   7.364
 4035POPC   C1B52147  17.236  20.584   6.464
 4035POPC   C2B52148  17.237  20.607   6.764
 4035POPC   C3B52149  17.232  20.583   7.064
 4035POPC   C4B52150  17.221  20.607   7.364
 4036POPC   NC352151  33.060  40.769   5.564
 4036POPC   PO452152  33.022  40.811   5.864
 4036POPC   GL152153  33.029  40.758   6.164
 4036POPC   GL252154  33.104  40.839   6.164
 4036POPC   C1A52155  33.020  40.811   6.464
 4036POPC   D2A52156  32.987  40.813   6.764
 4036POPC   C3A52157  32.979  40.783   7.064
 4036POPC   C4A52158  33.009  40.826   7.364
 4036POPC   C1B52159  33.195  40.935   6.464
 4036POPC   C2B52160  33.199  40.946   6.764
 4036POPC   C3B52161  33.267  40.880   7.064
 4036POPC   C4B52162  33.286  40.901   7.364
 4037POPC   NC352163  32.988  40.036   5.564
 4037POPC   PO452164  32.977  40.009   5.864
 4037POPC   GL152165  33.030  39.972   6.164
 4037POPC   GL252166  33.125  40.130   6.164
 4037POPC   C1A52167  33.019  40.028   6.464
 4037POPC   D2A52168  33.074  39.975   6.764
 4037POPC   C3A52169  33.000  39.978   7.064
 4037POPC   C4A52170  33.026  40.019   7.364
 4037POPC   C1B52171  33.184  40.202   6.464
 4037POPC   C2B52172  33.132  40.174   6.764
 4037POPC   C3B52173  33.199  40.194   7.064
 4037POPC   C4B52174  33.153  40.184   7.364
 4038POPC   NC352175   6.694   9.704   5.564
 4038POPC   PO452176   6.647   9.737   5.864
 4038POPC   GL152177   6.605   9.760   6.164
 4038POPC   GL252178   6.559   9.687   6.164
 4038POPC   C1A52179   6.647   9.774   6.464
 4038POPC   D2A52180   6.679   9.765   6.764
 4038POPC   C3A52181   6.621   9.795   7.064
 4038POPC   C4A52182   6.654   9.795   7.364
 4038POPC   C1B52183   6.386   9.719   6.464
 4038POPC   C2B52184   6.427   9.697   6.764
 4038POPC   C3B52185   6.367   9.733   7.064
 4038POPC   C4B52186   6.425   9.690   7.364
 4039POPC   NC352187  34.600  39.217   5.564
 4039POPC   PO452188  34.596  39.270   5.864
 4039POPC   GL152189  34.599  39.237   6.164
 4039POPC   GL252190  34.650  39.307   6.164
 4039POPC   C1A52191  34.605  39.220   6.464
 4039POPC   D2A52192  34.542  39.193   6.764
 4039POPC   C3A52193  34.528  39.220   7.064
 4039POPC   C4A52194  34.569  39.261   7.364
 4039POPC   C1B52195  34.628  39.468   6.464
 4039POPC   C2B52196  34.714  39.425   6.764
 4039POPC   C3B52197  34.709  39.436   7.064
 4039POPC   C4B52198  34.717  39.494   7.364
 4040POPC   NC352199  44.665  36.162   5.564
 4040POPC   PO452200  44.616  36.122   5.864
 4040POPC   GL152201  44.626  36.170   6.164
 4040POPC   GL252202  44.758  36.038   6.164
 4040POPC   C1A52203  44.659  36.164   6.464
 4040POPC   D2A52204  44.710  36.080   6.764
 4040POPC   C3A52205  44.664  36.170   7.064
 4040POPC   C4A52206  44.711  36.170   7.364
 4040POPC   C1B52207  44.901  35.993   6.464
 4040POPC   C2B52208  44.906  36.016   6.764
 4040POPC   C3B52209  44.862  36.037   7.064
 4040POPC   C4B52210  44.837  36.014   7.364
 4041POPC   NC352211  25.297  12.033   5.564
 4041POPC   PO452212  25.284  12.044   5.864
 4041POPC   GL152213  25.263  12.068   6.164
 4041POPC   GL252214  25.272  12.203   6.164
 4041POPC   C1A52215  25.283  12.048   6.464
 4041POPC   D2A52216  25.237  12.060   6.764
 4041POPC   C3A52217  25.311  12.059   7.064
 4041POPC   C4A52218  25.289  12.125   7.364
 4041POPC   C1B52219  25.315  12.337   6.464
 4041POPC   C2B52220  25.383  12.305   6.764
 4041POPC   C3B52221  25.341  12.352   7.064
 4041POPC   C4B52222  25.310  12.268   7.364
 4042POPC   NC352223  24.500  20.590   5.564
 4042POPC   PO452224  24.493  20.622   5.864
 4042POPC   GL152225  24.446  20.600   6.164
 4042POPC   GL252226  24.646  20.604   6.164
 4042POPC   C1A52227  24.523  20.632   6.464
 4042POPC   D2A52228  24.445  20.651   6.764
 4042POPC   C3A52229  24.515  20.645   7.064
 4042POPC   C4A52230  24.446  20.620   7.364
 4042POPC   C1B52231  24.728  20.685   6.464
 4042POPC   C2B52232  24.733  20.703   6.764
 4042POPC   C3B52233  24.764  20.654   7.064
 4042POPC   C4B52234  24.708  20.628   7.364
 4043POPC   NC352235  29.941   4.308   5.564
 4043POPC   PO452236  29.892   4.289   5.864
 4043POPC   GL152237  29.878   4.292   6.164
 4043POPC   GL252238  29.999   4.422   6.164
 4043POPC   C1A52239  29.882   4.309   6.464
 4043POPC   D2A52240  29.878   4.304   6.764
 4043POPC   C3A52241  29.960   4.329   7.064
 4043POPC   C4A52242  29.883   4.341   7.364
 4043POPC   C1B52243  30.041   4.584   6.464
 4043POPC   C2B52244  30.006   4.557   6.764
 4043POPC   C3B52245  30.030   4.524   7.064
 4043POPC   C4B52246  30.043   4.561   7.364
 4044POPC   NC352247   4.306  22.923   5.564
 4044POPC   PO452248   4.307  22.980   5.864
 4044POPC   GL152249   4.284  22.972   6.164
 4044POPC   GL252250   4.366  23.029   6.164
 4044POPC   C1A52251   4.275  22.974   6.464
 4044POPC   D2A52252   4.286  22.908   6.764
 4044POPC   C3A52253   4.345  22.937   7.064
 4044POPC   C4A52254   4.280  22.915   7.364
 4044POPC   C1B52255   4.428  23.164   6.464
 4044POPC   C2B52256   4.406  23.153   6.764
 4044POPC   C3B52257   4.430  23.194   7.064
 4044POPC   C4B52258   4.481  23.172   7.364
 4045POPC   NC352259  12.871  36.940   5.564
 4045POPC   PO452260  12.850  36.905   5.864
 4045POPC   GL152261  12.865  36.867   6.164
 4045POPC   GL252262  12.928  36.760   6.164
 4045POPC   C1A52263  12.886  36.859   6.464
 4045POPC   D2A52264  12.817  36.899   6.764
 4045POPC   C3A52265  12.825  36.942   7.064
 4045POPC   C4A52266  12.901  36.917   7.364
 4045POPC   C1B52267  12.938  36.704   6.464
 4045POPC   C2B52268  13.006  36.701   6.764
 4045POPC   C3B52269  12.927  36.713   7.064
 4045POPC   C4B52270  12.930  36.645   7.364
 4046POPC   NC352271  43.854  40.010   5.564
 4046POPC   PO452272  43.887  40.026   5.864
 4046POPC   GL152273  43.857  40.008   6.164
 4046POPC   GL252274  44.003  39.944   6.164
 4046POPC   C1A52275  43.905  39.973   6.464
 4046POPC   D2A52276  43.893  40.020   6.764
 4046POPC   C3A52277  43.921  40.047   7.064
 4046POPC   C4A52278  43.907  40.053   7.364
 4046POPC   C1B52279  44.124  39.903   6.464
 4046POPC   C2B52280  44.151  39.920   6.764
 4046POPC   C3B52281  44.149  39.910   7.064
 4046POPC   C4B52282  44.175  39.932   7.364
 4047POPC   NC352283  12.085  19.859   5.564
 4047POPC   PO452284  12.082  19.809   5.864
 4047POPC   GL152285  12.043  19.818   6.164
 4047POPC   GL252286  12.159  19.795   6.164
 4047POPC   C1A52287  12.092  19.819   6.464
 4047POPC   D2A52288  12.079  19.809   6.764
 4047POPC   C3A52289  12.116  19.858   7.064
 4047POPC   C4A52290  12.027  19.864   7.364
 4047POPC   C1B52291  12.331  19.698   6.464
 4047POPC   C2B52292  12.265  19.696   6.764
 4047POPC   C3B52293  12.317  19.743   7.064
 4047POPC   C4B52294  12.253  19.739   7.364
 4048POPC   NC352295   6.641   9.001   5.564
 4048POPC   PO452296   6.662   8.966   5.864
 4048POPC   GL152297   6.641   8.974   6.164
 4048POPC   GL252298   6.517   9.089   6.164
 4048POPC   C1A52299   6.666   8.960   6.464
 4048POPC   D2A52300   6.684   8.996   6.764
 4048POPC   C3A52301   6.618   9.021   7.064
 4048POPC   C4A52302   6.689   8.948   7.364
 4048POPC   C1B52303   6.407   9.107   6.464
 4048POPC   C2B52304   6.429   9.123   6.764
 4048POPC   C3B52305   6.430   9.099   7.064
 4048POPC   C4B52306   6.417   9.119   7.364
 4049POPC   NC352307  24.481  35.363   5.564
 4049POPC   PO452308  24.489  35.365   5.864
 4049POPC   GL152309  24.510  35.318   6.164
 4049POPC   GL252310  24.571  35.466   6.164
 4049POPC   C1A52311  24.452  35.382   6.464
 4049POPC   D2A52312  24.536  35.377   6.764
 4049POPC   C3A52313  24.484  35.371   7.064
 4049POPC   C4A52314  24.466  35.336   7.364
 4049POPC   C1B52315  24.599  35.549   6.464
 4049POPC   C2B52316  24.584  35.533   6.764
 4049POPC   C3B52317  24.613  35.568   7.064
 4049POPC   C4B52318  24.609  35.533   7.364
 4050POPC   NC352319  27.638   8.995   5.564
 4050POPC   PO452320  27.623   8.960   5.864
 4050POPC   GL152321  27.600   8.973   6.164
 4050POPC   GL252322  27.455   9.024   6.164
 4050POPC   C1A52323  27.618   8.940   6.464
 4050POPC   D2A52324  27.591   8.951   6.764
 4050POPC   C3A52325  27.578   8.932   7.064
 4050POPC   C4A52326  27.551   8.949   7.364
 4050POPC   C1B52327  27.334   9.049   6.464
 4050POPC   C2B52328  27.313   9.035   6.764
 4050POPC   C3B52329  27.400   9.037   7.064
 4050POPC   C4B52330  27.367   9.021   7.364
 4051POPC   NC352331  21.416  42.288   5.564
 4051POPC   PO452332  21.356  42.342   5.864
 4051POPC   GL152333  21.418  42.355   6.164
 4051POPC   GL252334  21.315  42.430   6.164
 4051POPC   C1A52335  21.357  42.305   6.464
 4051POPC   D2A52336  21.346  42.296   6.764
 4051POPC   C3A52337  21.436  42.343   7.064
 4051POPC   C4A52338  21.385  42.381   7.364
 4051POPC   C1B52339  21.171  42.484   6.464
 4051POPC   C2B52340  21.239  42.492   6.764
 4051POPC   C3B52341  21.220  42.555   7.064
 4051POPC   C4B52342  21.247  42.528   7.364
 4052POPC   NC352343  34.571   2.001   5.564
 4052POPC   PO452344  34.589   1.986   5.864
 4052POPC   GL152345  34.614   1.955   6.164
 4052POPC   GL252346  34.677   2.056   6.164
 4052POPC   C1A52347  34.535   2.031   6.464
 4052POPC   D2A52348  34.567   2.025   6.764
 4052POPC   C3A52349  34.548   1.946   7.064
 4052POPC   C4A52350  34.586   2.019   7.364
 4052POPC   C1B52351  34.704   2.202   6.464
 4052POPC   C2B52352  34.728   2.258   6.764
 4052POPC   C3B52353  34.678   2.207   7.064
 4052POPC   C4B52354  34.656   2.263   7.364
 4053POPC   NC352355  33.789  16.763   5.564
 4053POPC   PO452356  33.817  16.719   5.864
 4053POPC   GL152357  33.767  16.715   6.164
 4053POPC   GL252358  33.761  16.861   6.164
 4053POPC   C1A52359  33.844  16.706   6.464
 4053POPC   D2A52360  33.753  16.726   6.764
 4053POPC   C3A52361  33.810  16.739   7.064
 4053POPC   C4A52362  33.819  16.707   7.364
 4053POPC   C1B52363  33.678  16.878   6.464
 4053POPC   C2B52364  33.665  16.912   6.764
 4053POPC   C3B52365  33.600  16.881   7.064
 4053POPC   C4B52366  33.658  16.971   7.364
 4054POPC   NC352367  22.140  15.144   5.564
 4054POPC   PO452368  22.173  15.189   5.864
 4054POPC   GL152369  22.206  15.229   6.164
 4054POPC   GL252370  22.157  15.348   6.164
 4054POPC   C1A52371  22.155  15.136   6.464
 4054POPC   D2A52372  22.192  15.172   6.764
 4054POPC   C3A52373  22.208  15.144   7.064
 4054POPC   C4A52374  22.122  15.182   7.364
 4054POPC   C1B52375  22.093  15.397   6.464
 4054POPC   C2B52376  22.128  15.432   6.764
 4054POPC   C3B52377  22.119  15.392   7.064
 4054POPC   C4B52378  22.082  15.415   7.364
 4055POPC   NC352379   8.162  43.841   5.564
 4055POPC   PO452380   8.197  43.888   5.864
 4055POPC   GL152381   8.212  43.903   6.164
 4055POPC   GL252382   8.173  43.724   6.164
 4055POPC   C1A52383   8.172  43.887   6.464
 4055POPC   D2A52384   8.177  43.891   6.764
 4055POPC   C3A52385   8.211  43.875   7.064
 4055POPC   C4A52386   8.174  43.878   7.364
 4055POPC   C1B52387   8.175  43.598   6.464
 4055POPC   C2B52388   8.155  43.617   6.764
 4055POPC   C3B52389   8.148  43.639   7.064
 4055POPC   C4B52390   8.131  43.676   7.364
 4056POPC   NC352391  12.890  29.962   5.564
 4056POPC   PO452392  12.861  29.911   5.864
 4056POPC   GL152393  12.809  29.963   6.164
 4056POPC   GL252394  12.936  29.891   6.164
 4056POPC   C1A52395  12.877  29.941   6.464
 4056POPC   D2A52396  12.842  29.931   6.764
 4056POPC   C3A52397  12.810  29.878   7.064
 4056POPC   C4A52398  12.828  29.961   7.364
 4056POPC   C1B52399  13.049  29.770   6.464
 4056POPC   C2B52400  13.087  29.783   6.764
 4056POPC   C3B52401  13.101  29.801   7.064
 4056POPC   C4B52402  13.105  29.786   7.364
 4057POPC   NC352403  43.084  24.462   5.564
 4057POPC   PO452404  43.099  24.488   5.864
 4057POPC   GL152405  43.093  24.522   6.164
 4057POPC   GL252406  43.164  24.398   6.164
 4057POPC   C1A52407  43.156  24.462   6.464
 4057POPC   D2A52408  43.106  24.505   6.764
 4057POPC   C3A52409  43.068  24.521   7.064
 4057POPC   C4A52410  43.092  24.472   7.364
 4057POPC   C1B52411  43.142  24.203   6.464
 4057POPC   C2B52412  43.175  24.268   6.764
 4057POPC   C3B52413  43.172  24.210   7.064
 4057POPC   C4B52414  43.172  24.254   7.364
 4058POPC   NC352415  43.890  18.239   5.564
 4058POPC   PO452416  43.926  18.249   5.864
 4058POPC   GL152417  43.893  18.278   6.164
 4058POPC   GL252418  43.955  18.326   6.164
 4058POPC   C1A52419  43.847  18.283   6.464
 4058POPC   D2A52420  43.925  18.310   6.764
 4058POPC   C3A52421  43.889  18.271   7.064
 4058POPC   C4A52422  43.842  18.290   7.364
 4058POPC   C1B52423  44.137  18.389   6.464
 4058POPC   C2B52424  44.113  18.372   6.764
 4058POPC   C3B52425  44.124  18.419   7.064
 4058POPC   C4B52426  44.095  18.425   7.364
 4059POPC   NC352427   6.666  30.734   5.564
 4059POPC   PO452428   6.655  30.742   5.864
 4059POPC   GL152429   6.670  30.711   6.164
 4059POPC   GL252430   6.512  30.698   6.164
 4059POPC   C1A52431   6.661  30.655   6.464
 4059POPC   D2A52432   6.674  30.716   6.764
 4059POPC   C3A52433   6.643  30.686   7.064
 4059POPC   C4A52434   6.684  30.667   7.364
 4059POPC   C1B52435   6.407  30.802   6.464
 4059POPC   C2B52436   6.386  30.816   6.764
 4059POPC   C3B52437   6.380  30.721   7.064
 4059POPC   C4B52438   6.372  30.791   7.364
 4060POPC   NC352439   2.748  33.842   5.564
 4060POPC   PO452440   2.794  33.836   5.864
 4060POPC   GL152441   2.799  33.772   6.164
 4060POPC   GL252442   2.881  33.835   6.164
 4060POPC   C1A52443   2.749  33.818   6.464
 4060POPC   D2A52444   2.753  33.782   6.764
 4060POPC   C3A52445   2.761  33.817   7.064
 4060POPC   C4A52446   2.789  33.815   7.364
 4060POPC   C1B52447   3.044  33.796   6.464
 4060POPC   C2B52448   2.992  33.805   6.764
 4060POPC   C3B52449   3.001  33.748   7.064
 4060POPC   C4B52450   2.978  33.828   7.364
 4061POPC   NC352451  30.707  26.054   5.564
 4061POPC   PO452452  30.731  26.004   5.864
 4061POPC   GL152453  30.712  26.086   6.164
 4061POPC   GL252454  30.568  26.149   6.164
 4061POPC   C1A52455  30.744  26.089   6.464
 4061POPC   D2A52456  30.726  25.998   6.764
 4061POPC   C3A52457  30.649  26.062   7.064
 4061POPC   C4A52458  30.665  26.062   7.364
 4061POPC   C1B52459  30.552  26.255   6.464
 4061POPC   C2B52460  30.506  26.178   6.764
 4061POPC   C3B52461  30.500  26.208   7.064
 4061POPC   C4B52462  30.513  26.220   7.364
 4062POPC   NC352463  39.278  44.689   5.564
 4062POPC   PO452464  39.249  44.644   5.864
 4062POPC   GL152465  39.245  44.615   6.164
 4062POPC   GL252466  39.181  44.793   6.164
 4062POPC   C1A52467  39.250  44.674   6.464
 4062POPC   D2A52468  39.224  44.628   6.764
 4062POPC   C3A52469  39.244  44.708   7.064
 4062POPC   C4A52470  39.202  44.659   7.364
 4062POPC   C1B52471  39.180  44.866   6.464
 4062POPC   C2B52472  39.169  44.914   6.764
 4062POPC   C3B52473  39.190  44.915   7.064
 4062POPC   C4B52474  39.163  44.894   7.364
 4063POPC   NC352475  21.391  15.932   5.564
 4063POPC   PO452476  21.392  16.004   5.864
 4063POPC   GL152477  21.380  15.935   6.164
 4063POPC   GL252478  21.524  15.945   6.164
 4063POPC   C1A52479  21.349  15.997   6.464
 4063POPC   D2A52480  21.389  15.955   6.764
 4063POPC   C3A52481  21.383  15.912   7.064
 4063POPC   C4A52482  21.374  16.003   7.364
 4063POPC   C1B52483  21.632  15.894   6.464
 4063POPC   C2B52484  21.675  15.905   6.764
 4063POPC   C3B52485  21.612  15.950   7.064
 4063POPC   C4B52486  21.663  15.914   7.364
 4064POPC   NC352487   6.680  20.598   5.564
 4064POPC   PO452488   6.620  20.566   5.864
 4064POPC   GL152489   6.666  20.630   6.164
 4064POPC   GL252490   6.789  20.546   6.164
 4064POPC   C1A52491   6.625  20.597   6.464
 4064POPC   D2A52492   6.602  20.658   6.764
 4064POPC   C3A52493   6.657  20.617   7.064
 4064POPC   C4A52494   6.644  20.607   7.364
 4064POPC   C1B52495   6.844  20.499   6.464
 4064POPC   C2B52496   6.917  20.479   6.764
 4064POPC   C3B52497   6.911  20.506   7.064
 4064POPC   C4B52498   6.838  20.518   7.364
 4065POPC   NC352499  33.757  12.122   5.564
 4065POPC   PO452500  33.814  12.102   5.864
 4065POPC   GL152501  33.784  12.091   6.164
 4065POPC   GL252502  33.653  12.071   6.164
 4065POPC   C1A52503  33.814  12.030   6.464
 4065POPC   D2A52504  33.764  12.078   6.764
 4065POPC   C3A52505  33.833  12.067   7.064
 4065POPC   C4A52506  33.798  12.077   7.364
 4065POPC   C1B52507  33.584  12.143   6.464
 4065POPC   C2B52508  33.587  12.143   6.764
 4065POPC   C3B52509  33.511  12.061   7.064
 4065POPC   C4B52510  33.523  12.142   7.364
 4066POPC   NC352511  34.597  20.614   5.564
 4066POPC   PO452512  34.546  20.561   5.864
 4066POPC   GL152513  34.607  20.575   6.164
 4066POPC   GL252514  34.653  20.680   6.164
 4066POPC   C1A52515  34.618  20.659   6.464
 4066POPC   D2A52516  34.624  20.566   6.764
 4066POPC   C3A52517  34.528  20.643   7.064
 4066POPC   C4A52518  34.595  20.594   7.364
 4066POPC   C1B52519  34.707  20.847   6.464
 4066POPC   C2B52520  34.706  20.839   6.764
 4066POPC   C3B52521  34.756  20.838   7.064
 4066POPC   C4B52522  34.708  20.812   7.364
 4067POPC   NC352523  17.471  16.004   5.564
 4067POPC   PO452524  17.547  15.985   5.864
 4067POPC   GL152525  17.458  15.988   6.164
 4067POPC   GL252526  17.394  16.059   6.164
 4067POPC   C1A52527  17.516  15.957   6.464
 4067POPC   D2A52528  17.555  15.985   6.764
 4067POPC   C3A52529  17.518  15.952   7.064
 4067POPC   C4A52530  17.507  15.916   7.364
 4067POPC   C1B52531  17.280  16.071   6.464
 4067POPC   C2B52532  17.248  16.037   6.764
 4067POPC   C3B52533  17.263  16.024   7.064
 4067POPC   C4B52534  17.328  16.052   7.364
 4068POPC   NC352535  44.635  24.540   5.564
 4068POPC   PO452536  44.640  24.444   5.864
 4068POPC   GL152537  44.709  24.444   6.164
 4068POPC   GL252538  44.813  24.444   6.164
 4068POPC   C1A52539  44.628  24.525   6.464
 4068POPC   D2A52540  44.652  24.511   6.764
 4068POPC   C3A52541  44.657  24.518   7.064
 4068POPC   C4A52542  44.700  24.514   7.364
 4068POPC   C1B52543  44.886  24.348   6.464
 4068POPC   C2B52544  44.908  24.381   6.764
 4068POPC   C3B52545  44.907  24.355   7.064
 4068POPC   C4B52546  44.844  24.377   7.364
 4069POPC   NC352547  15.227  19.050   5.564
 4069POPC   PO452548  15.198  19.086   5.864
 4069POPC   GL152549  15.182  19.090   6.164
 4069POPC   GL252550  15.116  18.909   6.164
 4069POPC   C1A52551  15.207  19.063   6.464
 4069POPC   D2A52552  15.139  19.078   6.764
 4069POPC   C3A52553  15.149  19.083   7.064
 4069POPC   C4A52554  15.173  19.016   7.364
 4069POPC   C1B52555  15.092  18.808   6.464
 4069POPC   C2B52556  15.103  18.821   6.764
 4069POPC   C3B52557  15.037  18.829   7.064
 4069POPC   C4B52558  15.108  18.814   7.364
 4070POPC   NC352559   9.716  26.824   5.564
 4070POPC   PO452560   9.770  26.802   5.864
 4070POPC   GL152561   9.759  26.850   6.164
 4070POPC   GL252562   9.589  26.847   6.164
 4070POPC   C1A52563   9.726  26.827   6.464
 4070POPC   D2A52564   9.726  26.814   6.764
 4070POPC   C3A52565   9.756  26.772   7.064
 4070POPC   C4A52566   9.775  26.768   7.364
 4070POPC   C1B52567   9.495  26.788   6.464
 4070POPC   C2B52568   9.493  26.769   6.764
 4070POPC   C3B52569   9.517  26.794   7.064
 4070POPC   C4B52570   9.504  26.805   7.364
 4071POPC   NC352571  43.896  36.900   5.564
 4071POPC   PO452572  43.846  36.942   5.864
 4071POPC   GL152573  43.893  36.910   6.164
 4071POPC   GL252574  43.796  36.980   6.164
 4071POPC   C1A52575  43.892  36.928   6.464
 4071POPC   D2A52576  43.924  36.929   6.764
 4071POPC   C3A52577  43.856  36.876   7.064
 4071POPC   C4A52578  43.882  36.948   7.364
 4071POPC   C1B52579  43.744  37.130   6.464
 4071POPC   C2B52580  43.787  37.115   6.764
 4071POPC   C3B52581  43.753  37.122   7.064
 4071POPC   C4B52582  43.761  37.122   7.364
 4072POPC   NC352583  31.429   5.103   5.564
 4072POPC   PO452584  31.438   5.122   5.864
 4072POPC   GL152585  31.519   5.068   6.164
 4072POPC   GL252586  31.607   5.190   6.164
 4072POPC   C1A52587  31.485   5.073   6.464
 4072POPC   D2A52588  31.485   5.073   6.764
 4072POPC   C3A52589  31.443   5.051   7.064
 4072POPC   C4A52590  31.425   5.077   7.364
 4072POPC   C1B52591  31.639   5.218   6.464
 4072POPC   C2B52592  31.702   5.217   6.764
 4072POPC   C3B52593  31.627   5.308   7.064
 4072POPC   C4B52594  31.612   5.274   7.364
 4073POPC   NC352595  16.774  22.921   5.564
 4073POPC   PO452596  16.685  22.909   5.864
 4073POPC   GL152597  16.741  22.980   6.164
 4073POPC   GL252598  16.643  22.917   6.164
 4073POPC   C1A52599  16.739  22.899   6.464
 4073POPC   D2A52600  16.684  22.959   6.764
 4073POPC   C3A52601  16.773  22.917   7.064
 4073POPC   C4A52602  16.758  22.952   7.364
 4073POPC   C1B52603  16.457  22.933   6.464
 4073POPC   C2B52604  16.466  22.920   6.764
 4073POPC   C3B52605  16.527  22.929   7.064
 4073POPC   C4B52606  16.467  22.941   7.364
 4074POPC   NC352607  21.420  37.639   5.564
 4074POPC   PO452608  21.380  37.676   5.864
 4074POPC   GL152609  21.418  37.692   6.164
 4074POPC   GL252610  21.286  37.813   6.164
 4074POPC   C1A52611  21.404  37.727   6.464
 4074POPC   D2A52612  21.344  37.664   6.764
 4074POPC   C3A52613  21.395  37.699   7.064
 4074POPC   C4A52614  21.340  37.673   7.364
 4074POPC   C1B52615  21.192  37.927   6.464
 4074POPC   C2B52616  21.276  37.873   6.764
 4074POPC   C3B52617  21.246  37.906   7.064
 4074POPC   C4B52618  21.209  37.913   7.364
 4075POPC   NC352619   2.798  16.759   5.564
 4075POPC   PO452620   2.790  16.758   5.864
 4075POPC   GL152621   2.811  16.733   6.164
 4075POPC   GL252622   2.894  16.737   6.164
 4075POPC   C1A52623   2.793  16.712   6.464
 4075POPC   D2A52624   2.785  16.751   6.764
 4075POPC   C3A52625   2.785  16.702   7.064
 4075POPC   C4A52626   2.796  16.764   7.364
 4075POPC   C1B52627   3.041  16.640   6.464
 4075POPC   C2B52628   3.047  16.725   6.764
 4075POPC   C3B52629   3.019  16.722   7.064
 4075POPC   C4B52630   2.974  16.644   7.364
 4076POPC   NC352631   1.175  19.034   5.564
 4076POPC   PO452632   1.200  19.049   5.864
 4076POPC   GL152633   1.200  19.044   6.164
 4076POPC   GL252634   1.237  18.895   6.164
 4076POPC   C1A52635   1.179  19.049   6.464
 4076POPC   D2A52636   1.182  19.069   6.764
 4076POPC   C3A52637   1.226  19.048   7.064
 4076POPC   C4A52638   1.219  19.096   7.364
 4076POPC   C1B52639   1.321  18.803   6.464
 4076POPC   C2B52640   1.268  18.774   6.764
 4076POPC   C3B52641   1.306  18.842   7.064
 4076POPC   C4B52642   1.250  18.833   7.364
 4077POPC   NC352643  22.205   0.445   5.564
 4077POPC   PO452644  22.167   0.423   5.864
 4077POPC   GL152645  22.165   0.472   6.164
 4077POPC   GL252646  22.297   0.388   6.164
 4077POPC   C1A52647  22.178   0.410   6.464
 4077POPC   D2A52648  22.119   0.437   6.764
 4077POPC   C3A52649  22.124   0.461   7.064
 4077POPC   C4A52650  22.177   0.468   7.364
 4077POPC   C1B52651  22.301   0.309   6.464
 4077POPC   C2B52652  22.311   0.254   6.764
 4077POPC   C3B52653  22.354   0.285   7.064
 4077POPC   C4B52654  22.394   0.317   7.364
 4078POPC   NC352655  25.999  36.871   5.564
 4078POPC   PO452656  26.032  36.854   5.864
 4078POPC   GL152657  26.074  36.866   6.164
 4078POPC   GL252658  25.963  36.846   6.164
 4078POPC   C1A52659  26.030  36.909   6.464
 4078POPC   D2A52660  26.055  36.928   6.764
 4078POPC   C3A52661  26.082  36.942   7.064
 4078POPC   C4A52662  26.054  36.901   7.364
 4078POPC   C1B52663  25.804  36.805   6.464
 4078POPC   C2B52664  25.775  36.767   6.764
 4078POPC   C3B52665  25.789  36.797   7.064
 4078POPC   C4B52666  25.829  36.811   7.364
 4079POPC   NC352667  15.932  18.303   5.564
 4079POPC   PO452668  15.934  18.286   5.864
 4079POPC   GL152669  16.004  18.248   6.164
 4079POPC   GL252670  15.858  18.157   6.164
 4079POPC   C1A52671  15.974  18.285   6.464
 4079POPC   D2A52672  15.974  18.244   6.764
 4079POPC   C3A52673  16.000  18.246   7.064
 4079POPC   C4A52674  15.979  18.237   7.364
 4079POPC   C1B52675  15.796  18.163   6.464
 4079POPC   C2B52676  15.786  18.160   6.764
 4079POPC   C3B52677  15.740  18.091   7.064
 4079POPC   C4B52678  15.809  18.074   7.364
 4080POPC   NC352679  33.807  24.493   5.564
 4080POPC   PO452680  33.842  24.506   5.864
 4080POPC   GL152681  33.808  24.514   6.164
 4080POPC   GL252682  33.729  24.579   6.164
 4080POPC   C1A52683  33.760  24.472   6.464
 4080POPC   D2A52684  33.847  24.466   6.764
 4080POPC   C3A52685  33.791  24.487   7.064
 4080POPC   C4A52686  33.782  24.499   7.364
 4080POPC   C1B52687  33.685  24.744   6.464
 4080POPC   C2B52688  33.721  24.717   6.764
 4080POPC   C3B52689  33.723  24.711   7.064
 4080POPC   C4B52690  33.724  24.751   7.364
 4081POPC   NC352691   1.221  41.584   5.564
 4081POPC   PO452692   1.217  41.603   5.864
 4081POPC   GL152693   1.241  41.521   6.164
 4081POPC   GL252694   1.165  41.719   6.164
 4081POPC   C1A52695   1.244  41.554   6.464
 4081POPC   D2A52696   1.176  41.587   6.764
 4081POPC   C3A52697   1.211  41.573   7.064
 4081POPC   C4A52698   1.178  41.567   7.364
 4081POPC   C1B52699   1.168  41.792   6.464
 4081POPC   C2B52700   1.140  41.807   6.764
 4081POPC   C3B52701   1.144  41.749   7.064
 4081POPC   C4B52702   1.092  41.776   7.364
 4082POPC   NC352703   7.438   1.228   5.564
 4082POPC   PO452704   7.446   1.207   5.864
 4082POPC   GL152705   7.426   1.220   6.164
 4082POPC   GL252706   7.594   1.196   6.164
 4082POPC   C1A52707   7.405   1.242   6.464
 4082POPC   D2A52708   7.424   1.201   6.764
 4082POPC   C3A52709   7.439   1.245   7.064
 4082POPC   C4A52710   7.428   1.184   7.364
 4082POPC   C1B52711   7.629   1.266   6.464
 4082POPC   C2B52712   7.707   1.215   6.764
 4082POPC   C3B52713   7.678   1.196   7.064
 4082POPC   C4B52714   7.674   1.224   7.364
 4083POPC   NC352715   5.048  24.480   5.564
 4083POPC   PO452716   5.096  24.449   5.864
 4083POPC   GL152717   5.046  24.469   6.164
 4083POPC   GL252718   5.257  24.473   6.164
 4083POPC   C1A52719   5.110  24.468   6.464
 4083POPC   D2A52720   5.109  24.464   6.764
 4083POPC   C3A52721   5.070  24.539   7.064
 4083POPC   C4A52722   5.119  24.459   7.364
 4083POPC   C1B52723   5.324  24.451   6.464
 4083POPC   C2B52724   5.317  24.482   6.764
 4083POPC   C3B52725   5.348  24.494   7.064
 4083POPC   C4B52726   5.344  24.472   7.364
 4084POPC   NC352727   1.964  22.906   5.564
 4084POPC   PO452728   2.036  22.958   5.864
 4084POPC   GL152729   1.946  22.933   6.164
 4084POPC   GL252730   2.046  22.833   6.164
 4084POPC   C1A52731   1.955  22.988   6.464
 4084POPC   D2A52732   1.998  22.934   6.764
 4084POPC   C3A52733   1.950  22.916   7.064
 4084POPC   C4A52734   1.996  22.966   7.364
 4084POPC   C1B52735   2.145  22.709   6.464
 4084POPC   C2B52736   2.148  22.740   6.764
 4084POPC   C3B52737   2.135  22.696   7.064
 4084POPC   C4B52738   2.094  22.776   7.364
 4085POPC   NC352739  14.399  36.174   5.564
 4085POPC   PO452740  14.410  36.123   5.864
 4085POPC   GL152741  14.443  36.108   6.164
 4085POPC   GL252742  14.490  36.040   6.164
 4085POPC   C1A52743  14.373  36.167   6.464
 4085POPC   D2A52744  14.391  36.152   6.764
 4085POPC   C3A52745  14.411  36.126   7.064
 4085POPC   C4A52746  14.379  36.122   7.364
 4085POPC   C1B52747  14.552  35.919   6.464
 4085POPC   C2B52748  14.567  35.916   6.764
 4085POPC   C3B52749  14.601  35.920   7.064
 4085POPC   C4B52750  14.573  35.908   7.364
 4086POPC   NC352751  12.854  39.981   5.564
 4086POPC   PO452752  12.865  40.011   5.864
 4086POPC   GL152753  12.813  40.041   6.164
 4086POPC   GL252754  12.938  40.119   6.164
 4086POPC   C1A52755  12.881  39.971   6.464
 4086POPC   D2A52756  12.857  40.021   6.764
 4086POPC   C3A52757  12.813  40.037   7.064
 4086POPC   C4A52758  12.874  40.024   7.364
 4086POPC   C1B52759  13.064  40.151   6.464
 4086POPC   C2B52760  13.046  40.166   6.764
 4086POPC   C3B52761  13.064  40.160   7.064
 4086POPC   C4B52762  13.023  40.178   7.364
 4087POPC   NC352763  39.225  24.458   5.564
 4087POPC   PO452764  39.193  24.454   5.864
 4087POPC   GL152765  39.254  24.533   6.164
 4087POPC   GL252766  39.184  24.356   6.164
 4087POPC   C1A52767  39.281  24.525   6.464
 4087POPC   D2A52768  39.189  24.528   6.764
 4087POPC   C3A52769  39.279  24.538   7.064
 4087POPC   C4A52770  39.211  24.468   7.364
 4087POPC   C1B52771  39.215  24.201   6.464
 4087POPC   C2B52772  39.198  24.241   6.764
 4087POPC   C3B52773  39.187  24.239   7.064
 4087POPC   C4B52774  39.202  24.287   7.364
 4088POPC   NC352775   8.229  26.794   5.564
 4088POPC   PO452776   8.176  26.799   5.864
 4088POPC   GL152777   8.172  26.813   6.164
 4088POPC   GL252778   8.185  26.655   6.164
 4088POPC   C1A52779   8.171  26.796   6.464
 4088POPC   D2A52780   8.175  26.857   6.764
 4088POPC   C3A52781   8.195  26.775   7.064
 4088POPC   C4A52782   8.207  26.804   7.364
 4088POPC   C1B52783   8.109  26.523   6.464
 4088POPC   C2B52784   8.203  26.590   6.764
 4088POPC   C3B52785   8.151  26.553   7.064
 4088POPC   C4B52786   8.119  26.570   7.364
 4089POPC   NC352787   3.589   8.926   5.564
 4089POPC   PO452788   3.513   8.999   5.864
 4089POPC   GL152789   3.537   8.978   6.164
 4089POPC   GL252790   3.645   9.076   6.164
 4089POPC   C1A52791   3.525   8.947   6.464
 4089POPC   D2A52792   3.577   9.000   6.764
 4089POPC   C3A52793   3.542   9.017   7.064
 4089POPC   C4A52794   3.505   8.926   7.364
 4089POPC   C1B52795   3.692   9.165   6.464
 4089POPC   C2B52796   3.642   9.152   6.764
 4089POPC   C3B52797   3.659   9.215   7.064
 4089POPC   C4B52798   3.653   9.142   7.364
 4090POPC   NC352799   7.371   0.416   5.564
 4090POPC   PO452800   7.408   0.406   5.864
 4090POPC   GL152801   7.465   0.398   6.164
 4090POPC   GL252802   7.532   0.522   6.164
 4090POPC   C1A52803   7.458   0.419   6.464
 4090POPC   D2A52804   7.431   0.447   6.764
 4090POPC   C3A52805   7.376   0.437   7.064
 4090POPC   C4A52806   7.420   0.484   7.364
 4090POPC   C1B52807   7.632   0.595   6.464
 4090POPC   C2B52808   7.569   0.606   6.764
 4090POPC   C3B52809   7.549   0.665   7.064
 4090POPC   C4B52810   7.584   0.650   7.364
 4091POPC   NC352811   9.784  29.135   5.564
 4091POPC   PO452812   9.713  29.195   5.864
 4091POPC   GL152813   9.786  29.119   6.164
 4091POPC   GL252814   9.840  29.081   6.164
 4091POPC   C1A52815   9.778  29.162   6.464
 4091POPC   D2A52816   9.736  29.143   6.764
 4091POPC   C3A52817   9.722  29.095   7.064
 4091POPC   C4A52818   9.761  29.182   7.364
 4091POPC   C1B52819  10.035  29.143   6.464
 4091POPC   C2B52820  10.027  29.078   6.764
 4091POPC   C3B52821  10.029  29.070   7.064
 4091POPC   C4B52822   9.961  29.110   7.364
 4092POPC   NC352823  16.780  12.098   5.564
 4092POPC   PO452824  16.745  12.054   5.864
 4092POPC   GL152825  16.695  12.048   6.164
 4092POPC   GL252826  16.870  12.100   6.164
 4092POPC   C1A52827  16.779  12.046   6.464
 4092POPC   D2A52828  16.734  12.029   6.764
 4092POPC   C3A52829  16.711  12.114   7.064
 4092POPC   C4A52830  16.692  12.076   7.364
 4092POPC   C1B52831  16.931  12.264   6.464
 4092POPC   C2B52832  16.976  12.177   6.764
 4092POPC   C3B52833  16.954  12.228   7.064
 4092POPC   C4B52834  16.914  12.187   7.364
 4093POPC   NC352835  43.847   1.260   5.564
 4093POPC   PO452836  43.844   1.171   5.864
 4093POPC   GL152837  43.840   1.193   6.164
 4093POPC   GL252838  43.843   1.334   6.164
 4093POPC   C1A52839  43.896   1.165   6.464
 4093POPC   D2A52840  43.920   1.167   6.764
 4093POPC   C3A52841  43.851   1.227   7.064
 4093POPC   C4A52842  43.860   1.239   7.364
 4093POPC   C1B52843  43.764   1.428   6.464
 4093POPC   C2B52844  43.716   1.410   6.764
 4093POPC   C3B52845  43.699   1.431   7.064
 4093POPC   C4B52846  43.714   1.447   7.364
 4094POPC   NC352847  10.545  19.088   5.564
 4094POPC   PO452848  10.513  19.062   5.864
 4094POPC   GL152849  10.524  19.073   6.164
 4094POPC   GL252850  10.357  19.033   6.164
 4094POPC   C1A52851  10.508  19.108   6.464
 4094POPC   D2A52852  10.530  19.069   6.764
 4094POPC   C3A52853  10.562  19.064   7.064
 4094POPC   C4A52854  10.549  19.072   7.364
 4094POPC   C1B52855  10.293  19.052   6.464
 4094POPC   C2B52856  10.288  19.021   6.764
 4094POPC   C3B52857  10.289  19.098   7.064
 4094POPC   C4B52858  10.251  19.016   7.364
 4095POPC   NC352859  14.359  14.437   5.564
 4095POPC   PO452860  14.408  14.370   5.864
 4095POPC   GL152861  14.387  14.379   6.164
 4095POPC   GL252862  14.330  14.278   6.164
 4095POPC   C1A52863  14.411  14.359   6.464
 4095POPC   D2A52864  14.399  14.380   6.764
 4095POPC   C3A52865  14.404  14.390   7.064
 4095POPC   C4A52866  14.404  14.434   7.364
 4095POPC   C1B52867  14.257  14.213   6.464
 4095POPC   C2B52868  14.217  14.200   6.764
 4095POPC   C3B52869  14.214  14.176   7.064
 4095POPC   C4B52870  14.248  14.241   7.364
 4096POPC   NC352871   4.362   5.068   5.564
 4096POPC   PO452872   4.320   5.111   5.864
 4096POPC   GL152873   4.310   5.098   6.164
 4096POPC   GL252874   4.222   4.984   6.164
 4096POPC   C1A52875   4.354   5.099   6.464
 4096POPC   D2A52876   4.329   5.048   6.764
 4096POPC   C3A52877   4.319   5.093   7.064
 4096POPC   C4A52878   4.272   5.083   7.364
 4096POPC   C1B52879   4.223   4.899   6.464
 4096POPC   C2B52880   4.215   4.893   6.764
 4096POPC   C3B52881   4.201   4.907   7.064
 4096POPC   C4B52882   4.194   4.930   7.364
 4097POPC   NC352883  15.930  36.877   5.564
 4097POPC   PO452884  15.959  36.884   5.864
 4097POPC   GL152885  15.923  36.857   6.164
 4097POPC   GL252886  15.965  36.744   6.164
 4097POPC   C1A52887  15.907  36.861   6.464
 4097POPC   D2A52888  15.954  36.929   6.764
 4097POPC   C3A52889  15.983  36.928   7.064
 4097POPC   C4A52890  15.914  36.869   7.364
 4097POPC   C1B52891  16.101  36.692   6.464
 4097POPC   C2B52892  16.109  36.679   6.764
 4097POPC   C3B52893  16.070  36.691   7.064
 4097POPC   C4B52894  16.020  36.653   7.364
 4098POPC   NC352895  43.887  28.344   5.564
 4098POPC   PO452896  43.837  28.412   5.864
 4098POPC   GL152897  43.855  28.329   6.164
 4098POPC   GL252898  43.997  28.307   6.164
 4098POPC   C1A52899  43.848  28.321   6.464
 4098POPC   D2A52900  43.893  28.388   6.764
 4098POPC   C3A52901  43.915  28.406   7.064
 4098POPC   C4A52902  43.885  28.336   7.364
 4098POPC   C1B52903  44.097  28.213   6.464
 4098POPC   C2B52904  44.075  28.258   6.764
 4098POPC   C3B52905  44.140  28.285   7.064
 4098POPC   C4B52906  44.092  28.208   7.364
 4099POPC   NC352907   8.935  21.424   5.564
 4099POPC   PO452908   9.006  21.364   5.864
 4099POPC   GL152909   9.021  21.435   6.164
 4099POPC   GL252910   9.089  21.364   6.164
 4099POPC   C1A52911   9.001  21.429   6.464
 4099POPC   D2A52912   8.925  21.398   6.764
 4099POPC   C3A52913   8.939  21.404   7.064
 4099POPC   C4A52914   9.010  21.424   7.364
 4099POPC   C1B52915   9.176  21.362   6.464
 4099POPC   C2B52916   9.204  21.325   6.764
 4099POPC   C3B52917   9.248  21.369   7.064
 4099POPC   C4B52918   9.183  21.411   7.364
 4100POPC   NC352919  18.324  37.709   5.564
 4100POPC   PO452920  18.268  37.677   5.864
 4100POPC   GL152921  18.328  37.661   6.164
 4100POPC   GL252922  18.301  37.834   6.164
 4100POPC   C1A52923  18.276  37.666   6.464
 4100POPC   D2A52924  18.291  37.662   6.764
 4100POPC   C3A52925  18.261  37.707   7.064
 4100POPC   C4A52926  18.308  37.676   7.364
 4100POPC   C1B52927  18.369  37.865   6.464
 4100POPC   C2B52928  18.397  37.954   6.764
 4100POPC   C3B52929  18.389  37.889   7.064
 4100POPC   C4B52930  18.353  37.874   7.364
 4101POPC   NC352931   1.212   7.371   5.564
 4101POPC   PO452932   1.170   7.440   5.864
 4101POPC   GL152933   1.177   7.375   6.164
 4101POPC   GL252934   1.274   7.530   6.164
 4101POPC   C1A52935   1.208   7.381   6.464
 4101POPC   D2A52936   1.203   7.393   6.764
 4101POPC   C3A52937   1.193   7.417   7.064
 4101POPC   C4A52938   1.187   7.450   7.364
 4101POPC   C1B52939   1.278   7.624   6.464
 4101POPC   C2B52940   1.290   7.647   6.764
 4101POPC   C3B52941   1.279   7.691   7.064
 4101POPC   C4B52942   1.316   7.644   7.364
 4102POPC   NC352943  10.535  38.480   5.564
 4102POPC   PO452944  10.538  38.434   5.864
 4102POPC   GL152945  10.499  38.415   6.164
 4102POPC   GL252946  10.576  38.557   6.164
 4102POPC   C1A52947  10.508  38.414   6.464
 4102POPC   D2A52948  10.483  38.460   6.764
 4102POPC   C3A52949  10.532  38.417   7.064
 4102POPC   C4A52950  10.513  38.481   7.364
 4102POPC   C1B52951  10.679  38.653   6.464
 4102POPC   C2B52952  10.671  38.640   6.764
 4102POPC   C3B52953  10.696  38.644   7.064
 4102POPC   C4B52954  10.734  38.631   7.364
 4103POPC   NC352955   4.340  12.124   5.564
 4103POPC   PO452956   4.359  12.089   5.864
 4103POPC   GL152957   4.359  12.042   6.164
 4103POPC   GL252958   4.175  12.162   6.164
 4103POPC   C1A52959   4.312  12.088   6.464
 4103POPC   D2A52960   4.299  12.052   6.764
 4103POPC   C3A52961   4.341  12.110   7.064
 4103POPC   C4A52962   4.316  12.104   7.364
 4103POPC   C1B52963   4.115  12.199   6.464
 4103POPC   C2B52964   4.090  12.228   6.764
 4103POPC   C3B52965   4.066  12.231   7.064
 4103POPC   C4B52966   4.148  12.229   7.364
 4104POPC   NC352967   5.075  43.873   5.564
 4104POPC   PO452968   5.104  43.928   5.864
 4104POPC   GL152969   5.064  43.872   6.164
 4104POPC   GL252970   5.169  44.014   6.164
 4104POPC   C1A52971   5.133  43.931   6.464
 4104POPC   D2A52972   5.117  43.907   6.764
 4104POPC   C3A52973   5.068  43.914   7.064
 4104POPC   C4A52974   5.085  43.880   7.364
 4104POPC   C1B52975   5.307  44.031   6.464
 4104POPC   C2B52976   5.315  44.111   6.764
 4104POPC   C3B52977   5.302  44.070   7.064
 4104POPC   C4B52978   5.308  44.043   7.364
 4105POPC   NC352979  42.375  36.864   5.564
 4105POPC   PO452980  42.366  36.913   5.864
 4105POPC   GL152981  42.382  36.905   6.164
 4105POPC   GL252982  42.184  36.917   6.164
 4105POPC   C1A52983  42.332  36.929   6.464
 4105POPC   D2A52984  42.374  36.932   6.764
 4105POPC   C3A52985  42.305  36.919   7.064
 4105POPC   C4A52986  42.367  36.889   7.364
 4105POPC   C1B52987  42.066  36.922   6.464
 4105POPC   C2B52988  42.100  36.952   6.764
 4105POPC   C3B52989  42.134  36.935   7.064
 4105POPC   C4B52990  42.091  36.933   7.364
 4106POPC   NC352991   6.694  34.590   5.564
 4106POPC   PO452992   6.677  34.573   5.864
 4106POPC   GL152993   6.635  34.585   6.164
 4106POPC   GL252994   6.786  34.572   6.164
 4106POPC   C1A52995   6.616  34.550   6.464
 4106POPC   D2A52996   6.666  34.570   6.764
 4106POPC   C3A52997   6.617  34.602   7.064
 4106POPC   C4A52998   6.674  34.563   7.364
 4106POPC   C1B52999   6.936  34.581   6.464
 4106POPC   C2B53000   6.883  34.579   6.764
 4106POPC   C3B53001   6.889  34.589   7.064
 4106POPC   C4B53002   6.896  34.586   7.364
 4107POPC   NC353003  20.657  14.421   5.564
 4107POPC   PO453004  20.636  14.419   5.864
 4107POPC   GL153005  20.628  14.443   6.164
 4107POPC   GL253006  20.486  14.480   6.164
 4107POPC   C1A53007  20.597  14.441   6.464
 4107POPC   D2A53008  20.568  14.375   6.764
 4107POPC   C3A53009  20.599  14.371   7.064
 4107POPC   C4A53010  20.629  14.361   7.364
 4107POPC   C1B53011  20.423  14.565   6.464
 4107POPC   C2B53012  20.391  14.493   6.764
 4107POPC   C3B53013  20.401  14.512   7.064
 4107POPC   C4B53014  20.418  14.550   7.364
 4108POPC   NC353015  39.965  17.502   5.564
 4108POPC   PO453016  39.998  17.469   5.864
 4108POPC   GL153017  39.994  17.524   6.164
 4108POPC   GL253018  40.126  17.558   6.164
 4108POPC   C1A53019  39.987  17.513   6.464
 4108POPC   D2A53020  39.969  17.458   6.764
 4108POPC   C3A53021  39.968  17.466   7.064
 4108POPC   C4A53022  39.984  17.486   7.364
 4108POPC   C1B53023  40.272  17.628   6.464
 4108POPC   C2B53024  40.243  17.643   6.764
 4108POPC   C3B53025  40.248  17.673   7.064
 4108POPC   C4B53026  40.271  17.621   7.364
 4109POPC   NC353027  41.555  15.911   5.564
 4109POPC   PO453028  41.595  15.960   5.864
 4109POPC   GL153029  41.511  15.963   6.164
 4109POPC   GL253030  41.494  15.845   6.164
 4109POPC   C1A53031  41.578  15.914   6.464
 4109POPC   D2A53032  41.528  15.991   6.764
 4109POPC   C3A53033  41.593  15.955   7.064
 4109POPC   C4A53034  41.513  15.911   7.364
 4109POPC   C1B53035  41.377  15.781   6.464
 4109POPC   C2B53036  41.407  15.747   6.764
 4109POPC   C3B53037  41.396  15.800   7.064
 4109POPC   C4B53038  41.430  15.777   7.364
 4110POPC   NC353039  36.110  42.291   5.564
 4110POPC   PO453040  36.165  42.355   5.864
 4110POPC   GL153041  36.103  42.358   6.164
 4110POPC   GL253042  36.077  42.266   6.164
 4110POPC   C1A53043  36.152  42.332   6.464
 4110POPC   D2A53044  36.162  42.374   6.764
 4110POPC   C3A53045  36.079  42.303   7.064
 4110POPC   C4A53046  36.093  42.378   7.364
 4110POPC   C1B53047  35.981  42.193   6.464
 4110POPC   C2B53048  35.948  42.145   6.764
 4110POPC   C3B53049  35.959  42.194   7.064
 4110POPC   C4B53050  35.993  42.191   7.364
 4111POPC   NC353051  32.272  26.033   5.564
 4111POPC   PO453052  32.277  26.087   5.864
 4111POPC   GL153053  32.271  26.009   6.164
 4111POPC   GL253054  32.132  26.066   6.164
 4111POPC   C1A53055  32.208  26.006   6.464
 4111POPC   D2A53056  32.231  26.080   6.764
 4111POPC   C3A53057  32.291  26.084   7.064
 4111POPC   C4A53058  32.214  26.012   7.364
 4111POPC   C1B53059  31.987  26.113   6.464
 4111POPC   C2B53060  32.033  26.174   6.764
 4111POPC   C3B53061  32.054  26.153   7.064
 4111POPC   C4B53062  32.005  26.101   7.364
 4112POPC   NC353063   9.016  35.385   5.564
 4112POPC   PO453064   8.985  35.354   5.864
 4112POPC   GL153065   8.955  35.354   6.164
 4112POPC   GL253066   9.078  35.419   6.164
 4112POPC   C1A53067   8.927  35.319   6.464
 4112POPC   D2A53068   9.010  35.302   6.764
 4112POPC   C3A53069   8.968  35.354   7.064
 4112POPC   C4A53070   8.948  35.304   7.364
 4112POPC   C1B53071   9.130  35.548   6.464
 4112POPC   C2B53072   9.106  35.538   6.764
 4112POPC   C3B53073   9.093  35.553   7.064
 4112POPC   C4B53074   9.113  35.579   7.364
 4113POPC   NC353075  25.279  37.636   5.564
 4113POPC   PO453076  25.258  37.679   5.864
 4113POPC   GL153077  25.293  37.636   6.164
 4113POPC   GL253078  25.141  37.711   6.164
 4113POPC   C1A53079  25.225  37.710   6.464
 4113POPC   D2A53080  25.308  37.661   6.764
 4113POPC   C3A53081  25.250  37.716   7.064
 4113POPC   C4A53082  25.255  37.685   7.364
 4113POPC   C1B53083  25.017  37.671   6.464
 4113POPC   C2B53084  24.971  37.711   6.764
 4113POPC   C3B53085  25.018  37.691   7.064
 4113POPC   C4B53086  25.025  37.646   7.364
 4114POPC   NC353087  12.109  28.400   5.564
 4114POPC   PO453088  12.094  28.375   5.864
 4114POPC   GL153089  12.070  28.321   6.164
 4114POPC   GL253090  12.112  28.524   6.164
 4114POPC   C1A53091  12.026  28.334   6.464
 4114POPC   D2A53092  12.096  28.402   6.764
 4114POPC   C3A53093  12.090  28.391   7.064
 4114POPC   C4A53094  12.067  28.365   7.364
 4114POPC   C1B53095  12.091  28.654   6.464
 4114POPC   C2B53096  12.095  28.641   6.764
 4114POPC   C3B53097  12.085  28.620   7.064
 4114POPC   C4B53098  12.143  28.666   7.364
 4115POPC   NC353099  15.149   1.236   5.564
 4115POPC   PO453100  15.130   1.166   5.864
 4115POPC   GL153101  15.142   1.218   6.164
 4115POPC   GL253102  15.123   1.172   6.164
 4115POPC   C1A53103  15.159   1.196   6.464
 4115POPC   D2A53104  15.196   1.192   6.764
 4115POPC   C3A53105  15.136   1.204   7.064
 4115POPC   C4A53106  15.132   1.164   7.364
 4115POPC   C1B53107  14.953   1.009   6.464
 4115POPC   C2B53108  14.986   1.058   6.764
 4115POPC   C3B53109  14.952   1.031   7.064
 4115POPC   C4B53110  14.989   1.024   7.364
 4116POPC   NC353111   9.021  19.069   5.564
 4116POPC   PO453112   8.924  19.095   5.864
 4116POPC   GL153113   8.944  19.100   6.164
 4116POPC   GL253114   8.900  19.170   6.164
 4116POPC   C1A53115   8.939  19.073   6.464
 4116POPC   D2A53116   8.952  19.079   6.764
 4116POPC   C3A53117   9.018  19.085   7.064
 4116POPC   C4A53118   8.928  19.016   7.364
 4116POPC   C1B53119   8.852  19.223   6.464
 4116POPC   C2B53120   8.829  19.304   6.764
 4116POPC   C3B53121   8.819  19.235   7.064
 4116POPC   C4B53122   8.798  19.295   7.364
 4117POPC   NC353123  34.564  31.496   5.564
 4117POPC   PO453124  34.538  31.517   5.864
 4117POPC   GL153125  34.607  31.488   6.164
 4117POPC   GL253126  34.691  31.506   6.164
 4117POPC   C1A53127  34.570  31.502   6.464
 4117POPC   D2A53128  34.614  31.465   6.764
 4117POPC   C3A53129  34.529  31.481   7.064
 4117POPC   C4A53130  34.622  31.473   7.364
 4117POPC   C1B53131  34.798  31.645   6.464
 4117POPC   C2B53132  34.819  31.616   6.764
 4117POPC   C3B53133  34.774  31.605   7.064
 4117POPC   C4B53134  34.769  31.568   7.364
 4118POPC   NC353135  29.938  30.659   5.564
 4118POPC   PO453136  29.923  30.667   5.864
 4118POPC   GL153137  29.871  30.701   6.164
 4118POPC   GL253138  29.821  30.716   6.164
 4118POPC   C1A53139  29.917  30.686   6.464
 4118POPC   D2A53140  29.916  30.705   6.764
 4118POPC   C3A53141  29.930  30.722   7.064
 4118POPC   C4A53142  29.966  30.742   7.364
 4118POPC   C1B53143  29.658  30.790   6.464
 4118POPC   C2B53144  29.676  30.843   6.764
 4118POPC   C3B53145  29.706  30.824   7.064
 4118POPC   C4B53146  29.662  30.814   7.364
 4119POPC   NC353147  41.589  38.505   5.564
 4119POPC   PO453148  41.572  38.405   5.864
 4119POPC   GL153149  41.571  38.463   6.164
 4119POPC   GL253150  41.402  38.553   6.164
 4119POPC   C1A53151  41.575  38.479   6.464
 4119POPC   D2A53152  41.595  38.470   6.764
 4119POPC   C3A53153  41.516  38.496   7.064
 4119POPC   C4A53154  41.518  38.422   7.364
 4119POPC   C1B53155  41.387  38.530   6.464
 4119POPC   C2B53156  41.361  38.574   6.764
 4119POPC   C3B53157  41.295  38.580   7.064
 4119POPC   C4B53158  41.308  38.540   7.364
 4120POPC   NC353159  16.708  24.507   5.564
 4120POPC   PO453160  16.727  24.494   5.864
 4120POPC   GL153161  16.719  24.455   6.164
 4120POPC   GL253162  16.857  24.583   6.164
 4120POPC   C1A53163  16.778  24.511   6.464
 4120POPC   D2A53164  16.723  24.458   6.764
 4120POPC   C3A53165  16.765  24.486   7.064
 4120POPC   C4A53166  16.689  24.515   7.364
 4120POPC   C1B53167  16.868  24.669   6.464
 4120POPC   C2B53168  16.924  24.651   6.764
 4120POPC   C3B53169  16.862  24.661   7.064
 4120POPC   C4B53170  16.935  24.686   7.364
 4121POPC   NC353171  25.271  10.527   5.564
 4121POPC   PO453172  25.249  10.518   5.864
 4121POPC   GL153173  25.255  10.504   6.164
 4121POPC   GL253174  25.361  10.607   6.164
 4121POPC   C1A53175  25.222  10.571   6.464
 4121POPC   D2A53176  25.312  10.515   6.764
 4121POPC   C3A53177  25.264  10.533   7.064
 4121POPC   C4A53178  25.251  10.541   7.364
 4121POPC   C1B53179  25.437  10.700   6.464
 4121POPC   C2B53180  25.470  10.664   6.764
 4121POPC   C3B53181  25.483  10.716   7.064
 4121POPC   C4B53182  25.481  10.690   7.364
 4122POPC   NC353183  40.800  40.777   5.564
 4122POPC   PO453184  40.825  40.802   5.864
 4122POPC   GL153185  40.775  40.827   6.164
 4122POPC   GL253186  40.706  40.717   6.164
 4122POPC   C1A53187  40.785  40.804   6.464
 4122POPC   D2A53188  40.766  40.768   6.764
 4122POPC   C3A53189  40.767  40.812   7.064
 4122POPC   C4A53190  40.757  40.737   7.364
 4122POPC   C1B53191  40.569  40.609   6.464
 4122POPC   C2B53192  40.587  40.584   6.764
 4122POPC   C3B53193  40.558  40.619   7.064
 4122POPC   C4B53194  40.564  40.613   7.364
 4123POPC   NC353195   7.464  13.612   5.564
 4123POPC   PO453196   7.396  13.622   5.864
 4123POPC   GL153197   7.429  13.587   6.164
 4123POPC   GL253198   7.382  13.759   6.164
 4123POPC   C1A53199   7.373  13.632   6.464
 4123POPC   D2A53200   7.447  13.618   6.764
 4123POPC   C3A53201   7.455  13.636   7.064
 4123POPC   C4A53202   7.406  13.580   7.364
 4123POPC   C1B53203   7.350  13.881   6.464
 4123POPC   C2B53204   7.293  13.907   6.764
 4123POPC   C3B53205   7.286  13.844   7.064
 4123POPC   C4B53206   7.305  13.854   7.364
 4124POPC   NC353207  25.239  12.900   5.564
 4124POPC   PO453208  25.300  12.834   5.864
 4124POPC   GL153209  25.233  12.865   6.164
 4124POPC   GL253210  25.138  12.931   6.164
 4124POPC   C1A53211  25.283  12.852   6.464
 4124POPC   D2A53212  25.252  12.818   6.764
 4124POPC   C3A53213  25.230  12.818   7.064
 4124POPC   C4A53214  25.217  12.874   7.364
 4124POPC   C1B53215  25.035  12.973   6.464
 4124POPC   C2B53216  25.065  12.956   6.764
 4124POPC   C3B53217  25.094  13.024   7.064
 4124POPC   C4B53218  25.031  13.000   7.364
 4125POPC   NC353219  36.103  22.975   5.564
 4125POPC   PO453220  36.128  22.934   5.864
 4125POPC   GL153221  36.127  22.973   6.164
 4125POPC   GL253222  36.207  22.812   6.164
 4125POPC   C1A53223  36.145  22.968   6.464
 4125POPC   D2A53224  36.127  22.928   6.764
 4125POPC   C3A53225  36.104  22.961   7.064
 4125POPC   C4A53226  36.169  22.959   7.364
 4125POPC   C1B53227  36.221  22.735   6.464
 4125POPC   C2B53228  36.211  22.708   6.764
 4125POPC   C3B53229  36.257  22.668   7.064
 4125POPC   C4B53230  36.258  22.675   7.364
 4126POPC   NC353231  12.075  43.916   5.564
 4126POPC   PO453232  12.066  43.887   5.864
 4126POPC   GL153233  12.062  43.932   6.164
 4126POPC   GL253234  12.081  43.989   6.164
 4126POPC   C1A53235  12.094  43.912   6.464
 4126POPC   D2A53236  12.039  43.905   6.764
 4126POPC   C3A53237  12.031  43.892   7.064
 4126POPC   C4A53238  12.087  43.898   7.364
 4126POPC   C1B53239  12.063  44.145   6.464
 4126POPC   C2B53240  12.052  44.095   6.764
 4126POPC   C3B53241  12.066  44.096   7.064
 4126POPC   C4B53242  12.044  44.145   7.364
 4127POPC   NC353243   8.241  30.675   5.564
 4127POPC   PO453244   8.168  30.673   5.864
 4127POPC   GL153245   8.229  30.688   6.164
 4127POPC   GL253246   8.287  30.710   6.164
 4127POPC   C1A53247   8.162  30.721   6.464
 4127POPC   D2A53248   8.213  30.673   6.764
 4127POPC   C3A53249   8.151  30.730   7.064
 4127POPC   C4A53250   8.175  30.652   7.364
 4127POPC   C1B53251   8.432  30.631   6.464
 4127POPC   C2B53252   8.445  30.693   6.764
 4127POPC   C3B53253   8.463  30.650   7.064
 4127POPC   C4B53254   8.397  30.658   7.364
 4128POPC   NC353255   4.335   6.617   5.564
 4128POPC   PO453256   4.285   6.596   5.864
 4128POPC   GL153257   4.285   6.681   6.164
 4128POPC   GL253258   4.160   6.663   6.164
 4128POPC   C1A53259   4.295   6.637   6.464
 4128POPC   D2A53260   4.324   6.638   6.764
 4128POPC   C3A53261   4.359   6.603   7.064
 4128POPC   C4A53262   4.297   6.669   7.364
 4128POPC   C1B53263   4.095   6.726   6.464
 4128POPC   C2B53264   4.090   6.720   6.764
 4128POPC   C3B53265   4.118   6.745   7.064
 4128POPC   C4B53266   4.080   6.707   7.364
 4129POPC   NC353267  39.968  29.112   5.564
 4129POPC   PO453268  39.995  29.169   5.864
 4129POPC   GL153269  39.996  29.162   6.164
 4129POPC   GL253270  39.954  29.015   6.164
 4129POPC   C1A53271  39.983  29.107   6.464
 4129POPC   D2A53272  40.048  29.100   6.764
 4129POPC   C3A53273  39.975  29.170   7.064
 4129POPC   C4A53274  40.031  29.154   7.364
 4129POPC   C1B53275  39.983  28.943   6.464
 4129POPC   C2B53276  39.937  28.886   6.764
 4129POPC   C3B53277  39.969  28.890   7.064
 4129POPC   C4B53278  39.966  28.929   7.364
 4130POPC   NC353279  14.433   6.619   5.564
 4130POPC   PO453280  14.440   6.617   5.864
 4130POPC   GL153281  14.418   6.650   6.164
 4130POPC   GL253282  14.479   6.711   6.164
 4130POPC   C1A53283  14.443   6.640   6.464
 4130POPC   D2A53284  14.362   6.619   6.764
 4130POPC   C3A53285  14.402   6.630   7.064
 4130POPC   C4A53286  14.434   6.678   7.364
 4130POPC   C1B53287  14.545   6.864   6.464
 4130POPC   C2B53288  14.513   6.854   6.764
 4130POPC   C3B53289  14.486   6.859   7.064
 4130POPC   C4B53290  14.462   6.900   7.364
 4131POPC   NC353291   5.842  21.373   5.564
 4131POPC   PO453292   5.830  21.361   5.864
 4131POPC   GL153293   5.890  21.348   6.164
 4131POPC   GL253294   5.800  21.504   6.164
 4131POPC   C1A53295   5.850  21.431   6.464
 4131POPC   D2A53296   5.873  21.408   6.764
 4131POPC   C3A53297   5.820  21.380   7.064
 4131POPC   C4A53298   5.867  21.356   7.364
 4131POPC   C1B53299   5.704  21.604   6.464
 4131POPC   C2B53300   5.755  21.564   6.764
 4131POPC   C3B53301   5.669  21.602   7.064
 4131POPC   C4B53302   5.692  21.538   7.364
 4132POPC   NC353303  23.673  18.327   5.564
 4132POPC   PO453304  23.721  18.268   5.864
 4132POPC   GL153305  23.726  18.321   6.164
 4132POPC   GL253306  23.785  18.433   6.164
 4132POPC   C1A53307  23.706  18.283   6.464
 4132POPC   D2A53308  23.688  18.328   6.764
 4132POPC   C3A53309  23.693  18.282   7.064
 4132POPC   C4A53310  23.716  18.243   7.364
 4132POPC   C1B53311  23.815  18.451   6.464
 4132POPC   C2B53312  23.889  18.488   6.764
 4132POPC   C3B53313  23.885  18.490   7.064
 4132POPC   C4B53314  23.878  18.496   7.364
 4133POPC   NC353315   5.919   3.495   5.564
 4133POPC   PO453316   5.859   3.499   5.864
 4133POPC   GL153317   5.856   3.510   6.164
 4133POPC   GL253318   5.819   3.626   6.164
 4133POPC   C1A53319   5.881   3.499   6.464
 4133POPC   D2A53320   5.878   3.548   6.764
 4133POPC   C3A53321   5.879   3.515   7.064
 4133POPC   C4A53322   5.825   3.580   7.364
 4133POPC   C1B53323   5.821   3.827   6.464
 4133POPC   C2B53324   5.832   3.755   6.764
 4133POPC   C3B53325   5.848   3.826   7.064
 4133POPC   C4B53326   5.841   3.837   7.364
 4134POPC   NC353327  20.635  19.021   5.564
 4134POPC   PO453328  20.598  19.064   5.864
 4134POPC   GL153329  20.629  19.033   6.164
 4134POPC   GL253330  20.493  19.055   6.164
 4134POPC   C1A53331  20.618  19.072   6.464
 4134POPC   D2A53332  20.634  19.094   6.764
 4134POPC   C3A53333  20.564  19.017   7.064
 4134POPC   C4A53334  20.642  19.021   7.364
 4134POPC   C1B53335  20.334  18.976   6.464
 4134POPC   C2B53336  20.394  18.959   6.764
 4134POPC   C3B53337  20.340  18.996   7.064
 4134POPC   C4B53338  20.334  18.915   7.364
 4135POPC   NC353339  26.091   6.676   5.564
 4135POPC   PO453340  26.040   6.628   5.864
 4135POPC   GL153341  26.051   6.662   6.164
 4135POPC   GL253342  26.013   6.775   6.164
 4135POPC   C1A53343  26.084   6.672   6.464
 4135POPC   D2A53344  26.016   6.661   6.764
 4135POPC   C3A53345  26.087   6.694   7.064
 4135POPC   C4A53346  26.014   6.664   7.364
 4135POPC   C1B53347  25.992   6.902   6.464
 4135POPC   C2B53348  25.936   6.925   6.764
 4135POPC   C3B53349  25.955   6.855   7.064
 4135POPC   C4B53350  25.909   6.899   7.364
 4136POPC   NC353351  42.365  33.792   5.564
 4136POPC   PO453352  42.285  33.810   5.864
 4136POPC   GL153353  42.316  33.802   6.164
 4136POPC   GL253354  42.288  33.648   6.164
 4136POPC   C1A53355  42.373  33.795   6.464
 4136POPC   D2A53356  42.326  33.833   6.764
 4136POPC   C3A53357  42.333  33.799   7.064
 4136POPC   C4A53358  42.339  33.830   7.364
 4136POPC   C1B53359  42.266  33.597   6.464
 4136POPC   C2B53360  42.310  33.503   6.764
 4136POPC   C3B53361  42.313  33.547   7.064
 4136POPC   C4B53362  42.287  33.533   7.364
 4137POPC   NC353363  19.805  24.447   5.564
 4137POPC   PO453364  19.876  24.490   5.864
 4137POPC   GL153365  19.864  24.463   6.164
 4137POPC   GL253366  19.963  24.468   6.164
 4137POPC   C1A53367  19.849  24.502   6.464
 4137POPC   D2A53368  19.855  24.516   6.764
 4137POPC   C3A53369  19.848  24.518   7.064
 4137POPC   C4A53370  19.851  24.490   7.364
 4137POPC   C1B53371  20.097  24.507   6.464
 4137POPC   C2B53372  20.124  24.464   6.764
 4137POPC   C3B53373  20.085  24.429   7.064
 4137POPC   C4B53374  20.056  24.484   7.364
 4138POPC   NC353375  24.448   2.736   5.564
 4138POPC   PO453376  24.440   2.813   5.864
 4138POPC   GL153377  24.473   2.810   6.164
 4138POPC   GL253378  24.636   2.754   6.164
 4138POPC   C1A53379  24.453   2.769   6.464
 4138POPC   D2A53380  24.471   2.807   6.764
 4138POPC   C3A53381  24.469   2.815   7.064
 4138POPC   C4A53382  24.475   2.796   7.364
 4138POPC   C1B53383  24.701   2.684   6.464
 4138POPC   C2B53384  24.734   2.689   6.764
 4138POPC   C3B53385  24.730   2.688   7.064
 4138POPC   C4B53386  24.760   2.683   7.364
 4139POPC   NC353387  37.630   1.184   5.564
 4139POPC   PO453388  37.681   1.187   5.864
 4139POPC   GL153389  37.682   1.244   6.164
 4139POPC   GL253390  37.514   1.139   6.164
 4139POPC   C1A53391  37.673   1.213   6.464
 4139POPC   D2A53392  37.681   1.200   6.764
 4139POPC   C3A53393  37.669   1.253   7.064
 4139POPC   C4A53394  37.672   1.236   7.364
 4139POPC   C1B53395  37.475   1.105   6.464
 4139POPC   C2B53396  37.436   1.146   6.764
 4139POPC   C3B53397  37.409   1.112   7.064
 4139POPC   C4B53398  37.457   1.200   7.364
 4140POPC   NC353399  12.821  12.120   5.564
 4140POPC   PO453400  12.820  12.097   5.864
 4140POPC   GL153401  12.839  12.115   6.164
 4140POPC   GL253402  12.935  11.992   6.164
 4140POPC   C1A53403  12.866  12.105   6.464
 4140POPC   D2A53404  12.829  12.037   6.764
 4140POPC   C3A53405  12.819  12.047   7.064
 4140POPC   C4A53406  12.803  12.123   7.364
 4140POPC   C1B53407  12.955  11.815   6.464
 4140POPC   C2B53408  13.019  11.897   6.764
 4140POPC   C3B53409  12.960  11.836   7.064
 4140POPC   C4B53410  12.988  11.840   7.364
 4141POPC   NC353411   8.211  21.432   5.564
 4141POPC   PO453412   8.196  21.402   5.864
 4141POPC   GL153413   8.200  21.341   6.164
 4141POPC   GL253414   8.137  21.239   6.164
 4141POPC   C1A53415   8.163  21.406   6.464
 4141POPC   D2A53416   8.231  21.350   6.764
 4141POPC   C3A53417   8.232  21.362   7.064
 4141POPC   C4A53418   8.185  21.404   7.364
 4141POPC   C1B53419   8.070  21.177   6.464
 4141POPC   C2B53420   8.073  21.185   6.764
 4141POPC   C3B53421   8.057  21.157   7.064
 4141POPC   C4B53422   8.074  21.211   7.364
 4142POPC   NC353423  31.471  26.798   5.564
 4142POPC   PO453424  31.487  26.854   5.864
 4142POPC   GL153425  31.429  26.867   6.164
 4142POPC   GL253426  31.342  26.747   6.164
 4142POPC   C1A53427  31.428  26.789   6.464
 4142POPC   D2A53428  31.448  26.799   6.764
 4142POPC   C3A53429  31.492  26.783   7.064
 4142POPC   C4A53430  31.473  26.768   7.364
 4142POPC   C1B53431  31.213  26.790   6.464
 4142POPC   C2B53432  31.234  26.771   6.764
 4142POPC   C3B53433  31.194  26.744   7.064
 4142POPC   C4B53434  31.266  26.766   7.364
 4143POPC   NC353435   4.356  29.956   5.564
 4143POPC   PO453436   4.331  29.933   5.864
 4143POPC   GL153437   4.284  29.883   6.164
 4143POPC   GL253438   4.373  29.821   6.164
 4143POPC   C1A53439   4.313  29.939   6.464
 4143POPC   D2A53440   4.270  29.873   6.764
 4143POPC   C3A53441   4.289  29.933   7.064
 4143POPC   C4A53442   4.303  29.929   7.364
 4143POPC   C1B53443   4.466  29.747   6.464
 4143POPC   C2B53444   4.468  29.715   6.764
 4143POPC   C3B53445   4.462  29.757   7.064
 4143POPC   C4B53446   4.511  29.694   7.364
 4144POPC   NC353447  39.983   5.885   5.564
 4144POPC   PO453448  39.973   5.913   5.864
 4144POPC   GL153449  40.001   5.831   6.164
 4144POPC   GL253450  40.029   5.779   6.164
 4144POPC   C1A53451  39.964   5.856   6.464
 4144POPC   D2A53452  40.025   5.866   6.764
 4144POPC   C3A53453  40.029   5.886   7.064
 4144POPC   C4A53454  39.964   5.885   7.364
 4144POPC   C1B53455  39.983   5.615   6.464
 4144POPC   C2B53456  40.048   5.585   6.764
 4144POPC   C3B53457  40.035   5.661   7.064
 4144POPC   C4B53458  40.052   5.581   7.364
 4145POPC   NC353459  44.671  22.947   5.564
 4145POPC   PO453460  44.626  22.919   5.864
 4145POPC   GL153461  44.697  22.968   6.164
 4145POPC   GL253462  44.808  22.975   6.164
 4145POPC   C1A53463  44.686  22.948   6.464
 4145POPC   D2A53464  44.629  22.961   6.764
 4145POPC   C3A53465  44.649  22.941   7.064
 4145POPC   C4A53466  44.657  22.987   7.364
 4145POPC   C1B53467  44.914  23.011   6.464
 4145POPC   C2B53468  44.874  22.962   6.764
 4145POPC   C3B53469  44.859  22.968   7.064
 4145POPC   C4B53470  44.883  22.976   7.364
 4146POPC   NC353471  32.217   1.969   5.564
 4146POPC   PO453472  32.227   1.997   5.864
 4146POPC   GL153473  32.295   1.958   6.164
 4146POPC   GL253474  32.258   2.136   6.164
 4146POPC   C1A53475  32.291   1.951   6.464
 4146POPC   D2A53476  32.217   1.944   6.764
 4146POPC   C3A53477  32.252   2.037   7.064
 4146POPC   C4A53478  32.258   2.001   7.364
 4146POPC   C1B53479  32.388   2.241   6.464
 4146POPC   C2B53480  32.375   2.258   6.764
 4146POPC   C3B53481  32.389   2.217   7.064
 4146POPC   C4B53482  32.318   2.193   7.364
 4147POPC   NC353483  29.112   2.769   5.564
 4147POPC   PO453484  29.108   2.770   5.864
 4147POPC   GL153485  29.148   2.719   6.164
 4147POPC   GL253486  29.158   2.876   6.164
 4147POPC   C1A53487  29.108   2.753   6.464
 4147POPC   D2A53488  29.195   2.802   6.764
 4147POPC   C3A53489  29.151   2.786   7.064
 4147POPC   C4A53490  29.127   2.815   7.364
 4147POPC   C1B53491  29.229   2.983   6.464
 4147POPC   C2B53492  29.243   3.019   6.764
 4147POPC   C3B53493  29.249   3.009   7.064
 4147POPC   C4B53494  29.262   2.984   7.364
 4148POPC   NC353495   6.643  42.373   5.564
 4148POPC   PO453496   6.633  42.371   5.864
 4148POPC   GL153497   6.664  42.322   6.164
 4148POPC   GL253498   6.645  42.187   6.164
 4148POPC   C1A53499   6.603  42.288   6.464
 4148POPC   D2A53500   6.657  42.373   6.764
 4148POPC   C3A53501   6.606  42.306   7.064
 4148POPC   C4A53502   6.613  42.289   7.364
 4148POPC   C1B53503   6.533  42.077   6.464
 4148POPC   C2B53504   6.578  42.049   6.764
 4148POPC   C3B53505   6.578  42.063   7.064
 4148POPC   C4B53506   6.552  42.127   7.364
 4149POPC   NC353507  23.735  12.828   5.564
 4149POPC   PO453508  23.691  12.822   5.864
 4149POPC   GL153509  23.707  12.888   6.164
 4149POPC   GL253510  23.592  12.940   6.164
 4149POPC   C1A53511  23.694  12.882   6.464
 4149POPC   D2A53512  23.737  12.902   6.764
 4149POPC   C3A53513  23.740  12.822   7.064
 4149POPC   C4A53514  23.727  12.883   7.364
 4149POPC   C1B53515  23.456  12.980   6.464
 4149POPC   C2B53516  23.485  12.930   6.764
 4149POPC   C3B53517  23.525  13.018   7.064
 4149POPC   C4B53518  23.534  12.938   7.364
 4150POPC   NC353519  37.661  28.379   5.564
 4150POPC   PO453520  37.640  28.394   5.864
 4150POPC   GL153521  37.644  28.326   6.164
 4150POPC   GL253522  37.815  28.362   6.164
 4150POPC   C1A53523  37.682  28.418   6.464
 4150POPC   D2A53524  37.651  28.343   6.764
 4150POPC   C3A53525  37.715  28.399   7.064
 4150POPC   C4A53526  37.670  28.387   7.364
 4150POPC   C1B53527  37.901  28.266   6.464
 4150POPC   C2B53528  37.889  28.335   6.764
 4150POPC   C3B53529  37.933  28.296   7.064
 4150POPC   C4B53530  37.950  28.287   7.364
 4151POPC   NC353531  30.692  43.152   5.564
 4151POPC   PO453532  30.666  43.152   5.864
 4151POPC   GL153533  30.674  43.078   6.164
 4151POPC   GL253534  30.590  42.982   6.164
 4151POPC   C1A53535  30.654  43.148   6.464
 4151POPC   D2A53536  30.651  43.072   6.764
 4151POPC   C3A53537  30.706  43.111   7.064
 4151POPC   C4A53538  30.712  43.080   7.364
 4151POPC   C1B53539  30.573  42.956   6.464
 4151POPC   C2B53540  30.549  42.886   6.764
 4151POPC   C3B53541  30.494  42.945   7.064
 4151POPC   C4B53542  30.531  42.895   7.364
 4152POPC   NC353543  21.422  34.602   5.564
 4152POPC   PO453544  21.378  34.587   5.864
 4152POPC   GL153545  21.421  34.625   6.164
 4152POPC   GL253546  21.487  34.459   6.164
 4152POPC   C1A53547  21.396  34.595   6.464
 4152POPC   D2A53548  21.429  34.540   6.764
 4152POPC   C3A53549  21.382  34.527   7.064
 4152POPC   C4A53550  21.353  34.547   7.364
 4152POPC   C1B53551  21.542  34.350   6.464
 4152POPC   C2B53552  21.489  34.332   6.764
 4152POPC   C3B53553  21.479  34.364   7.064
 4152POPC   C4B53554  21.494  34.397   7.364
 4153POPC   NC353555  19.044  28.362   5.564
 4153POPC   PO453556  19.020  28.411   5.864
 4153POPC   GL153557  19.106  28.378   6.164
 4153POPC   GL253558  18.928  28.312   6.164
 4153POPC   C1A53559  19.085  28.329   6.464
 4153POPC   D2A53560  19.090  28.361   6.764
 4153POPC   C3A53561  19.018  28.413   7.064
 4153POPC   C4A53562  19.100  28.348   7.364
 4153POPC   C1B53563  18.863  28.256   6.464
 4153POPC   C2B53564  18.870  28.271   6.764
 4153POPC   C3B53565  18.843  28.260   7.064
 4153POPC   C4B53566  18.855  28.236   7.364
 4154POPC   NC353567  32.245  13.605   5.564
 4154POPC   PO453568  32.227  13.642   5.864
 4154POPC   GL153569  32.218  13.655   6.164
 4154POPC   GL253570  32.238  13.787   6.164
 4154POPC   C1A53571  32.294  13.590   6.464
 4154POPC   D2A53572  32.204  13.646   6.764
 4154POPC   C3A53573  32.265  13.590   7.064
 4154POPC   C4A53574  32.218  13.621   7.364
 4154POPC   C1B53575  32.177  13.837   6.464
 4154POPC   C2B53576  32.203  13.888   6.764
 4154POPC   C3B53577  32.222  13.884   7.064
 4154POPC   C4B53578  32.165  13.853   7.364
 4155POPC   NC353579  41.534  31.446   5.564
 4155POPC   PO453580  41.515  31.483   5.864
 4155POPC   GL153581  41.578  31.459   6.164
 4155POPC   GL253582  41.443  31.362   6.164
 4155POPC   C1A53583  41.533  31.521   6.464
 4155POPC   D2A53584  41.608  31.498   6.764
 4155POPC   C3A53585  41.583  31.508   7.064
 4155POPC   C4A53586  41.517  31.475   7.364
 4155POPC   C1B53587  41.370  31.320   6.464
 4155POPC   C2B53588  41.347  31.290   6.764
 4155POPC   C3B53589  41.348  31.270   7.064
 4155POPC   C4B53590  41.423  31.331   7.364
 4156POPC   NC353591   9.776  12.833   5.564
 4156POPC   PO453592   9.713  12.888   5.864
 4156POPC   GL153593   9.751  12.828   6.164
 4156POPC   GL253594   9.836  12.732   6.164
 4156POPC   C1A53595   9.750  12.877   6.464
 4156POPC   D2A53596   9.718  12.803   6.764
 4156POPC   C3A53597   9.741  12.819   7.064
 4156POPC   C4A53598   9.781  12.875   7.364
 4156POPC   C1B53599   9.843  12.615   6.464
 4156POPC   C2B53600   9.844  12.670   6.764
 4156POPC   C3B53601   9.878  12.660   7.064
 4156POPC   C4B53602   9.900  12.619   7.364
 4157POPC   NC353603   6.604   7.446   5.564
 4157POPC   PO453604   6.623   7.468   5.864
 4157POPC   GL153605   6.604   7.468   6.164
 4157POPC   GL253606   6.796   7.442   6.164
 4157POPC   C1A53607   6.605   7.399   6.464
 4157POPC   D2A53608   6.676   7.454   6.764
 4157POPC   C3A53609   6.674   7.457   7.064
 4157POPC   C4A53610   6.668   7.411   7.364
 4157POPC   C1B53611   6.872   7.439   6.464
 4157POPC   C2B53612   6.917   7.472   6.764
 4157POPC   C3B53613   6.844   7.452   7.064
 4157POPC   C4B53614   6.917   7.487   7.364
 4158POPC   NC353615  23.669  19.062   5.564
 4158POPC   PO453616  23.745  19.021   5.864
 4158POPC   GL153617  23.698  19.102   6.164
 4158POPC   GL253618  23.865  19.061   6.164
 4158POPC   C1A53619  23.669  19.048   6.464
 4158POPC   D2A53620  23.730  19.050   6.764
 4158POPC   C3A53621  23.729  19.070   7.064
 4158POPC   C4A53622  23.731  19.017   7.364
 4158POPC   C1B53623  23.931  19.146   6.464
 4158POPC   C2B53624  23.952  19.119   6.764
 4158POPC   C3B53625  23.994  19.124   7.064
 4158POPC   C4B53626  23.943  19.094   7.364
 4159POPC   NC353627  40.831  37.633   5.564
 4159POPC   PO453628  40.787  37.725   5.864
 4159POPC   GL153629  40.806  37.685   6.164
 4159POPC   GL253630  40.636  37.693   6.164
 4159POPC   C1A53631  40.778  37.720   6.464
 4159POPC   D2A53632  40.759  37.680   6.764
 4159POPC   C3A53633  40.772  37.680   7.064
 4159POPC   C4A53634  40.827  37.716   7.364
 4159POPC   C1B53635  40.545  37.668   6.464
 4159POPC   C2B53636  40.528  37.611   6.764
 4159POPC   C3B53637  40.541  37.703   7.064
 4159POPC   C4B53638  40.490  37.698   7.364
 4160POPC   NC353639  24.522  40.050   5.564
 4160POPC   PO453640  24.478  39.958   5.864
 4160POPC   GL153641  24.492  40.041   6.164
 4160POPC   GL253642  24.338  40.044   6.164
 4160POPC   C1A53643  24.495  40.016   6.464
 4160POPC   D2A53644  24.520  39.973   6.764
 4160POPC   C3A53645  24.446  40.018   7.064
 4160POPC   C4A53646  24.476  39.975   7.364
 4160POPC   C1B53647  24.258  40.164   6.464
 4160POPC   C2B53648  24.291  40.128   6.764
 4160POPC   C3B53649  24.296  40.128   7.064
 4160POPC   C4B53650  24.218  40.106   7.364
 4161POPC   NC353651  22.139  31.502   5.564
 4161POPC   PO453652  22.179  31.464   5.864
 4161POPC   GL153653  22.188  31.428   6.164
 4161POPC   GL253654  22.071  31.557   6.164
 4161POPC   C1A53655  22.133  31.473   6.464
 4161POPC   D2A53656  22.159  31.440   6.764
 4161POPC   C3A53657  22.212  31.480   7.064
 4161POPC   C4A53658  22.172  31.466   7.364
 4161POPC   C1B53659  21.998  31.642   6.464
 4161POPC   C2B53660  21.943  31.658   6.764
 4161POPC   C3B53661  21.953  31.646   7.064
 4161POPC   C4B53662  21.974  31.575   7.364
 4162POPC   NC353663  32.214   8.993   5.564
 4162POPC   PO453664  32.213   8.968   5.864
 4162POPC   GL153665  32.234   8.954   6.164
 4162POPC   GL253666  32.157   8.969   6.164
 4162POPC   C1A53667  32.248   9.012   6.464
 4162POPC   D2A53668  32.259   8.949   6.764
 4162POPC   C3A53669  32.224   8.948   7.064
 4162POPC   C4A53670  32.276   8.950   7.364
 4162POPC   C1B53671  31.988   8.949   6.464
 4162POPC   C2B53672  31.980   8.970   6.764
 4162POPC   C3B53673  32.012   8.945   7.064
 4162POPC   C4B53674  31.976   8.931   7.364
 4163POPC   NC353675  17.541  25.239   5.564
 4163POPC   PO453676  17.469  25.235   5.864
 4163POPC   GL153677  17.457  25.314   6.164
 4163POPC   GL253678  17.625  25.193   6.164
 4163POPC   C1A53679  17.539  25.244   6.464
 4163POPC   D2A53680  17.513  25.234   6.764
 4163POPC   C3A53681  17.514  25.260   7.064
 4163POPC   C4A53682  17.483  25.266   7.364
 4163POPC   C1B53683  17.734  25.164   6.464
 4163POPC   C2B53684  17.778  25.183   6.764
 4163POPC   C3B53685  17.743  25.250   7.064
 4163POPC   C4B53686  17.728  25.236   7.364
 4164POPC   NC353687  26.039  39.263   5.564
 4164POPC   PO453688  26.076  39.206   5.864
 4164POPC   GL153689  26.050  39.223   6.164
 4164POPC   GL253690  25.929  39.284   6.164
 4164POPC   C1A53691  26.091  39.237   6.464
 4164POPC   D2A53692  26.081  39.242   6.764
 4164POPC   C3A53693  26.085  39.244   7.064
 4164POPC   C4A53694  26.014  39.232   7.364
 4164POPC   C1B53695  25.759  39.293   6.464
 4164POPC   C2B53696  25.806  39.343   6.764
 4164POPC   C3B53697  25.812  39.280   7.064
 4164POPC   C4B53698  25.814  39.289   7.364
 4165POPC   NC353699  39.275   1.963   5.564
 4165POPC   PO453700  39.203   1.978   5.864
 4165POPC   GL153701  39.206   1.984   6.164
 4165POPC   GL253702  39.387   2.042   6.164
 4165POPC   C1A53703  39.212   1.942   6.464
 4165POPC   D2A53704  39.244   2.006   6.764
 4165POPC   C3A53705  39.209   1.979   7.064
 4165POPC   C4A53706  39.219   2.015   7.364
 4165POPC   C1B53707  39.445   2.155   6.464
 4165POPC   C2B53708  39.490   2.128   6.764
 4165POPC   C3B53709  39.453   2.160   7.064
 4165POPC   C4B53710  39.489   2.112   7.364
 4166POPC   NC353711  17.524  23.745   5.564
 4166POPC   PO453712  17.521  23.671   5.864
 4166POPC   GL153713  17.471  23.691   6.164
 4166POPC   GL253714  17.656  23.640   6.164
 4166POPC   C1A53715  17.506  23.722   6.464
 4166POPC   D2A53716  17.468  23.668   6.764
 4166POPC   C3A53717  17.516  23.703   7.064
 4166POPC   C4A53718  17.493  23.757   7.364
 4166POPC   C1B53719  17.751  23.640   6.464
 4166POPC   C2B53720  17.700  23.646   6.764
 4166POPC   C3B53721  17.767  23.679   7.064
 4166POPC   C4B53722  17.777  23.609   7.364
 4167POPC   NC353723  35.327  32.238   5.564
 4167POPC   PO453724  35.384  32.295   5.864
 4167POPC   GL153725  35.338  32.225   6.164
 4167POPC   GL253726  35.397  32.377   6.164
 4167POPC   C1A53727  35.343  32.205   6.464
 4167POPC   D2A53728  35.312  32.270   6.764
 4167POPC   C3A53729  35.400  32.276   7.064
 4167POPC   C4A53730  35.337  32.272   7.364
 4167POPC   C1B53731  35.486  32.449   6.464
 4167POPC   C2B53732  35.455  32.443   6.764
 4167POPC   C3B53733  35.463  32.459   7.064
 4167POPC   C4B53734  35.487  32.449   7.364
 4168POPC   NC353735  18.282  19.828   5.564
 4168POPC   PO453736  18.236  19.864   5.864
 4168POPC   GL153737  18.262  19.798   6.164
 4168POPC   GL253738  18.282  19.962   6.164
 4168POPC   C1A53739  18.285  19.851   6.464
 4168POPC   D2A53740  18.280  19.857   6.764
 4168POPC   C3A53741  18.272  19.839   7.064
 4168POPC   C4A53742  18.269  19.871   7.364
 4168POPC   C1B53743  18.355  20.090   6.464
 4168POPC   C2B53744  18.315  20.085   6.764
 4168POPC   C3B53745  18.364  20.033   7.064
 4168POPC   C4B53746  18.354  20.053   7.364
 4169POPC   NC353747  34.623  17.466   5.564
 4169POPC   PO453748  34.625  17.555   5.864
 4169POPC   GL153749  34.535  17.519   6.164
 4169POPC   GL253750  34.535  17.385   6.164
 4169POPC   C1A53751  34.577  17.528   6.464
 4169POPC   D2A53752  34.583  17.482   6.764
 4169POPC   C3A53753  34.534  17.472   7.064
 4169POPC   C4A53754  34.596  17.539   7.364
 4169POPC   C1B53755  34.382  17.354   6.464
 4169POPC   C2B53756  34.435  17.315   6.764
 4169POPC   C3B53757  34.397  17.328   7.064
 4169POPC   C4B53758  34.382  17.297   7.364
 4170POPC   NC353759  27.589  36.115   5.564
 4170POPC   PO453760  27.567  36.122   5.864
 4170POPC   GL153761  27.553  36.167   6.164
 4170POPC   GL253762  27.517  36.050   6.164
 4170POPC   C1A53763  27.560  36.087   6.464
 4170POPC   D2A53764  27.600  36.110   6.764
 4170POPC   C3A53765  27.551  36.083   7.064
 4170POPC   C4A53766  27.592  36.101   7.364
 4170POPC   C1B53767  27.404  35.913   6.464
 4170POPC   C2B53768  27.501  35.966   6.764
 4170POPC   C3B53769  27.469  35.907   7.064
 4170POPC   C4B53770  27.494  35.887   7.364
 4171POPC   NC353771  29.135  15.208   5.564
 4171POPC   PO453772  29.167  15.199   5.864
 4171POPC   GL153773  29.134  15.203   6.164
 4171POPC   GL253774  29.072  15.083   6.164
 4171POPC   C1A53775  29.114  15.180   6.464
 4171POPC   D2A53776  29.165  15.223   6.764
 4171POPC   C3A53777  29.105  15.216   7.064
 4171POPC   C4A53778  29.125  15.176   7.364
 4171POPC   C1B53779  28.913  15.023   6.464
 4171POPC   C2B53780  28.927  15.067   6.764
 4171POPC   C3B53781  28.890  15.016   7.064
 4171POPC   C4B53782  28.904  15.034   7.364
 4172POPC   NC353783  39.239  26.775   5.564
 4172POPC   PO453784  39.226  26.797   5.864
 4172POPC   GL153785  39.258  26.787   6.164
 4172POPC   GL253786  39.332  26.705   6.164
 4172POPC   C1A53787  39.200  26.843   6.464
 4172POPC   D2A53788  39.249  26.787   6.764
 4172POPC   C3A53789  39.231  26.769   7.064
 4172POPC   C4A53790  39.204  26.770   7.364
 4172POPC   C1B53791  39.363  26.654   6.464
 4172POPC   C2B53792  39.380  26.609   6.764
 4172POPC   C3B53793  39.344  26.611   7.064
 4172POPC   C4B53794  39.390  26.621   7.364
 4173POPC   NC353795  26.039  16.744   5.564
 4173POPC   PO453796  26.091  16.767   5.864
 4173POPC   GL153797  26.036  16.777   6.164
 4173POPC   GL253798  26.159  16.801   6.164
 4173POPC   C1A53799  26.020  16.728   6.464
 4173POPC   D2A53800  26.079  16.736   6.764
 4173POPC   C3A53801  25.992  16.699   7.064
 4173POPC   C4A53802  26.067  16.718   7.364
 4173POPC   C1B53803  26.222  16.943   6.464
 4173POPC   C2B53804  26.144  16.968   6.764
 4173POPC   C3B53805  26.207  16.908   7.064
 4173POPC   C4B53806  26.208  16.914   7.364
 4174POPC   NC353807  41.544  12.861   5.564
 4174POPC   PO453808  41.511  12.827   5.864
 4174POPC   GL153809  41.582  12.849   6.164
 4174POPC   GL253810  41.574  12.734   6.164
 4174POPC   C1A53811  41.527  12.807   6.464
 4174POPC   D2A53812  41.525  12.901   6.764
 4174POPC   C3A53813  41.572  12.868   7.064
 4174POPC   C4A53814  41.538  12.886   7.364
 4174POPC   C1B53815  41.632  12.557   6.464
 4174POPC   C2B53816  41.601  12.584   6.764
 4174POPC   C3B53817  41.585  12.609   7.064
 4174POPC   C4B53818  41.588  12.610   7.364
 4175POPC   NC353819  27.587  32.270   5.564
 4175POPC   PO453820  27.641  32.215   5.864
 4175POPC   GL153821  27.575  32.248   6.164
 4175POPC   GL253822  27.495  32.215   6.164
 4175POPC   C1A53823  27.560  32.272   6.464
 4175POPC   D2A53824  27.593  32.238   6.764
 4175POPC   C3A53825  27.627  32.220   7.064
 4175POPC   C4A53826  27.572  32.232   7.364
 4175POPC   C1B53827  27.361  32.114   6.464
 4175POPC   C2B53828  27.340  32.140   6.764
 4175POPC   C3B53829  27.344  32.078   7.064
 4175POPC   C4B53830  27.345  32.114   7.364
 4176POPC   NC353831  28.416  12.879   5.564
 4176POPC   PO453832  28.407  12.807   5.864
 4176POPC   GL153833  28.372  12.817   6.164
 4176POPC   GL253834  28.306  12.985   6.164
 4176POPC   C1A53835  28.401  12.868   6.464
 4176POPC   D2A53836  28.404  12.877   6.764
 4176POPC   C3A53837  28.380  12.842   7.064
 4176POPC   C4A53838  28.335  12.829   7.364
 4176POPC   C1B53839  28.269  13.090   6.464
 4176POPC   C2B53840  28.197  13.103   6.764
 4176POPC   C3B53841  28.247  13.081   7.064
 4176POPC   C4B53842  28.192  13.091   7.364
 4177POPC   NC353843   9.779  11.251   5.564
 4177POPC   PO453844   9.751  11.297   5.864
 4177POPC   GL153845   9.757  11.314   6.164
 4177POPC   GL253846   9.699  11.376   6.164
 4177POPC   C1A53847   9.767  11.311   6.464
 4177POPC   D2A53848   9.777  11.317   6.764
 4177POPC   C3A53849   9.759  11.272   7.064
 4177POPC   C4A53850   9.701  11.310   7.364
 4177POPC   C1B53851   9.611  11.502   6.464
 4177POPC   C2B53852   9.596  11.527   6.764
 4177POPC   C3B53853   9.630  11.497   7.064
 4177POPC   C4B53854   9.588  11.502   7.364
 4178POPC   NC353855   0.409  26.074   5.564
 4178POPC   PO453856   0.479  26.066   5.864
 4178POPC   GL153857   0.464  26.045   6.164
 4178POPC   GL253858   0.356  26.090   6.164
 4178POPC   C1A53859   0.400  26.081   6.464
 4178POPC   D2A53860   0.483  26.058   6.764
 4178POPC   C3A53861   0.455  26.055   7.064
 4178POPC   C4A53862   0.465  26.041   7.364
 4178POPC   C1B53863   0.300  26.172   6.464
 4178POPC   C2B53864   0.217  26.223   6.764
 4178POPC   C3B53865   0.265  26.167   7.064
 4178POPC   C4B53866   0.213  26.218   7.364
 4179POPC   NC353867  15.997   2.813   5.564
 4179POPC   PO453868  15.916   2.734   5.864
 4179POPC   GL153869  15.971   2.794   6.164
 4179POPC   GL253870  15.909   2.608   6.164
 4179POPC   C1A53871  15.947   2.798   6.464
 4179POPC   D2A53872  15.965   2.743   6.764
 4179POPC   C3A53873  15.907   2.738   7.064
 4179POPC   C4A53874  15.952   2.799   7.364
 4179POPC   C1B53875  15.925   2.499   6.464
 4179POPC   C2B53876  15.985   2.493   6.764
 4179POPC   C3B53877  15.910   2.507   7.064
 4179POPC   C4B53878  15.976   2.503   7.364
 4180POPC   NC353879  40.010  12.119   5.564
 4180POPC   PO453880  39.985  12.043   5.864
 4180POPC   GL153881  40.028  12.116   6.164
 4180POPC   GL253882  39.899  12.085   6.164
 4180POPC   C1A53883  39.993  12.073   6.464
 4180POPC   D2A53884  40.023  12.074   6.764
 4180POPC   C3A53885  40.050  12.033   7.064
 4180POPC   C4A53886  40.037  12.105   7.364
 4180POPC   C1B53887  39.748  12.046   6.464
 4180POPC   C2B53888  39.709  12.021   6.764
 4180POPC   C3B53889  39.792  12.031   7.064
 4180POPC   C4B53890  39.754  12.099   7.364
 4181POPC   NC353891  29.140  29.148   5.564
 4181POPC   PO453892  29.137  29.123   5.864
 4181POPC   GL153893  29.108  29.153   6.164
 4181POPC   GL253894  29.305  29.174   6.164
 4181POPC   C1A53895  29.132  29.132   6.464
 4181POPC   D2A53896  29.180  29.119   6.764
 4181POPC   C3A53897  29.133  29.128   7.064
 4181POPC   C4A53898  29.138  29.102   7.364
 4181POPC   C1B53899  29.357  29.177   6.464
 4181POPC   C2B53900  29.367  29.245   6.764
 4181POPC   C3B53901  29.404  29.189   7.064
 4181POPC   C4B53902  29.431  29.215   7.364
 4182POPC   NC353903  10.479  18.237   5.564
 4182POPC   PO453904  10.550  18.267   5.864
 4182POPC   GL153905  10.574  18.325   6.164
 4182POPC   GL253906  10.362  18.319   6.164
 4182POPC   C1A53907  10.559  18.269   6.464
 4182POPC   D2A53908  10.498  18.312   6.764
 4182POPC   C3A53909  10.555  18.284   7.064
 4182POPC   C4A53910  10.501  18.263   7.364
 4182POPC   C1B53911  10.262  18.324   6.464
 4182POPC   C2B53912  10.331  18.345   6.764
 4182POPC   C3B53913  10.280  18.364   7.064
 4182POPC   C4B53914  10.246  18.387   7.364
 4183POPC   NC353915  11.283  36.890   5.564
 4183POPC   PO453916  11.348  36.939   5.864
 4183POPC   GL153917  11.287  36.889   6.164
 4183POPC   GL253918  11.334  37.002   6.164
 4183POPC   C1A53919  11.263  36.867   6.464
 4183POPC   D2A53920  11.338  36.871   6.764
 4183POPC   C3A53921  11.311  36.915   7.064
 4183POPC   C4A53922  11.324  36.943   7.364
 4183POPC   C1B53923  11.442  37.064   6.464
 4183POPC   C2B53924  11.485  37.097   6.764
 4183POPC   C3B53925  11.438  37.077   7.064
 4183POPC   C4B53926  11.502  37.124   7.364
 4184POPC   NC353927   4.365  10.499   5.564
 4184POPC   PO453928   4.323  10.474   5.864
 4184POPC   GL153929   4.321  10.528   6.164
 4184POPC   GL253930   4.315  10.386   6.164
 4184POPC   C1A53931   4.306  10.566   6.464
 4184POPC   D2A53932   4.337  10.497   6.764
 4184POPC   C3A53933   4.302  10.535   7.064
 4184POPC   C4A53934   4.279  10.484   7.364
 4184POPC   C1B53935   4.311  10.291   6.464
 4184POPC   C2B53936   4.325  10.284   6.764
 4184POPC   C3B53937   4.287  10.289   7.064
 4184POPC   C4B53938   4.302  10.293   7.364
 4185POPC   NC353939  22.190  16.709   5.564
 4185POPC   PO453940  22.116  16.733   5.864
 4185POPC   GL153941  22.131  16.770   6.164
 4185POPC   GL253942  22.234  16.794   6.164
 4185POPC   C1A53943  22.200  16.758   6.464
 4185POPC   D2A53944  22.186  16.759   6.764
 4185POPC   C3A53945  22.205  16.687   7.064
 4185POPC   C4A53946  22.149  16.702   7.364
 4185POPC   C1B53947  22.431  16.788   6.464
 4185POPC   C2B53948  22.419  16.803   6.764
 4185POPC   C3B53949  22.432  16.852   7.064
 4185POPC   C4B53950  22.373  16.795   7.364
 4186POPC   NC353951  25.255  25.224   5.564
 4186POPC   PO453952  25.292  25.252   5.864
 4186POPC   GL153953  25.264  25.249   6.164
 4186POPC   GL253954  25.206  25.146   6.164
 4186POPC   C1A53955  25.291  25.223   6.464
 4186POPC   D2A53956  25.296  25.237   6.764
 4186POPC   C3A53957  25.235  25.244   7.064
 4186POPC   C4A53958  25.222  25.254   7.364
 4186POPC   C1B53959  25.198  24.999   6.464
 4186POPC   C2B53960  25.282  24.989   6.764
 4186POPC   C3B53961  25.208  24.988   7.064
 4186POPC   C4B53962  25.281  24.986   7.364
 4187POPC   NC353963  22.154  37.679   5.564
 4187POPC   PO453964  22.147  37.726   5.864
 4187POPC   GL153965  22.157  37.678   6.164
 4187POPC   GL253966  22.088  37.526   6.164
 4187POPC   C1A53967  22.186  37.711   6.464
 4187POPC   D2A53968  22.136  37.697   6.764
 4187POPC   C3A53969  22.141  37.702   7.064
 4187POPC   C4A53970  22.201  37.653   7.364
 4187POPC   C1B53971  22.085  37.490   6.464
 4187POPC   C2B53972  22.059  37.446   6.764
 4187POPC   C3B53973  22.097  37.418   7.064
 4187POPC   C4B53974  22.106  37.457   7.364
 4188POPC   NC353975  40.777  23.693   5.564
 4188POPC   PO453976  40.782  23.692   5.864
 4188POPC   GL153977  40.769  23.665   6.164
 4188POPC   GL253978  40.864  23.581   6.164
 4188POPC   C1A53979  40.828  23.735   6.464
 4188POPC   D2A53980  40.832  23.741   6.764
 4188POPC   C3A53981  40.745  23.698   7.064
 4188POPC   C4A53982  40.822  23.751   7.364
 4188POPC   C1B53983  40.885  23.522   6.464
 4188POPC   C2B53984  40.881  23.503   6.764
 4188POPC   C3B53985  40.925  23.467   7.064
 4188POPC   C4B53986  40.902  23.507   7.364
 4189POPC   NC353987  18.255  19.093   5.564
 4189POPC   PO453988  18.282  19.027   5.864
 4189POPC   GL153989  18.320  19.067   6.164
 4189POPC   GL253990  18.238  18.932   6.164
 4189POPC   C1A53991  18.250  19.089   6.464
 4189POPC   D2A53992  18.289  19.023   6.764
 4189POPC   C3A53993  18.264  19.065   7.064
 4189POPC   C4A53994  18.269  19.098   7.364
 4189POPC   C1B53995  18.303  18.797   6.464
 4189POPC   C2B53996  18.299  18.851   6.764
 4189POPC   C3B53997  18.269  18.795   7.064
 4189POPC   C4B53998  18.219  18.771   7.364
 4190POPC   NC353999  33.010  41.543   5.564
 4190POPC   PO454000  33.011  41.598   5.864
 4190POPC   GL154001  33.034  41.594   6.164
 4190POPC   GL254002  33.162  41.540   6.164
 4190POPC   C1A54003  32.975  41.545   6.464
 4190POPC   D2A54004  33.043  41.519   6.764
 4190POPC   C3A54005  33.064  41.561   7.064
 4190POPC   C4A54006  33.058  41.515   7.364
 4190POPC   C1B54007  33.243  41.579   6.464
 4190POPC   C2B54008  33.265  41.549   6.764
 4190POPC   C3B54009  33.269  41.593   7.064
 4190POPC   C4B54010  33.321  41.564   7.364
 4191POPC   NC354011  29.873   5.902   5.564
 4191POPC   PO454012  29.911   5.820   5.864
 4191POPC   GL154013  29.952   5.864   6.164
 4191POPC   GL254014  30.006   5.979   6.164
 4191POPC   C1A54015  29.967   5.868   6.464
 4191POPC   D2A54016  29.907   5.849   6.764
 4191POPC   C3A54017  29.871   5.871   7.064
 4191POPC   C4A54018  29.883   5.830   7.364
 4191POPC   C1B54019  30.129   6.048   6.464
 4191POPC   C2B54020  30.074   6.067   6.764
 4191POPC   C3B54021  30.043   6.058   7.064
 4191POPC   C4B54022  30.045   6.098   7.364
 4192POPC   NC354023  21.380   6.619   5.564
 4192POPC   PO454024  21.401   6.602   5.864
 4192POPC   GL154025  21.420   6.667   6.164
 4192POPC   GL254026  21.301   6.569   6.164
 4192POPC   C1A54027  21.346   6.628   6.464
 4192POPC   D2A54028  21.421   6.611   6.764
 4192POPC   C3A54029  21.350   6.671   7.064
 4192POPC   C4A54030  21.399   6.616   7.364
 4192POPC   C1B54031  21.251   6.431   6.464
 4192POPC   C2B54032  21.173   6.459   6.764
 4192POPC   C3B54033  21.241   6.434   7.064
 4192POPC   C4B54034  21.180   6.442   7.364
 4193POPC   NC354035   4.366  32.981   5.564
 4193POPC   PO454036   4.276  32.998   5.864
 4193POPC   GL154037   4.288  33.069   6.164
 4193POPC   GL254038   4.346  32.924   6.164
 4193POPC   C1A54039   4.338  32.996   6.464
 4193POPC   D2A54040   4.283  33.038   6.764
 4193POPC   C3A54041   4.321  33.063   7.064
 4193POPC   C4A54042   4.358  33.042   7.364
 4193POPC   C1B54043   4.516  32.868   6.464
 4193POPC   C2B54044   4.465  32.843   6.764
 4193POPC   C3B54045   4.469  32.870   7.064
 4193POPC   C4B54046   4.498  32.869   7.364
 4194POPC   NC354047   7.447  23.709   5.564
 4194POPC   PO454048   7.452  23.707   5.864
 4194POPC   GL154049   7.430  23.739   6.164
 4194POPC   GL254050   7.469  23.578   6.164
 4194POPC   C1A54051   7.454  23.757   6.464
 4194POPC   D2A54052   7.396  23.744   6.764
 4194POPC   C3A54053   7.408  23.690   7.064
 4194POPC   C4A54054   7.456  23.704   7.364
 4194POPC   C1B54055   7.557  23.516   6.464
 4194POPC   C2B54056   7.582  23.514   6.764
 4194POPC   C3B54057   7.583  23.573   7.064
 4194POPC   C4B54058   7.564  23.514   7.364
 4195POPC   NC354059  10.515  12.846   5.564
 4195POPC   PO454060  10.513  12.848   5.864
 4195POPC   GL154061  10.518  12.804   6.164
 4195POPC   GL254062  10.561  12.740   6.164
 4195POPC   C1A54063  10.530  12.893   6.464
 4195POPC   D2A54064  10.539  12.845   6.764
 4195POPC   C3A54065  10.561  12.888   7.064
 4195POPC   C4A54066  10.555  12.827   7.364
 4195POPC   C1B54067  10.538  12.642   6.464
 4195POPC   C2B54068  10.510  12.567   6.764
 4195POPC   C3B54069  10.506  12.610   7.064
 4195POPC   C4B54070  10.541  12.575   7.364
 4196POPC   NC354071  33.828  28.369   5.564
 4196POPC   PO454072  33.795  28.387   5.864
 4196POPC   GL154073  33.848  28.350   6.164
 4196POPC   GL254074  33.951  28.327   6.164
 4196POPC   C1A54075  33.844  28.322   6.464
 4196POPC   D2A54076  33.836  28.376   6.764
 4196POPC   C3A54077  33.769  28.320   7.064
 4196POPC   C4A54078  33.832  28.411   7.364
 4196POPC   C1B54079  34.086  28.333   6.464
 4196POPC   C2B54080  33.996  28.270   6.764
 4196POPC   C3B54081  34.021  28.328   7.064
 4196POPC   C4B54082  34.057  28.327   7.364
 4197POPC   NC354083  34.622   5.861   5.564
 4197POPC   PO454084  34.530   5.849   5.864
 4197POPC   GL154085  34.572   5.830   6.164
 4197POPC   GL254086  34.415   5.845   6.164
 4197POPC   C1A54087  34.545   5.831   6.464
 4197POPC   D2A54088  34.621   5.853   6.764
 4197POPC   C3A54089  34.612   5.844   7.064
 4197POPC   C4A54090  34.565   5.913   7.364
 4197POPC   C1B54091  34.312   5.901   6.464
 4197POPC   C2B54092  34.362   5.928   6.764
 4197POPC   C3B54093  34.322   5.915   7.064
 4197POPC   C4B54094  34.344   5.909   7.364
 4198POPC   NC354095  14.435  15.218   5.564
 4198POPC   PO454096  14.444  15.218   5.864
 4198POPC   GL154097  14.418  15.213   6.164
 4198POPC   GL254098  14.512  15.177   6.164
 4198POPC   C1A54099  14.354  15.197   6.464
 4198POPC   D2A54100  14.356  15.184   6.764
 4198POPC   C3A54101  14.358  15.225   7.064
 4198POPC   C4A54102  14.452  15.228   7.364
 4198POPC   C1B54103  14.697  15.239   6.464
 4198POPC   C2B54104  14.613  15.216   6.764
 4198POPC   C3B54105  14.635  15.168   7.064
 4198POPC   C4B54106  14.672  15.192   7.364
 4199POPC   NC354107   7.407  41.560   5.564
 4199POPC   PO454108   7.460  41.578   5.864
 4199POPC   GL154109   7.441  41.529   6.164
 4199POPC   GL254110   7.326  41.413   6.164
 4199POPC   C1A54111   7.397  41.605   6.464
 4199POPC   D2A54112   7.383  41.526   6.764
 4199POPC   C3A54113   7.461  41.551   7.064
 4199POPC   C4A54114   7.441  41.540   7.364
 4199POPC   C1B54115   7.292  41.373   6.464
 4199POPC   C2B54116   7.299  41.391   6.764
 4199POPC   C3B54117   7.318  41.366   7.064
 4199POPC   C4B54118   7.271  41.313   7.364
 4200POPC   NC354119   2.788  15.149   5.564
 4200POPC   PO454120   2.784  15.193   5.864
 4200POPC   GL154121   2.810  15.229   6.164
 4200POPC   GL254122   2.857  15.120   6.164
 4200POPC   C1A54123   2.810  15.166   6.464
 4200POPC   D2A54124   2.756  15.173   6.764
 4200POPC   C3A54125   2.752  15.225   7.064
 4200POPC   C4A54126   2.776  15.142   7.364
 4200POPC   C1B54127   2.955  15.079   6.464
 4200POPC   C2B54128   2.957  15.052   6.764
 4200POPC   C3B54129   3.046  15.059   7.064
 4200POPC   C4B54130   3.028  15.036   7.364
 4201POPC   NC354131   5.101  42.333   5.564
 4201POPC   PO454132   5.104  42.309   5.864
 4201POPC   GL154133   5.057  42.371   6.164
 4201POPC   GL254134   5.051  42.252   6.164
 4201POPC   C1A54135   5.111  42.368   6.464
 4201POPC   D2A54136   5.050  42.333   6.764
 4201POPC   C3A54137   5.108  42.292   7.064
 4201POPC   C4A54138   5.054  42.344   7.364
 4201POPC   C1B54139   5.105  42.074   6.464
 4201POPC   C2B54140   5.078  42.084   6.764
 4201POPC   C3B54141   5.047  42.055   7.064
 4201POPC   C4B54142   5.073  42.045   7.364
 4202POPC   NC354143   2.027   6.687   5.564
 4202POPC   PO454144   1.951   6.672   5.864
 4202POPC   GL154145   2.025   6.598   6.164
 4202POPC   GL254146   2.073   6.615   6.164
 4202POPC   C1A54147   1.954   6.677   6.464
 4202POPC   D2A54148   1.964   6.668   6.764
 4202POPC   C3A54149   1.945   6.686   7.064
 4202POPC   C4A54150   2.014   6.605   7.364
 4202POPC   C1B54151   2.242   6.552   6.464
 4202POPC   C2B54152   2.249   6.569   6.764
 4202POPC   C3B54153   2.182   6.556   7.064
 4202POPC   C4B54154   2.212   6.554   7.364
 4203POPC   NC354155  15.937   1.960   5.564
 4203POPC   PO454156  15.953   2.013   5.864
 4203POPC   GL154157  15.967   1.949   6.164
 4203POPC   GL254158  15.802   2.030   6.164
 4203POPC   C1A54159  15.919   1.963   6.464
 4203POPC   D2A54160  15.947   1.944   6.764
 4203POPC   C3A54161  15.994   1.985   7.064
 4203POPC   C4A54162  15.965   1.963   7.364
 4203POPC   C1B54163  15.700   1.964   6.464
 4203POPC   C2B54164  15.749   2.013   6.764
 4203POPC   C3B54165  15.728   1.951   7.064
 4203POPC   C4B54166  15.743   2.004   7.364
 4204POPC   NC354167   1.203  20.653   5.564
 4204POPC   PO454168   1.222  20.598   5.864
 4204POPC   GL154169   1.192  20.632   6.164
 4204POPC   GL254170   1.341  20.581   6.164
 4204POPC   C1A54171   1.210  20.599   6.464
 4204POPC   D2A54172   1.239  20.577   6.764
 4204POPC   C3A54173   1.244  20.585   7.064
 4204POPC   C4A54174   1.210  20.627   7.364
 4204POPC   C1B54175   1.452  20.584   6.464
 4204POPC   C2B54176   1.435  20.539   6.764
 4204POPC   C3B54177   1.497  20.566   7.064
 4204POPC   C4B54178   1.452  20.578   7.364
 4205POPC   NC354179  14.438  12.037   5.564
 4205POPC   PO454180  14.375  12.115   5.864
 4205POPC   GL154181  14.357  12.125   6.164
 4205POPC   GL254182  14.283  12.048   6.164
 4205POPC   C1A54183  14.416  12.037   6.464
 4205POPC   D2A54184  14.396  12.108   6.764
 4205POPC   C3A54185  14.380  12.076   7.064
 4205POPC   C4A54186  14.405  12.098   7.364
 4205POPC   C1B54187  14.178  12.038   6.464
 4205POPC   C2B54188  14.193  12.008   6.764
 4205POPC   C3B54189  14.154  12.031   7.064
 4205POPC   C4B54190  14.149  12.087   7.364
 4206POPC   NC354191  29.146  11.347   5.564
 4206POPC   PO454192  29.168  11.340   5.864
 4206POPC   GL154193  29.111  11.257   6.164
 4206POPC   GL254194  29.299  11.353   6.164
 4206POPC   C1A54195  29.161  11.335   6.464
 4206POPC   D2A54196  29.158  11.295   6.764
 4206POPC   C3A54197  29.183  11.298   7.064
 4206POPC   C4A54198  29.145  11.318   7.364
 4206POPC   C1B54199  29.359  11.467   6.464
 4206POPC   C2B54200  29.380  11.376   6.764
 4206POPC   C3B54201  29.330  11.468   7.064
 4206POPC   C4B54202  29.339  11.445   7.364
 4207POPC   NC354203  29.182  33.752   5.564
 4207POPC   PO454204  29.186  33.820   5.864
 4207POPC   GL154205  29.176  33.801   6.164
 4207POPC   GL254206  28.999  33.793   6.164
 4207POPC   C1A54207  29.177  33.783   6.464
 4207POPC   D2A54208  29.097  33.849   6.764
 4207POPC   C3A54209  29.134  33.846   7.064
 4207POPC   C4A54210  29.127  33.846   7.364
 4207POPC   C1B54211  28.951  33.898   6.464
 4207POPC   C2B54212  28.933  33.875   6.764
 4207POPC   C3B54213  28.944  33.875   7.064
 4207POPC   C4B54214  28.895  33.919   7.364
 4208POPC   NC354215   7.400  26.070   5.564
 4208POPC   PO454216   7.395  26.054   5.864
 4208POPC   GL154217   7.452  26.015   6.164
 4208POPC   GL254218   7.415  25.933   6.164
 4208POPC   C1A54219   7.378  26.047   6.464
 4208POPC   D2A54220   7.401  26.087   6.764
 4208POPC   C3A54221   7.399  26.034   7.064
 4208POPC   C4A54222   7.403  26.007   7.364
 4208POPC   C1B54223   7.474  25.757   6.464
 4208POPC   C2B54224   7.489  25.786   6.764
 4208POPC   C3B54225   7.444  25.805   7.064
 4208POPC   C4B54226   7.460  25.808   7.364
 4209POPC   NC354227   5.866  35.365   5.564
 4209POPC   PO454228   5.918  35.348   5.864
 4209POPC   GL154229   5.848  35.344   6.164
 4209POPC   GL254230   5.783  35.361   6.164
 4209POPC   C1A54231   5.892  35.381   6.464
 4209POPC   D2A54232   5.904  35.305   6.764
 4209POPC   C3A54233   5.871  35.393   7.064
 4209POPC   C4A54234   5.903  35.391   7.364
 4209POPC   C1B54235   5.642  35.318   6.464
 4209POPC   C2B54236   5.598  35.362   6.764
 4209POPC   C3B54237   5.617  35.325   7.064
 4209POPC   C4B54238   5.609  35.339   7.364
 4210POPC   NC354239   8.984  32.977   5.564
 4210POPC   PO454240   8.957  33.002   5.864
 4210POPC   GL154241   8.971  33.036   6.164
 4210POPC   GL254242   8.925  33.137   6.164
 4210POPC   C1A54243   8.998  32.990   6.464
 4210POPC   D2A54244   9.002  32.986   6.764
 4210POPC   C3A54245   8.976  33.019   7.064
 4210POPC   C4A54246   8.937  33.024   7.364
 4210POPC   C1B54247   8.909  33.233   6.464
 4210POPC   C2B54248   8.865  33.245   6.764
 4210POPC   C3B54249   8.867  33.204   7.064
 4210POPC   C4B54250   8.900  33.281   7.364
 4211POPC   NC354251  43.156  26.864   5.564
 4211POPC   PO454252  43.157  26.832   5.864
 4211POPC   GL154253  43.095  26.824   6.164
 4211POPC   GL254254  43.009  26.752   6.164
 4211POPC   C1A54255  43.079  26.767   6.464
 4211POPC   D2A54256  43.127  26.774   6.764
 4211POPC   C3A54257  43.071  26.775   7.064
 4211POPC   C4A54258  43.140  26.849   7.364
 4211POPC   C1B54259  42.910  26.750   6.464
 4211POPC   C2B54260  42.877  26.751   6.764
 4211POPC   C3B54261  42.904  26.744   7.064
 4211POPC   C4B54262  42.887  26.786   7.364
 4212POPC   NC354263  17.493  43.936   5.564
 4212POPC   PO454264  17.516  43.874   5.864
 4212POPC   GL154265  17.495  43.875   6.164
 4212POPC   GL254266  17.597  44.026   6.164
 4212POPC   C1A54267  17.551  43.850   6.464
 4212POPC   D2A54268  17.473  43.859   6.764
 4212POPC   C3A54269  17.491  43.925   7.064
 4212POPC   C4A54270  17.474  43.853   7.364
 4212POPC   C1B54271  17.671  44.129   6.464
 4212POPC   C2B54272  17.656  44.101   6.764
 4212POPC   C3B54273  17.659  44.098   7.064
 4212POPC   C4B54274  17.621  44.057   7.364
 4213POPC   NC354275  16.713  30.702   5.564
 4213POPC   PO454276  16.698  30.679   5.864
 4213POPC   GL154277  16.732  30.697   6.164
 4213POPC   GL254278  16.678  30.611   6.164
 4213POPC   C1A54279  16.730  30.682   6.464
 4213POPC   D2A54280  16.684  30.666   6.764
 4213POPC   C3A54281  16.772  30.717   7.064
 4213POPC   C4A54282  16.720  30.694   7.364
 4213POPC   C1B54283  16.533  30.472   6.464
 4213POPC   C2B54284  16.571  30.505   6.764
 4213POPC   C3B54285  16.565  30.525   7.064
 4213POPC   C4B54286  16.599  30.521   7.364
 4214POPC   NC354287  43.159  10.551   5.564
 4214POPC   PO454288  43.080  10.539   5.864
 4214POPC   GL154289  43.144  10.567   6.164
 4214POPC   GL254290  43.182  10.563   6.164
 4214POPC   C1A54291  43.083  10.487   6.464
 4214POPC   D2A54292  43.135  10.504   6.764
 4214POPC   C3A54293  43.125  10.542   7.064
 4214POPC   C4A54294  43.090  10.552   7.364
 4214POPC   C1B54295  43.359  10.639   6.464
 4214POPC   C2B54296  43.349  10.604   6.764
 4214POPC   C3B54297  43.336  10.601   7.064
 4214POPC   C4B54298  43.360  10.555   7.364
 4215POPC   NC354299  14.444  37.695   5.564
 4215POPC   PO454300  14.391  37.664   5.864
 4215POPC   GL154301  14.378  37.642   6.164
 4215POPC   GL254302  14.357  37.804   6.164
 4215POPC   C1A54303  14.384  37.652   6.464
 4215POPC   D2A54304  14.405  37.647   6.764
 4215POPC   C3A54305  14.375  37.649   7.064
 4215POPC   C4A54306  14.356  37.685   7.364
 4215POPC   C1B54307  14.261  37.871   6.464
 4215POPC   C2B54308  14.240  37.842   6.764
 4215POPC   C3B54309  14.262  37.936   7.064
 4215POPC   C4B54310  14.255  37.930   7.364
 4216POPC   NC354311  34.573  14.420   5.564
 4216POPC   PO454312  34.589  14.357   5.864
 4216POPC   GL154313  34.613  14.371   6.164
 4216POPC   GL254314  34.510  14.470   6.164
 4216POPC   C1A54315  34.578  14.428   6.464
 4216POPC   D2A54316  34.565  14.427   6.764
 4216POPC   C3A54317  34.538  14.418   7.064
 4216POPC   C4A54318  34.552  14.428   7.364
 4216POPC   C1B54319  34.457  14.616   6.464
 4216POPC   C2B54320  34.504  14.595   6.764
 4216POPC   C3B54321  34.417  14.648   7.064
 4216POPC   C4B54322  34.435  14.624   7.364
 4217POPC   NC354323  38.406  10.510   5.564
 4217POPC   PO454324  38.410  10.501   5.864
 4217POPC   GL154325  38.486  10.551   6.164
 4217POPC   GL254326  38.612  10.441   6.164
 4217POPC   C1A54327  38.437  10.510   6.464
 4217POPC   D2A54328  38.433  10.495   6.764
 4217POPC   C3A54329  38.490  10.561   7.064
 4217POPC   C4A54330  38.487  10.563   7.364
 4217POPC   C1B54331  38.725  10.407   6.464
 4217POPC   C2B54332  38.658  10.417   6.764
 4217POPC   C3B54333  38.711  10.406   7.064
 4217POPC   C4B54334  38.683  10.471   7.364
 4218POPC   NC354335  16.687  15.997   5.564
 4218POPC   PO454336  16.755  15.937   5.864
 4218POPC   GL154337  16.690  15.929   6.164
 4218POPC   GL254338  16.693  15.867   6.164
 4218POPC   C1A54339  16.751  15.942   6.464
 4218POPC   D2A54340  16.698  15.960   6.764
 4218POPC   C3A54341  16.696  15.947   7.064
 4218POPC   C4A54342  16.683  15.979   7.364
 4218POPC   C1B54343  16.696  15.714   6.464
 4218POPC   C2B54344  16.685  15.744   6.764
 4218POPC   C3B54345  16.715  15.754   7.064
 4218POPC   C4B54346  16.731  15.707   7.364
 4219POPC   NC354347  29.183   8.150   5.564
 4219POPC   PO454348  29.140   8.162   5.864
 4219POPC   GL154349  29.143   8.176   6.164
 4219POPC   GL254350  29.248   8.085   6.164
 4219POPC   C1A54351  29.126   8.245   6.464
 4219POPC   D2A54352  29.127   8.229   6.764
 4219POPC   C3A54353  29.109   8.233   7.064
 4219POPC   C4A54354  29.110   8.152   7.364
 4219POPC   C1B54355  29.249   7.953   6.464
 4219POPC   C2B54356  29.261   7.962   6.764
 4219POPC   C3B54357  29.266   7.939   7.064
 4219POPC   C4B54358  29.296   8.020   7.364
 4220POPC   NC354359  19.030  12.859   5.564
 4220POPC   PO454360  19.011  12.822   5.864
 4220POPC   GL154361  19.037  12.891   6.164
 4220POPC   GL254362  18.931  12.919   6.164
 4220POPC   C1A54363  19.100  12.841   6.464
 4220POPC   D2A54364  19.089  12.869   6.764
 4220POPC   C3A54365  19.065  12.821   7.064
 4220POPC   C4A54366  19.039  12.841   7.364
 4220POPC   C1B54367  18.821  13.052   6.464
 4220POPC   C2B54368  18.854  12.968   6.764
 4220POPC   C3B54369  18.882  12.972   7.064
 4220POPC   C4B54370  18.844  13.022   7.364
 4221POPC   NC354371  32.247  38.451   5.564
 4221POPC   PO454372  32.212  38.490   5.864
 4221POPC   GL154373  32.284  38.504   6.164
 4221POPC   GL254374  32.118  38.501   6.164
 4221POPC   C1A54375  32.226  38.471   6.464
 4221POPC   D2A54376  32.245  38.472   6.764
 4221POPC   C3A54377  32.296  38.451   7.064
 4221POPC   C4A54378  32.222  38.463   7.364
 4221POPC   C1B54379  32.084  38.587   6.464
 4221POPC   C2B54380  32.078  38.604   6.764
 4221POPC   C3B54381  32.086  38.566   7.064
 4221POPC   C4B54382  32.090  38.559   7.364
 4222POPC   NC354383  31.518  39.961   5.564
 4222POPC   PO454384  31.433  40.040   5.864
 4222POPC   GL154385  31.448  40.037   6.164
 4222POPC   GL254386  31.563  40.004   6.164
 4222POPC   C1A54387  31.492  40.037   6.464
 4222POPC   D2A54388  31.430  39.958   6.764
 4222POPC   C3A54389  31.488  39.998   7.064
 4222POPC   C4A54390  31.490  40.005   7.364
 4222POPC   C1B54391  31.676  40.036   6.464
 4222POPC   C2B54392  31.673  40.092   6.764
 4222POPC   C3B54393  31.752  40.113   7.064
 4222POPC   C4B54394  31.747  40.045   7.364
 4223POPC   NC354395   0.398  29.161   5.564
 4223POPC   PO454396   0.446  29.191   5.864
 4223POPC   GL154397   0.439  29.097   6.164
 4223POPC   GL254398   0.545  29.080   6.164
 4223POPC   C1A54399   0.477  29.141   6.464
 4223POPC   D2A54400   0.468  29.183   6.764
 4223POPC   C3A54401   0.419  29.189   7.064
 4223POPC   C4A54402   0.487  29.182   7.364
 4223POPC   C1B54403   0.622  29.020   6.464
 4223POPC   C2B54404   0.599  28.993   6.764
 4223POPC   C3B54405   0.612  28.964   7.064
 4223POPC   C4B54406   0.586  28.952   7.364
 4224POPC   NC354407   2.775  22.955   5.564
 4224POPC   PO454408   2.767  22.981   5.864
 4224POPC   GL154409   2.721  22.929   6.164
 4224POPC   GL254410   2.835  22.853   6.164
 4224POPC   C1A54411   2.814  22.946   6.464
 4224POPC   D2A54412   2.753  22.907   6.764
 4224POPC   C3A54413   2.763  22.914   7.064
 4224POPC   C4A54414   2.736  22.947   7.364
 4224POPC   C1B54415   2.927  22.788   6.464
 4224POPC   C2B54416   2.980  22.719   6.764
 4224POPC   C3B54417   2.952  22.759   7.064
 4224POPC   C4B54418   2.916  22.740   7.364
 4225POPC   NC354419   4.348   1.960   5.564
 4225POPC   PO454420   4.314   1.953   5.864
 4225POPC   GL154421   4.277   1.943   6.164
 4225POPC   GL254422   4.398   2.111   6.164
 4225POPC   C1A54423   4.360   1.951   6.464
 4225POPC   D2A54424   4.304   1.980   6.764
 4225POPC   C3A54425   4.286   1.997   7.064
 4225POPC   C4A54426   4.333   1.974   7.364
 4225POPC   C1B54427   4.442   2.222   6.464
 4225POPC   C2B54428   4.407   2.248   6.764
 4225POPC   C3B54429   4.416   2.202   7.064
 4225POPC   C4B54430   4.484   2.174   7.364
 4226POPC   NC354431  14.354  42.343   5.564
 4226POPC   PO454432  14.386  42.344   5.864
 4226POPC   GL154433  14.365  42.359   6.164
 4226POPC   GL254434  14.448  42.436   6.164
 4226POPC   C1A54435  14.424  42.343   6.464
 4226POPC   D2A54436  14.429  42.360   6.764
 4226POPC   C3A54437  14.359  42.286   7.064
 4226POPC   C4A54438  14.370  42.320   7.364
 4226POPC   C1B54439  14.606  42.553   6.464
 4226POPC   C2B54440  14.611  42.492   6.764
 4226POPC   C3B54441  14.535  42.471   7.064
 4226POPC   C4B54442  14.543  42.538   7.364
 4227POPC   NC354443  22.155  42.313   5.564
 4227POPC   PO454444  22.137  42.312   5.864
 4227POPC   GL154445  22.166  42.341   6.164
 4227POPC   GL254446  22.130  42.449   6.164
 4227POPC   C1A54447  22.132  42.361   6.464
 4227POPC   D2A54448  22.178  42.311   6.764
 4227POPC   C3A54449  22.115  42.346   7.064
 4227POPC   C4A54450  22.171  42.289   7.364
 4227POPC   C1B54451  22.124  42.530   6.464
 4227POPC   C2B54452  22.114  42.558   6.764
 4227POPC   C3B54453  22.081  42.528   7.064
 4227POPC   C4B54454  22.066  42.535   7.364
 4228POPC   NC354455  40.786   1.253   5.564
 4228POPC   PO454456  40.821   1.200   5.864
 4228POPC   GL154457  40.767   1.240   6.164
 4228POPC   GL254458  40.846   1.103   6.164
 4228POPC   C1A54459  40.820   1.244   6.464
 4228POPC   D2A54460  40.810   1.182   6.764
 4228POPC   C3A54461  40.830   1.187   7.064
 4228POPC   C4A54462  40.767   1.169   7.364
 4228POPC   C1B54463  40.856   0.996   6.464
 4228POPC   C2B54464  40.851   1.000   6.764
 4228POPC   C3B54465  40.829   1.021   7.064
 4228POPC   C4B54466  40.799   0.971   7.364
 4229POPC   NC354467  19.827   8.947   5.564
 4229POPC   PO454468  19.815   8.951   5.864
 4229POPC   GL154469  19.870   8.990   6.164
 4229POPC   GL254470  19.956   9.056   6.164
 4229POPC   C1A54471  19.856   9.022   6.464
 4229POPC   D2A54472  19.864   9.001   6.764
 4229POPC   C3A54473  19.830   8.983   7.064
 4229POPC   C4A54474  19.876   8.951   7.364
 4229POPC   C1B54475  20.040   9.069   6.464
 4229POPC   C2B54476  20.059   9.091   6.764
 4229POPC   C3B54477  20.111   9.082   7.064
 4229POPC   C4B54478  20.116   9.020   7.364
 4230POPC   NC354479  22.140  26.828   5.564
 4230POPC   PO454480  22.173  26.834   5.864
 4230POPC   GL154481  22.161  26.832   6.164
 4230POPC   GL254482  22.234  26.781   6.164
 4230POPC   C1A54483  22.130  26.850   6.464
 4230POPC   D2A54484  22.189  26.848   6.764
 4230POPC   C3A54485  22.135  26.810   7.064
 4230POPC   C4A54486  22.160  26.796   7.364
 4230POPC   C1B54487  22.430  26.715   6.464
 4230POPC   C2B54488  22.376  26.703   6.764
 4230POPC   C3B54489  22.391  26.740   7.064
 4230POPC   C4B54490  22.345  26.691   7.364
 4231POPC   NC354491  33.810  26.015   5.564
 4231POPC   PO454492  33.750  26.030   5.864
 4231POPC   GL154493  33.813  26.020   6.164
 4231POPC   GL254494  33.967  26.022   6.164
 4231POPC   C1A54495  33.821  26.031   6.464
 4231POPC   D2A54496  33.849  26.034   6.764
 4231POPC   C3A54497  33.753  26.005   7.064
 4231POPC   C4A54498  33.845  26.052   7.364
 4231POPC   C1B54499  34.008  26.077   6.464
 4231POPC   C2B54500  34.098  26.056   6.764
 4231POPC   C3B54501  34.064  26.098   7.064
 4231POPC   C4B54502  34.061  26.089   7.364
 4232POPC   NC354503  43.074  17.548   5.564
 4232POPC   PO454504  43.130  17.528   5.864
 4232POPC   GL154505  43.116  17.553   6.164
 4232POPC   GL254506  43.176  17.398   6.164
 4232POPC   C1A54507  43.074  17.510   6.464
 4232POPC   D2A54508  43.141  17.472   6.764
 4232POPC   C3A54509  43.133  17.462   7.064
 4232POPC   C4A54510  43.138  17.512   7.364
 4232POPC   C1B54511  43.348  17.360   6.464
 4232POPC   C2B54512  43.350  17.367   6.764
 4232POPC   C3B54513  43.284  17.345   7.064
 4232POPC   C4B54514  43.283  17.368   7.364
 4233POPC   NC354515  43.095  29.958   5.564
 4233POPC   PO454516  43.116  29.889   5.864
 4233POPC   GL154517  43.154  29.918   6.164
 4233POPC   GL254518  43.120  30.017   6.164
 4233POPC   C1A54519  43.080  29.903   6.464
 4233POPC   D2A54520  43.095  29.960   6.764
 4233POPC   C3A54521  43.072  29.917   7.064
 4233POPC   C4A54522  43.115  29.952   7.364
 4233POPC   C1B54523  43.170  30.127   6.464
 4233POPC   C2B54524  43.166  30.109   6.764
 4233POPC   C3B54525  43.180  30.174   7.064
 4233POPC   C4B54526  43.214  30.155   7.364
 4234POPC   NC354527   8.212  17.533   5.564
 4234POPC   PO454528   8.241  17.486   5.864
 4234POPC   GL154529   8.188  17.486   6.164
 4234POPC   GL254530   8.112  17.395   6.164
 4234POPC   C1A54531   8.216  17.497   6.464
 4234POPC   D2A54532   8.219  17.547   6.764
 4234POPC   C3A54533   8.151  17.543   7.064
 4234POPC   C4A54534   8.206  17.495   7.364
 4234POPC   C1B54535   8.002  17.415   6.464
 4234POPC   C2B54536   8.028  17.330   6.764
 4234POPC   C3B54537   8.002  17.403   7.064
 4234POPC   C4B54538   8.008  17.350   7.364
 4235POPC   NC354539  44.656  14.360   5.564
 4235POPC   PO454540  44.662  14.421   5.864
 4235POPC   GL154541  44.693  14.403   6.164
 4235POPC   GL254542  44.636  14.536   6.164
 4235POPC   C1A54543  44.621  14.379   6.464
 4235POPC   D2A54544  44.656  14.371   6.764
 4235POPC   C3A54545  44.619  14.438   7.064
 4235POPC   C4A54546  44.695  14.390   7.364
 4235POPC   C1B54547  44.678  14.636   6.464
 4235POPC   C2B54548  44.615  14.613   6.764
 4235POPC   C3B54549  44.677  14.695   7.064
 4235POPC   C4B54550  44.633  14.643   7.364
 4236POPC   NC354551  19.858   0.468   5.564
 4236POPC   PO454552  19.855   0.420   5.864
 4236POPC   GL154553  19.857   0.422   6.164
 4236POPC   GL254554  19.917   0.354   6.164
 4236POPC   C1A54555  19.874   0.439   6.464
 4236POPC   D2A54556  19.853   0.472   6.764
 4236POPC   C3A54557  19.838   0.440   7.064
 4236POPC   C4A54558  19.855   0.443   7.364
 4236POPC   C1B54559  19.945   0.248   6.464
 4236POPC   C2B54560  19.987   0.260   6.764
 4236POPC   C3B54561  19.919   0.233   7.064
 4236POPC   C4B54562  19.958   0.273   7.364
 4237POPC   NC354563  21.403  38.412   5.564
 4237POPC   PO454564  21.401  38.481   5.864
 4237POPC   GL154565  21.386  38.470   6.164
 4237POPC   GL254566  21.409  38.336   6.164
 4237POPC   C1A54567  21.371  38.439   6.464
 4237POPC   D2A54568  21.353  38.490   6.764
 4237POPC   C3A54569  21.346  38.421   7.064
 4237POPC   C4A54570  21.370  38.488   7.364
 4237POPC   C1B54571  21.401  38.169   6.464
 4237POPC   C2B54572  21.348  38.176   6.764
 4237POPC   C3B54573  21.426  38.224   7.064
 4237POPC   C4B54574  21.399  38.211   7.364
 4238POPC   NC354575  26.027  12.866   5.564
 4238POPC   PO454576  26.077  12.841   5.864
 4238POPC   GL154577  26.077  12.831   6.164
 4238POPC   GL254578  26.140  12.873   6.164
 4238POPC   C1A54579  26.025  12.898   6.464
 4238POPC   D2A54580  26.005  12.894   6.764
 4238POPC   C3A54581  26.023  12.834   7.064
 4238POPC   C4A54582  26.077  12.841   7.364
 4238POPC   C1B54583  26.237  12.960   6.464
 4238POPC   C2B54584  26.270  13.014   6.764
 4238POPC   C3B54585  26.277  12.960   7.064
 4238POPC   C4B54586  26.263  12.965   7.364
 4239POPC   NC354587  19.027  29.927   5.564
 4239POPC   PO454588  19.101  29.910   5.864
 4239POPC   GL154589  19.096  29.954   6.164
 4239POPC   GL254590  19.044  29.984   6.164
 4239POPC   C1A54591  19.095  29.873   6.464
 4239POPC   D2A54592  19.087  29.895   6.764
 4239POPC   C3A54593  19.080  29.970   7.064
 4239POPC   C4A54594  19.022  29.900   7.364
 4239POPC   C1B54595  18.932  30.165   6.464
 4239POPC   C2B54596  18.975  30.103   6.764
 4239POPC   C3B54597  18.973  30.145   7.064
 4239POPC   C4B54598  18.947  30.180   7.364
 4240POPC   NC354599   1.235   1.979   5.564
 4240POPC   PO454600   1.240   1.949   5.864
 4240POPC   GL154601   1.169   2.001   6.164
 4240POPC   GL254602   1.157   2.109   6.164
 4240POPC   C1A54603   1.204   1.942   6.464
 4240POPC   D2A54604   1.196   1.996   6.764
 4240POPC   C3A54605   1.198   1.945   7.064
 4240POPC   C4A54606   1.185   1.969   7.364
 4240POPC   C1B54607   1.169   2.183   6.464
 4240POPC   C2B54608   1.134   2.213   6.764
 4240POPC   C3B54609   1.115   2.202   7.064
 4240POPC   C4B54610   1.173   2.194   7.364
 4241POPC   NC354611   0.482  43.886   5.564
 4241POPC   PO454612   0.425  43.924   5.864
 4241POPC   GL154613   0.414  43.900   6.164
 4241POPC   GL254614   0.423  43.741   6.164
 4241POPC   C1A54615   0.438  43.932   6.464
 4241POPC   D2A54616   0.482  43.891   6.764
 4241POPC   C3A54617   0.431  43.859   7.064
 4241POPC   C4A54618   0.401  43.931   7.364
 4241POPC   C1B54619   0.460  43.655   6.464
 4241POPC   C2B54620   0.427  43.649   6.764
 4241POPC   C3B54621   0.396  43.614   7.064
 4241POPC   C4B54622   0.435  43.680   7.364
 4242POPC   NC354623  27.617  38.500   5.564
 4242POPC   PO454624  27.584  38.454   5.864
 4242POPC   GL154625  27.628  38.466   6.164
 4242POPC   GL254626  27.728  38.425   6.164
 4242POPC   C1A54627  27.600  38.444   6.464
 4242POPC   D2A54628  27.575  38.490   6.764
 4242POPC   C3A54629  27.569  38.456   7.064
 4242POPC   C4A54630  27.624  38.497   7.364
 4242POPC   C1B54631  27.878  38.407   6.464
 4242POPC   C2B54632  27.828  38.363   6.764
 4242POPC   C3B54633  27.820  38.430   7.064
 4242POPC   C4B54634  27.817  38.382   7.364
 4243POPC   NC354635  12.086  20.635   5.564
 4243POPC   PO454636  12.059  20.584   5.864
 4243POPC   GL154637  12.114  20.639   6.164
 4243POPC   GL254638  11.963  20.676   6.164
 4243POPC   C1A54639  12.123  20.624   6.464
 4243POPC   D2A54640  12.111  20.607   6.764
 4243POPC   C3A54641  12.096  20.578   7.064
 4243POPC   C4A54642  12.093  20.630   7.364
 4243POPC   C1B54643  11.898  20.767   6.464
 4243POPC   C2B54644  11.837  20.765   6.764
 4243POPC   C3B54645  11.911  20.745   7.064
 4243POPC   C4B54646  11.873  20.726   7.364
 4244POPC   NC354647  26.084   9.008   5.564
 4244POPC   PO454648  26.026   8.969   5.864
 4244POPC   GL154649  26.007   9.005   6.164
 4244POPC   GL254650  26.120   8.850   6.164
 4244POPC   C1A54651  26.080   8.996   6.464
 4244POPC   D2A54652  26.003   8.944   6.764
 4244POPC   C3A54653  26.050   8.945   7.064
 4244POPC   C4A54654  26.012   9.001   7.364
 4244POPC   C1B54655  26.271   8.853   6.464
 4244POPC   C2B54656  26.204   8.797   6.764
 4244POPC   C3B54657  26.212   8.787   7.064
 4244POPC   C4B54658  26.235   8.849   7.364
 4245POPC   NC354659  19.082   2.007   5.564
 4245POPC   PO454660  19.069   1.943   5.864
 4245POPC   GL154661  19.089   1.982   6.164
 4245POPC   GL254662  19.157   1.917   6.164
 4245POPC   C1A54663  19.027   1.991   6.464
 4245POPC   D2A54664  19.033   2.034   6.764
 4245POPC   C3A54665  19.074   1.974   7.064
 4245POPC   C4A54666  19.107   1.953   7.364
 4245POPC   C1B54667  19.332   1.917   6.464
 4245POPC   C2B54668  19.318   1.875   6.764
 4245POPC   C3B54669  19.307   1.892   7.064
 4245POPC   C4B54670  19.294   1.922   7.364
 4246POPC   NC354671   5.125  11.329   5.564
 4246POPC   PO454672   5.046  11.291   5.864
 4246POPC   GL154673   5.059  11.292   6.164
 4246POPC   GL254674   5.174  11.216   6.164
 4246POPC   C1A54675   5.106  11.344   6.464
 4246POPC   D2A54676   5.122  11.338   6.764
 4246POPC   C3A54677   5.114  11.299   7.064
 4246POPC   C4A54678   5.052  11.291   7.364
 4246POPC   C1B54679   5.321  11.107   6.464
 4246POPC   C2B54680   5.263  11.147   6.764
 4246POPC   C3B54681   5.291  11.157   7.064
 4246POPC   C4B54682   5.237  11.091   7.364
 4247POPC   NC354683  25.245   4.297   5.564
 4247POPC   PO454684  25.232   4.313   5.864
 4247POPC   GL154685  25.310   4.362   6.164
 4247POPC   GL254686  25.118   4.366   6.164
 4247POPC   C1A54687  25.237   4.345   6.464
 4247POPC   D2A54688  25.216   4.275   6.764
 4247POPC   C3A54689  25.264   4.327   7.064
 4247POPC   C4A54690  25.278   4.277   7.364
 4247POPC   C1B54691  25.046   4.512   6.464
 4247POPC   C2B54692  25.027   4.482   6.764
 4247POPC   C3B54693  25.020   4.500   7.064
 4247POPC   C4B54694  25.042   4.464   7.364
 4248POPC   NC354695   5.838  18.291   5.564
 4248POPC   PO454696   5.895  18.237   5.864
 4248POPC   GL154697   5.821  18.259   6.164
 4248POPC   GL254698   5.826  18.126   6.164
 4248POPC   C1A54699   5.911  18.245   6.464
 4248POPC   D2A54700   5.823  18.268   6.764
 4248POPC   C3A54701   5.874  18.331   7.064
 4248POPC   C4A54702   5.857  18.314   7.364
 4248POPC   C1B54703   5.848  18.004   6.464
 4248POPC   C2B54704   5.828  18.028   6.764
 4248POPC   C3B54705   5.766  18.036   7.064
 4248POPC   C4B54706   5.787  18.074   7.364
 4249POPC   NC354707  12.114  30.648   5.564
 4249POPC   PO454708  12.055  30.738   5.864
 4249POPC   GL154709  12.078  30.744   6.164
 4249POPC   GL254710  11.905  30.739   6.164
 4249POPC   C1A54711  12.099  30.738   6.464
 4249POPC   D2A54712  12.101  30.687   6.764
 4249POPC   C3A54713  12.115  30.732   7.064
 4249POPC   C4A54714  12.064  30.715   7.364
 4249POPC   C1B54715  11.848  30.770   6.464
 4249POPC   C2B54716  11.833  30.695   6.764
 4249POPC   C3B54717  11.783  30.700   7.064
 4249POPC   C4B54718  11.794  30.744   7.364
 4250POPC   NC354719  19.041  39.276   5.564
 4250POPC   PO454720  19.010  39.252   5.864
 4250POPC   GL154721  19.014  39.242   6.164
 4250POPC   GL254722  18.907  39.177   6.164
 4250POPC   C1A54723  19.018  39.265   6.464
 4250POPC   D2A54724  19.079  39.278   6.764
 4250POPC   C3A54725  19.026  39.231   7.064
 4250POPC   C4A54726  19.081  39.187   7.364
 4250POPC   C1B54727  18.807  39.086   6.464
 4250POPC   C2B54728  18.836  39.117   6.764
 4250POPC   C3B54729  18.833  39.086   7.064
 4250POPC   C4B54730  18.868  39.154   7.364
 4251POPC   NC354731   7.434  40.758   5.564
 4251POPC   PO454732   7.394  40.763   5.864
 4251POPC   GL154733   7.437  40.751   6.164
 4251POPC   GL254734   7.299  40.721   6.164
 4251POPC   C1A54735   7.381  40.792   6.464
 4251POPC   D2A54736   7.450  40.748   6.764
 4251POPC   C3A54737   7.418  40.736   7.064
 4251POPC   C4A54738   7.452  40.830   7.364
 4251POPC   C1B54739   7.163  40.708   6.464
 4251POPC   C2B54740   7.223  40.680   6.764
 4251POPC   C3B54741   7.173  40.660   7.064
 4251POPC   C4B54742   7.193  40.718   7.364
 4252POPC   NC354743  15.202  38.461   5.564
 4252POPC   PO454744  15.227  38.422   5.864
 4252POPC   GL154745  15.145  38.494   6.164
 4252POPC   GL254746  15.259  38.486   6.164
 4252POPC   C1A54747  15.211  38.489   6.464
 4252POPC   D2A54748  15.132  38.421   6.764
 4252POPC   C3A54749  15.181  38.437   7.064
 4252POPC   C4A54750  15.131  38.456   7.364
 4252POPC   C1B54751  15.383  38.378   6.464
 4252POPC   C2B54752  15.390  38.398   6.764
 4252POPC   C3B54753  15.411  38.412   7.064
 4252POPC   C4B54754  15.403  38.394   7.364
 4253POPC   NC354755   0.438  24.457   5.564
 4253POPC   PO454756   0.469  24.505   5.864
 4253POPC   GL154757   0.461  24.464   6.164
 4253POPC   GL254758   0.346  24.357   6.164
 4253POPC   C1A54759   0.486  24.520   6.464
 4253POPC   D2A54760   0.468  24.498   6.764
 4253POPC   C3A54761   0.433  24.520   7.064
 4253POPC   C4A54762   0.426  24.469   7.364
 4253POPC   C1B54763   0.353  24.287   6.464
 4253POPC   C2B54764   0.333  24.277   6.764
 4253POPC   C3B54765   0.313  24.304   7.064
 4253POPC   C4B54766   0.356  24.222   7.364
 4254POPC   NC354767  19.080  29.115   5.564
 4254POPC   PO454768  19.023  29.181   5.864
 4254POPC   GL154769  19.076  29.118   6.164
 4254POPC   GL254770  19.113  29.290   6.164
 4254POPC   C1A54771  19.015  29.098   6.464
 4254POPC   D2A54772  19.079  29.184   6.764
 4254POPC   C3A54773  19.097  29.166   7.064
 4254POPC   C4A54774  19.087  29.095   7.364
 4254POPC   C1B54775  19.177  29.400   6.464
 4254POPC   C2B54776  19.136  29.331   6.764
 4254POPC   C3B54777  19.162  29.328   7.064
 4254POPC   C4B54778  19.199  29.419   7.364
 4255POPC   NC354779  18.246  12.868   5.564
 4255POPC   PO454780  18.317  12.836   5.864
 4255POPC   GL154781  18.326  12.807   6.164
 4255POPC   GL254782  18.287  12.713   6.164
 4255POPC   C1A54783  18.285  12.810   6.464
 4255POPC   D2A54784  18.293  12.823   6.764
 4255POPC   C3A54785  18.280  12.818   7.064
 4255POPC   C4A54786  18.333  12.858   7.364
 4255POPC   C1B54787  18.307  12.635   6.464
 4255POPC   C2B54788  18.379  12.639   6.764
 4255POPC   C3B54789  18.388  12.621   7.064
 4255POPC   C4B54790  18.340  12.645   7.364
 4256POPC   NC354791  20.579  21.413   5.564
 4256POPC   PO454792  20.629  21.361   5.864
 4256POPC   GL154793  20.593  21.398   6.164
 4256POPC   GL254794  20.532  21.374   6.164
 4256POPC   C1A54795  20.625  21.398   6.464
 4256POPC   D2A54796  20.574  21.378   6.764
 4256POPC   C3A54797  20.627  21.337   7.064
 4256POPC   C4A54798  20.634  21.386   7.364
 4256POPC   C1B54799  20.394  21.396   6.464
 4256POPC   C2B54800  20.321  21.373   6.764
 4256POPC   C3B54801  20.333  21.403   7.064
 4256POPC   C4B54802  20.323  21.325   7.364
 4257POPC   NC354803  37.710  11.285   5.564
 4257POPC   PO454804  37.686  11.288   5.864
 4257POPC   GL154805  37.693  11.304   6.164
 4257POPC   GL254806  37.670  11.159   6.164
 4257POPC   C1A54807  37.663  11.293   6.464
 4257POPC   D2A54808  37.673  11.290   6.764
 4257POPC   C3A54809  37.679  11.349   7.064
 4257POPC   C4A54810  37.648  11.315   7.364
 4257POPC   C1B54811  37.716  11.045   6.464
 4257POPC   C2B54812  37.716  11.005   6.764
 4257POPC   C3B54813  37.687  11.093   7.064
 4257POPC   C4B54814  37.746  11.029   7.364
 4258POPC   NC354815  40.825  18.293   5.564
 4258POPC   PO454816  40.777  18.281   5.864
 4258POPC   GL154817  40.797  18.254   6.164
 4258POPC   GL254818  40.936  18.354   6.164
 4258POPC   C1A54819  40.789  18.319   6.464
 4258POPC   D2A54820  40.823  18.311   6.764
 4258POPC   C3A54821  40.781  18.328   7.064
 4258POPC   C4A54822  40.817  18.284   7.364
 4258POPC   C1B54823  41.034  18.426   6.464
 4258POPC   C2B54824  40.974  18.425   6.764
 4258POPC   C3B54825  41.004  18.406   7.064
 4258POPC   C4B54826  41.026  18.445   7.364
 4259POPC   NC354827  22.906  35.326   5.564
 4259POPC   PO454828  22.982  35.324   5.864
 4259POPC   GL154829  22.915  35.378   6.164
 4259POPC   GL254830  22.846  35.435   6.164
 4259POPC   C1A54831  22.934  35.383   6.464
 4259POPC   D2A54832  22.970  35.333   6.764
 4259POPC   C3A54833  22.985  35.356   7.064
 4259POPC   C4A54834  22.949  35.396   7.364
 4259POPC   C1B54835  22.781  35.547   6.464
 4259POPC   C2B54836  22.784  35.538   6.764
 4259POPC   C3B54837  22.756  35.544   7.064
 4259POPC   C4B54838  22.726  35.492   7.364
 4260POPC   NC354839  35.399  24.532   5.564
 4260POPC   PO454840  35.350  24.533   5.864
 4260POPC   GL154841  35.365  24.485   6.164
 4260POPC   GL254842  35.207  24.471   6.164
 4260POPC   C1A54843  35.338  24.489   6.464
 4260POPC   D2A54844  35.307  24.485   6.764
 4260POPC   C3A54845  35.370  24.466   7.064
 4260POPC   C4A54846  35.359  24.440   7.364
 4260POPC   C1B54847  35.114  24.467   6.464
 4260POPC   C2B54848  35.112  24.531   6.764
 4260POPC   C3B54849  35.090  24.458   7.064
 4260POPC   C4B54850  35.109  24.515   7.364
 4261POPC   NC354851  23.675  33.750   5.564
 4261POPC   PO454852  23.749  33.774   5.864
 4261POPC   GL154853  23.676  33.753   6.164
 4261POPC   GL254854  23.744  33.872   6.164
 4261POPC   C1A54855  23.699  33.769   6.464
 4261POPC   D2A54856  23.716  33.753   6.764
 4261POPC   C3A54857  23.753  33.763   7.064
 4261POPC   C4A54858  23.750  33.849   7.364
 4261POPC   C1B54859  23.827  34.066   6.464
 4261POPC   C2B54860  23.781  34.075   6.764
 4261POPC   C3B54861  23.831  34.015   7.064
 4261POPC   C4B54862  23.791  34.004   7.364
 4262POPC   NC354863   1.229  27.608   5.564
 4262POPC   PO454864   1.231  27.611   5.864
 4262POPC   GL154865   1.203  27.563   6.164
 4262POPC   GL254866   1.112  27.567   6.164
 4262POPC   C1A54867   1.229  27.556   6.464
 4262POPC   D2A54868   1.226  27.602   6.764
 4262POPC   C3A54869   1.222  27.552   7.064
 4262POPC   C4A54870   1.181  27.598   7.364
 4262POPC   C1B54871   0.949  27.555   6.464
 4262POPC   C2B54872   1.016  27.528   6.764
 4262POPC   C3B54873   0.977  27.551   7.064
 4262POPC   C4B54874   1.006  27.487   7.364
 4263POPC   NC354875  23.679  22.204   5.564
 4263POPC   PO454876  23.756  22.207   5.864
 4263POPC   GL154877  23.699  22.141   6.164
 4263POPC   GL254878  23.623  22.188   6.164
 4263POPC   C1A54879  23.724  22.126   6.464
 4263POPC   D2A54880  23.680  22.141   6.764
 4263POPC   C3A54881  23.718  22.191   7.064
 4263POPC   C4A54882  23.675  22.167   7.364
 4263POPC   C1B54883  23.453  22.091   6.464
 4263POPC   C2B54884  23.478  22.152   6.764
 4263POPC   C3B54885  23.485  22.109   7.064
 4263POPC   C4B54886  23.488  22.170   7.364
 4264POPC   NC354887  22.190   1.256   5.564
 4264POPC   PO454888  22.115   1.190   5.864
 4264POPC   GL154889  22.141   1.203   6.164
 4264POPC   GL254890  22.129   1.049   6.164
 4264POPC   C1A54891  22.126   1.244   6.464
 4264POPC   D2A54892  22.207   1.236   6.764
 4264POPC   C3A54893  22.123   1.220   7.064
 4264POPC   C4A54894  22.122   1.243   7.364
 4264POPC   C1B54895  22.137   1.001   6.464
 4264POPC   C2B54896  22.167   0.933   6.764
 4264POPC   C3B54897  22.177   0.988   7.064
 4264POPC   C4B54898  22.166   0.991   7.364
 4265POPC   NC354899  28.359   8.948   5.564
 4265POPC   PO454900  28.319   8.944   5.864
 4265POPC   GL154901  28.357   9.000   6.164
 4265POPC   GL254902  28.386   8.812   6.164
 4265POPC   C1A54903  28.384   8.945   6.464
 4265POPC   D2A54904  28.335   8.948   6.764
 4265POPC   C3A54905  28.321   8.967   7.064
 4265POPC   C4A54906  28.401   9.008   7.364
 4265POPC   C1B54907  28.379   8.709   6.464
 4265POPC   C2B54908  28.403   8.758   6.764
 4265POPC   C3B54909  28.357   8.739   7.064
 4265POPC   C4B54910  28.313   8.717   7.364
 4266POPC   NC354911  22.181   5.866   5.564
 4266POPC   PO454912  22.194   5.858   5.864
 4266POPC   GL154913  22.146   5.900   6.164
 4266POPC   GL254914  22.084   5.802   6.164
 4266POPC   C1A54915  22.146   5.854   6.464
 4266POPC   D2A54916  22.164   5.913   6.764
 4266POPC   C3A54917  22.116   5.854   7.064
 4266POPC   C4A54918  22.147   5.831   7.364
 4266POPC   C1B54919  22.049   5.677   6.464
 4266POPC   C2B54920  22.087   5.601   6.764
 4266POPC   C3B54921  22.010   5.692   7.064
 4266POPC   C4B54922  22.042   5.619   7.364
 4267POPC   NC354923  29.882  12.065   5.564
 4267POPC   PO454924  29.938  12.109   5.864
 4267POPC   GL154925  29.960  12.122   6.164
 4267POPC   GL254926  29.940  12.190   6.164
 4267POPC   C1A54927  29.919  12.076   6.464
 4267POPC   D2A54928  29.875  12.038   6.764
 4267POPC   C3A54929  29.927  12.063   7.064
 4267POPC   C4A54930  29.921  12.059   7.364
 4267POPC   C1B54931  29.911  12.352   6.464
 4267POPC   C2B54932  29.924  12.358   6.764
 4267POPC   C3B54933  29.889  12.296   7.064
 4267POPC   C4B54934  29.858  12.334   7.364
 4268POPC   NC354935   1.181  15.170   5.564
 4268POPC   PO454936   1.179  15.217   5.864
 4268POPC   GL154937   1.226  15.175   6.164
 4268POPC   GL254938   1.067  15.127   6.164
 4268POPC   C1A54939   1.212  15.144   6.464
 4268POPC   D2A54940   1.246  15.163   6.764
 4268POPC   C3A54941   1.228  15.131   7.064
 4268POPC   C4A54942   1.205  15.210   7.364
 4268POPC   C1B54943   1.024  15.043   6.464
 4268POPC   C2B54944   0.955  15.100   6.764
 4268POPC   C3B54945   0.944  15.074   7.064
 4268POPC   C4B54946   0.973  15.065   7.364
 4269POPC   NC354947  19.863  23.710   5.564
 4269POPC   PO454948  19.831  23.756   5.864
 4269POPC   GL154949  19.795  23.674   6.164
 4269POPC   GL254950  19.736  23.588   6.164
 4269POPC   C1A54951  19.800  23.746   6.464
 4269POPC   D2A54952  19.849  23.685   6.764
 4269POPC   C3A54953  19.833  23.672   7.064
 4269POPC   C4A54954  19.864  23.749   7.364
 4269POPC   C1B54955  19.628  23.494   6.464
 4269POPC   C2B54956  19.643  23.574   6.764
 4269POPC   C3B54957  19.650  23.581   7.064
 4269POPC   C4B54958  19.663  23.502   7.364
 4270POPC   NC354959  26.776   8.981   5.564
 4270POPC   PO454960  26.781   8.961   5.864
 4270POPC   GL154961  26.782   8.923   6.164
 4270POPC   GL254962  26.755   8.903   6.164
 4270POPC   C1A54963  26.775   9.008   6.464
 4270POPC   D2A54964  26.783   8.970   6.764
 4270POPC   C3A54965  26.833   8.985   7.064
 4270POPC   C4A54966  26.814   8.928   7.364
 4270POPC   C1B54967  26.637   8.812   6.464
 4270POPC   C2B54968  26.636   8.866   6.764
 4270POPC   C3B54969  26.650   8.884   7.064
 4270POPC   C4B54970  26.574   8.803   7.364
 4271POPC   NC354971  24.518   4.343   5.564
 4271POPC   PO454972  24.500   4.276   5.864
 4271POPC   GL154973  24.450   4.360   6.164
 4271POPC   GL254974  24.500   4.176   6.164
 4271POPC   C1A54975  24.525   4.293   6.464
 4271POPC   D2A54976  24.536   4.312   6.764
 4271POPC   C3A54977  24.491   4.284   7.064
 4271POPC   C4A54978  24.531   4.340   7.364
 4271POPC   C1B54979  24.434   4.104   6.464
 4271POPC   C2B54980  24.475   4.070   6.764
 4271POPC   C3B54981  24.436   4.113   7.064
 4271POPC   C4B54982  24.444   4.093   7.364
 4272POPC   NC354983  21.430  17.509   5.564
 4272POPC   PO454984  21.357  17.545   5.864
 4272POPC   GL154985  21.401  17.555   6.164
 4272POPC   GL254986  21.532  17.496   6.164
 4272POPC   C1A54987  21.363  17.525   6.464
 4272POPC   D2A54988  21.414  17.527   6.764
 4272POPC   C3A54989  21.383  17.553   7.064
 4272POPC   C4A54990  21.356  17.538   7.364
 4272POPC   C1B54991  21.653  17.552   6.464
 4272POPC   C2B54992  21.616  17.525   6.764
 4272POPC   C3B54993  21.610  17.528   7.064
 4272POPC   C4B54994  21.659  17.532   7.364
 4273POPC   NC354995  40.038  38.416   5.564
 4273POPC   PO454996  40.037  38.483   5.864
 4273POPC   GL154997  40.055  38.406   6.164
 4273POPC   GL254998  40.129  38.395   6.164
 4273POPC   C1A54999  40.042  38.462   6.464
 4273POPC   D2A55000  39.964  38.460   6.764
 4273POPC   C3A55001  39.974  38.415   7.064
 4273POPC   C4A55002  39.989  38.469   7.364
 4273POPC   C1B55003  40.200  38.326   6.464
 4273POPC   C2B55004  40.213  38.372   6.764
 4273POPC   C3B55005  40.242  38.342   7.064
 4273POPC   C4B55006  40.253  38.338   7.364
 4274POPC   NC355007  41.547  33.041   5.564
 4274POPC   PO455008  41.572  32.985   5.864
 4274POPC   GL155009  41.530  33.012   6.164
 4274POPC   GL255010  41.431  33.086   6.164
 4274POPC   C1A55011  41.575  33.045   6.464
 4274POPC   D2A55012  41.538  33.019   6.764
 4274POPC   C3A55013  41.535  33.007   7.064
 4274POPC   C4A55014  41.527  32.985   7.364
 4274POPC   C1B55015  41.282  33.113   6.464
 4274POPC   C2B55016  41.282  33.084   6.764
 4274POPC   C3B55017  41.365  33.063   7.064
 4274POPC   C4B55018  41.337  33.138   7.364
 4275POPC   NC355019  14.374  39.196   5.564
 4275POPC   PO455020  14.381  39.233   5.864
 4275POPC   GL155021  14.437  39.255   6.164
 4275POPC   GL255022  14.437  39.146   6.164
 4275POPC   C1A55023  14.447  39.229   6.464
 4275POPC   D2A55024  14.427  39.210   6.764
 4275POPC   C3A55025  14.360  39.277   7.064
 4275POPC   C4A55026  14.409  39.272   7.364
 4275POPC   C1B55027  14.528  38.965   6.464
 4275POPC   C2B55028  14.566  39.027   6.764
 4275POPC   C3B55029  14.487  39.056   7.064
 4275POPC   C4B55030  14.543  39.042   7.364
 4276POPC   NC355031  33.030  18.245   5.564
 4276POPC   PO455032  33.039  18.247   5.864
 4276POPC   GL155033  33.057  18.237   6.164
 4276POPC   GL255034  33.143  18.397   6.164
 4276POPC   C1A55035  33.051  18.285   6.464
 4276POPC   D2A55036  33.003  18.318   6.764
 4276POPC   C3A55037  32.991  18.235   7.064
 4276POPC   C4A55038  33.001  18.323   7.364
 4276POPC   C1B55039  33.227  18.395   6.464
 4276POPC   C2B55040  33.252  18.456   6.764
 4276POPC   C3B55041  33.229  18.387   7.064
 4276POPC   C4B55042  33.281  18.372   7.364
 4277POPC   NC355043   8.156  19.845   5.564
 4277POPC   PO455044   8.157  19.811   5.864
 4277POPC   GL155045   8.150  19.869   6.164
 4277POPC   GL255046   8.273  19.773   6.164
 4277POPC   C1A55047   8.150  19.791   6.464
 4277POPC   D2A55048   8.169  19.842   6.764
 4277POPC   C3A55049   8.173  19.785   7.064
 4277POPC   C4A55050   8.212  19.812   7.364
 4277POPC   C1B55051   8.381  19.712   6.464
 4277POPC   C2B55052   8.428  19.675   6.764
 4277POPC   C3B55053   8.422  19.662   7.064
 4277POPC   C4B55054   8.436  19.630   7.364
 4278POPC   NC355055  16.722  15.187   5.564
 4278POPC   PO455056  16.702  15.139   5.864
 4278POPC   GL155057  16.741  15.172   6.164
 4278POPC   GL255058  16.727  15.096   6.164
 4278POPC   C1A55059  16.779  15.220   6.464
 4278POPC   D2A55060  16.757  15.174   6.764
 4278POPC   C3A55061  16.711  15.211   7.064
 4278POPC   C4A55062  16.763  15.206   7.364
 4278POPC   C1B55063  16.758  14.980   6.464
 4278POPC   C2B55064  16.770  14.929   6.764
 4278POPC   C3B55065  16.741  14.921   7.064
 4278POPC   C4B55066  16.760  14.886   7.364
 4279POPC   NC355067  33.786  42.335   5.564
 4279POPC   PO455068  33.760  42.370   5.864
 4279POPC   GL155069  33.831  42.329   6.164
 4279POPC   GL255070  33.862  42.476   6.164
 4279POPC   C1A55071  33.809  42.381   6.464
 4279POPC   D2A55072  33.834  42.374   6.764
 4279POPC   C3A55073  33.767  42.367   7.064
 4279POPC   C4A55074  33.824  42.358   7.364
 4279POPC   C1B55075  33.816  42.624   6.464
 4279POPC   C2B55076  33.820  42.627   6.764
 4279POPC   C3B55077  33.882  42.624   7.064
 4279POPC   C4B55078  33.892  42.541   7.364
 4280POPC   NC355079   2.796   9.782   5.564
 4280POPC   PO455080   2.761   9.760   5.864
 4280POPC   GL155081   2.741   9.720   6.164
 4280POPC   GL255082   2.777   9.905   6.164
 4280POPC   C1A55083   2.740   9.771   6.464
 4280POPC   D2A55084   2.774   9.748   6.764
 4280POPC   C3A55085   2.757   9.703   7.064
 4280POPC   C4A55086   2.814   9.732   7.364
 4280POPC   C1B55087   2.695   9.944   6.464
 4280POPC   C2B55088   2.740   9.956   6.764
 4280POPC   C3B55089   2.709   9.955   7.064
 4280POPC   C4B55090   2.688   9.950   7.364
 4281POPC   NC355091   1.194  22.904   5.564
 4281POPC   PO455092   1.191  22.946   5.864
 4281POPC   GL155093   1.257  22.905   6.164
 4281POPC   GL255094   1.202  23.100   6.164
 4281POPC   C1A55095   1.216  22.928   6.464
 4281POPC   D2A55096   1.192  22.975   6.764
 4281POPC   C3A55097   1.172  22.981   7.064
 4281POPC   C4A55098   1.188  22.898   7.364
 4281POPC   C1B55099   1.120  23.149   6.464
 4281POPC   C2B55100   1.143  23.130   6.764
 4281POPC   C3B55101   1.107  23.139   7.064
 4281POPC   C4B55102   1.139  23.130   7.364
 4282POPC   NC355103  23.722  16.730   5.564
 4282POPC   PO455104  23.693  16.773   5.864
 4282POPC   GL155105  23.757  16.752   6.164
 4282POPC   GL255106  23.828  16.706   6.164
 4282POPC   C1A55107  23.684  16.704   6.464
 4282POPC   D2A55108  23.755  16.769   6.764
 4282POPC   C3A55109  23.720  16.707   7.064
 4282POPC   C4A55110  23.750  16.774   7.364
 4282POPC   C1B55111  23.908  16.669   6.464
 4282POPC   C2B55112  23.912  16.701   6.764
 4282POPC   C3B55113  23.959  16.619   7.064
 4282POPC   C4B55114  23.970  16.697   7.364
 4283POPC   NC355115  21.384  22.155   5.564
 4283POPC   PO455116  21.363  22.198   5.864
 4283POPC   GL155117  21.411  22.154   6.164
 4283POPC   GL255118  21.422  22.033   6.164
 4283POPC   C1A55119  21.371  22.176   6.464
 4283POPC   D2A55120  21.357  22.208   6.764
 4283POPC   C3A55121  21.359  22.118   7.064
 4283POPC   C4A55122  21.403  22.131   7.364
 4283POPC   C1B55123  21.503  21.948   6.464
 4283POPC   C2B55124  21.540  21.976   6.764
 4283POPC   C3B55125  21.508  21.960   7.064
 4283POPC   C4B55126  21.507  21.914   7.364
 4284POPC   NC355127  12.074  31.457   5.564
 4284POPC   PO455128  12.098  31.424   5.864
 4284POPC   GL155129  12.068  31.455   6.164
 4284POPC   GL255130  12.120  31.624   6.164
 4284POPC   C1A55131  12.109  31.520   6.464
 4284POPC   D2A55132  12.082  31.495   6.764
 4284POPC   C3A55133  12.029  31.518   7.064
 4284POPC   C4A55134  12.094  31.508   7.364
 4284POPC   C1B55135  12.058  31.723   6.464
 4284POPC   C2B55136  12.050  31.706   6.764
 4284POPC   C3B55137  12.122  31.742   7.064
 4284POPC   C4B55138  12.101  31.713   7.364
 4285POPC   NC355139  28.365  16.707   5.564
 4285POPC   PO455140  28.395  16.748   5.864
 4285POPC   GL155141  28.409  16.716   6.164
 4285POPC   GL255142  28.404  16.567   6.164
 4285POPC   C1A55143  28.322  16.729   6.464
 4285POPC   D2A55144  28.406  16.751   6.764
 4285POPC   C3A55145  28.321  16.694   7.064
 4285POPC   C4A55146  28.386  16.737   7.364
 4285POPC   C1B55147  28.420  16.504   6.464
 4285POPC   C2B55148  28.414  16.468   6.764
 4285POPC   C3B55149  28.395  16.499   7.064
 4285POPC   C4B55150  28.463  16.479   7.364
 4286POPC   NC355151  25.293  19.106   5.564
 4286POPC   PO455152  25.252  19.102   5.864
 4286POPC   GL155153  25.305  19.033   6.164
 4286POPC   GL255154  25.223  19.111   6.164
 4286POPC   C1A55155  25.270  19.048   6.464
 4286POPC   D2A55156  25.278  19.020   6.764
 4286POPC   C3A55157  25.231  19.018   7.064
 4286POPC   C4A55158  25.236  19.108   7.364
 4286POPC   C1B55159  25.101  19.212   6.464
 4286POPC   C2B55160  25.109  19.215   6.764
 4286POPC   C3B55161  25.080  19.212   7.064
 4286POPC   C4B55162  25.131  19.283   7.364
 4287POPC   NC355163   2.788  37.660   5.564
 4287POPC   PO455164   2.736  37.669   5.864
 4287POPC   GL155165   2.739  37.674   6.164
 4287POPC   GL255166   2.736  37.613   6.164
 4287POPC   C1A55167   2.779  37.662   6.464
 4287POPC   D2A55168   2.801  37.696   6.764
 4287POPC   C3A55169   2.727  37.641   7.064
 4287POPC   C4A55170   2.761  37.718   7.364
 4287POPC   C1B55171   2.639  37.506   6.464
 4287POPC   C2B55172   2.691  37.465   6.764
 4287POPC   C3B55173   2.685  37.439   7.064
 4287POPC   C4B55174   2.658  37.472   7.364
 4288POPC   NC355175  21.402  24.448   5.564
 4288POPC   PO455176  21.418  24.523   5.864
 4288POPC   GL155177  21.372  24.499   6.164
 4288POPC   GL255178  21.291  24.551   6.164
 4288POPC   C1A55179  21.368  24.529   6.464
 4288POPC   D2A55180  21.403  24.464   6.764
 4288POPC   C3A55181  21.422  24.474   7.064
 4288POPC   C4A55182  21.341  24.484   7.364
 4288POPC   C1B55183  21.300  24.678   6.464
 4288POPC   C2B55184  21.285  24.662   6.764
 4288POPC   C3B55185  21.248  24.744   7.064
 4288POPC   C4B55186  21.214  24.655   7.364
 4289POPC   NC355187   6.608  13.663   5.564
 4289POPC   PO455188   6.611  13.642   5.864
 4289POPC   GL155189   6.693  13.587   6.164
 4289POPC   GL255190   6.501  13.622   6.164
 4289POPC   C1A55191   6.623  13.675   6.464
 4289POPC   D2A55192   6.610  13.635   6.764
 4289POPC   C3A55193   6.627  13.631   7.064
 4289POPC   C4A55194   6.681  13.621   7.364
 4289POPC   C1B55195   6.365  13.588   6.464
 4289POPC   C2B55196   6.356  13.603   6.764
 4289POPC   C3B55197   6.384  13.620   7.064
 4289POPC   C4B55198   6.351  13.649   7.364
 4290POPC   NC355199   0.487  26.773   5.564
 4290POPC   PO455200   0.417  26.853   5.864
 4290POPC   GL155201   0.433  26.794   6.164
 4290POPC   GL255202   0.403  26.658   6.164
 4290POPC   C1A55203   0.477  26.819   6.464
 4290POPC   D2A55204   0.486  26.858   6.764
 4290POPC   C3A55205   0.454  26.769   7.064
 4290POPC   C4A55206   0.419  26.790   7.364
 4290POPC   C1B55207   0.336  26.560   6.464
 4290POPC   C2B55208   0.364  26.613   6.764
 4290POPC   C3B55209   0.409  26.583   7.064
 4290POPC   C4B55210   0.387  26.626   7.364
 4291POPC   NC355211  15.227  41.559   5.564
 4291POPC   PO455212  15.185  41.522   5.864
 4291POPC   GL155213  15.194  41.594   6.164
 4291POPC   GL255214  15.111  41.408   6.164
 4291POPC   C1A55215  15.158  41.583   6.464
 4291POPC   D2A55216  15.228  41.572   6.764
 4291POPC   C3A55217  15.212  41.510   7.064
 4291POPC   C4A55218  15.200  41.586   7.364
 4291POPC   C1B55219  15.145  41.271   6.464
 4291POPC   C2B55220  15.095  41.269   6.764
 4291POPC   C3B55221  15.176  41.346   7.064
 4291POPC   C4B55222  15.168  41.300   7.364
 4292POPC   NC355223   0.484  11.252   5.564
 4292POPC   PO455224   0.481  11.346   5.864
 4292POPC   GL155225   0.433  11.301   6.164
 4292POPC   GL255226   0.490  11.361   6.164
 4292POPC   C1A55227   0.445  11.332   6.464
 4292POPC   D2A55228   0.424  11.348   6.764
 4292POPC   C3A55229   0.428  11.342   7.064
 4292POPC   C4A55230   0.470  11.317   7.364
 4292POPC   C1B55231   0.602  11.478   6.464
 4292POPC   C2B55232   0.598  11.490   6.764
 4292POPC   C3B55233   0.555  11.540   7.064
 4292POPC   C4B55234   0.564  11.479   7.364
 4293POPC   NC355235   7.426  22.196   5.564
 4293POPC   PO455236   7.451  22.175   5.864
 4293POPC   GL155237   7.430  22.137   6.164
 4293POPC   GL255238   7.311  22.232   6.164
 4293POPC   C1A55239   7.427  22.169   6.464
 4293POPC   D2A55240   7.394  22.212   6.764
 4293POPC   C3A55241   7.461  22.166   7.064
 4293POPC   C4A55242   7.453  22.160   7.364
 4293POPC   C1B55243   7.174  22.324   6.464
 4293POPC   C2B55244   7.235  22.272   6.764
 4293POPC   C3B55245   7.231  22.272   7.064
 4293POPC   C4B55246   7.270  22.270   7.364
 4294POPC   NC355247  15.981  22.986   5.564
 4294POPC   PO455248  15.978  22.957   5.864
 4294POPC   GL155249  15.985  22.984   6.164
 4294POPC   GL255250  16.075  22.821   6.164
 4294POPC   C1A55251  15.997  22.909   6.464
 4294POPC   D2A55252  16.003  22.916   6.764
 4294POPC   C3A55253  15.980  22.936   7.064
 4294POPC   C4A55254  15.941  22.916   7.364
 4294POPC   C1B55255  16.102  22.738   6.464
 4294POPC   C2B55256  16.124  22.730   6.764
 4294POPC   C3B55257  16.108  22.737   7.064
 4294POPC   C4B55258  16.132  22.769   7.364
 4295POPC   NC355259  39.252  36.907   5.564
 4295POPC   PO455260  39.194  36.872   5.864
 4295POPC   GL155261  39.251  36.904   6.164
 4295POPC   GL255262  39.177  36.827   6.164
 4295POPC   C1A55263  39.186  36.936   6.464
 4295POPC   D2A55264  39.205  36.929   6.764
 4295POPC   C3A55265  39.202  36.925   7.064
 4295POPC   C4A55266  39.201  36.902   7.364
 4295POPC   C1B55267  39.138  36.615   6.464
 4295POPC   C2B55268  39.164  36.654   6.764
 4295POPC   C3B55269  39.172  36.687   7.064
 4295POPC   C4B55270  39.136  36.678   7.364
 4296POPC   NC355271  22.962  37.683   5.564
 4296POPC   PO455272  22.938  37.632   5.864
 4296POPC   GL155273  22.953  37.643   6.164
 4296POPC   GL255274  22.845  37.737   6.164
 4296POPC   C1A55275  22.894  37.667   6.464
 4296POPC   D2A55276  22.905  37.657   6.764
 4296POPC   C3A55277  22.978  37.718   7.064
 4296POPC   C4A55278  22.954  37.647   7.364
 4296POPC   C1B55279  22.789  37.845   6.464
 4296POPC   C2B55280  22.725  37.807   6.764
 4296POPC   C3B55281  22.787  37.850   7.064
 4296POPC   C4B55282  22.765  37.869   7.364
 4297POPC   NC355283  19.077   9.729   5.564
 4297POPC   PO455284  19.042   9.791   5.864
 4297POPC   GL155285  19.096   9.752   6.164
 4297POPC   GL255286  18.925   9.828   6.164
 4297POPC   C1A55287  19.029   9.735   6.464
 4297POPC   D2A55288  19.016   9.710   6.764
 4297POPC   C3A55289  19.099   9.706   7.064
 4297POPC   C4A55290  19.105   9.789   7.364
 4297POPC   C1B55291  18.819   9.945   6.464
 4297POPC   C2B55292  18.864   9.884   6.764
 4297POPC   C3B55293  18.858   9.922   7.064
 4297POPC   C4B55294  18.853   9.899   7.364
 4298POPC   NC355295  13.653   9.775   5.564
 4298POPC   PO455296  13.586   9.768   5.864
 4298POPC   GL155297  13.578   9.751   6.164
 4298POPC   GL255298  13.513   9.744   6.164
 4298POPC   C1A55299  13.656   9.751   6.464
 4298POPC   D2A55300  13.599   9.727   6.764
 4298POPC   C3A55301  13.632   9.783   7.064
 4298POPC   C4A55302  13.643   9.750   7.364
 4298POPC   C1B55303  13.392   9.717   6.464
 4298POPC   C2B55304  13.413   9.684   6.764
 4298POPC   C3B55305  13.354   9.692   7.064
 4298POPC   C4B55306  13.350   9.723   7.364
 4299POPC   NC355307   2.725  19.091   5.564
 4299POPC   PO455308   2.797  19.058   5.864
 4299POPC   GL155309   2.742  19.098   6.164
 4299POPC   GL255310   2.888  19.108   6.164
 4299POPC   C1A55311   2.790  19.051   6.464
 4299POPC   D2A55312   2.759  19.107   6.764
 4299POPC   C3A55313   2.798  19.047   7.064
 4299POPC   C4A55314   2.773  19.093   7.364
 4299POPC   C1B55315   2.895  19.254   6.464
 4299POPC   C2B55316   2.967  19.237   6.764
 4299POPC   C3B55317   2.955  19.293   7.064
 4299POPC   C4B55318   2.955  19.241   7.364
 4300POPC   NC355319   1.204  29.956   5.564
 4300POPC   PO455320   1.240  29.911   5.864
 4300POPC   GL155321   1.261  29.873   6.164
 4300POPC   GL255322   1.105  29.874   6.164
 4300POPC   C1A55323   1.243  29.897   6.464
 4300POPC   D2A55324   1.236  29.896   6.764
 4300POPC   C3A55325   1.229  29.899   7.064
 4300POPC   C4A55326   1.243  29.873   7.364
 4300POPC   C1B55327   1.044  29.814   6.464
 4300POPC   C2B55328   0.998  29.819   6.764
 4300POPC   C3B55329   0.971  29.802   7.064
 4300POPC   C4B55330   0.968  29.773   7.364
 4301POPC   NC355331  21.428  43.149   5.564
 4301POPC   PO455332  21.426  43.142   5.864
 4301POPC   GL155333  21.397  43.086   6.164
 4301POPC   GL255334  21.352  42.990   6.164
 4301POPC   C1A55335  21.336  43.085   6.464
 4301POPC   D2A55336  21.396  43.071   6.764
 4301POPC   C3A55337  21.366  43.069   7.064
 4301POPC   C4A55338  21.365  43.065   7.364
 4301POPC   C1B55339  21.449  42.823   6.464
 4301POPC   C2B55340  21.352  42.868   6.764
 4301POPC   C3B55341  21.403  42.855   7.064
 4301POPC   C4B55342  21.384  42.891   7.364
 4302POPC   NC355343   1.958  20.587   5.564
 4302POPC   PO455344   1.952  20.600   5.864
 4302POPC   GL155345   1.946  20.612   6.164
 4302POPC   GL255346   2.019  20.461   6.164
 4302POPC   C1A55347   2.011  20.591   6.464
 4302POPC   D2A55348   1.996  20.564   6.764
 4302POPC   C3A55349   2.001  20.561   7.064
 4302POPC   C4A55350   1.986  20.584   7.364
 4302POPC   C1B55351   2.017  20.347   6.464
 4302POPC   C2B55352   1.981  20.397   6.764
 4302POPC   C3B55353   2.024  20.356   7.064
 4302POPC   C4B55354   2.028  20.392   7.364
 4303POPC   NC355355  37.715  43.838   5.564
 4303POPC   PO455356  37.729  43.876   5.864
 4303POPC   GL155357  37.719  43.855   6.164
 4303POPC   GL255358  37.533  43.837   6.164
 4303POPC   C1A55359  37.664  43.910   6.464
 4303POPC   D2A55360  37.724  43.892   6.764
 4303POPC   C3A55361  37.643  43.874   7.064
 4303POPC   C4A55362  37.674  43.882   7.364
 4303POPC   C1B55363  37.428  43.815   6.464
 4303POPC   C2B55364  37.414  43.886   6.764
 4303POPC   C3B55365  37.411  43.824   7.064
 4303POPC   C4B55366  37.411  43.878   7.364
 4304POPC   NC355367  43.159  36.141   5.564
 4304POPC   PO455368  43.098  36.135   5.864
 4304POPC   GL155369  43.100  36.145   6.164
 4304POPC   GL255370  43.071  36.041   6.164
 4304POPC   C1A55371  43.087  36.118   6.464
 4304POPC   D2A55372  43.102  36.130   6.764
 4304POPC   C3A55373  43.071  36.085   7.064
 4304POPC   C4A55374  43.109  36.106   7.364
 4304POPC   C1B55375  43.018  35.928   6.464
 4304POPC   C2B55376  43.027  35.928   6.764
 4304POPC   C3B55377  43.034  35.866   7.064
 4304POPC   C4B55378  43.021  35.858   7.364
 4305POPC   NC355379  23.726   5.072   5.564
 4305POPC   PO455380  23.671   5.107   5.864
 4305POPC   GL155381  23.752   5.093   6.164
 4305POPC   GL255382  23.646   5.168   6.164
 4305POPC   C1A55383  23.755   5.133   6.464
 4305POPC   D2A55384  23.666   5.072   6.764
 4305POPC   C3A55385  23.713   5.116   7.064
 4305POPC   C4A55386  23.756   5.044   7.364
 4305POPC   C1B55387  23.499   5.263   6.464
 4305POPC   C2B55388  23.576   5.285   6.764
 4305POPC   C3B55389  23.525   5.275   7.064
 4305POPC   C4B55390  23.584   5.265   7.364
 4306POPC   NC355391  29.958  12.811   5.564
 4306POPC   PO455392  29.918  12.888   5.864
 4306POPC   GL155393  29.950  12.819   6.164
 4306POPC   GL255394  29.933  12.979   6.164
 4306POPC   C1A55395  29.957  12.890   6.464
 4306POPC   D2A55396  29.929  12.813   6.764
 4306POPC   C3A55397  29.932  12.878   7.064
 4306POPC   C4A55398  29.909  12.808   7.364
 4306POPC   C1B55399  30.002  13.065   6.464
 4306POPC   C2B55400  29.972  13.135   6.764
 4306POPC   C3B55401  29.973  13.095   7.064
 4306POPC   C4B55402  30.044  13.089   7.364
 4307POPC   NC355403  27.614  37.643   5.564
 4307POPC   PO455404  27.546  37.649   5.864
 4307POPC   GL155405  27.574  37.690   6.164
 4307POPC   GL255406  27.577  37.740   6.164
 4307POPC   C1A55407  27.548  37.706   6.464
 4307POPC   D2A55408  27.638  37.727   6.764
 4307POPC   C3A55409  27.578  37.637   7.064
 4307POPC   C4A55410  27.581  37.719   7.364
 4307POPC   C1B55411  27.446  37.935   6.464
 4307POPC   C2B55412  27.501  37.927   6.764
 4307POPC   C3B55413  27.471  37.915   7.064
 4307POPC   C4B55414  27.431  37.868   7.364
 4308POPC   NC355415  12.804  17.477   5.564
 4308POPC   PO455416  12.828  17.528   5.864
 4308POPC   GL155417  12.882  17.551   6.164
 4308POPC   GL255418  13.017  17.532   6.164
 4308POPC   C1A55419  12.860  17.495   6.464
 4308POPC   D2A55420  12.899  17.480   6.764
 4308POPC   C3A55421  12.862  17.492   7.064
 4308POPC   C4A55422  12.885  17.462   7.364
 4308POPC   C1B55423  13.137  17.580   6.464
 4308POPC   C2B55424  13.048  17.613   6.764
 4308POPC   C3B55425  13.086  17.568   7.064
 4308POPC   C4B55426  13.083  17.630   7.364
 4309POPC   NC355427  29.175   8.957   5.564
 4309POPC   PO455428  29.167   8.939   5.864
 4309POPC   GL155429  29.165   8.947   6.164
 4309POPC   GL255430  29.185   9.136   6.164
 4309POPC   C1A55431  29.112   8.968   6.464
 4309POPC   D2A55432  29.097   8.972   6.764
 4309POPC   C3A55433  29.132   9.021   7.064
 4309POPC   C4A55434  29.113   8.962   7.364
 4309POPC   C1B55435  29.216   9.174   6.464
 4309POPC   C2B55436  29.234   9.230   6.764
 4309POPC   C3B55437  29.184   9.206   7.064
 4309POPC   C4B55438  29.186   9.245   7.364
 4310POPC   NC355439   3.520  37.726   5.564
 4310POPC   PO455440   3.566  37.702   5.864
 4310POPC   GL155441   3.514  37.638   6.164
 4310POPC   GL255442   3.668  37.733   6.164
 4310POPC   C1A55443   3.499  37.674   6.464
 4310POPC   D2A55444   3.551  37.728   6.764
 4310POPC   C3A55445   3.562  37.696   7.064
 4310POPC   C4A55446   3.517  37.715   7.364
 4310POPC   C1B55447   3.814  37.774   6.464
 4310POPC   C2B55448   3.814  37.785   6.764
 4310POPC   C3B55449   3.733  37.778   7.064
 4310POPC   C4B55450   3.737  37.740   7.364
 4311POPC   NC355451  23.682  23.696   5.564
 4311POPC   PO455452  23.737  23.673   5.864
 4311POPC   GL155453  23.726  23.674   6.164
 4311POPC   GL255454  23.856  23.639   6.164
 4311POPC   C1A55455  23.734  23.746   6.464
 4311POPC   D2A55456  23.697  23.738   6.764
 4311POPC   C3A55457  23.711  23.759   7.064
 4311POPC   C4A55458  23.666  23.701   7.364
 4311POPC   C1B55459  23.932  23.600   6.464
 4311POPC   C2B55460  23.976  23.624   6.764
 4311POPC   C3B55461  23.885  23.572   7.064
 4311POPC   C4B55462  23.911  23.581   7.364
 4312POPC   NC355463   6.668  23.710   5.564
 4312POPC   PO455464   6.685  23.738   5.864
 4312POPC   GL155465   6.644  23.733   6.164
 4312POPC   GL255466   6.529  23.680   6.164
 4312POPC   C1A55467   6.672  23.715   6.464
 4312POPC   D2A55468   6.673  23.677   6.764
 4312POPC   C3A55469   6.661  23.734   7.064
 4312POPC   C4A55470   6.653  23.756   7.364
 4312POPC   C1B55471   6.419  23.556   6.464
 4312POPC   C2B55472   6.384  23.559   6.764
 4312POPC   C3B55473   6.394  23.571   7.064
 4312POPC   C4B55474   6.407  23.551   7.364
 4313POPC   NC355475  39.966   3.501   5.564
 4313POPC   PO455476  39.958   3.573   5.864
 4313POPC   GL155477  40.014   3.517   6.164
 4313POPC   GL255478  40.002   3.438   6.164
 4313POPC   C1A55479  39.969   3.494   6.464
 4313POPC   D2A55480  40.041   3.498   6.764
 4313POPC   C3A55481  39.985   3.511   7.064
 4313POPC   C4A55482  39.962   3.542   7.364
 4313POPC   C1B55483  39.899   3.334   6.464
 4313POPC   C2B55484  39.963   3.294   6.764
 4313POPC   C3B55485  39.940   3.260   7.064
 4313POPC   C4B55486  39.954   3.283   7.364
 4314POPC   NC355487  44.687  22.112   5.564
 4314POPC   PO455488  44.640  22.152   5.864
 4314POPC   GL155489  44.699  22.204   6.164
 4314POPC   GL255490  44.615  22.018   6.164
 4314POPC   C1A55491  44.627  22.184   6.464
 4314POPC   D2A55492  44.667  22.208   6.764
 4314POPC   C3A55493  44.687  22.160   7.064
 4314POPC   C4A55494  44.685  22.158   7.364
 4314POPC   C1B55495  44.477  21.980   6.464
 4314POPC   C2B55496  44.474  21.919   6.764
 4314POPC   C3B55497  44.550  21.917   7.064
 4314POPC   C4B55498  44.476  22.001   7.364
 4315POPC   NC355499  30.726  11.297   5.564
 4315POPC   PO455500  30.708  11.316   5.864
 4315POPC   GL155501  30.729  11.303   6.164
 4315POPC   GL255502  30.785  11.268   6.164
 4315POPC   C1A55503  30.651  11.254   6.464
 4315POPC   D2A55504  30.723  11.260   6.764
 4315POPC   C3A55505  30.655  11.344   7.064
 4315POPC   C4A55506  30.652  11.252   7.364
 4315POPC   C1B55507  30.904  11.288   6.464
 4315POPC   C2B55508  30.908  11.318   6.764
 4315POPC   C3B55509  30.949  11.240   7.064
 4315POPC   C4B55510  30.996  11.240   7.364
 4316POPC   NC355511   8.176  32.251   5.564
 4316POPC   PO455512   8.243  32.275   5.864
 4316POPC   GL155513   8.219  32.209   6.164
 4316POPC   GL255514   8.082  32.213   6.164
 4316POPC   C1A55515   8.207  32.292   6.464
 4316POPC   D2A55516   8.175  32.202   6.764
 4316POPC   C3A55517   8.184  32.260   7.064
 4316POPC   C4A55518   8.194  32.277   7.364
 4316POPC   C1B55519   7.939  32.185   6.464
 4316POPC   C2B55520   8.002  32.182   6.764
 4316POPC   C3B55521   7.983  32.169   7.064
 4316POPC   C4B55522   7.921  32.145   7.364
 4317POPC   NC355523  30.661   5.879   5.564
 4317POPC   PO455524  30.677   5.850   5.864
 4317POPC   GL155525  30.714   5.868   6.164
 4317POPC   GL255526  30.741   5.996   6.164
 4317POPC   C1A55527  30.729   5.825   6.464
 4317POPC   D2A55528  30.688   5.902   6.764
 4317POPC   C3A55529  30.729   5.903   7.064
 4317POPC   C4A55530  30.692   5.829   7.364
 4317POPC   C1B55531  30.817   6.098   6.464
 4317POPC   C2B55532  30.829   6.057   6.764
 4317POPC   C3B55533  30.857   6.119   7.064
 4317POPC   C4B55534  30.803   6.083   7.364
 4318POPC   NC355535  22.151  38.461   5.564
 4318POPC   PO455536  22.161  38.409   5.864
 4318POPC   GL155537  22.157  38.464   6.164
 4318POPC   GL255538  22.277  38.433   6.164
 4318POPC   C1A55539  22.127  38.452   6.464
 4318POPC   D2A55540  22.114  38.431   6.764
 4318POPC   C3A55541  22.163  38.470   7.064
 4318POPC   C4A55542  22.171  38.482   7.364
 4318POPC   C1B55543  22.441  38.461   6.464
 4318POPC   C2B55544  22.455  38.430   6.764
 4318POPC   C3B55545  22.417  38.449   7.064
 4318POPC   C4B55546  22.410  38.433   7.364
 4319POPC   NC355547  36.871  19.841   5.564
 4319POPC   PO455548  36.949  19.868   5.864
 4319POPC   GL155549  36.895  19.838   6.164
 4319POPC   GL255550  37.070  19.845   6.164
 4319POPC   C1A55551  36.890  19.816   6.464
 4319POPC   D2A55552  36.870  19.867   6.764
 4319POPC   C3A55553  36.947  19.868   7.064
 4319POPC   C4A55554  36.859  19.866   7.364
 4319POPC   C1B55555  37.168  19.785   6.464
 4319POPC   C2B55556  37.137  19.766   6.764
 4319POPC   C3B55557  37.133  19.826   7.064
 4319POPC   C4B55558  37.114  19.759   7.364
 4320POPC   NC355559  19.034  16.699   5.564
 4320POPC   PO455560  19.051  16.730   5.864
 4320POPC   GL155561  19.067  16.736   6.164
 4320POPC   GL255562  18.954  16.612   6.164
 4320POPC   C1A55563  19.029  16.713   6.464
 4320POPC   D2A55564  19.062  16.703   6.764
 4320POPC   C3A55565  19.089  16.748   7.064
 4320POPC   C4A55566  19.049  16.707   7.364
 4320POPC   C1B55567  18.918  16.504   6.464
 4320POPC   C2B55568  18.912  16.522   6.764
 4320POPC   C3B55569  18.857  16.561   7.064
 4320POPC   C4B55570  18.888  16.552   7.364
 4321POPC   NC355571  41.546  27.640   5.564
 4321POPC   PO455572  41.602  27.618   5.864
 4321POPC   GL155573  41.595  27.578   6.164
 4321POPC   GL255574  41.438  27.704   6.164
 4321POPC   C1A55575  41.555  27.605   6.464
 4321POPC   D2A55576  41.580  27.609   6.764
 4321POPC   C3A55577  41.529  27.593   7.064
 4321POPC   C4A55578  41.541  27.612   7.364
 4321POPC   C1B55579  41.334  27.730   6.464
 4321POPC   C2B55580  41.408  27.715   6.764
 4321POPC   C3B55581  41.318  27.719   7.064
 4321POPC   C4B55582  41.384  27.717   7.364
 4322POPC   NC355583  43.123   6.629   5.564
 4322POPC   PO455584  43.099   6.643   5.864
 4322POPC   GL155585  43.145   6.654   6.164
 4322POPC   GL255586  43.190   6.774   6.164
 4322POPC   C1A55587  43.126   6.635   6.464
 4322POPC   D2A55588  43.147   6.634   6.764
 4322POPC   C3A55589  43.108   6.645   7.064
 4322POPC   C4A55590  43.124   6.689   7.364
 4322POPC   C1B55591  43.267   6.898   6.464
 4322POPC   C2B55592  43.212   6.832   6.764
 4322POPC   C3B55593  43.278   6.876   7.064
 4322POPC   C4B55594  43.211   6.817   7.364
 4323POPC   NC355595  39.229  17.537   5.564
 4323POPC   PO455596  39.281  17.537   5.864
 4323POPC   GL155597  39.190  17.555   6.164
 4323POPC   GL255598  39.287  17.598   6.164
 4323POPC   C1A55599  39.183  17.493   6.464
 4323POPC   D2A55600  39.269  17.548   6.764
 4323POPC   C3A55601  39.198  17.497   7.064
 4323POPC   C4A55602  39.192  17.508   7.364
 4323POPC   C1B55603  39.326  17.722   6.464
 4323POPC   C2B55604  39.318  17.765   6.764
 4323POPC   C3B55605  39.365  17.687   7.064
 4323POPC   C4B55606  39.352  17.686   7.364
 4324POPC   NC355607  24.525  43.932   5.564
 4324POPC   PO455608  24.484  43.910   5.864
 4324POPC   GL155609  24.487  43.866   6.164
 4324POPC   GL255610  24.421  43.813   6.164
 4324POPC   C1A55611  24.466  43.852   6.464
 4324POPC   D2A55612  24.468  43.892   6.764
 4324POPC   C3A55613  24.512  43.879   7.064
 4324POPC   C4A55614  24.488  43.917   7.364
 4324POPC   C1B55615  24.206  43.761   6.464
 4324POPC   C2B55616  24.210  43.792   6.764
 4324POPC   C3B55617  24.290  43.842   7.064
 4324POPC   C4B55618  24.297  43.836   7.364
 4325POPC   NC355619  27.560  43.108   5.564
 4325POPC   PO455620  27.634  43.135   5.864
 4325POPC   GL155621  27.613  43.143   6.164
 4325POPC   GL255622  27.676  43.047   6.164
 4325POPC   C1A55623  27.630  43.086   6.464
 4325POPC   D2A55624  27.607  43.156   6.764
 4325POPC   C3A55625  27.617  43.096   7.064
 4325POPC   C4A55626  27.608  43.089   7.364
 4325POPC   C1B55627  27.764  42.991   6.464
 4325POPC   C2B55628  27.762  42.946   6.764
 4325POPC   C3B55629  27.800  42.912   7.064
 4325POPC   C4B55630  27.750  42.993   7.364
 4326POPC   NC355631  12.059  32.267   5.564
 4326POPC   PO455632  12.089  32.260   5.864
 4326POPC   GL155633  12.068  32.206   6.164
 4326POPC   GL255634  12.184  32.366   6.164
 4326POPC   C1A55635  12.073  32.204   6.464
 4326POPC   D2A55636  12.078  32.233   6.764
 4326POPC   C3A55637  12.045  32.255   7.064
 4326POPC   C4A55638  12.032  32.279   7.364
 4326POPC   C1B55639  12.224  32.436   6.464
 4326POPC   C2B55640  12.302  32.474   6.764
 4326POPC   C3B55641  12.294  32.426   7.064
 4326POPC   C4B55642  12.298  32.433   7.364
 4327POPC   NC355643  18.268  20.582   5.564
 4327POPC   PO455644  18.248  20.613   5.864
 4327POPC   GL155645  18.240  20.577   6.164
 4327POPC   GL255646  18.401  20.649   6.164
 4327POPC   C1A55647  18.237  20.571   6.464
 4327POPC   D2A55648  18.264  20.608   6.764
 4327POPC   C3A55649  18.243  20.624   7.064
 4327POPC   C4A55650  18.322  20.563   7.364
 4327POPC   C1B55651  18.501  20.646   6.464
 4327POPC   C2B55652  18.551  20.703   6.764
 4327POPC   C3B55653  18.487  20.713   7.064
 4327POPC   C4B55654  18.516  20.667   7.364
 4328POPC   NC355655  40.753   9.779   5.564
 4328POPC   PO455656  40.828   9.790   5.864
 4328POPC   GL155657  40.808   9.773   6.164
 4328POPC   GL255658  40.718   9.591   6.164
 4328POPC   C1A55659  40.734   9.749   6.464
 4328POPC   D2A55660  40.763   9.715   6.764
 4328POPC   C3A55661  40.747   9.744   7.064
 4328POPC   C4A55662  40.785   9.795   7.364
 4328POPC   C1B55663  40.682   9.504   6.464
 4328POPC   C2B55664  40.664   9.501   6.764
 4328POPC   C3B55665  40.684   9.494   7.064
 4328POPC   C4B55666  40.679   9.536   7.364
 4329POPC   NC355667  33.840  20.626   5.564
 4329POPC   PO455668  33.764  20.648   5.864
 4329POPC   GL155669  33.790  20.567   6.164
 4329POPC   GL255670  33.774  20.757   6.164
 4329POPC   C1A55671  33.823  20.630   6.464
 4329POPC   D2A55672  33.829  20.623   6.764
 4329POPC   C3A55673  33.770  20.637   7.064
 4329POPC   C4A55674  33.783  20.575   7.364
 4329POPC   C1B55675  33.658  20.836   6.464
 4329POPC   C2B55676  33.734  20.821   6.764
 4329POPC   C3B55677  33.679  20.826   7.064
 4329POPC   C4B55678  33.697  20.824   7.364
 4330POPC   NC355679   8.955  38.472   5.564
 4330POPC   PO455680   8.994  38.454   5.864
 4330POPC   GL155681   8.960  38.430   6.164
 4330POPC   GL255682   8.889  38.334   6.164
 4330POPC   C1A55683   8.951  38.464   6.464
 4330POPC   D2A55684   8.979  38.503   6.764
 4330POPC   C3A55685   8.984  38.480   7.064
 4330POPC   C4A55686   8.940  38.454   7.364
 4330POPC   C1B55687   8.757  38.314   6.464
 4330POPC   C2B55688   8.795  38.319   6.764
 4330POPC   C3B55689   8.808  38.280   7.064
 4330POPC   C4B55690   8.816  38.312   7.364
 4331POPC   NC355691  32.278  22.151   5.564
 4331POPC   PO455692  32.257  22.175   5.864
 4331POPC   GL155693  32.236  22.154   6.164
 4331POPC   GL255694  32.333  22.237   6.164
 4331POPC   C1A55695  32.202  22.177   6.464
 4331POPC   D2A55696  32.247  22.201   6.764
 4331POPC   C3A55697  32.200  22.129   7.064
 4331POPC   C4A55698  32.243  22.127   7.364
 4331POPC   C1B55699  32.507  22.254   6.464
 4331POPC   C2B55700  32.511  22.307   6.764
 4331POPC   C3B55701  32.479  22.334   7.064
 4331POPC   C4B55702  32.486  22.258   7.364
 4332POPC   NC355703  37.633  13.641   5.564
 4332POPC   PO455704  37.694  13.658   5.864
 4332POPC   GL155705  37.702  13.671   6.164
 4332POPC   GL255706  37.550  13.531   6.164
 4332POPC   C1A55707  37.651  13.639   6.464
 4332POPC   D2A55708  37.648  13.612   6.764
 4332POPC   C3A55709  37.654  13.638   7.064
 4332POPC   C4A55710  37.713  13.604   7.364
 4332POPC   C1B55711  37.445  13.528   6.464
 4332POPC   C2B55712  37.500  13.532   6.764
 4332POPC   C3B55713  37.434  13.549   7.064
 4332POPC   C4B55714  37.454  13.496   7.364
 4333POPC   NC355715  24.522  16.767   5.564
 4333POPC   PO455716  24.522  16.690   5.864
 4333POPC   GL155717  24.535  16.744   6.164
 4333POPC   GL255718  24.593  16.633   6.164
 4333POPC   C1A55719  24.531  16.707   6.464
 4333POPC   D2A55720  24.461  16.739   6.764
 4333POPC   C3A55721  24.479  16.691   7.064
 4333POPC   C4A55722  24.518  16.746   7.364
 4333POPC   C1B55723  24.648  16.603   6.464
 4333POPC   C2B55724  24.698  16.521   6.764
 4333POPC   C3B55725  24.650  16.553   7.064
 4333POPC   C4B55726  24.687  16.580   7.364
 4334POPC   NC355727  20.606  16.722   5.564
 4334POPC   PO455728  20.595  16.781   5.864
 4334POPC   GL155729  20.627  16.714   6.164
 4334POPC   GL255730  20.560  16.796   6.164
 4334POPC   C1A55731  20.570  16.728   6.464
 4334POPC   D2A55732  20.589  16.745   6.764
 4334POPC   C3A55733  20.652  16.729   7.064
 4334POPC   C4A55734  20.598  16.739   7.364
 4334POPC   C1B55735  20.447  16.929   6.464
 4334POPC   C2B55736  20.399  16.896   6.764
 4334POPC   C3B55737  20.393  16.868   7.064
 4334POPC   C4B55738  20.457  16.903   7.364
 4335POPC   NC355739  17.487  14.368   5.564
 4335POPC   PO455740  17.492  14.393   5.864
 4335POPC   GL155741  17.555  14.396   6.164
 4335POPC   GL255742  17.474  14.254   6.164
 4335POPC   C1A55743  17.472  14.405   6.464
 4335POPC   D2A55744  17.495  14.367   6.764
 4335POPC   C3A55745  17.521  14.421   7.064
 4335POPC   C4A55746  17.475  14.384   7.364
 4335POPC   C1B55747  17.486  14.171   6.464
 4335POPC   C2B55748  17.460  14.145   6.764
 4335POPC   C3B55749  17.484  14.199   7.064
 4335POPC   C4B55750  17.416  14.193   7.364
 4336POPC   NC355751   2.797   7.408   5.564
 4336POPC   PO455752   2.796   7.443   5.864
 4336POPC   GL155753   2.734   7.431   6.164
 4336POPC   GL255754   2.658   7.499   6.164
 4336POPC   C1A55755   2.738   7.373   6.464
 4336POPC   D2A55756   2.757   7.399   6.764
 4336POPC   C3A55757   2.749   7.379   7.064
 4336POPC   C4A55758   2.777   7.424   7.364
 4336POPC   C1B55759   2.563   7.557   6.464
 4336POPC   C2B55760   2.566   7.564   6.764
 4336POPC   C3B55761   2.569   7.533   7.064
 4336POPC   C4B55762   2.551   7.500   7.364
 4337POPC   NC355763  43.881  29.918   5.564
 4337POPC   PO455764  43.873  29.949   5.864
 4337POPC   GL155765  43.837  29.924   6.164
 4337POPC   GL255766  43.863  30.008   6.164
 4337POPC   C1A55767  43.925  29.955   6.464
 4337POPC   D2A55768  43.843  29.894   6.764
 4337POPC   C3A55769  43.925  29.900   7.064
 4337POPC   C4A55770  43.884  29.901   7.364
 4337POPC   C1B55771  43.832  30.124   6.464
 4337POPC   C2B55772  43.832  30.123   6.764
 4337POPC   C3B55773  43.799  30.182   7.064
 4337POPC   C4B55774  43.803  30.162   7.364
 4338POPC   NC355775  42.288   9.749   5.564
 4338POPC   PO455776  42.310   9.789   5.864
 4338POPC   GL155777  42.293   9.770   6.164
 4338POPC   GL255778  42.314   9.670   6.164
 4338POPC   C1A55779  42.299   9.740   6.464
 4338POPC   D2A55780  42.367   9.734   6.764
 4338POPC   C3A55781  42.339   9.792   7.064
 4338POPC   C4A55782  42.366   9.764   7.364
 4338POPC   C1B55783  42.371   9.544   6.464
 4338POPC   C2B55784  42.342   9.525   6.764
 4338POPC   C3B55785  42.312   9.503   7.064
 4338POPC   C4B55786  42.331   9.507   7.364
 4339POPC   NC355787   3.521  20.585   5.564
 4339POPC   PO455788   3.531  20.618   5.864
 4339POPC   GL155789   3.512  20.630   6.164
 4339POPC   GL255790   3.528  20.781   6.164
 4339POPC   C1A55791   3.539  20.646   6.464
 4339POPC   D2A55792   3.550  20.623   6.764
 4339POPC   C3A55793   3.551  20.651   7.064
 4339POPC   C4A55794   3.574  20.588   7.364
 4339POPC   C1B55795   3.638  20.879   6.464
 4339POPC   C2B55796   3.645  20.802   6.764
 4339POPC   C3B55797   3.633  20.897   7.064
 4339POPC   C4B55798   3.595  20.894   7.364
 4340POPC   NC355799  31.507  38.406   5.564
 4340POPC   PO455800  31.518  38.481   5.864
 4340POPC   GL155801  31.454  38.476   6.164
 4340POPC   GL255802  31.560  38.455   6.164
 4340POPC   C1A55803  31.498  38.492   6.464
 4340POPC   D2A55804  31.482  38.410   6.764
 4340POPC   C3A55805  31.482  38.427   7.064
 4340POPC   C4A55806  31.494  38.491   7.364
 4340POPC   C1B55807  31.695  38.552   6.464
 4340POPC   C2B55808  31.686  38.508   6.764
 4340POPC   C3B55809  31.735  38.520   7.064
 4340POPC   C4B55810  31.716  38.509   7.364
 4341POPC   NC355811  29.173  13.662   5.564
 4341POPC   PO455812  29.133  13.581   5.864
 4341POPC   GL155813  29.103  13.609   6.164
 4341POPC   GL255814  29.143  13.552   6.164
 4341POPC   C1A55815  29.134  13.670   6.464
 4341POPC   D2A55816  29.142  13.592   6.764
 4341POPC   C3A55817  29.110  13.673   7.064
 4341POPC   C4A55818  29.156  13.623   7.364
 4341POPC   C1B55819  29.148  13.424   6.464
 4341POPC   C2B55820  29.129  13.393   6.764
 4341POPC   C3B55821  29.130  13.353   7.064
 4341POPC   C4B55822  29.112  13.405   7.364
 4342POPC   NC355823  12.056  38.478   5.564
 4342POPC   PO455824  12.082  38.422   5.864
 4342POPC   GL155825  12.041  38.428   6.164
 4342POPC   GL255826  11.966  38.401   6.164
 4342POPC   C1A55827  12.081  38.448   6.464
 4342POPC   D2A55828  12.030  38.422   6.764
 4342POPC   C3A55829  12.055  38.504   7.064
 4342POPC   C4A55830  12.040  38.447   7.364
 4342POPC   C1B55831  11.876  38.360   6.464
 4342POPC   C2B55832  11.869  38.389   6.764
 4342POPC   C3B55833  11.879  38.334   7.064
 4342POPC   C4B55834  11.850  38.294   7.364
 4343POPC   NC355835   8.219  16.704   5.564
 4343POPC   PO455836   8.232  16.745   5.864
 4343POPC   GL155837   8.231  16.765   6.164
 4343POPC   GL255838   8.063  16.764   6.164
 4343POPC   C1A55839   8.186  16.702   6.464
 4343POPC   D2A55840   8.204  16.749   6.764
 4343POPC   C3A55841   8.178  16.778   7.064
 4343POPC   C4A55842   8.230  16.780   7.364
 4343POPC   C1B55843   7.976  16.733   6.464
 4343POPC   C2B55844   7.988  16.702   6.764
 4343POPC   C3B55845   7.942  16.708   7.064
 4343POPC   C4B55846   7.992  16.750   7.364
 4344POPC   NC355847  11.283  19.031   5.564
 4344POPC   PO455848  11.339  19.017   5.864
 4344POPC   GL155849  11.258  19.089   6.164
 4344POPC   GL255850  11.201  19.030   6.164
 4344POPC   C1A55851  11.250  19.016   6.464
 4344POPC   D2A55852  11.310  19.095   6.764
 4344POPC   C3A55853  11.327  19.060   7.064
 4344POPC   C4A55854  11.254  19.023   7.364
 4344POPC   C1B55855  11.107  18.923   6.464
 4344POPC   C2B55856  11.057  18.858   6.764
 4344POPC   C3B55857  11.085  18.943   7.064
 4344POPC   C4B55858  11.094  18.880   7.364
 4345POPC   NC355859  44.665   1.253   5.564
 4345POPC   PO455860  44.657   1.223   5.864
 4345POPC   GL155861  44.617   1.224   6.164
 4345POPC   GL255862  44.748   1.143   6.164
 4345POPC   C1A55863  44.677   1.176   6.464
 4345POPC   D2A55864  44.639   1.189   6.764
 4345POPC   C3A55865  44.685   1.195   7.064
 4345POPC   C4A55866  44.680   1.194   7.364
 4345POPC   C1B55867  44.949   1.171   6.464
 4345POPC   C2B55868  44.944   1.172   6.764
 4345POPC   C3B55869  44.932   1.158   7.064
 4345POPC   C4B55870  44.919   1.139   7.364
 4346POPC   NC355871   8.245  12.895   5.564
 4346POPC   PO455872   8.159  12.831   5.864
 4346POPC   GL155873   8.246  12.896   6.164
 4346POPC   GL255874   8.274  12.951   6.164
 4346POPC   C1A55875   8.193  12.867   6.464
 4346POPC   D2A55876   8.189  12.861   6.764
 4346POPC   C3A55877   8.188  12.817   7.064
 4346POPC   C4A55878   8.207  12.859   7.364
 4346POPC   C1B55879   8.404  12.984   6.464
 4346POPC   C2B55880   8.410  12.952   6.764
 4346POPC   C3B55881   8.393  12.957   7.064
 4346POPC   C4B55882   8.423  13.019   7.364
 4347POPC   NC355883  43.914  24.442   5.564
 4347POPC   PO455884  43.920  24.445   5.864
 4347POPC   GL155885  43.862  24.524   6.164
 4347POPC   GL255886  43.904  24.391   6.164
 4347POPC   C1A55887  43.850  24.501   6.464
 4347POPC   D2A55888  43.914  24.498   6.764
 4347POPC   C3A55889  43.921  24.534   7.064
 4347POPC   C4A55890  43.930  24.487   7.364
 4347POPC   C1B55891  43.972  24.234   6.464
 4347POPC   C2B55892  43.976  24.239   6.764
 4347POPC   C3B55893  43.968  24.274   7.064
 4347POPC   C4B55894  43.939  24.216   7.364
 4348POPC   NC355895   1.999  39.980   5.564
 4348POPC   PO455896   2.015  39.970   5.864
 4348POPC   GL155897   1.942  40.025   6.164
 4348POPC   GL255898   1.854  39.988   6.164
 4348POPC   C1A55899   1.977  39.995   6.464
 4348POPC   D2A55900   1.980  39.982   6.764
 4348POPC   C3A55901   2.004  40.057   7.064
 4348POPC   C4A55902   2.023  40.057   7.364
 4348POPC   C1B55903   1.787  40.021   6.464
 4348POPC   C2B55904   1.728  40.087   6.764
 4348POPC   C3B55905   1.763  40.008   7.064
 4348POPC   C4B55906   1.730  40.086   7.364
 4349POPC   NC355907  36.939  40.766   5.564
 4349POPC   PO455908  36.885  40.810   5.864
 4349POPC   GL155909  36.918  40.810   6.164
 4349POPC   GL255910  37.012  40.701   6.164
 4349POPC   C1A55911  36.891  40.786   6.464
 4349POPC   D2A55912  36.862  40.746   6.764
 4349POPC   C3A55913  36.885  40.803   7.064
 4349POPC   C4A55914  36.873  40.736   7.364
 4349POPC   C1B55915  37.020  40.608   6.464
 4349POPC   C2B55916  37.040  40.568   6.764
 4349POPC   C3B55917  37.060  40.613   7.064
 4349POPC   C4B55918  37.043  40.610   7.364
 4350POPC   NC355919  39.241  25.302   5.564
 4350POPC   PO455920  39.222  25.258   5.864
 4350POPC   GL155921  39.206  25.244   6.164
 4350POPC   GL255922  39.392  25.241   6.164
 4350POPC   C1A55923  39.253  25.299   6.464
 4350POPC   D2A55924  39.196  25.269   6.764
 4350POPC   C3A55925  39.263  25.232   7.064
 4350POPC   C4A55926  39.236  25.275   7.364
 4350POPC   C1B55927  39.471  25.251   6.464
 4350POPC   C2B55928  39.451  25.274   6.764
 4350POPC   C3B55929  39.477  25.237   7.064
 4350POPC   C4B55930  39.435  25.287   7.364
 4351POPC   NC355931   7.454  31.430   5.564
 4351POPC   PO455932   7.445  31.434   5.864
 4351POPC   GL155933   7.409  31.441   6.164
 4351POPC   GL255934   7.326  31.438   6.164
 4351POPC   C1A55935   7.420  31.488   6.464
 4351POPC   D2A55936   7.470  31.501   6.764
 4351POPC   C3A55937   7.373  31.497   7.064
 4351POPC   C4A55938   7.408  31.452   7.364
 4351POPC   C1B55939   7.163  31.475   6.464
 4351POPC   C2B55940   7.187  31.417   6.764
 4351POPC   C3B55941   7.160  31.457   7.064
 4351POPC   C4B55942   7.152  31.484   7.364
 4352POPC   NC355943  24.527  26.043   5.564
 4352POPC   PO455944  24.523  26.047   5.864
 4352POPC   GL155945  24.466  26.005   6.164
 4352POPC   GL255946  24.524  26.180   6.164
 4352POPC   C1A55947  24.451  26.022   6.464
 4352POPC   D2A55948  24.449  26.053   6.764
 4352POPC   C3A55949  24.479  26.020   7.064
 4352POPC   C4A55950  24.453  26.002   7.364
 4352POPC   C1B55951  24.606  26.269   6.464
 4352POPC   C2B55952  24.641  26.217   6.764
 4352POPC   C3B55953  24.565  26.276   7.064
 4352POPC   C4B55954  24.619  26.224   7.364
 4353POPC   NC355955   1.172  10.509   5.564
 4353POPC   PO455956   1.257  10.495   5.864
 4353POPC   GL155957   1.206  10.548   6.164
 4353POPC   GL255958   1.184  10.406   6.164
 4353POPC   C1A55959   1.250  10.510   6.464
 4353POPC   D2A55960   1.210  10.564   6.764
 4353POPC   C3A55961   1.214  10.504   7.064
 4353POPC   C4A55962   1.215  10.531   7.364
 4353POPC   C1B55963   1.200  10.312   6.464
 4353POPC   C2B55964   1.162  10.268   6.764
 4353POPC   C3B55965   1.149  10.308   7.064
 4353POPC   C4B55966   1.146  10.238   7.364
 4354POPC   NC355967  44.635  13.592   5.564
 4354POPC   PO455968  44.657  13.644   5.864
 4354POPC   GL155969  44.651  13.668   6.164
 4354POPC   GL255970  44.660  13.463   6.164
 4354POPC   C1A55971  44.702  13.624   6.464
 4354POPC   D2A55972  44.635  13.608   6.764
 4354POPC   C3A55973  44.704  13.580   7.064
 4354POPC   C4A55974  44.661  13.588   7.364
 4354POPC   C1B55975  44.731  13.367   6.464
 4354POPC   C2B55976  44.713  13.391   6.764
 4354POPC   C3B55977  44.718  13.401   7.064
 4354POPC   C4B55978  44.721  13.422   7.364
 4355POPC   NC355979  22.204  15.970   5.564
 4355POPC   PO455980  22.202  15.943   5.864
 4355POPC   GL155981  22.166  15.919   6.164
 4355POPC   GL255982  22.051  15.986   6.164
 4355POPC   C1A55983  22.211  15.949   6.464
 4355POPC   D2A55984  22.193  16.002   6.764
 4355POPC   C3A55985  22.164  15.953   7.064
 4355POPC   C4A55986  22.143  15.953   7.364
 4355POPC   C1B55987  21.995  16.076   6.464
 4355POPC   C2B55988  21.912  16.127   6.764
 4355POPC   C3B55989  21.964  16.058   7.064
 4355POPC   C4B55990  21.919  16.044   7.364
 4356POPC   NC355991  35.337  22.119   5.564
 4356POPC   PO455992  35.311  22.131   5.864
 4356POPC   GL155993  35.314  22.147   6.164
 4356POPC   GL255994  35.308  22.047   6.164
 4356POPC   C1A55995  35.388  22.169   6.464
 4356POPC   D2A55996  35.369  22.162   6.764
 4356POPC   C3A55997  35.305  22.135   7.064
 4356POPC   C4A55998  35.344  22.127   7.364
 4356POPC   C1B55999  35.388  21.878   6.464
 4356POPC   C2B56000  35.294  21.899   6.764
 4356POPC   C3B56001  35.310  21.899   7.064
 4356POPC   C4B56002  35.362  21.913   7.364
 4357POPC   NC356003  23.762   0.393   5.564
 4357POPC   PO456004  23.742   0.451   5.864
 4357POPC   GL156005  23.740   0.482   6.164
 4357POPC   GL256006  23.777   0.611   6.164
 4357POPC   C1A56007  23.691   0.414   6.464
 4357POPC   D2A56008  23.665   0.432   6.764
 4357POPC   C3A56009  23.734   0.482   7.064
 4357POPC   C4A56010  23.748   0.413   7.364
 4357POPC   C1B56011  23.766   0.672   6.464
 4357POPC   C2B56012  23.747   0.722   6.764
 4357POPC   C3B56013  23.756   0.697   7.064
 4357POPC   C4B56014  23.802   0.655   7.364
 4358POPC   NC356015  44.703  15.220   5.564
 4358POPC   PO456016  44.618  15.162   5.864
 4358POPC   GL156017  44.696  15.136   6.164
 4358POPC   GL256018  44.750  15.196   6.164
 4358POPC   C1A56019  44.644  15.153   6.464
 4358POPC   D2A56020  44.641  15.171   6.764
 4358POPC   C3A56021  44.682  15.224   7.064
 4358POPC   C4A56022  44.687  15.215   7.364
 4358POPC   C1B56023  44.857  15.273   6.464
 4358POPC   C2B56024  44.903  15.303   6.764
 4358POPC   C3B56025  44.928  15.240   7.064
 4358POPC   C4B56026  44.910  15.289   7.364
 4359POPC   NC356027  25.313  34.598   5.564
 4359POPC   PO456028  25.309  34.582   5.864
 4359POPC   GL156029  25.231  34.557   6.164
 4359POPC   GL256030  25.273  34.442   6.164
 4359POPC   C1A56031  25.314  34.542   6.464
 4359POPC   D2A56032  25.313  34.601   6.764
 4359POPC   C3A56033  25.219  34.605   7.064
 4359POPC   C4A56034  25.299  34.544   7.364
 4359POPC   C1B56035  25.241  34.320   6.464
 4359POPC   C2B56036  25.154  34.342   6.764
 4359POPC   C3B56037  25.189  34.363   7.064
 4359POPC   C4B56038  25.238  34.359   7.364
 4360POPC   NC356039  28.390  34.532   5.564
 4360POPC   PO456040  28.356  34.527   5.864
 4360POPC   GL156041  28.328  34.542   6.164
 4360POPC   GL256042  28.461  34.509   6.164
 4360POPC   C1A56043  28.340  34.563   6.464
 4360POPC   D2A56044  28.355  34.591   6.764
 4360POPC   C3A56045  28.325  34.610   7.064
 4360POPC   C4A56046  28.409  34.557   7.364
 4360POPC   C1B56047  28.459  34.309   6.464
 4360POPC   C2B56048  28.450  34.392   6.764
 4360POPC   C3B56049  28.484  34.343   7.064
 4360POPC   C4B56050  28.477  34.394   7.364
 4361POPC   NC356051  42.362  12.816   5.564
 4361POPC   PO456052  42.349  12.898   5.864
 4361POPC   GL156053  42.297  12.807   6.164
 4361POPC   GL256054  42.424  12.894   6.164
 4361POPC   C1A56055  42.373  12.806   6.464
 4361POPC   D2A56056  42.310  12.892   6.764
 4361POPC   C3A56057  42.300  12.854   7.064
 4361POPC   C4A56058  42.319  12.841   7.364
 4361POPC   C1B56059  42.616  12.852   6.464
 4361POPC   C2B56060  42.573  12.877   6.764
 4361POPC   C3B56061  42.560  12.882   7.064
 4361POPC   C4B56062  42.567  12.890   7.364
 4362POPC   NC356063  35.392  43.079   5.564
 4362POPC   PO456064  35.378  43.074   5.864
 4362POPC   GL156065  35.333  43.122   6.164
 4362POPC   GL256066  35.372  42.980   6.164
 4362POPC   C1A56067  35.379  43.085   6.464
 4362POPC   D2A56068  35.388  43.111   6.764
 4362POPC   C3A56069  35.384  43.111   7.064
 4362POPC   C4A56070  35.321  43.102   7.364
 4362POPC   C1B56071  35.339  42.896   6.464
 4362POPC   C2B56072  35.358  42.839   6.764
 4362POPC   C3B56073  35.327  42.835   7.064
 4362POPC   C4B56074  35.291  42.823   7.364
 4363POPC   NC356075  33.061   1.971   5.564
 4363POPC   PO456076  32.994   1.947   5.864
 4363POPC   GL156077  33.006   2.004   6.164
 4363POPC   GL256078  33.092   1.890   6.164
 4363POPC   C1A56079  33.065   1.981   6.464
 4363POPC   D2A56080  33.067   1.947   6.764
 4363POPC   C3A56081  33.022   1.967   7.064
 4363POPC   C4A56082  33.019   1.949   7.364
 4363POPC   C1B56083  33.069   1.714   6.464
 4363POPC   C2B56084  33.110   1.720   6.764
 4363POPC   C3B56085  33.081   1.776   7.064
 4363POPC   C4B56086  33.123   1.763   7.364
 4364POPC   NC356087  31.430  16.753   5.564
 4364POPC   PO456088  31.464  16.760   5.864
 4364POPC   GL156089  31.513  16.714   6.164
 4364POPC   GL256090  31.537  16.841   6.164
 4364POPC   C1A56091  31.518  16.746   6.464
 4364POPC   D2A56092  31.513  16.696   6.764
 4364POPC   C3A56093  31.510  16.779   7.064
 4364POPC   C4A56094  31.504  16.767   7.364
 4364POPC   C1B56095  31.675  16.926   6.464
 4364POPC   C2B56096  31.648  16.901   6.764
 4364POPC   C3B56097  31.683  16.933   7.064
 4364POPC   C4B56098  31.652  16.912   7.364
 4365POPC   NC356099  34.555  36.083   5.564
 4365POPC   PO456100  34.567  36.114   5.864
 4365POPC   GL156101  34.527  36.103   6.164
 4365POPC   GL256102  34.639  35.997   6.164
 4365POPC   C1A56103  34.619  36.101   6.464
 4365POPC   D2A56104  34.584  36.080   6.764
 4365POPC   C3A56105  34.548  36.089   7.064
 4365POPC   C4A56106  34.545  36.079   7.364
 4365POPC   C1B56107  34.724  35.914   6.464
 4365POPC   C2B56108  34.732  35.940   6.764
 4365POPC   C3B56109  34.740  35.904   7.064
 4365POPC   C4B56110  34.745  35.884   7.364
 4366POPC   NC356111   7.388  15.929   5.564
 4366POPC   PO456112   7.457  15.989   5.864
 4366POPC   GL156113   7.393  15.940   6.164
 4366POPC   GL256114   7.308  15.969   6.164
 4366POPC   C1A56115   7.435  15.997   6.464
 4366POPC   D2A56116   7.467  15.991   6.764
 4366POPC   C3A56117   7.426  15.929   7.064
 4366POPC   C4A56118   7.460  15.996   7.364
 4366POPC   C1B56119   7.204  16.060   6.464
 4366POPC   C2B56120   7.172  16.045   6.764
 4366POPC   C3B56121   7.135  15.982   7.064
 4366POPC   C4B56122   7.136  16.003   7.364
 4367POPC   NC356123  13.578   7.462   5.564
 4367POPC   PO456124  13.598   7.404   5.864
 4367POPC   GL156125  13.587   7.378   6.164
 4367POPC   GL256126  13.627   7.317   6.164
 4367POPC   C1A56127  13.649   7.406   6.464
 4367POPC   D2A56128  13.674   7.429   6.764
 4367POPC   C3A56129  13.610   7.436   7.064
 4367POPC   C4A56130  13.631   7.460   7.364
 4367POPC   C1B56131  13.664   7.124   6.464
 4367POPC   C2B56132  13.636   7.161   6.764
 4367POPC   C3B56133  13.649   7.201   7.064
 4367POPC   C4B56134  13.631   7.175   7.364
 4368POPC   NC356135  44.708   6.648   5.564
 4368POPC   PO456136  44.676   6.666   5.864
 4368POPC   GL156137  44.682   6.604   6.164
 4368POPC   GL256138  44.640   6.561   6.164
 4368POPC   C1A56139  44.678   6.653   6.464
 4368POPC   D2A56140  44.683   6.619   6.764
 4368POPC   C3A56141  44.673   6.686   7.064
 4368POPC   C4A56142  44.624   6.598   7.364
 4368POPC   C1B56143  44.517   6.393   6.464
 4368POPC   C2B56144  44.496   6.433   6.764
 4368POPC   C3B56145  44.555   6.417   7.064
 4368POPC   C4B56146  44.566   6.470   7.364
 4369POPC   NC356147  31.429   7.468   5.564
 4369POPC   PO456148  31.424   7.392   5.864
 4369POPC   GL156149  31.499   7.388   6.164
 4369POPC   GL256150  31.413   7.309   6.164
 4369POPC   C1A56151  31.446   7.436   6.464
 4369POPC   D2A56152  31.426   7.434   6.764
 4369POPC   C3A56153  31.447   7.463   7.064
 4369POPC   C4A56154  31.483   7.377   7.364
 4369POPC   C1B56155  31.330   7.192   6.464
 4369POPC   C2B56156  31.326   7.238   6.764
 4369POPC   C3B56157  31.308   7.231   7.064
 4369POPC   C4B56158  31.362   7.177   7.364
 4370POPC   NC356159  37.711  25.267   5.564
 4370POPC   PO456160  37.683  25.246   5.864
 4370POPC   GL156161  37.724  25.280   6.164
 4370POPC   GL256162  37.829  25.260   6.164
 4370POPC   C1A56163  37.654  25.245   6.464
 4370POPC   D2A56164  37.721  25.312   6.764
 4370POPC   C3A56165  37.704  25.287   7.064
 4370POPC   C4A56166  37.647  25.282   7.364
 4370POPC   C1B56167  37.865  25.207   6.464
 4370POPC   C2B56168  37.867  25.146   6.764
 4370POPC   C3B56169  37.865  25.187   7.064
 4370POPC   C4B56170  37.877  25.184   7.364
 4371POPC   NC356171  24.494  12.818   5.564
 4371POPC   PO456172  24.463  12.831   5.864
 4371POPC   GL156173  24.452  12.810   6.164
 4371POPC   GL256174  24.560  12.943   6.164
 4371POPC   C1A56175  24.499  12.874   6.464
 4371POPC   D2A56176  24.492  12.866   6.764
 4371POPC   C3A56177  24.521  12.883   7.064
 4371POPC   C4A56178  24.504  12.843   7.364
 4371POPC   C1B56179  24.612  13.031   6.464
 4371POPC   C2B56180  24.628  13.084   6.764
 4371POPC   C3B56181  24.638  13.053   7.064
 4371POPC   C4B56182  24.656  13.038   7.364
 4372POPC   NC356183  19.801  22.179   5.564
 4372POPC   PO456184  19.828  22.114   5.864
 4372POPC   GL156185  19.833  22.157   6.164
 4372POPC   GL256186  19.934  22.234   6.164
 4372POPC   C1A56187  19.813  22.165   6.464
 4372POPC   D2A56188  19.797  22.178   6.764
 4372POPC   C3A56189  19.854  22.182   7.064
 4372POPC   C4A56190  19.854  22.169   7.364
 4372POPC   C1B56191  20.050  22.297   6.464
 4372POPC   C2B56192  20.097  22.305   6.764
 4372POPC   C3B56193  20.077  22.234   7.064
 4372POPC   C4B56194  20.019  22.247   7.364
 4373POPC   NC356195  15.951  15.203   5.564
 4373POPC   PO456196  15.910  15.182   5.864
 4373POPC   GL156197  15.983  15.177   6.164
 4373POPC   GL256198  15.998  15.305   6.164
 4373POPC   C1A56199  15.978  15.133   6.464
 4373POPC   D2A56200  15.908  15.200   6.764
 4373POPC   C3A56201  15.972  15.145   7.064
 4373POPC   C4A56202  15.943  15.204   7.364
 4373POPC   C1B56203  16.081  15.398   6.464
 4373POPC   C2B56204  16.053  15.440   6.764
 4373POPC   C3B56205  16.061  15.424   7.064
 4373POPC   C4B56206  16.088  15.407   7.364
 4374POPC   NC356207  38.505  11.340   5.564
 4374POPC   PO456208  38.475  11.278   5.864
 4374POPC   GL156209  38.472  11.339   6.164
 4374POPC   GL256210  38.394  11.261   6.164
 4374POPC   C1A56211  38.416  11.263   6.464
 4374POPC   D2A56212  38.415  11.288   6.764
 4374POPC   C3A56213  38.431  11.312   7.064
 4374POPC   C4A56214  38.424  11.311   7.364
 4374POPC   C1B56215  38.324  11.096   6.464
 4374POPC   C2B56216  38.300  11.085   6.764
 4374POPC   C3B56217  38.262  11.163   7.064
 4374POPC   C4B56218  38.307  11.112   7.364
 4375POPC   NC356219   5.900  40.008   5.564
 4375POPC   PO456220   5.841  39.961   5.864
 4375POPC   GL156221   5.910  39.978   6.164
 4375POPC   GL256222   5.944  40.108   6.164
 4375POPC   C1A56223   5.902  39.983   6.464
 4375POPC   D2A56224   5.912  39.972   6.764
 4375POPC   C3A56225   5.847  40.003   7.064
 4375POPC   C4A56226   5.874  40.052   7.364
 4375POPC   C1B56227   5.952  40.174   6.464
 4375POPC   C2B56228   6.012  40.186   6.764
 4375POPC   C3B56229   5.958  40.224   7.064
 4375POPC   C4B56230   6.005  40.242   7.364
 4376POPC   NC356231  23.670  15.156   5.564
 4376POPC   PO456232  23.756  15.184   5.864
 4376POPC   GL156233  23.665  15.162   6.164
 4376POPC   GL256234  23.743  15.050   6.164
 4376POPC   C1A56235  23.722  15.219   6.464
 4376POPC   D2A56236  23.700  15.131   6.764
 4376POPC   C3A56237  23.686  15.216   7.064
 4376POPC   C4A56238  23.745  15.155   7.364
 4376POPC   C1B56239  23.788  14.944   6.464
 4376POPC   C2B56240  23.806  14.907   6.764
 4376POPC   C3B56241  23.854  14.996   7.064
 4376POPC   C4B56242  23.838  14.956   7.364
 4377POPC   NC356243  21.338   3.569   5.564
 4377POPC   PO456244  21.354   3.565   5.864
 4377POPC   GL156245  21.418   3.507   6.164
 4377POPC   GL256246  21.370   3.682   6.164
 4377POPC   C1A56247  21.419   3.540   6.464
 4377POPC   D2A56248  21.350   3.527   6.764
 4377POPC   C3A56249  21.366   3.568   7.064
 4377POPC   C4A56250  21.369   3.566   7.364
 4377POPC   C1B56251  21.418   3.758   6.464
 4377POPC   C2B56252  21.471   3.753   6.764
 4377POPC   C3B56253  21.447   3.780   7.064
 4377POPC   C4B56254  21.483   3.740   7.364
 4378POPC   NC356255   7.462   5.875   5.564
 4378POPC   PO456256   7.466   5.909   5.864
 4378POPC   GL156257   7.419   5.870   6.164
 4378POPC   GL256258   7.470   5.946   6.164
 4378POPC   C1A56259   7.397   5.881   6.464
 4378POPC   D2A56260   7.381   5.904   6.764
 4378POPC   C3A56261   7.465   5.837   7.064
 4378POPC   C4A56262   7.467   5.831   7.364
 4378POPC   C1B56263   7.461   6.080   6.464
 4378POPC   C2B56264   7.467   6.139   6.764
 4378POPC   C3B56265   7.402   6.155   7.064
 4378POPC   C4B56266   7.397   6.160   7.364
 4379POPC   NC356267  31.444   8.938   5.564
 4379POPC   PO456268  31.515   8.945   5.864
 4379POPC   GL156269  31.433   8.941   6.164
 4379POPC   GL256270  31.446   9.080   6.164
 4379POPC   C1A56271  31.501   8.980   6.464
 4379POPC   D2A56272  31.475   8.980   6.764
 4379POPC   C3A56273  31.518   9.015   7.064
 4379POPC   C4A56274  31.494   8.994   7.364
 4379POPC   C1B56275  31.368   9.221   6.464
 4379POPC   C2B56276  31.319   9.221   6.764
 4379POPC   C3B56277  31.295   9.157   7.064
 4379POPC   C4B56278  31.369   9.131   7.364
 4380POPC   NC356279  43.893  25.300   5.564
 4380POPC   PO456280  43.847  25.224   5.864
 4380POPC   GL156281  43.936  25.231   6.164
 4380POPC   GL256282  43.979  25.336   6.164
 4380POPC   C1A56283  43.885  25.300   6.464
 4380POPC   D2A56284  43.842  25.271   6.764
 4380POPC   C3A56285  43.925  25.256   7.064
 4380POPC   C4A56286  43.868  25.245   7.364
 4380POPC   C1B56287  44.122  25.421   6.464
 4380POPC   C2B56288  44.135  25.423   6.764
 4380POPC   C3B56289  44.100  25.386   7.064
 4380POPC   C4B56290  44.126  25.423   7.364
 4381POPC   NC356291  27.552   1.981   5.564
 4381POPC   PO456292  27.579   2.033   5.864
 4381POPC   GL156293  27.550   2.015   6.164
 4381POPC   GL256294  27.491   2.096   6.164
 4381POPC   C1A56295  27.567   2.025   6.464
 4381POPC   D2A56296  27.566   2.021   6.764
 4381POPC   C3A56297  27.637   1.967   7.064
 4381POPC   C4A56298  27.604   1.948   7.364
 4381POPC   C1B56299  27.442   2.153   6.464
 4381POPC   C2B56300  27.371   2.132   6.764
 4381POPC   C3B56301  27.388   2.215   7.064
 4381POPC   C4B56302  27.421   2.133   7.364
 4382POPC   NC356303  36.086  18.237   5.564
 4382POPC   PO456304  36.177  18.250   5.864
 4382POPC   GL156305  36.157  18.248   6.164
 4382POPC   GL256306  36.118  18.169   6.164
 4382POPC   C1A56307  36.106  18.317   6.464
 4382POPC   D2A56308  36.087  18.317   6.764
 4382POPC   C3A56309  36.174  18.240   7.064
 4382POPC   C4A56310  36.103  18.250   7.364
 4382POPC   C1B56311  36.168  18.061   6.464
 4382POPC   C2B56312  36.145  17.992   6.764
 4382POPC   C3B56313  36.182  18.001   7.064
 4382POPC   C4B56314  36.209  18.078   7.364
 4383POPC   NC356315  13.643  14.364   5.564
 4383POPC   PO456316  13.644  14.447   5.864
 4383POPC   GL156317  13.677  14.414   6.164
 4383POPC   GL256318  13.556  14.300   6.164
 4383POPC   C1A56319  13.655  14.453   6.464
 4383POPC   D2A56320  13.632  14.428   6.764
 4383POPC   C3A56321  13.584  14.449   7.064
 4383POPC   C4A56322  13.652  14.444   7.364
 4383POPC   C1B56323  13.434  14.276   6.464
 4383POPC   C2B56324  13.465  14.206   6.764
 4383POPC   C3B56325  13.423  14.184   7.064
 4383POPC   C4B56326  13.468  14.256   7.364
 4384POPC   NC356327  26.839  34.567   5.564
 4384POPC   PO456328  26.860  34.604   5.864
 4384POPC   GL156329  26.863  34.538   6.164
 4384POPC   GL256330  26.731  34.667   6.164
 4384POPC   C1A56331  26.806  34.545   6.464
 4384POPC   D2A56332  26.833  34.599   6.764
 4384POPC   C3A56333  26.853  34.589   7.064
 4384POPC   C4A56334  26.846  34.617   7.364
 4384POPC   C1B56335  26.632  34.720   6.464
 4384POPC   C2B56336  26.621  34.767   6.764
 4384POPC   C3B56337  26.608  34.743   7.064
 4384POPC   C4B56338  26.660  34.797   7.364
 4385POPC   NC356339  12.896   9.766   5.564
 4385POPC   PO456340  12.880   9.779   5.864
 4385POPC   GL156341  12.856   9.700   6.164
 4385POPC   GL256342  12.767   9.901   6.164
 4385POPC   C1A56343  12.851   9.723   6.464
 4385POPC   D2A56344  12.894   9.714   6.764
 4385POPC   C3A56345  12.888   9.701   7.064
 4385POPC   C4A56346  12.889   9.704   7.364
 4385POPC   C1B56347  12.683   9.969   6.464
 4385POPC   C2B56348  12.689   9.927   6.764
 4385POPC   C3B56349  12.717   9.941   7.064
 4385POPC   C4B56350  12.685   9.992   7.364
 4386POPC   NC356351   2.027  39.273   5.564
 4386POPC   PO456352   1.976  39.184   5.864
 4386POPC   GL156353   1.941  39.245   6.164
 4386POPC   GL256354   2.059  39.129   6.164
 4386POPC   C1A56355   2.023  39.224   6.464
 4386POPC   D2A56356   2.021  39.261   6.764
 4386POPC   C3A56357   1.951  39.245   7.064
 4386POPC   C4A56358   1.960  39.241   7.364
 4386POPC   C1B56359   2.145  39.050   6.464
 4386POPC   C2B56360   2.128  39.064   6.764
 4386POPC   C3B56361   2.170  39.086   7.064
 4386POPC   C4B56362   2.123  39.065   7.364
 4387POPC   NC356363   5.059  36.945   5.564
 4387POPC   PO456364   5.047  36.893   5.864
 4387POPC   GL156365   5.060  36.931   6.164
 4387POPC   GL256366   4.954  36.817   6.164
 4387POPC   C1A56367   5.121  36.940   6.464
 4387POPC   D2A56368   5.109  36.857   6.764
 4387POPC   C3A56369   5.102  36.857   7.064
 4387POPC   C4A56370   5.097  36.925   7.364
 4387POPC   C1B56371   4.867  36.726   6.464
 4387POPC   C2B56372   4.923  36.794   6.764
 4387POPC   C3B56373   4.882  36.739   7.064
 4387POPC   C4B56374   4.845  36.756   7.364
 4388POPC   NC356375   5.867  10.496   5.564
 4388POPC   PO456376   5.836  10.551   5.864
 4388POPC   GL156377   5.829  10.549   6.164
 4388POPC   GL256378   5.844  10.351   6.164
 4388POPC   C1A56379   5.830  10.565   6.464
 4388POPC   D2A56380   5.913  10.502   6.764
 4388POPC   C3A56381   5.911  10.488   7.064
 4388POPC   C4A56382   5.895  10.540   7.364
 4388POPC   C1B56383   5.856  10.271   6.464
 4388POPC   C2B56384   5.877  10.298   6.764
 4388POPC   C3B56385   5.914  10.264   7.064
 4388POPC   C4B56386   5.926  10.228   7.364
 4389POPC   NC356387   6.664  10.504   5.564
 4389POPC   PO456388   6.630  10.543   5.864
 4389POPC   GL156389   6.632  10.541   6.164
 4389POPC   GL256390   6.714  10.422   6.164
 4389POPC   C1A56391   6.647  10.559   6.464
 4389POPC   D2A56392   6.684  10.487   6.764
 4389POPC   C3A56393   6.668  10.559   7.064
 4389POPC   C4A56394   6.643  10.513   7.364
 4389POPC   C1B56395   6.729  10.269   6.464
 4389POPC   C2B56396   6.719  10.280   6.764
 4389POPC   C3B56397   6.802  10.339   7.064
 4389POPC   C4B56398   6.800  10.331   7.364
 4390POPC   NC356399  23.745   8.181   5.564
 4390POPC   PO456400  23.666   8.230   5.864
 4390POPC   GL156401  23.709   8.168   6.164
 4390POPC   GL256402  23.556   8.238   6.164
 4390POPC   C1A56403  23.688   8.173   6.464
 4390POPC   D2A56404  23.713   8.189   6.764
 4390POPC   C3A56405  23.728   8.209   7.064
 4390POPC   C4A56406  23.727   8.173   7.364
 4390POPC   C1B56407  23.457   8.174   6.464
 4390POPC   C2B56408  23.434   8.191   6.764
 4390POPC   C3B56409  23.432   8.236   7.064
 4390POPC   C4B56410  23.461   8.175   7.364
 4391POPC   NC356411   9.000  43.857   5.564
 4391POPC   PO456412   8.927  43.915   5.864
 4391POPC   GL156413   9.008  43.841   6.164
 4391POPC   GL256414   8.866  43.902   6.164
 4391POPC   C1A56415   8.978  43.926   6.464
 4391POPC   D2A56416   9.019  43.906   6.764
 4391POPC   C3A56417   8.985  43.871   7.064
 4391POPC   C4A56418   8.955  43.850   7.364
 4391POPC   C1B56419   8.689  43.967   6.464
 4391POPC   C2B56420   8.759  43.963   6.764
 4391POPC   C3B56421   8.747  43.990   7.064
 4391POPC   C4B56422   8.718  43.924   7.364
 4392POPC   NC356423  18.284  25.302   5.564
 4392POPC   PO456424  18.262  25.290   5.864
 4392POPC   GL156425  18.270  25.283   6.164
 4392POPC   GL256426  18.350  25.102   6.164
 4392POPC   C1A56427  18.271  25.239   6.464
 4392POPC   D2A56428  18.327  25.289   6.764
 4392POPC   C3A56429  18.291  25.314   7.064
 4392POPC   C4A56430  18.296  25.271   7.364
 4392POPC   C1B56431  18.378  25.010   6.464
 4392POPC   C2B56432  18.327  25.022   6.764
 4392POPC   C3B56433  18.353  24.985   7.064
 4392POPC   C4B56434  18.329  24.989   7.364
 4393POPC   NC356435  32.230  29.155   5.564
 4393POPC   PO456436  32.253  29.153   5.864
 4393POPC   GL156437  32.256  29.155   6.164
 4393POPC   GL256438  32.155  29.021   6.164
 4393POPC   C1A56439  32.223  29.124   6.464
 4393POPC   D2A56440  32.277  29.151   6.764
 4393POPC   C3A56441  32.281  29.194   7.064
 4393POPC   C4A56442  32.233  29.186   7.364
 4393POPC   C1B56443  32.089  28.967   6.464
 4393POPC   C2B56444  32.079  28.938   6.764
 4393POPC   C3B56445  32.112  28.889   7.064
 4393POPC   C4B56446  32.126  28.937   7.364
 4394POPC   NC356447  18.299   9.704   5.564
 4394POPC   PO456448  18.272   9.774   5.864
 4394POPC   GL156449  18.315   9.729   6.164
 4394POPC   GL256450  18.223   9.824   6.164
 4394POPC   C1A56451  18.275   9.738   6.464
 4394POPC   D2A56452  18.254   9.756   6.764
 4394POPC   C3A56453  18.297   9.785   7.064
 4394POPC   C4A56454  18.260   9.747   7.364
 4394POPC   C1B56455  18.092   9.887   6.464
 4394POPC   C2B56456  18.105   9.952   6.764
 4394POPC   C3B56457  18.053   9.957   7.064
 4394POPC   C4B56458  18.077   9.921   7.364
 4395POPC   NC356459   3.511   0.462   5.564
 4395POPC   PO456460   3.591   0.460   5.864
 4395POPC   GL156461   3.499   0.425   6.164
 4395POPC   GL256462   3.634   0.526   6.164
 4395POPC   C1A56463   3.517   0.468   6.464
 4395POPC   D2A56464   3.515   0.485   6.764
 4395POPC   C3A56465   3.551   0.429   7.064
 4395POPC   C4A56466   3.523   0.408   7.364
 4395POPC   C1B56467   3.654   0.633   6.464
 4395POPC   C2B56468   3.613   0.667   6.764
 4395POPC   C3B56469   3.629   0.638   7.064
 4395POPC   C4B56470   3.615   0.631   7.364
 4396POPC   NC356471  36.173  39.976   5.564
 4396POPC   PO456472  36.109  40.047   5.864
 4396POPC   GL156473  36.110  39.975   6.164
 4396POPC   GL256474  36.243  40.112   6.164
 4396POPC   C1A56475  36.103  39.998   6.464
 4396POPC   D2A56476  36.103  39.962   6.764
 4396POPC   C3A56477  36.097  39.967   7.064
 4396POPC   C4A56478  36.116  39.995   7.364
 4396POPC   C1B56479  36.291  40.095   6.464
 4396POPC   C2B56480  36.331  40.158   6.764
 4396POPC   C3B56481  36.341  40.111   7.064
 4396POPC   C4B56482  36.323  40.116   7.364
 4397POPC   NC356483  23.718  43.878   5.564
 4397POPC   PO456484  23.682  43.926   5.864
 4397POPC   GL156485  23.682  43.901   6.164
 4397POPC   GL256486  23.684  43.989   6.164
 4397POPC   C1A56487  23.701  43.887   6.464
 4397POPC   D2A56488  23.708  43.907   6.764
 4397POPC   C3A56489  23.689  43.922   7.064
 4397POPC   C4A56490  23.695  43.932   7.364
 4397POPC   C1B56491  23.718  44.130   6.464
 4397POPC   C2B56492  23.735  44.129   6.764
 4397POPC   C3B56493  23.727  44.088   7.064
 4397POPC   C4B56494  23.692  44.101   7.364
 4398POPC   NC356495   2.765  23.677   5.564
 4398POPC   PO456496   2.790  23.762   5.864
 4398POPC   GL156497   2.771  23.737   6.164
 4398POPC   GL256498   2.655  23.659   6.164
 4398POPC   C1A56499   2.751  23.752   6.464
 4398POPC   D2A56500   2.797  23.716   6.764
 4398POPC   C3A56501   2.731  23.756   7.064
 4398POPC   C4A56502   2.808  23.726   7.364
 4398POPC   C1B56503   2.654  23.549   6.464
 4398POPC   C2B56504   2.596  23.563   6.764
 4398POPC   C3B56505   2.651  23.498   7.064
 4398POPC   C4B56506   2.603  23.506   7.364
 4399POPC   NC356507  35.370  38.484   5.564
 4399POPC   PO456508  35.324  38.451   5.864
 4399POPC   GL156509  35.342  38.498   6.164
 4399POPC   GL256510  35.311  38.567   6.164
 4399POPC   C1A56511  35.394  38.464   6.464
 4399POPC   D2A56512  35.362  38.500   6.764
 4399POPC   C3A56513  35.313  38.415   7.064
 4399POPC   C4A56514  35.384  38.489   7.364
 4399POPC   C1B56515  35.363  38.703   6.464
 4399POPC   C2B56516  35.303  38.703   6.764
 4399POPC   C3B56517  35.335  38.722   7.064
 4399POPC   C4B56518  35.363  38.678   7.364
 4400POPC   NC356519  22.206   4.303   5.564
 4400POPC   PO456520  22.212   4.363   5.864
 4400POPC   GL156521  22.203   4.289   6.164
 4400POPC   GL256522  22.087   4.393   6.164
 4400POPC   C1A56523  22.140   4.346   6.464
 4400POPC   D2A56524  22.195   4.342   6.764
 4400POPC   C3A56525  22.184   4.315   7.064
 4400POPC   C4A56526  22.122   4.355   7.364
 4400POPC   C1B56527  22.110   4.499   6.464
 4400POPC   C2B56528  22.111   4.541   6.764
 4400POPC   C3B56529  22.047   4.596   7.064
 4400POPC   C4B56530  22.058   4.529   7.364
 4401POPC   NC356531  24.501  37.669   5.564
 4401POPC   PO456532  24.482  37.705   5.864
 4401POPC   GL156533  24.505  37.629   6.164
 4401POPC   GL256534  24.570  37.633   6.164
 4401POPC   C1A56535  24.500  37.715   6.464
 4401POPC   D2A56536  24.504  37.708   6.764
 4401POPC   C3A56537  24.477  37.715   7.064
 4401POPC   C4A56538  24.473  37.713   7.364
 4401POPC   C1B56539  24.740  37.625   6.464
 4401POPC   C2B56540  24.740  37.556   6.764
 4401POPC   C3B56541  24.690  37.638   7.064
 4401POPC   C4B56542  24.749  37.592   7.364
 4402POPC   NC356543  15.918   7.438   5.564
 4402POPC   PO456544  15.945   7.452   5.864
 4402POPC   GL156545  15.995   7.427   6.164
 4402POPC   GL256546  15.935   7.512   6.164
 4402POPC   C1A56547  15.962   7.451   6.464
 4402POPC   D2A56548  15.982   7.413   6.764
 4402POPC   C3A56549  15.970   7.426   7.064
 4402POPC   C4A56550  15.949   7.438   7.364
 4402POPC   C1B56551  15.867   7.657   6.464
 4402POPC   C2B56552  15.875   7.639   6.764
 4402POPC   C3B56553  15.851   7.616   7.064
 4402POPC   C4B56554  15.934   7.660   7.364
 4403POPC   NC356555  42.300  16.747   5.564
 4403POPC   PO456556  42.292  16.780   5.864
 4403POPC   GL156557  42.318  16.730   6.164
 4403POPC   GL256558  42.346  16.565   6.164
 4403POPC   C1A56559  42.374  16.702   6.464
 4403POPC   D2A56560  42.372  16.755   6.764
 4403POPC   C3A56561  42.367  16.761   7.064
 4403POPC   C4A56562  42.354  16.740   7.364
 4403POPC   C1B56563  42.348  16.498   6.464
 4403POPC   C2B56564  42.361  16.510   6.764
 4403POPC   C3B56565  42.357  16.525   7.064
 4403POPC   C4B56566  42.368  16.435   7.364
 4404POPC   NC356567   9.781  40.048   5.564
 4404POPC   PO456568   9.787  40.049   5.864
 4404POPC   GL156569   9.722  40.004   6.164
 4404POPC   GL256570   9.759  40.132   6.164
 4404POPC   C1A56571   9.779  39.985   6.464
 4404POPC   D2A56572   9.782  40.014   6.764
 4404POPC   C3A56573   9.793  40.045   7.064
 4404POPC   C4A56574   9.724  39.959   7.364
 4404POPC   C1B56575   9.814  40.219   6.464
 4404POPC   C2B56576   9.819  40.223   6.764
 4404POPC   C3B56577   9.742  40.283   7.064
 4404POPC   C4B56578   9.790  40.298   7.364
 4405POPC   NC356579   1.210  28.400   5.564
 4405POPC   PO456580   1.220  28.369   5.864
 4405POPC   GL156581   1.198  28.377   6.164
 4405POPC   GL256582   1.138  28.386   6.164
 4405POPC   C1A56583   1.234  28.372   6.464
 4405POPC   D2A56584   1.189  28.394   6.764
 4405POPC   C3A56585   1.235  28.323   7.064
 4405POPC   C4A56586   1.229  28.328   7.364
 4405POPC   C1B56587   1.013  28.521   6.464
 4405POPC   C2B56588   0.963  28.459   6.764
 4405POPC   C3B56589   1.020  28.509   7.064
 4405POPC   C4B56590   0.989  28.480   7.364
 4406POPC   NC356591  39.193  15.975   5.564
 4406POPC   PO456592  39.198  15.971   5.864
 4406POPC   GL156593  39.280  15.929   6.164
 4406POPC   GL256594  39.283  15.884   6.164
 4406POPC   C1A56595  39.256  15.944   6.464
 4406POPC   D2A56596  39.206  15.990   6.764
 4406POPC   C3A56597  39.181  15.935   7.064
 4406POPC   C4A56598  39.280  15.934   7.364
 4406POPC   C1B56599  39.302  15.708   6.464
 4406POPC   C2B56600  39.328  15.678   6.764
 4406POPC   C3B56601  39.354  15.738   7.064
 4406POPC   C4B56602  39.293  15.767   7.364
 4407POPC   NC356603   8.208   8.182   5.564
 4407POPC   PO456604   8.171   8.220   5.864
 4407POPC   GL156605   8.154   8.178   6.164
 4407POPC   GL256606   8.335   8.153   6.164
 4407POPC   C1A56607   8.223   8.235   6.464
 4407POPC   D2A56608   8.172   8.236   6.764
 4407POPC   C3A56609   8.151   8.166   7.064
 4407POPC   C4A56610   8.246   8.222   7.364
 4407POPC   C1B56611   8.458   8.059   6.464
 4407POPC   C2B56612   8.471   8.098   6.764
 4407POPC   C3B56613   8.414   8.131   7.064
 4407POPC   C4B56614   8.438   8.135   7.364
 4408POPC   NC356615   1.200  24.537   5.564
 4408POPC   PO456616   1.246  24.512   5.864
 4408POPC   GL156617   1.255  24.529   6.164
 4408POPC   GL256618   1.178  24.402   6.164
 4408POPC   C1A56619   1.215  24.499   6.464
 4408POPC   D2A56620   1.179  24.502   6.764
 4408POPC   C3A56621   1.171  24.463   7.064
 4408POPC   C4A56622   1.164  24.448   7.364
 4408POPC   C1B56623   1.042  24.259   6.464
 4408POPC   C2B56624   1.046  24.319   6.764
 4408POPC   C3B56625   1.133  24.293   7.064
 4408POPC   C4B56626   1.051  24.251   7.364
 4409POPC   NC356627  36.091  43.148   5.564
 4409POPC   PO456628  36.137  43.136   5.864
 4409POPC   GL156629  36.131  43.111   6.164
 4409POPC   GL256630  36.006  43.037   6.164
 4409POPC   C1A56631  36.078  43.113   6.464
 4409POPC   D2A56632  36.095  43.122   6.764
 4409POPC   C3A56633  36.121  43.066   7.064
 4409POPC   C4A56634  36.117  43.155   7.364
 4409POPC   C1B56635  35.969  42.940   6.464
 4409POPC   C2B56636  35.961  42.895   6.764
 4409POPC   C3B56637  35.911  42.949   7.064
 4409POPC   C4B56638  35.954  42.885   7.364
 4410POPC   NC356639  16.736  43.128   5.564
 4410POPC   PO456640  16.759  43.102   5.864
 4410POPC   GL156641  16.717  43.062   6.164
 4410POPC   GL256642  16.632  43.171   6.164
 4410POPC   C1A56643  16.755  43.141   6.464
 4410POPC   D2A56644  16.740  43.079   6.764
 4410POPC   C3A56645  16.747  43.104   7.064
 4410POPC   C4A56646  16.712  43.155   7.364
 4410POPC   C1B56647  16.519  43.180   6.464
 4410POPC   C2B56648  16.455  43.222   6.764
 4410POPC   C3B56649  16.450  43.250   7.064
 4410POPC   C4B56650  16.533  43.222   7.364
 4411POPC   NC356651  36.866  11.316   5.564
 4411POPC   PO456652  36.925  11.258   5.864
 4411POPC   GL156653  36.939  11.265   6.164
 4411POPC   GL256654  36.984  11.212   6.164
 4411POPC   C1A56655  36.935  11.301   6.464
 4411POPC   D2A56656  36.946  11.306   6.764
 4411POPC   C3A56657  36.926  11.298   7.064
 4411POPC   C4A56658  36.902  11.321   7.364
 4411POPC   C1B56659  37.051  11.062   6.464
 4411POPC   C2B56660  36.982  11.068   6.764
 4411POPC   C3B56661  37.074  11.111   7.064
 4411POPC   C4B56662  37.052  11.089   7.364
 4412POPC   NC356663  35.337  22.975   5.564
 4412POPC   PO456664  35.313  22.970   5.864
 4412POPC   GL156665  35.372  22.948   6.164
 4412POPC   GL256666  35.525  22.979   6.164
 4412POPC   C1A56667  35.387  22.955   6.464
 4412POPC   D2A56668  35.384  22.916   6.764
 4412POPC   C3A56669  35.375  22.975   7.064
 4412POPC   C4A56670  35.330  22.958   7.364
 4412POPC   C1B56671  35.552  23.022   6.464
 4412POPC   C2B56672  35.553  22.929   6.764
 4412POPC   C3B56673  35.647  23.021   7.064
 4412POPC   C4B56674  35.637  22.995   7.364
 4413POPC   NC356675  34.530  33.065   5.564
 4413POPC   PO456676  34.544  33.019   5.864
 4413POPC   GL156677  34.561  33.070   6.164
 4413POPC   GL256678  34.642  32.864   6.164
 4413POPC   C1A56679  34.613  33.062   6.464
 4413POPC   D2A56680  34.623  32.995   6.764
 4413POPC   C3A56681  34.559  33.067   7.064
 4413POPC   C4A56682  34.596  33.019   7.364
 4413POPC   C1B56683  34.609  32.753   6.464
 4413POPC   C2B56684  34.651  32.747   6.764
 4413POPC   C3B56685  34.676  32.737   7.064
 4413POPC   C4B56686  34.616  32.739   7.364
 4414POPC   NC356687  26.803  35.330   5.564
 4414POPC   PO456688  26.799  35.317   5.864
 4414POPC   GL156689  26.784  35.314   6.164
 4414POPC   GL256690  26.927  35.326   6.164
 4414POPC   C1A56691  26.841  35.381   6.464
 4414POPC   D2A56692  26.811  35.384   6.764
 4414POPC   C3A56693  26.844  35.367   7.064
 4414POPC   C4A56694  26.803  35.327   7.364
 4414POPC   C1B56695  27.035  35.365   6.464
 4414POPC   C2B56696  27.036  35.379   6.764
 4414POPC   C3B56697  27.071  35.340   7.064
 4414POPC   C4B56698  27.046  35.394   7.364
 4415POPC   NC356699  42.334   5.093   5.564
 4415POPC   PO456700  42.341   5.060   5.864
 4415POPC   GL156701  42.297   5.055   6.164
 4415POPC   GL256702  42.294   5.197   6.164
 4415POPC   C1A56703  42.323   5.097   6.464
 4415POPC   D2A56704  42.286   5.044   6.764
 4415POPC   C3A56705  42.331   5.095   7.064
 4415POPC   C4A56706  42.318   5.125   7.364
 4415POPC   C1B56707  42.158   5.264   6.464
 4415POPC   C2B56708  42.200   5.348   6.764
 4415POPC   C3B56709  42.212   5.293   7.064
 4415POPC   C4B56710  42.209   5.344   7.364
 4416POPC   NC356711  36.877  13.600   5.564
 4416POPC   PO456712  36.934  13.661   5.864
 4416POPC   GL156713  36.927  13.661   6.164
 4416POPC   GL256714  36.830  13.706   6.164
 4416POPC   C1A56715  36.859  13.625   6.464
 4416POPC   D2A56716  36.872  13.590   6.764
 4416POPC   C3A56717  36.854  13.668   7.064
 4416POPC   C4A56718  36.949  13.628   7.364
 4416POPC   C1B56719  36.857  13.869   6.464
 4416POPC   C2B56720  36.820  13.824   6.764
 4416POPC   C3B56721  36.834  13.872   7.064
 4416POPC   C4B56722  36.858  13.831   7.364
 4417POPC   NC356723  16.710   3.543   5.564
 4417POPC   PO456724  16.718   3.562   5.864
 4417POPC   GL156725  16.755   3.497   6.164
 4417POPC   GL256726  16.643   3.643   6.164
 4417POPC   C1A56727  16.735   3.555   6.464
 4417POPC   D2A56728  16.775   3.566   6.764
 4417POPC   C3A56729  16.770   3.548   7.064
 4417POPC   C4A56730  16.739   3.494   7.364
 4417POPC   C1B56731  16.615   3.724   6.464
 4417POPC   C2B56732  16.659   3.723   6.764
 4417POPC   C3B56733  16.614   3.786   7.064
 4417POPC   C4B56734  16.602   3.813   7.364
 4418POPC   NC356735  40.816  33.072   5.564
 4418POPC   PO456736  40.824  32.992   5.864
 4418POPC   GL156737  40.802  33.054   6.164
 4418POPC   GL256738  40.765  32.906   6.164
 4418POPC   C1A56739  40.748  33.013   6.464
 4418POPC   D2A56740  40.784  33.062   6.764
 4418POPC   C3A56741  40.794  32.978   7.064
 4418POPC   C4A56742  40.815  33.002   7.364
 4418POPC   C1B56743  40.743  32.753   6.464
 4418POPC   C2B56744  40.759  32.759   6.764
 4418POPC   C3B56745  40.797  32.775   7.064
 4418POPC   C4B56746  40.827  32.817   7.364
 4419POPC   NC356747  29.893  18.244   5.564
 4419POPC   PO456748  29.909  18.233   5.864
 4419POPC   GL156749  29.879  18.283   6.164
 4419POPC   GL256750  29.819  18.390   6.164
 4419POPC   C1A56751  29.881  18.285   6.464
 4419POPC   D2A56752  29.904  18.256   6.764
 4419POPC   C3A56753  29.931  18.250   7.064
 4419POPC   C4A56754  29.949  18.268   7.364
 4419POPC   C1B56755  29.683  18.421   6.464
 4419POPC   C2B56756  29.738  18.402   6.764
 4419POPC   C3B56757  29.683  18.457   7.064
 4419POPC   C4B56758  29.726  18.397   7.364
 4420POPC   NC356759   8.993  23.753   5.564
 4420POPC   PO456760   9.005  23.762   5.864
 4420POPC   GL156761   8.992  23.763   6.164
 4420POPC   GL256762   9.041  23.876   6.164
 4420POPC   C1A56763   8.992  23.724   6.464
 4420POPC   D2A56764   8.989  23.728   6.764
 4420POPC   C3A56765   8.931  23.706   7.064
 4420POPC   C4A56766   9.017  23.666   7.364
 4420POPC   C1B56767   9.096  23.921   6.464
 4420POPC   C2B56768   9.038  23.933   6.764
 4420POPC   C3B56769   9.059  23.936   7.064
 4420POPC   C4B56770   9.128  23.916   7.364
 4421POPC   NC356771   1.263  43.904   5.564
 4421POPC   PO456772   1.185  43.861   5.864
 4421POPC   GL156773   1.224  43.911   6.164
 4421POPC   GL256774   1.349  43.888   6.164
 4421POPC   C1A56775   1.263  43.888   6.464
 4421POPC   D2A56776   1.235  43.897   6.764
 4421POPC   C3A56777   1.238  43.936   7.064
 4421POPC   C4A56778   1.200  43.920   7.364
 4421POPC   C1B56779   1.431  43.833   6.464
 4421POPC   C2B56780   1.502  43.869   6.764
 4421POPC   C3B56781   1.456  43.784   7.064
 4421POPC   C4B56782   1.446  43.852   7.364
 4422POPC   NC356783   1.216   9.704   5.564
 4422POPC   PO456784   1.201   9.743   5.864
 4422POPC   GL156785   1.263   9.699   6.164
 4422POPC   GL256786   1.252   9.820   6.164
 4422POPC   C1A56787   1.249   9.780   6.464
 4422POPC   D2A56788   1.243   9.742   6.764
 4422POPC   C3A56789   1.242   9.785   7.064
 4422POPC   C4A56790   1.223   9.758   7.364
 4422POPC   C1B56791   1.346   9.931   6.464
 4422POPC   C2B56792   1.311   9.930   6.764
 4422POPC   C3B56793   1.313   9.930   7.064
 4422POPC   C4B56794   1.323   9.931   7.364
 4423POPC   NC356795  15.135  29.166   5.564
 4423POPC   PO456796  15.202  29.121   5.864
 4423POPC   GL156797  15.195  29.156   6.164
 4423POPC   GL256798  15.259  29.146   6.164
 4423POPC   C1A56799  15.133  29.106   6.464
 4423POPC   D2A56800  15.197  29.170   6.764
 4423POPC   C3A56801  15.213  29.113   7.064
 4423POPC   C4A56802  15.144  29.178   7.364
 4423POPC   C1B56803  15.477  29.130   6.464
 4423POPC   C2B56804  15.396  29.125   6.764
 4423POPC   C3B56805  15.415  29.117   7.064
 4423POPC   C4B56806  15.442  29.097   7.364
 4424POPC   NC356807   8.225  13.639   5.564
 4424POPC   PO456808   8.197  13.618   5.864
 4424POPC   GL156809   8.212  13.608   6.164
 4424POPC   GL256810   8.144  13.687   6.164
 4424POPC   C1A56811   8.198  13.653   6.464
 4424POPC   D2A56812   8.241  13.667   6.764
 4424POPC   C3A56813   8.227  13.592   7.064
 4424POPC   C4A56814   8.233  13.650   7.364
 4424POPC   C1B56815   8.071  13.773   6.464
 4424POPC   C2B56816   8.022  13.781   6.764
 4424POPC   C3B56817   8.023  13.785   7.064
 4424POPC   C4B56818   8.025  13.834   7.364
 4425POPC   NC356819  19.876   4.367   5.564
 4425POPC   PO456820  19.786   4.338   5.864
 4425POPC   GL156821  19.822   4.318   6.164
 4425POPC   GL256822  19.911   4.318   6.164
 4425POPC   C1A56823  19.868   4.292   6.464
 4425POPC   D2A56824  19.857   4.320   6.764
 4425POPC   C3A56825  19.863   4.300   7.064
 4425POPC   C4A56826  19.884   4.286   7.364
 4425POPC   C1B56827  20.107   4.400   6.464
 4425POPC   C2B56828  20.043   4.366   6.764
 4425POPC   C3B56829  20.084   4.338   7.064
 4425POPC   C4B56830  20.118   4.376   7.364
 4426POPC   NC356831   9.773  41.592   5.564
 4426POPC   PO456832   9.735  41.542   5.864
 4426POPC   GL156833   9.772  41.561   6.164
 4426POPC   GL256834   9.681  41.444   6.164
 4426POPC   C1A56835   9.793  41.513   6.464
 4426POPC   D2A56836   9.711  41.589   6.764
 4426POPC   C3A56837   9.745  41.578   7.064
 4426POPC   C4A56838   9.734  41.552   7.364
 4426POPC   C1B56839   9.668  41.371   6.464
 4426POPC   C2B56840   9.638  41.299   6.764
 4426POPC   C3B56841   9.662  41.298   7.064
 4426POPC   C4B56842   9.664  41.319   7.364
 4427POPC   NC356843   9.699   6.655   5.564
 4427POPC   PO456844   9.724   6.603   5.864
 4427POPC   GL156845   9.743   6.677   6.164
 4427POPC   GL256846   9.895   6.671   6.164
 4427POPC   C1A56847   9.747   6.679   6.464
 4427POPC   D2A56848   9.723   6.676   6.764
 4427POPC   C3A56849   9.699   6.664   7.064
 4427POPC   C4A56850   9.764   6.625   7.364
 4427POPC   C1B56851  10.000   6.728   6.464
 4427POPC   C2B56852   9.995   6.791   6.764
 4427POPC   C3B56853   9.930   6.763   7.064
 4427POPC   C4B56854   9.996   6.774   7.364
 4428POPC   NC356855  26.010  20.596   5.564
 4428POPC   PO456856  26.009  20.575   5.864
 4428POPC   GL156857  26.091  20.647   6.164
 4428POPC   GL256858  25.958  20.704   6.164
 4428POPC   C1A56859  26.082  20.645   6.464
 4428POPC   D2A56860  26.014  20.583   6.764
 4428POPC   C3A56861  25.993  20.642   7.064
 4428POPC   C4A56862  26.042  20.641   7.364
 4428POPC   C1B56863  25.817  20.703   6.464
 4428POPC   C2B56864  25.804  20.713   6.764
 4428POPC   C3B56865  25.836  20.709   7.064
 4428POPC   C4B56866  25.813  20.701   7.364
 4429POPC   NC356867  42.328  40.043   5.564
 4429POPC   PO456868  42.334  39.989   5.864
 4429POPC   GL156869  42.374  40.054   6.164
 4429POPC   GL256870  42.167  40.053   6.164
 4429POPC   C1A56871  42.356  39.959   6.464
 4429POPC   D2A56872  42.312  39.966   6.764
 4429POPC   C3A56873  42.305  40.024   7.064
 4429POPC   C4A56874  42.322  39.971   7.364
 4429POPC   C1B56875  42.036  39.996   6.464
 4429POPC   C2B56876  42.129  39.964   6.764
 4429POPC   C3B56877  42.068  39.964   7.064
 4429POPC   C4B56878  42.056  39.966   7.364
 4430POPC   NC356879  20.581  43.910   5.564
 4430POPC   PO456880  20.561  43.893   5.864
 4430POPC   GL156881  20.569  43.848   6.164
 4430POPC   GL256882  20.699  43.797   6.164
 4430POPC   C1A56883  20.655  43.837   6.464
 4430POPC   D2A56884  20.650  43.862   6.764
 4430POPC   C3A56885  20.562  43.908   7.064
 4430POPC   C4A56886  20.652  43.904   7.364
 4430POPC   C1B56887  20.742  43.635   6.464
 4430POPC   C2B56888  20.682  43.607   6.764
 4430POPC   C3B56889  20.739  43.614   7.064
 4430POPC   C4B56890  20.666  43.625   7.364
 4431POPC   NC356891  35.323  18.265   5.564
 4431POPC   PO456892  35.321  18.235   5.864
 4431POPC   GL156893  35.323  18.326   6.164
 4431POPC   GL256894  35.232  18.344   6.164
 4431POPC   C1A56895  35.364  18.313   6.464
 4431POPC   D2A56896  35.310  18.314   6.764
 4431POPC   C3A56897  35.337  18.304   7.064
 4431POPC   C4A56898  35.360  18.263   7.364
 4431POPC   C1B56899  35.070  18.391   6.464
 4431POPC   C2B56900  35.078  18.333   6.764
 4431POPC   C3B56901  35.131  18.421   7.064
 4431POPC   C4B56902  35.157  18.395   7.364
 4432POPC   NC356903  31.511   0.477   5.564
 4432POPC   PO456904  31.453   0.444   5.864
 4432POPC   GL156905  31.478   0.463   6.164
 4432POPC   GL256906  31.335   0.425   6.164
 4432POPC   C1A56907  31.499   0.416   6.464
 4432POPC   D2A56908  31.521   0.486   6.764
 4432POPC   C3A56909  31.484   0.444   7.064
 4432POPC   C4A56910  31.423   0.409   7.364
 4432POPC   C1B56911  31.245   0.479   6.464
 4432POPC   C2B56912  31.229   0.416   6.764
 4432POPC   C3B56913  31.261   0.460   7.064
 4432POPC   C4B56914  31.205   0.458   7.364
 4433POPC   NC356915  21.401  29.881   5.564
 4433POPC   PO456916  21.436  29.948   5.864
 4433POPC   GL156917  21.365  29.963   6.164
 4433POPC   GL256918  21.300  29.771   6.164
 4433POPC   C1A56919  21.406  29.872   6.464
 4433POPC   D2A56920  21.344  29.932   6.764
 4433POPC   C3A56921  21.418  29.952   7.064
 4433POPC   C4A56922  21.382  29.879   7.364
 4433POPC   C1B56923  21.313  29.722   6.464
 4433POPC   C2B56924  21.287  29.654   6.764
 4433POPC   C3B56925  21.258  29.737   7.064
 4433POPC   C4B56926  21.283  29.668   7.364
 4434POPC   NC356927  43.071  28.331   5.564
 4434POPC   PO456928  43.085  28.391   5.864
 4434POPC   GL156929  43.141  28.406   6.164
 4434POPC   GL256930  43.173  28.277   6.164
 4434POPC   C1A56931  43.149  28.362   6.464
 4434POPC   D2A56932  43.087  28.403   6.764
 4434POPC   C3A56933  43.085  28.393   7.064
 4434POPC   C4A56934  43.129  28.377   7.364
 4434POPC   C1B56935  43.233  28.140   6.464
 4434POPC   C2B56936  43.233  28.217   6.764
 4434POPC   C3B56937  43.229  28.167   7.064
 4434POPC   C4B56938  43.327  28.139   7.364
 4435POPC   NC356939  19.823  13.616   5.564
 4435POPC   PO456940  19.811  13.649   5.864
 4435POPC   GL156941  19.872  13.639   6.164
 4435POPC   GL256942  19.739  13.574   6.164
 4435POPC   C1A56943  19.840  13.629   6.464
 4435POPC   D2A56944  19.828  13.600   6.764
 4435POPC   C3A56945  19.785  13.605   7.064
 4435POPC   C4A56946  19.803  13.605   7.364
 4435POPC   C1B56947  19.636  13.531   6.464
 4435POPC   C2B56948  19.554  13.564   6.764
 4435POPC   C3B56949  19.618  13.493   7.064
 4435POPC   C4B56950  19.567  13.542   7.364
 4436POPC   NC356951  36.905  31.463   5.564
 4436POPC   PO456952  36.945  31.520   5.864
 4436POPC   GL156953  36.940  31.444   6.164
 4436POPC   GL256954  36.820  31.337   6.164
 4436POPC   C1A56955  36.935  31.432   6.464
 4436POPC   D2A56956  36.896  31.467   6.764
 4436POPC   C3A56957  36.860  31.511   7.064
 4436POPC   C4A56958  36.875  31.517   7.364
 4436POPC   C1B56959  36.785  31.245   6.464
 4436POPC   C2B56960  36.731  31.253   6.764
 4436POPC   C3B56961  36.714  31.235   7.064
 4436POPC   C4B56962  36.718  31.299   7.364
 4437POPC   NC356963  22.920  28.378   5.564
 4437POPC   PO456964  22.926  28.394   5.864
 4437POPC   GL156965  22.988  28.410   6.164
 4437POPC   GL256966  22.921  28.446   6.164
 4437POPC   C1A56967  22.911  28.392   6.464
 4437POPC   D2A56968  22.988  28.328   6.764
 4437POPC   C3A56969  22.914  28.360   7.064
 4437POPC   C4A56970  22.986  28.343   7.364
 4437POPC   C1B56971  22.877  28.641   6.464
 4437POPC   C2B56972  22.878  28.619   6.764
 4437POPC   C3B56973  22.860  28.597   7.064
 4437POPC   C4B56974  22.863  28.658   7.364
 4438POPC   NC356975  37.723  10.511   5.564
 4438POPC   PO456976  37.652  10.570   5.864
 4438POPC   GL156977  37.670  10.507   6.164
 4438POPC   GL256978  37.587  10.450   6.164
 4438POPC   C1A56979  37.637  10.571   6.464
 4438POPC   D2A56980  37.663  10.479   6.764
 4438POPC   C3A56981  37.716  10.505   7.064
 4438POPC   C4A56982  37.638  10.492   7.364
 4438POPC   C1B56983  37.473  10.300   6.464
 4438POPC   C2B56984  37.543  10.353   6.764
 4438POPC   C3B56985  37.536  10.331   7.064
 4438POPC   C4B56986  37.510  10.306   7.364
 4439POPC   NC356987  26.801  11.339   5.564
 4439POPC   PO456988  26.804  11.311   5.864
 4439POPC   GL156989  26.805  11.299   6.164
 4439POPC   GL256990  26.735  11.215   6.164
 4439POPC   C1A56991  26.796  11.269   6.464
 4439POPC   D2A56992  26.810  11.251   6.764
 4439POPC   C3A56993  26.795  11.296   7.064
 4439POPC   C4A56994  26.834  11.271   7.364
 4439POPC   C1B56995  26.618  11.163   6.464
 4439POPC   C2B56996  26.622  11.165   6.764
 4439POPC   C3B56997  26.618  11.099   7.064
 4439POPC   C4B56998  26.601  11.165   7.364
 4440POPC   NC356999   6.676  36.878   5.564
 4440POPC   PO457000   6.610  36.902   5.864
 4440POPC   GL157001   6.641  36.854   6.164
 4440POPC   GL257002   6.738  37.020   6.164
 4440POPC   C1A57003   6.595  36.946   6.464
 4440POPC   D2A57004   6.653  36.947   6.764
 4440POPC   C3A57005   6.642  36.861   7.064
 4440POPC   C4A57006   6.627  36.903   7.364
 4440POPC   C1B57007   6.792  37.033   6.464
 4440POPC   C2B57008   6.889  37.037   6.764
 4440POPC   C3B57009   6.835  37.012   7.064
 4440POPC   C4B57010   6.858  37.089   7.364
 4441POPC   NC357011  18.289   7.467   5.564
 4441POPC   PO457012  18.282   7.398   5.864
 4441POPC   GL157013  18.284   7.401   6.164
 4441POPC   GL257014  18.300   7.537   6.164
 4441POPC   C1A57015  18.323   7.399   6.464
 4441POPC   D2A57016  18.238   7.406   6.764
 4441POPC   C3A57017  18.257   7.433   7.064
 4441POPC   C4A57018  18.244   7.379   7.364
 4441POPC   C1B57019  18.296   7.709   6.464
 4441POPC   C2B57020  18.311   7.709   6.764
 4441POPC   C3B57021  18.342   7.638   7.064
 4441POPC   C4B57022  18.367   7.634   7.364
 4442POPC   NC357023  38.490   6.639   5.564
 4442POPC   PO457024  38.475   6.688   5.864
 4442POPC   GL157025  38.407   6.687   6.164
 4442POPC   GL257026  38.304   6.680   6.164
 4442POPC   C1A57027  38.423   6.602   6.464
 4442POPC   D2A57028  38.441   6.690   6.764
 4442POPC   C3A57029  38.499   6.689   7.064
 4442POPC   C4A57030  38.477   6.628   7.364
 4442POPC   C1B57031  38.230   6.697   6.464
 4442POPC   C2B57032  38.204   6.748   6.764
 4442POPC   C3B57033  38.245   6.698   7.064
 4442POPC   C4B57034  38.240   6.787   7.364
 4443POPC   NC357035  12.835  42.332   5.564
 4443POPC   PO457036  12.830  42.348   5.864
 4443POPC   GL157037  12.850  42.330   6.164
 4443POPC   GL257038  12.695  42.319   6.164
 4443POPC   C1A57039  12.902  42.321   6.464
 4443POPC   D2A57040  12.847  42.369   6.764
 4443POPC   C3A57041  12.847  42.313   7.064
 4443POPC   C4A57042  12.871  42.382   7.364
 4443POPC   C1B57043  12.560  42.421   6.464
 4443POPC   C2B57044  12.597  42.375   6.764
 4443POPC   C3B57045  12.623  42.377   7.064
 4443POPC   C4B57046  12.650  42.359   7.364
 4444POPC   NC357047  15.142  30.679   5.564
 4444POPC   PO457048  15.197  30.694   5.864
 4444POPC   GL157049  15.200  30.657   6.164
 4444POPC   GL257050  15.239  30.798   6.164
 4444POPC   C1A57051  15.148  30.720   6.464
 4444POPC   D2A57052  15.206  30.669   6.764
 4444POPC   C3A57053  15.178  30.682   7.064
 4444POPC   C4A57054  15.212  30.683   7.364
 4444POPC   C1B57055  15.295  30.973   6.464
 4444POPC   C2B57056  15.226  30.945   6.764
 4444POPC   C3B57057  15.244  30.975   7.064
 4444POPC   C4B57058  15.235  30.955   7.364
 4445POPC   NC357059  39.232   1.216   5.564
 4445POPC   PO457060  39.277   1.263   5.864
 4445POPC   GL157061  39.229   1.167   6.164
 4445POPC   GL257062  39.173   1.315   6.164
 4445POPC   C1A57063  39.218   1.240   6.464
 4445POPC   D2A57064  39.222   1.197   6.764
 4445POPC   C3A57065  39.192   1.181   7.064
 4445POPC   C4A57066  39.255   1.249   7.364
 4445POPC   C1B57067  39.051   1.367   6.464
 4445POPC   C2B57068  39.042   1.306   6.764
 4445POPC   C3B57069  39.055   1.338   7.064
 4445POPC   C4B57070  39.031   1.340   7.364
 4446POPC   NC357071  10.530  30.724   5.564
 4446POPC   PO457072  10.533  30.717   5.864
 4446POPC   GL157073  10.523  30.734   6.164
 4446POPC   GL257074  10.516  30.555   6.164
 4446POPC   C1A57075  10.561  30.694   6.464
 4446POPC   D2A57076  10.544  30.727   6.764
 4446POPC   C3A57077  10.510  30.649   7.064
 4446POPC   C4A57078  10.528  30.702   7.364
 4446POPC   C1B57079  10.481  30.414   6.464
 4446POPC   C2B57080  10.513  30.440   6.764
 4446POPC   C3B57081  10.479  30.485   7.064
 4446POPC   C4B57082  10.470  30.444   7.364
 4447POPC   NC357083  32.295   7.441   5.564
 4447POPC   PO457084  32.255   7.410   5.864
 4447POPC   GL157085  32.289   7.413   6.164
 4447POPC   GL257086  32.126   7.364   6.164
 4447POPC   C1A57087  32.202   7.465   6.464
 4447POPC   D2A57088  32.236   7.418   6.764
 4447POPC   C3A57089  32.294   7.423   7.064
 4447POPC   C4A57090  32.231   7.452   7.364
 4447POPC   C1B57091  32.020   7.311   6.464
 4447POPC   C2B57092  32.054   7.286   6.764
 4447POPC   C3B57093  31.992   7.261   7.064
 4447POPC   C4B57094  32.039   7.259   7.364
 4448POPC   NC357095   2.033  23.750   5.564
 4448POPC   PO457096   1.968  23.718   5.864
 4448POPC   GL157097   1.955  23.728   6.164
 4448POPC   GL257098   1.884  23.796   6.164
 4448POPC   C1A57099   1.940  23.730   6.464
 4448POPC   D2A57100   2.023  23.747   6.764
 4448POPC   C3A57101   1.957  23.737   7.064
 4448POPC   C4A57102   2.006  23.737   7.364
 4448POPC   C1B57103   1.715  23.777   6.464
 4448POPC   C2B57104   1.738  23.802   6.764
 4448POPC   C3B57105   1.791  23.774   7.064
 4448POPC   C4B57106   1.775  23.816   7.364
 4449POPC   NC357107  16.713  14.401   5.564
 4449POPC   PO457108  16.749  14.402   5.864
 4449POPC   GL157109  16.716  14.424   6.164
 4449POPC   GL257110  16.734  14.273   6.164
 4449POPC   C1A57111  16.688  14.392   6.464
 4449POPC   D2A57112  16.769  14.442   6.764
 4449POPC   C3A57113  16.705  14.448   7.064
 4449POPC   C4A57114  16.714  14.362   7.364
 4449POPC   C1B57115  16.699  14.131   6.464
 4449POPC   C2B57116  16.703  14.146   6.764
 4449POPC   C3B57117  16.677  14.122   7.064
 4449POPC   C4B57118  16.678  14.144   7.364
 4450POPC   NC357119  37.654  14.373   5.564
 4450POPC   PO457120  37.642  14.438   5.864
 4450POPC   GL157121  37.723  14.436   6.164
 4450POPC   GL257122  37.750  14.521   6.164
 4450POPC   C1A57123  37.671  14.402   6.464
 4450POPC   D2A57124  37.713  14.439   6.764
 4450POPC   C3A57125  37.650  14.421   7.064
 4450POPC   C4A57126  37.643  14.376   7.364
 4450POPC   C1B57127  37.763  14.653   6.464
 4450POPC   C2B57128  37.720  14.668   6.764
 4450POPC   C3B57129  37.708  14.690   7.064
 4450POPC   C4B57130  37.691  14.601   7.364
 4451POPC   NC357131  39.974   1.215   5.564
 4451POPC   PO457132  40.049   1.181   5.864
 4451POPC   GL157133  40.054   1.261   6.164
 4451POPC   GL257134  40.080   1.070   6.164
 4451POPC   C1A57135  40.047   1.186   6.464
 4451POPC   D2A57136  39.969   1.207   6.764
 4451POPC   C3A57137  39.992   1.187   7.064
 4451POPC   C4A57138  40.033   1.263   7.364
 4451POPC   C1B57139  40.092   0.944   6.464
 4451POPC   C2B57140  40.160   0.997   6.764
 4451POPC   C3B57141  40.079   1.034   7.064
 4451POPC   C4B57142  40.102   0.965   7.364
 4452POPC   NC357143  38.447   9.720   5.564
 4452POPC   PO457144  38.426   9.728   5.864
 4452POPC   GL157145  38.424   9.791   6.164
 4452POPC   GL257146  38.531   9.689   6.164
 4452POPC   C1A57147  38.495   9.731   6.464
 4452POPC   D2A57148  38.441   9.753   6.764
 4452POPC   C3A57149  38.416   9.782   7.064
 4452POPC   C4A57150  38.443   9.768   7.364
 4452POPC   C1B57151  38.703   9.672   6.464
 4452POPC   C2B57152  38.645   9.652   6.764
 4452POPC   C3B57153  38.711   9.689   7.064
 4452POPC   C4B57154  38.673   9.649   7.364
 4453POPC   NC357155  37.630  26.858   5.564
 4453POPC   PO457156  37.692  26.858   5.864
 4453POPC   GL157157  37.687  26.858   6.164
 4453POPC   GL257158  37.702  26.956   6.164
 4453POPC   C1A57159  37.722  26.846   6.464
 4453POPC   D2A57160  37.713  26.860   6.764
 4453POPC   C3A57161  37.714  26.769   7.064
 4453POPC   C4A57162  37.638  26.778   7.364
 4453POPC   C1B57163  37.696  27.022   6.464
 4453POPC   C2B57164  37.688  27.110   6.764
 4453POPC   C3B57165  37.683  27.077   7.064
 4453POPC   C4B57166  37.667  27.065   7.364
 4454POPC   NC357167   3.497  11.315   5.564
 4454POPC   PO457168   3.518  11.337   5.864
 4454POPC   GL157169   3.543  11.264   6.164
 4454POPC   GL257170   3.670  11.231   6.164
 4454POPC   C1A57171   3.518  11.339   6.464
 4454POPC   D2A57172   3.549  11.264   6.764
 4454POPC   C3A57173   3.538  11.258   7.064
 4454POPC   C4A57174   3.538  11.319   7.364
 4454POPC   C1B57175   3.793  11.221   6.464
 4454POPC   C2B57176   3.773  11.194   6.764
 4454POPC   C3B57177   3.788  11.151   7.064
 4454POPC   C4B57178   3.756  11.163   7.364
 4455POPC   NC357179  26.043  12.060   5.564
 4455POPC   PO457180  26.038  12.048   5.864
 4455POPC   GL157181  26.080  12.095   6.164
 4455POPC   GL257182  25.942  12.178   6.164
 4455POPC   C1A57183  26.017  12.082   6.464
 4455POPC   D2A57184  26.005  12.029   6.764
 4455POPC   C3A57185  26.041  12.054   7.064
 4455POPC   C4A57186  26.025  12.039   7.364
 4455POPC   C1B57187  25.854  12.199   6.464
 4455POPC   C2B57188  25.878  12.232   6.764
 4455POPC   C3B57189  25.825  12.224   7.064
 4455POPC   C4B57190  25.785  12.245   7.364
 4456POPC   NC357191   8.224   6.630   5.564
 4456POPC   PO457192   8.246   6.666   5.864
 4456POPC   GL157193   8.203   6.603   6.164
 4456POPC   GL257194   8.154   6.803   6.164
 4456POPC   C1A57195   8.165   6.604   6.464
 4456POPC   D2A57196   8.229   6.670   6.764
 4456POPC   C3A57197   8.159   6.629   7.064
 4456POPC   C4A57198   8.178   6.632   7.364
 4456POPC   C1B57199   8.113   6.888   6.464
 4456POPC   C2B57200   8.161   6.911   6.764
 4456POPC   C3B57201   8.153   6.902   7.064
 4456POPC   C4B57202   8.151   6.863   7.364
 4457POPC   NC357203  33.063  33.845   5.564
 4457POPC   PO457204  33.048  33.758   5.864
 4457POPC   GL157205  32.984  33.770   6.164
 4457POPC   GL257206  33.091  33.906   6.164
 4457POPC   C1A57207  33.074  33.770   6.464
 4457POPC   D2A57208  33.030  33.788   6.764
 4457POPC   C3A57209  33.028  33.818   7.064
 4457POPC   C4A57210  33.059  33.809   7.364
 4457POPC   C1B57211  33.114  34.079   6.464
 4457POPC   C2B57212  33.131  34.009   6.764
 4457POPC   C3B57213  33.111  34.059   7.064
 4457POPC   C4B57214  33.102  33.986   7.364
 4458POPC   NC357215   8.210  22.937   5.564
 4458POPC   PO457216   8.237  22.920   5.864
 4458POPC   GL157217   8.149  22.904   6.164
 4458POPC   GL257218   8.329  22.985   6.164
 4458POPC   C1A57219   8.244  22.923   6.464
 4458POPC   D2A57220   8.206  22.904   6.764
 4458POPC   C3A57221   8.225  22.954   7.064
 4458POPC   C4A57222   8.179  22.938   7.364
 4458POPC   C1B57223   8.470  23.034   6.464
 4458POPC   C2B57224   8.430  23.018   6.764
 4458POPC   C3B57225   8.448  23.051   7.064
 4458POPC   C4B57226   8.430  23.021   7.364
 4459POPC   NC357227  37.656  34.567   5.564
 4459POPC   PO457228  37.681  34.566   5.864
 4459POPC   GL157229  37.691  34.595   6.164
 4459POPC   GL257230  37.648  34.458   6.164
 4459POPC   C1A57231  37.679  34.574   6.464
 4459POPC   D2A57232  37.700  34.616   6.764
 4459POPC   C3A57233  37.668  34.595   7.064
 4459POPC   C4A57234  37.657  34.535   7.364
 4459POPC   C1B57235  37.541  34.344   6.464
 4459POPC   C2B57236  37.595  34.390   6.764
 4459POPC   C3B57237  37.573  34.414   7.064
 4459POPC   C4B57238  37.570  34.386   7.364
 4460POPC   NC357239  32.235  36.132   5.564
 4460POPC   PO457240  32.228  36.168   5.864
 4460POPC   GL157241  32.257  36.149   6.164
 4460POPC   GL257242  32.416  36.061   6.164
 4460POPC   C1A57243  32.279  36.165   6.464
 4460POPC   D2A57244  32.218  36.129   6.764
 4460POPC   C3A57245  32.284  36.134   7.064
 4460POPC   C4A57246  32.210  36.135   7.364
 4460POPC   C1B57247  32.451  36.122   6.464
 4460POPC   C2B57248  32.499  36.061   6.764
 4460POPC   C3B57249  32.538  36.101   7.064
 4460POPC   C4B57250  32.468  36.050   7.364
 4461POPC   NC357251  35.331  23.684   5.564
 4461POPC   PO457252  35.315  23.738   5.864
 4461POPC   GL157253  35.385  23.705   6.164
 4461POPC   GL257254  35.337  23.540   6.164
 4461POPC   C1A57255  35.376  23.723   6.464
 4461POPC   D2A57256  35.335  23.700   6.764
 4461POPC   C3A57257  35.314  23.756   7.064
 4461POPC   C4A57258  35.397  23.677   7.364
 4461POPC   C1B57259  35.299  23.441   6.464
 4461POPC   C2B57260  35.359  23.441   6.764
 4461POPC   C3B57261  35.344  23.477   7.064
 4461POPC   C4B57262  35.341  23.485   7.364
 4462POPC   NC357263  18.291  39.243   5.564
 4462POPC   PO457264  18.284  39.277   5.864
 4462POPC   GL157265  18.259  39.237   6.164
 4462POPC   GL257266  18.405  39.196   6.164
 4462POPC   C1A57267  18.326  39.227   6.464
 4462POPC   D2A57268  18.276  39.247   6.764
 4462POPC   C3A57269  18.290  39.277   7.064
 4462POPC   C4A57270  18.233  39.272   7.364
 4462POPC   C1B57271  18.527  39.239   6.464
 4462POPC   C2B57272  18.503  39.280   6.764
 4462POPC   C3B57273  18.508  39.243   7.064
 4462POPC   C4B57274  18.527  39.267   7.364
 4463POPC   NC357275  24.530  43.103   5.564
 4463POPC   PO457276  24.484  43.122   5.864
 4463POPC   GL157277  24.521  43.112   6.164
 4463POPC   GL257278  24.512  43.009   6.164
 4463POPC   C1A57279  24.520  43.104   6.464
 4463POPC   D2A57280  24.491  43.124   6.764
 4463POPC   C3A57281  24.446  43.062   7.064
 4463POPC   C4A57282  24.524  43.091   7.364
 4463POPC   C1B57283  24.446  42.846   6.464
 4463POPC   C2B57284  24.513  42.909   6.764
 4463POPC   C3B57285  24.468  42.839   7.064
 4463POPC   C4B57286  24.546  42.876   7.364
 4464POPC   NC357287  21.354  35.345   5.564
 4464POPC   PO457288  21.345  35.375   5.864
 4464POPC   GL157289  21.394  35.337   6.164
 4464POPC   GL257290  21.505  35.361   6.164
 4464POPC   C1A57291  21.379  35.331   6.464
 4464POPC   D2A57292  21.410  35.399   6.764
 4464POPC   C3A57293  21.393  35.386   7.064
 4464POPC   C4A57294  21.415  35.348   7.364
 4464POPC   C1B57295  21.651  35.408   6.464
 4464POPC   C2B57296  21.672  35.380   6.764
 4464POPC   C3B57297  21.583  35.449   7.064
 4464POPC   C4B57298  21.639  35.398   7.364
 4465POPC   NC357299  38.423  18.268   5.564
 4465POPC   PO457300  38.442  18.313   5.864
 4465POPC   GL157301  38.454  18.238   6.164
 4465POPC   GL257302  38.622  18.318   6.164
 4465POPC   C1A57303  38.443  18.290   6.464
 4465POPC   D2A57304  38.429  18.270   6.764
 4465POPC   C3A57305  38.497  18.306   7.064
 4465POPC   C4A57306  38.485  18.260   7.364
 4465POPC   C1B57307  38.703  18.378   6.464
 4465POPC   C2B57308  38.728  18.314   6.764
 4465POPC   C3B57309  38.674  18.325   7.064
 4465POPC   C4B57310  38.729  18.339   7.364
 4466POPC   NC357311  29.961  25.272   5.564
 4466POPC   PO457312  29.923  25.239   5.864
 4466POPC   GL157313  29.934  25.242   6.164
 4466POPC   GL257314  29.823  25.365   6.164
 4466POPC   C1A57315  29.880  25.278   6.464
 4466POPC   D2A57316  29.967  25.298   6.764
 4466POPC   C3A57317  29.954  25.238   7.064
 4466POPC   C4A57318  29.879  25.221   7.364
 4466POPC   C1B57319  29.696  25.381   6.464
 4466POPC   C2B57320  29.709  25.347   6.764
 4466POPC   C3B57321  29.647  25.383   7.064
 4466POPC   C4B57322  29.666  25.394   7.364
 4467POPC   NC357323  29.133  33.071   5.564
 4467POPC   PO457324  29.194  33.003   5.864
 4467POPC   GL157325  29.194  33.016   6.164
 4467POPC   GL257326  29.302  32.974   6.164
 4467POPC   C1A57327  29.180  33.010   6.464
 4467POPC   D2A57328  29.188  33.017   6.764
 4467POPC   C3A57329  29.186  33.040   7.064
 4467POPC   C4A57330  29.133  33.029   7.364
 4467POPC   C1B57331  29.390  32.967   6.464
 4467POPC   C2B57332  29.358  32.939   6.764
 4467POPC   C3B57333  29.392  32.915   7.064
 4467POPC   C4B57334  29.378  32.985   7.364
 4468POPC   NC357335  25.223  43.133   5.564
 4468POPC   PO457336  25.280  43.129   5.864
 4468POPC   GL157337  25.292  43.124   6.164
 4468POPC   GL257338  25.181  43.027   6.164
 4468POPC   C1A57339  25.299  43.081   6.464
 4468POPC   D2A57340  25.251  43.153   6.764
 4468POPC   C3A57341  25.300  43.105   7.064
 4468POPC   C4A57342  25.309  43.085   7.364
 4468POPC   C1B57343  25.178  42.834   6.464
 4468POPC   C2B57344  25.239  42.843   6.764
 4468POPC   C3B57345  25.176  42.920   7.064
 4468POPC   C4B57346  25.221  42.824   7.364
 4469POPC   NC357347   9.796   5.880   5.564
 4469POPC   PO457348   9.715   5.899   5.864
 4469POPC   GL157349   9.765   5.874   6.164
 4469POPC   GL257350   9.644   5.858   6.164
 4469POPC   C1A57351   9.788   5.875   6.464
 4469POPC   D2A57352   9.722   5.899   6.764
 4469POPC   C3A57353   9.796   5.893   7.064
 4469POPC   C4A57354   9.754   5.838   7.364
 4469POPC   C1B57355   9.501   5.844   6.464
 4469POPC   C2B57356   9.550   5.794   6.764
 4469POPC   C3B57357   9.534   5.788   7.064
 4469POPC   C4B57358   9.538   5.840   7.364
 4470POPC   NC357359  25.295  43.845   5.564
 4470POPC   PO457360  25.248  43.890   5.864
 4470POPC   GL157361  25.249  43.899   6.164
 4470POPC   GL257362  25.302  43.983   6.164
 4470POPC   C1A57363  25.312  43.867   6.464
 4470POPC   D2A57364  25.262  43.919   6.764
 4470POPC   C3A57365  25.216  43.935   7.064
 4470POPC   C4A57366  25.291  43.864   7.364
 4470POPC   C1B57367  25.427  44.096   6.464
 4470POPC   C2B57368  25.393  44.097   6.764
 4470POPC   C3B57369  25.388  44.031   7.064
 4470POPC   C4B57370  25.405  44.068   7.364
 4471POPC   NC357371   1.954  29.924   5.564
 4471POPC   PO457372   2.020  29.889   5.864
 4471POPC   GL157373   2.028  29.932   6.164
 4471POPC   GL257374   2.104  29.787   6.164
 4471POPC   C1A57375   1.971  29.948   6.464
 4471POPC   D2A57376   1.999  29.929   6.764
 4471POPC   C3A57377   1.981  29.970   7.064
 4471POPC   C4A57378   2.017  29.923   7.364
 4471POPC   C1B57379   2.121  29.733   6.464
 4471POPC   C2B57380   2.165  29.760   6.764
 4471POPC   C3B57381   2.114  29.774   7.064
 4471POPC   C4B57382   2.119  29.728   7.364
 4472POPC   NC357383  33.830  10.499   5.564
 4472POPC   PO457384  33.826  10.541   5.864
 4472POPC   GL157385  33.839  10.491   6.164
 4472POPC   GL257386  33.884  10.376   6.164
 4472POPC   C1A57387  33.822  10.553   6.464
 4472POPC   D2A57388  33.810  10.540   6.764
 4472POPC   C3A57389  33.775  10.562   7.064
 4472POPC   C4A57390  33.834  10.493   7.364
 4472POPC   C1B57391  33.967  10.258   6.464
 4472POPC   C2B57392  33.951  10.350   6.764
 4472POPC   C3B57393  33.909  10.333   7.064
 4472POPC   C4B57394  33.879  10.303   7.364
 4473POPC   NC357395  40.825  12.115   5.564
 4473POPC   PO457396  40.762  12.090   5.864
 4473POPC   GL157397  40.788  12.043   6.164
 4473POPC   GL257398  40.632  12.152   6.164
 4473POPC   C1A57399  40.824  12.057   6.464
 4473POPC   D2A57400  40.820  12.033   6.764
 4473POPC   C3A57401  40.737  12.102   7.064
 4473POPC   C4A57402  40.756  12.083   7.364
 4473POPC   C1B57403  40.542  12.194   6.464
 4473POPC   C2B57404  40.539  12.160   6.764
 4473POPC   C3B57405  40.524  12.192   7.064
 4473POPC   C4B57406  40.562  12.160   7.364
 4474POPC   NC357407  19.864   5.112   5.564
 4474POPC   PO457408  19.882   5.138   5.864
 4474POPC   GL157409  19.838   5.062   6.164
 4474POPC   GL257410  19.730   5.033   6.164
 4474POPC   C1A57411  19.876   5.081   6.464
 4474POPC   D2A57412  19.805   5.079   6.764
 4474POPC   C3A57413  19.817   5.098   7.064
 4474POPC   C4A57414  19.854   5.136   7.364
 4474POPC   C1B57415  19.652   4.981   6.464
 4474POPC   C2B57416  19.633   4.954   6.764
 4474POPC   C3B57417  19.666   4.987   7.064
 4474POPC   C4B57418  19.609   4.978   7.364
 4475POPC   NC357419  14.409   8.197   5.564
 4475POPC   PO457420  14.414   8.230   5.864
 4475POPC   GL157421  14.378   8.208   6.164
 4475POPC   GL257422  14.418   8.362   6.164
 4475POPC   C1A57423  14.430   8.200   6.464
 4475POPC   D2A57424  14.371   8.237   6.764
 4475POPC   C3A57425  14.435   8.223   7.064
 4475POPC   C4A57426  14.422   8.173   7.364
 4475POPC   C1B57427  14.404   8.468   6.464
 4475POPC   C2B57428  14.374   8.464   6.764
 4475POPC   C3B57429  14.408   8.457   7.064
 4475POPC   C4B57430  14.428   8.483   7.364
 4476POPC   NC357431  12.877  41.601   5.564
 4476POPC   PO457432  12.820  41.509   5.864
 4476POPC   GL157433  12.891  41.586   6.164
 4476POPC   GL257434  12.899  41.681   6.164
 4476POPC   C1A57435  12.869  41.513   6.464
 4476POPC   D2A57436  12.817  41.564   6.764
 4476POPC   C3A57437  12.893  41.530   7.064
 4476POPC   C4A57438  12.844  41.579   7.364
 4476POPC   C1B57439  12.972  41.707   6.464
 4476POPC   C2B57440  13.022  41.731   6.764
 4476POPC   C3B57441  13.042  41.792   7.064
 4476POPC   C4B57442  12.982  41.750   7.364
 4477POPC   NC357443  44.667  21.430   5.564
 4477POPC   PO457444  44.629  21.367   5.864
 4477POPC   GL157445  44.613  21.385   6.164
 4477POPC   GL257446  44.742  21.544   6.164
 4477POPC   C1A57447  44.637  21.378   6.464
 4477POPC   D2A57448  44.647  21.358   6.764
 4477POPC   C3A57449  44.621  21.373   7.064
 4477POPC   C4A57450  44.613  21.397   7.364
 4477POPC   C1B57451  44.694  21.598   6.464
 4477POPC   C2B57452  44.730  21.605   6.764
 4477POPC   C3B57453  44.736  21.617   7.064
 4477POPC   C4B57454  44.776  21.656   7.364
 4478POPC   NC357455   3.536   5.830   5.564
 4478POPC   PO457456   3.585   5.909   5.864
 4478POPC   GL157457   3.561   5.843   6.164
 4478POPC   GL257458   3.675   5.858   6.164
 4478POPC   C1A57459   3.499   5.875   6.464
 4478POPC   D2A57460   3.502   5.886   6.764
 4478POPC   C3A57461   3.524   5.893   7.064
 4478POPC   C4A57462   3.538   5.875   7.364
 4478POPC   C1B57463   3.824   5.967   6.464
 4478POPC   C2B57464   3.745   5.986   6.764
 4478POPC   C3B57465   3.769   5.911   7.064
 4478POPC   C4B57466   3.820   5.935   7.364
 4479POPC   NC357467  17.462  29.157   5.564
 4479POPC   PO457468  17.476  29.100   5.864
 4479POPC   GL157469  17.546  29.096   6.164
 4479POPC   GL257470  17.425  28.989   6.164
 4479POPC   C1A57471  17.461  29.165   6.464
 4479POPC   D2A57472  17.472  29.138   6.764
 4479POPC   C3A57473  17.479  29.117   7.064
 4479POPC   C4A57474  17.509  29.177   7.364
 4479POPC   C1B57475  17.378  28.890   6.464
 4479POPC   C2B57476  17.422  28.971   6.764
 4479POPC   C3B57477  17.341  28.942   7.064
 4479POPC   C4B57478  17.378  28.963   7.364
 4480POPC   NC357479  10.497  15.919   5.564
 4480POPC   PO457480  10.521  15.993   5.864
 4480POPC   GL157481  10.546  15.925   6.164
 4480POPC   GL257482  10.649  15.857   6.164
 4480POPC   C1A57483  10.556  15.919   6.464
 4480POPC   D2A57484  10.566  15.977   6.764
 4480POPC   C3A57485  10.558  15.998   7.064
 4480POPC   C4A57486  10.503  15.935   7.364
 4480POPC   C1B57487  10.715  15.853   6.464
 4480POPC   C2B57488  10.718  15.863   6.764
 4480POPC   C3B57489  10.782  15.840   7.064
 4480POPC   C4B57490  10.753  15.849   7.364
 4481POPC   NC357491   1.968   2.018   5.564
 4481POPC   PO457492   1.994   2.031   5.864
 4481POPC   GL157493   1.988   2.007   6.164
 4481POPC   GL257494   2.058   2.056   6.164
 4481POPC   C1A57495   1.986   1.945   6.464
 4481POPC   D2A57496   1.994   2.007   6.764
 4481POPC   C3A57497   1.955   2.006   7.064
 4481POPC   C4A57498   2.023   1.996   7.364
 4481POPC   C1B57499   2.185   2.076   6.464
 4481POPC   C2B57500   2.256   2.045   6.764
 4481POPC   C3B57501   2.224   2.101   7.064
 4481POPC   C4B57502   2.226   2.083   7.364
 4482POPC   NC357503  30.691  15.942   5.564
 4482POPC   PO457504  30.717  15.983   5.864
 4482POPC   GL157505  30.746  15.907   6.164
 4482POPC   GL257506  30.594  15.942   6.164
 4482POPC   C1A57507  30.691  15.910   6.464
 4482POPC   D2A57508  30.719  15.944   6.764
 4482POPC   C3A57509  30.729  15.984   7.064
 4482POPC   C4A57510  30.726  15.949   7.364
 4482POPC   C1B57511  30.407  15.983   6.464
 4482POPC   C2B57512  30.438  15.982   6.764
 4482POPC   C3B57513  30.445  15.928   7.064
 4482POPC   C4B57514  30.454  15.915   7.364
 4483POPC   NC357515  15.154  40.785   5.564
 4483POPC   PO457516  15.132  40.735   5.864
 4483POPC   GL157517  15.169  40.765   6.164
 4483POPC   GL257518  15.313  40.833   6.164
 4483POPC   C1A57519  15.213  40.805   6.464
 4483POPC   D2A57520  15.221  40.762   6.764
 4483POPC   C3A57521  15.190  40.829   7.064
 4483POPC   C4A57522  15.158  40.791   7.364
 4483POPC   C1B57523  15.387  40.926   6.464
 4483POPC   C2B57524  15.383  40.966   6.764
 4483POPC   C3B57525  15.402  40.944   7.064
 4483POPC   C4B57526  15.344  40.933   7.364
 4484POPC   NC357527  37.707  21.401   5.564
 4484POPC   PO457528  37.663  21.418   5.864
 4484POPC   GL157529  37.671  21.399   6.164
 4484POPC   GL257530  37.777  21.391   6.164
 4484POPC   C1A57531  37.633  21.399   6.464
 4484POPC   D2A57532  37.652  21.365   6.764
 4484POPC   C3A57533  37.666  21.433   7.064
 4484POPC   C4A57534  37.715  21.351   7.364
 4484POPC   C1B57535  37.921  21.430   6.464
 4484POPC   C2B57536  37.938  21.423   6.764
 4484POPC   C3B57537  37.906  21.398   7.064
 4484POPC   C4B57538  37.956  21.345   7.364
 4485POPC   NC357539  36.134  19.024   5.564
 4485POPC   PO457540  36.101  19.063   5.864
 4485POPC   GL157541  36.109  19.012   6.164
 4485POPC   GL257542  36.216  18.941   6.164
 4485POPC   C1A57543  36.169  19.027   6.464
 4485POPC   D2A57544  36.135  19.029   6.764
 4485POPC   C3A57545  36.128  19.062   7.064
 4485POPC   C4A57546  36.098  19.087   7.364
 4485POPC   C1B57547  36.310  18.841   6.464
 4485POPC   C2B57548  36.235  18.899   6.764
 4485POPC   C3B57549  36.313  18.846   7.064
 4485POPC   C4B57550  36.245  18.871   7.364
 4486POPC   NC357551  18.269  11.296   5.564
 4486POPC   PO457552  18.258  11.343   5.864
 4486POPC   GL157553  18.310  11.310   6.164
 4486POPC   GL257554  18.139  11.345   6.164
 4486POPC   C1A57555  18.303  11.287   6.464
 4486POPC   D2A57556  18.266  11.290   6.764
 4486POPC   C3A57557  18.233  11.322   7.064
 4486POPC   C4A57558  18.245  11.330   7.364
 4486POPC   C1B57559  18.048  11.406   6.464
 4486POPC   C2B57560  18.091  11.453   6.764
 4486POPC   C3B57561  18.055  11.382   7.064
 4486POPC   C4B57562  18.083  11.422   7.364
 4487POPC   NC357563  43.149   2.730   5.564
 4487POPC   PO457564  43.070   2.758   5.864
 4487POPC   GL157565  43.086   2.778   6.164
 4487POPC   GL257566  43.031   2.720   6.164
 4487POPC   C1A57567  43.105   2.788   6.464
 4487POPC   D2A57568  43.097   2.812   6.764
 4487POPC   C3A57569  43.112   2.794   7.064
 4487POPC   C4A57570  43.141   2.736   7.364
 4487POPC   C1B57571  42.934   2.561   6.464
 4487POPC   C2B57572  42.945   2.608   6.764
 4487POPC   C3B57573  42.967   2.618   7.064
 4487POPC   C4B57574  42.889   2.592   7.364
 4488POPC   NC357575  19.790  16.774   5.564
 4488POPC   PO457576  19.807  16.694   5.864
 4488POPC   GL157577  19.831  16.767   6.164
 4488POPC   GL257578  19.928  16.796   6.164
 4488POPC   C1A57579  19.859  16.710   6.464
 4488POPC   D2A57580  19.790  16.780   6.764
 4488POPC   C3A57581  19.834  16.743   7.064
 4488POPC   C4A57582  19.857  16.735   7.364
 4488POPC   C1B57583  20.070  16.782   6.464
 4488POPC   C2B57584  20.106  16.769   6.764
 4488POPC   C3B57585  20.066  16.810   7.064
 4488POPC   C4B57586  20.117  16.749   7.364
 4489POPC   NC357587  17.527  17.473   5.564
 4489POPC   PO457588  17.468  17.477   5.864
 4489POPC   GL157589  17.483  17.509   6.164
 4489POPC   GL257590  17.606  17.547   6.164
 4489POPC   C1A57591  17.526  17.458   6.464
 4489POPC   D2A57592  17.541  17.550   6.764
 4489POPC   C3A57593  17.535  17.477   7.064
 4489POPC   C4A57594  17.463  17.461   7.364
 4489POPC   C1B57595  17.706  17.586   6.464
 4489POPC   C2B57596  17.791  17.499   6.764
 4489POPC   C3B57597  17.719  17.594   7.064
 4489POPC   C4B57598  17.797  17.550   7.364
 4490POPC   NC357599  25.308  17.494   5.564
 4490POPC   PO457600  25.267  17.484   5.864
 4490POPC   GL157601  25.304  17.526   6.164
 4490POPC   GL257602  25.229  17.397   6.164
 4490POPC   C1A57603  25.299  17.491   6.464
 4490POPC   D2A57604  25.281  17.479   6.764
 4490POPC   C3A57605  25.251  17.499   7.064
 4490POPC   C4A57606  25.260  17.498   7.364
 4490POPC   C1B57607  25.289  17.226   6.464
 4490POPC   C2B57608  25.248  17.219   6.764
 4490POPC   C3B57609  25.314  17.292   7.064
 4490POPC   C4B57610  25.299  17.291   7.364
 4491POPC   NC357611   5.139  22.913   5.564
 4491POPC   PO457612   5.107  22.977   5.864
 4491POPC   GL157613   5.136  22.894   6.164
 4491POPC   GL257614   5.011  23.036   6.164
 4491POPC   C1A57615   5.044  22.893   6.464
 4491POPC   D2A57616   5.113  22.916   6.764
 4491POPC   C3A57617   5.093  22.987   7.064
 4491POPC   C4A57618   5.140  22.929   7.364
 4491POPC   C1B57619   5.031  23.170   6.464
 4491POPC   C2B57620   5.017  23.203   6.764
 4491POPC   C3B57621   4.992  23.214   7.064
 4491POPC   C4B57622   4.967  23.214   7.364
 4492POPC   NC357623  15.218  20.615   5.564
 4492POPC   PO457624  15.177  20.644   5.864
 4492POPC   GL157625  15.219  20.612   6.164
 4492POPC   GL257626  15.272  20.558   6.164
 4492POPC   C1A57627  15.160  20.605   6.464
 4492POPC   D2A57628  15.158  20.612   6.764
 4492POPC   C3A57629  15.171  20.611   7.064
 4492POPC   C4A57630  15.225  20.565   7.364
 4492POPC   C1B57631  15.472  20.599   6.464
 4492POPC   C2B57632  15.383  20.563   6.764
 4492POPC   C3B57633  15.439  20.599   7.064
 4492POPC   C4B57634  15.445  20.535   7.364
 4493POPC   NC357635  20.597  26.009   5.564
 4493POPC   PO457636  20.635  26.088   5.864
 4493POPC   GL157637  20.590  26.070   6.164
 4493POPC   GL257638  20.759  25.948   6.164
 4493POPC   C1A57639  20.587  26.067   6.464
 4493POPC   D2A57640  20.650  26.035   6.764
 4493POPC   C3A57641  20.619  26.035   7.064
 4493POPC   C4A57642  20.578  26.066   7.364
 4493POPC   C1B57643  20.868  25.909   6.464
 4493POPC   C2B57644  20.817  25.892   6.764
 4493POPC   C3B57645  20.814  25.894   7.064
 4493POPC   C4B57646  20.875  25.915   7.364
 4494POPC   NC357647  12.864   0.416   5.564
 4494POPC   PO457648  12.841   0.446   5.864
 4494POPC   GL157649  12.856   0.392   6.164
 4494POPC   GL257650  12.736   0.405   6.164
 4494POPC   C1A57651  12.888   0.432   6.464
 4494POPC   D2A57652  12.851   0.481   6.764
 4494POPC   C3A57653  12.870   0.435   7.064
 4494POPC   C4A57654  12.894   0.419   7.364
 4494POPC   C1B57655  12.668   0.353   6.464
 4494POPC   C2B57656  12.591   0.343   6.764
 4494POPC   C3B57657  12.619   0.372   7.064
 4494POPC   C4B57658  12.632   0.302   7.364
 4495POPC   NC357659   0.451  39.239   5.564
 4495POPC   PO457660   0.448  39.266   5.864
 4495POPC   GL157661   0.464  39.266   6.164
 4495POPC   GL257662   0.421  39.118   6.164
 4495POPC   C1A57663   0.434  39.231   6.464
 4495POPC   D2A57664   0.439  39.250   6.764
 4495POPC   C3A57665   0.449  39.233   7.064
 4495POPC   C4A57666   0.449  39.269   7.364
 4495POPC   C1B57667   0.286  39.011   6.464
 4495POPC   C2B57668   0.286  38.977   6.764
 4495POPC   C3B57669   0.304  39.067   7.064
 4495POPC   C4B57670   0.343  39.052   7.364
 4496POPC   NC357671  36.091  26.859   5.564
 4496POPC   PO457672  36.159  26.772   5.864
 4496POPC   GL157673  36.148  26.827   6.164
 4496POPC   GL257674  36.036  26.761   6.164
 4496POPC   C1A57675  36.131  26.813   6.464
 4496POPC   D2A57676  36.109  26.775   6.764
 4496POPC   C3A57677  36.150  26.838   7.064
 4496POPC   C4A57678  36.136  26.851   7.364
 4496POPC   C1B57679  35.924  26.744   6.464
 4496POPC   C2B57680  35.897  26.770   6.764
 4496POPC   C3B57681  35.855  26.813   7.064
 4496POPC   C4B57682  35.901  26.742   7.364
 4497POPC   NC357683  36.164  12.856   5.564
 4497POPC   PO457684  36.125  12.898   5.864
 4497POPC   GL157685  36.148  12.812   6.164
 4497POPC   GL257686  36.056  12.808   6.164
 4497POPC   C1A57687  36.098  12.814   6.464
 4497POPC   D2A57688  36.087  12.830   6.764
 4497POPC   C3A57689  36.158  12.806   7.064
 4497POPC   C4A57690  36.145  12.817   7.364
 4497POPC   C1B57691  35.990  12.638   6.464
 4497POPC   C2B57692  35.960  12.633   6.764
 4497POPC   C3B57693  35.973  12.666   7.064
 4497POPC   C4B57694  35.943  12.622   7.364
 4498POPC   NC357695  33.047  37.651   5.564
 4498POPC   PO457696  33.021  37.698   5.864
 4498POPC   GL157697  33.003  37.724   6.164
 4498POPC   GL257698  32.920  37.782   6.164
 4498POPC   C1A57699  32.982  37.706   6.464
 4498POPC   D2A57700  32.987  37.680   6.764
 4498POPC   C3A57701  33.042  37.703   7.064
 4498POPC   C4A57702  33.054  37.666   7.364
 4498POPC   C1B57703  32.880  37.925   6.464
 4498POPC   C2B57704  32.873  37.932   6.764
 4498POPC   C3B57705  32.926  37.882   7.064
 4498POPC   C4B57706  32.864  37.861   7.364
 4499POPC   NC357707  28.371  20.601   5.564
 4499POPC   PO457708  28.375  20.577   5.864
 4499POPC   GL157709  28.362  20.598   6.164
 4499POPC   GL257710  28.275  20.612   6.164
 4499POPC   C1A57711  28.328  20.593   6.464
 4499POPC   D2A57712  28.386  20.566   6.764
 4499POPC   C3A57713  28.354  20.636   7.064
 4499POPC   C4A57714  28.362  20.654   7.364
 4499POPC   C1B57715  28.130  20.556   6.464
 4499POPC   C2B57716  28.161  20.599   6.764
 4499POPC   C3B57717  28.129  20.514   7.064
 4499POPC   C4B57718  28.103  20.541   7.364
 4500POPC   NC357719  25.259   1.975   5.564
 4500POPC   PO457720  25.232   2.033   5.864
 4500POPC   GL157721  25.263   2.034   6.164
 4500POPC   GL257722  25.207   2.099   6.164
 4500POPC   C1A57723  25.288   1.973   6.464
 4500POPC   D2A57724  25.295   2.024   6.764
 4500POPC   C3A57725  25.288   1.990   7.064
 4500POPC   C4A57726  25.311   1.984   7.364
 4500POPC   C1B57727  25.197   2.224   6.464
 4500POPC   C2B57728  25.263   2.285   6.764
 4500POPC   C3B57729  25.210   2.191   7.064
 4500POPC   C4B57730  25.222   2.238   7.364
 4501POPC   NC357731  37.708  22.173   5.564
 4501POPC   PO457732  37.631  22.158   5.864
 4501POPC   GL157733  37.679  22.169   6.164
 4501POPC   GL257734  37.787  22.058   6.164
 4501POPC   C1A57735  37.698  22.117   6.464
 4501POPC   D2A57736  37.717  22.113   6.764
 4501POPC   C3A57737  37.637  22.144   7.064
 4501POPC   C4A57738  37.709  22.158   7.364
 4501POPC   C1B57739  37.750  21.939   6.464
 4501POPC   C2B57740  37.819  21.928   6.764
 4501POPC   C3B57741  37.818  21.909   7.064
 4501POPC   C4B57742  37.791  21.918   7.364
 4502POPC   NC357743  17.464  11.313   5.564
 4502POPC   PO457744  17.503  11.280   5.864
 4502POPC   GL157745  17.457  11.331   6.164
 4502POPC   GL257746  17.506  11.426   6.164
 4502POPC   C1A57747  17.490  11.307   6.464
 4502POPC   D2A57748  17.553  11.277   6.764
 4502POPC   C3A57749  17.519  11.266   7.064
 4502POPC   C4A57750  17.555  11.336   7.364
 4502POPC   C1B57751  17.426  11.556   6.464
 4502POPC   C2B57752  17.458  11.564   6.764
 4502POPC   C3B57753  17.416  11.485   7.064
 4502POPC   C4B57754  17.374  11.528   7.364
 4503POPC   NC357755   6.653  22.141   5.564
 4503POPC   PO457756   6.670  22.140   5.864
 4503POPC   GL157757   6.610  22.191   6.164
 4503POPC   GL257758   6.631  22.335   6.164
 4503POPC   C1A57759   6.615  22.173   6.464
 4503POPC   D2A57760   6.618  22.198   6.764
 4503POPC   C3A57761   6.624  22.113   7.064
 4503POPC   C4A57762   6.620  22.204   7.364
 4503POPC   C1B57763   6.715  22.363   6.464
 4503POPC   C2B57764   6.702  22.415   6.764
 4503POPC   C3B57765   6.739  22.407   7.064
 4503POPC   C4B57766   6.671  22.451   7.364
 4504POPC   NC357767  15.959  23.678   5.564
 4504POPC   PO457768  15.907  23.733   5.864
 4504POPC   GL157769  15.907  23.740   6.164
 4504POPC   GL257770  16.025  23.776   6.164
 4504POPC   C1A57771  15.963  23.741   6.464
 4504POPC   D2A57772  15.944  23.684   6.764
 4504POPC   C3A57773  15.960  23.740   7.064
 4504POPC   C4A57774  15.928  23.736   7.364
 4504POPC   C1B57775  16.171  23.754   6.464
 4504POPC   C2B57776  16.169  23.837   6.764
 4504POPC   C3B57777  16.209  23.825   7.064
 4504POPC   C4B57778  16.229  23.788   7.364
 4505POPC   NC357779   8.235  36.910   5.564
 4505POPC   PO457780   8.172  36.887   5.864
 4505POPC   GL157781   8.202  36.881   6.164
 4505POPC   GL257782   8.186  36.789   6.164
 4505POPC   C1A57783   8.147  36.933   6.464
 4505POPC   D2A57784   8.220  36.910   6.764
 4505POPC   C3A57785   8.213  36.897   7.064
 4505POPC   C4A57786   8.230  36.909   7.364
 4505POPC   C1B57787   8.058  36.728   6.464
 4505POPC   C2B57788   8.089  36.663   6.764
 4505POPC   C3B57789   8.108  36.631   7.064
 4505POPC   C4B57790   8.073  36.652   7.364
 4506POPC   NC357791   8.206  38.419   5.564
 4506POPC   PO457792   8.245  38.492   5.864
 4506POPC   GL157793   8.225  38.469   6.164
 4506POPC   GL257794   8.180  38.544   6.164
 4506POPC   C1A57795   8.192  38.448   6.464
 4506POPC   D2A57796   8.148  38.483   6.764
 4506POPC   C3A57797   8.228  38.469   7.064
 4506POPC   C4A57798   8.182  38.428   7.364
 4506POPC   C1B57799   8.175  38.721   6.464
 4506POPC   C2B57800   8.160  38.736   6.764
 4506POPC   C3B57801   8.141  38.723   7.064
 4506POPC   C4B57802   8.091  38.697   7.364
 4507POPC   NC357803  33.790   5.872   5.564
 4507POPC   PO457804  33.757   5.838   5.864
 4507POPC   GL157805  33.762   5.854   6.164
 4507POPC   GL257806  33.871   5.818   6.164
 4507POPC   C1A57807  33.831   5.895   6.464
 4507POPC   D2A57808  33.760   5.853   6.764
 4507POPC   C3A57809  33.810   5.908   7.064
 4507POPC   C4A57810  33.822   5.902   7.364
 4507POPC   C1B57811  34.032   5.733   6.464
 4507POPC   C2B57812  34.006   5.751   6.764
 4507POPC   C3B57813  34.024   5.724   7.064
 4507POPC   C4B57814  33.992   5.728   7.364
 4508POPC   NC357815  41.511  44.669   5.564
 4508POPC   PO457816  41.599  44.699   5.864
 4508POPC   GL157817  41.598  44.682   6.164
 4508POPC   GL257818  41.661  44.664   6.164
 4508POPC   C1A57819  41.538  44.657   6.464
 4508POPC   D2A57820  41.510  44.626   6.764
 4508POPC   C3A57821  41.521  44.639   7.064
 4508POPC   C4A57822  41.585  44.674   7.364
 4508POPC   C1B57823  41.853  44.721   6.464
 4508POPC   C2B57824  41.852  44.720   6.764
 4508POPC   C3B57825  41.769  44.679   7.064
 4508POPC   C4B57826  41.807  44.635   7.364
 4509POPC   NC357827   7.463  33.772   5.564
 4509POPC   PO457828   7.409  33.799   5.864
 4509POPC   GL157829   7.435  33.795   6.164
 4509POPC   GL257830   7.521  33.848   6.164
 4509POPC   C1A57831   7.429  33.787   6.464
 4509POPC   D2A57832   7.409  33.787   6.764
 4509POPC   C3A57833   7.400  33.750   7.064
 4509POPC   C4A57834   7.397  33.765   7.364
 4509POPC   C1B57835   7.684  33.871   6.464
 4509POPC   C2B57836   7.678  33.858   6.764
 4509POPC   C3B57837   7.656  33.810   7.064
 4509POPC   C4B57838   7.716  33.857   7.364
 4510POPC   NC357839  28.349   1.991   5.564
 4510POPC   PO457840  28.338   1.940   5.864
 4510POPC   GL157841  28.393   1.952   6.164
 4510POPC   GL257842  28.339   2.153   6.164
 4510POPC   C1A57843  28.371   1.980   6.464
 4510POPC   D2A57844  28.319   2.028   6.764
 4510POPC   C3A57845  28.396   1.953   7.064
 4510POPC   C4A57846  28.415   2.034   7.364
 4510POPC   C1B57847  28.374   2.213   6.464
 4510POPC   C2B57848  28.354   2.252   6.764
 4510POPC   C3B57849  28.333   2.264   7.064
 4510POPC   C4B57850  28.414   2.227   7.364
 4511POPC   NC357851  19.044   0.487   5.564
 4511POPC   PO457852  19.096   0.458   5.864
 4511POPC   GL157853  19.097   0.426   6.164
 4511POPC   GL257854  18.931   0.375   6.164
 4511POPC   C1A57855  19.074   0.424   6.464
 4511POPC   D2A57856  19.094   0.432   6.764
 4511POPC   C3A57857  19.014   0.402   7.064
 4511POPC   C4A57858  19.029   0.420   7.364
 4511POPC   C1B57859  18.792   0.346   6.464
 4511POPC   C2B57860  18.873   0.317   6.764
 4511POPC   C3B57861  18.853   0.374   7.064
 4511POPC   C4B57862  18.839   0.365   7.364
 4512POPC   NC357863  19.787  17.510   5.564
 4512POPC   PO457864  19.841  17.481   5.864
 4512POPC   GL157865  19.832  17.460   6.164
 4512POPC   GL257866  19.932  17.601   6.164
 4512POPC   C1A57867  19.824  17.472   6.464
 4512POPC   D2A57868  19.791  17.535   6.764
 4512POPC   C3A57869  19.798  17.536   7.064
 4512POPC   C4A57870  19.877  17.524   7.364
 4512POPC   C1B57871  20.015  17.566   6.464
 4512POPC   C2B57872  20.063  17.582   6.764
 4512POPC   C3B57873  20.087  17.655   7.064
 4512POPC   C4B57874  20.039  17.568   7.364
 4513POPC   NC357875  37.724   0.414   5.564
 4513POPC   PO457876  37.689   0.395   5.864
 4513POPC   GL157877  37.681   0.475   6.164
 4513POPC   GL257878  37.642   0.335   6.164
 4513POPC   C1A57879  37.688   0.399   6.464
 4513POPC   D2A57880  37.674   0.389   6.764
 4513POPC   C3A57881  37.693   0.435   7.064
 4513POPC   C4A57882  37.639   0.446   7.364
 4513POPC   C1B57883  37.642   0.207   6.464
 4513POPC   C2B57884  37.640   0.182   6.764
 4513POPC   C3B57885  37.646   0.194   7.064
 4513POPC   C4B57886  37.595   0.211   7.364
 4514POPC   NC357887  15.196  18.310   5.564
 4514POPC   PO457888  15.184  18.280   5.864
 4514POPC   GL157889  15.198  18.268   6.164
 4514POPC   GL257890  15.338  18.303   6.164
 4514POPC   C1A57891  15.223  18.258   6.464
 4514POPC   D2A57892  15.175  18.320   6.764
 4514POPC   C3A57893  15.199  18.236   7.064
 4514POPC   C4A57894  15.218  18.246   7.364
 4514POPC   C1B57895  15.442  18.335   6.464
 4514POPC   C2B57896  15.405  18.296   6.764
 4514POPC   C3B57897  15.389  18.322   7.064
 4514POPC   C4B57898  15.388  18.313   7.364
 4515POPC   NC357899  44.647  16.711   5.564
 4515POPC   PO457900  44.652  16.756   5.864
 4515POPC   GL157901  44.694  16.729   6.164
 4515POPC   GL257902  44.599  16.886   6.164
 4515POPC   C1A57903  44.629  16.682   6.464
 4515POPC   D2A57904  44.681  16.781   6.764
 4515POPC   C3A57905  44.672  16.740   7.064
 4515POPC   C4A57906  44.648  16.773   7.364
 4515POPC   C1B57907  44.580  16.954   6.464
 4515POPC   C2B57908  44.556  17.002   6.764
 4515POPC   C3B57909  44.541  16.915   7.064
 4515POPC   C4B57910  44.526  16.955   7.364
 4516POPC   NC357911  29.898   3.589   5.564
 4516POPC   PO457912  29.931   3.513   5.864
 4516POPC   GL157913  29.903   3.513   6.164
 4516POPC   GL257914  29.846   3.662   6.164
 4516POPC   C1A57915  29.890   3.532   6.464
 4516POPC   D2A57916  29.919   3.522   6.764
 4516POPC   C3A57917  29.884   3.551   7.064
 4516POPC   C4A57918  29.962   3.533   7.364
 4516POPC   C1B57919  29.773   3.766   6.464
 4516POPC   C2B57920  29.858   3.726   6.764
 4516POPC   C3B57921  29.774   3.758   7.064
 4516POPC   C4B57922  29.846   3.748   7.364
 4517POPC   NC357923   9.008  26.090   5.564
 4517POPC   PO457924   8.958  26.054   5.864
 4517POPC   GL157925   8.998  26.002   6.164
 4517POPC   GL257926   8.932  25.907   6.164
 4517POPC   C1A57927   8.951  26.088   6.464
 4517POPC   D2A57928   8.992  26.056   6.764
 4517POPC   C3A57929   8.939  25.998   7.064
 4517POPC   C4A57930   8.928  26.062   7.364
 4517POPC   C1B57931   8.931  25.820   6.464
 4517POPC   C2B57932   8.882  25.839   6.764
 4517POPC   C3B57933   8.890  25.797   7.064
 4517POPC   C4B57934   8.883  25.789   7.364
 4518POPC   NC357935  28.356   7.411   5.564
 4518POPC   PO457936  28.411   7.374   5.864
 4518POPC   GL157937  28.359   7.436   6.164
 4518POPC   GL257938  28.290   7.543   6.164
 4518POPC   C1A57939  28.408   7.421   6.464
 4518POPC   D2A57940  28.375   7.407   6.764
 4518POPC   C3A57941  28.399   7.440   7.064
 4518POPC   C4A57942  28.403   7.438   7.364
 4518POPC   C1B57943  28.196   7.560   6.464
 4518POPC   C2B57944  28.148   7.615   6.764
 4518POPC   C3B57945  28.188   7.543   7.064
 4518POPC   C4B57946  28.202   7.590   7.364
 4519POPC   NC357947   5.045  29.896   5.564
 4519POPC   PO457948   5.066  29.942   5.864
 4519POPC   GL157949   5.115  29.927   6.164
 4519POPC   GL257950   5.184  29.884   6.164
 4519POPC   C1A57951   5.098  29.901   6.464
 4519POPC   D2A57952   5.142  29.879   6.764
 4519POPC   C3A57953   5.048  29.909   7.064
 4519POPC   C4A57954   5.140  29.927   7.364
 4519POPC   C1B57955   5.297  29.927   6.464
 4519POPC   C2B57956   5.295  29.873   6.764
 4519POPC   C3B57957   5.311  29.888   7.064
 4519POPC   C4B57958   5.314  29.877   7.364
 4520POPC   NC357959  28.398  19.074   5.564
 4520POPC   PO457960  28.379  19.041   5.864
 4520POPC   GL157961  28.416  19.021   6.164
 4520POPC   GL257962  28.450  19.160   6.164
 4520POPC   C1A57963  28.389  19.058   6.464
 4520POPC   D2A57964  28.324  19.080   6.764
 4520POPC   C3A57965  28.340  19.029   7.064
 4520POPC   C4A57966  28.398  19.009   7.364
 4520POPC   C1B57967  28.555  19.217   6.464
 4520POPC   C2B57968  28.509  19.280   6.764
 4520POPC   C3B57969  28.516  19.200   7.064
 4520POPC   C4B57970  28.513  19.202   7.364
 4521POPC   NC357971  12.125  40.736   5.564
 4521POPC   PO457972  12.060  40.797   5.864
 4521POPC   GL157973  12.101  40.791   6.164
 4521POPC   GL257974  12.179  40.822   6.164
 4521POPC   C1A57975  12.091  40.810   6.464
 4521POPC   D2A57976  12.104  40.766   6.764
 4521POPC   C3A57977  12.107  40.805   7.064
 4521POPC   C4A57978  12.026  40.787   7.364
 4521POPC   C1B57979  12.306  40.866   6.464
 4521POPC   C2B57980  12.309  40.845   6.764
 4521POPC   C3B57981  12.291  40.851   7.064
 4521POPC   C4B57982  12.299  40.851   7.364
 4522POPC   NC357983  36.124  35.331   5.564
 4522POPC   PO457984  36.089  35.357   5.864
 4522POPC   GL157985  36.166  35.324   6.164
 4522POPC   GL257986  36.146  35.227   6.164
 4522POPC   C1A57987  36.088  35.395   6.464
 4522POPC   D2A57988  36.104  35.312   6.764
 4522POPC   C3A57989  36.167  35.333   7.064
 4522POPC   C4A57990  36.118  35.387   7.364
 4522POPC   C1B57991  36.236  35.180   6.464
 4522POPC   C2B57992  36.293  35.099   6.764
 4522POPC   C3B57993  36.215  35.089   7.064
 4522POPC   C4B57994  36.237  35.121   7.364
 4523POPC   NC357995  26.865   4.350   5.564
 4523POPC   PO457996  26.796   4.275   5.864
 4523POPC   GL157997  26.811   4.324   6.164
 4523POPC   GL257998  26.959   4.245   6.164
 4523POPC   C1A57999  26.836   4.308   6.464
 4523POPC   D2A58000  26.770   4.328   6.764
 4523POPC   C3A58001  26.847   4.327   7.064
 4523POPC   C4A58002  26.823   4.329   7.364
 4523POPC   C1B58003  27.067   4.209   6.464
 4523POPC   C2B58004  27.043   4.172   6.764
 4523POPC   C3B58005  27.008   4.128   7.064
 4523POPC   C4B58006  27.016   4.202   7.364
 4524POPC   NC358007  26.810  43.850   5.564
 4524POPC   PO458008  26.807  43.927   5.864
 4524POPC   GL158009  26.822  43.883   6.164
 4524POPC   GL258010  26.744  43.781   6.164
 4524POPC   C1A58011  26.786  43.892   6.464
 4524POPC   D2A58012  26.784  43.921   6.764
 4524POPC   C3A58013  26.824  43.935   7.064
 4524POPC   C4A58014  26.781  43.879   7.364
 4524POPC   C1B58015  26.669  43.690   6.464
 4524POPC   C2B58016  26.636  43.758   6.764
 4524POPC   C3B58017  26.605  43.664   7.064
 4524POPC   C4B58018  26.595  43.748   7.364
 4525POPC   NC358019  33.841  11.277   5.564
 4525POPC   PO458020  33.762  11.326   5.864
 4525POPC   GL158021  33.796  11.283   6.164
 4525POPC   GL258022  33.829  11.160   6.164
 4525POPC   C1A58023  33.803  11.274   6.464
 4525POPC   D2A58024  33.820  11.321   6.764
 4525POPC   C3A58025  33.767  11.285   7.064
 4525POPC   C4A58026  33.821  11.334   7.364
 4525POPC   C1B58027  33.860  11.058   6.464
 4525POPC   C2B58028  33.886  11.053   6.764
 4525POPC   C3B58029  33.886  11.092   7.064
 4525POPC   C4B58030  33.842  11.114   7.364
 4526POPC   NC358031  24.486  14.408   5.564
 4526POPC   PO458032  24.458  14.361   5.864
 4526POPC   GL158033  24.483  14.391   6.164
 4526POPC   GL258034  24.577  14.478   6.164
 4526POPC   C1A58035  24.461  14.414   6.464
 4526POPC   D2A58036  24.487  14.383   6.764
 4526POPC   C3A58037  24.517  14.451   7.064
 4526POPC   C4A58038  24.497  14.411   7.364
 4526POPC   C1B58039  24.660  14.605   6.464
 4526POPC   C2B58040  24.697  14.615   6.764
 4526POPC   C3B58041  24.676  14.550   7.064
 4526POPC   C4B58042  24.630  14.615   7.364
 4527POPC   NC358043  38.476  24.536   5.564
 4527POPC   PO458044  38.466  24.470   5.864
 4527POPC   GL158045  38.414  24.508   6.164
 4527POPC   GL258046  38.461  24.585   6.164
 4527POPC   C1A58047  38.501  24.457   6.464
 4527POPC   D2A58048  38.494  24.487   6.764
 4527POPC   C3A58049  38.461  24.450   7.064
 4527POPC   C4A58050  38.457  24.498   7.364
 4527POPC   C1B58051  38.375  24.689   6.464
 4527POPC   C2B58052  38.332  24.715   6.764
 4527POPC   C3B58053  38.418  24.742   7.064
 4527POPC   C4B58054  38.410  24.684   7.364
 4528POPC   NC358055  24.503   9.747   5.564
 4528POPC   PO458056  24.520   9.763   5.864
 4528POPC   GL158057  24.528   9.785   6.164
 4528POPC   GL258058  24.616   9.703   6.164
 4528POPC   C1A58059  24.489   9.711   6.464
 4528POPC   D2A58060  24.460   9.779   6.764
 4528POPC   C3A58061  24.443   9.712   7.064
 4528POPC   C4A58062  24.538   9.761   7.364
 4528POPC   C1B58063  24.629   9.575   6.464
 4528POPC   C2B58064  24.665   9.538   6.764
 4528POPC   C3B58065  24.645   9.532   7.064
 4528POPC   C4B58066  24.630   9.582   7.364
 4529POPC   NC358067  42.353  34.618   5.564
 4529POPC   PO458068  42.377  34.552   5.864
 4529POPC   GL158069  42.341  34.614   6.164
 4529POPC   GL258070  42.320  34.735   6.164
 4529POPC   C1A58071  42.343  34.535   6.464
 4529POPC   D2A58072  42.383  34.622   6.764
 4529POPC   C3A58073  42.380  34.610   7.064
 4529POPC   C4A58074  42.321  34.586   7.364
 4529POPC   C1B58075  42.345  34.852   6.464
 4529POPC   C2B58076  42.360  34.783   6.764
 4529POPC   C3B58077  42.288  34.846   7.064
 4529POPC   C4B58078  42.317  34.777   7.364
 4530POPC   NC358079  26.829  20.614   5.564
 4530POPC   PO458080  26.798  20.622   5.864
 4530POPC   GL158081  26.823  20.592   6.164
 4530POPC   GL258082  26.790  20.682   6.164
 4530POPC   C1A58083  26.774  20.603   6.464
 4530POPC   D2A58084  26.815  20.604   6.764
 4530POPC   C3A58085  26.792  20.658   7.064
 4530POPC   C4A58086  26.802  20.584   7.364
 4530POPC   C1B58087  26.789  20.815   6.464
 4530POPC   C2B58088  26.772  20.872   6.764
 4530POPC   C3B58089  26.792  20.810   7.064
 4530POPC   C4B58090  26.775  20.803   7.364
 4531POPC   NC358091  39.253  43.077   5.564
 4531POPC   PO458092  39.256  43.110   5.864
 4531POPC   GL158093  39.250  43.135   6.164
 4531POPC   GL258094  39.345  43.049   6.164
 4531POPC   C1A58095  39.239  43.148   6.464
 4531POPC   D2A58096  39.257  43.144   6.764
 4531POPC   C3A58097  39.261  43.062   7.064
 4531POPC   C4A58098  39.273  43.155   7.364
 4531POPC   C1B58099  39.488  43.030   6.464
 4531POPC   C2B58100  39.458  43.018   6.764
 4531POPC   C3B58101  39.447  43.004   7.064
 4531POPC   C4B58102  39.466  42.964   7.364
 4532POPC   NC358103  36.876   4.365   5.564
 4532POPC   PO458104  36.884   4.290   5.864
 4532POPC   GL158105  36.932   4.289   6.164
 4532POPC   GL258106  36.839   4.253   6.164
 4532POPC   C1A58107  36.876   4.291   6.464
 4532POPC   D2A58108  36.936   4.276   6.764
 4532POPC   C3A58109  36.889   4.272   7.064
 4532POPC   C4A58110  36.913   4.273   7.364
 4532POPC   C1B58111  36.718   4.144   6.464
 4532POPC   C2B58112  36.736   4.199   6.764
 4532POPC   C3B58113  36.684   4.144   7.064
 4532POPC   C4B58114  36.750   4.144   7.364
 4533POPC   NC358115  41.602  26.027   5.564
 4533POPC   PO458116  41.541  25.995   5.864
 4533POPC   GL158117  41.546  26.081   6.164
 4533POPC   GL258118  41.676  26.056   6.164
 4533POPC   C1A58119  41.588  26.073   6.464
 4533POPC   D2A58120  41.600  26.069   6.764
 4533POPC   C3A58121  41.566  26.060   7.064
 4533POPC   C4A58122  41.572  26.090   7.364
 4533POPC   C1B58123  41.772  26.091   6.464
 4533POPC   C2B58124  41.839  26.076   6.764
 4533POPC   C3B58125  41.826  26.101   7.064
 4533POPC   C4B58126  41.825  26.057   7.364
 4534POPC   NC358127  17.506   3.511   5.564
 4534POPC   PO458128  17.550   3.584   5.864
 4534POPC   GL158129  17.465   3.536   6.164
 4534POPC   GL258130  17.369   3.486   6.164
 4534POPC   C1A58131  17.504   3.525   6.464
 4534POPC   D2A58132  17.501   3.539   6.764
 4534POPC   C3A58133  17.491   3.580   7.064
 4534POPC   C4A58134  17.545   3.506   7.364
 4534POPC   C1B58135  17.230   3.467   6.464
 4534POPC   C2B58136  17.281   3.469   6.764
 4534POPC   C3B58137  17.259   3.511   7.064
 4534POPC   C4B58138  17.245   3.474   7.364
 4535POPC   NC358139  26.831  39.183   5.564
 4535POPC   PO458140  26.828  39.252   5.864
 4535POPC   GL158141  26.851  39.185   6.164
 4535POPC   GL258142  26.679  39.164   6.164
 4535POPC   C1A58143  26.835  39.204   6.464
 4535POPC   D2A58144  26.857  39.191   6.764
 4535POPC   C3A58145  26.834  39.269   7.064
 4535POPC   C4A58146  26.813  39.267   7.364
 4535POPC   C1B58147  26.540  39.215   6.464
 4535POPC   C2B58148  26.616  39.190   6.764
 4535POPC   C3B58149  26.565  39.134   7.064
 4535POPC   C4B58150  26.583  39.138   7.364
 4536POPC   NC358151   8.976  17.474   5.564
 4536POPC   PO458152   8.992  17.511   5.864
 4536POPC   GL158153   8.958  17.483   6.164
 4536POPC   GL258154   8.922  17.448   6.164
 4536POPC   C1A58155   8.992  17.469   6.464
 4536POPC   D2A58156   8.925  17.539   6.764
 4536POPC   C3A58157   8.954  17.498   7.064
 4536POPC   C4A58158   9.022  17.514   7.364
 4536POPC   C1B58159   8.862  17.351   6.464
 4536POPC   C2B58160   8.812  17.338   6.764
 4536POPC   C3B58161   8.855  17.255   7.064
 4536POPC   C4B58162   8.798  17.314   7.364
 4537POPC   NC358163  24.509  32.978   5.564
 4537POPC   PO458164  24.466  33.058   5.864
 4537POPC   GL158165  24.482  33.002   6.164
 4537POPC   GL258166  24.589  32.909   6.164
 4537POPC   C1A58167  24.535  32.982   6.464
 4537POPC   D2A58168  24.503  33.038   6.764
 4537POPC   C3A58169  24.451  32.991   7.064
 4537POPC   C4A58170  24.493  33.057   7.364
 4537POPC   C1B58171  24.600  32.868   6.464
 4537POPC   C2B58172  24.635  32.813   6.764
 4537POPC   C3B58173  24.617  32.858   7.064
 4537POPC   C4B58174  24.671  32.798   7.364
 4538POPC   NC358175  20.578   3.537   5.564
 4538POPC   PO458176  20.570   3.529   5.864
 4538POPC   GL158177  20.617   3.564   6.164
 4538POPC   GL258178  20.730   3.491   6.164
 4538POPC   C1A58179  20.618   3.578   6.464
 4538POPC   D2A58180  20.611   3.588   6.764
 4538POPC   C3A58181  20.633   3.580   7.064
 4538POPC   C4A58182  20.614   3.583   7.364
 4538POPC   C1B58183  20.802   3.313   6.464
 4538POPC   C2B58184  20.748   3.313   6.764
 4538POPC   C3B58185  20.806   3.331   7.064
 4538POPC   C4B58186  20.803   3.306   7.364
 4539POPC   NC358187  19.016  26.791   5.564
 4539POPC   PO458188  19.083  26.772   5.864
 4539POPC   GL158189  19.046  26.785   6.164
 4539POPC   GL258190  18.985  26.748   6.164
 4539POPC   C1A58191  19.095  26.818   6.464
 4539POPC   D2A58192  19.051  26.801   6.764
 4539POPC   C3A58193  19.039  26.777   7.064
 4539POPC   C4A58194  19.023  26.821   7.364
 4539POPC   C1B58195  18.770  26.752   6.464
 4539POPC   C2B58196  18.816  26.789   6.764
 4539POPC   C3B58197  18.833  26.738   7.064
 4539POPC   C4B58198  18.809  26.804   7.364
 4540POPC   NC358199   1.194   8.157   5.564
 4540POPC   PO458200   1.260   8.202   5.864
 4540POPC   GL158201   1.173   8.153   6.164
 4540POPC   GL258202   1.185   8.040   6.164
 4540POPC   C1A58203   1.228   8.169   6.464
 4540POPC   D2A58204   1.223   8.175   6.764
 4540POPC   C3A58205   1.181   8.236   7.064
 4540POPC   C4A58206   1.225   8.223   7.364
 4540POPC   C1B58207   1.168   7.992   6.464
 4540POPC   C2B58208   1.255   7.950   6.764
 4540POPC   C3B58209   1.250   7.937   7.064
 4540POPC   C4B58210   1.225   7.929   7.364
 4541POPC   NC358211  17.537  19.016   5.564
 4541POPC   PO458212  17.479  19.096   5.864
 4541POPC   GL158213  17.520  19.014   6.164
 4541POPC   GL258214  17.508  18.902   6.164
 4541POPC   C1A58215  17.555  19.087   6.464
 4541POPC   D2A58216  17.487  19.012   6.764
 4541POPC   C3A58217  17.508  19.019   7.064
 4541POPC   C4A58218  17.509  19.032   7.364
 4541POPC   C1B58219  17.477  18.769   6.464
 4541POPC   C2B58220  17.484  18.841   6.764
 4541POPC   C3B58221  17.501  18.830   7.064
 4541POPC   C4B58222  17.452  18.828   7.364
 4542POPC   NC358223  25.301  36.158   5.564
 4542POPC   PO458224  25.265  36.084   5.864
 4542POPC   GL158225  25.249  36.110   6.164
 4542POPC   GL258226  25.152  36.078   6.164
 4542POPC   C1A58227  25.301  36.164   6.464
 4542POPC   D2A58228  25.309  36.081   6.764
 4542POPC   C3A58229  25.226  36.095   7.064
 4542POPC   C4A58230  25.234  36.078   7.364
 4542POPC   C1B58231  24.975  36.107   6.464
 4542POPC   C2B58232  25.004  36.102   6.764
 4542POPC   C3B58233  25.037  36.030   7.064
 4542POPC   C4B58234  24.979  36.092   7.364
 4543POPC   NC358235  43.108  44.686   5.564
 4543POPC   PO458236  43.109  44.625   5.864
 4543POPC   GL158237  43.147  44.694   6.164
 4543POPC   GL258238  43.019  44.518   6.164
 4543POPC   C1A58239  43.122  44.701   6.464
 4543POPC   D2A58240  43.133  44.650   6.764
 4543POPC   C3A58241  43.126  44.684   7.064
 4543POPC   C4A58242  43.083  44.641   7.364
 4543POPC   C1B58243  42.997  44.410   6.464
 4543POPC   C2B58244  42.956  44.459   6.764
 4543POPC   C3B58245  43.005  44.410   7.064
 4543POPC   C4B58246  43.027  44.454   7.364
 4544POPC   NC358247  37.725  39.211   5.564
 4544POPC   PO458248  37.661  39.196   5.864
 4544POPC   GL158249  37.671  39.273   6.164
 4544POPC   GL258250  37.617  39.369   6.164
 4544POPC   C1A58251  37.681  39.200   6.464
 4544POPC   D2A58252  37.728  39.231   6.764
 4544POPC   C3A58253  37.632  39.237   7.064
 4544POPC   C4A58254  37.661  39.223   7.364
 4544POPC   C1B58255  37.577  39.450   6.464
 4544POPC   C2B58256  37.595  39.494   6.764
 4544POPC   C3B58257  37.623  39.431   7.064
 4544POPC   C4B58258  37.640  39.481   7.364
 4545POPC   NC358259   8.965  42.347   5.564
 4545POPC   PO458260   8.993  42.349   5.864
 4545POPC   GL158261   8.944  42.376   6.164
 4545POPC   GL258262   8.867  42.383   6.164
 4545POPC   C1A58263   8.980  42.325   6.464
 4545POPC   D2A58264   8.928  42.355   6.764
 4545POPC   C3A58265   8.928  42.289   7.064
 4545POPC   C4A58266   8.991  42.384   7.364
 4545POPC   C1B58267   8.727  42.360   6.464
 4545POPC   C2B58268   8.722  42.350   6.764
 4545POPC   C3B58269   8.726  42.361   7.064
 4545POPC   C4B58270   8.733  42.389   7.364
 4546POPC   NC358271   8.241  19.016   5.564
 4546POPC   PO458272   8.225  19.015   5.864
 4546POPC   GL158273   8.211  19.050   6.164
 4546POPC   GL258274   8.051  19.009   6.164
 4546POPC   C1A58275   8.240  19.100   6.464
 4546POPC   D2A58276   8.224  19.094   6.764
 4546POPC   C3A58277   8.159  19.078   7.064
 4546POPC   C4A58278   8.241  19.020   7.364
 4546POPC   C1B58279   7.996  18.925   6.464
 4546POPC   C2B58280   8.000  18.960   6.764
 4546POPC   C3B58281   7.973  18.981   7.064
 4546POPC   C4B58282   7.996  19.004   7.364
 4547POPC   NC358283   7.396  40.050   5.564
 4547POPC   PO458284   7.375  40.009   5.864
 4547POPC   GL158285   7.437  39.997   6.164
 4547POPC   GL258286   7.511  40.052   6.164
 4547POPC   C1A58287   7.397  40.001   6.464
 4547POPC   D2A58288   7.380  39.990   6.764
 4547POPC   C3A58289   7.397  39.957   7.064
 4547POPC   C4A58290   7.454  40.049   7.364
 4547POPC   C1B58291   7.699  40.122   6.464
 4547POPC   C2B58292   7.694  40.136   6.764
 4547POPC   C3B58293   7.613  40.127   7.064
 4547POPC   C4B58294   7.619  40.107   7.364
 4548POPC   NC358295  26.009  21.405   5.564
 4548POPC   PO458296  26.045  21.399   5.864
 4548POPC   GL158297  26.048  21.385   6.164
 4548POPC   GL258298  25.967  21.306   6.164
 4548POPC   C1A58299  26.008  21.434   6.464
 4548POPC   D2A58300  26.075  21.372   6.764
 4548POPC   C3A58301  26.006  21.358   7.064
 4548POPC   C4A58302  26.068  21.368   7.364
 4548POPC   C1B58303  25.861  21.313   6.464
 4548POPC   C2B58304  25.837  21.257   6.764
 4548POPC   C3B58305  25.805  21.262   7.064
 4548POPC   C4B58306  25.845  21.243   7.364
 4549POPC   NC358307   8.233  35.311   5.564
 4549POPC   PO458308   8.221  35.374   5.864
 4549POPC   GL158309   8.153  35.315   6.164
 4549POPC   GL258310   8.104  35.363   6.164
 4549POPC   C1A58311   8.155  35.377   6.464
 4549POPC   D2A58312   8.236  35.389   6.764
 4549POPC   C3A58313   8.172  35.374   7.064
 4549POPC   C4A58314   8.218  35.353   7.364
 4549POPC   C1B58315   7.988  35.336   6.464
 4549POPC   C2B58316   7.923  35.293   6.764
 4549POPC   C3B58317   7.937  35.272   7.064
 4549POPC   C4B58318   7.916  35.266   7.364
 4550POPC   NC358319  32.978  25.302   5.564
 4550POPC   PO458320  33.053  25.311   5.864
 4550POPC   GL158321  33.035  25.279   6.164
 4550POPC   GL258322  32.974  25.319   6.164
 4550POPC   C1A58323  33.059  25.255   6.464
 4550POPC   D2A58324  33.005  25.240   6.764
 4550POPC   C3A58325  33.015  25.236   7.064
 4550POPC   C4A58326  33.025  25.265   7.364
 4550POPC   C1B58327  32.871  25.467   6.464
 4550POPC   C2B58328  32.828  25.497   6.764
 4550POPC   C3B58329  32.916  25.439   7.064
 4550POPC   C4B58330  32.896  25.494   7.364
 4551POPC   NC358331  19.863  27.552   5.564
 4551POPC   PO458332  19.873  27.553   5.864
 4551POPC   GL158333  19.831  27.643   6.164
 4551POPC   GL258334  19.963  27.622   6.164
 4551POPC   C1A58335  19.790  27.640   6.464
 4551POPC   D2A58336  19.825  27.594   6.764
 4551POPC   C3A58337  19.811  27.569   7.064
 4551POPC   C4A58338  19.823  27.600   7.364
 4551POPC   C1B58339  20.052  27.629   6.464
 4551POPC   C2B58340  20.128  27.682   6.764
 4551POPC   C3B58341  20.121  27.625   7.064
 4551POPC   C4B58342  20.037  27.675   7.364
 4552POPC   NC358343  41.543  40.800   5.564
 4552POPC   PO458344  41.587  40.804   5.864
 4552POPC   GL158345  41.526  40.827   6.164
 4552POPC   GL258346  41.709  40.747   6.164
 4552POPC   C1A58347  41.538  40.733   6.464
 4552POPC   D2A58348  41.574  40.797   6.764
 4552POPC   C3A58349  41.568  40.812   7.064
 4552POPC   C4A58350  41.592  40.794   7.364
 4552POPC   C1B58351  41.722  40.658   6.464
 4552POPC   C2B58352  41.758  40.660   6.764
 4552POPC   C3B58353  41.786  40.666   7.064
 4552POPC   C4B58354  41.792  40.599   7.364
 4553POPC   NC358355  18.273   4.342   5.564
 4553POPC   PO458356  18.303   4.365   5.864
 4553POPC   GL158357  18.293   4.316   6.164
 4553POPC   GL258358  18.125   4.294   6.164
 4553POPC   C1A58359  18.276   4.354   6.464
 4553POPC   D2A58360  18.254   4.299   6.764
 4553POPC   C3A58361  18.255   4.297   7.064
 4553POPC   C4A58362  18.263   4.361   7.364
 4553POPC   C1B58363  18.029   4.247   6.464
 4553POPC   C2B58364  18.025   4.184   6.764
 4553POPC   C3B58365  18.058   4.189   7.064
 4553POPC   C4B58366  18.042   4.241   7.364
 4554POPC   NC358367  19.867  35.394   5.564
 4554POPC   PO458368  19.798  35.398   5.864
 4554POPC   GL158369  19.807  35.382   6.164
 4554POPC   GL258370  19.878  35.283   6.164
 4554POPC   C1A58371  19.815  35.309   6.464
 4554POPC   D2A58372  19.791  35.355   6.764
 4554POPC   C3A58373  19.814  35.346   7.064
 4554POPC   C4A58374  19.835  35.375   7.364
 4554POPC   C1B58375  20.011  35.204   6.464
 4554POPC   C2B58376  19.997  35.170   6.764
 4554POPC   C3B58377  19.982  35.193   7.064
 4554POPC   C4B58378  20.041  35.133   7.364
 4555POPC   NC358379  36.942   1.234   5.564
 4555POPC   PO458380  36.912   1.199   5.864
 4555POPC   GL158381  36.875   1.208   6.164
 4555POPC   GL258382  36.928   1.073   6.164
 4555POPC   C1A58383  36.914   1.225   6.464
 4555POPC   D2A58384  36.865   1.261   6.764
 4555POPC   C3A58385  36.924   1.254   7.064
 4555POPC   C4A58386  36.934   1.189   7.364
 4555POPC   C1B58387  37.031   0.938   6.464
 4555POPC   C2B58388  37.045   0.938   6.764
 4555POPC   C3B58389  36.978   0.941   7.064
 4555POPC   C4B58390  37.025   0.989   7.364
 4556POPC   NC358391  29.129   5.073   5.564
 4556POPC   PO458392  29.102   5.065   5.864
 4556POPC   GL158393  29.150   5.141   6.164
 4556POPC   GL258394  29.247   5.191   6.164
 4556POPC   C1A58395  29.118   5.121   6.464
 4556POPC   D2A58396  29.103   5.116   6.764
 4556POPC   C3A58397  29.119   5.070   7.064
 4556POPC   C4A58398  29.189   5.061   7.364
 4556POPC   C1B58399  29.333   5.244   6.464
 4556POPC   C2B58400  29.274   5.222   6.764
 4556POPC   C3B58401  29.322   5.265   7.064
 4556POPC   C4B58402  29.313   5.279   7.364
 4557POPC   NC358403  13.614  39.262   5.564
 4557POPC   PO458404  13.591  39.250   5.864
 4557POPC   GL158405  13.673  39.266   6.164
 4557POPC   GL258406  13.546  39.225   6.164
 4557POPC   C1A58407  13.590  39.203   6.464
 4557POPC   D2A58408  13.584  39.208   6.764
 4557POPC   C3A58409  13.593  39.276   7.064
 4557POPC   C4A58410  13.636  39.184   7.364
 4557POPC   C1B58411  13.393  39.100   6.464
 4557POPC   C2B58412  13.394  39.081   6.764
 4557POPC   C3B58413  13.359  39.117   7.064
 4557POPC   C4B58414  13.448  39.130   7.364
 4558POPC   NC358415  20.656  13.618   5.564
 4558POPC   PO458416  20.600  13.594   5.864
 4558POPC   GL158417  20.588  13.650   6.164
 4558POPC   GL258418  20.702  13.640   6.164
 4558POPC   C1A58419  20.642  13.596   6.464
 4558POPC   D2A58420  20.602  13.582   6.764
 4558POPC   C3A58421  20.631  13.606   7.064
 4558POPC   C4A58422  20.582  13.634   7.364
 4558POPC   C1B58423  20.842  13.533   6.464
 4558POPC   C2B58424  20.818  13.528   6.764
 4558POPC   C3B58425  20.862  13.523   7.064
 4558POPC   C4B58426  20.828  13.553   7.364
 4559POPC   NC358427  43.100  11.328   5.564
 4559POPC   PO458428  43.121  11.278   5.864
 4559POPC   GL158429  43.086  11.284   6.164
 4559POPC   GL258430  43.186  11.169   6.164
 4559POPC   C1A58431  43.074  11.306   6.464
 4559POPC   D2A58432  43.125  11.293   6.764
 4559POPC   C3A58433  43.061  11.274   7.064
 4559POPC   C4A58434  43.120  11.325   7.364
 4559POPC   C1B58435  43.307  11.141   6.464
 4559POPC   C2B58436  43.242  11.148   6.764
 4559POPC   C3B58437  43.268  11.072   7.064
 4559POPC   C4B58438  43.247  11.116   7.364
 4560POPC   NC358439   9.767  36.945   5.564
 4560POPC   PO458440   9.778  36.933   5.864
 4560POPC   GL158441   9.726  36.871   6.164
 4560POPC   GL258442   9.634  36.935   6.164
 4560POPC   C1A58443   9.759  36.895   6.464
 4560POPC   D2A58444   9.764  36.864   6.764
 4560POPC   C3A58445   9.788  36.933   7.064
 4560POPC   C4A58446   9.787  36.879   7.364
 4560POPC   C1B58447   9.473  36.998   6.464
 4560POPC   C2B58448   9.492  36.974   6.764
 4560POPC   C3B58449   9.461  36.939   7.064
 4560POPC   C4B58450   9.470  36.919   7.364
 4561POPC   NC358451  22.954  16.717   5.564
 4561POPC   PO458452  22.926  16.697   5.864
 4561POPC   GL158453  22.965  16.762   6.164
 4561POPC   GL258454  23.040  16.649   6.164
 4561POPC   C1A58455  22.955  16.729   6.464
 4561POPC   D2A58456  22.939  16.771   6.764
 4561POPC   C3A58457  22.900  16.714   7.064
 4561POPC   C4A58458  22.946  16.694   7.364
 4561POPC   C1B58459  23.151  16.690   6.464
 4561POPC   C2B58460  23.171  16.645   6.764
 4561POPC   C3B58461  23.203  16.633   7.064
 4561POPC   C4B58462  23.153  16.689   7.364
 4562POPC   NC358463   8.183  11.339   5.564
 4562POPC   PO458464   8.201  11.325   5.864
 4562POPC   GL158465   8.175  11.289   6.164
 4562POPC   GL258466   8.238  11.195   6.164
 4562POPC   C1A58467   8.214  11.286   6.464
 4562POPC   D2A58468   8.235  11.317   6.764
 4562POPC   C3A58469   8.240  11.256   7.064
 4562POPC   C4A58470   8.197  11.283   7.364
 4562POPC   C1B58471   8.171  11.096   6.464
 4562POPC   C2B58472   8.182  11.060   6.764
 4562POPC   C3B58473   8.191  11.026   7.064
 4562POPC   C4B58474   8.206  11.039   7.364
 4563POPC   NC358475  36.130  36.143   5.564
 4563POPC   PO458476  36.102  36.157   5.864
 4563POPC   GL158477  36.162  36.152   6.164
 4563POPC   GL258478  36.161  36.034   6.164
 4563POPC   C1A58479  36.117  36.159   6.464
 4563POPC   D2A58480  36.122  36.154   6.764
 4563POPC   C3A58481  36.094  36.106   7.064
 4563POPC   C4A58482  36.155  36.149   7.364
 4563POPC   C1B58483  36.239  35.868   6.464
 4563POPC   C2B58484  36.246  35.933   6.764
 4563POPC   C3B58485  36.179  35.891   7.064
 4563POPC   C4B58486  36.246  35.861   7.364
 4564POPC   NC358487  11.340  27.546   5.564
 4564POPC   PO458488  11.273  27.627   5.864
 4564POPC   GL158489  11.268  27.560   6.164
 4564POPC   GL258490  11.328  27.724   6.164
 4564POPC   C1A58491  11.346  27.558   6.464
 4564POPC   D2A58492  11.294  27.611   6.764
 4564POPC   C3A58493  11.279  27.634   7.064
 4564POPC   C4A58494  11.332  27.552   7.364
 4564POPC   C1B58495  11.426  27.821   6.464
 4564POPC   C2B58496  11.407  27.810   6.764
 4564POPC   C3B58497  11.453  27.799   7.064
 4564POPC   C4B58498  11.480  27.803   7.364
 4565POPC   NC358499  36.879  37.662   5.564
 4565POPC   PO458500  36.894  37.661   5.864
 4565POPC   GL158501  36.908  37.709   6.164
 4565POPC   GL258502  36.806  37.805   6.164
 4565POPC   C1A58503  36.929  37.698   6.464
 4565POPC   D2A58504  36.936  37.635   6.764
 4565POPC   C3A58505  36.919  37.674   7.064
 4565POPC   C4A58506  36.888  37.727   7.364
 4565POPC   C1B58507  36.751  37.874   6.464
 4565POPC   C2B58508  36.795  37.872   6.764
 4565POPC   C3B58509  36.740  37.899   7.064
 4565POPC   C4B58510  36.765  37.879   7.364
 4566POPC   NC358511  42.329   1.955   5.564
 4566POPC   PO458512  42.354   1.943   5.864
 4566POPC   GL158513  42.294   1.952   6.164
 4566POPC   GL258514  42.423   1.911   6.164
 4566POPC   C1A58515  42.305   2.014   6.464
 4566POPC   D2A58516  42.375   1.981   6.764
 4566POPC   C3A58517  42.297   1.982   7.064
 4566POPC   C4A58518  42.333   1.959   7.364
 4566POPC   C1B58519  42.364   1.709   6.464
 4566POPC   C2B58520  42.425   1.708   6.764
 4566POPC   C3B58521  42.414   1.768   7.064
 4566POPC   C4B58522  42.402   1.800   7.364
 4567POPC   NC358523   1.980   0.461   5.564
 4567POPC   PO458524   2.009   0.460   5.864
 4567POPC   GL158525   2.034   0.423   6.164
 4567POPC   GL258526   2.135   0.389   6.164
 4567POPC   C1A58527   1.991   0.446   6.464
 4567POPC   D2A58528   1.971   0.441   6.764
 4567POPC   C3A58529   1.997   0.431   7.064
 4567POPC   C4A58530   1.974   0.476   7.364
 4567POPC   C1B58531   2.266   0.329   6.464
 4567POPC   C2B58532   2.242   0.295   6.764
 4567POPC   C3B58533   2.182   0.378   7.064
 4567POPC   C4B58534   2.220   0.351   7.364
 4568POPC   NC358535  41.557  16.746   5.564
 4568POPC   PO458536  41.559  16.773   5.864
 4568POPC   GL158537  41.569  16.761   6.164
 4568POPC   GL258538  41.581  16.837   6.164
 4568POPC   C1A58539  41.553  16.694   6.464
 4568POPC   D2A58540  41.514  16.709   6.764
 4568POPC   C3A58541  41.600  16.697   7.064
 4568POPC   C4A58542  41.513  16.775   7.364
 4568POPC   C1B58543  41.554  16.978   6.464
 4568POPC   C2B58544  41.590  16.967   6.764
 4568POPC   C3B58545  41.539  17.006   7.064
 4568POPC   C4B58546  41.580  17.020   7.364
 4569POPC   NC358547  39.240   4.270   5.564
 4569POPC   PO458548  39.193   4.366   5.864
 4569POPC   GL158549  39.256   4.299   6.164
 4569POPC   GL258550  39.160   4.446   6.164
 4569POPC   C1A58551  39.241   4.281   6.464
 4569POPC   D2A58552  39.210   4.326   6.764
 4569POPC   C3A58553  39.208   4.273   7.064
 4569POPC   C4A58554  39.197   4.356   7.364
 4569POPC   C1B58555  39.170   4.499   6.464
 4569POPC   C2B58556  39.076   4.527   6.764
 4569POPC   C3B58557  39.092   4.531   7.064
 4569POPC   C4B58558  39.150   4.589   7.364
 4570POPC   NC358559  37.726   4.294   5.564
 4570POPC   PO458560  37.632   4.366   5.864
 4570POPC   GL158561  37.681   4.307   6.164
 4570POPC   GL258562  37.761   4.221   6.164
 4570POPC   C1A58563  37.647   4.294   6.464
 4570POPC   D2A58564  37.635   4.295   6.764
 4570POPC   C3A58565  37.631   4.313   7.064
 4570POPC   C4A58566  37.643   4.317   7.364
 4570POPC   C1B58567  37.850   4.143   6.464
 4570POPC   C2B58568  37.909   4.168   6.764
 4570POPC   C3B58569  37.925   4.213   7.064
 4570POPC   C4B58570  37.854   4.220   7.364
 4571POPC   NC358571  41.525   2.721   5.564
 4571POPC   PO458572  41.585   2.754   5.864
 4571POPC   GL158573  41.574   2.721   6.164
 4571POPC   GL258574  41.629   2.662   6.164
 4571POPC   C1A58575  41.590   2.780   6.464
 4571POPC   D2A58576  41.598   2.728   6.764
 4571POPC   C3A58577  41.523   2.791   7.064
 4571POPC   C4A58578  41.564   2.736   7.364
 4571POPC   C1B58579  41.641   2.525   6.464
 4571POPC   C2B58580  41.628   2.495   6.764
 4571POPC   C3B58581  41.649   2.574   7.064
 4571POPC   C4B58582  41.666   2.482   7.364
 4572POPC   NC358583  15.958  21.404   5.564
 4572POPC   PO458584  15.978  21.381   5.864
 4572POPC   GL158585  15.955  21.371   6.164
 4572POPC   GL258586  15.863  21.351   6.164
 4572POPC   C1A58587  15.906  21.393   6.464
 4572POPC   D2A58588  15.914  21.385   6.764
 4572POPC   C3A58589  15.997  21.337   7.064
 4572POPC   C4A58590  15.959  21.393   7.364
 4572POPC   C1B58591  15.725  21.297   6.464
 4572POPC   C2B58592  15.699  21.328   6.764
 4572POPC   C3B58593  15.767  21.317   7.064
 4572POPC   C4B58594  15.692  21.273   7.364
 4573POPC   NC358595  22.969  44.641   5.564
 4573POPC   PO458596  22.975  44.660   5.864
 4573POPC   GL158597  22.965  44.656   6.164
 4573POPC   GL258598  22.902  44.517   6.164
 4573POPC   C1A58599  22.922  44.678   6.464
 4573POPC   D2A58600  22.893  44.672   6.764
 4573POPC   C3A58601  22.902  44.623   7.064
 4573POPC   C4A58602  22.953  44.664   7.364
 4573POPC   C1B58603  22.906  44.384   6.464
 4573POPC   C2B58604  22.902  44.392   6.764
 4573POPC   C3B58605  22.893  44.445   7.064
 4573POPC   C4B58606  22.874  44.442   7.364
 4574POPC   NC358607  10.563   5.823   5.564
 4574POPC   PO458608  10.523   5.888   5.864
 4574POPC   GL158609  10.492   5.899   6.164
 4574POPC   GL258610  10.397   5.746   6.164
 4574POPC   C1A58611  10.508   5.887   6.464
 4574POPC   D2A58612  10.558   5.917   6.764
 4574POPC   C3A58613  10.506   5.901   7.064
 4574POPC   C4A58614  10.498   5.836   7.364
 4574POPC   C1B58615  10.336   5.646   6.464
 4574POPC   C2B58616  10.384   5.677   6.764
 4574POPC   C3B58617  10.365   5.697   7.064
 4574POPC   C4B58618  10.373   5.713   7.364
 4575POPC   NC358619  23.688  32.295   5.564
 4575POPC   PO458620  23.706  32.292   5.864
 4575POPC   GL158621  23.693  32.264   6.164
 4575POPC   GL258622  23.878  32.236   6.164
 4575POPC   C1A58623  23.753  32.260   6.464
 4575POPC   D2A58624  23.750  32.235   6.764
 4575POPC   C3A58625  23.725  32.261   7.064
 4575POPC   C4A58626  23.670  32.223   7.364
 4575POPC   C1B58627  23.963  32.344   6.464
 4575POPC   C2B58628  23.992  32.301   6.764
 4575POPC   C3B58629  23.960  32.283   7.064
 4575POPC   C4B58630  23.944  32.290   7.364
 4576POPC   NC358631   7.386  43.908   5.564
 4576POPC   PO458632   7.470  43.927   5.864
 4576POPC   GL158633   7.419  43.910   6.164
 4576POPC   GL258634   7.498  43.948   6.164
 4576POPC   C1A58635   7.387  43.856   6.464
 4576POPC   D2A58636   7.425  43.926   6.764
 4576POPC   C3A58637   7.469  43.866   7.064
 4576POPC   C4A58638   7.420  43.911   7.364
 4576POPC   C1B58639   7.645  44.019   6.464
 4576POPC   C2B58640   7.643  44.012   6.764
 4576POPC   C3B58641   7.598  44.076   7.064
 4576POPC   C4B58642   7.607  44.064   7.364
 4577POPC   NC358643  35.308  37.681   5.564
 4577POPC   PO458644  35.368  37.644   5.864
 4577POPC   GL158645  35.318  37.631   6.164
 4577POPC   GL258646  35.431  37.550   6.164
 4577POPC   C1A58647  35.323  37.698   6.464
 4577POPC   D2A58648  35.375  37.718   6.764
 4577POPC   C3A58649  35.317  37.670   7.064
 4577POPC   C4A58650  35.371  37.706   7.364
 4577POPC   C1B58651  35.415  37.479   6.464
 4577POPC   C2B58652  35.440  37.409   6.764
 4577POPC   C3B58653  35.447  37.470   7.064
 4577POPC   C4B58654  35.454  37.396   7.364
 4578POPC   NC358655  20.581  15.993   5.564
 4578POPC   PO458656  20.563  15.907   5.864
 4578POPC   GL158657  20.641  15.973   6.164
 4578POPC   GL258658  20.509  16.001   6.164
 4578POPC   C1A58659  20.585  15.968   6.464
 4578POPC   D2A58660  20.645  15.922   6.764
 4578POPC   C3A58661  20.597  15.957   7.064
 4578POPC   C4A58662  20.576  15.932   7.364
 4578POPC   C1B58663  20.393  16.018   6.464
 4578POPC   C2B58664  20.380  16.068   6.764
 4578POPC   C3B58665  20.417  16.071   7.064
 4578POPC   C4B58666  20.327  16.036   7.364
 4579POPC   NC358667   5.847   9.767   5.564
 4579POPC   PO458668   5.870   9.792   5.864
 4579POPC   GL158669   5.828   9.757   6.164
 4579POPC   GL258670   5.719   9.752   6.164
 4579POPC   C1A58671   5.826   9.769   6.464
 4579POPC   D2A58672   5.893   9.749   6.764
 4579POPC   C3A58673   5.829   9.762   7.064
 4579POPC   C4A58674   5.912   9.762   7.364
 4579POPC   C1B58675   5.642   9.641   6.464
 4579POPC   C2B58676   5.682   9.680   6.764
 4579POPC   C3B58677   5.633   9.653   7.064
 4579POPC   C4B58678   5.633   9.620   7.364
 4580POPC   NC358679  22.185  33.009   5.564
 4580POPC   PO458680  22.151  33.072   5.864
 4580POPC   GL158681  22.150  33.062   6.164
 4580POPC   GL258682  22.243  32.999   6.164
 4580POPC   C1A58683  22.126  33.052   6.464
 4580POPC   D2A58684  22.208  33.031   6.764
 4580POPC   C3A58685  22.112  33.052   7.064
 4580POPC   C4A58686  22.212  33.008   7.364
 4580POPC   C1B58687  22.426  33.068   6.464
 4580POPC   C2B58688  22.381  33.018   6.764
 4580POPC   C3B58689  22.367  33.021   7.064
 4580POPC   C4B58690  22.423  33.036   7.364
 4581POPC   NC358691   2.764   5.846   5.564
 4581POPC   PO458692   2.809   5.913   5.864
 4581POPC   GL158693   2.784   5.877   6.164
 4581POPC   GL258694   2.625   5.927   6.164
 4581POPC   C1A58695   2.773   5.860   6.464
 4581POPC   D2A58696   2.773   5.911   6.764
 4581POPC   C3A58697   2.750   5.820   7.064
 4581POPC   C4A58698   2.763   5.866   7.364
 4581POPC   C1B58699   2.541   5.920   6.464
 4581POPC   C2B58700   2.549   5.930   6.764
 4581POPC   C3B58701   2.563   5.951   7.064
 4581POPC   C4B58702   2.517   5.959   7.364
 4582POPC   NC358703  22.931  29.181   5.564
 4582POPC   PO458704  22.979  29.125   5.864
 4582POPC   GL158705  22.918  29.104   6.164
 4582POPC   GL258706  23.019  29.200   6.164
 4582POPC   C1A58707  22.955  29.173   6.464
 4582POPC   D2A58708  22.919  29.183   6.764
 4582POPC   C3A58709  22.975  29.105   7.064
 4582POPC   C4A58710  22.948  29.102   7.364
 4582POPC   C1B58711  23.208  29.154   6.464
 4582POPC   C2B58712  23.152  29.185   6.764
 4582POPC   C3B58713  23.200  29.143   7.064
 4582POPC   C4B58714  23.176  29.175   7.364
 4583POPC   NC358715  35.318  19.798   5.564
 4583POPC   PO458716  35.356  19.808   5.864
 4583POPC   GL158717  35.335  19.822   6.164
 4583POPC   GL258718  35.330  19.681   6.164
 4583POPC   C1A58719  35.339  19.851   6.464
 4583POPC   D2A58720  35.302  19.856   6.764
 4583POPC   C3A58721  35.350  19.804   7.064
 4583POPC   C4A58722  35.401  19.810   7.364
 4583POPC   C1B58723  35.430  19.630   6.464
 4583POPC   C2B58724  35.380  19.637   6.764
 4583POPC   C3B58725  35.415  19.591   7.064
 4583POPC   C4B58726  35.386  19.593   7.364
 4584POPC   NC358727  15.971   0.464   5.564
 4584POPC   PO458728  15.955   0.462   5.864
 4584POPC   GL158729  15.993   0.452   6.164
 4584POPC   GL258730  15.834   0.518   6.164
 4584POPC   C1A58731  16.000   0.411   6.464
 4584POPC   D2A58732  15.917   0.488   6.764
 4584POPC   C3A58733  15.941   0.407   7.064
 4584POPC   C4A58734  16.000   0.393   7.364
 4584POPC   C1B58735  15.773   0.657   6.464
 4584POPC   C2B58736  15.853   0.623   6.764
 4584POPC   C3B58737  15.838   0.688   7.064
 4584POPC   C4B58738  15.825   0.683   7.364
 4585POPC   NC358739  41.594  35.321   5.564
 4585POPC   PO458740  41.536  35.325   5.864
 4585POPC   GL158741  41.599  35.390   6.164
 4585POPC   GL258742  41.453  35.454   6.164
 4585POPC   C1A58743  41.530  35.307   6.464
 4585POPC   D2A58744  41.538  35.316   6.764
 4585POPC   C3A58745  41.583  35.350   7.064
 4585POPC   C4A58746  41.562  35.305   7.364
 4585POPC   C1B58747  41.419  35.607   6.464
 4585POPC   C2B58748  41.409  35.605   6.764
 4585POPC   C3B58749  41.418  35.611   7.064
 4585POPC   C4B58750  41.387  35.582   7.364
 4586POPC   NC358751  22.893  34.570   5.564
 4586POPC   PO458752  22.911  34.531   5.864
 4586POPC   GL158753  22.985  34.604   6.164
 4586POPC   GL258754  22.811  34.461   6.164
 4586POPC   C1A58755  22.973  34.566   6.464
 4586POPC   D2A58756  22.941  34.573   6.764
 4586POPC   C3A58757  22.961  34.561   7.064
 4586POPC   C4A58758  22.892  34.616   7.364
 4586POPC   C1B58759  22.730  34.414   6.464
 4586POPC   C2B58760  22.772  34.438   6.764
 4586POPC   C3B58761  22.695  34.471   7.064
 4586POPC   C4B58762  22.692  34.469   7.364
 4587POPC   NC358763  15.130  10.494   5.564
 4587POPC   PO458764  15.162  10.517   5.864
 4587POPC   GL158765  15.162  10.567   6.164
 4587POPC   GL258766  15.251  10.602   6.164
 4587POPC   C1A58767  15.181  10.548   6.464
 4587POPC   D2A58768  15.191  10.477   6.764
 4587POPC   C3A58769  15.215  10.570   7.064
 4587POPC   C4A58770  15.183  10.505   7.364
 4587POPC   C1B58771  15.331  10.734   6.464
 4587POPC   C2B58772  15.336  10.732   6.764
 4587POPC   C3B58773  15.307  10.743   7.064
 4587POPC   C4B58774  15.327  10.745   7.364
 4588POPC   NC358775   2.007  29.177   5.564
 4588POPC   PO458776   2.010  29.184   5.864
 4588POPC   GL158777   2.015  29.157   6.164
 4588POPC   GL258778   1.882  29.183   6.164
 4588POPC   C1A58779   2.034  29.172   6.464
 4588POPC   D2A58780   1.983  29.117   6.764
 4588POPC   C3A58781   1.973  29.176   7.064
 4588POPC   C4A58782   2.039  29.097   7.364
 4588POPC   C1B58783   1.729  29.203   6.464
 4588POPC   C2B58784   1.728  29.227   6.764
 4588POPC   C3B58785   1.744  29.195   7.064
 4588POPC   C4B58786   1.708  29.203   7.364
 4589POPC   NC358787  15.192  31.437   5.564
 4589POPC   PO458788  15.192  31.429   5.864
 4589POPC   GL158789  15.184  31.502   6.164
 4589POPC   GL258790  15.320  31.456   6.164
 4589POPC   C1A58791  15.163  31.516   6.464
 4589POPC   D2A58792  15.215  31.465   6.764
 4589POPC   C3A58793  15.167  31.429   7.064
 4589POPC   C4A58794  15.140  31.493   7.364
 4589POPC   C1B58795  15.351  31.300   6.464
 4589POPC   C2B58796  15.377  31.382   6.764
 4589POPC   C3B58797  15.377  31.335   7.064
 4589POPC   C4B58798  15.439  31.307   7.364
 4590POPC   NC358799  40.773   5.122   5.564
 4590POPC   PO458800  40.736   5.117   5.864
 4590POPC   GL158801  40.826   5.138   6.164
 4590POPC   GL258802  40.805   5.235   6.164
 4590POPC   C1A58803  40.771   5.105   6.464
 4590POPC   D2A58804  40.742   5.133   6.764
 4590POPC   C3A58805  40.820   5.119   7.064
 4590POPC   C4A58806  40.767   5.138   7.364
 4590POPC   C1B58807  40.785   5.363   6.464
 4590POPC   C2B58808  40.759   5.389   6.764
 4590POPC   C3B58809  40.822   5.320   7.064
 4590POPC   C4B58810  40.805   5.345   7.364
 4591POPC   NC358811  23.728  22.926   5.564
 4591POPC   PO458812  23.732  22.977   5.864
 4591POPC   GL158813  23.689  22.974   6.164
 4591POPC   GL258814  23.585  22.933   6.164
 4591POPC   C1A58815  23.751  22.921   6.464
 4591POPC   D2A58816  23.699  22.934   6.764
 4591POPC   C3A58817  23.735  22.898   7.064
 4591POPC   C4A58818  23.752  22.929   7.364
 4591POPC   C1B58819  23.481  22.976   6.464
 4591POPC   C2B58820  23.450  22.923   6.764
 4591POPC   C3B58821  23.474  22.983   7.064
 4591POPC   C4B58822  23.437  22.909   7.364
 4592POPC   NC358823   4.336  31.473   5.564
 4592POPC   PO458824   4.309  31.435   5.864
 4592POPC   GL158825   4.351  31.467   6.164
 4592POPC   GL258826   4.383  31.561   6.164
 4592POPC   C1A58827   4.312  31.507   6.464
 4592POPC   D2A58828   4.285  31.520   6.764
 4592POPC   C3A58829   4.311  31.450   7.064
 4592POPC   C4A58830   4.293  31.426   7.364
 4592POPC   C1B58831   4.515  31.604   6.464
 4592POPC   C2B58832   4.530  31.559   6.764
 4592POPC   C3B58833   4.537  31.642   7.064
 4592POPC   C4B58834   4.563  31.620   7.364
 4593POPC   NC358835   8.160  29.194   5.564
 4593POPC   PO458836   8.228  29.103   5.864
 4593POPC   GL158837   8.185  29.128   6.164
 4593POPC   GL258838   8.186  29.272   6.164
 4593POPC   C1A58839   8.176  29.117   6.464
 4593POPC   D2A58840   8.148  29.105   6.764
 4593POPC   C3A58841   8.192  29.169   7.064
 4593POPC   C4A58842   8.150  29.168   7.364
 4593POPC   C1B58843   8.153  29.407   6.464
 4593POPC   C2B58844   8.090  29.375   6.764
 4593POPC   C3B58845   8.109  29.361   7.064
 4593POPC   C4B58846   8.168  29.337   7.364
 4594POPC   NC358847   4.356  16.698   5.564
 4594POPC   PO458848   4.287  16.738   5.864
 4594POPC   GL158849   4.299  16.766   6.164
 4594POPC   GL258850   4.465  16.676   6.164
 4594POPC   C1A58851   4.341  16.748   6.464
 4594POPC   D2A58852   4.324  16.725   6.764
 4594POPC   C3A58853   4.326  16.684   7.064
 4594POPC   C4A58854   4.322  16.727   7.364
 4594POPC   C1B58855   4.558  16.621   6.464
 4594POPC   C2B58856   4.569  16.646   6.764
 4594POPC   C3B58857   4.589  16.600   7.064
 4594POPC   C4B58858   4.556  16.634   7.364
 4595POPC   NC358859   9.766  12.100   5.564
 4595POPC   PO458860   9.779  12.078   5.864
 4595POPC   GL158861   9.768  12.092   6.164
 4595POPC   GL258862   9.598  12.017   6.164
 4595POPC   C1A58863   9.753  12.048   6.464
 4595POPC   D2A58864   9.797  12.098   6.764
 4595POPC   C3A58865   9.714  12.056   7.064
 4595POPC   C4A58866   9.795  12.082   7.364
 4595POPC   C1B58867   9.493  11.983   6.464
 4595POPC   C2B58868   9.554  12.023   6.764
 4595POPC   C3B58869   9.499  11.945   7.064
 4595POPC   C4B58870   9.474  11.974   7.364
 4596POPC   NC358871  16.722  12.845   5.564
 4596POPC   PO458872  16.701  12.862   5.864
 4596POPC   GL158873  16.693  12.804   6.164
 4596POPC   GL258874  16.670  12.770   6.164
 4596POPC   C1A58875  16.729  12.893   6.464
 4596POPC   D2A58876  16.733  12.826   6.764
 4596POPC   C3A58877  16.759  12.856   7.064
 4596POPC   C4A58878  16.685  12.900   7.364
 4596POPC   C1B58879  16.595  12.726   6.464
 4596POPC   C2B58880  16.528  12.662   6.764
 4596POPC   C3B58881  16.513  12.682   7.064
 4596POPC   C4B58882  16.540  12.714   7.364
 4597POPC   NC358883  35.334   9.797   5.564
 4597POPC   PO458884  35.351   9.759   5.864
 4597POPC   GL158885  35.358   9.731   6.164
 4597POPC   GL258886  35.395   9.819   6.164
 4597POPC   C1A58887  35.324   9.742   6.464
 4597POPC   D2A58888  35.331   9.770   6.764
 4597POPC   C3A58889  35.354   9.755   7.064
 4597POPC   C4A58890  35.324   9.789   7.364
 4597POPC   C1B58891  35.478   9.973   6.464
 4597POPC   C2B58892  35.570   9.907   6.764
 4597POPC   C3B58893  35.557   9.896   7.064
 4597POPC   C4B58894  35.482   9.889   7.364
 4598POPC   NC358895  33.808  13.635   5.564
 4598POPC   PO458896  33.794  13.647   5.864
 4598POPC   GL158897  33.787  13.579   6.164
 4598POPC   GL258898  33.781  13.472   6.164
 4598POPC   C1A58899  33.846  13.594   6.464
 4598POPC   D2A58900  33.763  13.625   6.764
 4598POPC   C3A58901  33.776  13.623   7.064
 4598POPC   C4A58902  33.763  13.674   7.364
 4598POPC   C1B58903  33.749  13.378   6.464
 4598POPC   C2B58904  33.723  13.431   6.764
 4598POPC   C3B58905  33.707  13.424   7.064
 4598POPC   C4B58906  33.684  13.429   7.364
 4599POPC   NC358907  35.376  27.601   5.564
 4599POPC   PO458908  35.352  27.642   5.864
 4599POPC   GL158909  35.394  27.563   6.164
 4599POPC   GL258910  35.417  27.477   6.164
 4599POPC   C1A58911  35.367  27.622   6.464
 4599POPC   D2A58912  35.304  27.610   6.764
 4599POPC   C3A58913  35.344  27.572   7.064
 4599POPC   C4A58914  35.305  27.555   7.364
 4599POPC   C1B58915  35.485  27.353   6.464
 4599POPC   C2B58916  35.411  27.324   6.764
 4599POPC   C3B58917  35.497  27.371   7.064
 4599POPC   C4B58918  35.425  27.392   7.364
 4600POPC   NC358919  12.098  26.049   5.564
 4600POPC   PO458920  12.113  26.055   5.864
 4600POPC   GL158921  12.054  26.011   6.164
 4600POPC   GL258922  12.078  25.914   6.164
 4600POPC   C1A58923  12.052  26.043   6.464
 4600POPC   D2A58924  12.097  26.011   6.764
 4600POPC   C3A58925  12.117  26.075   7.064
 4600POPC   C4A58926  12.048  26.048   7.364
 4600POPC   C1B58927  12.078  25.812   6.464
 4600POPC   C2B58928  12.057  25.778   6.764
 4600POPC   C3B58929  12.068  25.758   7.064
 4600POPC   C4B58930  12.080  25.826   7.364
 4601POPC   NC358931   3.576  33.052   5.564
 4601POPC   PO458932   3.559  32.996   5.864
 4601POPC   GL158933   3.549  33.043   6.164
 4601POPC   GL258934   3.521  32.932   6.164
 4601POPC   C1A58935   3.581  33.048   6.464
 4601POPC   D2A58936   3.546  32.983   6.764
 4601POPC   C3A58937   3.574  33.059   7.064
 4601POPC   C4A58938   3.543  33.017   7.364
 4601POPC   C1B58939   3.526  32.822   6.464
 4601POPC   C2B58940   3.555  32.806   6.764
 4601POPC   C3B58941   3.523  32.816   7.064
 4601POPC   C4B58942   3.473  32.818   7.364
 4602POPC   NC358943  42.291  11.332   5.564
 4602POPC   PO458944  42.380  11.264   5.864
 4602POPC   GL158945  42.333  11.254   6.164
 4602POPC   GL258946  42.355  11.240   6.164
 4602POPC   C1A58947  42.364  11.333   6.464
 4602POPC   D2A58948  42.327  11.254   6.764
 4602POPC   C3A58949  42.338  11.319   7.064
 4602POPC   C4A58950  42.378  11.288   7.364
 4602POPC   C1B58951  42.439  11.105   6.464
 4602POPC   C2B58952  42.431  11.099   6.764
 4602POPC   C3B58953  42.468  11.077   7.064
 4602POPC   C4B58954  42.445  11.104   7.364
 4603POPC   NC358955  29.889  32.199   5.564
 4603POPC   PO458956  29.924  32.221   5.864
 4603POPC   GL158957  29.925  32.245   6.164
 4603POPC   GL258958  29.960  32.185   6.164
 4603POPC   C1A58959  29.966  32.286   6.464
 4603POPC   D2A58960  29.931  32.241   6.764
 4603POPC   C3A58961  29.920  32.222   7.064
 4603POPC   C4A58962  29.876  32.265   7.364
 4603POPC   C1B58963  30.097  32.049   6.464
 4603POPC   C2B58964  30.103  32.059   6.764
 4603POPC   C3B58965  30.078  32.064   7.064
 4603POPC   C4B58966  30.101  32.021   7.364
 4604POPC   NC358967  39.189   8.221   5.564
 4604POPC   PO458968  39.268   8.167   5.864
 4604POPC   GL158969  39.276   8.172   6.164
 4604POPC   GL258970  39.089   8.233   6.164
 4604POPC   C1A58971  39.236   8.172   6.464
 4604POPC   D2A58972  39.221   8.209   6.764
 4604POPC   C3A58973  39.263   8.154   7.064
 4604POPC   C4A58974  39.204   8.242   7.364
 4604POPC   C1B58975  39.016   8.241   6.464
 4604POPC   C2B58976  39.034   8.231   6.764
 4604POPC   C3B58977  38.978   8.234   7.064
 4604POPC   C4B58978  38.972   8.223   7.364
 4605POPC   NC358979  29.164  43.070   5.564
 4605POPC   PO458980  29.105  43.148   5.864
 4605POPC   GL158981  29.118  43.119   6.164
 4605POPC   GL258982  29.183  42.991   6.164
 4605POPC   C1A58983  29.129  43.105   6.464
 4605POPC   D2A58984  29.160  43.065   6.764
 4605POPC   C3A58985  29.140  43.152   7.064
 4605POPC   C4A58986  29.160  43.117   7.364
 4605POPC   C1B58987  29.236  42.847   6.464
 4605POPC   C2B58988  29.192  42.834   6.764
 4605POPC   C3B58989  29.200  42.870   7.064
 4605POPC   C4B58990  29.227  42.875   7.364
 4606POPC   NC358991   8.156  26.006   5.564
 4606POPC   PO458992   8.175  26.019   5.864
 4606POPC   GL158993   8.167  26.003   6.164
 4606POPC   GL258994   8.240  25.944   6.164
 4606POPC   C1A58995   8.197  25.998   6.464
 4606POPC   D2A58996   8.154  26.022   6.764
 4606POPC   C3A58997   8.154  26.045   7.064
 4606POPC   C4A58998   8.165  26.079   7.364
 4606POPC   C1B58999   8.243  25.775   6.464
 4606POPC   C2B59000   8.164  25.765   6.764
 4606POPC   C3B59001   8.256  25.782   7.064
 4606POPC   C4B59002   8.172  25.764   7.364
 4607POPC   NC359003   8.930  40.050   5.564
 4607POPC   PO459004   9.007  40.046   5.864
 4607POPC   GL159005   8.961  39.988   6.164
 4607POPC   GL259006   9.102  39.979   6.164
 4607POPC   C1A59007   8.948  39.978   6.464
 4607POPC   D2A59008   8.929  40.054   6.764
 4607POPC   C3A59009   8.925  40.004   7.064
 4607POPC   C4A59010   8.925  39.988   7.364
 4607POPC   C1B59011   9.222  39.926   6.464
 4607POPC   C2B59012   9.162  39.921   6.764
 4607POPC   C3B59013   9.171  39.943   7.064
 4607POPC   C4B59014   9.215  39.943   7.364
 4608POPC   NC359015  40.036  36.177   5.564
 4608POPC   PO459016  39.981  36.123   5.864
 4608POPC   GL159017  40.009  36.135   6.164
 4608POPC   GL259018  39.995  36.238   6.164
 4608POPC   C1A59019  39.970  36.134   6.464
 4608POPC   D2A59020  39.987  36.094   6.764
 4608POPC   C3A59021  40.032  36.097   7.064
 4608POPC   C4A59022  39.994  36.160   7.364
 4608POPC   C1B59023  39.910  36.397   6.464
 4608POPC   C2B59024  39.892  36.381   6.764
 4608POPC   C3B59025  39.878  36.368   7.064
 4608POPC   C4B59026  39.873  36.341   7.364
 4609POPC   NC359027  29.132  42.301   5.564
 4609POPC   PO459028  29.101  42.334   5.864
 4609POPC   GL159029  29.178  42.285   6.164
 4609POPC   GL259030  29.011  42.261   6.164
 4609POPC   C1A59031  29.188  42.375   6.464
 4609POPC   D2A59032  29.181  42.343   6.764
 4609POPC   C3A59033  29.136  42.310   7.064
 4609POPC   C4A59034  29.137  42.306   7.364
 4609POPC   C1B59035  28.904  42.152   6.464
 4609POPC   C2B59036  28.944  42.172   6.764
 4609POPC   C3B59037  28.898  42.213   7.064
 4609POPC   C4B59038  28.959  42.180   7.364
 4610POPC   NC359039  32.296  37.719   5.564
 4610POPC   PO459040  32.256  37.636   5.864
 4610POPC   GL159041  32.200  37.646   6.164
 4610POPC   GL259042  32.239  37.764   6.164
 4610POPC   C1A59043  32.287  37.711   6.464
 4610POPC   D2A59044  32.220  37.712   6.764
 4610POPC   C3A59045  32.250  37.686   7.064
 4610POPC   C4A59046  32.276  37.682   7.364
 4610POPC   C1B59047  32.251  37.914   6.464
 4610POPC   C2B59048  32.227  37.893   6.764
 4610POPC   C3B59049  32.280  37.951   7.064
 4610POPC   C4B59050  32.276  37.913   7.364
 4611POPC   NC359051  19.044  23.759   5.564
 4611POPC   PO459052  19.018  23.716   5.864
 4611POPC   GL159053  19.091  23.745   6.164
 4611POPC   GL259054  18.956  23.773   6.164
 4611POPC   C1A59055  19.065  23.707   6.464
 4611POPC   D2A59056  19.086  23.677   6.764
 4611POPC   C3A59057  19.108  23.746   7.064
 4611POPC   C4A59058  19.064  23.748   7.364
 4611POPC   C1B59059  18.843  23.718   6.464
 4611POPC   C2B59060  18.796  23.784   6.764
 4611POPC   C3B59061  18.780  23.767   7.064
 4611POPC   C4B59062  18.773  23.781   7.364
 4612POPC   NC359063  18.322  36.930   5.564
 4612POPC   PO459064  18.285  36.901   5.864
 4612POPC   GL159065  18.320  36.952   6.164
 4612POPC   GL259066  18.412  36.836   6.164
 4612POPC   C1A59067  18.294  36.891   6.464
 4612POPC   D2A59068  18.253  36.932   6.764
 4612POPC   C3A59069  18.244  36.874   7.064
 4612POPC   C4A59070  18.296  36.948   7.364
 4612POPC   C1B59071  18.503  36.742   6.464
 4612POPC   C2B59072  18.515  36.775   6.764
 4612POPC   C3B59073  18.489  36.795   7.064
 4612POPC   C4B59074  18.483  36.760   7.364
 4613POPC   NC359075  40.005   7.397   5.564
 4613POPC   PO459076  40.028   7.387   5.864
 4613POPC   GL159077  40.023   7.451   6.164
 4613POPC   GL259078  40.031   7.356   6.164
 4613POPC   C1A59079  39.969   7.371   6.464
 4613POPC   D2A59080  40.056   7.440   6.764
 4613POPC   C3A59081  39.967   7.426   7.064
 4613POPC   C4A59082  39.978   7.400   7.364
 4613POPC   C1B59083  40.100   7.247   6.464
 4613POPC   C2B59084  40.127   7.236   6.764
 4613POPC   C3B59085  40.153   7.201   7.064
 4613POPC   C4B59086  40.124   7.229   7.364
 4614POPC   NC359087  24.516  44.619   5.564
 4614POPC   PO459088  24.485  44.631   5.864
 4614POPC   GL159089  24.445  44.688   6.164
 4614POPC   GL259090  24.549  44.716   6.164
 4614POPC   C1A59091  24.518  44.623   6.464
 4614POPC   D2A59092  24.470  44.625   6.764
 4614POPC   C3A59093  24.522  44.697   7.064
 4614POPC   C4A59094  24.533  44.692   7.364
 4614POPC   C1B59095  24.622  44.817   6.464
 4614POPC   C2B59096  24.601  44.842   6.764
 4614POPC   C3B59097  24.606  44.878   7.064
 4614POPC   C4B59098  24.602  44.858   7.364
 4615POPC   NC359099  33.787  25.266   5.564
 4615POPC   PO459100  33.784  25.267   5.864
 4615POPC   GL159101  33.816  25.262   6.164
 4615POPC   GL259102  33.660  25.345   6.164
 4615POPC   C1A59103  33.793  25.291   6.464
 4615POPC   D2A59104  33.843  25.241   6.764
 4615POPC   C3A59105  33.850  25.290   7.064
 4615POPC   C4A59106  33.760  25.246   7.364
 4615POPC   C1B59107  33.607  25.434   6.464
 4615POPC   C2B59108  33.587  25.386   6.764
 4615POPC   C3B59109  33.618  25.445   7.064
 4615POPC   C4B59110  33.565  25.413   7.364
 4616POPC   NC359111   3.546  43.123   5.564
 4616POPC   PO459112   3.587  43.138   5.864
 4616POPC   GL159113   3.519  43.122   6.164
 4616POPC   GL259114   3.431  43.178   6.164
 4616POPC   C1A59115   3.493  43.140   6.464
 4616POPC   D2A59116   3.545  43.075   6.764
 4616POPC   C3A59117   3.524  43.125   7.064
 4616POPC   C4A59118   3.529  43.099   7.364
 4616POPC   C1B59119   3.334  43.270   6.464
 4616POPC   C2B59120   3.303  43.284   6.764
 4616POPC   C3B59121   3.306  43.259   7.064
 4616POPC   C4B59122   3.282  43.268   7.364
 4617POPC   NC359123  27.576  43.919   5.564
 4617POPC   PO459124  27.590  43.913   5.864
 4617POPC   GL159125  27.583  43.844   6.164
 4617POPC   GL259126  27.519  43.933   6.164
 4617POPC   C1A59127  27.593  43.928   6.464
 4617POPC   D2A59128  27.551  43.870   6.764
 4617POPC   C3A59129  27.552  43.923   7.064
 4617POPC   C4A59130  27.628  43.883   7.364
 4617POPC   C1B59131  27.364  44.030   6.464
 4617POPC   C2B59132  27.409  44.031   6.764
 4617POPC   C3B59133  27.376  44.035   7.064
 4617POPC   C4B59134  27.353  43.966   7.364
 4618POPC   NC359135  22.167   2.787   5.564
 4618POPC   PO459136  22.193   2.764   5.864
 4618POPC   GL159137  22.203   2.795   6.164
 4618POPC   GL259138  22.099   2.658   6.164
 4618POPC   C1A59139  22.145   2.798   6.464
 4618POPC   D2A59140  22.149   2.786   6.764
 4618POPC   C3A59141  22.208   2.732   7.064
 4618POPC   C4A59142  22.126   2.778   7.364
 4618POPC   C1B59143  22.032   2.555   6.464
 4618POPC   C2B59144  22.016   2.597   6.764
 4618POPC   C3B59145  22.040   2.534   7.064
 4618POPC   C4B59146  22.021   2.543   7.364
 4619POPC   NC359147   2.719  43.078   5.564
 4619POPC   PO459148   2.759  43.108   5.864
 4619POPC   GL159149   2.723  43.108   6.164
 4619POPC   GL259150   2.858  43.069   6.164
 4619POPC   C1A59151   2.804  43.077   6.464
 4619POPC   D2A59152   2.773  43.125   6.764
 4619POPC   C3A59153   2.778  43.082   7.064
 4619POPC   C4A59154   2.794  43.065   7.364
 4619POPC   C1B59155   2.973  43.090   6.464
 4619POPC   C2B59156   3.047  43.078   6.764
 4619POPC   C3B59157   2.971  43.025   7.064
 4619POPC   C4B59158   2.961  43.082   7.364
 4620POPC   NC359159  43.094  15.920   5.564
 4620POPC   PO459160  43.076  15.947   5.864
 4620POPC   GL159161  43.122  15.911   6.164
 4620POPC   GL259162  43.081  15.856   6.164
 4620POPC   C1A59163  43.134  15.999   6.464
 4620POPC   D2A59164  43.077  15.998   6.764
 4620POPC   C3A59165  43.159  15.981   7.064
 4620POPC   C4A59166  43.135  15.970   7.364
 4620POPC   C1B59167  43.169  15.757   6.464
 4620POPC   C2B59168  43.174  15.690   6.764
 4620POPC   C3B59169  43.152  15.737   7.064
 4620POPC   C4B59170  43.192  15.714   7.364
 4621POPC   NC359171   3.516  29.183   5.564
 4621POPC   PO459172   3.542  29.189   5.864
 4621POPC   GL159173   3.508  29.181   6.164
 4621POPC   GL259174   3.660  29.256   6.164
 4621POPC   C1A59175   3.499  29.152   6.464
 4621POPC   D2A59176   3.519  29.194   6.764
 4621POPC   C3A59177   3.537  29.156   7.064
 4621POPC   C4A59178   3.523  29.160   7.364
 4621POPC   C1B59179   3.720  29.342   6.464
 4621POPC   C2B59180   3.777  29.316   6.764
 4621POPC   C3B59181   3.757  29.279   7.064
 4621POPC   C4B59182   3.786  29.276   7.364
 4622POPC   NC359183   1.952  30.670   5.564
 4622POPC   PO459184   2.036  30.706   5.864
 4622POPC   GL159185   2.033  30.701   6.164
 4622POPC   GL259186   2.054  30.754   6.164
 4622POPC   C1A59187   2.036  30.694   6.464
 4622POPC   D2A59188   1.971  30.718   6.764
 4622POPC   C3A59189   1.982  30.726   7.064
 4622POPC   C4A59190   1.991  30.712   7.364
 4622POPC   C1B59191   2.223  30.800   6.464
 4622POPC   C2B59192   2.174  30.751   6.764
 4622POPC   C3B59193   2.207  30.757   7.064
 4622POPC   C4B59194   2.185  30.827   7.364
 4623POPC   NC359195  29.965  37.646   5.564
 4623POPC   PO459196  29.909  37.633   5.864
 4623POPC   GL159197  29.939  37.672   6.164
 4623POPC   GL259198  29.946  37.784   6.164
 4623POPC   C1A59199  29.903  37.661   6.464
 4623POPC   D2A59200  29.943  37.650   6.764
 4623POPC   C3A59201  29.968  37.699   7.064
 4623POPC   C4A59202  29.893  37.671   7.364
 4623POPC   C1B59203  29.923  37.880   6.464
 4623POPC   C2B59204  29.923  37.920   6.764
 4623POPC   C3B59205  29.920  37.965   7.064
 4623POPC   C4B59206  29.911  37.924   7.364
 4624POPC   NC359207  32.273  24.460   5.564
 4624POPC   PO459208  32.207  24.508   5.864
 4624POPC   GL159209  32.262  24.521   6.164
 4624POPC   GL259210  32.197  24.412   6.164
 4624POPC   C1A59211  32.260  24.505   6.464
 4624POPC   D2A59212  32.228  24.507   6.764
 4624POPC   C3A59213  32.281  24.466   7.064
 4624POPC   C4A59214  32.294  24.440   7.364
 4624POPC   C1B59215  32.130  24.261   6.464
 4624POPC   C2B59216  32.103  24.315   6.764
 4624POPC   C3B59217  32.076  24.246   7.064
 4624POPC   C4B59218  32.148  24.331   7.364
 4625POPC   NC359219  41.588  29.166   5.564
 4625POPC   PO459220  41.607  29.191   5.864
 4625POPC   GL159221  41.517  29.096   6.164
 4625POPC   GL259222  41.573  29.246   6.164
 4625POPC   C1A59223  41.601  29.139   6.464
 4625POPC   D2A59224  41.537  29.120   6.764
 4625POPC   C3A59225  41.561  29.156   7.064
 4625POPC   C4A59226  41.560  29.182   7.364
 4625POPC   C1B59227  41.695  29.321   6.464
 4625POPC   C2B59228  41.645  29.394   6.764
 4625POPC   C3B59229  41.719  29.411   7.064
 4625POPC   C4B59230  41.645  29.364   7.364
 4626POPC   NC359231   8.928  33.776   5.564
 4626POPC   PO459232   8.965  33.766   5.864
 4626POPC   GL159233   8.953  33.779   6.164
 4626POPC   GL259234   9.027  33.711   6.164
 4626POPC   C1A59235   8.937  33.801   6.464
 4626POPC   D2A59236   8.975  33.772   6.764
 4626POPC   C3A59237   8.997  33.752   7.064
 4626POPC   C4A59238   8.949  33.801   7.364
 4626POPC   C1B59239   9.202  33.702   6.464
 4626POPC   C2B59240   9.161  33.692   6.764
 4626POPC   C3B59241   9.188  33.673   7.064
 4626POPC   C4B59242   9.137  33.657   7.364
 4627POPC   NC359243  25.295  14.426   5.564
 4627POPC   PO459244  25.298  14.409   5.864
 4627POPC   GL159245  25.263  14.410   6.164
 4627POPC   GL259246  25.108  14.392   6.164
 4627POPC   C1A59247  25.218  14.442   6.464
 4627POPC   D2A59248  25.275  14.406   6.764
 4627POPC   C3A59249  25.299  14.448   7.064
 4627POPC   C4A59250  25.224  14.425   7.364
 4627POPC   C1B59251  24.985  14.330   6.464
 4627POPC   C2B59252  25.016  14.325   6.764
 4627POPC   C3B59253  24.982  14.304   7.064
 4627POPC   C4B59254  25.023  14.365   7.364
 4628POPC   NC359255  38.480   1.256   5.564
 4628POPC   PO459256  38.474   1.205   5.864
 4628POPC   GL159257  38.428   1.186   6.164
 4628POPC   GL259258  38.532   1.106   6.164
 4628POPC   C1A59259  38.440   1.223   6.464
 4628POPC   D2A59260  38.488   1.206   6.764
 4628POPC   C3A59261  38.440   1.252   7.064
 4628POPC   C4A59262  38.428   1.201   7.364
 4628POPC   C1B59263  38.623   1.055   6.464
 4628POPC   C2B59264  38.636   1.053   6.764
 4628POPC   C3B59265  38.605   1.036   7.064
 4628POPC   C4B59266  38.589   1.016   7.364
 4629POPC   NC359267   6.687  28.321   5.564
 4629POPC   PO459268   6.675  28.364   5.864
 4629POPC   GL159269   6.598  28.326   6.164
 4629POPC   GL259270   6.730  28.334   6.164
 4629POPC   C1A59271   6.639  28.355   6.464
 4629POPC   D2A59272   6.634  28.379   6.764
 4629POPC   C3A59273   6.627  28.406   7.064
 4629POPC   C4A59274   6.621  28.372   7.364
 4629POPC   C1B59275   6.856  28.352   6.464
 4629POPC   C2B59276   6.879  28.356   6.764
 4629POPC   C3B59277   6.939  28.339   7.064
 4629POPC   C4B59278   6.943  28.352   7.364
 4630POPC   NC359279  36.145   3.516   5.564
 4630POPC   PO459280  36.174   3.494   5.864
 4630POPC   GL159281  36.147   3.504   6.164
 4630POPC   GL259282  36.042   3.536   6.164
 4630POPC   C1A59283  36.094   3.532   6.464
 4630POPC   D2A59284  36.161   3.535   6.764
 4630POPC   C3A59285  36.147   3.557   7.064
 4630POPC   C4A59286  36.131   3.559   7.364
 4630POPC   C1B59287  35.881   3.519   6.464
 4630POPC   C2B59288  35.846   3.552   6.764
 4630POPC   C3B59289  35.907   3.567   7.064
 4630POPC   C4B59290  35.867   3.546   7.364
 4631POPC   NC359291   6.626  43.152   5.564
 4631POPC   PO459292   6.632  43.110   5.864
 4631POPC   GL159293   6.597  43.065   6.164
 4631POPC   GL259294   6.536  43.198   6.164
 4631POPC   C1A59295   6.666  43.075   6.464
 4631POPC   D2A59296   6.676  43.082   6.764
 4631POPC   C3A59297   6.664  43.157   7.064
 4631POPC   C4A59298   6.637  43.087   7.364
 4631POPC   C1B59299   6.376  43.235   6.464
 4631POPC   C2B59300   6.442  43.235   6.764
 4631POPC   C3B59301   6.438  43.218   7.064
 4631POPC   C4B59302   6.447  43.196   7.364
 4632POPC   NC359303  18.303  38.410   5.564
 4632POPC   PO459304  18.245  38.461   5.864
 4632POPC   GL159305  18.237  38.442   6.164
 4632POPC   GL259306  18.183  38.399   6.164
 4632POPC   C1A59307  18.303  38.472   6.464
 4632POPC   D2A59308  18.296  38.442   6.764
 4632POPC   C3A59309  18.243  38.405   7.064
 4632POPC   C4A59310  18.275  38.450   7.364
 4632POPC   C1B59311  18.132  38.218   6.464
 4632POPC   C2B59312  18.184  38.275   6.764
 4632POPC   C3B59313  18.122  38.229   7.064
 4632POPC   C4B59314  18.123  38.280   7.364
 4633POPC   NC359315  20.654  39.270   5.564
 4633POPC   PO459316  20.569  39.224   5.864
 4633POPC   GL159317  20.568  39.239   6.164
 4633POPC   GL259318  20.457  39.249   6.164
 4633POPC   C1A59319  20.646  39.208   6.464
 4633POPC   D2A59320  20.598  39.216   6.764
 4633POPC   C3A59321  20.598  39.196   7.064
 4633POPC   C4A59322  20.626  39.246   7.364
 4633POPC   C1B59323  20.331  39.335   6.464
 4633POPC   C2B59324  20.389  39.312   6.764
 4633POPC   C3B59325  20.350  39.308   7.064
 4633POPC   C4B59326  20.320  39.317   7.364
 4634POPC   NC359327  12.117   0.437   5.564
 4634POPC   PO459328  12.118   0.417   5.864
 4634POPC   GL159329  12.125   0.479   6.164
 4634POPC   GL259330  12.080   0.610   6.164
 4634POPC   C1A59331  12.065   0.408   6.464
 4634POPC   D2A59332  12.044   0.439   6.764
 4634POPC   C3A59333  12.085   0.433   7.064
 4634POPC   C4A59334  12.071   0.430   7.364
 4634POPC   C1B59335  12.069   0.720   6.464
 4634POPC   C2B59336  12.049   0.642   6.764
 4634POPC   C3B59337  12.042   0.724   7.064
 4634POPC   C4B59338  12.020   0.728   7.364
 4635POPC   NC359339  38.455  22.142   5.564
 4635POPC   PO459340  38.469  22.134   5.864
 4635POPC   GL159341  38.495  22.153   6.164
 4635POPC   GL259342  38.520  22.076   6.164
 4635POPC   C1A59343  38.462  22.176   6.464
 4635POPC   D2A59344  38.482  22.207   6.764
 4635POPC   C3A59345  38.438  22.154   7.064
 4635POPC   C4A59346  38.439  22.137   7.364
 4635POPC   C1B59347  38.600  21.930   6.464
 4635POPC   C2B59348  38.590  21.972   6.764
 4635POPC   C3B59349  38.603  21.897   7.064
 4635POPC   C4B59350  38.524  21.902   7.364
 4636POPC   NC359351  38.465  35.351   5.564
 4636POPC   PO459352  38.493  35.385   5.864
 4636POPC   GL159353  38.475  35.323   6.164
 4636POPC   GL259354  38.533  35.273   6.164
 4636POPC   C1A59355  38.428  35.323   6.464
 4636POPC   D2A59356  38.485  35.341   6.764
 4636POPC   C3A59357  38.427  35.355   7.064
 4636POPC   C4A59358  38.450  35.307   7.364
 4636POPC   C1B59359  38.530  35.144   6.464
 4636POPC   C2B59360  38.589  35.098   6.764
 4636POPC   C3B59361  38.605  35.157   7.064
 4636POPC   C4B59362  38.582  35.153   7.364
 4637POPC   NC359363  42.297  41.555   5.564
 4637POPC   PO459364  42.345  41.522   5.864
 4637POPC   GL159365  42.370  41.550   6.164
 4637POPC   GL259366  42.471  41.464   6.164
 4637POPC   C1A59367  42.292  41.557   6.464
 4637POPC   D2A59368  42.349  41.550   6.764
 4637POPC   C3A59369  42.350  41.521   7.064
 4637POPC   C4A59370  42.332  41.574   7.364
 4637POPC   C1B59371  42.589  41.459   6.464
 4637POPC   C2B59372  42.584  41.500   6.764
 4637POPC   C3B59373  42.530  41.418   7.064
 4637POPC   C4B59374  42.601  41.433   7.364
 4638POPC   NC359375  37.715  32.235   5.564
 4638POPC   PO459376  37.687  32.265   5.864
 4638POPC   GL159377  37.691  32.264   6.164
 4638POPC   GL259378  37.725  32.155   6.164
 4638POPC   C1A59379  37.633  32.268   6.464
 4638POPC   D2A59380  37.684  32.238   6.764
 4638POPC   C3A59381  37.668  32.263   7.064
 4638POPC   C4A59382  37.698  32.207   7.364
 4638POPC   C1B59383  37.749  32.032   6.464
 4638POPC   C2B59384  37.726  31.991   6.764
 4638POPC   C3B59385  37.750  32.014   7.064
 4638POPC   C4B59386  37.691  31.987   7.364
 4639POPC   NC359387   3.523  36.096   5.564
 4639POPC   PO459388   3.529  36.141   5.864
 4639POPC   GL159389   3.589  36.081   6.164
 4639POPC   GL259390   3.681  36.140   6.164
 4639POPC   C1A59391   3.502  36.137   6.464
 4639POPC   D2A59392   3.509  36.172   6.764
 4639POPC   C3A59393   3.529  36.123   7.064
 4639POPC   C4A59394   3.557  36.118   7.364
 4639POPC   C1B59395   3.809  36.207   6.464
 4639POPC   C2B59396   3.734  36.248   6.764
 4639POPC   C3B59397   3.787  36.248   7.064
 4639POPC   C4B59398   3.779  36.255   7.364
 4640POPC   NC359399  22.940  43.138   5.564
 4640POPC   PO459400  22.986  43.159   5.864
 4640POPC   GL159401  22.981  43.157   6.164
 4640POPC   GL259402  23.087  43.082   6.164
 4640POPC   C1A59403  22.986  43.128   6.464
 4640POPC   D2A59404  22.953  43.117   6.764
 4640POPC   C3A59405  22.967  43.132   7.064
 4640POPC   C4A59406  22.948  43.093   7.364
 4640POPC   C1B59407  23.173  42.940   6.464
 4640POPC   C2B59408  23.133  42.977   6.764
 4640POPC   C3B59409  23.139  42.984   7.064
 4640POPC   C4B59410  23.116  42.994   7.364
 4641POPC   NC359411  30.647   3.575   5.564
 4641POPC   PO459412  30.664   3.578   5.864
 4641POPC   GL159413  30.706   3.581   6.164
 4641POPC   GL259414  30.750   3.459   6.164
 4641POPC   C1A59415  30.729   3.578   6.464
 4641POPC   D2A59416  30.653   3.587   6.764
 4641POPC   C3A59417  30.683   3.562   7.064
 4641POPC   C4A59418  30.730   3.500   7.364
 4641POPC   C1B59419  30.775   3.343   6.464
 4641POPC   C2B59420  30.818   3.366   6.764
 4641POPC   C3B59421  30.849   3.327   7.064
 4641POPC   C4B59422  30.781   3.279   7.364
 4642POPC   NC359423   4.334  38.460   5.564
 4642POPC   PO459424   4.357  38.408   5.864
 4642POPC   GL159425   4.323  38.477   6.164
 4642POPC   GL259426   4.479  38.413   6.164
 4642POPC   C1A59427   4.329  38.428   6.464
 4642POPC   D2A59428   4.298  38.462   6.764
 4642POPC   C3A59429   4.367  38.504   7.064
 4642POPC   C4A59430   4.314  38.448   7.364
 4642POPC   C1B59431   4.518  38.381   6.464
 4642POPC   C2B59432   4.565  38.451   6.764
 4642POPC   C3B59433   4.543  38.445   7.064
 4642POPC   C4B59434   4.531  38.463   7.364
 4643POPC   NC359435  15.216  13.644   5.564
 4643POPC   PO459436  15.190  13.653   5.864
 4643POPC   GL159437  15.173  13.669   6.164
 4643POPC   GL259438  15.071  13.707   6.164
 4643POPC   C1A59439  15.172  13.670   6.464
 4643POPC   D2A59440  15.163  13.670   6.764
 4643POPC   C3A59441  15.223  13.628   7.064
 4643POPC   C4A59442  15.141  13.667   7.364
 4643POPC   C1B59443  14.984  13.786   6.464
 4643POPC   C2B59444  15.001  13.830   6.764
 4643POPC   C3B59445  15.053  13.809   7.064
 4643POPC   C4B59446  14.976  13.813   7.364
 4644POPC   NC359447  23.678  17.465   5.564
 4644POPC   PO459448  23.738  17.546   5.864
 4644POPC   GL159449  23.730  17.465   6.164
 4644POPC   GL259450  23.790  17.432   6.164
 4644POPC   C1A59451  23.734  17.556   6.464
 4644POPC   D2A59452  23.723  17.528   6.764
 4644POPC   C3A59453  23.684  17.533   7.064
 4644POPC   C4A59454  23.732  17.469   7.364
 4644POPC   C1B59455  23.946  17.441   6.464
 4644POPC   C2B59456  23.973  17.425   6.764
 4644POPC   C3B59457  23.946  17.458   7.064
 4644POPC   C4B59458  23.937  17.460   7.364
 4645POPC   NC359459  37.675  33.042   5.564
 4645POPC   PO459460  37.652  33.010   5.864
 4645POPC   GL159461  37.659  33.048   6.164
 4645POPC   GL259462  37.763  33.068   6.164
 4645POPC   C1A59463  37.648  33.065   6.464
 4645POPC   D2A59464  37.689  32.991   6.764
 4645POPC   C3A59465  37.686  33.012   7.064
 4645POPC   C4A59466  37.630  33.048   7.364
 4645POPC   C1B59467  37.868  33.192   6.464
 4645POPC   C2B59468  37.855  33.207   6.764
 4645POPC   C3B59469  37.837  33.157   7.064
 4645POPC   C4B59470  37.842  33.193   7.364
 4646POPC   NC359471  16.721  29.962   5.564
 4646POPC   PO459472  16.690  29.937   5.864
 4646POPC   GL159473  16.748  29.883   6.164
 4646POPC   GL259474  16.630  30.028   6.164
 4646POPC   C1A59475  16.728  29.910   6.464
 4646POPC   D2A59476  16.752  29.913   6.764
 4646POPC   C3A59477  16.694  29.917   7.064
 4646POPC   C4A59478  16.771  29.955   7.364
 4646POPC   C1B59479  16.587  30.138   6.464
 4646POPC   C2B59480  16.603  30.111   6.764
 4646POPC   C3B59481  16.632  30.144   7.064
 4646POPC   C4B59482  16.655  30.138   7.364
 4647POPC   NC359483  29.179   0.451   5.564
 4647POPC   PO459484  29.187   0.391   5.864
 4647POPC   GL159485  29.112   0.456   6.164
 4647POPC   GL259486  29.288   0.408   6.164
 4647POPC   C1A59487  29.101   0.488   6.464
 4647POPC   D2A59488  29.155   0.485   6.764
 4647POPC   C3A59489  29.164   0.484   7.064
 4647POPC   C4A59490  29.134   0.446   7.364
 4647POPC   C1B59491  29.363   0.504   6.464
 4647POPC   C2B59492  29.373   0.489   6.764
 4647POPC   C3B59493  29.429   0.497   7.064
 4647POPC   C4B59494  29.361   0.497   7.364
 4648POPC   NC359495  37.647   2.813   5.564
 4648POPC   PO459496  37.655   2.728   5.864
 4648POPC   GL159497  37.651   2.721   6.164
 4648POPC   GL259498  37.574   2.763   6.164
 4648POPC   C1A59499  37.680   2.753   6.464
 4648POPC   D2A59500  37.693   2.771   6.764
 4648POPC   C3A59501  37.674   2.814   7.064
 4648POPC   C4A59502  37.672   2.809   7.364
 4648POPC   C1B59503  37.474   2.676   6.464
 4648POPC   C2B59504  37.476   2.688   6.764
 4648POPC   C3B59505  37.401   2.717   7.064
 4648POPC   C4B59506  37.481   2.728   7.364
 4649POPC   NC359507  28.404   5.887   5.564
 4649POPC   PO459508  28.336   5.888   5.864
 4649POPC   GL159509  28.394   5.882   6.164
 4649POPC   GL259510  28.291   5.956   6.164
 4649POPC   C1A59511  28.395   5.887   6.464
 4649POPC   D2A59512  28.386   5.873   6.764
 4649POPC   C3A59513  28.362   5.908   7.064
 4649POPC   C4A59514  28.382   5.900   7.364
 4649POPC   C1B59515  28.182   5.964   6.464
 4649POPC   C2B59516  28.116   5.954   6.764
 4649POPC   C3B59517  28.102   5.949   7.064
 4649POPC   C4B59518  28.107   6.007   7.364
 4650POPC   NC359519  17.482  24.472   5.564
 4650POPC   PO459520  17.487  24.462   5.864
 4650POPC   GL159521  17.486  24.508   6.164
 4650POPC   GL259522  17.524  24.547   6.164
 4650POPC   C1A59523  17.510  24.472   6.464
 4650POPC   D2A59524  17.547  24.480   6.764
 4650POPC   C3A59525  17.530  24.514   7.064
 4650POPC   C4A59526  17.482  24.498   7.364
 4650POPC   C1B59527  17.632  24.687   6.464
 4650POPC   C2B59528  17.663  24.653   6.764
 4650POPC   C3B59529  17.595  24.748   7.064
 4650POPC   C4B59530  17.657  24.694   7.364
 4651POPC   NC359531  18.314   8.199   5.564
 4651POPC   PO459532  18.310   8.155   5.864
 4651POPC   GL159533  18.239   8.205   6.164
 4651POPC   GL259534  18.179   8.099   6.164
 4651POPC   C1A59535  18.291   8.232   6.464
 4651POPC   D2A59536  18.237   8.163   6.764
 4651POPC   C3A59537  18.249   8.238   7.064
 4651POPC   C4A59538  18.303   8.238   7.364
 4651POPC   C1B59539  18.162   7.948   6.464
 4651POPC   C2B59540  18.162   8.032   6.764
 4651POPC   C3B59541  18.130   7.984   7.064
 4651POPC   C4B59542  18.141   7.993   7.364
 4652POPC   NC359543  38.444  26.028   5.564
 4652POPC   PO459544  38.484  26.007   5.864
 4652POPC   GL159545  38.450  26.064   6.164
 4652POPC   GL259546  38.310  26.061   6.164
 4652POPC   C1A59547  38.427  26.020   6.464
 4652POPC   D2A59548  38.485  26.045   6.764
 4652POPC   C3A59549  38.420  26.069   7.064
 4652POPC   C4A59550  38.496  25.999   7.364
 4652POPC   C1B59551  38.244  26.115   6.464
 4652POPC   C2B59552  38.258  26.147   6.764
 4652POPC   C3B59553  38.213  26.120   7.064
 4652POPC   C4B59554  38.175  26.080   7.364
 4653POPC   NC359555  41.511   0.427   5.564
 4653POPC   PO459556  41.580   0.426   5.864
 4653POPC   GL159557  41.581   0.389   6.164
 4653POPC   GL259558  41.514   0.525   6.164
 4653POPC   C1A59559  41.589   0.413   6.464
 4653POPC   D2A59560  41.556   0.485   6.764
 4653POPC   C3A59561  41.597   0.393   7.064
 4653POPC   C4A59562  41.568   0.439   7.364
 4653POPC   C1B59563  41.517   0.699   6.464
 4653POPC   C2B59564  41.588   0.720   6.764
 4653POPC   C3B59565  41.557   0.719   7.064
 4653POPC   C4B59566  41.566   0.658   7.364
 4654POPC   NC359567   1.260  38.466   5.564
 4654POPC   PO459568   1.176  38.460   5.864
 4654POPC   GL159569   1.248  38.417   6.164
 4654POPC   GL259570   1.151  38.533   6.164
 4654POPC   C1A59571   1.237  38.433   6.464
 4654POPC   D2A59572   1.250  38.425   6.764
 4654POPC   C3A59573   1.219  38.496   7.064
 4654POPC   C4A59574   1.199  38.485   7.364
 4654POPC   C1B59575   0.969  38.581   6.464
 4654POPC   C2B59576   0.964  38.560   6.764
 4654POPC   C3B59577   0.971  38.580   7.064
 4654POPC   C4B59578   1.056  38.601   7.364
 4655POPC   NC359579  31.472  18.246   5.564
 4655POPC   PO459580  31.461  18.272   5.864
 4655POPC   GL159581  31.452  18.268   6.164
 4655POPC   GL259582  31.577  18.343   6.164
 4655POPC   C1A59583  31.497  18.301   6.464
 4655POPC   D2A59584  31.512  18.307   6.764
 4655POPC   C3A59585  31.454  18.312   7.064
 4655POPC   C4A59586  31.464  18.256   7.364
 4655POPC   C1B59587  31.747  18.400   6.464
 4655POPC   C2B59588  31.671  18.367   6.764
 4655POPC   C3B59589  31.689  18.389   7.064
 4655POPC   C4B59590  31.716  18.414   7.364
 4656POPC   NC359591  39.195  38.434   5.564
 4656POPC   PO459592  39.218  38.435   5.864
 4656POPC   GL159593  39.209  38.430   6.164
 4656POPC   GL259594  39.122  38.460   6.164
 4656POPC   C1A59595  39.228  38.478   6.464
 4656POPC   D2A59596  39.199  38.426   6.764
 4656POPC   C3A59597  39.181  38.433   7.064
 4656POPC   C4A59598  39.244  38.472   7.364
 4656POPC   C1B59599  39.007  38.504   6.464
 4656POPC   C2B59600  38.951  38.537   6.764
 4656POPC   C3B59601  39.007  38.482   7.064
 4656POPC   C4B59602  38.959  38.521   7.364
 4657POPC   NC359603  26.837   3.571   5.564
 4657POPC   PO459604  26.790   3.524   5.864
 4657POPC   GL159605  26.815   3.533   6.164
 4657POPC   GL259606  26.892   3.648   6.164
 4657POPC   C1A59607  26.795   3.578   6.464
 4657POPC   D2A59608  26.796   3.494   6.764
 4657POPC   C3A59609  26.829   3.543   7.064
 4657POPC   C4A59610  26.774   3.547   7.364
 4657POPC   C1B59611  27.021   3.662   6.464
 4657POPC   C2B59612  27.038   3.641   6.764
 4657POPC   C3B59613  27.007   3.633   7.064
 4657POPC   C4B59614  27.034   3.662   7.364
 4658POPC   NC359615  37.689  41.557   5.564
 4658POPC   PO459616  37.647  41.598   5.864
 4658POPC   GL159617  37.677  41.588   6.164
 4658POPC   GL259618  37.638  41.434   6.164
 4658POPC   C1A59619  37.674  41.522   6.464
 4658POPC   D2A59620  37.683  41.569   6.764
 4658POPC   C3A59621  37.714  41.575   7.064
 4658POPC   C4A59622  37.641  41.551   7.364
 4658POPC   C1B59623  37.640  41.339   6.464
 4658POPC   C2B59624  37.666  41.265   6.764
 4658POPC   C3B59625  37.692  41.348   7.064
 4658POPC   C4B59626  37.630  41.320   7.364
 4659POPC   NC359627  29.116  16.756   5.564
 4659POPC   PO459628  29.171  16.736   5.864
 4659POPC   GL159629  29.121  16.737   6.164
 4659POPC   GL259630  28.977  16.716   6.164
 4659POPC   C1A59631  29.183  16.737   6.464
 4659POPC   D2A59632  29.105  16.699   6.764
 4659POPC   C3A59633  29.189  16.777   7.064
 4659POPC   C4A59634  29.175  16.703   7.364
 4659POPC   C1B59635  28.941  16.694   6.464
 4659POPC   C2B59636  28.920  16.675   6.764
 4659POPC   C3B59637  28.859  16.691   7.064
 4659POPC   C4B59638  28.941  16.661   7.364
 4660POPC   NC359639  20.647  20.610   5.564
 4660POPC   PO459640  20.564  20.618   5.864
 4660POPC   GL159641  20.609  20.643   6.164
 4660POPC   GL259642  20.512  20.640   6.164
 4660POPC   C1A59643  20.628  20.632   6.464
 4660POPC   D2A59644  20.613  20.660   6.764
 4660POPC   C3A59645  20.616  20.623   7.064
 4660POPC   C4A59646  20.607  20.622   7.364
 4660POPC   C1B59647  20.375  20.578   6.464
 4660POPC   C2B59648  20.342  20.625   6.764
 4660POPC   C3B59649  20.325  20.605   7.064
 4660POPC   C4B59650  20.365  20.603   7.364
 4661POPC   NC359651  14.360  29.942   5.564
 4661POPC   PO459652  14.435  29.958   5.864
 4661POPC   GL159653  14.388  29.898   6.164
 4661POPC   GL259654  14.303  29.797   6.164
 4661POPC   C1A59655  14.371  29.921   6.464
 4661POPC   D2A59656  14.357  29.904   6.764
 4661POPC   C3A59657  14.401  29.915   7.064
 4661POPC   C4A59658  14.394  29.892   7.364
 4661POPC   C1B59659  14.238  29.728   6.464
 4661POPC   C2B59660  14.271  29.658   6.764
 4661POPC   C3B59661  14.287  29.677   7.064
 4661POPC   C4B59662  14.256  29.679   7.364
 4662POPC   NC359663  30.701  25.268   5.564
 4662POPC   PO459664  30.674  25.262   5.864
 4662POPC   GL159665  30.739  25.263   6.164
 4662POPC   GL259666  30.791  25.174   6.164
 4662POPC   C1A59667  30.658  25.252   6.464
 4662POPC   D2A59668  30.710  25.300   6.764
 4662POPC   C3A59669  30.671  25.241   7.064
 4662POPC   C4A59670  30.724  25.268   7.364
 4662POPC   C1B59671  30.888  25.187   6.464
 4662POPC   C2B59672  30.891  25.137   6.764
 4662POPC   C3B59673  30.871  25.162   7.064
 4662POPC   C4B59674  30.911  25.091   7.364
 4663POPC   NC359675  33.807  34.611   5.564
 4663POPC   PO459676  33.799  34.535   5.864
 4663POPC   GL159677  33.847  34.579   6.164
 4663POPC   GL259678  33.917  34.674   6.164
 4663POPC   C1A59679  33.848  34.585   6.464
 4663POPC   D2A59680  33.811  34.545   6.764
 4663POPC   C3A59681  33.774  34.621   7.064
 4663POPC   C4A59682  33.773  34.560   7.364
 4663POPC   C1B59683  33.953  34.778   6.464
 4663POPC   C2B59684  33.980  34.784   6.764
 4663POPC   C3B59685  33.999  34.767   7.064
 4663POPC   C4B59686  33.984  34.808   7.364
 4664POPC   NC359687  44.637  40.819   5.564
 4664POPC   PO459688  44.659  40.736   5.864
 4664POPC   GL159689  44.640  40.739   6.164
 4664POPC   GL259690  44.835  40.842   6.164
 4664POPC   C1A59691  44.663  40.747   6.464
 4664POPC   D2A59692  44.616  40.832   6.764
 4664POPC   C3A59693  44.614  40.750   7.064
 4664POPC   C4A59694  44.687  40.792   7.364
 4664POPC   C1B59695  44.927  40.838   6.464
 4664POPC   C2B59696  44.905  40.838   6.764
 4664POPC   C3B59697  44.904  40.857   7.064
 4664POPC   C4B59698  44.943  40.839   7.364
 4665POPC   NC359699   2.738  43.926   5.564
 4665POPC   PO459700   2.779  43.884   5.864
 4665POPC   GL159701   2.756  43.891   6.164
 4665POPC   GL259702   2.698  43.988   6.164
 4665POPC   C1A59703   2.723  43.872   6.464
 4665POPC   D2A59704   2.758  43.900   6.764
 4665POPC   C3A59705   2.730  43.901   7.064
 4665POPC   C4A59706   2.786  43.864   7.364
 4665POPC   C1B59707   2.679  44.087   6.464
 4665POPC   C2B59708   2.661  44.078   6.764
 4665POPC   C3B59709   2.624  44.091   7.064
 4665POPC   C4B59710   2.654  44.124   7.364
 4666POPC   NC359711  26.071  43.884   5.564
 4666POPC   PO459712  26.043  43.931   5.864
 4666POPC   GL159713  26.060  43.882   6.164
 4666POPC   GL259714  25.979  43.830   6.164
 4666POPC   C1A59715  26.084  43.849   6.464
 4666POPC   D2A59716  26.003  43.929   6.764
 4666POPC   C3A59717  26.009  43.898   7.064
 4666POPC   C4A59718  26.059  43.931   7.364
 4666POPC   C1B59719  25.864  43.737   6.464
 4666POPC   C2B59720  25.869  43.771   6.764
 4666POPC   C3B59721  25.816  43.746   7.064
 4666POPC   C4B59722  25.780  43.759   7.364
 4667POPC   NC359723  15.969  19.829   5.564
 4667POPC   PO459724  15.950  19.803   5.864
 4667POPC   GL159725  15.974  19.867   6.164
 4667POPC   GL259726  15.956  19.752   6.164
 4667POPC   C1A59727  15.974  19.862   6.464
 4667POPC   D2A59728  15.949  19.837   6.764
 4667POPC   C3A59729  15.985  19.820   7.064
 4667POPC   C4A59730  15.951  19.833   7.364
 4667POPC   C1B59731  15.919  19.567   6.464
 4667POPC   C2B59732  15.998  19.628   6.764
 4667POPC   C3B59733  15.932  19.585   7.064
 4667POPC   C4B59734  15.960  19.572   7.364
 4668POPC   NC359735  33.778   1.236   5.564
 4668POPC   PO459736  33.786   1.250   5.864
 4668POPC   GL159737  33.795   1.254   6.164
 4668POPC   GL259738  33.768   1.376   6.164
 4668POPC   C1A59739  33.764   1.206   6.464
 4668POPC   D2A59740  33.833   1.263   6.764
 4668POPC   C3A59741  33.765   1.170   7.064
 4668POPC   C4A59742  33.803   1.251   7.364
 4668POPC   C1B59743  33.761   1.505   6.464
 4668POPC   C2B59744  33.779   1.453   6.764
 4668POPC   C3B59745  33.772   1.428   7.064
 4668POPC   C4B59746  33.751   1.417   7.364
 4669POPC   NC359747  29.923   0.394   5.564
 4669POPC   PO459748  29.932   0.476   5.864
 4669POPC   GL159749  29.932   0.415   6.164
 4669POPC   GL259750  29.843   0.451   6.164
 4669POPC   C1A59751  29.894   0.435   6.464
 4669POPC   D2A59752  29.897   0.446   6.764
 4669POPC   C3A59753  29.903   0.398   7.064
 4669POPC   C4A59754  29.927   0.463   7.364
 4669POPC   C1B59755  29.635   0.425   6.464
 4669POPC   C2B59756  29.709   0.403   6.764
 4669POPC   C3B59757  29.635   0.421   7.064
 4669POPC   C4B59758  29.682   0.413   7.364
 4670POPC   NC359759  31.424  43.906   5.564
 4670POPC   PO459760  31.520  43.908   5.864
 4670POPC   GL159761  31.460  43.871   6.164
 4670POPC   GL259762  31.612  43.808   6.164
 4670POPC   C1A59763  31.488  43.915   6.464
 4670POPC   D2A59764  31.459  43.858   6.764
 4670POPC   C3A59765  31.432  43.906   7.064
 4670POPC   C4A59766  31.503  43.903   7.364
 4670POPC   C1B59767  31.695  43.704   6.464
 4670POPC   C2B59768  31.692  43.743   6.764
 4670POPC   C3B59769  31.631  43.758   7.064
 4670POPC   C4B59770  31.635  43.782   7.364
 4671POPC   NC359771  19.087  14.407   5.564
 4671POPC   PO459772  19.101  14.395   5.864
 4671POPC   GL159773  19.047  14.404   6.164
 4671POPC   GL259774  18.983  14.495   6.164
 4671POPC   C1A59775  19.036  14.417   6.464
 4671POPC   D2A59776  19.080  14.438   6.764
 4671POPC   C3A59777  19.075  14.405   7.064
 4671POPC   C4A59778  19.028  14.368   7.364
 4671POPC   C1B59779  18.878  14.591   6.464
 4671POPC   C2B59780  18.831  14.542   6.764
 4671POPC   C3B59781  18.845  14.621   7.064
 4671POPC   C4B59782  18.844  14.535   7.364
 4672POPC   NC359783  39.223   3.554   5.564
 4672POPC   PO459784  39.235   3.577   5.864
 4672POPC   GL159785  39.267   3.559   6.164
 4672POPC   GL259786  39.153   3.675   6.164
 4672POPC   C1A59787  39.213   3.562   6.464
 4672POPC   D2A59788  39.262   3.543   6.764
 4672POPC   C3A59789  39.269   3.556   7.064
 4672POPC   C4A59790  39.249   3.550   7.364
 4672POPC   C1B59791  39.015   3.674   6.464
 4672POPC   C2B59792  39.003   3.667   6.764
 4672POPC   C3B59793  39.003   3.718   7.064
 4672POPC   C4B59794  39.012   3.710   7.364
 4673POPC   NC359795  12.813  44.673   5.564
 4673POPC   PO459796  12.857  44.644   5.864
 4673POPC   GL159797  12.807  44.623   6.164
 4673POPC   GL259798  12.814  44.782   6.164
 4673POPC   C1A59799  12.877  44.631   6.464
 4673POPC   D2A59800  12.869  44.675   6.764
 4673POPC   C3A59801  12.828  44.655   7.064
 4673POPC   C4A59802  12.836  44.694   7.364
 4673POPC   C1B59803  12.832  44.887   6.464
 4673POPC   C2B59804  12.858  44.941   6.764
 4673POPC   C3B59805  12.833  44.914   7.064
 4673POPC   C4B59806  12.841  44.940   7.364
 4674POPC   NC359807   2.006  16.710   5.564
 4674POPC   PO459808   1.965  16.750   5.864
 4674POPC   GL159809   1.977  16.759   6.164
 4674POPC   GL259810   2.102  16.655   6.164
 4674POPC   C1A59811   2.020  16.687   6.464
 4674POPC   D2A59812   1.996  16.689   6.764
 4674POPC   C3A59813   1.985  16.753   7.064
 4674POPC   C4A59814   1.967  16.766   7.364
 4674POPC   C1B59815   2.149  16.589   6.464
 4674POPC   C2B59816   2.128  16.559   6.764
 4674POPC   C3B59817   2.154  16.528   7.064
 4674POPC   C4B59818   2.211  16.576   7.364
 4675POPC   NC359819   8.934  36.932   5.564
 4675POPC   PO459820   8.939  36.898   5.864
 4675POPC   GL159821   8.952  36.870   6.164
 4675POPC   GL259822   8.852  36.845   6.164
 4675POPC   C1A59823   9.002  36.895   6.464
 4675POPC   D2A59824   9.021  36.942   6.764
 4675POPC   C3A59825   8.948  36.909   7.064
 4675POPC   C4A59826   8.970  36.854   7.364
 4675POPC   C1B59827   8.748  36.825   6.464
 4675POPC   C2B59828   8.725  36.879   6.764
 4675POPC   C3B59829   8.732  36.847   7.064
 4675POPC   C4B59830   8.758  36.812   7.364
 4676POPC   NC359831  18.249  35.341   5.564
 4676POPC   PO459832  18.271  35.379   5.864
 4676POPC   GL159833  18.237  35.379   6.164
 4676POPC   GL259834  18.197  35.442   6.164
 4676POPC   C1A59835  18.299  35.311   6.464
 4676POPC   D2A59836  18.252  35.314   6.764
 4676POPC   C3A59837  18.245  35.387   7.064
 4676POPC   C4A59838  18.259  35.327   7.364
 4676POPC   C1B59839  18.094  35.470   6.464
 4676POPC   C2B59840  18.036  35.458   6.764
 4676POPC   C3B59841  18.087  35.483   7.064
 4676POPC   C4B59842  18.062  35.439   7.364
 4677POPC   NC359843  33.782   9.737   5.564
 4677POPC   PO459844  33.784   9.745   5.864
 4677POPC   GL159845  33.790   9.773   6.164
 4677POPC   GL259846  33.782   9.896   6.164
 4677POPC   C1A59847  33.806   9.712   6.464
 4677POPC   D2A59848  33.846   9.716   6.764
 4677POPC   C3A59849  33.765   9.731   7.064
 4677POPC   C4A59850  33.793   9.742   7.364
 4677POPC   C1B59851  33.735  10.010   6.464
 4677POPC   C2B59852  33.753   9.994   6.764
 4677POPC   C3B59853  33.779  10.035   7.064
 4677POPC   C4B59854  33.757  10.023   7.364
 4678POPC   NC359855  19.042   5.897   5.564
 4678POPC   PO459856  19.054   5.877   5.864
 4678POPC   GL159857  19.093   5.861   6.164
 4678POPC   GL259858  19.092   5.988   6.164
 4678POPC   C1A59859  19.041   5.875   6.464
 4678POPC   D2A59860  19.018   5.905   6.764
 4678POPC   C3A59861  19.034   5.889   7.064
 4678POPC   C4A59862  19.075   5.916   7.364
 4678POPC   C1B59863  19.165   6.094   6.464
 4678POPC   C2B59864  19.161   6.105   6.764
 4678POPC   C3B59865  19.176   6.052   7.064
 4678POPC   C4B59866  19.166   6.125   7.364
 4679POPC   NC359867   5.911  42.298   5.564
 4679POPC   PO459868   5.849  42.324   5.864
 4679POPC   GL159869   5.912  42.358   6.164
 4679POPC   GL259870   5.852  42.174   6.164
 4679POPC   C1A59871   5.877  42.310   6.464
 4679POPC   D2A59872   5.908  42.295   6.764
 4679POPC   C3A59873   5.868  42.336   7.064
 4679POPC   C4A59874   5.883  42.346   7.364
 4679POPC   C1B59875   5.778  42.040   6.464
 4679POPC   C2B59876   5.872  42.119   6.764
 4679POPC   C3B59877   5.818  42.047   7.064
 4679POPC   C4B59878   5.812  42.077   7.364
 4680POPC   NC359879  38.430   9.013   5.564
 4680POPC   PO459880  38.492   8.961   5.864
 4680POPC   GL159881  38.424   8.984   6.164
 4680POPC   GL259882  38.442   9.073   6.164
 4680POPC   C1A59883  38.491   8.984   6.464
 4680POPC   D2A59884  38.437   8.923   6.764
 4680POPC   C3A59885  38.412   9.019   7.064
 4680POPC   C4A59886  38.409   8.989   7.364
 4680POPC   C1B59887  38.333   9.215   6.464
 4680POPC   C2B59888  38.352   9.196   6.764
 4680POPC   C3B59889  38.338   9.184   7.064
 4680POPC   C4B59890  38.320   9.234   7.364
 4681POPC   NC359891  23.672  29.158   5.564
 4681POPC   PO459892  23.684  29.183   5.864
 4681POPC   GL159893  23.669  29.174   6.164
 4681POPC   GL259894  23.586  29.017   6.164
 4681POPC   C1A59895  23.674  29.192   6.464
 4681POPC   D2A59896  23.749  29.145   6.764
 4681POPC   C3A59897  23.740  29.157   7.064
 4681POPC   C4A59898  23.710  29.119   7.364
 4681POPC   C1B59899  23.476  28.980   6.464
 4681POPC   C2B59900  23.554  29.033   6.764
 4681POPC   C3B59901  23.529  28.971   7.064
 4681POPC   C4B59902  23.516  28.965   7.364
 4682POPC   NC359903   3.578  15.919   5.564
 4682POPC   PO459904   3.524  15.951   5.864
 4682POPC   GL159905   3.493  15.912   6.164
 4682POPC   GL259906   3.597  16.075   6.164
 4682POPC   C1A59907   3.581  15.959   6.464
 4682POPC   D2A59908   3.573  15.950   6.764
 4682POPC   C3A59909   3.497  15.928   7.064
 4682POPC   C4A59910   3.587  15.967   7.364
 4682POPC   C1B59911   3.649  16.136   6.464
 4682POPC   C2B59912   3.726  16.189   6.764
 4682POPC   C3B59913   3.725  16.181   7.064
 4682POPC   C4B59914   3.652  16.146   7.364
 4683POPC   NC359915  10.543  43.906   5.564
 4683POPC   PO459916  10.534  43.889   5.864
 4683POPC   GL159917  10.558  43.935   6.164
 4683POPC   GL259918  10.657  43.891   6.164
 4683POPC   C1A59919  10.503  43.857   6.464
 4683POPC   D2A59920  10.547  43.864   6.764
 4683POPC   C3A59921  10.520  43.852   7.064
 4683POPC   C4A59922  10.562  43.934   7.364
 4683POPC   C1B59923  10.750  44.004   6.464
 4683POPC   C2B59924  10.716  43.944   6.764
 4683POPC   C3B59925  10.753  43.934   7.064
 4683POPC   C4B59926  10.784  43.956   7.364
 4684POPC   NC359927  10.530  29.181   5.564
 4684POPC   PO459928  10.531  29.179   5.864
 4684POPC   GL159929  10.556  29.125   6.164
 4684POPC   GL259930  10.376  29.186   6.164
 4684POPC   C1A59931  10.497  29.139   6.464
 4684POPC   D2A59932  10.499  29.165   6.764
 4684POPC   C3A59933  10.538  29.167   7.064
 4684POPC   C4A59934  10.509  29.115   7.364
 4684POPC   C1B59935  10.296  29.188   6.464
 4684POPC   C2B59936  10.302  29.211   6.764
 4684POPC   C3B59937  10.310  29.133   7.064
 4684POPC   C4B59938  10.317  29.141   7.364
 4685POPC   NC359939  44.688  41.570   5.564
 4685POPC   PO459940  44.661  41.588   5.864
 4685POPC   GL159941  44.711  41.540   6.164
 4685POPC   GL259942  44.588  41.647   6.164
 4685POPC   C1A59943  44.627  41.530   6.464
 4685POPC   D2A59944  44.647  41.592   6.764
 4685POPC   C3A59945  44.701  41.602   7.064
 4685POPC   C4A59946  44.670  41.512   7.364
 4685POPC   C1B59947  44.488  41.674   6.464
 4685POPC   C2B59948  44.484  41.669   6.764
 4685POPC   C3B59949  44.431  41.728   7.064
 4685POPC   C4B59950  44.501  41.690   7.364
 4686POPC   NC359951  21.356   1.242   5.564
 4686POPC   PO459952  21.365   1.190   5.864
 4686POPC   GL159953  21.411   1.252   6.164
 4686POPC   GL259954  21.323   1.278   6.164
 4686POPC   C1A59955  21.417   1.210   6.464
 4686POPC   D2A59956  21.390   1.225   6.764
 4686POPC   C3A59957  21.415   1.238   7.064
 4686POPC   C4A59958  21.346   1.248   7.364
 4686POPC   C1B59959  21.159   1.366   6.464
 4686POPC   C2B59960  21.152   1.343   6.764
 4686POPC   C3B59961  21.119   1.356   7.064
 4686POPC   C4B59962  21.192   1.368   7.364
 4687POPC   NC359963  40.034  35.326   5.564
 4687POPC   PO459964  40.036  35.378   5.864
 4687POPC   GL159965  39.994  35.330   6.164
 4687POPC   GL259966  39.907  35.319   6.164
 4687POPC   C1A59967  40.039  35.357   6.464
 4687POPC   D2A59968  40.041  35.322   6.764
 4687POPC   C3A59969  39.989  35.381   7.064
 4687POPC   C4A59970  39.978  35.307   7.364
 4687POPC   C1B59971  39.757  35.359   6.464
 4687POPC   C2B59972  39.756  35.343   6.764
 4687POPC   C3B59973  39.802  35.400   7.064
 4687POPC   C4B59974  39.727  35.334   7.364
 4688POPC   NC359975  16.753   1.987   5.564
 4688POPC   PO459976  16.773   1.988   5.864
 4688POPC   GL159977  16.689   1.988   6.164
 4688POPC   GL259978  16.635   1.932   6.164
 4688POPC   C1A59979  16.732   1.940   6.464
 4688POPC   D2A59980  16.708   2.011   6.764
 4688POPC   C3A59981  16.772   1.960   7.064
 4688POPC   C4A59982  16.762   1.982   7.364
 4688POPC   C1B59983  16.487   1.906   6.464
 4688POPC   C2B59984  16.477   1.853   6.764
 4688POPC   C3B59985  16.535   1.839   7.064
 4688POPC   C4B59986  16.534   1.836   7.364
 4689POPC   NC359987  29.957   8.210   5.564
 4689POPC   PO459988  29.874   8.246   5.864
 4689POPC   GL159989  29.877   8.194   6.164
 4689POPC   GL259990  29.926   8.317   6.164
 4689POPC   C1A59991  29.962   8.165   6.464
 4689POPC   D2A59992  29.908   8.233   6.764
 4689POPC   C3A59993  29.885   8.169   7.064
 4689POPC   C4A59994  29.899   8.195   7.364
 4689POPC   C1B59995  29.943   8.490   6.464
 4689POPC   C2B59996  29.949   8.421   6.764
 4689POPC   C3B59997  29.911   8.495   7.064
 4689POPC   C4B59998  29.877   8.459   7.364
 4690POPC   NC359999   4.269   3.540   5.564
 4690POPC   PO460000   4.272   3.519   5.864
 4690POPC   GL160001   4.361   3.512   6.164
 4690POPC   GL260002   4.341   3.669   6.164
 4690POPC   C1A60003   4.335   3.524   6.464
 4690POPC   D2A60004   4.325   3.513   6.764
 4690POPC   C3A60005   4.331   3.591   7.064
 4690POPC   C4A60006   4.293   3.527   7.364
 4690POPC   C1B60007   4.312   3.798   6.464
 4690POPC   C2B60008   4.309   3.827   6.764
 4690POPC   C3B60009   4.288   3.746   7.064
 4690POPC   C4B60010   4.266   3.835   7.364
 4691POPC   NC360011  20.633   1.183   5.564
 4691POPC   PO460012  20.652   1.187   5.864
 4691POPC   GL160013  20.653   1.261   6.164
 4691POPC   GL260014  20.617   1.378   6.164
 4691POPC   C1A60015  20.582   1.219   6.464
 4691POPC   D2A60016  20.630   1.213   6.764
 4691POPC   C3A60017  20.579   1.205   7.064
 4691POPC   C4A60018  20.644   1.190   7.364
 4691POPC   C1B60019  20.554   1.444   6.464
 4691POPC   C2B60020  20.594   1.448   6.764
 4691POPC   C3B60021  20.606   1.457   7.064
 4691POPC   C4B60022  20.596   1.473   7.364
 4692POPC   NC360023  22.957  43.843   5.564
 4692POPC   PO460024  22.908  43.879   5.864
 4692POPC   GL160025  22.950  43.848   6.164
 4692POPC   GL260026  22.880  43.776   6.164
 4692POPC   C1A60027  22.888  43.917   6.464
 4692POPC   D2A60028  22.929  43.920   6.764
 4692POPC   C3A60029  22.915  43.866   7.064
 4692POPC   C4A60030  22.927  43.895   7.364
 4692POPC   C1B60031  22.730  43.733   6.464
 4692POPC   C2B60032  22.763  43.769   6.764
 4692POPC   C3B60033  22.714  43.745   7.064
 4692POPC   C4B60034  22.698  43.700   7.364
 4693POPC   NC360035  12.839  40.814   5.564
 4693POPC   PO460036  12.877  40.811   5.864
 4693POPC   GL160037  12.883  40.810   6.164
 4693POPC   GL260038  12.939  40.813   6.164
 4693POPC   C1A60039  12.806  40.744   6.464
 4693POPC   D2A60040  12.824  40.752   6.764
 4693POPC   C3A60041  12.806  40.820   7.064
 4693POPC   C4A60042  12.822  40.822   7.364
 4693POPC   C1B60043  13.123  40.839   6.464
 4693POPC   C2B60044  13.072  40.766   6.764
 4693POPC   C3B60045  13.062  40.824   7.064
 4693POPC   C4B60046  13.131  40.814   7.364
 4694POPC   NC360047   8.246  33.841   5.564
 4694POPC   PO460048   8.244  33.759   5.864
 4694POPC   GL160049   8.218  33.758   6.164
 4694POPC   GL260050   8.100  33.774   6.164
 4694POPC   C1A60051   8.176  33.837   6.464
 4694POPC   D2A60052   8.189  33.768   6.764
 4694POPC   C3A60053   8.237  33.806   7.064
 4694POPC   C4A60054   8.172  33.837   7.364
 4694POPC   C1B60055   8.001  33.773   6.464
 4694POPC   C2B60056   7.976  33.753   6.764
 4694POPC   C3B60057   8.003  33.736   7.064
 4694POPC   C4B60058   7.979  33.714   7.364
 4695POPC   NC360059  28.320  42.375   5.564
 4695POPC   PO460060  28.359  42.306   5.864
 4695POPC   GL160061  28.377  42.339   6.164
 4695POPC   GL260062  28.400  42.459   6.164
 4695POPC   C1A60063  28.360  42.289   6.464
 4695POPC   D2A60064  28.399  42.382   6.764
 4695POPC   C3A60065  28.320  42.307   7.064
 4695POPC   C4A60066  28.395  42.341   7.364
 4695POPC   C1B60067  28.439  42.575   6.464
 4695POPC   C2B60068  28.447  42.576   6.764
 4695POPC   C3B60069  28.449  42.544   7.064
 4695POPC   C4B60070  28.450  42.570   7.364
 4696POPC   NC360071  32.223  41.590   5.564
 4696POPC   PO460072  32.289  41.602   5.864
 4696POPC   GL160073  32.275  41.563   6.164
 4696POPC   GL260074  32.357  41.593   6.164
 4696POPC   C1A60075  32.208  41.513   6.464
 4696POPC   D2A60076  32.251  41.575   6.764
 4696POPC   C3A60077  32.272  41.598   7.064
 4696POPC   C4A60078  32.252  41.553   7.364
 4696POPC   C1B60079  32.474  41.673   6.464
 4696POPC   C2B60080  32.420  41.724   6.764
 4696POPC   C3B60081  32.499  41.730   7.064
 4696POPC   C4B60082  32.480  41.751   7.364
 4697POPC   NC360083  15.177   9.708   5.564
 4697POPC   PO460084  15.196   9.706   5.864
 4697POPC   GL160085  15.224   9.714   6.164
 4697POPC   GL260086  15.088   9.803   6.164
 4697POPC   C1A60087  15.209   9.741   6.464
 4697POPC   D2A60088  15.190   9.734   6.764
 4697POPC   C3A60089  15.156   9.727   7.064
 4697POPC   C4A60090  15.174   9.744   7.364
 4697POPC   C1B60091  14.966   9.762   6.464
 4697POPC   C2B60092  14.927   9.780   6.764
 4697POPC   C3B60093  14.965   9.748   7.064
 4697POPC   C4B60094  14.950   9.825   7.364
 4698POPC   NC360095  36.155  44.668   5.564
 4698POPC   PO460096  36.142  44.629   5.864
 4698POPC   GL160097  36.139  44.650   6.164
 4698POPC   GL260098  36.105  44.777   6.164
 4698POPC   C1A60099  36.173  44.680   6.464
 4698POPC   D2A60100  36.172  44.710   6.764
 4698POPC   C3A60101  36.145  44.691   7.064
 4698POPC   C4A60102  36.084  44.651   7.364
 4698POPC   C1B60103  35.993  44.890   6.464
 4698POPC   C2B60104  35.985  44.845   6.764
 4698POPC   C3B60105  35.963  44.890   7.064
 4698POPC   C4B60106  36.019  44.857   7.364
 4699POPC   NC360107  15.995  25.307   5.564
 4699POPC   PO460108  16.005  25.280   5.864
 4699POPC   GL160109  15.954  25.299   6.164
 4699POPC   GL260110  15.928  25.168   6.164
 4699POPC   C1A60111  15.926  25.224   6.464
 4699POPC   D2A60112  15.985  25.315   6.764
 4699POPC   C3A60113  15.968  25.225   7.064
 4699POPC   C4A60114  15.922  25.260   7.364
 4699POPC   C1B60115  15.896  25.016   6.464
 4699POPC   C2B60116  15.880  25.007   6.764
 4699POPC   C3B60117  15.884  24.980   7.064
 4699POPC   C4B60118  15.954  25.022   7.364
 4700POPC   NC360119  16.754   7.382   5.564
 4700POPC   PO460120  16.778   7.389   5.864
 4700POPC   GL160121  16.735   7.442   6.164
 4700POPC   GL260122  16.839   7.537   6.164
 4700POPC   C1A60123  16.725   7.387   6.464
 4700POPC   D2A60124  16.726   7.467   6.764
 4700POPC   C3A60125  16.773   7.458   7.064
 4700POPC   C4A60126  16.699   7.459   7.364
 4700POPC   C1B60127  16.930   7.613   6.464
 4700POPC   C2B60128  16.893   7.662   6.764
 4700POPC   C3B60129  16.872   7.594   7.064
 4700POPC   C4B60130  16.878   7.634   7.364
 4701POPC   NC360131   5.074   6.605   5.564
 4701POPC   PO460132   5.116   6.623   5.864
 4701POPC   GL160133   5.106   6.677   6.164
 4701POPC   GL260134   5.177   6.678   6.164
 4701POPC   C1A60135   5.069   6.653   6.464
 4701POPC   D2A60136   5.069   6.614   6.764
 4701POPC   C3A60137   5.085   6.662   7.064
 4701POPC   C4A60138   5.051   6.666   7.364
 4701POPC   C1B60139   5.345   6.745   6.464
 4701POPC   C2B60140   5.369   6.742   6.764
 4701POPC   C3B60141   5.350   6.699   7.064
 4701POPC   C4B60142   5.274   6.780   7.364
 4702POPC   NC360143   8.180  36.111   5.564
 4702POPC   PO460144   8.224  36.150   5.864
 4702POPC   GL160145   8.177  36.093   6.164
 4702POPC   GL260146   8.253  36.213   6.164
 4702POPC   C1A60147   8.170  36.161   6.464
 4702POPC   D2A60148   8.217  36.131   6.764
 4702POPC   C3A60149   8.166  36.147   7.064
 4702POPC   C4A60150   8.173  36.161   7.364
 4702POPC   C1B60151   8.320  36.355   6.464
 4702POPC   C2B60152   8.254  36.348   6.764
 4702POPC   C3B60153   8.248  36.371   7.064
 4702POPC   C4B60154   8.240  36.326   7.364
 4703POPC   NC360155  15.929   6.618   5.564
 4703POPC   PO460156  15.932   6.612   5.864
 4703POPC   GL160157  15.959   6.653   6.164
 4703POPC   GL260158  15.810   6.592   6.164
 4703POPC   C1A60159  15.995   6.625   6.464
 4703POPC   D2A60160  15.981   6.600   6.764
 4703POPC   C3A60161  15.937   6.656   7.064
 4703POPC   C4A60162  15.965   6.647   7.364
 4703POPC   C1B60163  15.706   6.581   6.464
 4703POPC   C2B60164  15.693   6.608   6.764
 4703POPC   C3B60165  15.711   6.592   7.064
 4703POPC   C4B60166  15.767   6.604   7.364
 4704POPC   NC360167  13.638  29.888   5.564
 4704POPC   PO460168  13.667  29.903   5.864
 4704POPC   GL160169  13.590  29.890   6.164
 4704POPC   GL260170  13.509  29.972   6.164
 4704POPC   C1A60171  13.639  29.967   6.464
 4704POPC   D2A60172  13.587  29.916   6.764
 4704POPC   C3A60173  13.598  29.967   7.064
 4704POPC   C4A60174  13.668  29.882   7.364
 4704POPC   C1B60175  13.437  30.083   6.464
 4704POPC   C2B60176  13.441  30.138   6.764
 4704POPC   C3B60177  13.449  30.140   7.064
 4704POPC   C4B60178  13.443  30.120   7.364
 4705POPC   NC360179  30.721  34.550   5.564
 4705POPC   PO460180  30.659  34.537   5.864
 4705POPC   GL160181  30.666  34.573   6.164
 4705POPC   GL260182  30.836  34.552   6.164
 4705POPC   C1A60183  30.688  34.555   6.464
 4705POPC   D2A60184  30.732  34.584   6.764
 4705POPC   C3A60185  30.719  34.622   7.064
 4705POPC   C4A60186  30.647  34.621   7.364
 4705POPC   C1B60187  30.888  34.422   6.464
 4705POPC   C2B60188  30.916  34.430   6.764
 4705POPC   C3B60189  30.884  34.441   7.064
 4705POPC   C4B60190  30.853  34.380   7.364
 4706POPC   NC360191  36.866  26.053   5.564
 4706POPC   PO460192  36.950  26.050   5.864
 4706POPC   GL160193  36.869  26.020   6.164
 4706POPC   GL260194  36.800  25.950   6.164
 4706POPC   C1A60195  36.934  26.047   6.464
 4706POPC   D2A60196  36.859  26.064   6.764
 4706POPC   C3A60197  36.930  26.016   7.064
 4706POPC   C4A60198  36.900  25.998   7.364
 4706POPC   C1B60199  36.746  25.896   6.464
 4706POPC   C2B60200  36.763  25.891   6.764
 4706POPC   C3B60201  36.760  25.855   7.064
 4706POPC   C4B60202  36.745  25.863   7.364
 4707POPC   NC360203  14.382  15.970   5.564
 4707POPC   PO460204  14.359  15.953   5.864
 4707POPC   GL160205  14.410  15.915   6.164
 4707POPC   GL260206  14.553  16.011   6.164
 4707POPC   C1A60207  14.379  15.930   6.464
 4707POPC   D2A60208  14.439  15.976   6.764
 4707POPC   C3A60209  14.402  15.951   7.064
 4707POPC   C4A60210  14.443  15.958   7.364
 4707POPC   C1B60211  14.611  16.072   6.464
 4707POPC   C2B60212  14.637  16.045   6.764
 4707POPC   C3B60213  14.644  16.126   7.064
 4707POPC   C4B60214  14.665  16.054   7.364
 4708POPC   NC360215  13.638  39.982   5.564
 4708POPC   PO460216  13.584  40.027   5.864
 4708POPC   GL160217  13.593  40.011   6.164
 4708POPC   GL260218  13.694  40.131   6.164
 4708POPC   C1A60219  13.615  39.978   6.464
 4708POPC   D2A60220  13.596  40.010   6.764
 4708POPC   C3A60221  13.633  40.055   7.064
 4708POPC   C4A60222  13.602  40.022   7.364
 4708POPC   C1B60223  13.739  40.250   6.464
 4708POPC   C2B60224  13.780  40.243   6.764
 4708POPC   C3B60225  13.713  40.186   7.064
 4708POPC   C4B60226  13.770  40.254   7.364
 4709POPC   NC360227  26.018   8.235   5.564
 4709POPC   PO460228  26.036   8.242   5.864
 4709POPC   GL160229  26.013   8.217   6.164
 4709POPC   GL260230  25.926   8.324   6.164
 4709POPC   C1A60231  26.033   8.212   6.464
 4709POPC   D2A60232  26.041   8.236   6.764
 4709POPC   C3A60233  26.031   8.233   7.064
 4709POPC   C4A60234  26.019   8.151   7.364
 4709POPC   C1B60235  25.875   8.365   6.464
 4709POPC   C2B60236  25.884   8.448   6.764
 4709POPC   C3B60237  25.935   8.407   7.064
 4709POPC   C4B60238  25.879   8.383   7.364
 4710POPC   NC360239  19.863  15.201   5.564
 4710POPC   PO460240  19.803  15.169   5.864
 4710POPC   GL160241  19.796  15.200   6.164
 4710POPC   GL260242  19.784  15.108   6.164
 4710POPC   C1A60243  19.879  15.182   6.464
 4710POPC   D2A60244  19.808  15.186   6.764
 4710POPC   C3A60245  19.819  15.141   7.064
 4710POPC   C4A60246  19.834  15.131   7.364
 4710POPC   C1B60247  19.722  14.938   6.464
 4710POPC   C2B60248  19.778  14.918   6.764
 4710POPC   C3B60249  19.685  14.913   7.064
 4710POPC   C4B60250  19.762  14.935   7.364
 4711POPC   NC360251  25.234   1.237   5.564
 4711POPC   PO460252  25.277   1.244   5.864
 4711POPC   GL160253  25.311   1.177   6.164
 4711POPC   GL260254  25.397   1.151   6.164
 4711POPC   C1A60255  25.282   1.251   6.464
 4711POPC   D2A60256  25.238   1.220   6.764
 4711POPC   C3A60257  25.258   1.254   7.064
 4711POPC   C4A60258  25.256   1.240   7.364
 4711POPC   C1B60259  25.472   1.064   6.464
 4711POPC   C2B60260  25.526   1.113   6.764
 4711POPC   C3B60261  25.477   1.082   7.064
 4711POPC   C4B60262  25.449   1.107   7.364
 4712POPC   NC360263   3.527   7.430   5.564
 4712POPC   PO460264   3.584   7.420   5.864
 4712POPC   GL160265   3.521   7.434   6.164
 4712POPC   GL260266   3.609   7.570   6.164
 4712POPC   C1A60267   3.536   7.387   6.464
 4712POPC   D2A60268   3.575   7.381   6.764
 4712POPC   C3A60269   3.549   7.418   7.064
 4712POPC   C4A60270   3.517   7.418   7.364
 4712POPC   C1B60271   3.630   7.675   6.464
 4712POPC   C2B60272   3.630   7.612   6.764
 4712POPC   C3B60273   3.689   7.664   7.064
 4712POPC   C4B60274   3.613   7.655   7.364
 4713POPC   NC360275  19.835  40.043   5.564
 4713POPC   PO460276  19.864  40.030   5.864
 4713POPC   GL160277  19.864  40.045   6.164
 4713POPC   GL260278  19.727  39.981   6.164
 4713POPC   C1A60279  19.866  39.978   6.464
 4713POPC   D2A60280  19.861  39.962   6.764
 4713POPC   C3A60281  19.795  40.051   7.064
 4713POPC   C4A60282  19.802  39.977   7.364
 4713POPC   C1B60283  19.666  39.883   6.464
 4713POPC   C2B60284  19.608  39.878   6.764
 4713POPC   C3B60285  19.649  39.865   7.064
 4713POPC   C4B60286  19.669  39.870   7.364
 4714POPC   NC360287  10.528   9.714   5.564
 4714POPC   PO460288  10.487   9.717   5.864
 4714POPC   GL160289  10.501   9.755   6.164
 4714POPC   GL260290  10.672   9.781   6.164
 4714POPC   C1A60291  10.476   9.737   6.464
 4714POPC   D2A60292  10.541   9.737   6.764
 4714POPC   C3A60293  10.553   9.741   7.064
 4714POPC   C4A60294  10.491   9.732   7.364
 4714POPC   C1B60295  10.731   9.769   6.464
 4714POPC   C2B60296  10.758   9.772   6.764
 4714POPC   C3B60297  10.764   9.768   7.064
 4714POPC   C4B60298  10.730   9.745   7.364
 4715POPC   NC360299  36.141  20.620   5.564
 4715POPC   PO460300  36.093  20.572   5.864
 4715POPC   GL160301  36.088  20.596   6.164
 4715POPC   GL260302  36.008  20.626   6.164
 4715POPC   C1A60303  36.089  20.598   6.464
 4715POPC   D2A60304  36.087  20.563   6.764
 4715POPC   C3A60305  36.083  20.566   7.064
 4715POPC   C4A60306  36.122  20.584   7.364
 4715POPC   C1B60307  35.835  20.575   6.464
 4715POPC   C2B60308  35.922  20.608   6.764
 4715POPC   C3B60309  35.859  20.572   7.064
 4715POPC   C4B60310  35.876  20.591   7.364
 4716POPC   NC360311  18.282  34.542   5.564
 4716POPC   PO460312  18.289  34.531   5.864
 4716POPC   GL160313  18.284  34.550   6.164
 4716POPC   GL260314  18.172  34.530   6.164
 4716POPC   C1A60315  18.262  34.574   6.464
 4716POPC   D2A60316  18.325  34.537   6.764
 4716POPC   C3A60317  18.319  34.613   7.064
 4716POPC   C4A60318  18.333  34.621   7.364
 4716POPC   C1B60319  18.086  34.391   6.464
 4716POPC   C2B60320  18.043  34.384   6.764
 4716POPC   C3B60321  18.060  34.437   7.064
 4716POPC   C4B60322  18.103  34.406   7.364
 4717POPC   NC360323  20.658  24.461   5.564
 4717POPC   PO460324  20.585  24.504   5.864
 4717POPC   GL160325  20.604  24.524   6.164
 4717POPC   GL260326  20.642  24.575   6.164
 4717POPC   C1A60327  20.619  24.465   6.464
 4717POPC   D2A60328  20.654  24.525   6.764
 4717POPC   C3A60329  20.641  24.442   7.064
 4717POPC   C4A60330  20.630  24.527   7.364
 4717POPC   C1B60331  20.599  24.731   6.464
 4717POPC   C2B60332  20.545  24.715   6.764
 4717POPC   C3B60333  20.571  24.714   7.064
 4717POPC   C4B60334  20.632  24.771   7.364
 4718POPC   NC360335  43.860  43.852   5.564
 4718POPC   PO460336  43.913  43.849   5.864
 4718POPC   GL160337  43.847  43.861   6.164
 4718POPC   GL260338  43.805  43.815   6.164
 4718POPC   C1A60339  43.856  43.864   6.464
 4718POPC   D2A60340  43.914  43.918   6.764
 4718POPC   C3A60341  43.936  43.918   7.064
 4718POPC   C4A60342  43.853  43.881   7.364
 4718POPC   C1B60343  43.730  43.755   6.464
 4718POPC   C2B60344  43.665  43.717   6.764
 4718POPC   C3B60345  43.670  43.757   7.064
 4718POPC   C4B60346  43.682  43.673   7.364
 4719POPC   NC360347  20.652   9.006   5.564
 4719POPC   PO460348  20.635   8.939   5.864
 4719POPC   GL160349  20.618   8.939   6.164
 4719POPC   GL260350  20.488   9.060   6.164
 4719POPC   C1A60351  20.654   9.011   6.464
 4719POPC   D2A60352  20.638   8.958   6.764
 4719POPC   C3A60353  20.588   8.981   7.064
 4719POPC   C4A60354  20.636   9.007   7.364
 4719POPC   C1B60355  20.417   9.154   6.464
 4719POPC   C2B60356  20.432   9.175   6.764
 4719POPC   C3B60357  20.404   9.121   7.064
 4719POPC   C4B60358  20.446   9.136   7.364
 4720POPC   NC360359  21.389   5.063   5.564
 4720POPC   PO460360  21.340   5.101   5.864
 4720POPC   GL160361  21.369   5.053   6.164
 4720POPC   GL260362  21.341   5.212   6.164
 4720POPC   C1A60363  21.343   5.119   6.464
 4720POPC   D2A60364  21.347   5.051   6.764
 4720POPC   C3A60365  21.365   5.107   7.064
 4720POPC   C4A60366  21.403   5.083   7.364
 4720POPC   C1B60367  21.276   5.308   6.464
 4720POPC   C2B60368  21.195   5.264   6.764
 4720POPC   C3B60369  21.225   5.325   7.064
 4720POPC   C4B60370  21.275   5.298   7.364
 4721POPC   NC360371  32.274  20.617   5.564
 4721POPC   PO460372  32.211  20.610   5.864
 4721POPC   GL160373  32.215  20.612   6.164
 4721POPC   GL260374  32.335  20.680   6.164
 4721POPC   C1A60375  32.279  20.562   6.464
 4721POPC   D2A60376  32.233  20.574   6.764
 4721POPC   C3A60377  32.246  20.595   7.064
 4721POPC   C4A60378  32.229  20.639   7.364
 4721POPC   C1B60379  32.354  20.801   6.464
 4721POPC   C2B60380  32.369  20.843   6.764
 4721POPC   C3B60381  32.294  20.811   7.064
 4721POPC   C4B60382  32.376  20.872   7.364
 4722POPC   NC360383  36.119  11.332   5.564
 4722POPC   PO460384  36.140  11.326   5.864
 4722POPC   GL160385  36.150  11.298   6.164
 4722POPC   GL260386  36.229  11.373   6.164
 4722POPC   C1A60387  36.081  11.345   6.464
 4722POPC   D2A60388  36.123  11.288   6.764
 4722POPC   C3A60389  36.164  11.258   7.064
 4722POPC   C4A60390  36.171  11.265   7.364
 4722POPC   C1B60391  36.266  11.486   6.464
 4722POPC   C2B60392  36.306  11.489   6.764
 4722POPC   C3B60393  36.281  11.483   7.064
 4722POPC   C4B60394  36.243  11.550   7.364
 4723POPC   NC360395  11.262  13.606   5.564
 4723POPC   PO460396  11.343  13.644   5.864
 4723POPC   GL160397  11.310  13.600   6.164
 4723POPC   GL260398  11.163  13.664   6.164
 4723POPC   C1A60399  11.293  13.665   6.464
 4723POPC   D2A60400  11.254  13.606   6.764
 4723POPC   C3A60401  11.305  13.614   7.064
 4723POPC   C4A60402  11.340  13.608   7.364
 4723POPC   C1B60403  11.065  13.769   6.464
 4723POPC   C2B60404  11.084  13.700   6.764
 4723POPC   C3B60405  11.046  13.782   7.064
 4723POPC   C4B60406  11.042  13.693   7.364
 4724POPC   NC360407  36.854  38.480   5.564
 4724POPC   PO460408  36.921  38.456   5.864
 4724POPC   GL160409  36.945  38.456   6.164
 4724POPC   GL260410  36.894  38.313   6.164
 4724POPC   C1A60411  36.920  38.465   6.464
 4724POPC   D2A60412  36.862  38.458   6.764
 4724POPC   C3A60413  36.911  38.475   7.064
 4724POPC   C4A60414  36.878  38.473   7.364
 4724POPC   C1B60415  36.955  38.241   6.464
 4724POPC   C2B60416  37.008  38.188   6.764
 4724POPC   C3B60417  37.019  38.187   7.064
 4724POPC   C4B60418  36.979  38.263   7.364
 4725POPC   NC360419  30.740  38.405   5.564
 4725POPC   PO460420  30.695  38.412   5.864
 4725POPC   GL160421  30.664  38.469   6.164
 4725POPC   GL260422  30.721  38.382   6.164
 4725POPC   C1A60423  30.665  38.499   6.464
 4725POPC   D2A60424  30.713  38.477   6.764
 4725POPC   C3A60425  30.664  38.491   7.064
 4725POPC   C4A60426  30.716  38.468   7.364
 4725POPC   C1B60427  30.821  38.247   6.464
 4725POPC   C2B60428  30.809  38.268   6.764
 4725POPC   C3B60429  30.823  38.208   7.064
 4725POPC   C4B60430  30.816  38.185   7.364
 4726POPC   NC360431  29.161   4.318   5.564
 4726POPC   PO460432  29.160   4.308   5.864
 4726POPC   GL160433  29.130   4.274   6.164
 4726POPC   GL260434  29.272   4.272   6.164
 4726POPC   C1A60435  29.112   4.349   6.464
 4726POPC   D2A60436  29.122   4.320   6.764
 4726POPC   C3A60437  29.103   4.305   7.064
 4726POPC   C4A60438  29.178   4.338   7.364
 4726POPC   C1B60439  29.369   4.262   6.464
 4726POPC   C2B60440  29.407   4.203   6.764
 4726POPC   C3B60441  29.385   4.220   7.064
 4726POPC   C4B60442  29.404   4.230   7.364
 4727POPC   NC360443  18.259   2.809   5.564
 4727POPC   PO460444  18.249   2.724   5.864
 4727POPC   GL160445  18.269   2.808   6.164
 4727POPC   GL260446  18.150   2.836   6.164
 4727POPC   C1A60447  18.289   2.801   6.464
 4727POPC   D2A60448  18.301   2.753   6.764
 4727POPC   C3A60449  18.304   2.794   7.064
 4727POPC   C4A60450  18.331   2.760   7.364
 4727POPC   C1B60451  18.129   2.882   6.464
 4727POPC   C2B60452  18.109   2.925   6.764
 4727POPC   C3B60453  18.105   2.935   7.064
 4727POPC   C4B60454  18.102   2.956   7.364
 4728POPC   NC360455   3.564  15.171   5.564
 4728POPC   PO460456   3.567  15.218   5.864
 4728POPC   GL160457   3.565  15.227   6.164
 4728POPC   GL260458   3.666  15.185   6.164
 4728POPC   C1A60459   3.589  15.219   6.464
 4728POPC   D2A60460   3.573  15.185   6.764
 4728POPC   C3A60461   3.549  15.213   7.064
 4728POPC   C4A60462   3.523  15.183   7.364
 4728POPC   C1B60463   3.777  15.117   6.464
 4728POPC   C2B60464   3.774  15.113   6.764
 4728POPC   C3B60465   3.830  15.110   7.064
 4728POPC   C4B60466   3.826  15.135   7.364
 4729POPC   NC360467  43.872   3.542   5.564
 4729POPC   PO460468  43.843   3.581   5.864
 4729POPC   GL160469  43.892   3.585   6.164
 4729POPC   GL260470  43.863   3.679   6.164
 4729POPC   C1A60471  43.925   3.495   6.464
 4729POPC   D2A60472  43.850   3.508   6.764
 4729POPC   C3A60473  43.848   3.498   7.064
 4729POPC   C4A60474  43.903   3.547   7.364
 4729POPC   C1B60475  43.785   3.786   6.464
 4729POPC   C2B60476  43.759   3.775   6.764
 4729POPC   C3B60477  43.800   3.723   7.064
 4729POPC   C4B60478  43.749   3.771   7.364
 4730POPC   NC360479  41.546   3.567   5.564
 4730POPC   PO460480  41.583   3.496   5.864
 4730POPC   GL160481  41.541   3.509   6.164
 4730POPC   GL260482  41.637   3.583   6.164
 4730POPC   C1A60483  41.520   3.591   6.464
 4730POPC   D2A60484  41.516   3.521   6.764
 4730POPC   C3A60485  41.581   3.512   7.064
 4730POPC   C4A60486  41.588   3.517   7.364
 4730POPC   C1B60487  41.815   3.717   6.464
 4730POPC   C2B60488  41.762   3.679   6.764
 4730POPC   C3B60489  41.776   3.713   7.064
 4730POPC   C4B60490  41.782   3.647   7.364
 4731POPC   NC360491   5.891  16.693   5.564
 4731POPC   PO460492   5.848  16.691   5.864
 4731POPC   GL160493   5.918  16.691   6.164
 4731POPC   GL260494   5.879  16.857   6.164
 4731POPC   C1A60495   5.854  16.691   6.464
 4731POPC   D2A60496   5.903  16.734   6.764
 4731POPC   C3A60497   5.823  16.747   7.064
 4731POPC   C4A60498   5.839  16.705   7.364
 4731POPC   C1B60499   5.791  16.947   6.464
 4731POPC   C2B60500   5.872  16.952   6.764
 4731POPC   C3B60501   5.871  16.994   7.064
 4731POPC   C4B60502   5.798  16.965   7.364
 4732POPC   NC360503  29.947  33.824   5.564
 4732POPC   PO460504  29.910  33.823   5.864
 4732POPC   GL160505  29.941  33.768   6.164
 4732POPC   GL260506  29.763  33.866   6.164
 4732POPC   C1A60507  29.927  33.758   6.464
 4732POPC   D2A60508  29.935  33.821   6.764
 4732POPC   C3A60509  29.880  33.813   7.064
 4732POPC   C4A60510  29.940  33.764   7.364
 4732POPC   C1B60511  29.657  33.879   6.464
 4732POPC   C2B60512  29.679  33.884   6.764
 4732POPC   C3B60513  29.723  33.934   7.064
 4732POPC   C4B60514  29.676  33.861   7.364
 4733POPC   NC360515  23.704  44.673   5.564
 4733POPC   PO460516  23.726  44.655   5.864
 4733POPC   GL160517  23.725  44.630   6.164
 4733POPC   GL260518  23.822  44.685   6.164
 4733POPC   C1A60519  23.729  44.700   6.464
 4733POPC   D2A60520  23.728  44.617   6.764
 4733POPC   C3A60521  23.714  44.669   7.064
 4733POPC   C4A60522  23.752  44.692   7.364
 4733POPC   C1B60523  23.958  44.648   6.464
 4733POPC   C2B60524  23.993  44.687   6.764
 4733POPC   C3B60525  23.970  44.621   7.064
 4733POPC   C4B60526  23.917  44.631   7.364
 4734POPC   NC360527   8.168  12.079   5.564
 4734POPC   PO460528   8.226  12.082   5.864
 4734POPC   GL160529   8.246  12.113   6.164
 4734POPC   GL260530   8.273  12.125   6.164
 4734POPC   C1A60531   8.178  12.112   6.464
 4734POPC   D2A60532   8.242  12.058   6.764
 4734POPC   C3A60533   8.150  12.111   7.064
 4734POPC   C4A60534   8.230  12.029   7.364
 4734POPC   C1B60535   8.474  12.103   6.464
 4734POPC   C2B60536   8.441  12.142   6.764
 4734POPC   C3B60537   8.397  12.183   7.064
 4734POPC   C4B60538   8.479  12.085   7.364
 4735POPC   NC360539  15.961  26.837   5.564
 4735POPC   PO460540  15.915  26.807   5.864
 4735POPC   GL160541  15.993  26.776   6.164
 4735POPC   GL260542  15.872  26.846   6.164
 4735POPC   C1A60543  15.931  26.799   6.464
 4735POPC   D2A60544  15.933  26.780   6.764
 4735POPC   C3A60545  15.959  26.813   7.064
 4735POPC   C4A60546  15.982  26.793   7.364
 4735POPC   C1B60547  15.737  26.922   6.464
 4735POPC   C2B60548  15.748  26.923   6.764
 4735POPC   C3B60549  15.680  26.914   7.064
 4735POPC   C4B60550  15.756  26.876   7.364
 4736POPC   NC360551  12.058  18.297   5.564
 4736POPC   PO460552  12.032  18.284   5.864
 4736POPC   GL160553  12.113  18.328   6.164
 4736POPC   GL260554  12.222  18.293   6.164
 4736POPC   C1A60555  12.055  18.268   6.464
 4736POPC   D2A60556  12.119  18.235   6.764
 4736POPC   C3A60557  12.097  18.294   7.064
 4736POPC   C4A60558  12.085  18.243   7.364
 4736POPC   C1B60559  12.305  18.307   6.464
 4736POPC   C2B60560  12.356  18.260   6.764
 4736POPC   C3B60561  12.365  18.293   7.064
 4736POPC   C4B60562  12.316  18.259   7.364
 4737POPC   NC360563   2.034  36.939   5.564
 4737POPC   PO460564   2.017  36.924   5.864
 4737POPC   GL160565   1.956  36.923   6.164
 4737POPC   GL260566   2.144  36.908   6.164
 4737POPC   C1A60567   1.993  36.870   6.464
 4737POPC   D2A60568   2.018  36.929   6.764
 4737POPC   C3A60569   1.978  36.861   7.064
 4737POPC   C4A60570   1.959  36.951   7.364
 4737POPC   C1B60571   2.226  37.012   6.464
 4737POPC   C2B60572   2.207  36.942   6.764
 4737POPC   C3B60573   2.241  36.990   7.064
 4737POPC   C4B60574   2.222  37.002   7.364
 4738POPC   NC360575  28.392  35.318   5.564
 4738POPC   PO460576  28.351  35.319   5.864
 4738POPC   GL160577  28.361  35.334   6.164
 4738POPC   GL260578  28.301  35.390   6.164
 4738POPC   C1A60579  28.410  35.356   6.464
 4738POPC   D2A60580  28.404  35.318   6.764
 4738POPC   C3A60581  28.323  35.400   7.064
 4738POPC   C4A60582  28.337  35.367   7.364
 4738POPC   C1B60583  28.202  35.481   6.464
 4738POPC   C2B60584  28.213  35.559   6.764
 4738POPC   C3B60585  28.164  35.502   7.064
 4738POPC   C4B60586  28.185  35.503   7.364
 4739POPC   NC360587  29.103  35.369   5.564
 4739POPC   PO460588  29.126  35.394   5.864
 4739POPC   GL160589  29.135  35.372   6.164
 4739POPC   GL260590  29.234  35.426   6.164
 4739POPC   C1A60591  29.140  35.363   6.464
 4739POPC   D2A60592  29.110  35.335   6.764
 4739POPC   C3A60593  29.100  35.351   7.064
 4739POPC   C4A60594  29.186  35.328   7.364
 4739POPC   C1B60595  29.247  35.555   6.464
 4739POPC   C2B60596  29.206  35.537   6.764
 4739POPC   C3B60597  29.215  35.549   7.064
 4739POPC   C4B60598  29.243  35.603   7.364
 4740POPC   NC360599  33.845   5.052   5.564
 4740POPC   PO460600  33.780   5.094   5.864
 4740POPC   GL160601  33.819   5.118   6.164
 4740POPC   GL260602  33.680   5.057   6.164
 4740POPC   C1A60603  33.849   5.142   6.464
 4740POPC   D2A60604  33.824   5.113   6.764
 4740POPC   C3A60605  33.757   5.071   7.064
 4740POPC   C4A60606  33.767   5.076   7.364
 4740POPC   C1B60607  33.566   5.013   6.464
 4740POPC   C2B60608  33.559   5.008   6.764
 4740POPC   C3B60609  33.573   4.984   7.064
 4740POPC   C4B60610  33.552   5.021   7.364
 4741POPC   NC360611   3.552  30.743   5.564
 4741POPC   PO460612   3.550  30.745   5.864
 4741POPC   GL160613   3.565  30.673   6.164
 4741POPC   GL260614   3.436  30.626   6.164
 4741POPC   C1A60615   3.577  30.649   6.464
 4741POPC   D2A60616   3.530  30.722   6.764
 4741POPC   C3A60617   3.525  30.656   7.064
 4741POPC   C4A60618   3.543  30.709   7.364
 4741POPC   C1B60619   3.377  30.530   6.464
 4741POPC   C2B60620   3.402  30.510   6.764
 4741POPC   C3B60621   3.397  30.459   7.064
 4741POPC   C4B60622   3.440  30.494   7.364
 4742POPC   NC360623   7.422  22.960   5.564
 4742POPC   PO460624   7.453  22.976   5.864
 4742POPC   GL160625   7.375  22.910   6.164
 4742POPC   GL260626   7.419  22.768   6.164
 4742POPC   C1A60627   7.412  22.966   6.464
 4742POPC   D2A60628   7.457  22.965   6.764
 4742POPC   C3A60629   7.444  22.958   7.064
 4742POPC   C4A60630   7.401  22.969   7.364
 4742POPC   C1B60631   7.420  22.679   6.464
 4742POPC   C2B60632   7.471  22.729   6.764
 4742POPC   C3B60633   7.425  22.700   7.064
 4742POPC   C4B60634   7.489  22.668   7.364
 4743POPC   NC360635  20.651  42.332   5.564
 4743POPC   PO460636  20.651  42.363   5.864
 4743POPC   GL160637  20.582  42.287   6.164
 4743POPC   GL260638  20.615  42.213   6.164
 4743POPC   C1A60639  20.576  42.287   6.464
 4743POPC   D2A60640  20.569  42.325   6.764
 4743POPC   C3A60641  20.641  42.294   7.064
 4743POPC   C4A60642  20.643  42.369   7.364
 4743POPC   C1B60643  20.686  42.111   6.464
 4743POPC   C2B60644  20.639  42.062   6.764
 4743POPC   C3B60645  20.618  42.037   7.064
 4743POPC   C4B60646  20.636  42.132   7.364
 4744POPC   NC360647  27.631   8.233   5.564
 4744POPC   PO460648  27.625   8.210   5.864
 4744POPC   GL160649  27.614   8.202   6.164
 4744POPC   GL260650  27.525   8.293   6.164
 4744POPC   C1A60651  27.620   8.173   6.464
 4744POPC   D2A60652  27.557   8.243   6.764
 4744POPC   C3A60653  27.635   8.246   7.064
 4744POPC   C4A60654  27.637   8.226   7.364
 4744POPC   C1B60655  27.328   8.283   6.464
 4744POPC   C2B60656  27.334   8.313   6.764
 4744POPC   C3B60657  27.356   8.290   7.064
 4744POPC   C4B60658  27.404   8.268   7.364
 4745POPC   NC360659   8.189  23.752   5.564
 4745POPC   PO460660   8.199  23.679   5.864
 4745POPC   GL160661   8.173  23.669   6.164
 4745POPC   GL260662   8.172  23.633   6.164
 4745POPC   C1A60663   8.231  23.682   6.464
 4745POPC   D2A60664   8.155  23.709   6.764
 4745POPC   C3A60665   8.214  23.671   7.064
 4745POPC   C4A60666   8.231  23.694   7.364
 4745POPC   C1B60667   8.111  23.517   6.464
 4745POPC   C2B60668   8.095  23.522   6.764
 4745POPC   C3B60669   8.105  23.435   7.064
 4745POPC   C4B60670   8.092  23.499   7.364
 4746POPC   NC360671  41.544  25.299   5.564
 4746POPC   PO460672  41.544  25.284   5.864
 4746POPC   GL160673  41.519  25.301   6.164
 4746POPC   GL260674  41.425  25.228   6.164
 4746POPC   C1A60675  41.604  25.288   6.464
 4746POPC   D2A60676  41.581  25.222   6.764
 4746POPC   C3A60677  41.606  25.284   7.064
 4746POPC   C4A60678  41.560  25.281   7.364
 4746POPC   C1B60679  41.273  25.243   6.464
 4746POPC   C2B60680  41.276  25.260   6.764
 4746POPC   C3B60681  41.305  25.213   7.064
 4746POPC   C4B60682  41.309  25.223   7.364
 4747POPC   NC360683  13.620  12.083   5.564
 4747POPC   PO460684  13.636  12.089   5.864
 4747POPC   GL160685  13.604  12.029   6.164
 4747POPC   GL260686  13.636  11.938   6.164
 4747POPC   C1A60687  13.632  12.110   6.464
 4747POPC   D2A60688  13.580  12.082   6.764
 4747POPC   C3A60689  13.652  12.059   7.064
 4747POPC   C4A60690  13.641  12.097   7.364
 4747POPC   C1B60691  13.537  11.785   6.464
 4747POPC   C2B60692  13.600  11.844   6.764
 4747POPC   C3B60693  13.600  11.857   7.064
 4747POPC   C4B60694  13.605  11.850   7.364
 4748POPC   NC360695  26.866  22.194   5.564
 4748POPC   PO460696  26.832  22.145   5.864
 4748POPC   GL160697  26.786  22.206   6.164
 4748POPC   GL260698  26.870  22.265   6.164
 4748POPC   C1A60699  26.842  22.159   6.464
 4748POPC   D2A60700  26.774  22.186   6.764
 4748POPC   C3A60701  26.812  22.201   7.064
 4748POPC   C4A60702  26.790  22.180   7.364
 4748POPC   C1B60703  26.948  22.331   6.464
 4748POPC   C2B60704  27.017  22.365   6.764
 4748POPC   C3B60705  26.987  22.312   7.064
 4748POPC   C4B60706  26.967  22.370   7.364
 4749POPC   NC360707   7.372  43.106   5.564
 4749POPC   PO460708   7.440  43.096   5.864
 4749POPC   GL160709   7.422  43.115   6.164
 4749POPC   GL260710   7.486  43.143   6.164
 4749POPC   C1A60711   7.450  43.114   6.464
 4749POPC   D2A60712   7.429  43.095   6.764
 4749POPC   C3A60713   7.380  43.077   7.064
 4749POPC   C4A60714   7.407  43.157   7.364
 4749POPC   C1B60715   7.592  43.273   6.464
 4749POPC   C2B60716   7.663  43.318   6.764
 4749POPC   C3B60717   7.639  43.253   7.064
 4749POPC   C4B60718   7.571  43.260   7.364
 4750POPC   NC360719  29.104  44.664   5.564
 4750POPC   PO460720  29.160  44.641   5.864
 4750POPC   GL160721  29.126  44.660   6.164
 4750POPC   GL260722  29.078  44.758   6.164
 4750POPC   C1A60723  29.125  44.703   6.464
 4750POPC   D2A60724  29.095  44.622   6.764
 4750POPC   C3A60725  29.170  44.670   7.064
 4750POPC   C4A60726  29.134  44.692   7.364
 4750POPC   C1B60727  29.125  44.928   6.464
 4750POPC   C2B60728  29.061  44.948   6.764
 4750POPC   C3B60729  29.071  44.871   7.064
 4750POPC   C4B60730  29.096  44.935   7.364
 4751POPC   NC360731  35.369  40.013   5.564
 4751POPC   PO460732  35.327  40.027   5.864
 4751POPC   GL160733  35.367  39.996   6.164
 4751POPC   GL260734  35.283  39.951   6.164
 4751POPC   C1A60735  35.326  40.025   6.464
 4751POPC   D2A60736  35.325  39.962   6.764
 4751POPC   C3A60737  35.395  39.972   7.064
 4751POPC   C4A60738  35.322  39.964   7.364
 4751POPC   C1B60739  35.163  39.900   6.464
 4751POPC   C2B60740  35.105  39.912   6.764
 4751POPC   C3B60741  35.084  39.933   7.064
 4751POPC   C4B60742  35.111  39.931   7.364
 4752POPC   NC360743  19.852  14.442   5.564
 4752POPC   PO460744  19.878  14.428   5.864
 4752POPC   GL160745  19.789  14.361   6.164
 4752POPC   GL260746  19.860  14.315   6.164
 4752POPC   C1A60747  19.809  14.445   6.464
 4752POPC   D2A60748  19.875  14.390   6.764
 4752POPC   C3A60749  19.862  14.401   7.064
 4752POPC   C4A60750  19.831  14.406   7.364
 4752POPC   C1B60751  19.911  14.120   6.464
 4752POPC   C2B60752  19.867  14.206   6.764
 4752POPC   C3B60753  19.861  14.116   7.064
 4752POPC   C4B60754  19.878  14.162   7.364
 4753POPC   NC360755  29.926   5.117   5.564
 4753POPC   PO460756  29.925   5.140   5.864
 4753POPC   GL160757  29.922   5.106   6.164
 4753POPC   GL260758  29.823   5.131   6.164
 4753POPC   C1A60759  29.966   5.068   6.464
 4753POPC   D2A60760  29.919   5.121   6.764
 4753POPC   C3A60761  29.873   5.069   7.064
 4753POPC   C4A60762  29.939   5.058   7.364
 4753POPC   C1B60763  29.731   5.231   6.464
 4753POPC   C2B60764  29.743   5.236   6.764
 4753POPC   C3B60765  29.693   5.263   7.064
 4753POPC   C4B60766  29.758   5.197   7.364
 4754POPC   NC360767   0.464  10.562   5.564
 4754POPC   PO460768   0.431  10.520   5.864
 4754POPC   GL160769   0.454  10.571   6.164
 4754POPC   GL260770   0.424  10.649   6.164
 4754POPC   C1A60771   0.460  10.503   6.464
 4754POPC   D2A60772   0.391  10.536   6.764
 4754POPC   C3A60773   0.443  10.484   7.064
 4754POPC   C4A60774   0.428  10.530   7.364
 4754POPC   C1B60775   0.385  10.759   6.464
 4754POPC   C2B60776   0.410  10.808   6.764
 4754POPC   C3B60777   0.435  10.733   7.064
 4754POPC   C4B60778   0.403  10.798   7.364
 4755POPC   NC360779  30.702  36.087   5.564
 4755POPC   PO460780  30.740  36.155   5.864
 4755POPC   GL160781  30.745  36.120   6.164
 4755POPC   GL260782  30.750  36.225   6.164
 4755POPC   C1A60783  30.679  36.177   6.464
 4755POPC   D2A60784  30.687  36.139   6.764
 4755POPC   C3A60785  30.672  36.135   7.064
 4755POPC   C4A60786  30.673  36.141   7.364
 4755POPC   C1B60787  30.793  36.369   6.464
 4755POPC   C2B60788  30.803  36.307   6.764
 4755POPC   C3B60789  30.818  36.358   7.064
 4755POPC   C4B60790  30.843  36.342   7.364
 4756POPC   NC360791  19.871  42.299   5.564
 4756POPC   PO460792  19.819  42.314   5.864
 4756POPC   GL160793  19.849  42.334   6.164
 4756POPC   GL260794  19.817  42.466   6.164
 4756POPC   C1A60795  19.808  42.309   6.464
 4756POPC   D2A60796  19.821  42.311   6.764
 4756POPC   C3A60797  19.856  42.305   7.064
 4756POPC   C4A60798  19.867  42.296   7.364
 4756POPC   C1B60799  19.755  42.567   6.464
 4756POPC   C2B60800  19.754  42.541   6.764
 4756POPC   C3B60801  19.750  42.522   7.064
 4756POPC   C4B60802  19.738  42.528   7.364
 4757POPC   NC360803  14.390  41.596   5.564
 4757POPC   PO460804  14.377  41.529   5.864
 4757POPC   GL160805  14.431  41.588   6.164
 4757POPC   GL260806  14.383  41.431   6.164
 4757POPC   C1A60807  14.411  41.574   6.464
 4757POPC   D2A60808  14.418  41.539   6.764
 4757POPC   C3A60809  14.428  41.572   7.064
 4757POPC   C4A60810  14.410  41.575   7.364
 4757POPC   C1B60811  14.326  41.363   6.464
 4757POPC   C2B60812  14.395  41.329   6.764
 4757POPC   C3B60813  14.341  41.311   7.064
 4757POPC   C4B60814  14.385  41.288   7.364
 4758POPC   NC360815   8.996  41.581   5.564
 4758POPC   PO460816   8.968  41.583   5.864
 4758POPC   GL160817   8.927  41.523   6.164
 4758POPC   GL260818   9.075  41.546   6.164
 4758POPC   C1A60819   8.987  41.571   6.464
 4758POPC   D2A60820   8.983  41.558   6.764
 4758POPC   C3A60821   8.978  41.526   7.064
 4758POPC   C4A60822   9.000  41.574   7.364
 4758POPC   C1B60823   9.191  41.524   6.464
 4758POPC   C2B60824   9.217  41.458   6.764
 4758POPC   C3B60825   9.201  41.532   7.064
 4758POPC   C4B60826   9.231  41.513   7.364
 4759POPC   NC360827  11.332  30.735   5.564
 4759POPC   PO460828  11.325  30.683   5.864
 4759POPC   GL160829  11.329  30.655   6.164
 4759POPC   GL260830  11.177  30.634   6.164
 4759POPC   C1A60831  11.300  30.676   6.464
 4759POPC   D2A60832  11.268  30.720   6.764
 4759POPC   C3A60833  11.313  30.658   7.064
 4759POPC   C4A60834  11.253  30.725   7.364
 4759POPC   C1B60835  11.028  30.650   6.464
 4759POPC   C2B60836  11.112  30.638   6.764
 4759POPC   C3B60837  11.073  30.645   7.064
 4759POPC   C4B60838  11.092  30.641   7.364
 4760POPC   NC360839  11.342  28.366   5.564
 4760POPC   PO460840  11.335  28.364   5.864
 4760POPC   GL160841  11.320  28.359   6.164
 4760POPC   GL260842  11.427  28.313   6.164
 4760POPC   C1A60843  11.295  28.365   6.464
 4760POPC   D2A60844  11.269  28.345   6.764
 4760POPC   C3A60845  11.339  28.327   7.064
 4760POPC   C4A60846  11.332  28.326   7.364
 4760POPC   C1B60847  11.531  28.359   6.464
 4760POPC   C2B60848  11.544  28.319   6.764
 4760POPC   C3B60849  11.569  28.351   7.064
 4760POPC   C4B60850  11.532  28.270   7.364
 4761POPC   NC360851  16.746   9.012   5.564
 4761POPC   PO460852  16.765   8.933   5.864
 4761POPC   GL160853  16.690   8.974   6.164
 4761POPC   GL260854  16.663   9.103   6.164
 4761POPC   C1A60855  16.754   8.998   6.464
 4761POPC   D2A60856  16.683   8.997   6.764
 4761POPC   C3A60857  16.733   8.926   7.064
 4761POPC   C4A60858  16.733   8.954   7.364
 4761POPC   C1B60859  16.646   9.152   6.464
 4761POPC   C2B60860  16.578   9.154   6.764
 4761POPC   C3B60861  16.645   9.169   7.064
 4761POPC   C4B60862  16.603   9.183   7.364
 4762POPC   NC360863   0.469   7.374   5.564
 4762POPC   PO460864   0.397   7.439   5.864
 4762POPC   GL160865   0.393   7.438   6.164
 4762POPC   GL260866   0.538   7.485   6.164
 4762POPC   C1A60867   0.406   7.424   6.464
 4762POPC   D2A60868   0.396   7.375   6.764
 4762POPC   C3A60869   0.419   7.390   7.064
 4762POPC   C4A60870   0.444   7.388   7.364
 4762POPC   C1B60871   0.719   7.471   6.464
 4762POPC   C2B60872   0.676   7.474   6.764
 4762POPC   C3B60873   0.634   7.497   7.064
 4762POPC   C4B60874   0.669   7.555   7.364
 4763POPC   NC360875  23.739  10.487   5.564
 4763POPC   PO460876  23.670  10.495   5.864
 4763POPC   GL160877  23.743  10.542   6.164
 4763POPC   GL260878  23.629  10.478   6.164
 4763POPC   C1A60879  23.725  10.508   6.464
 4763POPC   D2A60880  23.700  10.487   6.764
 4763POPC   C3A60881  23.698  10.556   7.064
 4763POPC   C4A60882  23.728  10.509   7.364
 4763POPC   C1B60883  23.420  10.570   6.464
 4763POPC   C2B60884  23.475  10.530   6.764
 4763POPC   C3B60885  23.459  10.507   7.064
 4763POPC   C4B60886  23.464  10.496   7.364
 4764POPC   NC360887  17.482  36.128   5.564
 4764POPC   PO460888  17.499  36.143   5.864
 4764POPC   GL160889  17.464  36.098   6.164
 4764POPC   GL260890  17.570  35.966   6.164
 4764POPC   C1A60891  17.486  36.078   6.464
 4764POPC   D2A60892  17.459  36.093   6.764
 4764POPC   C3A60893  17.544  36.176   7.064
 4764POPC   C4A60894  17.535  36.096   7.364
 4764POPC   C1B60895  17.562  35.880   6.464
 4764POPC   C2B60896  17.559  35.921   6.764
 4764POPC   C3B60897  17.503  35.885   7.064
 4764POPC   C4B60898  17.554  35.868   7.364
 4765POPC   NC360899   1.198  35.359   5.564
 4765POPC   PO460900   1.224  35.333   5.864
 4765POPC   GL160901   1.201  35.357   6.164
 4765POPC   GL260902   1.322  35.454   6.164
 4765POPC   C1A60903   1.216  35.308   6.464
 4765POPC   D2A60904   1.177  35.303   6.764
 4765POPC   C3A60905   1.222  35.302   7.064
 4765POPC   C4A60906   1.260  35.389   7.364
 4765POPC   C1B60907   1.311  35.511   6.464
 4765POPC   C2B60908   1.401  35.560   6.764
 4765POPC   C3B60909   1.405  35.570   7.064
 4765POPC   C4B60910   1.354  35.565   7.364
 4766POPC   NC360911  34.608  43.908   5.564
 4766POPC   PO460912  34.544  43.841   5.864
 4766POPC   GL160913  34.590  43.910   6.164
 4766POPC   GL260914  34.450  43.895   6.164
 4766POPC   C1A60915  34.583  43.886   6.464
 4766POPC   D2A60916  34.535  43.892   6.764
 4766POPC   C3A60917  34.581  43.884   7.064
 4766POPC   C4A60918  34.545  43.898   7.364
 4766POPC   C1B60919  34.378  43.787   6.464
 4766POPC   C2B60920  34.369  43.809   6.764
 4766POPC   C3B60921  34.366  43.823   7.064
 4766POPC   C4B60922  34.308  43.820   7.364
 4767POPC   NC360923   8.984   1.213   5.564
 4767POPC   PO460924   9.009   1.226   5.864
 4767POPC   GL160925   8.964   1.224   6.164
 4767POPC   GL260926   9.048   1.251   6.164
 4767POPC   C1A60927   9.019   1.164   6.464
 4767POPC   D2A60928   8.935   1.249   6.764
 4767POPC   C3A60929   9.016   1.224   7.064
 4767POPC   C4A60930   8.946   1.251   7.364
 4767POPC   C1B60931   9.228   1.329   6.464
 4767POPC   C2B60932   9.154   1.390   6.764
 4767POPC   C3B60933   9.219   1.366   7.064
 4767POPC   C4B60934   9.186   1.315   7.364
 4768POPC   NC360935  43.099  22.932   5.564
 4768POPC   PO460936  43.090  22.987   5.864
 4768POPC   GL160937  43.153  22.927   6.164
 4768POPC   GL260938  43.067  22.867   6.164
 4768POPC   C1A60939  43.099  22.965   6.464
 4768POPC   D2A60940  43.077  22.929   6.764
 4768POPC   C3A60941  43.093  22.924   7.064
 4768POPC   C4A60942  43.140  22.981   7.364
 4768POPC   C1B60943  42.905  22.697   6.464
 4768POPC   C2B60944  42.934  22.750   6.764
 4768POPC   C3B60945  43.002  22.741   7.064
 4768POPC   C4B60946  42.996  22.712   7.364
 4769POPC   NC360947  27.632   3.540   5.564
 4769POPC   PO460948  27.555   3.561   5.864
 4769POPC   GL160949  27.565   3.518   6.164
 4769POPC   GL260950  27.524   3.443   6.164
 4769POPC   C1A60951  27.586   3.577   6.464
 4769POPC   D2A60952  27.631   3.583   6.764
 4769POPC   C3A60953  27.635   3.572   7.064
 4769POPC   C4A60954  27.640   3.587   7.364
 4769POPC   C1B60955  27.365   3.337   6.464
 4769POPC   C2B60956  27.391   3.371   6.764
 4769POPC   C3B60957  27.365   3.339   7.064
 4769POPC   C4B60958  27.376   3.324   7.364
 4770POPC   NC360959  29.928  27.551   5.564
 4770POPC   PO460960  29.902  27.625   5.864
 4770POPC   GL160961  29.935  27.552   6.164
 4770POPC   GL260962  29.878  27.684   6.164
 4770POPC   C1A60963  29.941  27.581   6.464
 4770POPC   D2A60964  29.912  27.571   6.764
 4770POPC   C3A60965  29.964  27.555   7.064
 4770POPC   C4A60966  29.890  27.605   7.364
 4770POPC   C1B60967  29.914  27.812   6.464
 4770POPC   C2B60968  29.909  27.879   6.764
 4770POPC   C3B60969  29.907  27.849   7.064
 4770POPC   C4B60970  29.899  27.874   7.364
 4771POPC   NC360971  23.716  29.930   5.564
 4771POPC   PO460972  23.686  29.896   5.864
 4771POPC   GL160973  23.670  29.935   6.164
 4771POPC   GL260974  23.805  30.059   6.164
 4771POPC   C1A60975  23.737  29.875   6.464
 4771POPC   D2A60976  23.739  29.967   6.764
 4771POPC   C3A60977  23.733  29.912   7.064
 4771POPC   C4A60978  23.732  29.956   7.364
 4771POPC   C1B60979  23.925  30.098   6.464
 4771POPC   C2B60980  23.908  30.145   6.764
 4771POPC   C3B60981  23.873  30.088   7.064
 4771POPC   C4B60982  23.856  30.119   7.364
 4772POPC   NC360983  20.622  34.605   5.564
 4772POPC   PO460984  20.650  34.581   5.864
 4772POPC   GL160985  20.639  34.533   6.164
 4772POPC   GL260986  20.569  34.446   6.164
 4772POPC   C1A60987  20.651  34.624   6.464
 4772POPC   D2A60988  20.595  34.568   6.764
 4772POPC   C3A60989  20.630  34.584   7.064
 4772POPC   C4A60990  20.612  34.584   7.364
 4772POPC   C1B60991  20.391  34.439   6.464
 4772POPC   C2B60992  20.398  34.389   6.764
 4772POPC   C3B60993  20.386  34.410   7.064
 4772POPC   C4B60994  20.478  34.436   7.364
 4773POPC   NC360995  35.360  30.672   5.564
 4773POPC   PO460996  35.389  30.737   5.864
 4773POPC   GL160997  35.340  30.666   6.164
 4773POPC   GL260998  35.254  30.652   6.164
 4773POPC   C1A60999  35.357  30.697   6.464
 4773POPC   D2A61000  35.387  30.722   6.764
 4773POPC   C3A61001  35.394  30.698   7.064
 4773POPC   C4A61002  35.328  30.704   7.364
 4773POPC   C1B61003  35.112  30.624   6.464
 4773POPC   C2B61004  35.076  30.627   6.764
 4773POPC   C3B61005  35.093  30.644   7.064
 4773POPC   C4B61006  35.098  30.637   7.364
 4774POPC   NC361007  15.953  22.149   5.564
 4774POPC   PO461008  15.908  22.186   5.864
 4774POPC   GL161009  15.986  22.198   6.164
 4774POPC   GL261010  15.861  22.111   6.164
 4774POPC   C1A61011  15.966  22.160   6.464
 4774POPC   D2A61012  15.952  22.205   6.764
 4774POPC   C3A61013  15.980  22.211   7.064
 4774POPC   C4A61014  15.960  22.118   7.364
 4774POPC   C1B61015  15.727  22.102   6.464
 4774POPC   C2B61016  15.686  22.160   6.764
 4774POPC   C3B61017  15.749  22.084   7.064
 4774POPC   C4B61018  15.678  22.117   7.364
 4775POPC   NC361019  43.842   7.413   5.564
 4775POPC   PO461020  43.882   7.376   5.864
 4775POPC   GL161021  43.903   7.389   6.164
 4775POPC   GL261022  43.886   7.526   6.164
 4775POPC   C1A61023  43.926   7.421   6.464
 4775POPC   D2A61024  43.888   7.399   6.764
 4775POPC   C3A61025  43.897   7.445   7.064
 4775POPC   C4A61026  43.839   7.465   7.364
 4775POPC   C1B61027  43.900   7.652   6.464
 4775POPC   C2B61028  43.863   7.708   6.764
 4775POPC   C3B61029  43.907   7.629   7.064
 4775POPC   C4B61030  43.829   7.667   7.364
 4776POPC   NC361031   3.494  35.358   5.564
 4776POPC   PO461032   3.554  35.392   5.864
 4776POPC   GL161033   3.579  35.322   6.164
 4776POPC   GL261034   3.661  35.415   6.164
 4776POPC   C1A61035   3.560  35.355   6.464
 4776POPC   D2A61036   3.518  35.302   6.764
 4776POPC   C3A61037   3.547  35.314   7.064
 4776POPC   C4A61038   3.532  35.324   7.364
 4776POPC   C1B61039   3.773  35.419   6.464
 4776POPC   C2B61040   3.755  35.379   6.764
 4776POPC   C3B61041   3.798  35.353   7.064
 4776POPC   C4B61042   3.767  35.429   7.364
 4777POPC   NC361043  32.992  12.813   5.564
 4777POPC   PO461044  33.013  12.886   5.864
 4777POPC   GL161045  33.002  12.814   6.164
 4777POPC   GL261046  32.903  12.804   6.164
 4777POPC   C1A61047  33.047  12.846   6.464
 4777POPC   D2A61048  33.008  12.882   6.764
 4777POPC   C3A61049  33.060  12.896   7.064
 4777POPC   C4A61050  33.036  12.843   7.364
 4777POPC   C1B61051  32.841  12.683   6.464
 4777POPC   C2B61052  32.798  12.727   6.764
 4777POPC   C3B61053  32.843  12.657   7.064
 4777POPC   C4B61054  32.813  12.688   7.364
 4778POPC   NC361055  32.224  19.024   5.564
 4778POPC   PO461056  32.241  19.014   5.864
 4778POPC   GL161057  32.260  19.073   6.164
 4778POPC   GL261058  32.255  19.215   6.164
 4778POPC   C1A61059  32.282  19.057   6.464
 4778POPC   D2A61060  32.269  19.058   6.764
 4778POPC   C3A61061  32.207  19.046   7.064
 4778POPC   C4A61062  32.288  19.067   7.364
 4778POPC   C1B61063  32.217  19.286   6.464
 4778POPC   C2B61064  32.230  19.353   6.764
 4778POPC   C3B61065  32.304  19.317   7.064
 4778POPC   C4B61066  32.287  19.317   7.364
 4779POPC   NC361067  42.372  17.519   5.564
 4779POPC   PO461068  42.337  17.554   5.864
 4779POPC   GL161069  42.378  17.458   6.164
 4779POPC   GL261070  42.315  17.375   6.164
 4779POPC   C1A61071  42.384  17.530   6.464
 4779POPC   D2A61072  42.298  17.502   6.764
 4779POPC   C3A61073  42.291  17.463   7.064
 4779POPC   C4A61074  42.317  17.501   7.364
 4779POPC   C1B61075  42.285  17.230   6.464
 4779POPC   C2B61076  42.265  17.227   6.764
 4779POPC   C3B61077  42.317  17.302   7.064
 4779POPC   C4B61078  42.318  17.214   7.364
 4780POPC   NC361079   4.292  29.115   5.564
 4780POPC   PO461080   4.365  29.124   5.864
 4780POPC   GL161081   4.309  29.111   6.164
 4780POPC   GL261082   4.391  29.263   6.164
 4780POPC   C1A61083   4.312  29.170   6.464
 4780POPC   D2A61084   4.326  29.131   6.764
 4780POPC   C3A61085   4.345  29.104   7.064
 4780POPC   C4A61086   4.363  29.131   7.364
 4780POPC   C1B61087   4.379  29.335   6.464
 4780POPC   C2B61088   4.412  29.368   6.764
 4780POPC   C3B61089   4.453  29.342   7.064
 4780POPC   C4B61090   4.388  29.409   7.364
 4781POPC   NC361091  18.253  16.004   5.564
 4781POPC   PO461092  18.237  15.949   5.864
 4781POPC   GL161093  18.332  15.937   6.164
 4781POPC   GL261094  18.214  15.909   6.164
 4781POPC   C1A61095  18.299  15.966   6.464
 4781POPC   D2A61096  18.262  15.919   6.764
 4781POPC   C3A61097  18.312  15.941   7.064
 4781POPC   C4A61098  18.261  15.963   7.364
 4781POPC   C1B61099  18.051  15.843   6.464
 4781POPC   C2B61100  18.041  15.770   6.764
 4781POPC   C3B61101  18.080  15.833   7.064
 4781POPC   C4B61102  18.086  15.775   7.364
 4782POPC   NC361103   6.621  37.662   5.564
 4782POPC   PO461104   6.602  37.708   5.864
 4782POPC   GL161105   6.673  37.656   6.164
 4782POPC   GL261106   6.807  37.687   6.164
 4782POPC   C1A61107   6.669  37.698   6.464
 4782POPC   D2A61108   6.670  37.697   6.764
 4782POPC   C3A61109   6.631  37.631   7.064
 4782POPC   C4A61110   6.655  37.681   7.364
 4782POPC   C1B61111   6.853  37.725   6.464
 4782POPC   C2B61112   6.919  37.705   6.764
 4782POPC   C3B61113   6.861  37.725   7.064
 4782POPC   C4B61114   6.925  37.678   7.364
 4783POPC   NC361115  25.222  39.221   5.564
 4783POPC   PO461116  25.233  39.273   5.864
 4783POPC   GL161117  25.233  39.189   6.164
 4783POPC   GL261118  25.334  39.335   6.164
 4783POPC   C1A61119  25.259  39.263   6.464
 4783POPC   D2A61120  25.252  39.270   6.764
 4783POPC   C3A61121  25.309  39.184   7.064
 4783POPC   C4A61122  25.301  39.224   7.364
 4783POPC   C1B61123  25.277  39.437   6.464
 4783POPC   C2B61124  25.369  39.480   6.764
 4783POPC   C3B61125  25.303  39.488   7.064
 4783POPC   C4B61126  25.349  39.505   7.364
 4784POPC   NC361127   9.785   1.998   5.564
 4784POPC   PO461128   9.780   2.026   5.864
 4784POPC   GL161129   9.713   2.024   6.164
 4784POPC   GL261130   9.724   1.867   6.164
 4784POPC   C1A61131   9.772   1.959   6.464
 4784POPC   D2A61132   9.744   1.990   6.764
 4784POPC   C3A61133   9.716   1.968   7.064
 4784POPC   C4A61134   9.716   1.972   7.364
 4784POPC   C1B61135   9.682   1.761   6.464
 4784POPC   C2B61136   9.645   1.752   6.764
 4784POPC   C3B61137   9.661   1.728   7.064
 4784POPC   C4B61138   9.638   1.712   7.364
 4785POPC   NC361139  16.767  27.576   5.564
 4785POPC   PO461140  16.693  27.636   5.864
 4785POPC   GL161141  16.769  27.563   6.164
 4785POPC   GL261142  16.810  27.654   6.164
 4785POPC   C1A61143  16.757  27.603   6.464
 4785POPC   D2A61144  16.762  27.611   6.764
 4785POPC   C3A61145  16.759  27.559   7.064
 4785POPC   C4A61146  16.716  27.642   7.364
 4785POPC   C1B61147  16.876  27.734   6.464
 4785POPC   C2B61148  16.890  27.770   6.764
 4785POPC   C3B61149  16.892  27.779   7.064
 4785POPC   C4B61150  16.907  27.735   7.364
 4786POPC   NC361151  34.546  41.526   5.564
 4786POPC   PO461152  34.605  41.576   5.864
 4786POPC   GL161153  34.608  41.509   6.164
 4786POPC   GL261154  34.498  41.488   6.164
 4786POPC   C1A61155  34.580  41.516   6.464
 4786POPC   D2A61156  34.552  41.568   6.764
 4786POPC   C3A61157  34.536  41.510   7.064
 4786POPC   C4A61158  34.574  41.560   7.364
 4786POPC   C1B61159  34.368  41.437   6.464
 4786POPC   C2B61160  34.296  41.427   6.764
 4786POPC   C3B61161  34.376  41.413   7.064
 4786POPC   C4B61162  34.349  41.478   7.364
 4787POPC   NC361163  37.636  15.978   5.564
 4787POPC   PO461164  37.714  15.970   5.864
 4787POPC   GL161165  37.643  15.934   6.164
 4787POPC   GL261166  37.629  15.920   6.164
 4787POPC   C1A61167  37.712  15.976   6.464
 4787POPC   D2A61168  37.629  15.937   6.764
 4787POPC   C3A61169  37.660  15.952   7.064
 4787POPC   C4A61170  37.689  15.953   7.364
 4787POPC   C1B61171  37.445  15.782   6.464
 4787POPC   C2B61172  37.461  15.786   6.764
 4787POPC   C3B61173  37.526  15.760   7.064
 4787POPC   C4B61174  37.501  15.845   7.364
 4788POPC   NC361175  15.146  16.779   5.564
 4788POPC   PO461176  15.203  16.737   5.864
 4788POPC   GL161177  15.146  16.703   6.164
 4788POPC   GL261178  15.182  16.857   6.164
 4788POPC   C1A61179  15.139  16.706   6.464
 4788POPC   D2A61180  15.210  16.776   6.764
 4788POPC   C3A61181  15.178  16.718   7.064
 4788POPC   C4A61182  15.145  16.717   7.364
 4788POPC   C1B61183  15.065  16.958   6.464
 4788POPC   C2B61184  15.073  16.968   6.764
 4788POPC   C3B61185  15.120  16.963   7.064
 4788POPC   C4B61186  15.068  16.942   7.364
 4789POPC   NC361187  18.302  14.381   5.564
 4789POPC   PO461188  18.295  14.411   5.864
 4789POPC   GL161189  18.252  14.446   6.164
 4789POPC   GL261190  18.369  14.527   6.164
 4789POPC   C1A61191  18.332  14.360   6.464
 4789POPC   D2A61192  18.233  14.414   6.764
 4789POPC   C3A61193  18.314  14.364   7.064
 4789POPC   C4A61194  18.234  14.363   7.364
 4789POPC   C1B61195  18.484  14.515   6.464
 4789POPC   C2B61196  18.491  14.596   6.764
 4789POPC   C3B61197  18.444  14.611   7.064
 4789POPC   C4B61198  18.496  14.536   7.364
 4790POPC   NC361199   1.960  10.550   5.564
 4790POPC   PO461200   2.038  10.498   5.864
 4790POPC   GL161201   1.961  10.521   6.164
 4790POPC   GL261202   1.878  10.481   6.164
 4790POPC   C1A61203   2.032  10.517   6.464
 4790POPC   D2A61204   1.979  10.559   6.764
 4790POPC   C3A61205   2.007  10.566   7.064
 4790POPC   C4A61206   1.958  10.489   7.364
 4790POPC   C1B61207   1.787  10.341   6.464
 4790POPC   C2B61208   1.752  10.383   6.764
 4790POPC   C3B61209   1.739  10.346   7.064
 4790POPC   C4B61210   1.808  10.343   7.364
 4791POPC   NC361211   5.118  33.802   5.564
 4791POPC   PO461212   5.110  33.806   5.864
 4791POPC   GL161213   5.129  33.844   6.164
 4791POPC   GL261214   5.132  33.721   6.164
 4791POPC   C1A61215   5.142  33.812   6.464
 4791POPC   D2A61216   5.106  33.755   6.764
 4791POPC   C3A61217   5.113  33.782   7.064
 4791POPC   C4A61218   5.094  33.791   7.364
 4791POPC   C1B61219   5.263  33.605   6.464
 4791POPC   C2B61220   5.220  33.601   6.764
 4791POPC   C3B61221   5.263  33.655   7.064
 4791POPC   C4B61222   5.276  33.646   7.364
 4792POPC   NC361223  33.844  17.515   5.564
 4792POPC   PO461224  33.787  17.523   5.864
 4792POPC   GL161225  33.808  17.522   6.164
 4792POPC   GL261226  33.939  17.567   6.164
 4792POPC   C1A61227  33.808  17.517   6.464
 4792POPC   D2A61228  33.812  17.469   6.764
 4792POPC   C3A61229  33.757  17.547   7.064
 4792POPC   C4A61230  33.822  17.485   7.364
 4792POPC   C1B61231  34.012  17.594   6.464
 4792POPC   C2B61232  34.052  17.602   6.764
 4792POPC   C3B61233  34.038  17.591   7.064
 4792POPC   C4B61234  33.979  17.676   7.364
 4793POPC   NC361235   4.299  26.059   5.564
 4793POPC   PO461236   4.317  26.088   5.864
 4793POPC   GL161237   4.358  26.074   6.164
 4793POPC   GL261238   4.189  25.987   6.164
 4793POPC   C1A61239   4.327  26.038   6.464
 4793POPC   D2A61240   4.351  25.996   6.764
 4793POPC   C3A61241   4.297  26.013   7.064
 4793POPC   C4A61242   4.359  26.030   7.364
 4793POPC   C1B61243   4.181  25.829   6.464
 4793POPC   C2B61244   4.163  25.866   6.764
 4793POPC   C3B61245   4.110  25.824   7.064
 4793POPC   C4B61246   4.174  25.836   7.364
 4794POPC   NC361247  11.310  26.861   5.564
 4794POPC   PO461248  11.282  26.795   5.864
 4794POPC   GL161249  11.333  26.789   6.164
 4794POPC   GL261250  11.169  26.779   6.164
 4794POPC   C1A61251  11.345  26.812   6.464
 4794POPC   D2A61252  11.317  26.809   6.764
 4794POPC   C3A61253  11.286  26.845   7.064
 4794POPC   C4A61254  11.329  26.834   7.364
 4794POPC   C1B61255  11.118  26.684   6.464
 4794POPC   C2B61256  11.099  26.698   6.764
 4794POPC   C3B61257  11.036  26.724   7.064
 4794POPC   C4B61258  11.101  26.727   7.364
 4795POPC   NC361259  19.820  25.278   5.564
 4795POPC   PO461260  19.821  25.260   5.864
 4795POPC   GL161261  19.788  25.303   6.164
 4795POPC   GL261262  19.765  25.375   6.164
 4795POPC   C1A61263  19.792  25.251   6.464
 4795POPC   D2A61264  19.798  25.307   6.764
 4795POPC   C3A61265  19.852  25.275   7.064
 4795POPC   C4A61266  19.804  25.287   7.364
 4795POPC   C1B61267  19.644  25.461   6.464
 4795POPC   C2B61268  19.662  25.469   6.764
 4795POPC   C3B61269  19.686  25.475   7.064
 4795POPC   C4B61270  19.670  25.406   7.364
 4796POPC   NC361271  12.072  10.510   5.564
 4796POPC   PO461272  12.120  10.487   5.864
 4796POPC   GL161273  12.096  10.486   6.164
 4796POPC   GL261274  12.029  10.608   6.164
 4796POPC   C1A61275  12.065  10.491   6.464
 4796POPC   D2A61276  12.119  10.475   6.764
 4796POPC   C3A61277  12.087  10.477   7.064
 4796POPC   C4A61278  12.068  10.516   7.364
 4796POPC   C1B61279  12.013  10.758   6.464
 4796POPC   C2B61280  11.987  10.779   6.764
 4796POPC   C3B61281  11.946  10.779   7.064
 4796POPC   C4B61282  11.997  10.735   7.364
 4797POPC   NC361283  16.685  17.525   5.564
 4797POPC   PO461284  16.753  17.481   5.864
 4797POPC   GL161285  16.750  17.517   6.164
 4797POPC   GL261286  16.670  17.592   6.164
 4797POPC   C1A61287  16.685  17.457   6.464
 4797POPC   D2A61288  16.766  17.509   6.764
 4797POPC   C3A61289  16.685  17.508   7.064
 4797POPC   C4A61290  16.691  17.461   7.364
 4797POPC   C1B61291  16.568  17.740   6.464
 4797POPC   C2B61292  16.581  17.749   6.764
 4797POPC   C3B61293  16.578  17.709   7.064
 4797POPC   C4B61294  16.567  17.683   7.364
 4798POPC   NC361295  36.947  12.096   5.564
 4798POPC   PO461296  36.924  12.090   5.864
 4798POPC   GL161297  36.937  12.094   6.164
 4798POPC   GL261298  36.883  11.909   6.164
 4798POPC   C1A61299  36.930  12.087   6.464
 4798POPC   D2A61300  36.904  12.094   6.764
 4798POPC   C3A61301  36.900  12.092   7.064
 4798POPC   C4A61302  36.865  12.030   7.364
 4798POPC   C1B61303  36.897  11.839   6.464
 4798POPC   C2B61304  36.897  11.821   6.764
 4798POPC   C3B61305  36.897  11.857   7.064
 4798POPC   C4B61306  36.872  11.779   7.364
 4799POPC   NC361307   3.535  10.524   5.564
 4799POPC   PO461308   3.561  10.525   5.864
 4799POPC   GL161309   3.549  10.523   6.164
 4799POPC   GL261310   3.670  10.609   6.164
 4799POPC   C1A61311   3.569  10.529   6.464
 4799POPC   D2A61312   3.583  10.493   6.764
 4799POPC   C3A61313   3.576  10.537   7.064
 4799POPC   C4A61314   3.505  10.519   7.364
 4799POPC   C1B61315   3.742  10.607   6.464
 4799POPC   C2B61316   3.759  10.624   6.764
 4799POPC   C3B61317   3.806  10.657   7.064
 4799POPC   C4B61318   3.738  10.606   7.364
 4800POPC   NC361319   1.258   2.759   5.564
 4800POPC   PO461320   1.247   2.754   5.864
 4800POPC   GL161321   1.244   2.774   6.164
 4800POPC   GL261322   1.302   2.834   6.164
 4800POPC   C1A61323   1.170   2.723   6.464
 4800POPC   D2A61324   1.187   2.752   6.764
 4800POPC   C3A61325   1.181   2.724   7.064
 4800POPC   C4A61326   1.194   2.723   7.364
 4800POPC   C1B61327   1.260   3.022   6.464
 4800POPC   C2B61328   1.283   3.046   6.764
 4800POPC   C3B61329   1.251   2.951   7.064
 4800POPC   C4B61330   1.269   2.991   7.364
 4801POPC   NC361331  43.897  29.137   5.564
 4801POPC   PO461332  43.843  29.185   5.864
 4801POPC   GL161333  43.869  29.183   6.164
 4801POPC   GL261334  43.985  29.075   6.164
 4801POPC   C1A61335  43.904  29.095   6.464
 4801POPC   D2A61336  43.915  29.117   6.764
 4801POPC   C3A61337  43.916  29.135   7.064
 4801POPC   C4A61338  43.915  29.141   7.364
 4801POPC   C1B61339  44.133  29.050   6.464
 4801POPC   C2B61340  44.084  29.018   6.764
 4801POPC   C3B61341  44.128  28.977   7.064
 4801POPC   C4B61342  44.069  28.992   7.364
 4802POPC   NC361343  16.695  39.265   5.564
 4802POPC   PO461344  16.721  39.247   5.864
 4802POPC   GL161345  16.714  39.229   6.164
 4802POPC   GL261346  16.784  39.355   6.164
 4802POPC   C1A61347  16.735  39.249   6.464
 4802POPC   D2A61348  16.767  39.211   6.764
 4802POPC   C3A61349  16.767  39.271   7.064
 4802POPC   C4A61350  16.696  39.263   7.364
 4802POPC   C1B61351  16.920  39.423   6.464
 4802POPC   C2B61352  16.880  39.414   6.764
 4802POPC   C3B61353  16.883  39.418   7.064
 4802POPC   C4B61354  16.904  39.387   7.364
 4803POPC   NC361355  11.267  12.123   5.564
 4803POPC   PO461356  11.313  12.032   5.864
 4803POPC   GL161357  11.298  12.039   6.164
 4803POPC   GL261358  11.416  12.131   6.164
 4803POPC   C1A61359  11.282  12.099   6.464
 4803POPC   D2A61360  11.314  12.090   6.764
 4803POPC   C3A61361  11.287  12.072   7.064
 4803POPC   C4A61362  11.332  12.084   7.364
 4803POPC   C1B61363  11.523  12.209   6.464
 4803POPC   C2B61364  11.526  12.253   6.764
 4803POPC   C3B61365  11.471  12.252   7.064
 4803POPC   C4B61366  11.500  12.197   7.364
 4804POPC   NC361367  10.530  28.414   5.564
 4804POPC   PO461368  10.475  28.352   5.864
 4804POPC   GL161369  10.563  28.401   6.164
 4804POPC   GL261370  10.688  28.373   6.164
 4804POPC   C1A61371  10.507  28.346   6.464
 4804POPC   D2A61372  10.564  28.328   6.764
 4804POPC   C3A61373  10.550  28.401   7.064
 4804POPC   C4A61374  10.545  28.347   7.364
 4804POPC   C1B61375  10.797  28.413   6.464
 4804POPC   C2B61376  10.808  28.369   6.764
 4804POPC   C3B61377  10.747  28.370   7.064
 4804POPC   C4B61378  10.782  28.423   7.364
 4805POPC   NC361379   2.023  15.972   5.564
 4805POPC   PO461380   1.969  15.949   5.864
 4805POPC   GL161381   1.971  15.930   6.164
 4805POPC   GL261382   2.044  16.081   6.164
 4805POPC   C1A61383   2.039  15.918   6.464
 4805POPC   D2A61384   1.979  15.934   6.764
 4805POPC   C3A61385   1.996  15.911   7.064
 4805POPC   C4A61386   2.009  15.942   7.364
 4805POPC   C1B61387   2.117  16.097   6.464
 4805POPC   C2B61388   2.157  16.111   6.764
 4805POPC   C3B61389   2.145  16.152   7.064
 4805POPC   C4B61390   2.158  16.163   7.364
 4806POPC   NC361391   3.540  43.864   5.564
 4806POPC   PO461392   3.528  43.910   5.864
 4806POPC   GL161393   3.541  43.852   6.164
 4806POPC   GL261394   3.599  43.771   6.164
 4806POPC   C1A61395   3.533  43.882   6.464
 4806POPC   D2A61396   3.511  43.921   6.764
 4806POPC   C3A61397   3.567  43.841   7.064
 4806POPC   C4A61398   3.591  43.897   7.364
 4806POPC   C1B61399   3.549  43.645   6.464
 4806POPC   C2B61400   3.582  43.675   6.764
 4806POPC   C3B61401   3.571  43.680   7.064
 4806POPC   C4B61402   3.593  43.638   7.364
 4807POPC   NC361403  22.966   2.752   5.564
 4807POPC   PO461404  22.943   2.777   5.864
 4807POPC   GL161405  22.981   2.811   6.164
 4807POPC   GL261406  23.054   2.686   6.164
 4807POPC   C1A61407  22.965   2.783   6.464
 4807POPC   D2A61408  22.974   2.806   6.764
 4807POPC   C3A61409  22.955   2.719   7.064
 4807POPC   C4A61410  22.988   2.803   7.364
 4807POPC   C1B61411  23.102   2.577   6.464
 4807POPC   C2B61412  23.120   2.571   6.764
 4807POPC   C3B61413  23.106   2.575   7.064
 4807POPC   C4B61414  23.088   2.527   7.364
 4808POPC   NC361415   8.987   8.943   5.564
 4808POPC   PO461416   8.994   9.009   5.864
 4808POPC   GL161417   8.964   8.990   6.164
 4808POPC   GL261418   9.049   9.080   6.164
 4808POPC   C1A61419   9.003   9.001   6.464
 4808POPC   D2A61420   8.984   9.018   6.764
 4808POPC   C3A61421   8.927   9.010   7.064
 4808POPC   C4A61422   8.990   8.994   7.364
 4808POPC   C1B61423   9.077   9.171   6.464
 4808POPC   C2B61424   9.063   9.152   6.764
 4808POPC   C3B61425   9.126   9.146   7.064
 4808POPC   C4B61426   9.052   9.212   7.364
 4809POPC   NC361427   8.932   9.762   5.564
 4809POPC   PO461428   8.981   9.703   5.864
 4809POPC   GL161429   8.956   9.761   6.164
 4809POPC   GL261430   8.904   9.904   6.164
 4809POPC   C1A61431   8.938   9.747   6.464
 4809POPC   D2A61432   9.020   9.770   6.764
 4809POPC   C3A61433   8.949   9.748   7.064
 4809POPC   C4A61434   8.956   9.795   7.364
 4809POPC   C1B61435   8.855  10.036   6.464
 4809POPC   C2B61436   8.924   9.980   6.764
 4809POPC   C3B61437   8.951   9.995   7.064
 4809POPC   C4B61438   8.937  10.033   7.364
 4810POPC   NC361439   5.828   5.122   5.564
 4810POPC   PO461440   5.820   5.093   5.864
 4810POPC   GL161441   5.843   5.046   6.164
 4810POPC   GL261442   5.932   5.195   6.164
 4810POPC   C1A61443   5.885   5.135   6.464
 4810POPC   D2A61444   5.897   5.050   6.764
 4810POPC   C3A61445   5.839   5.141   7.064
 4810POPC   C4A61446   5.852   5.098   7.364
 4810POPC   C1B61447   6.054   5.217   6.464
 4810POPC   C2B61448   6.103   5.224   6.764
 4810POPC   C3B61449   6.105   5.256   7.064
 4810POPC   C4B61450   6.059   5.257   7.364
 4811POPC   NC361451   1.243   5.140   5.564
 4811POPC   PO461452   1.250   5.116   5.864
 4811POPC   GL161453   1.169   5.044   6.164
 4811POPC   GL261454   1.325   5.121   6.164
 4811POPC   C1A61455   1.175   5.096   6.464
 4811POPC   D2A61456   1.209   5.053   6.764
 4811POPC   C3A61457   1.225   5.131   7.064
 4811POPC   C4A61458   1.260   5.068   7.364
 4811POPC   C1B61459   1.411   5.271   6.464
 4811POPC   C2B61460   1.439   5.237   6.764
 4811POPC   C3B61461   1.412   5.256   7.064
 4811POPC   C4B61462   1.456   5.270   7.364
 4812POPC   NC361463  20.616   5.075   5.564
 4812POPC   PO461464  20.636   5.076   5.864
 4812POPC   GL161465  20.647   5.138   6.164
 4812POPC   GL261466  20.541   4.999   6.164
 4812POPC   C1A61467  20.572   5.104   6.464
 4812POPC   D2A61468  20.574   5.114   6.764
 4812POPC   C3A61469  20.652   5.141   7.064
 4812POPC   C4A61470  20.632   5.110   7.364
 4812POPC   C1B61471  20.482   4.899   6.464
 4812POPC   C2B61472  20.553   4.823   6.764
 4812POPC   C3B61473  20.508   4.872   7.064
 4812POPC   C4B61474  20.499   4.836   7.364
 4813POPC   NC361475   2.723   1.995   5.564
 4813POPC   PO461476   2.783   2.023   5.864
 4813POPC   GL161477   2.749   2.037   6.164
 4813POPC   GL261478   2.883   1.889   6.164
 4813POPC   C1A61479   2.775   2.037   6.464
 4813POPC   D2A61480   2.795   1.944   6.764
 4813POPC   C3A61481   2.782   2.005   7.064
 4813POPC   C4A61482   2.764   1.948   7.364
 4813POPC   C1B61483   2.957   1.789   6.464
 4813POPC   C2B61484   2.921   1.838   6.764
 4813POPC   C3B61485   2.959   1.796   7.064
 4813POPC   C4B61486   2.893   1.778   7.364
 4814POPC   NC361487  27.618  10.533   5.564
 4814POPC   PO461488  27.643  10.560   5.864
 4814POPC   GL161489  27.638  10.543   6.164
 4814POPC   GL261490  27.642  10.563   6.164
 4814POPC   C1A61491  27.562  10.523   6.464
 4814POPC   D2A61492  27.586  10.509   6.764
 4814POPC   C3A61493  27.560  10.509   7.064
 4814POPC   C4A61494  27.637  10.553   7.364
 4814POPC   C1B61495  27.753  10.665   6.464
 4814POPC   C2B61496  27.779  10.695   6.764
 4814POPC   C3B61497  27.816  10.715   7.064
 4814POPC   C4B61498  27.835  10.692   7.364
 4815POPC   NC361499  12.805  20.625   5.564
 4815POPC   PO461500  12.862  20.596   5.864
 4815POPC   GL161501  12.817  20.626   6.164
 4815POPC   GL261502  12.947  20.598   6.164
 4815POPC   C1A61503  12.850  20.575   6.464
 4815POPC   D2A61504  12.867  20.569   6.764
 4815POPC   C3A61505  12.893  20.660   7.064
 4815POPC   C4A61506  12.840  20.650   7.364
 4815POPC   C1B61507  13.131  20.493   6.464
 4815POPC   C2B61508  13.068  20.509   6.764
 4815POPC   C3B61509  13.084  20.493   7.064
 4815POPC   C4B61510  13.114  20.487   7.364
 4816POPC   NC361511  17.535  12.893   5.564
 4816POPC   PO461512  17.497  12.870   5.864
 4816POPC   GL161513  17.472  12.819   6.164
 4816POPC   GL261514  17.654  12.848   6.164
 4816POPC   C1A61515  17.492  12.831   6.464
 4816POPC   D2A61516  17.502  12.864   6.764
 4816POPC   C3A61517  17.464  12.803   7.064
 4816POPC   C4A61518  17.497  12.846   7.364
 4816POPC   C1B61519  17.746  12.846   6.464
 4816POPC   C2B61520  17.765  12.917   6.764
 4816POPC   C3B61521  17.759  12.912   7.064
 4816POPC   C4B61522  17.794  12.915   7.364
 4817POPC   NC361523  36.158  15.165   5.564
 4817POPC   PO461524  36.164  15.178   5.864
 4817POPC   GL161525  36.125  15.207   6.164
 4817POPC   GL261526  36.248  15.256   6.164
 4817POPC   C1A61527  36.168  15.215   6.464
 4817POPC   D2A61528  36.091  15.217   6.764
 4817POPC   C3A61529  36.115  15.176   7.064
 4817POPC   C4A61530  36.127  15.209   7.364
 4817POPC   C1B61531  36.350  15.315   6.464
 4817POPC   C2B61532  36.344  15.297   6.764
 4817POPC   C3B61533  36.366  15.257   7.064
 4817POPC   C4B61534  36.315  15.340   7.364
 4818POPC   NC361535  38.488  22.894   5.564
 4818POPC   PO461536  38.476  22.903   5.864
 4818POPC   GL161537  38.421  22.987   6.164
 4818POPC   GL261538  38.456  23.016   6.164
 4818POPC   C1A61539  38.422  22.900   6.464
 4818POPC   D2A61540  38.476  22.917   6.764
 4818POPC   C3A61541  38.453  22.928   7.064
 4818POPC   C4A61542  38.458  22.954   7.364
 4818POPC   C1B61543  38.531  23.214   6.464
 4818POPC   C2B61544  38.505  23.229   6.764
 4818POPC   C3B61545  38.512  23.175   7.064
 4818POPC   C4B61546  38.527  23.164   7.364
 4819POPC   NC361547   3.551  40.763   5.564
 4819POPC   PO461548   3.576  40.776   5.864
 4819POPC   GL161549   3.565  40.761   6.164
 4819POPC   GL261550   3.683  40.735   6.164
 4819POPC   C1A61551   3.500  40.768   6.464
 4819POPC   D2A61552   3.524  40.786   6.764
 4819POPC   C3A61553   3.578  40.752   7.064
 4819POPC   C4A61554   3.522  40.828   7.364
 4819POPC   C1B61555   3.756  40.758   6.464
 4819POPC   C2B61556   3.789  40.815   6.764
 4819POPC   C3B61557   3.787  40.758   7.064
 4819POPC   C4B61558   3.758  40.808   7.364
 4820POPC   NC361559  37.638  27.586   5.564
 4820POPC   PO461560  37.662  27.560   5.864
 4820POPC   GL161561  37.707  27.635   6.164
 4820POPC   GL261562  37.659  27.685   6.164
 4820POPC   C1A61563  37.662  27.614   6.464
 4820POPC   D2A61564  37.712  27.567   6.764
 4820POPC   C3A61565  37.641  27.619   7.064
 4820POPC   C4A61566  37.645  27.559   7.364
 4820POPC   C1B61567  37.693  27.863   6.464
 4820POPC   C2B61568  37.688  27.875   6.764
 4820POPC   C3B61569  37.702  27.835   7.064
 4820POPC   C4B61570  37.670  27.856   7.364
 4821POPC   NC361571  31.460   1.182   5.564
 4821POPC   PO461572  31.486   1.249   5.864
 4821POPC   GL161573  31.465   1.259   6.164
 4821POPC   GL261574  31.352   1.141   6.164
 4821POPC   C1A61575  31.440   1.204   6.464
 4821POPC   D2A61576  31.431   1.262   6.764
 4821POPC   C3A61577  31.454   1.225   7.064
 4821POPC   C4A61578  31.450   1.248   7.364
 4821POPC   C1B61579  31.251   1.144   6.464
 4821POPC   C2B61580  31.276   1.170   6.764
 4821POPC   C3B61581  31.186   1.185   7.064
 4821POPC   C4B61582  31.208   1.203   7.364
 4822POPC   NC361583  28.345  19.788   5.564
 4822POPC   PO461584  28.327  19.823   5.864
 4822POPC   GL161585  28.373  19.840   6.164
 4822POPC   GL261586  28.438  19.667   6.164
 4822POPC   C1A61587  28.358  19.857   6.464
 4822POPC   D2A61588  28.359  19.818   6.764
 4822POPC   C3A61589  28.395  19.880   7.064
 4822POPC   C4A61590  28.333  19.834   7.364
 4822POPC   C1B61591  28.408  19.615   6.464
 4822POPC   C2B61592  28.405  19.589   6.764
 4822POPC   C3B61593  28.428  19.556   7.064
 4822POPC   C4B61594  28.409  19.624   7.364
 4823POPC   NC361595  22.170   8.154   5.564
 4823POPC   PO461596  22.190   8.160   5.864
 4823POPC   GL161597  22.164   8.203   6.164
 4823POPC   GL261598  22.042   8.265   6.164
 4823POPC   C1A61599  22.146   8.246   6.464
 4823POPC   D2A61600  22.149   8.195   6.764
 4823POPC   C3A61601  22.174   8.247   7.064
 4823POPC   C4A61602  22.183   8.200   7.364
 4823POPC   C1B61603  21.960   8.361   6.464
 4823POPC   C2B61604  21.998   8.347   6.764
 4823POPC   C3B61605  22.003   8.389   7.064
 4823POPC   C4B61606  22.027   8.418   7.364
 4824POPC   NC361607  26.804  15.963   5.564
 4824POPC   PO461608  26.828  15.966   5.864
 4824POPC   GL161609  26.779  15.984   6.164
 4824POPC   GL261610  26.818  16.107   6.164
 4824POPC   C1A61611  26.841  15.913   6.464
 4824POPC   D2A61612  26.804  15.992   6.764
 4824POPC   C3A61613  26.777  15.919   7.064
 4824POPC   C4A61614  26.855  15.928   7.364
 4824POPC   C1B61615  26.806  16.226   6.464
 4824POPC   C2B61616  26.813  16.215   6.764
 4824POPC   C3B61617  26.806  16.179   7.064
 4824POPC   C4B61618  26.847  16.179   7.364
 4825POPC   NC361619  42.323  33.036   5.564
 4825POPC   PO461620  42.313  32.982   5.864
 4825POPC   GL161621  42.374  33.022   6.164
 4825POPC   GL261622  42.400  32.925   6.164
 4825POPC   C1A61623  42.318  33.072   6.464
 4825POPC   D2A61624  42.361  33.034   6.764
 4825POPC   C3A61625  42.288  33.043   7.064
 4825POPC   C4A61626  42.300  33.072   7.364
 4825POPC   C1B61627  42.500  32.860   6.464
 4825POPC   C2B61628  42.440  32.859   6.764
 4825POPC   C3B61629  42.496  32.769   7.064
 4825POPC   C4B61630  42.501  32.849   7.364
 4826POPC   NC361631  31.465  19.841   5.564
 4826POPC   PO461632  31.461  19.794   5.864
 4826POPC   GL161633  31.508  19.879   6.164
 4826POPC   GL261634  31.626  19.732   6.164
 4826POPC   C1A61635  31.493  19.804   6.464
 4826POPC   D2A61636  31.480  19.838   6.764
 4826POPC   C3A61637  31.502  19.852   7.064
 4826POPC   C4A61638  31.455  19.809   7.364
 4826POPC   C1B61639  31.660  19.711   6.464
 4826POPC   C2B61640  31.679  19.709   6.764
 4826POPC   C3B61641  31.681  19.741   7.064
 4826POPC   C4B61642  31.721  19.709   7.364
 4827POPC   NC361643  43.864   8.958   5.564
 4827POPC   PO461644  43.929   8.988   5.864
 4827POPC   GL161645  43.904   9.016   6.164
 4827POPC   GL261646  43.842   9.091   6.164
 4827POPC   C1A61647  43.906   8.950   6.464
 4827POPC   D2A61648  43.856   8.971   6.764
 4827POPC   C3A61649  43.860   8.965   7.064
 4827POPC   C4A61650  43.902   9.004   7.364
 4827POPC   C1B61651  43.788   9.254   6.464
 4827POPC   C2B61652  43.798   9.175   6.764
 4827POPC   C3B61653  43.769   9.219   7.064
 4827POPC   C4B61654  43.793   9.239   7.364
 4828POPC   NC361655  29.942  25.992   5.564
 4828POPC   PO461656  29.890  26.021   5.864
 4828POPC   GL161657  29.874  26.033   6.164
 4828POPC   GL261658  29.916  25.906   6.164
 4828POPC   C1A61659  29.928  26.049   6.464
 4828POPC   D2A61660  29.904  26.030   6.764
 4828POPC   C3A61661  29.942  26.040   7.064
 4828POPC   C4A61662  29.910  26.041   7.364
 4828POPC   C1B61663  30.031  25.777   6.464
 4828POPC   C2B61664  29.997  25.762   6.764
 4828POPC   C3B61665  29.991  25.759   7.064
 4828POPC   C4B61666  29.962  25.819   7.364
 4829POPC   NC361667   3.567   6.620   5.564
 4829POPC   PO461668   3.493   6.665   5.864
 4829POPC   GL161669   3.572   6.653   6.164
 4829POPC   GL261670   3.652   6.612   6.164
 4829POPC   C1A61671   3.536   6.667   6.464
 4829POPC   D2A61672   3.539   6.643   6.764
 4829POPC   C3A61673   3.573   6.629   7.064
 4829POPC   C4A61674   3.517   6.607   7.364
 4829POPC   C1B61675   3.817   6.646   6.464
 4829POPC   C2B61676   3.779   6.652   6.764
 4829POPC   C3B61677   3.836   6.723   7.064
 4829POPC   C4B61678   3.798   6.679   7.364
 4830POPC   NC361679  36.095  28.341   5.564
 4830POPC   PO461680  36.157  28.390   5.864
 4830POPC   GL161681  36.079  28.377   6.164
 4830POPC   GL261682  36.106  28.456   6.164
 4830POPC   C1A61683  36.156  28.337   6.464
 4830POPC   D2A61684  36.118  28.345   6.764
 4830POPC   C3A61685  36.079  28.401   7.064
 4830POPC   C4A61686  36.092  28.333   7.364
 4830POPC   C1B61687  36.032  28.645   6.464
 4830POPC   C2B61688  36.123  28.580   6.764
 4830POPC   C3B61689  36.074  28.564   7.064
 4830POPC   C4B61690  36.049  28.627   7.364
 4831POPC   NC361691  43.911   5.840   5.564
 4831POPC   PO461692  43.880   5.844   5.864
 4831POPC   GL161693  43.850   5.851   6.164
 4831POPC   GL261694  43.778   5.803   6.164
 4831POPC   C1A61695  43.853   5.840   6.464
 4831POPC   D2A61696  43.860   5.897   6.764
 4831POPC   C3A61697  43.851   5.819   7.064
 4831POPC   C4A61698  43.929   5.919   7.364
 4831POPC   C1B61699  43.766   5.692   6.464
 4831POPC   C2B61700  43.759   5.599   6.764
 4831POPC   C3B61701  43.810   5.619   7.064
 4831POPC   C4B61702  43.780   5.598   7.364
 4832POPC   NC361703  36.873  10.567   5.564
 4832POPC   PO461704  36.925  10.539   5.864
 4832POPC   GL161705  36.857  10.478   6.164
 4832POPC   GL261706  36.843  10.372   6.164
 4832POPC   C1A61707  36.856  10.483   6.464
 4832POPC   D2A61708  36.873  10.491   6.764
 4832POPC   C3A61709  36.901  10.568   7.064
 4832POPC   C4A61710  36.909  10.521   7.364
 4832POPC   C1B61711  36.889  10.305   6.464
 4832POPC   C2B61712  36.901  10.278   6.764
 4832POPC   C3B61713  36.906  10.315   7.064
 4832POPC   C4B61714  36.901  10.303   7.364
 4833POPC   NC361715  27.574  27.621   5.564
 4833POPC   PO461716  27.610  27.605   5.864
 4833POPC   GL161717  27.638  27.569   6.164
 4833POPC   GL261718  27.530  27.708   6.164
 4833POPC   C1A61719  27.592  27.627   6.464
 4833POPC   D2A61720  27.599  27.570   6.764
 4833POPC   C3A61721  27.573  27.590   7.064
 4833POPC   C4A61722  27.620  27.639   7.364
 4833POPC   C1B61723  27.450  27.743   6.464
 4833POPC   C2B61724  27.399  27.745   6.764
 4833POPC   C3B61725  27.408  27.754   7.064
 4833POPC   C4B61726  27.403  27.810   7.364
 4834POPC   NC361727   1.965  40.765   5.564
 4834POPC   PO461728   2.020  40.816   5.864
 4834POPC   GL161729   1.972  40.826   6.164
 4834POPC   GL261730   2.113  40.814   6.164
 4834POPC   C1A61731   2.028  40.736   6.464
 4834POPC   D2A61732   1.941  40.796   6.764
 4834POPC   C3A61733   1.984  40.740   7.064
 4834POPC   C4A61734   1.953  40.815   7.364
 4834POPC   C1B61735   2.159  40.856   6.464
 4834POPC   C2B61736   2.200  40.927   6.764
 4834POPC   C3B61737   2.212  40.955   7.064
 4834POPC   C4B61738   2.165  40.867   7.364
 4835POPC   NC361739  31.429   9.737   5.564
 4835POPC   PO461740  31.438   9.721   5.864
 4835POPC   GL161741  31.441   9.721   6.164
 4835POPC   GL261742  31.613   9.736   6.164
 4835POPC   C1A61743  31.479   9.738   6.464
 4835POPC   D2A61744  31.513   9.750   6.764
 4835POPC   C3A61745  31.458   9.770   7.064
 4835POPC   C4A61746  31.515   9.796   7.364
 4835POPC   C1B61747  31.763   9.729   6.464
 4835POPC   C2B61748  31.721   9.769   6.764
 4835POPC   C3B61749  31.755   9.728   7.064
 4835POPC   C4B61750  31.755   9.799   7.364
 4836POPC   NC361751  36.880  39.998   5.564
 4836POPC   PO461752  36.926  40.019   5.864
 4836POPC   GL161753  36.930  40.050   6.164
 4836POPC   GL261754  36.899  40.174   6.164
 4836POPC   C1A61755  36.883  40.050   6.464
 4836POPC   D2A61756  36.924  40.054   6.764
 4836POPC   C3A61757  36.913  40.018   7.064
 4836POPC   C4A61758  36.953  39.959   7.364
 4836POPC   C1B61759  36.823  40.257   6.464
 4836POPC   C2B61760  36.836  40.273   6.764
 4836POPC   C3B61761  36.837  40.271   7.064
 4836POPC   C4B61762  36.861  40.216   7.364
 4837POPC   NC361763  35.349   0.442   5.564
 4837POPC   PO461764  35.364   0.422   5.864
 4837POPC   GL161765  35.313   0.441   6.164
 4837POPC   GL261766  35.461   0.401   6.164
 4837POPC   C1A61767  35.339   0.450   6.464
 4837POPC   D2A61768  35.366   0.469   6.764
 4837POPC   C3A61769  35.361   0.429   7.064
 4837POPC   C4A61770  35.372   0.407   7.364
 4837POPC   C1B61771  35.602   0.390   6.464
 4837POPC   C2B61772  35.604   0.364   6.764
 4837POPC   C3B61773  35.614   0.313   7.064
 4837POPC   C4B61774  35.579   0.352   7.364
 4838POPC   NC361775  22.145   7.435   5.564
 4838POPC   PO461776  22.194   7.467   5.864
 4838POPC   GL161777  22.198   7.414   6.164
 4838POPC   GL261778  22.218   7.547   6.164
 4838POPC   C1A61779  22.194   7.446   6.464
 4838POPC   D2A61780  22.117   7.433   6.764
 4838POPC   C3A61781  22.176   7.419   7.064
 4838POPC   C4A61782  22.174   7.408   7.364
 4838POPC   C1B61783  22.279   7.654   6.464
 4838POPC   C2B61784  22.301   7.658   6.764
 4838POPC   C3B61785  22.310   7.604   7.064
 4838POPC   C4B61786  22.265   7.624   7.364
 4839POPC   NC361787  16.746  36.079   5.564
 4839POPC   PO461788  16.756  36.097   5.864
 4839POPC   GL161789  16.763  36.094   6.164
 4839POPC   GL261790  16.800  36.194   6.164
 4839POPC   C1A61791  16.760  36.142   6.464
 4839POPC   D2A61792  16.724  36.113   6.764
 4839POPC   C3A61793  16.736  36.098   7.064
 4839POPC   C4A61794  16.686  36.126   7.364
 4839POPC   C1B61795  16.867  36.284   6.464
 4839POPC   C2B61796  16.949  36.322   6.764
 4839POPC   C3B61797  16.875  36.315   7.064
 4839POPC   C4B61798  16.954  36.353   7.364
 4840POPC   NC361799  20.617   4.286   5.564
 4840POPC   PO461800  20.612   4.325   5.864
 4840POPC   GL161801  20.572   4.323   6.164
 4840POPC   GL261802  20.571   4.422   6.164
 4840POPC   C1A61803  20.638   4.335   6.464
 4840POPC   D2A61804  20.617   4.335   6.764
 4840POPC   C3A61805  20.571   4.310   7.064
 4840POPC   C4A61806  20.649   4.320   7.364
 4840POPC   C1B61807  20.514   4.558   6.464
 4840POPC   C2B61808  20.568   4.528   6.764
 4840POPC   C3B61809  20.546   4.564   7.064
 4840POPC   C4B61810  20.533   4.559   7.364
 4841POPC   NC361811   1.168  22.149   5.564
 4841POPC   PO461812   1.189  22.142   5.864
 4841POPC   GL161813   1.180  22.165   6.164
 4841POPC   GL261814   1.210  22.003   6.164
 4841POPC   C1A61815   1.225  22.151   6.464
 4841POPC   D2A61816   1.223  22.135   6.764
 4841POPC   C3A61817   1.205  22.177   7.064
 4841POPC   C4A61818   1.175  22.160   7.364
 4841POPC   C1B61819   1.157  21.875   6.464
 4841POPC   C2B61820   1.166  21.868   6.764
 4841POPC   C3B61821   1.157  21.948   7.064
 4841POPC   C4B61822   1.200  21.943   7.364
 4842POPC   NC361823   4.341  36.153   5.564
 4842POPC   PO461824   4.305  36.154   5.864
 4842POPC   GL161825   4.315  36.099   6.164
 4842POPC   GL261826   4.392  35.970   6.164
 4842POPC   C1A61827   4.337  36.147   6.464
 4842POPC   D2A61828   4.311  36.096   6.764
 4842POPC   C3A61829   4.321  36.095   7.064
 4842POPC   C4A61830   4.311  36.100   7.364
 4842POPC   C1B61831   4.402  35.854   6.464
 4842POPC   C2B61832   4.413  35.918   6.764
 4842POPC   C3B61833   4.404  35.849   7.064
 4842POPC   C4B61834   4.429  35.884   7.364
 4843POPC   NC361835   8.927  44.640   5.564
 4843POPC   PO461836   8.973  44.645   5.864
 4843POPC   GL161837   9.015  44.631   6.164
 4843POPC   GL261838   8.992  44.521   6.164
 4843POPC   C1A61839   9.017  44.670   6.464
 4843POPC   D2A61840   8.980  44.638   6.764
 4843POPC   C3A61841   8.934  44.705   7.064
 4843POPC   C4A61842   9.015  44.629   7.364
 4843POPC   C1B61843   9.058  44.443   6.464
 4843POPC   C2B61844   9.029  44.406   6.764
 4843POPC   C3B61845   8.977  44.464   7.064
 4843POPC   C4B61846   8.986  44.411   7.364
 4844POPC   NC361847  44.621   5.840   5.564
 4844POPC   PO461848  44.689   5.864   5.864
 4844POPC   GL161849  44.685   5.851   6.164
 4844POPC   GL261850  44.731   5.785   6.164
 4844POPC   C1A61851  44.672   5.919   6.464
 4844POPC   D2A61852  44.702   5.909   6.764
 4844POPC   C3A61853  44.655   5.876   7.064
 4844POPC   C4A61854  44.665   5.873   7.364
 4844POPC   C1B61855  44.741   5.601   6.464
 4844POPC   C2B61856  44.778   5.655   6.764
 4844POPC   C3B61857  44.762   5.603   7.064
 4844POPC   C4B61858  44.793   5.644   7.364
 4845POPC   NC361859   8.959   6.694   5.564
 4845POPC   PO461860   8.980   6.689   5.864
 4845POPC   GL161861   8.951   6.641   6.164
 4845POPC   GL261862   9.033   6.776   6.164
 4845POPC   C1A61863   9.004   6.651   6.464
 4845POPC   D2A61864   9.007   6.626   6.764
 4845POPC   C3A61865   8.996   6.634   7.064
 4845POPC   C4A61866   8.940   6.616   7.364
 4845POPC   C1B61867   9.053   6.897   6.464
 4845POPC   C2B61868   8.985   6.913   6.764
 4845POPC   C3B61869   9.029   6.925   7.064
 4845POPC   C4B61870   9.079   6.906   7.364
 4846POPC   NC361871  34.599  18.243   5.564
 4846POPC   PO461872  34.578  18.294   5.864
 4846POPC   GL161873  34.578  18.271   6.164
 4846POPC   GL261874  34.633  18.325   6.164
 4846POPC   C1A61875  34.605  18.272   6.464
 4846POPC   D2A61876  34.603  18.278   6.764
 4846POPC   C3A61877  34.582  18.243   7.064
 4846POPC   C4A61878  34.610  18.270   7.364
 4846POPC   C1B61879  34.756  18.393   6.464
 4846POPC   C2B61880  34.743  18.400   6.764
 4846POPC   C3B61881  34.747  18.423   7.064
 4846POPC   C4B61882  34.819  18.451   7.364
 4847POPC   NC361883  22.948  33.804   5.564
 4847POPC   PO461884  22.930  33.827   5.864
 4847POPC   GL161885  22.976  33.846   6.164
 4847POPC   GL261886  22.863  33.897   6.164
 4847POPC   C1A61887  22.892  33.774   6.464
 4847POPC   D2A61888  22.905  33.834   6.764
 4847POPC   C3A61889  22.973  33.758   7.064
 4847POPC   C4A61890  22.898  33.826   7.364
 4847POPC   C1B61891  22.924  34.083   6.464
 4847POPC   C2B61892  22.840  34.086   6.764
 4847POPC   C3B61893  22.886  34.083   7.064
 4847POPC   C4B61894  22.913  34.081   7.364
 4848POPC   NC361895  32.247  12.111   5.564
 4848POPC   PO461896  32.250  12.076   5.864
 4848POPC   GL161897  32.264  12.096   6.164
 4848POPC   GL261898  32.103  12.130   6.164
 4848POPC   C1A61899  32.201  12.034   6.464
 4848POPC   D2A61900  32.226  12.037   6.764
 4848POPC   C3A61901  32.238  12.078   7.064
 4848POPC   C4A61902  32.291  12.081   7.364
 4848POPC   C1B61903  32.048  12.177   6.464
 4848POPC   C2B61904  32.009  12.116   6.764
 4848POPC   C3B61905  32.031  12.153   7.064
 4848POPC   C4B61906  32.057  12.190   7.364
 4849POPC   NC361907  18.319   6.629   5.564
 4849POPC   PO461908  18.280   6.635   5.864
 4849POPC   GL161909  18.326   6.650   6.164
 4849POPC   GL261910  18.360   6.548   6.164
 4849POPC   C1A61911  18.325   6.638   6.464
 4849POPC   D2A61912  18.303   6.651   6.764
 4849POPC   C3A61913  18.284   6.608   7.064
 4849POPC   C4A61914  18.263   6.682   7.364
 4849POPC   C1B61915  18.465   6.497   6.464
 4849POPC   C2B61916  18.527   6.565   6.764
 4849POPC   C3B61917  18.520   6.514   7.064
 4849POPC   C4B61918  18.463   6.513   7.364
 4850POPC   NC361919  37.694  22.950   5.564
 4850POPC   PO461920  37.652  22.901   5.864
 4850POPC   GL161921  37.639  22.975   6.164
 4850POPC   GL261922  37.789  22.923   6.164
 4850POPC   C1A61923  37.696  22.908   6.464
 4850POPC   D2A61924  37.706  22.903   6.764
 4850POPC   C3A61925  37.692  22.950   7.064
 4850POPC   C4A61926  37.661  22.890   7.364
 4850POPC   C1B61927  37.888  22.897   6.464
 4850POPC   C2B61928  37.950  22.925   6.764
 4850POPC   C3B61929  37.904  22.927   7.064
 4850POPC   C4B61930  37.958  22.995   7.364
 4851POPC   NC361931  27.623  12.076   5.564
 4851POPC   PO461932  27.580  12.034   5.864
 4851POPC   GL161933  27.587  12.041   6.164
 4851POPC   GL261934  27.635  11.949   6.164
 4851POPC   C1A61935  27.574  12.119   6.464
 4851POPC   D2A61936  27.604  12.100   6.764
 4851POPC   C3A61937  27.639  12.051   7.064
 4851POPC   C4A61938  27.552  12.085   7.364
 4851POPC   C1B61939  27.778  11.858   6.464
 4851POPC   C2B61940  27.781  11.878   6.764
 4851POPC   C3B61941  27.747  11.861   7.064
 4851POPC   C4B61942  27.826  11.860   7.364
 4852POPC   NC361943  36.877   5.086   5.564
 4852POPC   PO461944  36.877   5.088   5.864
 4852POPC   GL161945  36.862   5.077   6.164
 4852POPC   GL261946  36.823   5.160   6.164
 4852POPC   C1A61947  36.921   5.080   6.464
 4852POPC   D2A61948  36.854   5.123   6.764
 4852POPC   C3A61949  36.857   5.076   7.064
 4852POPC   C4A61950  36.932   5.077   7.364
 4852POPC   C1B61951  36.754   5.340   6.464
 4852POPC   C2B61952  36.840   5.352   6.764
 4852POPC   C3B61953  36.768   5.356   7.064
 4852POPC   C4B61954  36.781   5.359   7.364
 4853POPC   NC361955  22.974  40.798   5.564
 4853POPC   PO461956  22.902  40.748   5.864
 4853POPC   GL161957  22.950  40.784   6.164
 4853POPC   GL261958  22.814  40.744   6.164
 4853POPC   C1A61959  22.940  40.826   6.464
 4853POPC   D2A61960  22.920  40.787   6.764
 4853POPC   C3A61961  22.981  40.790   7.064
 4853POPC   C4A61962  22.969  40.813   7.364
 4853POPC   C1B61963  22.640  40.812   6.464
 4853POPC   C2B61964  22.649  40.830   6.764
 4853POPC   C3B61965  22.684  40.782   7.064
 4853POPC   C4B61966  22.692  40.743   7.364
 4854POPC   NC361967   3.527   2.767   5.564
 4854POPC   PO461968   3.554   2.815   5.864
 4854POPC   GL161969   3.532   2.810   6.164
 4854POPC   GL261970   3.686   2.725   6.164
 4854POPC   C1A61971   3.517   2.786   6.464
 4854POPC   D2A61972   3.503   2.735   6.764
 4854POPC   C3A61973   3.521   2.732   7.064
 4854POPC   C4A61974   3.563   2.775   7.364
 4854POPC   C1B61975   3.781   2.778   6.464
 4854POPC   C2B61976   3.751   2.771   6.764
 4854POPC   C3B61977   3.748   2.722   7.064
 4854POPC   C4B61978   3.790   2.732   7.364
 4855POPC   NC361979  22.982  12.885   5.564
 4855POPC   PO461980  22.975  12.875   5.864
 4855POPC   GL161981  22.908  12.870   6.164
 4855POPC   GL261982  22.834  12.974   6.164
 4855POPC   C1A61983  22.951  12.880   6.464
 4855POPC   D2A61984  22.912  12.887   6.764
 4855POPC   C3A61985  22.917  12.838   7.064
 4855POPC   C4A61986  22.894  12.857   7.364
 4855POPC   C1B61987  22.765  13.043   6.464
 4855POPC   C2B61988  22.712  13.024   6.764
 4855POPC   C3B61989  22.723  13.039   7.064
 4855POPC   C4B61990  22.763  13.022   7.364
 4856POPC   NC361991  43.106  14.453   5.564
 4856POPC   PO461992  43.073  14.451   5.864
 4856POPC   GL161993  43.122  14.392   6.164
 4856POPC   GL261994  43.090  14.325   6.164
 4856POPC   C1A61995  43.134  14.390   6.464
 4856POPC   D2A61996  43.120  14.365   6.764
 4856POPC   C3A61997  43.088  14.407   7.064
 4856POPC   C4A61998  43.099  14.398   7.364
 4856POPC   C1B61999  42.997  14.143   6.464
 4856POPC   C2B62000  43.045  14.120   6.764
 4856POPC   C3B62001  43.026  14.163   7.064
 4856POPC   C4B62002  43.001  14.204   7.364
 4857POPC   NC362003  39.264  27.603   5.564
 4857POPC   PO462004  39.258  27.609   5.864
 4857POPC   GL162005  39.243  27.616   6.164
 4857POPC   GL262006  39.145  27.499   6.164
 4857POPC   C1A62007  39.228  27.609   6.464
 4857POPC   D2A62008  39.277  27.547   6.764
 4857POPC   C3A62009  39.210  27.612   7.064
 4857POPC   C4A62010  39.236  27.597   7.364
 4857POPC   C1B62011  39.067  27.357   6.464
 4857POPC   C2B62012  39.116  27.410   6.764
 4857POPC   C3B62013  39.073  27.421   7.064
 4857POPC   C4B62014  39.052  27.347   7.364
 4858POPC   NC362015  36.141  19.839   5.564
 4858POPC   PO462016  36.082  19.805   5.864
 4858POPC   GL162017  36.169  19.828   6.164
 4858POPC   GL262018  36.122  19.690   6.164
 4858POPC   C1A62019  36.094  19.830   6.464
 4858POPC   D2A62020  36.152  19.862   6.764
 4858POPC   C3A62021  36.143  19.833   7.064
 4858POPC   C4A62022  36.138  19.821   7.364
 4858POPC   C1B62023  36.099  19.588   6.464
 4858POPC   C2B62024  36.108  19.566   6.764
 4858POPC   C3B62025  36.089  19.633   7.064
 4858POPC   C4B62026  36.083  19.593   7.364
 4859POPC   NC362027   2.732  31.494   5.564
 4859POPC   PO462028   2.771  31.452   5.864
 4859POPC   GL162029   2.732  31.423   6.164
 4859POPC   GL262030   2.843  31.610   6.164
 4859POPC   C1A62031   2.767  31.467   6.464
 4859POPC   D2A62032   2.786  31.473   6.764
 4859POPC   C3A62033   2.778  31.427   7.064
 4859POPC   C4A62034   2.737  31.501   7.364
 4859POPC   C1B62035   2.856  31.720   6.464
 4859POPC   C2B62036   2.893  31.698   6.764
 4859POPC   C3B62037   2.886  31.661   7.064
 4859POPC   C4B62038   2.884  31.708   7.364
 4860POPC   NC362039  19.030  34.609   5.564
 4860POPC   PO462040  19.026  34.611   5.864
 4860POPC   GL162041  19.092  34.586   6.164
 4860POPC   GL262042  18.957  34.574   6.164
 4860POPC   C1A62043  19.058  34.573   6.464
 4860POPC   D2A62044  19.076  34.573   6.764
 4860POPC   C3A62045  19.011  34.604   7.064
 4860POPC   C4A62046  19.090  34.601   7.364
 4860POPC   C1B62047  18.786  34.582   6.464
 4860POPC   C2B62048  18.795  34.528   6.764
 4860POPC   C3B62049  18.784  34.577   7.064
 4860POPC   C4B62050  18.791  34.541   7.364
 4861POPC   NC362051  42.366   9.018   5.564
 4861POPC   PO462052  42.343   8.995   5.864
 4861POPC   GL162053  42.349   8.929   6.164
 4861POPC   GL262054  42.419   8.841   6.164
 4861POPC   C1A62055  42.358   9.000   6.464
 4861POPC   D2A62056  42.369   9.020   6.764
 4861POPC   C3A62057  42.370   8.992   7.064
 4861POPC   C4A62058  42.336   9.005   7.364
 4861POPC   C1B62059  42.484   8.785   6.464
 4861POPC   C2B62060  42.525   8.820   6.764
 4861POPC   C3B62061  42.523   8.848   7.064
 4861POPC   C4B62062  42.504   8.853   7.364
 4862POPC   NC362063   7.465  25.297   5.564
 4862POPC   PO462064   7.400  25.299   5.864
 4862POPC   GL162065   7.446  25.234   6.164
 4862POPC   GL262066   7.456  25.430   6.164
 4862POPC   C1A62067   7.408  25.283   6.464
 4862POPC   D2A62068   7.428  25.304   6.764
 4862POPC   C3A62069   7.377  25.222   7.064
 4862POPC   C4A62070   7.461  25.272   7.364
 4862POPC   C1B62071   7.511  25.507   6.464
 4862POPC   C2B62072   7.549  25.507   6.764
 4862POPC   C3B62073   7.463  25.461   7.064
 4862POPC   C4B62074   7.502  25.485   7.364
 4863POPC   NC362075   0.482  20.648   5.564
 4863POPC   PO462076   0.442  20.614   5.864
 4863POPC   GL162077   0.450  20.647   6.164
 4863POPC   GL262078   0.547  20.587   6.164
 4863POPC   C1A62079   0.435  20.631   6.464
 4863POPC   D2A62080   0.417  20.612   6.764
 4863POPC   C3A62081   0.450  20.623   7.064
 4863POPC   C4A62082   0.421  20.637   7.364
 4863POPC   C1B62083   0.672  20.654   6.464
 4863POPC   C2B62084   0.691  20.694   6.764
 4863POPC   C3B62085   0.642  20.639   7.064
 4863POPC   C4B62086   0.709  20.699   7.364
 4864POPC   NC362087  26.077  28.320   5.564
 4864POPC   PO462088  26.085  28.354   5.864
 4864POPC   GL162089  26.085  28.324   6.164
 4864POPC   GL262090  26.013  28.488   6.164
 4864POPC   C1A62091  25.997  28.320   6.464
 4864POPC   D2A62092  26.047  28.380   6.764
 4864POPC   C3A62093  26.055  28.415   7.064
 4864POPC   C4A62094  26.030  28.374   7.364
 4864POPC   C1B62095  26.036  28.597   6.464
 4864POPC   C2B62096  26.051  28.579   6.764
 4864POPC   C3B62097  26.034  28.660   7.064
 4864POPC   C4B62098  26.070  28.635   7.364
 4865POPC   NC362099  14.373  22.922   5.564
 4865POPC   PO462100  14.399  22.891   5.864
 4865POPC   GL162101  14.369  22.954   6.164
 4865POPC   GL262102  14.277  22.824   6.164
 4865POPC   C1A62103  14.429  22.915   6.464
 4865POPC   D2A62104  14.355  22.977   6.764
 4865POPC   C3A62105  14.377  22.947   7.064
 4865POPC   C4A62106  14.393  22.921   7.364
 4865POPC   C1B62107  14.152  22.813   6.464
 4865POPC   C2B62108  14.186  22.802   6.764
 4865POPC   C3B62109  14.152  22.822   7.064
 4865POPC   C4B62110  14.217  22.787   7.364
 4866POPC   NC362111  17.529  27.566   5.564
 4866POPC   PO462112  17.483  27.634   5.864
 4866POPC   GL162113  17.506  27.578   6.164
 4866POPC   GL262114  17.407  27.467   6.164
 4866POPC   C1A62115  17.546  27.554   6.464
 4866POPC   D2A62116  17.489  27.630   6.764
 4866POPC   C3A62117  17.534  27.637   7.064
 4866POPC   C4A62118  17.518  27.600   7.364
 4866POPC   C1B62119  17.378  27.402   6.464
 4866POPC   C2B62120  17.365  27.423   6.764
 4866POPC   C3B62121  17.334  27.358   7.064
 4866POPC   C4B62122  17.333  27.352   7.364
 4867POPC   NC362123   4.330  36.878   5.564
 4867POPC   PO462124   4.305  36.938   5.864
 4867POPC   GL162125   4.347  36.953   6.164
 4867POPC   GL262126   4.238  37.015   6.164
 4867POPC   C1A62127   4.275  36.873   6.464
 4867POPC   D2A62128   4.365  36.877   6.764
 4867POPC   C3A62129   4.316  36.919   7.064
 4867POPC   C4A62130   4.274  36.882   7.364
 4867POPC   C1B62131   4.232  37.118   6.464
 4867POPC   C2B62132   4.214  37.124   6.764
 4867POPC   C3B62133   4.194  37.097   7.064
 4867POPC   C4B62134   4.279  37.107   7.364
 4868POPC   NC362135  11.269   5.112   5.564
 4868POPC   PO462136  11.333   5.096   5.864
 4868POPC   GL162137  11.309   5.130   6.164
 4868POPC   GL262138  11.242   5.216   6.164
 4868POPC   C1A62139  11.340   5.111   6.464
 4868POPC   D2A62140  11.321   5.108   6.764
 4868POPC   C3A62141  11.331   5.081   7.064
 4868POPC   C4A62142  11.290   5.081   7.364
 4868POPC   C1B62143  11.286   5.336   6.464
 4868POPC   C2B62144  11.279   5.357   6.764
 4868POPC   C3B62145  11.245   5.298   7.064
 4868POPC   C4B62146  11.276   5.378   7.364
 4869POPC   NC362147  13.620  19.054   5.564
 4869POPC   PO462148  13.596  19.086   5.864
 4869POPC   GL162149  13.629  19.042   6.164
 4869POPC   GL262150  13.750  19.168   6.164
 4869POPC   C1A62151  13.614  19.050   6.464
 4869POPC   D2A62152  13.650  19.037   6.764
 4869POPC   C3A62153  13.653  19.014   7.064
 4869POPC   C4A62154  13.587  19.108   7.364
 4869POPC   C1B62155  13.867  19.240   6.464
 4869POPC   C2B62156  13.812  19.226   6.764
 4869POPC   C3B62157  13.823  19.151   7.064
 4869POPC   C4B62158  13.852  19.157   7.364
 4870POPC   NC362159  33.001  29.117   5.564
 4870POPC   PO462160  33.023  29.148   5.864
 4870POPC   GL162161  32.988  29.139   6.164
 4870POPC   GL262162  32.922  29.164   6.164
 4870POPC   C1A62163  33.070  29.103   6.464
 4870POPC   D2A62164  32.987  29.191   6.764
 4870POPC   C3A62165  32.986  29.129   7.064
 4870POPC   C4A62166  33.005  29.179   7.364
 4870POPC   C1B62167  32.791  29.160   6.464
 4870POPC   C2B62168  32.823  29.193   6.764
 4870POPC   C3B62169  32.815  29.163   7.064
 4870POPC   C4B62170  32.743  29.169   7.364
 4871POPC   NC362171   8.972  27.566   5.564
 4871POPC   PO462172   8.966  27.638   5.864
 4871POPC   GL162173   8.927  27.635   6.164
 4871POPC   GL262174   9.001  27.535   6.164
 4871POPC   C1A62175   8.935  27.621   6.464
 4871POPC   D2A62176   8.993  27.565   6.764
 4871POPC   C3A62177   8.973  27.635   7.064
 4871POPC   C4A62178   9.009  27.592   7.364
 4871POPC   C1B62179   9.113  27.415   6.464
 4871POPC   C2B62180   9.159  27.355   6.764
 4871POPC   C3B62181   9.066  27.429   7.064
 4871POPC   C4B62182   9.123  27.412   7.364
 4872POPC   NC362183  12.832  34.614   5.564
 4872POPC   PO462184  12.874  34.624   5.864
 4872POPC   GL162185  12.898  34.574   6.164
 4872POPC   GL262186  12.964  34.709   6.164
 4872POPC   C1A62187  12.845  34.563   6.464
 4872POPC   D2A62188  12.865  34.553   6.764
 4872POPC   C3A62189  12.887  34.528   7.064
 4872POPC   C4A62190  12.882  34.612   7.364
 4872POPC   C1B62191  12.931  34.837   6.464
 4872POPC   C2B62192  12.956  34.824   6.764
 4872POPC   C3B62193  12.943  34.789   7.064
 4872POPC   C4B62194  12.937  34.773   7.364
 4873POPC   NC362195  20.631  30.728   5.564
 4873POPC   PO462196  20.659  30.705   5.864
 4873POPC   GL162197  20.628  30.684   6.164
 4873POPC   GL262198  20.588  30.783   6.164
 4873POPC   C1A62199  20.575  30.698   6.464
 4873POPC   D2A62200  20.628  30.707   6.764
 4873POPC   C3A62201  20.638  30.746   7.064
 4873POPC   C4A62202  20.616  30.736   7.364
 4873POPC   C1B62203  20.543  30.988   6.464
 4873POPC   C2B62204  20.570  30.942   6.764
 4873POPC   C3B62205  20.567  30.951   7.064
 4873POPC   C4B62206  20.535  30.936   7.364
 4874POPC   NC362207  23.739  24.518   5.564
 4874POPC   PO462208  23.729  24.448   5.864
 4874POPC   GL162209  23.745  24.467   6.164
 4874POPC   GL262210  23.785  24.324   6.164
 4874POPC   C1A62211  23.726  24.498   6.464
 4874POPC   D2A62212  23.700  24.482   6.764
 4874POPC   C3A62213  23.701  24.536   7.064
 4874POPC   C4A62214  23.721  24.490   7.364
 4874POPC   C1B62215  23.809  24.250   6.464
 4874POPC   C2B62216  23.745  24.197   6.764
 4874POPC   C3B62217  23.784  24.220   7.064
 4874POPC   C4B62218  23.737  24.243   7.364
 4875POPC   NC362219  16.693  10.487   5.564
 4875POPC   PO462220  16.709  10.549   5.864
 4875POPC   GL162221  16.769  10.483   6.164
 4875POPC   GL262222  16.600  10.590   6.164
 4875POPC   C1A62223  16.704  10.479   6.464
 4875POPC   D2A62224  16.691  10.537   6.764
 4875POPC   C3A62225  16.705  10.563   7.064
 4875POPC   C4A62226  16.727  10.476   7.364
 4875POPC   C1B62227  16.465  10.611   6.464
 4875POPC   C2B62228  16.466  10.598   6.764
 4875POPC   C3B62229  16.461  10.685   7.064
 4875POPC   C4B62230  16.525  10.627   7.364
 4876POPC   NC362231  43.906   4.269   5.564
 4876POPC   PO462232  43.899   4.312   5.864
 4876POPC   GL162233  43.879   4.273   6.164
 4876POPC   GL262234  43.890   4.403   6.164
 4876POPC   C1A62235  43.884   4.338   6.464
 4876POPC   D2A62236  43.843   4.327   6.764
 4876POPC   C3A62237  43.839   4.303   7.064
 4876POPC   C4A62238  43.887   4.322   7.364
 4876POPC   C1B62239  43.848   4.516   6.464
 4876POPC   C2B62240  43.825   4.534   6.764
 4876POPC   C3B62241  43.838   4.540   7.064
 4876POPC   C4B62242  43.824   4.544   7.364
 4877POPC   NC362243  15.968  42.324   5.564
 4877POPC   PO462244  15.911  42.343   5.864
 4877POPC   GL162245  15.907  42.360   6.164
 4877POPC   GL262246  15.872  42.271   6.164
 4877POPC   C1A62247  15.913  42.346   6.464
 4877POPC   D2A62248  15.920  42.321   6.764
 4877POPC   C3A62249  15.916  42.347   7.064
 4877POPC   C4A62250  15.997  42.379   7.364
 4877POPC   C1B62251  15.839  42.092   6.464
 4877POPC   C2B62252  15.836  42.144   6.764
 4877POPC   C3B62253  15.839  42.099   7.064
 4877POPC   C4B62254  15.870  42.064   7.364
 4878POPC   NC362255  43.106  18.300   5.564
 4878POPC   PO462256  43.132  18.312   5.864
 4878POPC   GL162257  43.073  18.328   6.164
 4878POPC   GL262258  43.142  18.175   6.164
 4878POPC   C1A62259  43.061  18.246   6.464
 4878POPC   D2A62260  43.074  18.287   6.764
 4878POPC   C3A62261  43.154  18.268   7.064
 4878POPC   C4A62262  43.089  18.280   7.364
 4878POPC   C1B62263  43.084  17.988   6.464
 4878POPC   C2B62264  43.098  17.993   6.764
 4878POPC   C3B62265  43.138  18.014   7.064
 4878POPC   C4B62266  43.101  17.984   7.364
 4879POPC   NC362267  26.782   2.815   5.564
 4879POPC   PO462268  26.815   2.812   5.864
 4879POPC   GL162269  26.839   2.805   6.164
 4879POPC   GL262270  26.922   2.702   6.164
 4879POPC   C1A62271  26.832   2.756   6.464
 4879POPC   D2A62272  26.831   2.814   6.764
 4879POPC   C3A62273  26.833   2.780   7.064
 4879POPC   C4A62274  26.864   2.792   7.364
 4879POPC   C1B62275  26.966   2.535   6.464
 4879POPC   C2B62276  26.952   2.598   6.764
 4879POPC   C3B62277  26.980   2.602   7.064
 4879POPC   C4B62278  27.009   2.528   7.364
 4880POPC   NC362279  29.874  36.889   5.564
 4880POPC   PO462280  29.881  36.920   5.864
 4880POPC   GL162281  29.960  36.907   6.164
 4880POPC   GL262282  29.948  37.029   6.164
 4880POPC   C1A62283  29.879  36.945   6.464
 4880POPC   D2A62284  29.935  36.929   6.764
 4880POPC   C3A62285  29.922  36.886   7.064
 4880POPC   C4A62286  29.946  36.926   7.364
 4880POPC   C1B62287  29.909  37.187   6.464
 4880POPC   C2B62288  29.898  37.160   6.764
 4880POPC   C3B62289  29.946  37.196   7.064
 4880POPC   C4B62290  29.891  37.153   7.364
 4881POPC   NC362291  38.471  15.195   5.564
 4881POPC   PO462292  38.432  15.139   5.864
 4881POPC   GL162293  38.495  15.193   6.164
 4881POPC   GL262294  38.436  15.095   6.164
 4881POPC   C1A62295  38.473  15.209   6.464
 4881POPC   D2A62296  38.468  15.197   6.764
 4881POPC   C3A62297  38.436  15.190   7.064
 4881POPC   C4A62298  38.496  15.194   7.364
 4881POPC   C1B62299  38.427  14.969   6.464
 4881POPC   C2B62300  38.383  14.973   6.764
 4881POPC   C3B62301  38.419  14.896   7.064
 4881POPC   C4B62302  38.383  14.902   7.364
 4882POPC   NC362303   6.655  24.501   5.564
 4882POPC   PO462304   6.679  24.452   5.864
 4882POPC   GL162305   6.631  24.496   6.164
 4882POPC   GL262306   6.668  24.593   6.164
 4882POPC   C1A62307   6.665  24.504   6.464
 4882POPC   D2A62308   6.596  24.534   6.764
 4882POPC   C3A62309   6.676  24.473   7.064
 4882POPC   C4A62310   6.660  24.476   7.364
 4882POPC   C1B62311   6.665  24.761   6.464
 4882POPC   C2B62312   6.746  24.765   6.764
 4882POPC   C3B62313   6.739  24.742   7.064
 4882POPC   C4B62314   6.670  24.683   7.364
 4883POPC   NC362315  25.304  18.257   5.564
 4883POPC   PO462316  25.242  18.253   5.864
 4883POPC   GL162317  25.253  18.294   6.164
 4883POPC   GL262318  25.162  18.302   6.164
 4883POPC   C1A62319  25.285  18.268   6.464
 4883POPC   D2A62320  25.305  18.256   6.764
 4883POPC   C3A62321  25.268  18.244   7.064
 4883POPC   C4A62322  25.256  18.275   7.364
 4883POPC   C1B62323  25.003  18.328   6.464
 4883POPC   C2B62324  25.053  18.318   6.764
 4883POPC   C3B62325  25.015  18.330   7.064
 4883POPC   C4B62326  25.065  18.310   7.364
 4884POPC   NC362327   7.437  19.874   5.564
 4884POPC   PO462328   7.442  19.874   5.864
 4884POPC   GL162329   7.423  19.869   6.164
 4884POPC   GL262330   7.371  19.740   6.164
 4884POPC   C1A62331   7.427  19.832   6.464
 4884POPC   D2A62332   7.438  19.838   6.764
 4884POPC   C3A62333   7.425  19.803   7.064
 4884POPC   C4A62334   7.465  19.871   7.364
 4884POPC   C1B62335   7.367  19.562   6.464
 4884POPC   C2B62336   7.389  19.634   6.764
 4884POPC   C3B62337   7.362  19.593   7.064
 4884POPC   C4B62338   7.406  19.597   7.364
 4885POPC   NC362339  24.521   2.006   5.564
 4885POPC   PO462340  24.479   1.964   5.864
 4885POPC   GL162341  24.506   1.982   6.164
 4885POPC   GL262342  24.643   2.023   6.164
 4885POPC   C1A62343  24.537   1.982   6.464
 4885POPC   D2A62344  24.487   2.032   6.764
 4885POPC   C3A62345  24.509   2.002   7.064
 4885POPC   C4A62346  24.468   1.981   7.364
 4885POPC   C1B62347  24.766   2.057   6.464
 4885POPC   C2B62348  24.716   2.053   6.764
 4885POPC   C3B62349  24.756   2.028   7.064
 4885POPC   C4B62350  24.755   2.008   7.364
 4886POPC   NC362351  42.378  30.691   5.564
 4886POPC   PO462352  42.373  30.663   5.864
 4886POPC   GL162353  42.326  30.647   6.164
 4886POPC   GL262354  42.420  30.738   6.164
 4886POPC   C1A62355  42.297  30.693   6.464
 4886POPC   D2A62356  42.312  30.665   6.764
 4886POPC   C3A62357  42.378  30.685   7.064
 4886POPC   C4A62358  42.377  30.697   7.364
 4886POPC   C1B62359  42.565  30.669   6.464
 4886POPC   C2B62360  42.629  30.734   6.764
 4886POPC   C3B62361  42.540  30.719   7.064
 4886POPC   C4B62362  42.627  30.741   7.364
 4887POPC   NC362363  39.969  26.801   5.564
 4887POPC   PO462364  39.987  26.828   5.864
 4887POPC   GL162365  40.039  26.838   6.164
 4887POPC   GL262366  40.170  26.820   6.164
 4887POPC   C1A62367  40.019  26.839   6.464
 4887POPC   D2A62368  40.054  26.773   6.764
 4887POPC   C3A62369  40.036  26.843   7.064
 4887POPC   C4A62370  39.978  26.830   7.364
 4887POPC   C1B62371  40.259  26.784   6.464
 4887POPC   C2B62372  40.219  26.764   6.764
 4887POPC   C3B62373  40.236  26.755   7.064
 4887POPC   C4B62374  40.273  26.791   7.364
 4888POPC   NC362375  16.727  18.285   5.564
 4888POPC   PO462376  16.760  18.256   5.864
 4888POPC   GL162377  16.765  18.258   6.164
 4888POPC   GL262378  16.833  18.168   6.164
 4888POPC   C1A62379  16.720  18.318   6.464
 4888POPC   D2A62380  16.700  18.241   6.764
 4888POPC   C3A62381  16.683  18.332   7.064
 4888POPC   C4A62382  16.755  18.291   7.364
 4888POPC   C1B62383  16.876  18.035   6.464
 4888POPC   C2B62384  16.870  18.085   6.764
 4888POPC   C3B62385  16.888  18.056   7.064
 4888POPC   C4B62386  16.902  18.102   7.364
 4889POPC   NC362387  18.324  29.957   5.564
 4889POPC   PO462388  18.309  29.874   5.864
 4889POPC   GL162389  18.324  29.914   6.164
 4889POPC   GL262390  18.372  29.971   6.164
 4889POPC   C1A62391  18.293  29.882   6.464
 4889POPC   D2A62392  18.251  29.946   6.764
 4889POPC   C3A62393  18.330  29.888   7.064
 4889POPC   C4A62394  18.305  29.897   7.364
 4889POPC   C1B62395  18.529  29.955   6.464
 4889POPC   C2B62396  18.509  30.031   6.764
 4889POPC   C3B62397  18.506  29.984   7.064
 4889POPC   C4B62398  18.568  29.950   7.364
 4890POPC   NC362399   9.004  29.904   5.564
 4890POPC   PO462400   9.003  29.885   5.864
 4890POPC   GL162401   8.979  29.881   6.164
 4890POPC   GL262402   8.996  29.842   6.164
 4890POPC   C1A62403   8.930  29.918   6.464
 4890POPC   D2A62404   8.978  29.939   6.764
 4890POPC   C3A62405   9.020  29.929   7.064
 4890POPC   C4A62406   8.961  29.881   7.364
 4890POPC   C1B62407   9.053  29.741   6.464
 4890POPC   C2B62408   9.046  29.723   6.764
 4890POPC   C3B62409   9.040  29.662   7.064
 4890POPC   C4B62410   9.101  29.691   7.364
 4891POPC   NC362411  18.328   3.510   5.564
 4891POPC   PO462412  18.245   3.563   5.864
 4891POPC   GL162413  18.265   3.585   6.164
 4891POPC   GL262414  18.305   3.398   6.164
 4891POPC   C1A62415  18.238   3.533   6.464
 4891POPC   D2A62416  18.253   3.582   6.764
 4891POPC   C3A62417  18.268   3.499   7.064
 4891POPC   C4A62418  18.313   3.580   7.364
 4891POPC   C1B62419  18.268   3.289   6.464
 4891POPC   C2B62420  18.220   3.327   6.764
 4891POPC   C3B62421  18.294   3.331   7.064
 4891POPC   C4B62422  18.270   3.283   7.364
 4892POPC   NC362423  39.963  25.283   5.564
 4892POPC   PO462424  39.992  25.294   5.864
 4892POPC   GL162425  40.018  25.311   6.164
 4892POPC   GL262426  39.901  25.187   6.164
 4892POPC   C1A62427  40.017  25.245   6.464
 4892POPC   D2A62428  39.999  25.235   6.764
 4892POPC   C3A62429  40.016  25.292   7.064
 4892POPC   C4A62430  39.973  25.252   7.364
 4892POPC   C1B62431  39.823  25.095   6.464
 4892POPC   C2B62432  39.813  25.117   6.764
 4892POPC   C3B62433  39.819  25.032   7.064
 4892POPC   C4B62434  39.816  25.026   7.364
 4893POPC   NC362435  40.812   0.486   5.564
 4893POPC   PO462436  40.802   0.403   5.864
 4893POPC   GL162437  40.745   0.419   6.164
 4893POPC   GL262438  40.923   0.450   6.164
 4893POPC   C1A62439  40.810   0.450   6.464
 4893POPC   D2A62440  40.756   0.456   6.764
 4893POPC   C3A62441  40.775   0.442   7.064
 4893POPC   C4A62442  40.791   0.481   7.364
 4893POPC   C1B62443  41.063   0.438   6.464
 4893POPC   C2B62444  41.048   0.417   6.764
 4893POPC   C3B62445  41.055   0.446   7.064
 4893POPC   C4B62446  41.052   0.439   7.364
 4894POPC   NC362447  33.009  43.151   5.564
 4894POPC   PO462448  33.013  43.138   5.864
 4894POPC   GL162449  33.012  43.098   6.164
 4894POPC   GL262450  32.901  43.177   6.164
 4894POPC   C1A62451  32.995  43.149   6.464
 4894POPC   D2A62452  33.059  43.090   6.764
 4894POPC   C3A62453  33.014  43.064   7.064
 4894POPC   C4A62454  33.017  43.117   7.364
 4894POPC   C1B62455  32.793  43.151   6.464
 4894POPC   C2B62456  32.826  43.147   6.764
 4894POPC   C3B62457  32.825  43.218   7.064
 4894POPC   C4B62458  32.805  43.194   7.364
 4895POPC   NC362459  10.568  15.149   5.564
 4895POPC   PO462460  10.553  15.143   5.864
 4895POPC   GL162461  10.515  15.158   6.164
 4895POPC   GL262462  10.587  15.320   6.164
 4895POPC   C1A62463  10.479  15.192   6.464
 4895POPC   D2A62464  10.517  15.202   6.764
 4895POPC   C3A62465  10.490  15.213   7.064
 4895POPC   C4A62466  10.561  15.214   7.364
 4895POPC   C1B62467  10.614  15.382   6.464
 4895POPC   C2B62468  10.577  15.390   6.764
 4895POPC   C3B62469  10.580  15.431   7.064
 4895POPC   C4B62470  10.610  15.411   7.364
 4896POPC   NC362471  23.686   2.740   5.564
 4896POPC   PO462472  23.755   2.800   5.864
 4896POPC   GL162473  23.707   2.765   6.164
 4896POPC   GL262474  23.650   2.681   6.164
 4896POPC   C1A62475  23.737   2.784   6.464
 4896POPC   D2A62476  23.718   2.772   6.764
 4896POPC   C3A62477  23.687   2.778   7.064
 4896POPC   C4A62478  23.749   2.789   7.364
 4896POPC   C1B62479  23.625   2.503   6.464
 4896POPC   C2B62480  23.614   2.563   6.764
 4896POPC   C3B62481  23.606   2.572   7.064
 4896POPC   C4B62482  23.595   2.562   7.364
 4897POPC   NC362483   7.419  36.903   5.564
 4897POPC   PO462484   7.374  36.919   5.864
 4897POPC   GL162485   7.382  36.907   6.164
 4897POPC   GL262486   7.424  36.827   6.164
 4897POPC   C1A62487   7.384  36.908   6.464
 4897POPC   D2A62488   7.406  36.874   6.764
 4897POPC   C3A62489   7.402  36.915   7.064
 4897POPC   C4A62490   7.385  36.924   7.364
 4897POPC   C1B62491   7.505  36.633   6.464
 4897POPC   C2B62492   7.485  36.639   6.764
 4897POPC   C3B62493   7.525  36.641   7.064
 4897POPC   C4B62494   7.443  36.615   7.364
 4898POPC   NC362495  42.377  32.231   5.564
 4898POPC   PO462496  42.301  32.237   5.864
 4898POPC   GL162497  42.372  32.224   6.164
 4898POPC   GL262498  42.488  32.368   6.164
 4898POPC   C1A62499  42.342  32.211   6.464
 4898POPC   D2A62500  42.354  32.259   6.764
 4898POPC   C3A62501  42.332  32.260   7.064
 4898POPC   C4A62502  42.296  32.246   7.364
 4898POPC   C1B62503  42.577  32.368   6.464
 4898POPC   C2B62504  42.492  32.414   6.764
 4898POPC   C3B62505  42.499  32.406   7.064
 4898POPC   C4B62506  42.531  32.407   7.364
 4899POPC   NC362507  33.000  30.648   5.564
 4899POPC   PO462508  33.046  30.713   5.864
 4899POPC   GL162509  33.009  30.650   6.164
 4899POPC   GL262510  32.934  30.823   6.164
 4899POPC   C1A62511  32.997  30.671   6.464
 4899POPC   D2A62512  33.035  30.698   6.764
 4899POPC   C3A62513  33.049  30.682   7.064
 4899POPC   C4A62514  33.054  30.649   7.364
 4899POPC   C1B62515  32.813  30.891   6.464
 4899POPC   C2B62516  32.813  30.875   6.764
 4899POPC   C3B62517  32.870  30.838   7.064
 4899POPC   C4B62518  32.880  30.846   7.364
 4900POPC   NC362519  41.592  15.141   5.564
 4900POPC   PO462520  41.569  15.181   5.864
 4900POPC   GL162521  41.563  15.152   6.164
 4900POPC   GL262522  41.642  15.049   6.164
 4900POPC   C1A62523  41.606  15.193   6.464
 4900POPC   D2A62524  41.597  15.201   6.764
 4900POPC   C3A62525  41.519  15.181   7.064
 4900POPC   C4A62526  41.541  15.142   7.364
 4900POPC   C1B62527  41.770  14.969   6.464
 4900POPC   C2B62528  41.694  14.988   6.764
 4900POPC   C3B62529  41.706  14.963   7.064
 4900POPC   C4B62530  41.709  14.975   7.364
 4901POPC   NC362531  23.688  35.371   5.564
 4901POPC   PO462532  23.760  35.373   5.864
 4901POPC   GL162533  23.677  35.359   6.164
 4901POPC   GL262534  23.615  35.415   6.164
 4901POPC   C1A62535  23.700  35.385   6.464
 4901POPC   D2A62536  23.694  35.315   6.764
 4901POPC   C3A62537  23.671  35.395   7.064
 4901POPC   C4A62538  23.683  35.398   7.364
 4901POPC   C1B62539  23.554  35.617   6.464
 4901POPC   C2B62540  23.644  35.616   6.764
 4901POPC   C3B62541  23.577  35.527   7.064
 4901POPC   C4B62542  23.589  35.536   7.364
 4902POPC   NC362543  13.580   8.196   5.564
 4902POPC   PO462544  13.589   8.200   5.864
 4902POPC   GL162545  13.628   8.158   6.164
 4902POPC   GL262546  13.660   8.070   6.164
 4902POPC   C1A62547  13.630   8.242   6.464
 4902POPC   D2A62548  13.604   8.182   6.764
 4902POPC   C3A62549  13.660   8.228   7.064
 4902POPC   C4A62550  13.645   8.180   7.364
 4902POPC   C1B62551  13.691   7.958   6.464
 4902POPC   C2B62552  13.732   7.971   6.764
 4902POPC   C3B62553  13.747   7.992   7.064
 4902POPC   C4B62554  13.762   7.961   7.364
 4903POPC   NC362555  39.183  35.349   5.564
 4903POPC   PO462556  39.268  35.313   5.864
 4903POPC   GL162557  39.182  35.393   6.164
 4903POPC   GL262558  39.182  35.274   6.164
 4903POPC   C1A62559  39.200  35.400   6.464
 4903POPC   D2A62560  39.210  35.379   6.764
 4903POPC   C3A62561  39.218  35.338   7.064
 4903POPC   C4A62562  39.226  35.309   7.364
 4903POPC   C1B62563  39.105  35.179   6.464
 4903POPC   C2B62564  39.068  35.196   6.764
 4903POPC   C3B62565  39.118  35.191   7.064
 4903POPC   C4B62566  39.050  35.176   7.364
 4904POPC   NC362567  34.561   4.323   5.564
 4904POPC   PO462568  34.620   4.350   5.864
 4904POPC   GL162569  34.570   4.363   6.164
 4904POPC   GL262570  34.478   4.268   6.164
 4904POPC   C1A62571  34.582   4.286   6.464
 4904POPC   D2A62572  34.541   4.289   6.764
 4904POPC   C3A62573  34.543   4.363   7.064
 4904POPC   C4A62574  34.621   4.281   7.364
 4904POPC   C1B62575  34.313   4.356   6.464
 4904POPC   C2B62576  34.349   4.280   6.764
 4904POPC   C3B62577  34.337   4.328   7.064
 4904POPC   C4B62578  34.367   4.314   7.364
 4905POPC   NC362579  19.808  19.806   5.564
 4905POPC   PO462580  19.865  19.843   5.864
 4905POPC   GL162581  19.841  19.860   6.164
 4905POPC   GL262582  19.916  19.779   6.164
 4905POPC   C1A62583  19.794  19.834   6.464
 4905POPC   D2A62584  19.823  19.869   6.764
 4905POPC   C3A62585  19.857  19.796   7.064
 4905POPC   C4A62586  19.806  19.844   7.364
 4905POPC   C1B62587  20.030  19.689   6.464
 4905POPC   C2B62588  20.082  19.713   6.764
 4905POPC   C3B62589  20.042  19.779   7.064
 4905POPC   C4B62590  20.100  19.692   7.364
 4906POPC   NC362591   8.216   3.561   5.564
 4906POPC   PO462592   8.183   3.590   5.864
 4906POPC   GL162593   8.239   3.534   6.164
 4906POPC   GL262594   8.111   3.490   6.164
 4906POPC   C1A62595   8.179   3.582   6.464
 4906POPC   D2A62596   8.242   3.581   6.764
 4906POPC   C3A62597   8.150   3.574   7.064
 4906POPC   C4A62598   8.237   3.545   7.364
 4906POPC   C1B62599   7.994   3.486   6.464
 4906POPC   C2B62600   7.982   3.508   6.764
 4906POPC   C3B62601   7.901   3.486   7.064
 4906POPC   C4B62602   7.911   3.486   7.364
 4907POPC   NC362603   0.390   4.330   5.564
 4907POPC   PO462604   0.476   4.342   5.864
 4907POPC   GL162605   0.459   4.326   6.164
 4907POPC   GL262606   0.548   4.264   6.164
 4907POPC   C1A62607   0.394   4.283   6.464
 4907POPC   D2A62608   0.417   4.277   6.764
 4907POPC   C3A62609   0.475   4.349   7.064
 4907POPC   C4A62610   0.426   4.268   7.364
 4907POPC   C1B62611   0.669   4.323   6.464
 4907POPC   C2B62612   0.731   4.302   6.764
 4907POPC   C3B62613   0.671   4.301   7.064
 4907POPC   C4B62614   0.685   4.256   7.364
 4908POPC   NC362615  37.642  17.503   5.564
 4908POPC   PO462616  37.677  17.541   5.864
 4908POPC   GL162617  37.636  17.465   6.164
 4908POPC   GL262618  37.544  17.551   6.164
 4908POPC   C1A62619  37.726  17.462   6.464
 4908POPC   D2A62620  37.713  17.466   6.764
 4908POPC   C3A62621  37.668  17.507   7.064
 4908POPC   C4A62622  37.725  17.488   7.364
 4908POPC   C1B62623  37.555  17.704   6.464
 4908POPC   C2B62624  37.530  17.686   6.764
 4908POPC   C3B62625  37.495  17.718   7.064
 4908POPC   C4B62626  37.496  17.704   7.364
 4909POPC   NC362627  21.367  39.976   5.564
 4909POPC   PO462628  21.380  40.018   5.864
 4909POPC   GL162629  21.398  39.970   6.164
 4909POPC   GL262630  21.311  39.890   6.164
 4909POPC   C1A62631  21.400  40.020   6.464
 4909POPC   D2A62632  21.432  39.978   6.764
 4909POPC   C3A62633  21.434  40.000   7.064
 4909POPC   C4A62634  21.397  40.024   7.364
 4909POPC   C1B62635  21.205  39.814   6.464
 4909POPC   C2B62636  21.250  39.850   6.764
 4909POPC   C3B62637  21.179  39.815   7.064
 4909POPC   C4B62638  21.201  39.798   7.364
 4910POPC   NC362639  36.924  35.338   5.564
 4910POPC   PO462640  36.874  35.348   5.864
 4910POPC   GL162641  36.931  35.380   6.164
 4910POPC   GL262642  36.838  35.418   6.164
 4910POPC   C1A62643  36.859  35.372   6.464
 4910POPC   D2A62644  36.860  35.313   6.764
 4910POPC   C3A62645  36.935  35.386   7.064
 4910POPC   C4A62646  36.940  35.365   7.364
 4910POPC   C1B62647  36.845  35.586   6.464
 4910POPC   C2B62648  36.749  35.556   6.764
 4910POPC   C3B62649  36.812  35.537   7.064
 4910POPC   C4B62650  36.803  35.610   7.364
 4911POPC   NC362651  29.191  27.545   5.564
 4911POPC   PO462652  29.098  27.635   5.864
 4911POPC   GL162653  29.118  27.614   6.164
 4911POPC   GL262654  29.021  27.683   6.164
 4911POPC   C1A62655  29.139  27.552   6.464
 4911POPC   D2A62656  29.159  27.627   6.764
 4911POPC   C3A62657  29.169  27.545   7.064
 4911POPC   C4A62658  29.179  27.635   7.364
 4911POPC   C1B62659  28.935  27.785   6.464
 4911POPC   C2B62660  28.936  27.708   6.764
 4911POPC   C3B62661  28.915  27.772   7.064
 4911POPC   C4B62662  28.901  27.721   7.364
 4912POPC   NC362663  12.107  33.027   5.564
 4912POPC   PO462664  12.031  32.999   5.864
 4912POPC   GL162665  12.060  33.025   6.164
 4912POPC   GL262666  11.963  33.089   6.164
 4912POPC   C1A62667  12.095  33.001   6.464
 4912POPC   D2A62668  12.106  33.046   6.764
 4912POPC   C3A62669  12.043  32.977   7.064
 4912POPC   C4A62670  12.108  32.988   7.364
 4912POPC   C1B62671  11.898  33.153   6.464
 4912POPC   C2B62672  11.852  33.156   6.764
 4912POPC   C3B62673  11.855  33.179   7.064
 4912POPC   C4B62674  11.872  33.184   7.364
 4913POPC   NC362675  11.347  41.514   5.564
 4913POPC   PO462676  11.277  41.541   5.864
 4913POPC   GL162677  11.337  41.515   6.164
 4913POPC   GL262678  11.377  41.644   6.164
 4913POPC   C1A62679  11.344  41.569   6.464
 4913POPC   D2A62680  11.335  41.521   6.764
 4913POPC   C3A62681  11.253  41.593   7.064
 4913POPC   C4A62682  11.329  41.530   7.364
 4913POPC   C1B62683  11.527  41.780   6.464
 4913POPC   C2B62684  11.459  41.741   6.764
 4913POPC   C3B62685  11.483  41.707   7.064
 4913POPC   C4B62686  11.442  41.765   7.364
 4914POPC   NC362687  15.936  16.777   5.564
 4914POPC   PO462688  15.956  16.757   5.864
 4914POPC   GL162689  16.002  16.748   6.164
 4914POPC   GL262690  15.944  16.567   6.164
 4914POPC   C1A62691  15.905  16.769   6.464
 4914POPC   D2A62692  15.925  16.717   6.764
 4914POPC   C3A62693  15.948  16.737   7.064
 4914POPC   C4A62694  15.959  16.750   7.364
 4914POPC   C1B62695  15.912  16.496   6.464
 4914POPC   C2B62696  15.840  16.512   6.764
 4914POPC   C3B62697  15.879  16.441   7.064
 4914POPC   C4B62698  15.904  16.497   7.364
 4915POPC   NC362699  30.672  29.161   5.564
 4915POPC   PO462700  30.661  29.155   5.864
 4915POPC   GL162701  30.699  29.163   6.164
 4915POPC   GL262702  30.648  29.273   6.164
 4915POPC   C1A62703  30.678  29.127   6.464
 4915POPC   D2A62704  30.720  29.162   6.764
 4915POPC   C3A62705  30.689  29.129   7.064
 4915POPC   C4A62706  30.683  29.166   7.364
 4915POPC   C1B62707  30.514  29.359   6.464
 4915POPC   C2B62708  30.512  29.366   6.764
 4915POPC   C3B62709  30.566  29.287   7.064
 4915POPC   C4B62710  30.471  29.318   7.364
 4916POPC   NC362711  20.589  43.140   5.564
 4916POPC   PO462712  20.624  43.071   5.864
 4916POPC   GL162713  20.598  43.093   6.164
 4916POPC   GL262714  20.677  43.190   6.164
 4916POPC   C1A62715  20.628  43.100   6.464
 4916POPC   D2A62716  20.584  43.134   6.764
 4916POPC   C3A62717  20.587  43.099   7.064
 4916POPC   C4A62718  20.610  43.079   7.364
 4916POPC   C1B62719  20.694  43.298   6.464
 4916POPC   C2B62720  20.749  43.338   6.764
 4916POPC   C3B62721  20.705  43.360   7.064
 4916POPC   C4B62722  20.690  43.373   7.364
 4917POPC   NC362723  12.882  14.373   5.564
 4917POPC   PO462724  12.848  14.410   5.864
 4917POPC   GL162725  12.821  14.433   6.164
 4917POPC   GL262726  13.018  14.410   6.164
 4917POPC   C1A62727  12.821  14.410   6.464
 4917POPC   D2A62728  12.861  14.357   6.764
 4917POPC   C3A62729  12.868  14.449   7.064
 4917POPC   C4A62730  12.883  14.372   7.364
 4917POPC   C1B62731  13.045  14.350   6.464
 4917POPC   C2B62732  13.134  14.314   6.764
 4917POPC   C3B62733  13.041  14.276   7.064
 4917POPC   C4B62734  13.052  14.330   7.364
 4918POPC   NC362735   3.561  27.629   5.564
 4918POPC   PO462736   3.591  27.609   5.864
 4918POPC   GL162737   3.510  27.553   6.164
 4918POPC   GL262738   3.421  27.639   6.164
 4918POPC   C1A62739   3.503  27.556   6.464
 4918POPC   D2A62740   3.562  27.550   6.764
 4918POPC   C3A62741   3.546  27.619   7.064
 4918POPC   C4A62742   3.534  27.588   7.364
 4918POPC   C1B62743   3.388  27.782   6.464
 4918POPC   C2B62744   3.360  27.781   6.764
 4918POPC   C3B62745   3.312  27.769   7.064
 4918POPC   C4B62746   3.354  27.725   7.364
 4919POPC   NC362747  36.932  43.851   5.564
 4919POPC   PO462748  36.917  43.905   5.864
 4919POPC   GL162749  36.925  43.918   6.164
 4919POPC   GL262750  36.947  44.022   6.164
 4919POPC   C1A62751  36.934  43.888   6.464
 4919POPC   D2A62752  36.929  43.904   6.764
 4919POPC   C3A62753  36.901  43.870   7.064
 4919POPC   C4A62754  36.868  43.911   7.364
 4919POPC   C1B62755  37.108  44.015   6.464
 4919POPC   C2B62756  37.047  44.056   6.764
 4919POPC   C3B62757  37.083  44.061   7.064
 4919POPC   C4B62758  37.108  44.090   7.364
 4920POPC   NC362759  27.568   5.884   5.564
 4920POPC   PO462760  27.547   5.820   5.864
 4920POPC   GL162761  27.629   5.882   6.164
 4920POPC   GL262762  27.590   5.749   6.164
 4920POPC   C1A62763  27.566   5.857   6.464
 4920POPC   D2A62764  27.552   5.845   6.764
 4920POPC   C3A62765  27.625   5.837   7.064
 4920POPC   C4A62766  27.608   5.854   7.364
 4920POPC   C1B62767  27.458   5.601   6.464
 4920POPC   C2B62768  27.482   5.599   6.764
 4920POPC   C3B62769  27.527   5.686   7.064
 4920POPC   C4B62770  27.485   5.622   7.364
 4921POPC   NC362771  26.054  35.328   5.564
 4921POPC   PO462772  26.029  35.394   5.864
 4921POPC   GL162773  26.023  35.306   6.164
 4921POPC   GL262774  25.996  35.267   6.164
 4921POPC   C1A62775  26.070  35.392   6.464
 4921POPC   D2A62776  26.000  35.325   6.764
 4921POPC   C3A62777  26.076  35.389   7.064
 4921POPC   C4A62778  25.995  35.368   7.364
 4921POPC   C1B62779  25.986  35.110   6.464
 4921POPC   C2B62780  25.901  35.149   6.764
 4921POPC   C3B62781  25.924  35.121   7.064
 4921POPC   C4B62782  25.918  35.154   7.364
 4922POPC   NC362783  43.894  20.643   5.564
 4922POPC   PO462784  43.880  20.614   5.864
 4922POPC   GL162785  43.893  20.599   6.164
 4922POPC   GL262786  44.017  20.639   6.164
 4922POPC   C1A62787  43.924  20.657   6.464
 4922POPC   D2A62788  43.858  20.637   6.764
 4922POPC   C3A62789  43.873  20.620   7.064
 4922POPC   C4A62790  43.903  20.603   7.364
 4922POPC   C1B62791  44.105  20.718   6.464
 4922POPC   C2B62792  44.171  20.686   6.764
 4922POPC   C3B62793  44.163  20.721   7.064
 4922POPC   C4B62794  44.115  20.659   7.364
 4923POPC   NC362795  29.190  36.884   5.564
 4923POPC   PO462796  29.151  36.907   5.864
 4923POPC   GL162797  29.103  36.947   6.164
 4923POPC   GL262798  29.191  36.746   6.164
 4923POPC   C1A62799  29.153  36.910   6.464
 4923POPC   D2A62800  29.123  36.888   6.764
 4923POPC   C3A62801  29.125  36.881   7.064
 4923POPC   C4A62802  29.178  36.910   7.364
 4923POPC   C1B62803  29.210  36.616   6.464
 4923POPC   C2B62804  29.210  36.632   6.764
 4923POPC   C3B62805  29.249  36.631   7.064
 4923POPC   C4B62806  29.240  36.656   7.364
 4924POPC   NC362807  43.122  16.692   5.564
 4924POPC   PO462808  43.086  16.729   5.864
 4924POPC   GL162809  43.107  16.697   6.164
 4924POPC   GL262810  43.259  16.747   6.164
 4924POPC   C1A62811  43.094  16.749   6.464
 4924POPC   D2A62812  43.138  16.767   6.764
 4924POPC   C3A62813  43.109  16.737   7.064
 4924POPC   C4A62814  43.140  16.710   7.364
 4924POPC   C1B62815  43.334  16.814   6.464
 4924POPC   C2B62816  43.345  16.874   6.764
 4924POPC   C3B62817  43.312  16.792   7.064
 4924POPC   C4B62818  43.350  16.854   7.364
 4925POPC   NC362819   2.815  22.187   5.564
 4925POPC   PO462820   2.795  22.118   5.864
 4925POPC   GL162821   2.752  22.209   6.164
 4925POPC   GL262822   2.876  22.071   6.164
 4925POPC   C1A62823   2.783  22.174   6.464
 4925POPC   D2A62824   2.800  22.159   6.764
 4925POPC   C3A62825   2.804  22.190   7.064
 4925POPC   C4A62826   2.730  22.156   7.364
 4925POPC   C1B62827   2.961  21.975   6.464
 4925POPC   C2B62828   2.939  22.047   6.764
 4925POPC   C3B62829   3.018  21.976   7.064
 4925POPC   C4B62830   2.971  21.974   7.364
 4926POPC   NC362831  44.626  36.887   5.564
 4926POPC   PO462832  44.622  36.892   5.864
 4926POPC   GL162833  44.700  36.854   6.164
 4926POPC   GL262834  44.807  36.941   6.164
 4926POPC   C1A62835  44.692  36.938   6.464
 4926POPC   D2A62836  44.645  36.878   6.764
 4926POPC   C3A62837  44.704  36.913   7.064
 4926POPC   C4A62838  44.627  36.936   7.364
 4926POPC   C1B62839  44.863  36.891   6.464
 4926POPC   C2B62840  44.883  36.903   6.764
 4926POPC   C3B62841  44.865  36.938   7.064
 4926POPC   C4B62842  44.869  36.968   7.364
 4927POPC   NC362843  15.169  35.332   5.564
 4927POPC   PO462844  15.143  35.338   5.864
 4927POPC   GL162845  15.143  35.396   6.164
 4927POPC   GL262846  15.073  35.305   6.164
 4927POPC   C1A62847  15.163  35.369   6.464
 4927POPC   D2A62848  15.143  35.331   6.764
 4927POPC   C3A62849  15.208  35.303   7.064
 4927POPC   C4A62850  15.131  35.349   7.364
 4927POPC   C1B62851  14.962  35.132   6.464
 4927POPC   C2B62852  15.048  35.144   6.764
 4927POPC   C3B62853  14.985  35.165   7.064
 4927POPC   C4B62854  14.982  35.154   7.364
 4928POPC   NC362855  13.613   5.120   5.564
 4928POPC   PO462856  13.606   5.131   5.864
 4928POPC   GL162857  13.606   5.100   6.164
 4928POPC   GL262858  13.616   4.973   6.164
 4928POPC   C1A62859  13.592   5.071   6.464
 4928POPC   D2A62860  13.629   5.082   6.764
 4928POPC   C3A62861  13.660   5.118   7.064
 4928POPC   C4A62862  13.668   5.048   7.364
 4928POPC   C1B62863  13.536   4.885   6.464
 4928POPC   C2B62864  13.559   4.828   6.764
 4928POPC   C3B62865  13.507   4.844   7.064
 4928POPC   C4B62866  13.523   4.900   7.364
 4929POPC   NC362867  22.121  35.377   5.564
 4929POPC   PO462868  22.167  35.363   5.864
 4929POPC   GL162869  22.159  35.309   6.164
 4929POPC   GL262870  22.079  35.352   6.164
 4929POPC   C1A62871  22.124  35.338   6.464
 4929POPC   D2A62872  22.144  35.375   6.764
 4929POPC   C3A62873  22.148  35.386   7.064
 4929POPC   C4A62874  22.143  35.304   7.364
 4929POPC   C1B62875  21.929  35.444   6.464
 4929POPC   C2B62876  21.961  35.397   6.764
 4929POPC   C3B62877  21.882  35.419   7.064
 4929POPC   C4B62878  21.915  35.401   7.364
 4930POPC   NC362879   4.331  43.103   5.564
 4930POPC   PO462880   4.307  43.130   5.864
 4930POPC   GL162881   4.268  43.064   6.164
 4930POPC   GL262882   4.360  43.264   6.164
 4930POPC   C1A62883   4.313  43.154   6.464
 4930POPC   D2A62884   4.341  43.155   6.764
 4930POPC   C3A62885   4.317  43.100   7.064
 4930POPC   C4A62886   4.288  43.074   7.364
 4930POPC   C1B62887   4.440  43.347   6.464
 4930POPC   C2B62888   4.409  43.329   6.764
 4930POPC   C3B62889   4.404  43.297   7.064
 4930POPC   C4B62890   4.486  43.334   7.364
 4931POPC   NC362891  18.299  26.786   5.564
 4931POPC   PO462892  18.290  26.863   5.864
 4931POPC   GL162893  18.329  26.840   6.164
 4931POPC   GL262894  18.376  26.963   6.164
 4931POPC   C1A62895  18.331  26.809   6.464
 4931POPC   D2A62896  18.236  26.819   6.764
 4931POPC   C3A62897  18.297  26.787   7.064
 4931POPC   C4A62898  18.240  26.842   7.364
 4931POPC   C1B62899  18.461  27.004   6.464
 4931POPC   C2B62900  18.449  26.978   6.764
 4931POPC   C3B62901  18.443  27.041   7.064
 4931POPC   C4B62902  18.471  26.994   7.364
 4932POPC   NC362903   1.241  30.665   5.564
 4932POPC   PO462904   1.212  30.653   5.864
 4932POPC   GL162905   1.257  30.724   6.164
 4932POPC   GL262906   1.318  30.701   6.164
 4932POPC   C1A62907   1.238  30.730   6.464
 4932POPC   D2A62908   1.172  30.657   6.764
 4932POPC   C3A62909   1.260  30.729   7.064
 4932POPC   C4A62910   1.178  30.648   7.364
 4932POPC   C1B62911   1.478  30.757   6.464
 4932POPC   C2B62912   1.459  30.791   6.764
 4932POPC   C3B62913   1.467  30.745   7.064
 4932POPC   C4B62914   1.504  30.734   7.364
 4933POPC   NC362915  12.050   9.724   5.564
 4933POPC   PO462916  12.080   9.781   5.864
 4933POPC   GL162917  12.058   9.793   6.164
 4933POPC   GL262918  12.091   9.834   6.164
 4933POPC   C1A62919  12.068   9.702   6.464
 4933POPC   D2A62920  12.075   9.767   6.764
 4933POPC   C3A62921  12.045   9.709   7.064
 4933POPC   C4A62922  12.039   9.788   7.364
 4933POPC   C1B62923  12.119  10.016   6.464
 4933POPC   C2B62924  12.109   9.943   6.764
 4933POPC   C3B62925  12.144  10.033   7.064
 4933POPC   C4B62926  12.092   9.975   7.364
 4934POPC   NC362927  35.324  33.844   5.564
 4934POPC   PO462928  35.390  33.808   5.864
 4934POPC   GL162929  35.320  33.815   6.164
 4934POPC   GL262930  35.431  33.743   6.164
 4934POPC   C1A62931  35.314  33.829   6.464
 4934POPC   D2A62932  35.362  33.780   6.764
 4934POPC   C3A62933  35.382  33.773   7.064
 4934POPC   C4A62934  35.390  33.812   7.364
 4934POPC   C1B62935  35.623  33.699   6.464
 4934POPC   C2B62936  35.544  33.684   6.764
 4934POPC   C3B62937  35.636  33.765   7.064
 4934POPC   C4B62938  35.556  33.730   7.364
 4935POPC   NC362939  27.610  12.848   5.564
 4935POPC   PO462940  27.617  12.838   5.864
 4935POPC   GL162941  27.572  12.889   6.164
 4935POPC   GL262942  27.529  12.890   6.164
 4935POPC   C1A62943  27.544  12.853   6.464
 4935POPC   D2A62944  27.549  12.871   6.764
 4935POPC   C3A62945  27.631  12.807   7.064
 4935POPC   C4A62946  27.603  12.838   7.364
 4935POPC   C1B62947  27.379  13.009   6.464
 4935POPC   C2B62948  27.437  12.963   6.764
 4935POPC   C3B62949  27.387  12.950   7.064
 4935POPC   C4B62950  27.379  12.995   7.364
 4936POPC   NC362951   8.200  40.745   5.564
 4936POPC   PO462952   8.244  40.815   5.864
 4936POPC   GL162953   8.169  40.812   6.164
 4936POPC   GL262954   8.110  40.685   6.164
 4936POPC   C1A62955   8.222  40.800   6.464
 4936POPC   D2A62956   8.194  40.808   6.764
 4936POPC   C3A62957   8.202  40.788   7.064
 4936POPC   C4A62958   8.187  40.800   7.364
 4936POPC   C1B62959   8.021  40.653   6.464
 4936POPC   C2B62960   8.005  40.630   6.764
 4936POPC   C3B62961   7.981  40.567   7.064
 4936POPC   C4B62962   7.983  40.642   7.364
 4937POPC   NC362963   4.334  19.045   5.564
 4937POPC   PO462964   4.279  19.081   5.864
 4937POPC   GL162965   4.361  19.056   6.164
 4937POPC   GL262966   4.325  19.180   6.164
 4937POPC   C1A62967   4.336  19.087   6.464
 4937POPC   D2A62968   4.315  19.108   6.764
 4937POPC   C3A62969   4.273  19.071   7.064
 4937POPC   C4A62970   4.325  19.088   7.364
 4937POPC   C1B62971   4.373  19.321   6.464
 4937POPC   C2B62972   4.351  19.290   6.764
 4937POPC   C3B62973   4.374  19.305   7.064
 4937POPC   C4B62974   4.373  19.253   7.364
 4938POPC   NC362975   9.004  36.090   5.564
 4938POPC   PO462976   8.975  36.145   5.864
 4938POPC   GL162977   8.930  36.109   6.164
 4938POPC   GL262978   9.114  36.121   6.164
 4938POPC   C1A62979   8.982  36.113   6.464
 4938POPC   D2A62980   8.956  36.108   6.764
 4938POPC   C3A62981   8.972  36.149   7.064
 4938POPC   C4A62982   8.968  36.131   7.364
 4938POPC   C1B62983   9.177  36.053   6.464
 4938POPC   C2B62984   9.231  36.038   6.764
 4938POPC   C3B62985   9.187  36.071   7.064
 4938POPC   C4B62986   9.257  36.075   7.364
 4939POPC   NC362987  38.442  27.636   5.564
 4939POPC   PO462988  38.501  27.606   5.864
 4939POPC   GL162989  38.427  27.544   6.164
 4939POPC   GL262990  38.607  27.571   6.164
 4939POPC   C1A62991  38.503  27.578   6.464
 4939POPC   D2A62992  38.489  27.561   6.764
 4939POPC   C3A62993  38.435  27.552   7.064
 4939POPC   C4A62994  38.478  27.627   7.364
 4939POPC   C1B62995  38.664  27.531   6.464
 4939POPC   C2B62996  38.663  27.498   6.764
 4939POPC   C3B62997  38.692  27.507   7.064
 4939POPC   C4B62998  38.729  27.527   7.364
 4940POPC   NC362999   2.768   9.017   5.564
 4940POPC   PO463000   2.756   8.947   5.864
 4940POPC   GL163001   2.765   8.961   6.164
 4940POPC   GL263002   2.815   8.880   6.164
 4940POPC   C1A63003   2.763   8.929   6.464
 4940POPC   D2A63004   2.803   8.981   6.764
 4940POPC   C3A63005   2.719   9.018   7.064
 4940POPC   C4A63006   2.737   9.008   7.364
 4940POPC   C1B63007   2.891   8.819   6.464
 4940POPC   C2B63008   2.903   8.779   6.764
 4940POPC   C3B63009   2.965   8.792   7.064
 4940POPC   C4B63010   2.899   8.801   7.364
 4941POPC   NC363011  12.069  44.647   5.564
 4941POPC   PO463012  12.078  44.633   5.864
 4941POPC   GL163013  12.027  44.658   6.164
 4941POPC   GL263014  12.161  44.542   6.164
 4941POPC   C1A63015  12.060  44.646   6.464
 4941POPC   D2A63016  12.089  44.684   6.764
 4941POPC   C3A63017  12.051  44.664   7.064
 4941POPC   C4A63018  12.125  44.698   7.364
 4941POPC   C1B63019  12.274  44.533   6.464
 4941POPC   C2B63020  12.250  44.557   6.764
 4941POPC   C3B63021  12.228  44.502   7.064
 4941POPC   C4B63022  12.294  44.487   7.364
 4942POPC   NC363023   1.192  39.212   5.564
 4942POPC   PO463024   1.176  39.204   5.864
 4942POPC   GL163025   1.243  39.234   6.164
 4942POPC   GL263026   1.156  39.108   6.164
 4942POPC   C1A63027   1.167  39.251   6.464
 4942POPC   D2A63028   1.234  39.260   6.764
 4942POPC   C3A63029   1.242  39.253   7.064
 4942POPC   C4A63030   1.176  39.181   7.364
 4942POPC   C1B63031   1.191  38.989   6.464
 4942POPC   C2B63032   1.204  38.976   6.764
 4942POPC   C3B63033   1.236  39.018   7.064
 4942POPC   C4B63034   1.198  38.953   7.364
 4943POPC   NC363035  43.893  27.583   5.564
 4943POPC   PO463036  43.891  27.559   5.864
 4943POPC   GL163037  43.924  27.633   6.164
 4943POPC   GL263038  43.860  27.486   6.164
 4943POPC   C1A63039  43.869  27.553   6.464
 4943POPC   D2A63040  43.838  27.600   6.764
 4943POPC   C3A63041  43.929  27.560   7.064
 4943POPC   C4A63042  43.849  27.621   7.364
 4943POPC   C1B63043  43.818  27.361   6.464
 4943POPC   C2B63044  43.851  27.329   6.764
 4943POPC   C3B63045  43.894  27.321   7.064
 4943POPC   C4B63046  43.834  27.314   7.364
 4944POPC   NC363047  15.964   5.139   5.564
 4944POPC   PO463048  15.949   5.111   5.864
 4944POPC   GL163049  15.909   5.100   6.164
 4944POPC   GL263050  16.067   5.169   6.164
 4944POPC   C1A63051  15.909   5.043   6.464
 4944POPC   D2A63052  15.916   5.045   6.764
 4944POPC   C3A63053  15.916   5.128   7.064
 4944POPC   C4A63054  15.935   5.096   7.364
 4944POPC   C1B63055  16.165   5.236   6.464
 4944POPC   C2B63056  16.202   5.198   6.764
 4944POPC   C3B63057  16.188   5.175   7.064
 4944POPC   C4B63058  16.161   5.215   7.364
 4945POPC   NC363059  12.119  17.478   5.564
 4945POPC   PO463060  12.041  17.464   5.864
 4945POPC   GL163061  12.091  17.498   6.164
 4945POPC   GL263062  11.957  17.564   6.164
 4945POPC   C1A63063  12.082  17.551   6.464
 4945POPC   D2A63064  12.086  17.487   6.764
 4945POPC   C3A63065  12.095  17.508   7.064
 4945POPC   C4A63066  12.101  17.479   7.364
 4945POPC   C1B63067  11.804  17.571   6.464
 4945POPC   C2B63068  11.809  17.592   6.764
 4945POPC   C3B63069  11.860  17.608   7.064
 4945POPC   C4B63070  11.831  17.532   7.364
 4946POPC   NC363071   5.116   4.350   5.564
 4946POPC   PO463072   5.113   4.289   5.864
 4946POPC   GL163073   5.064   4.358   6.164
 4946POPC   GL263074   5.068   4.210   6.164
 4946POPC   C1A63075   5.107   4.277   6.464
 4946POPC   D2A63076   5.122   4.338   6.764
 4946POPC   C3A63077   5.119   4.287   7.064
 4946POPC   C4A63078   5.048   4.358   7.364
 4946POPC   C1B63079   5.024   4.060   6.464
 4946POPC   C2B63080   5.005   4.095   6.764
 4946POPC   C3B63081   5.084   4.086   7.064
 4946POPC   C4B63082   5.096   4.056   7.364
 4947POPC   NC363083  18.236   1.184   5.564
 4947POPC   PO463084  18.328   1.243   5.864
 4947POPC   GL163085  18.267   1.164   6.164
 4947POPC   GL263086  18.280   1.080   6.164
 4947POPC   C1A63087  18.235   1.214   6.464
 4947POPC   D2A63088  18.263   1.178   6.764
 4947POPC   C3A63089  18.291   1.261   7.064
 4947POPC   C4A63090  18.277   1.172   7.364
 4947POPC   C1B63091  18.186   0.951   6.464
 4947POPC   C2B63092  18.186   0.993   6.764
 4947POPC   C3B63093  18.196   0.983   7.064
 4947POPC   C4B63094  18.205   0.991   7.364
 4948POPC   NC363095  15.924  44.711   5.564
 4948POPC   PO463096  15.922  44.658   5.864
 4948POPC   GL163097  15.939  44.663   6.164
 4948POPC   GL263098  15.948  44.547   6.164
 4948POPC   C1A63099  15.912  44.645   6.464
 4948POPC   D2A63100  15.964  44.708   6.764
 4948POPC   C3A63101  15.922  44.710   7.064
 4948POPC   C4A63102  15.913  44.635   7.364
 4948POPC   C1B63103  15.992  44.442   6.464
 4948POPC   C2B63104  16.016  44.451   6.764
 4948POPC   C3B63105  16.016  44.430   7.064
 4948POPC   C4B63106  16.048  44.434   7.364
 4949POPC   NC363107  14.373  19.821   5.564
 4949POPC   PO463108  14.393  19.849   5.864
 4949POPC   GL163109  14.357  19.858   6.164
 4949POPC   GL263110  14.491  19.762   6.164
 4949POPC   C1A63111  14.430  19.862   6.464
 4949POPC   D2A63112  14.440  19.855   6.764
 4949POPC   C3A63113  14.360  19.796   7.064
 4949POPC   C4A63114  14.395  19.801   7.364
 4949POPC   C1B63115  14.501  19.600   6.464
 4949POPC   C2B63116  14.476  19.650   6.764
 4949POPC   C3B63117  14.534  19.584   7.064
 4949POPC   C4B63118  14.502  19.609   7.364
 4950POPC   NC363119  35.365  12.808   5.564
 4950POPC   PO463120  35.394  12.885   5.864
 4950POPC   GL163121  35.374  12.848   6.164
 4950POPC   GL263122  35.404  12.737   6.164
 4950POPC   C1A63123  35.364  12.880   6.464
 4950POPC   D2A63124  35.391  12.894   6.764
 4950POPC   C3A63125  35.372  12.893   7.064
 4950POPC   C4A63126  35.394  12.887   7.364
 4950POPC   C1B63127  35.462  12.606   6.464
 4950POPC   C2B63128  35.453  12.639   6.764
 4950POPC   C3B63129  35.388  12.615   7.064
 4950POPC   C4B63130  35.449  12.594   7.364
 4951POPC   NC363131  31.462  44.624   5.564
 4951POPC   PO463132  31.433  44.679   5.864
 4951POPC   GL163133  31.434  44.642   6.164
 4951POPC   GL263134  31.451  44.511   6.164
 4951POPC   C1A63135  31.439  44.694   6.464
 4951POPC   D2A63136  31.449  44.672   6.764
 4951POPC   C3A63137  31.448  44.694   7.064
 4951POPC   C4A63138  31.479  44.691   7.364
 4951POPC   C1B63139  31.511  44.456   6.464
 4951POPC   C2B63140  31.453  44.369   6.764
 4951POPC   C3B63141  31.456  44.458   7.064
 4951POPC   C4B63142  31.498  44.419   7.364
 4952POPC   NC363143   3.587  31.455   5.564
 4952POPC   PO463144   3.586  31.439   5.864
 4952POPC   GL163145   3.589  31.493   6.164
 4952POPC   GL263146   3.455  31.515   6.164
 4952POPC   C1A63147   3.569  31.428   6.464
 4952POPC   D2A63148   3.523  31.521   6.764
 4952POPC   C3A63149   3.567  31.509   7.064
 4952POPC   C4A63150   3.557  31.431   7.364
 4952POPC   C1B63151   3.357  31.589   6.464
 4952POPC   C2B63152   3.303  31.536   6.764
 4952POPC   C3B63153   3.311  31.571   7.064
 4952POPC   C4B63154   3.331  31.593   7.364
 4953POPC   NC363155  18.269  42.311   5.564
 4953POPC   PO463156  18.306  42.356   5.864
 4953POPC   GL163157  18.269  42.330   6.164
 4953POPC   GL263158  18.196  42.360   6.164
 4953POPC   C1A63159  18.329  42.349   6.464
 4953POPC   D2A63160  18.257  42.362   6.764
 4953POPC   C3A63161  18.255  42.291   7.064
 4953POPC   C4A63162  18.298  42.337   7.364
 4953POPC   C1B63163  18.086  42.429   6.464
 4953POPC   C2B63164  18.030  42.414   6.764
 4953POPC   C3B63165  18.038  42.440   7.064
 4953POPC   C4B63166  18.055  42.389   7.364
 4954POPC   NC363167  33.042   5.061   5.564
 4954POPC   PO463168  33.029   5.052   5.864
 4954POPC   GL163169  33.058   5.087   6.164
 4954POPC   GL263170  33.153   5.056   6.164
 4954POPC   C1A63171  33.065   5.080   6.464
 4954POPC   D2A63172  33.047   5.125   6.764
 4954POPC   C3A63173  33.053   5.085   7.064
 4954POPC   C4A63174  33.032   5.116   7.364
 4954POPC   C1B63175  33.223   4.967   6.464
 4954POPC   C2B63176  33.229   4.961   6.764
 4954POPC   C3B63177  33.276   4.984   7.064
 4954POPC   C4B63178  33.279   5.005   7.364
 4955POPC   NC363179   6.595  22.894   5.564
 4955POPC   PO463180   6.641  22.951   5.864
 4955POPC   GL163181   6.670  22.982   6.164
 4955POPC   GL263182   6.534  22.906   6.164
 4955POPC   C1A63183   6.618  22.981   6.464
 4955POPC   D2A63184   6.625  22.904   6.764
 4955POPC   C3A63185   6.613  22.947   7.064
 4955POPC   C4A63186   6.603  22.955   7.364
 4955POPC   C1B63187   6.360  22.887   6.464
 4955POPC   C2B63188   6.370  22.888   6.764
 4955POPC   C3B63189   6.447  22.851   7.064
 4955POPC   C4B63190   6.374  22.843   7.364
 4956POPC   NC363191  15.222  27.583   5.564
 4956POPC   PO463192  15.169  27.582   5.864
 4956POPC   GL163193  15.182  27.599   6.164
 4956POPC   GL263194  15.075  27.664   6.164
 4956POPC   C1A63195  15.177  27.560   6.464
 4956POPC   D2A63196  15.163  27.634   6.764
 4956POPC   C3A63197  15.147  27.563   7.064
 4956POPC   C4A63198  15.194  27.641   7.364
 4956POPC   C1B63199  14.930  27.639   6.464
 4956POPC   C2B63200  14.902  27.678   6.764
 4956POPC   C3B63201  14.937  27.702   7.064
 4956POPC   C4B63202  14.955  27.625   7.364
 4957POPC   NC363203  11.335  42.301   5.564
 4957POPC   PO463204  11.321  42.295   5.864
 4957POPC   GL163205  11.297  42.286   6.164
 4957POPC   GL263206  11.218  42.462   6.164
 4957POPC   C1A63207  11.334  42.320   6.464
 4957POPC   D2A63208  11.259  42.310   6.764
 4957POPC   C3A63209  11.288  42.303   7.064
 4957POPC   C4A63210  11.279  42.334   7.364
 4957POPC   C1B63211  11.208  42.591   6.464
 4957POPC   C2B63212  11.209  42.607   6.764
 4957POPC   C3B63213  11.260  42.539   7.064
 4957POPC   C4B63214  11.195  42.528   7.364
 4958POPC   NC363215  32.242  29.933   5.564
 4958POPC   PO463216  32.268  29.959   5.864
 4958POPC   GL163217  32.217  29.948   6.164
 4958POPC   GL263218  32.105  29.915   6.164
 4958POPC   C1A63219  32.238  29.910   6.464
 4958POPC   D2A63220  32.244  29.934   6.764
 4958POPC   C3A63221  32.247  29.876   7.064
 4958POPC   C4A63222  32.286  29.953   7.364
 4958POPC   C1B63223  31.989  29.970   6.464
 4958POPC   C2B63224  31.990  29.983   6.764
 4958POPC   C3B63225  32.029  29.986   7.064
 4958POPC   C4B63226  31.963  30.039   7.364
 4959POPC   NC363227  29.171   1.211   5.564
 4959POPC   PO463228  29.099   1.193   5.864
 4959POPC   GL163229  29.145   1.169   6.164
 4959POPC   GL263230  29.065   1.190   6.164
 4959POPC   C1A63231  29.115   1.167   6.464
 4959POPC   D2A63232  29.169   1.209   6.764
 4959POPC   C3A63233  29.119   1.169   7.064
 4959POPC   C4A63234  29.139   1.262   7.364
 4959POPC   C1B63235  28.905   1.248   6.464
 4959POPC   C2B63236  28.878   1.211   6.764
 4959POPC   C3B63237  28.933   1.277   7.064
 4959POPC   C4B63238  28.882   1.301   7.364
 4960POPC   NC363239  30.660  44.631   5.564
 4960POPC   PO463240  30.693  44.641   5.864
 4960POPC   GL163241  30.680  44.660   6.164
 4960POPC   GL263242  30.594  44.654   6.164
 4960POPC   C1A63243  30.732  44.686   6.464
 4960POPC   D2A63244  30.724  44.616   6.764
 4960POPC   C3A63245  30.697  44.616   7.064
 4960POPC   C4A63246  30.714  44.633   7.364
 4960POPC   C1B63247  30.423  44.644   6.464
 4960POPC   C2B63248  30.491  44.621   6.764
 4960POPC   C3B63249  30.487  44.637   7.064
 4960POPC   C4B63250  30.406  44.682   7.364
 4961POPC   NC363251  11.323  32.208   5.564
 4961POPC   PO463252  11.326  32.275   5.864
 4961POPC   GL163253  11.270  32.244   6.164
 4961POPC   GL263254  11.280  32.092   6.164
 4961POPC   C1A63255  11.302  32.268   6.464
 4961POPC   D2A63256  11.341  32.248   6.764
 4961POPC   C3A63257  11.300  32.252   7.064
 4961POPC   C4A63258  11.251  32.245   7.364
 4961POPC   C1B63259  11.192  32.046   6.464
 4961POPC   C2B63260  11.214  32.051   6.764
 4961POPC   C3B63261  11.216  32.070   7.064
 4961POPC   C4B63262  11.194  32.064   7.364
 4962POPC   NC363263  41.524  41.521   5.564
 4962POPC   PO463264  41.532  41.517   5.864
 4962POPC   GL163265  41.523  41.520   6.164
 4962POPC   GL263266  41.440  41.624   6.164
 4962POPC   C1A63267  41.593  41.556   6.464
 4962POPC   D2A63268  41.568  41.561   6.764
 4962POPC   C3A63269  41.603  41.588   7.064
 4962POPC   C4A63270  41.520  41.519   7.364
 4962POPC   C1B63271  41.330  41.675   6.464
 4962POPC   C2B63272  41.332  41.649   6.764
 4962POPC   C3B63273  41.303  41.693   7.064
 4962POPC   C4B63274  41.370  41.679   7.364
 4963POPC   NC363275  27.563   6.675   5.564
 4963POPC   PO463276  27.551   6.603   5.864
 4963POPC   GL163277  27.611   6.610   6.164
 4963POPC   GL263278  27.715   6.539   6.164
 4963POPC   C1A63279  27.574   6.667   6.464
 4963POPC   D2A63280  27.592   6.620   6.764
 4963POPC   C3A63281  27.642   6.600   7.064
 4963POPC   C4A63282  27.590   6.663   7.364
 4963POPC   C1B63283  27.734   6.477   6.464
 4963POPC   C2B63284  27.765   6.455   6.764
 4963POPC   C3B63285  27.731   6.469   7.064
 4963POPC   C4B63286  27.757   6.476   7.364
 4964POPC   NC363287  15.148  23.735   5.564
 4964POPC   PO463288  15.183  23.702   5.864
 4964POPC   GL163289  15.200  23.711   6.164
 4964POPC   GL263290  15.059  23.720   6.164
 4964POPC   C1A63291  15.224  23.741   6.464
 4964POPC   D2A63292  15.145  23.711   6.764
 4964POPC   C3A63293  15.199  23.758   7.064
 4964POPC   C4A63294  15.207  23.711   7.364
 4964POPC   C1B63295  14.957  23.731   6.464
 4964POPC   C2B63296  14.893  23.725   6.764
 4964POPC   C3B63297  14.892  23.663   7.064
 4964POPC   C4B63298  14.885  23.744   7.364
 4965POPC   NC363299  40.021  28.319   5.564
 4965POPC   PO463300  39.982  28.369   5.864
 4965POPC   GL163301  40.026  28.356   6.164
 4965POPC   GL263302  39.926  28.457   6.164
 4965POPC   C1A63303  39.958  28.350   6.464
 4965POPC   D2A63304  40.024  28.408   6.764
 4965POPC   C3A63305  40.039  28.390   7.064
 4965POPC   C4A63306  39.973  28.419   7.364
 4965POPC   C1B63307  39.835  28.553   6.464
 4965POPC   C2B63308  39.766  28.491   6.764
 4965POPC   C3B63309  39.816  28.524   7.064
 4965POPC   C4B63310  39.841  28.507   7.364
 4966POPC   NC363311   9.779  35.304   5.564
 4966POPC   PO463312   9.735  35.320   5.864
 4966POPC   GL163313   9.796  35.304   6.164
 4966POPC   GL263314   9.746  35.244   6.164
 4966POPC   C1A63315   9.771  35.345   6.464
 4966POPC   D2A63316   9.728  35.333   6.764
 4966POPC   C3A63317   9.747  35.380   7.064
 4966POPC   C4A63318   9.709  35.347   7.364
 4966POPC   C1B63319   9.811  35.140   6.464
 4966POPC   C2B63320   9.770  35.131   6.764
 4966POPC   C3B63321   9.814  35.141   7.064
 4966POPC   C4B63322   9.790  35.129   7.364
 4967POPC   NC363323  33.032   6.630   5.564
 4967POPC   PO463324  33.054   6.623   5.864
 4967POPC   GL163325  32.987   6.609   6.164
 4967POPC   GL263326  32.851   6.633   6.164
 4967POPC   C1A63327  32.999   6.691   6.464
 4967POPC   D2A63328  33.003   6.670   6.764
 4967POPC   C3A63329  33.056   6.674   7.064
 4967POPC   C4A63330  32.984   6.663   7.364
 4967POPC   C1B63331  32.765   6.673   6.464
 4967POPC   C2B63332  32.778   6.683   6.764
 4967POPC   C3B63333  32.807   6.628   7.064
 4967POPC   C4B63334  32.763   6.633   7.364
 4968POPC   NC363335  10.476  36.897   5.564
 4968POPC   PO463336  10.534  36.887   5.864
 4968POPC   GL163337  10.555  36.902   6.164
 4968POPC   GL263338  10.574  37.002   6.164
 4968POPC   C1A63339  10.513  36.901   6.464
 4968POPC   D2A63340  10.484  36.884   6.764
 4968POPC   C3A63341  10.547  36.885   7.064
 4968POPC   C4A63342  10.476  36.901   7.364
 4968POPC   C1B63343  10.625  37.159   6.464
 4968POPC   C2B63344  10.609  37.173   6.764
 4968POPC   C3B63345  10.622  37.130   7.064
 4968POPC   C4B63346  10.579  37.108   7.364
 4969POPC   NC363347  40.052  42.348   5.564
 4969POPC   PO463348  39.985  42.347   5.864
 4969POPC   GL163349  40.054  42.363   6.164
 4969POPC   GL263350  40.085  42.372   6.164
 4969POPC   C1A63351  40.035  42.337   6.464
 4969POPC   D2A63352  39.979  42.294   6.764
 4969POPC   C3A63353  40.005  42.368   7.064
 4969POPC   C4A63354  40.037  42.346   7.364
 4969POPC   C1B63355  40.264  42.383   6.464
 4969POPC   C2B63356  40.278  42.321   6.764
 4969POPC   C3B63357  40.303  42.361   7.064
 4969POPC   C4B63358  40.277  42.359   7.364
 4970POPC   NC363359   9.770   2.759   5.564
 4970POPC   PO463360   9.761   2.722   5.864
 4970POPC   GL163361   9.734   2.732   6.164
 4970POPC   GL263362   9.701   2.879   6.164
 4970POPC   C1A63363   9.725   2.795   6.464
 4970POPC   D2A63364   9.706   2.768   6.764
 4970POPC   C3A63365   9.757   2.729   7.064
 4970POPC   C4A63366   9.768   2.777   7.364
 4970POPC   C1B63367   9.589   3.018   6.464
 4970POPC   C2B63368   9.592   2.931   6.764
 4970POPC   C3B63369   9.626   2.971   7.064
 4970POPC   C4B63370   9.648   2.955   7.364
 4971POPC   NC363371   3.549  12.089   5.564
 4971POPC   PO463372   3.551  12.049   5.864
 4971POPC   GL163373   3.531  12.088   6.164
 4971POPC   GL263374   3.650  12.001   6.164
 4971POPC   C1A63375   3.496  12.080   6.464
 4971POPC   D2A63376   3.581  12.086   6.764
 4971POPC   C3A63377   3.557  12.040   7.064
 4971POPC   C4A63378   3.579  12.113   7.364
 4971POPC   C1B63379   3.763  11.995   6.464
 4971POPC   C2B63380   3.768  11.984   6.764
 4971POPC   C3B63381   3.822  12.070   7.064
 4971POPC   C4B63382   3.774  12.006   7.364
 4972POPC   NC363383  27.552   5.074   5.564
 4972POPC   PO463384  27.595   5.062   5.864
 4972POPC   GL163385  27.619   5.060   6.164
 4972POPC   GL263386  27.731   5.118   6.164
 4972POPC   C1A63387  27.569   5.047   6.464
 4972POPC   D2A63388  27.605   5.139   6.764
 4972POPC   C3A63389  27.602   5.082   7.064
 4972POPC   C4A63390  27.549   5.141   7.364
 4972POPC   C1B63391  27.830   5.160   6.464
 4972POPC   C2B63392  27.876   5.089   6.764
 4972POPC   C3B63393  27.795   5.111   7.064
 4972POPC   C4B63394  27.850   5.079   7.364
 4973POPC   NC363395  25.249  22.164   5.564
 4973POPC   PO463396  25.309  22.140   5.864
 4973POPC   GL163397  25.261  22.197   6.164
 4973POPC   GL263398  25.373  22.212   6.164
 4973POPC   C1A63399  25.239  22.197   6.464
 4973POPC   D2A63400  25.288  22.183   6.764
 4973POPC   C3A63401  25.302  22.173   7.064
 4973POPC   C4A63402  25.279  22.117   7.364
 4973POPC   C1B63403  25.559  22.214   6.464
 4973POPC   C2B63404  25.467  22.176   6.764
 4973POPC   C3B63405  25.496  22.173   7.064
 4973POPC   C4B63406  25.492  22.160   7.364
 4974POPC   NC363407   9.747  33.782   5.564
 4974POPC   PO463408   9.700  33.847   5.864
 4974POPC   GL163409   9.781  33.753   6.164
 4974POPC   GL263410   9.894  33.816   6.164
 4974POPC   C1A63411   9.765  33.776   6.464
 4974POPC   D2A63412   9.781  33.799   6.764
 4974POPC   C3A63413   9.724  33.754   7.064
 4974POPC   C4A63414   9.782  33.761   7.364
 4974POPC   C1B63415   9.959  33.839   6.464
 4974POPC   C2B63416  10.031  33.879   6.764
 4974POPC   C3B63417  10.041  33.838   7.064
 4974POPC   C4B63418   9.975  33.839   7.364
 4975POPC   NC363419  29.097   5.822   5.564
 4975POPC   PO463420  29.182   5.862   5.864
 4975POPC   GL163421  29.163   5.843   6.164
 4975POPC   GL263422  29.112   6.018   6.164
 4975POPC   C1A63423  29.141   5.841   6.464
 4975POPC   D2A63424  29.173   5.894   6.764
 4975POPC   C3A63425  29.163   5.824   7.064
 4975POPC   C4A63426  29.165   5.916   7.364
 4975POPC   C1B63427  29.047   6.075   6.464
 4975POPC   C2B63428  29.020   6.089   6.764
 4975POPC   C3B63429  29.084   6.144   7.064
 4975POPC   C4B63430  29.067   6.151   7.364
 4976POPC   NC363431   1.940  12.831   5.564
 4976POPC   PO463432   1.989  12.822   5.864
 4976POPC   GL163433   1.978  12.842   6.164
 4976POPC   GL263434   2.082  12.819   6.164
 4976POPC   C1A63435   2.004  12.879   6.464
 4976POPC   D2A63436   2.011  12.838   6.764
 4976POPC   C3A63437   2.033  12.887   7.064
 4976POPC   C4A63438   1.968  12.890   7.364
 4976POPC   C1B63439   2.235  12.714   6.464
 4976POPC   C2B63440   2.197  12.700   6.764
 4976POPC   C3B63441   2.250  12.733   7.064
 4976POPC   C4B63442   2.162  12.752   7.364
 4977POPC   NC363443  31.460  14.447   5.564
 4977POPC   PO463444  31.505  14.375   5.864
 4977POPC   GL163445  31.480  14.426   6.164
 4977POPC   GL263446  31.356  14.354   6.164
 4977POPC   C1A63447  31.429  14.427   6.464
 4977POPC   D2A63448  31.456  14.409   6.764
 4977POPC   C3A63449  31.474  14.431   7.064
 4977POPC   C4A63450  31.465  14.410   7.364
 4977POPC   C1B63451  31.254  14.303   6.464
 4977POPC   C2B63452  31.290  14.232   6.764
 4977POPC   C3B63453  31.292  14.259   7.064
 4977POPC   C4B63454  31.298  14.221   7.364
 4978POPC   NC363455  21.336  23.694   5.564
 4978POPC   PO463456  21.424  23.715   5.864
 4978POPC   GL163457  21.362  23.705   6.164
 4978POPC   GL263458  21.434  23.827   6.164
 4978POPC   C1A63459  21.396  23.693   6.464
 4978POPC   D2A63460  21.409  23.727   6.764
 4978POPC   C3A63461  21.396  23.732   7.064
 4978POPC   C4A63462  21.413  23.669   7.364
 4978POPC   C1B63463  21.470  23.894   6.464
 4978POPC   C2B63464  21.464  23.906   6.764
 4978POPC   C3B63465  21.476  23.909   7.064
 4978POPC   C4B63466  21.550  23.983   7.364
 4979POPC   NC363467   7.411  36.116   5.564
 4979POPC   PO463468   7.448  36.146   5.864
 4979POPC   GL163469   7.394  36.164   6.164
 4979POPC   GL263470   7.352  36.286   6.164
 4979POPC   C1A63471   7.439  36.152   6.464
 4979POPC   D2A63472   7.459  36.145   6.764
 4979POPC   C3A63473   7.447  36.099   7.064
 4979POPC   C4A63474   7.404  36.169   7.364
 4979POPC   C1B63475   7.379  36.342   6.464
 4979POPC   C2B63476   7.375  36.349   6.764
 4979POPC   C3B63477   7.334  36.348   7.064
 4979POPC   C4B63478   7.317  36.378   7.364
 4980POPC   NC363479  38.491  23.707   5.564
 4980POPC   PO463480  38.459  23.736   5.864
 4980POPC   GL163481  38.478  23.754   6.164
 4980POPC   GL263482  38.492  23.783   6.164
 4980POPC   C1A63483  38.484  23.747   6.464
 4980POPC   D2A63484  38.468  23.711   6.764
 4980POPC   C3A63485  38.439  23.675   7.064
 4980POPC   C4A63486  38.501  23.701   7.364
 4980POPC   C1B63487  38.561  23.945   6.464
 4980POPC   C2B63488  38.540  23.927   6.764
 4980POPC   C3B63489  38.552  23.896   7.064
 4980POPC   C4B63490  38.537  23.975   7.364
 4981POPC   NC363491   6.661  33.833   5.564
 4981POPC   PO463492   6.661  33.754   5.864
 4981POPC   GL163493   6.613  33.795   6.164
 4981POPC   GL263494   6.569  33.888   6.164
 4981POPC   C1A63495   6.683  33.759   6.464
 4981POPC   D2A63496   6.616  33.817   6.764
 4981POPC   C3A63497   6.651  33.822   7.064
 4981POPC   C4A63498   6.681  33.835   7.364
 4981POPC   C1B63499   6.479  33.906   6.464
 4981POPC   C2B63500   6.392  33.917   6.764
 4981POPC   C3B63501   6.401  33.908   7.064
 4981POPC   C4B63502   6.473  33.987   7.364
 4982POPC   NC363503  34.600  19.097   5.564
 4982POPC   PO463504  34.580  19.060   5.864
 4982POPC   GL163505  34.613  19.053   6.164
 4982POPC   GL263506  34.528  19.226   6.164
 4982POPC   C1A63507  34.579  19.042   6.464
 4982POPC   D2A63508  34.621  19.090   6.764
 4982POPC   C3A63509  34.601  19.073   7.064
 4982POPC   C4A63510  34.587  19.010   7.364
 4982POPC   C1B63511  34.495  19.292   6.464
 4982POPC   C2B63512  34.524  19.301   6.764
 4982POPC   C3B63513  34.477  19.346   7.064
 4982POPC   C4B63514  34.517  19.296   7.364
 4983POPC   NC363515  43.117  37.694   5.564
 4983POPC   PO463516  43.095  37.700   5.864
 4983POPC   GL163517  43.117  37.663   6.164
 4983POPC   GL263518  43.219  37.732   6.164
 4983POPC   C1A63519  43.158  37.666   6.464
 4983POPC   D2A63520  43.144  37.654   6.764
 4983POPC   C3A63521  43.116  37.697   7.064
 4983POPC   C4A63522  43.148  37.660   7.364
 4983POPC   C1B63523  43.294  37.806   6.464
 4983POPC   C2B63524  43.297  37.790   6.764
 4983POPC   C3B63525  43.334  37.760   7.064
 4983POPC   C4B63526  43.354  37.795   7.364
 4984POPC   NC363527  22.212   2.021   5.564
 4984POPC   PO463528  22.190   1.949   5.864
 4984POPC   GL163529  22.154   2.012   6.164
 4984POPC   GL263530  22.065   2.089   6.164
 4984POPC   C1A63531  22.182   1.953   6.464
 4984POPC   D2A63532  22.163   1.950   6.764
 4984POPC   C3A63533  22.138   1.943   7.064
 4984POPC   C4A63534  22.175   1.946   7.364
 4984POPC   C1B63535  21.925   2.171   6.464
 4984POPC   C2B63536  21.948   2.173   6.764
 4984POPC   C3B63537  22.011   2.163   7.064
 4984POPC   C4B63538  21.974   2.154   7.364
 4985POPC   NC363539  44.625  43.899   5.564
 4985POPC   PO463540  44.618  43.852   5.864
 4985POPC   GL163541  44.676  43.908   6.164
 4985POPC   GL263542  44.720  43.840   6.164
 4985POPC   C1A63543  44.617  43.840   6.464
 4985POPC   D2A63544  44.704  43.864   6.764
 4985POPC   C3A63545  44.665  43.896   7.064
 4985POPC   C4A63546  44.694  43.934   7.364
 4985POPC   C1B63547  44.837  43.688   6.464
 4985POPC   C2B63548  44.835  43.769   6.764
 4985POPC   C3B63549  44.871  43.768   7.064
 4985POPC   C4B63550  44.866  43.733   7.364
 4986POPC   NC363551  12.884  25.297   5.564
 4986POPC   PO463552  12.870  25.280   5.864
 4986POPC   GL163553  12.870  25.225   6.164
 4986POPC   GL263554  12.859  25.109   6.164
 4986POPC   C1A63555  12.850  25.245   6.464
 4986POPC   D2A63556  12.818  25.306   6.764
 4986POPC   C3A63557  12.895  25.274   7.064
 4986POPC   C4A63558  12.867  25.221   7.364
 4986POPC   C1B63559  12.793  25.005   6.464
 4986POPC   C2B63560  12.802  25.020   6.764
 4986POPC   C3B63561  12.790  25.017   7.064
 4986POPC   C4B63562  12.856  24.994   7.364
 4987POPC   NC363563  25.286  33.762   5.564
 4987POPC   PO463564  25.217  33.774   5.864
 4987POPC   GL163565  25.249  33.804   6.164
 4987POPC   GL263566  25.176  33.827   6.164
 4987POPC   C1A63567  25.221  33.825   6.464
 4987POPC   D2A63568  25.233  33.779   6.764
 4987POPC   C3A63569  25.216  33.820   7.064
 4987POPC   C4A63570  25.231  33.775   7.364
 4987POPC   C1B63571  25.044  33.810   6.464
 4987POPC   C2B63572  24.988  33.810   6.764
 4987POPC   C3B63573  24.971  33.782   7.064
 4987POPC   C4B63574  25.048  33.769   7.364
 4988POPC   NC363575  36.874  15.131   5.564
 4988POPC   PO463576  36.858  15.186   5.864
 4988POPC   GL163577  36.863  15.199   6.164
 4988POPC   GL263578  36.944  15.276   6.164
 4988POPC   C1A63579  36.922  15.226   6.464
 4988POPC   D2A63580  36.935  15.215   6.764
 4988POPC   C3A63581  36.859  15.177   7.064
 4988POPC   C4A63582  36.869  15.170   7.364
 4988POPC   C1B63583  37.020  15.405   6.464
 4988POPC   C2B63584  36.995  15.424   6.764
 4988POPC   C3B63585  37.036  15.386   7.064
 4988POPC   C4B63586  37.037  15.387   7.364
 4989POPC   NC363587  32.217  19.846   5.564
 4989POPC   PO463588  32.221  19.802   5.864
 4989POPC   GL163589  32.237  19.830   6.164
 4989POPC   GL263590  32.176  19.688   6.164
 4989POPC   C1A63591  32.262  19.830   6.464
 4989POPC   D2A63592  32.235  19.853   6.764
 4989POPC   C3A63593  32.209  19.839   7.064
 4989POPC   C4A63594  32.250  19.830   7.364
 4989POPC   C1B63595  32.220  19.558   6.464
 4989POPC   C2B63596  32.134  19.579   6.764
 4989POPC   C3B63597  32.212  19.621   7.064
 4989POPC   C4B63598  32.150  19.594   7.364
 4990POPC   NC363599   1.247  31.521   5.564
 4990POPC   PO463600   1.211  31.435   5.864
 4990POPC   GL163601   1.200  31.487   6.164
 4990POPC   GL263602   1.076  31.440   6.164
 4990POPC   C1A63603   1.181  31.520   6.464
 4990POPC   D2A63604   1.223  31.481   6.764
 4990POPC   C3A63605   1.254  31.459   7.064
 4990POPC   C4A63606   1.249  31.437   7.364
 4990POPC   C1B63607   0.930  31.426   6.464
 4990POPC   C2B63608   0.945  31.452   6.764
 4990POPC   C3B63609   0.999  31.405   7.064
 4990POPC   C4B63610   0.923  31.443   7.364
 4991POPC   NC363611  33.814  43.077   5.564
 4991POPC   PO463612  33.797  43.089   5.864
 4991POPC   GL163613  33.840  43.111   6.164
 4991POPC   GL263614  33.809  43.237   6.164
 4991POPC   C1A63615  33.779  43.067   6.464
 4991POPC   D2A63616  33.842  43.096   6.764
 4991POPC   C3A63617  33.827  43.098   7.064
 4991POPC   C4A63618  33.762  43.121   7.364
 4991POPC   C1B63619  33.873  43.363   6.464
 4991POPC   C2B63620  33.791  43.380   6.764
 4991POPC   C3B63621  33.783  43.372   7.064
 4991POPC   C4B63622  33.859  43.389   7.364
 4992POPC   NC363623  18.311  31.484   5.564
 4992POPC   PO463624  18.295  31.488   5.864
 4992POPC   GL163625  18.308  31.447   6.164
 4992POPC   GL263626  18.341  31.402   6.164
 4992POPC   C1A63627  18.310  31.474   6.464
 4992POPC   D2A63628  18.326  31.474   6.764
 4992POPC   C3A63629  18.288  31.436   7.064
 4992POPC   C4A63630  18.327  31.482   7.364
 4992POPC   C1B63631  18.407  31.252   6.464
 4992POPC   C2B63632  18.409  31.288   6.764
 4992POPC   C3B63633  18.441  31.229   7.064
 4992POPC   C4B63634  18.403  31.237   7.364
 4993POPC   NC363635  25.285  11.314   5.564
 4993POPC   PO463636  25.281  11.344   5.864
 4993POPC   GL163637  25.288  11.273   6.164
 4993POPC   GL263638  25.229  11.237   6.164
 4993POPC   C1A63639  25.267  11.270   6.464
 4993POPC   D2A63640  25.291  11.299   6.764
 4993POPC   C3A63641  25.229  11.285   7.064
 4993POPC   C4A63642  25.251  11.252   7.364
 4993POPC   C1B63643  25.145  11.145   6.464
 4993POPC   C2B63644  25.076  11.076   6.764
 4993POPC   C3B63645  25.091  11.073   7.064
 4993POPC   C4B63646  25.142  11.083   7.364
 4994POPC   NC363647  30.652   9.772   5.564
 4994POPC   PO463648  30.713   9.741   5.864
 4994POPC   GL163649  30.676   9.711   6.164
 4994POPC   GL263650  30.830   9.676   6.164
 4994POPC   C1A63651  30.711   9.793   6.464
 4994POPC   D2A63652  30.672   9.741   6.764
 4994POPC   C3A63653  30.727   9.790   7.064
 4994POPC   C4A63654  30.695   9.787   7.364
 4994POPC   C1B63655  30.898   9.540   6.464
 4994POPC   C2B63656  30.901   9.557   6.764
 4994POPC   C3B63657  30.883   9.602   7.064
 4994POPC   C4B63658  30.933   9.549   7.364
 4995POPC   NC363659  12.058   7.452   5.564
 4995POPC   PO463660  12.055   7.412   5.864
 4995POPC   GL163661  12.077   7.439   6.164
 4995POPC   GL263662  12.165   7.528   6.164
 4995POPC   C1A63663  12.034   7.429   6.464
 4995POPC   D2A63664  12.089   7.373   6.764
 4995POPC   C3A63665  12.120   7.468   7.064
 4995POPC   C4A63666  12.031   7.433   7.364
 4995POPC   C1B63667  12.173   7.632   6.464
 4995POPC   C2B63668  12.149   7.620   6.764
 4995POPC   C3B63669  12.183   7.665   7.064
 4995POPC   C4B63670  12.130   7.671   7.364
 4996POPC   NC363671   2.034  43.069   5.564
 4996POPC   PO463672   1.942  43.151   5.864
 4996POPC   GL163673   1.997  43.090   6.164
 4996POPC   GL263674   1.892  43.099   6.164
 4996POPC   C1A63675   1.971  43.071   6.464
 4996POPC   D2A63676   1.954  43.134   6.764
 4996POPC   C3A63677   2.026  43.160   7.064
 4996POPC   C4A63678   2.035  43.104   7.364
 4996POPC   C1B63679   1.754  43.077   6.464
 4996POPC   C2B63680   1.737  43.050   6.764
 4996POPC   C3B63681   1.732  43.105   7.064
 4996POPC   C4B63682   1.705  43.095   7.364
 4997POPC   NC363683  24.450  19.050   5.564
 4997POPC   PO463684  24.535  19.042   5.864
 4997POPC   GL163685  24.482  19.093   6.164
 4997POPC   GL263686  24.377  19.148   6.164
 4997POPC   C1A63687  24.469  19.025   6.464
 4997POPC   D2A63688  24.473  19.069   6.764
 4997POPC   C3A63689  24.477  19.020   7.064
 4997POPC   C4A63690  24.441  19.029   7.364
 4997POPC   C1B63691  24.259  19.205   6.464
 4997POPC   C2B63692  24.299  19.251   6.764
 4997POPC   C3B63693  24.301  19.202   7.064
 4997POPC   C4B63694  24.296  19.225   7.364
 4998POPC   NC363695  32.226  44.677   5.564
 4998POPC   PO463696  32.229  44.708   5.864
 4998POPC   GL163697  32.260  44.688   6.164
 4998POPC   GL263698  32.338  44.742   6.164
 4998POPC   C1A63699  32.206  44.657   6.464
 4998POPC   D2A63700  32.266  44.617   6.764
 4998POPC   C3A63701  32.216  44.640   7.064
 4998POPC   C4A63702  32.251  44.659   7.364
 4998POPC   C1B63703  32.507  44.765   6.464
 4998POPC   C2B63704  32.482  44.709   6.764
 4998POPC   C3B63705  32.502  44.729   7.064
 4998POPC   C4B63706  32.448  44.791   7.364
 4999POPC   NC363707  25.243  21.367   5.564
 4999POPC   PO463708  25.240  21.392   5.864
 4999POPC   GL163709  25.237  21.387   6.164
 4999POPC   GL263710  25.392  21.426   6.164
 4999POPC   C1A63711  25.216  21.412   6.464
 4999POPC   D2A63712  25.243  21.388   6.764
 4999POPC   C3A63713  25.264  21.391   7.064
 4999POPC   C4A63714  25.246  21.433   7.364
 4999POPC   C1B63715  25.518  21.451   6.464
 4999POPC   C2B63716  25.517  21.428   6.764
 4999POPC   C3B63717  25.520  21.426   7.064
 4999POPC   C4B63718  25.494  21.423   7.364
 5000POPC   NC363719   1.200  12.869   5.564
 5000POPC   PO463720   1.181  12.872   5.864
 5000POPC   GL163721   1.187  12.852   6.164
 5000POPC   GL263722   1.292  12.966   6.164
 5000POPC   C1A63723   1.182  12.853   6.464
 5000POPC   D2A63724   1.218  12.878   6.764
 5000POPC   C3A63725   1.255  12.804   7.064
 5000POPC   C4A63726   1.185  12.807   7.364
 5000POPC   C1B63727   1.348  13.022   6.464
 5000POPC   C2B63728   1.359  13.052   6.764
 5000POPC   C3B63729   1.365  13.002   7.064
 5000POPC   C4B63730   1.404  12.986   7.364
 5001POPC   NC363731  26.059   9.705   5.564
 5001POPC   PO463732  26.041   9.777   5.864
 5001POPC   GL163733  26.002   9.778   6.164
 5001POPC   GL263734  26.057   9.843   6.164
 5001POPC   C1A63735  26.080   9.761   6.464
 5001POPC   D2A63736  26.060   9.716   6.764
 5001POPC   C3A63737  26.091   9.741   7.064
 5001POPC   C4A63738  26.042   9.773   7.364
 5001POPC   C1B63739  26.102  10.017   6.464
 5001POPC   C2B63740  26.032  10.008   6.764
 5001POPC   C3B63741  26.108   9.965   7.064
 5001POPC   C4B63742  26.115  10.005   7.364
 5002POPC   NC363743   9.741  19.842   5.564
 5002POPC   PO463744   9.723  19.861   5.864
 5002POPC   GL163745   9.732  19.883   6.164
 5002POPC   GL263746   9.840  19.814   6.164
 5002POPC   C1A63747   9.767  19.826   6.464
 5002POPC   D2A63748   9.780  19.821   6.764
 5002POPC   C3A63749   9.712  19.832   7.064
 5002POPC   C4A63750   9.733  19.788   7.364
 5002POPC   C1B63751  10.030  19.862   6.464
 5002POPC   C2B63752  10.038  19.930   6.764
 5002POPC   C3B63753  10.041  19.910   7.064
 5002POPC   C4B63754  10.032  19.856   7.364
 5003POPC   NC363755  44.641   2.793   5.564
 5003POPC   PO463756  44.639   2.727   5.864
 5003POPC   GL163757  44.633   2.780   6.164
 5003POPC   GL263758  44.577   2.812   6.164
 5003POPC   C1A63759  44.635   2.793   6.464
 5003POPC   D2A63760  44.694   2.792   6.764
 5003POPC   C3A63761  44.659   2.775   7.064
 5003POPC   C4A63762  44.630   2.733   7.364
 5003POPC   C1B63763  44.541   2.940   6.464
 5003POPC   C2B63764  44.509   2.932   6.764
 5003POPC   C3B63765  44.523   2.938   7.064
 5003POPC   C4B63766  44.476   2.982   7.364
 5004POPC   NC363767  32.262  32.249   5.564
 5004POPC   PO463768  32.247  32.219   5.864
 5004POPC   GL163769  32.269  32.281   6.164
 5004POPC   GL263770  32.368  32.366   6.164
 5004POPC   C1A63771  32.254  32.261   6.464
 5004POPC   D2A63772  32.228  32.278   6.764
 5004POPC   C3A63773  32.288  32.283   7.064
 5004POPC   C4A63774  32.244  32.202   7.364
 5004POPC   C1B63775  32.389  32.410   6.464
 5004POPC   C2B63776  32.408  32.437   6.764
 5004POPC   C3B63777  32.400  32.410   7.064
 5004POPC   C4B63778  32.436  32.421   7.364
 5005POPC   NC363779   6.668   3.539   5.564
 5005POPC   PO463780   6.611   3.511   5.864
 5005POPC   GL163781   6.597   3.533   6.164
 5005POPC   GL263782   6.788   3.567   6.164
 5005POPC   C1A63783   6.674   3.530   6.464
 5005POPC   D2A63784   6.670   3.492   6.764
 5005POPC   C3A63785   6.667   3.494   7.064
 5005POPC   C4A63786   6.598   3.558   7.364
 5005POPC   C1B63787   6.891   3.554   6.464
 5005POPC   C2B63788   6.928   3.580   6.764
 5005POPC   C3B63789   6.862   3.594   7.064
 5005POPC   C4B63790   6.920   3.507   7.364
 5006POPC   NC363791  34.567  35.307   5.564
 5006POPC   PO463792  34.596  35.339   5.864
 5006POPC   GL163793  34.560  35.339   6.164
 5006POPC   GL263794  34.694  35.362   6.164
 5006POPC   C1A63795  34.625  35.339   6.464
 5006POPC   D2A63796  34.558  35.355   6.764
 5006POPC   C3A63797  34.531  35.370   7.064
 5006POPC   C4A63798  34.562  35.366   7.364
 5006POPC   C1B63799  34.821  35.410   6.464
 5006POPC   C2B63800  34.832  35.403   6.764
 5006POPC   C3B63801  34.798  35.416   7.064
 5006POPC   C4B63802  34.815  35.398   7.364
 5007POPC   NC363803   9.773   9.730   5.564
 5007POPC   PO463804   9.773   9.748   5.864
 5007POPC   GL163805   9.712   9.741   6.164
 5007POPC   GL263806   9.708   9.638   6.164
 5007POPC   C1A63807   9.703   9.754   6.464
 5007POPC   D2A63808   9.704   9.758   6.764
 5007POPC   C3A63809   9.754   9.725   7.064
 5007POPC   C4A63810   9.784   9.752   7.364
 5007POPC   C1B63811   9.633   9.576   6.464
 5007POPC   C2B63812   9.653   9.526   6.764
 5007POPC   C3B63813   9.606   9.573   7.064
 5007POPC   C4B63814   9.657   9.502   7.364
 5008POPC   NC363815  31.430   2.028   5.564
 5008POPC   PO463816  31.479   1.991   5.864
 5008POPC   GL163817  31.452   2.019   6.164
 5008POPC   GL263818  31.362   1.966   6.164
 5008POPC   C1A63819  31.455   1.992   6.464
 5008POPC   D2A63820  31.487   2.039   6.764
 5008POPC   C3A63821  31.494   1.998   7.064
 5008POPC   C4A63822  31.444   2.013   7.364
 5008POPC   C1B63823  31.273   1.944   6.464
 5008POPC   C2B63824  31.200   1.996   6.764
 5008POPC   C3B63825  31.187   1.976   7.064
 5008POPC   C4B63826  31.273   2.010   7.364
 5009POPC   NC363827   7.386  20.583   5.564
 5009POPC   PO463828   7.447  20.587   5.864
 5009POPC   GL163829   7.397  20.646   6.164
 5009POPC   GL263830   7.261  20.588   6.164
 5009POPC   C1A63831   7.458  20.626   6.464
 5009POPC   D2A63832   7.411  20.601   6.764
 5009POPC   C3A63833   7.459  20.635   7.064
 5009POPC   C4A63834   7.399  20.592   7.364
 5009POPC   C1B63835   7.130  20.531   6.464
 5009POPC   C2B63836   7.170  20.552   6.764
 5009POPC   C3B63837   7.196  20.601   7.064
 5009POPC   C4B63838   7.203  20.590   7.364
 5010POPC   NC363839  44.667  35.385   5.564
 5010POPC   PO463840  44.647  35.394   5.864
 5010POPC   GL163841  44.706  35.347   6.164
 5010POPC   GL263842  44.647  35.206   6.164
 5010POPC   C1A63843  44.653  35.325   6.464
 5010POPC   D2A63844  44.649  35.315   6.764
 5010POPC   C3A63845  44.631  35.323   7.064
 5010POPC   C4A63846  44.638  35.387   7.364
 5010POPC   C1B63847  44.573  35.125   6.464
 5010POPC   C2B63848  44.580  35.068   6.764
 5010POPC   C3B63849  44.655  35.144   7.064
 5010POPC   C4B63850  44.653  35.136   7.364
 5011POPC   NC363851  42.295  28.343   5.564
 5011POPC   PO463852  42.346  28.352   5.864
 5011POPC   GL163853  42.318  28.320   6.164
 5011POPC   GL263854  42.395  28.427   6.164
 5011POPC   C1A63855  42.299  28.394   6.464
 5011POPC   D2A63856  42.326  28.328   6.764
 5011POPC   C3A63857  42.297  28.331   7.064
 5011POPC   C4A63858  42.343  28.412   7.364
 5011POPC   C1B63859  42.514  28.548   6.464
 5011POPC   C2B63860  42.515  28.545   6.764
 5011POPC   C3B63861  42.521  28.545   7.064
 5011POPC   C4B63862  42.503  28.575   7.364
 5012POPC   NC363863  40.021  11.298   5.564
 5012POPC   PO463864  40.041  11.266   5.864
 5012POPC   GL163865  39.974  11.348   6.164
 5012POPC   GL263866  39.874  11.282   6.164
 5012POPC   C1A63867  40.010  11.348   6.464
 5012POPC   D2A63868  40.000  11.315   6.764
 5012POPC   C3A63869  40.019  11.296   7.064
 5012POPC   C4A63870  39.969  11.290   7.364
 5012POPC   C1B63871  39.808  11.331   6.464
 5012POPC   C2B63872  39.723  11.336   6.764
 5012POPC   C3B63873  39.799  11.311   7.064
 5012POPC   C4B63874  39.798  11.330   7.364
 5013POPC   NC363875  22.138  19.031   5.564
 5013POPC   PO463876  22.164  19.089   5.864
 5013POPC   GL163877  22.193  19.106   6.164
 5013POPC   GL263878  22.203  18.973   6.164
 5013POPC   C1A63879  22.195  19.064   6.464
 5013POPC   D2A63880  22.127  19.106   6.764
 5013POPC   C3A63881  22.185  19.069   7.064
 5013POPC   C4A63882  22.184  19.015   7.364
 5013POPC   C1B63883  22.200  18.824   6.464
 5013POPC   C2B63884  22.167  18.841   6.764
 5013POPC   C3B63885  22.219  18.816   7.064
 5013POPC   C4B63886  22.136  18.856   7.364
 5014POPC   NC363887  29.142  28.332   5.564
 5014POPC   PO463888  29.103  28.348   5.864
 5014POPC   GL163889  29.153  28.379   6.164
 5014POPC   GL263890  29.152  28.498   6.164
 5014POPC   C1A63891  29.168  28.384   6.464
 5014POPC   D2A63892  29.167  28.370   6.764
 5014POPC   C3A63893  29.190  28.338   7.064
 5014POPC   C4A63894  29.140  28.370   7.364
 5014POPC   C1B63895  29.065  28.625   6.464
 5014POPC   C2B63896  29.117  28.636   6.764
 5014POPC   C3B63897  29.067  28.622   7.064
 5014POPC   C4B63898  29.121  28.610   7.364
 5015POPC   NC363899   0.479  36.134   5.564
 5015POPC   PO463900   0.438  36.107   5.864
 5015POPC   GL163901   0.435  36.153   6.164
 5015POPC   GL263902   0.295  36.163   6.164
 5015POPC   C1A63903   0.420  36.097   6.464
 5015POPC   D2A63904   0.469  36.157   6.764
 5015POPC   C3A63905   0.390  36.079   7.064
 5015POPC   C4A63906   0.455  36.117   7.364
 5015POPC   C1B63907   0.156  36.199   6.464
 5015POPC   C2B63908   0.230  36.214   6.764
 5015POPC   C3B63909   0.244  36.187   7.064
 5015POPC   C4B63910   0.224  36.165   7.364
 5016POPC   NC363911  13.667  29.146   5.564
 5016POPC   PO463912  13.584  29.195   5.864
 5016POPC   GL163913  13.669  29.112   6.164
 5016POPC   GL263914  13.717  29.284   6.164
 5016POPC   C1A63915  13.599  29.105   6.464
 5016POPC   D2A63916  13.640  29.112   6.764
 5016POPC   C3A63917  13.644  29.163   7.064
 5016POPC   C4A63918  13.598  29.099   7.364
 5016POPC   C1B63919  13.799  29.316   6.464
 5016POPC   C2B63920  13.778  29.376   6.764
 5016POPC   C3B63921  13.770  29.363   7.064
 5016POPC   C4B63922  13.777  29.304   7.364
 5017POPC   NC363923   0.435   2.816   5.564
 5017POPC   PO463924   0.412   2.746   5.864
 5017POPC   GL163925   0.400   2.785   6.164
 5017POPC   GL263926   0.552   2.883   6.164
 5017POPC   C1A63927   0.450   2.768   6.464
 5017POPC   D2A63928   0.442   2.786   6.764
 5017POPC   C3A63929   0.488   2.785   7.064
 5017POPC   C4A63930   0.454   2.723   7.364
 5017POPC   C1B63931   0.623   2.913   6.464
 5017POPC   C2B63932   0.624   2.895   6.764
 5017POPC   C3B63933   0.668   2.901   7.064
 5017POPC   C4B63934   0.680   2.887   7.364
 5018POPC   NC363935  11.253  43.132   5.564
 5018POPC   PO463936  11.251  43.119   5.864
 5018POPC   GL163937  11.301  43.151   6.164
 5018POPC   GL263938  11.418  43.149   6.164
 5018POPC   C1A63939  11.321  43.070   6.464
 5018POPC   D2A63940  11.266  43.115   6.764
 5018POPC   C3A63941  11.327  43.096   7.064
 5018POPC   C4A63942  11.273  43.147   7.364
 5018POPC   C1B63943  11.527  43.125   6.464
 5018POPC   C2B63944  11.524  43.142   6.764
 5018POPC   C3B63945  11.502  43.181   7.064
 5018POPC   C4B63946  11.497  43.129   7.364
 5019POPC   NC363947  21.343  19.816   5.564
 5019POPC   PO463948  21.349  19.875   5.864
 5019POPC   GL163949  21.402  19.837   6.164
 5019POPC   GL263950  21.343  19.970   6.164
 5019POPC   C1A63951  21.356  19.823   6.464
 5019POPC   D2A63952  21.404  19.875   6.764
 5019POPC   C3A63953  21.431  19.848   7.064
 5019POPC   C4A63954  21.389  19.882   7.364
 5019POPC   C1B63955  21.200  19.996   6.464
 5019POPC   C2B63956  21.247  20.066   6.764
 5019POPC   C3B63957  21.205  20.013   7.064
 5019POPC   C4B63958  21.284  20.043   7.364
 5020POPC   NC363959  19.067   9.016   5.564
 5020POPC   PO463960  19.098   8.963   5.864
 5020POPC   GL163961  19.092   8.937   6.164
 5020POPC   GL263962  19.013   9.044   6.164
 5020POPC   C1A63963  19.063   8.984   6.464
 5020POPC   D2A63964  19.096   8.936   6.764
 5020POPC   C3A63965  19.016   8.971   7.064
 5020POPC   C4A63966  19.048   8.947   7.364
 5020POPC   C1B63967  18.901   9.105   6.464
 5020POPC   C2B63968  18.853   9.133   6.764
 5020POPC   C3B63969  18.895   9.116   7.064
 5020POPC   C4B63970  18.909   9.112   7.364
 5021POPC   NC363971  17.542   8.155   5.564
 5021POPC   PO463972  17.527   8.204   5.864
 5021POPC   GL163973  17.517   8.219   6.164
 5021POPC   GL263974  17.431   8.121   6.164
 5021POPC   C1A63975  17.470   8.220   6.464
 5021POPC   D2A63976  17.530   8.167   6.764
 5021POPC   C3A63977  17.542   8.166   7.064
 5021POPC   C4A63978  17.476   8.240   7.364
 5021POPC   C1B63979  17.426   7.940   6.464
 5021POPC   C2B63980  17.422   7.997   6.764
 5021POPC   C3B63981  17.445   7.968   7.064
 5021POPC   C4B63982  17.428   7.906   7.364
 5022POPC   NC363983  31.460  32.275   5.564
 5022POPC   PO463984  31.510  32.273   5.864
 5022POPC   GL163985  31.486  32.257   6.164
 5022POPC   GL263986  31.534  32.220   6.164
 5022POPC   C1A63987  31.498  32.292   6.464
 5022POPC   D2A63988  31.501  32.264   6.764
 5022POPC   C3A63989  31.474  32.240   7.064
 5022POPC   C4A63990  31.433  32.298   7.364
 5022POPC   C1B63991  31.704  32.144   6.464
 5022POPC   C2B63992  31.719  32.132   6.764
 5022POPC   C3B63993  31.632  32.107   7.064
 5022POPC   C4B63994  31.729  32.078   7.364
 5023POPC   NC363995  23.674   5.836   5.564
 5023POPC   PO463996  23.697   5.864   5.864
 5023POPC   GL163997  23.718   5.854   6.164
 5023POPC   GL263998  23.674   6.020   6.164
 5023POPC   C1A63999  23.668   5.893   6.464
 5023POPC   D2A64000  23.738   5.819   6.764
 5023POPC   C3A64001  23.715   5.826   7.064
 5023POPC   C4A64002  23.681   5.841   7.364
 5023POPC   C1B64003  23.636   6.081   6.464
 5023POPC   C2B64004  23.659   6.137   6.764
 5023POPC   C3B64005  23.651   6.076   7.064
 5023POPC   C4B64006  23.639   6.146   7.364
 5024POPC   NC364007  36.116   1.967   5.564
 5024POPC   PO464008  36.174   1.953   5.864
 5024POPC   GL164009  36.113   1.944   6.164
 5024POPC   GL264010  36.101   1.890   6.164
 5024POPC   C1A64011  36.132   1.941   6.464
 5024POPC   D2A64012  36.131   1.959   6.764
 5024POPC   C3A64013  36.113   1.978   7.064
 5024POPC   C4A64014  36.090   1.993   7.364
 5024POPC   C1B64015  35.978   1.752   6.464
 5024POPC   C2B64016  35.940   1.826   6.764
 5024POPC   C3B64017  35.992   1.816   7.064
 5024POPC   C4B64018  36.031   1.787   7.364
 5025POPC   NC364019  23.673   8.975   5.564
 5025POPC   PO464020  23.685   8.930   5.864
 5025POPC   GL164021  23.752   8.927   6.164
 5025POPC   GL264022  23.733   9.125   6.164
 5025POPC   C1A64023  23.738   8.994   6.464
 5025POPC   D2A64024  23.758   8.985   6.764
 5025POPC   C3A64025  23.689   8.939   7.064
 5025POPC   C4A64026  23.740   8.976   7.364
 5025POPC   C1B64027  23.673   9.203   6.464
 5025POPC   C2B64028  23.673   9.226   6.764
 5025POPC   C3B64029  23.647   9.177   7.064
 5025POPC   C4B64030  23.654   9.180   7.364
 5026POPC   NC364031  39.233  33.758   5.564
 5026POPC   PO464032  39.243  33.759   5.864
 5026POPC   GL164033  39.191  33.798   6.164
 5026POPC   GL264034  39.283  33.922   6.164
 5026POPC   C1A64035  39.231  33.850   6.464
 5026POPC   D2A64036  39.223  33.796   6.764
 5026POPC   C3A64037  39.239  33.777   7.064
 5026POPC   C4A64038  39.227  33.818   7.364
 5026POPC   C1B64039  39.296  33.996   6.464
 5026POPC   C2B64040  39.316  33.995   6.764
 5026POPC   C3B64041  39.306  34.003   7.064
 5026POPC   C4B64042  39.340  34.089   7.364
 5027POPC   NC364043   2.779  17.499   5.564
 5027POPC   PO464044   2.811  17.470   5.864
 5027POPC   GL164045   2.748  17.522   6.164
 5027POPC   GL264046   2.767  17.622   6.164
 5027POPC   C1A64047   2.783  17.506   6.464
 5027POPC   D2A64048   2.764  17.548   6.764
 5027POPC   C3A64049   2.727  17.506   7.064
 5027POPC   C4A64050   2.797  17.482   7.364
 5027POPC   C1B64051   2.764  17.730   6.464
 5027POPC   C2B64052   2.754  17.748   6.764
 5027POPC   C3B64053   2.825  17.740   7.064
 5027POPC   C4B64054   2.757  17.792   7.364
 5028POPC   NC364055  43.152  30.648   5.564
 5028POPC   PO464056  43.082  30.728   5.864
 5028POPC   GL164057  43.087  30.718   6.164
 5028POPC   GL264058  43.193  30.624   6.164
 5028POPC   C1A64059  43.103  30.739   6.464
 5028POPC   D2A64060  43.082  30.732   6.764
 5028POPC   C3A64061  43.153  30.687   7.064
 5028POPC   C4A64062  43.103  30.739   7.364
 5028POPC   C1B64063  43.355  30.565   6.464
 5028POPC   C2B64064  43.310  30.621   6.764
 5028POPC   C3B64065  43.330  30.587   7.064
 5028POPC   C4B64066  43.329  30.614   7.364
 5029POPC   NC364067   0.456  23.697   5.564
 5029POPC   PO464068   0.421  23.694   5.864
 5029POPC   GL164069   0.452  23.740   6.164
 5029POPC   GL264070   0.348  23.716   6.164
 5029POPC   C1A64071   0.431  23.711   6.464
 5029POPC   D2A64072   0.449  23.684   6.764
 5029POPC   C3A64073   0.406  23.753   7.064
 5029POPC   C4A64074   0.396  23.763   7.364
 5029POPC   C1B64075   0.181  23.783   6.464
 5029POPC   C2B64076   0.163  23.741   6.764
 5029POPC   C3B64077   0.166  23.781   7.064
 5029POPC   C4B64078   0.187  23.804   7.364
 5030POPC   NC364079  39.181  13.657   5.564
 5030POPC   PO464080  39.223  13.656   5.864
 5030POPC   GL164081  39.195  13.656   6.164
 5030POPC   GL264082  39.070  13.648   6.164
 5030POPC   C1A64083  39.221  13.603   6.464
 5030POPC   D2A64084  39.264  13.648   6.764
 5030POPC   C3A64085  39.224  13.578   7.064
 5030POPC   C4A64086  39.185  13.612   7.364
 5030POPC   C1B64087  38.934  13.599   6.464
 5030POPC   C2B64088  38.994  13.625   6.764
 5030POPC   C3B64089  38.954  13.606   7.064
 5030POPC   C4B64090  38.937  13.557   7.364
 5031POPC   NC364091  36.111  17.465   5.564
 5031POPC   PO464092  36.161  17.524   5.864
 5031POPC   GL164093  36.143  17.551   6.164
 5031POPC   GL264094  36.001  17.649   6.164
 5031POPC   C1A64095  36.140  17.514   6.464
 5031POPC   D2A64096  36.110  17.516   6.764
 5031POPC   C3A64097  36.098  17.504   7.064
 5031POPC   C4A64098  36.092  17.529   7.364
 5031POPC   C1B64099  35.945  17.704   6.464
 5031POPC   C2B64100  35.991  17.672   6.764
 5031POPC   C3B64101  35.984  17.729   7.064
 5031POPC   C4B64102  35.953  17.663   7.364
 5032POPC   NC364103   8.240  14.372   5.564
 5032POPC   PO464104   8.173  14.404   5.864
 5032POPC   GL164105   8.189  14.354   6.164
 5032POPC   GL264106   8.113  14.480   6.164
 5032POPC   C1A64107   8.229  14.447   6.464
 5032POPC   D2A64108   8.235  14.366   6.764
 5032POPC   C3A64109   8.148  14.448   7.064
 5032POPC   C4A64110   8.173  14.370   7.364
 5032POPC   C1B64111   8.172  14.601   6.464
 5032POPC   C2B64112   8.090  14.684   6.764
 5032POPC   C3B64113   8.080  14.659   7.064
 5032POPC   C4B64114   8.108  14.681   7.364
 5033POPC   NC364115   4.334  37.642   5.564
 5033POPC   PO464116   4.293  37.724   5.864
 5033POPC   GL164117   4.359  37.717   6.164
 5033POPC   GL264118   4.295  37.767   6.164
 5033POPC   C1A64119   4.318  37.675   6.464
 5033POPC   D2A64120   4.296  37.661   6.764
 5033POPC   C3A64121   4.361  37.630   7.064
 5033POPC   C4A64122   4.328  37.664   7.364
 5033POPC   C1B64123   4.266  37.897   6.464
 5033POPC   C2B64124   4.236  37.912   6.764
 5033POPC   C3B64125   4.232  37.906   7.064
 5033POPC   C4B64126   4.248  37.878   7.364
 5034POPC   NC364127   7.377  26.790   5.564
 5034POPC   PO464128   7.383  26.777   5.864
 5034POPC   GL164129   7.451  26.849   6.164
 5034POPC   GL264130   7.354  26.698   6.164
 5034POPC   C1A64131   7.421  26.809   6.464
 5034POPC   D2A64132   7.407  26.830   6.764
 5034POPC   C3A64133   7.410  26.782   7.064
 5034POPC   C4A64134   7.455  26.849   7.364
 5034POPC   C1B64135   7.289  26.586   6.464
 5034POPC   C2B64136   7.250  26.572   6.764
 5034POPC   C3B64137   7.266  26.621   7.064
 5034POPC   C4B64138   7.279  26.577   7.364
 5035POPC   NC364139   4.277  28.395   5.564
 5035POPC   PO464140   4.360  28.344   5.864
 5035POPC   GL164141   4.345  28.346   6.164
 5035POPC   GL264142   4.186  28.459   6.164
 5035POPC   C1A64143   4.339  28.334   6.464
 5035POPC   D2A64144   4.296  28.339   6.764
 5035POPC   C3A64145   4.275  28.418   7.064
 5035POPC   C4A64146   4.337  28.342   7.364
 5035POPC   C1B64147   4.130  28.483   6.464
 5035POPC   C2B64148   4.096  28.440   6.764
 5035POPC   C3B64149   4.107  28.500   7.064
 5035POPC   C4B64150   4.080  28.409   7.364
 5036POPC   NC364151  34.554  44.672   5.564
 5036POPC   PO464152  34.570  44.668   5.864
 5036POPC   GL164153  34.608  44.671   6.164
 5036POPC   GL264154  34.530  44.713   6.164
 5036POPC   C1A64155  34.608  44.635   6.464
 5036POPC   D2A64156  34.624  44.690   6.764
 5036POPC   C3A64157  34.613  44.710   7.064
 5036POPC   C4A64158  34.612  44.665   7.364
 5036POPC   C1B64159  34.395  44.778   6.464
 5036POPC   C2B64160  34.362  44.815   6.764
 5036POPC   C3B64161  34.399  44.826   7.064
 5036POPC   C4B64162  34.419  44.844   7.364
 5037POPC   NC364163   5.087  29.179   5.564
 5037POPC   PO464164   5.115  29.108   5.864
 5037POPC   GL164165   5.114  29.109   6.164
 5037POPC   GL264166   5.161  29.037   6.164
 5037POPC   C1A64167   5.118  29.110   6.464
 5037POPC   D2A64168   5.114  29.136   6.764
 5037POPC   C3A64169   5.081  29.124   7.064
 5037POPC   C4A64170   5.097  29.109   7.364
 5037POPC   C1B64171   5.160  28.873   6.464
 5037POPC   C2B64172   5.110  28.878   6.764
 5037POPC   C3B64173   5.118  28.868   7.064
 5037POPC   C4B64174   5.141  28.871   7.364
 5038POPC   NC364175  33.022  23.675   5.564
 5038POPC   PO464176  33.031  23.748   5.864
 5038POPC   GL164177  33.021  23.742   6.164
 5038POPC   GL264178  33.166  23.631   6.164
 5038POPC   C1A64179  32.994  23.664   6.464
 5038POPC   D2A64180  33.006  23.686   6.764
 5038POPC   C3A64181  32.994  23.724   7.064
 5038POPC   C4A64182  33.024  23.760   7.364
 5038POPC   C1B64183  33.215  23.654   6.464
 5038POPC   C2B64184  33.290  23.611   6.764
 5038POPC   C3B64185  33.247  23.599   7.064
 5038POPC   C4B64186  33.306  23.644   7.364
 5039POPC   NC364187  18.250   5.833   5.564
 5039POPC   PO464188  18.260   5.879   5.864
 5039POPC   GL164189  18.287   5.912   6.164
 5039POPC   GL264190  18.220   5.784   6.164
 5039POPC   C1A64191  18.295   5.862   6.464
 5039POPC   D2A64192  18.328   5.902   6.764
 5039POPC   C3A64193  18.315   5.874   7.064
 5039POPC   C4A64194  18.281   5.880   7.364
 5039POPC   C1B64195  18.109   5.694   6.464
 5039POPC   C2B64196  18.028   5.766   6.764
 5039POPC   C3B64197  18.100   5.786   7.064
 5039POPC   C4B64198  18.052   5.743   7.364
 5040POPC   NC364199  24.493  18.325   5.564
 5040POPC   PO464200  24.508  18.287   5.864
 5040POPC   GL164201  24.481  18.245   6.164
 5040POPC   GL264202  24.429  18.239   6.164
 5040POPC   C1A64203  24.452  18.248   6.464
 5040POPC   D2A64204  24.504  18.269   6.764
 5040POPC   C3A64205  24.449  18.299   7.064
 5040POPC   C4A64206  24.461  18.300   7.364
 5040POPC   C1B64207  24.321  18.114   6.464
 5040POPC   C2B64208  24.256  18.079   6.764
 5040POPC   C3B64209  24.296  18.085   7.064
 5040POPC   C4B64210  24.275  18.077   7.364
 5041POPC   NC364211  39.219  11.314   5.564
 5041POPC   PO464212  39.230  11.297   5.864
 5041POPC   GL164213  39.239  11.319   6.164
 5041POPC   GL264214  39.314  11.283   6.164
 5041POPC   C1A64215  39.259  11.259   6.464
 5041POPC   D2A64216  39.210  11.261   6.764
 5041POPC   C3A64217  39.209  11.348   7.064
 5041POPC   C4A64218  39.246  11.274   7.364
 5041POPC   C1B64219  39.475  11.311   6.464
 5041POPC   C2B64220  39.493  11.269   6.764
 5041POPC   C3B64221  39.527  11.331   7.064
 5041POPC   C4B64222  39.441  11.260   7.364
 5042POPC   NC364223  26.787   5.871   5.564
 5042POPC   PO464224  26.801   5.903   5.864
 5042POPC   GL164225  26.798   5.878   6.164
 5042POPC   GL264226  26.877   5.781   6.164
 5042POPC   C1A64227  26.823   5.821   6.464
 5042POPC   D2A64228  26.830   5.864   6.764
 5042POPC   C3A64229  26.847   5.857   7.064
 5042POPC   C4A64230  26.836   5.859   7.364
 5042POPC   C1B64231  26.973   5.687   6.464
 5042POPC   C2B64232  27.046   5.715   6.764
 5042POPC   C3B64233  27.017   5.671   7.064
 5042POPC   C4B64234  26.988   5.692   7.364
 5043POPC   NC364235  33.783   2.031   5.564
 5043POPC   PO464236  33.804   2.028   5.864
 5043POPC   GL164237  33.779   2.009   6.164
 5043POPC   GL264238  33.863   1.906   6.164
 5043POPC   C1A64239  33.803   2.030   6.464
 5043POPC   D2A64240  33.769   1.973   6.764
 5043POPC   C3A64241  33.836   2.023   7.064
 5043POPC   C4A64242  33.808   2.033   7.364
 5043POPC   C1B64243  33.875   1.772   6.464
 5043POPC   C2B64244  33.854   1.779   6.764
 5043POPC   C3B64245  33.862   1.753   7.064
 5043POPC   C4B64246  33.851   1.741   7.364
 5044POPC   NC364247  24.527  27.569   5.564
 5044POPC   PO464248  24.524  27.605   5.864
 5044POPC   GL164249  24.444  27.639   6.164
 5044POPC   GL264250  24.437  27.517   6.164
 5044POPC   C1A64251  24.474  27.637   6.464
 5044POPC   D2A64252  24.452  27.626   6.764
 5044POPC   C3A64253  24.467  27.621   7.064
 5044POPC   C4A64254  24.445  27.577   7.364
 5044POPC   C1B64255  24.389  27.316   6.464
 5044POPC   C2B64256  24.406  27.305   6.764
 5044POPC   C3B64257  24.434  27.314   7.064
 5044POPC   C4B64258  24.468  27.359   7.364
 5045POPC   NC364259   0.453  36.906   5.564
 5045POPC   PO464260   0.438  36.889   5.864
 5045POPC   GL164261   0.403  36.907   6.164
 5045POPC   GL264262   0.537  36.975   6.164
 5045POPC   C1A64263   0.467  36.861   6.464
 5045POPC   D2A64264   0.399  36.859   6.764
 5045POPC   C3A64265   0.394  36.911   7.064
 5045POPC   C4A64266   0.450  36.918   7.364
 5045POPC   C1B64267   0.651  36.985   6.464
 5045POPC   C2B64268   0.675  36.950   6.764
 5045POPC   C3B64269   0.678  36.983   7.064
 5045POPC   C4B64270   0.709  36.930   7.364
 5046POPC   NC364271  12.823  18.296   5.564
 5046POPC   PO464272  12.852  18.257   5.864
 5046POPC   GL164273  12.821  18.246   6.164
 5046POPC   GL264274  12.710  18.320   6.164
 5046POPC   C1A64275  12.854  18.323   6.464
 5046POPC   D2A64276  12.809  18.246   6.764
 5046POPC   C3A64277  12.868  18.318   7.064
 5046POPC   C4A64278  12.874  18.236   7.364
 5046POPC   C1B64279  12.676  18.448   6.464
 5046POPC   C2B64280  12.599  18.389   6.764
 5046POPC   C3B64281  12.654  18.403   7.064
 5046POPC   C4B64282  12.603  18.368   7.364
 5047POPC   NC364283  26.012  24.469   5.564
 5047POPC   PO464284  26.022  24.511   5.864
 5047POPC   GL164285  26.026  24.519   6.164
 5047POPC   GL264286  26.079  24.345   6.164
 5047POPC   C1A64287  26.076  24.510   6.464
 5047POPC   D2A64288  26.081  24.472   6.764
 5047POPC   C3A64289  26.047  24.509   7.064
 5047POPC   C4A64290  26.003  24.473   7.364
 5047POPC   C1B64291  26.110  24.204   6.464
 5047POPC   C2B64292  26.151  24.203   6.764
 5047POPC   C3B64293  26.159  24.298   7.064
 5047POPC   C4B64294  26.150  24.216   7.364
 5048POPC   NC364295  15.160  44.664   5.564
 5048POPC   PO464296  15.216  44.678   5.864
 5048POPC   GL164297  15.218  44.656   6.164
 5048POPC   GL264298  15.190  44.549   6.164
 5048POPC   C1A64299  15.141  44.654   6.464
 5048POPC   D2A64300  15.164  44.670   6.764
 5048POPC   C3A64301  15.228  44.651   7.064
 5048POPC   C4A64302  15.225  44.623   7.364
 5048POPC   C1B64303  15.219  44.415   6.464
 5048POPC   C2B64304  15.251  44.397   6.764
 5048POPC   C3B64305  15.221  44.391   7.064
 5048POPC   C4B64306  15.283  44.421   7.364
 5049POPC   NC364307  30.746  27.575   5.564
 5049POPC   PO464308  30.668  27.615   5.864
 5049POPC   GL164309  30.725  27.586   6.164
 5049POPC   GL264310  30.710  27.684   6.164
 5049POPC   C1A64311  30.705  27.551   6.464
 5049POPC   D2A64312  30.704  27.595   6.764
 5049POPC   C3A64313  30.688  27.610   7.064
 5049POPC   C4A64314  30.661  27.601   7.364
 5049POPC   C1B64315  30.731  27.890   6.464
 5049POPC   C2B64316  30.641  27.821   6.764
 5049POPC   C3B64317  30.640  27.859   7.064
 5049POPC   C4B64318  30.701  27.800   7.364
 5050POPC   NC364319  32.262  15.996   5.564
 5050POPC   PO464320  32.261  15.948   5.864
 5050POPC   GL164321  32.279  15.943   6.164
 5050POPC   GL264322  32.283  16.047   6.164
 5050POPC   C1A64323  32.257  15.963   6.464
 5050POPC   D2A64324  32.269  15.985   6.764
 5050POPC   C3A64325  32.296  15.925   7.064
 5050POPC   C4A64326  32.264  15.964   7.364
 5050POPC   C1B64327  32.388  16.202   6.464
 5050POPC   C2B64328  32.356  16.179   6.764
 5050POPC   C3B64329  32.364  16.164   7.064
 5050POPC   C4B64330  32.376  16.156   7.364
 5051POPC   NC364331  19.832  32.199   5.564
 5051POPC   PO464332  19.876  32.226   5.864
 5051POPC   GL164333  19.831  32.232   6.164
 5051POPC   GL264334  19.966  32.316   6.164
 5051POPC   C1A64335  19.818  32.280   6.464
 5051POPC   D2A64336  19.879  32.210   6.764
 5051POPC   C3A64337  19.864  32.251   7.064
 5051POPC   C4A64338  19.851  32.229   7.364
 5051POPC   C1B64339  20.058  32.332   6.464
 5051POPC   C2B64340  20.051  32.278   6.764
 5051POPC   C3B64341  20.079  32.311   7.064
 5051POPC   C4B64342  20.093  32.359   7.364
 5052POPC   NC364343  20.579   2.799   5.564
 5052POPC   PO464344  20.578   2.770   5.864
 5052POPC   GL164345  20.643   2.786   6.164
 5052POPC   GL264346  20.742   2.822   6.164
 5052POPC   C1A64347  20.595   2.754   6.464
 5052POPC   D2A64348  20.631   2.720   6.764
 5052POPC   C3A64349  20.652   2.746   7.064
 5052POPC   C4A64350  20.616   2.801   7.364
 5052POPC   C1B64351  20.820   2.866   6.464
 5052POPC   C2B64352  20.808   2.910   6.764
 5052POPC   C3B64353  20.783   2.894   7.064
 5052POPC   C4B64354  20.809   2.891   7.364
 5053POPC   NC364355   0.416  40.800   5.564
 5053POPC   PO464356   0.452  40.790   5.864
 5053POPC   GL164357   0.476  40.781   6.164
 5053POPC   GL264358   0.399  40.895   6.164
 5053POPC   C1A64359   0.420  40.733   6.464
 5053POPC   D2A64360   0.426  40.819   6.764
 5053POPC   C3A64361   0.458  40.771   7.064
 5053POPC   C4A64362   0.469  40.783   7.364
 5053POPC   C1B64363   0.451  40.993   6.464
 5053POPC   C2B64364   0.404  41.079   6.764
 5053POPC   C3B64365   0.467  41.054   7.064
 5053POPC   C4B64366   0.454  41.038   7.364
 5054POPC   NC364367  40.769  26.809   5.564
 5054POPC   PO464368  40.810  26.803   5.864
 5054POPC   GL164369  40.822  26.851   6.164
 5054POPC   GL264370  40.722  26.981   6.164
 5054POPC   C1A64371  40.769  26.778   6.464
 5054POPC   D2A64372  40.829  26.837   6.764
 5054POPC   C3A64373  40.831  26.832   7.064
 5054POPC   C4A64374  40.801  26.843   7.364
 5054POPC   C1B64375  40.714  27.097   6.464
 5054POPC   C2B64376  40.785  27.019   6.764
 5054POPC   C3B64377  40.747  27.018   7.064
 5054POPC   C4B64378  40.695  27.067   7.364
 5055POPC   NC364379   1.259  26.768   5.564
 5055POPC   PO464380   1.249  26.862   5.864
 5055POPC   GL164381   1.245  26.862   6.164
 5055POPC   GL264382   1.084  26.800   6.164
 5055POPC   C1A64383   1.176  26.788   6.464
 5055POPC   D2A64384   1.166  26.840   6.764
 5055POPC   C3A64385   1.260  26.779   7.064
 5055POPC   C4A64386   1.193  26.829   7.364
 5055POPC   C1B64387   0.995  26.699   6.464
 5055POPC   C2B64388   0.974  26.688   6.764
 5055POPC   C3B64389   0.948  26.731   7.064
 5055POPC   C4B64390   1.018  26.690   7.364
 5056POPC   NC364391  26.858  12.884   5.564
 5056POPC   PO464392  26.803  12.826   5.864
 5056POPC   GL164393  26.809  12.844   6.164
 5056POPC   GL264394  26.891  12.794   6.164
 5056POPC   C1A64395  26.804  12.856   6.464
 5056POPC   D2A64396  26.779  12.810   6.764
 5056POPC   C3A64397  26.823  12.828   7.064
 5056POPC   C4A64398  26.828  12.812   7.364
 5056POPC   C1B64399  26.934  12.624   6.464
 5056POPC   C2B64400  27.012  12.643   6.764
 5056POPC   C3B64401  26.986  12.671   7.064
 5056POPC   C4B64402  26.953  12.711   7.364
 5057POPC   NC364403  42.301   8.236   5.564
 5057POPC   PO464404  42.379   8.210   5.864
 5057POPC   GL164405  42.287   8.210   6.164
 5057POPC   GL264406  42.268   8.285   6.164
 5057POPC   C1A64407  42.348   8.160   6.464
 5057POPC   D2A64408  42.372   8.205   6.764
 5057POPC   C3A64409  42.365   8.150   7.064
 5057POPC   C4A64410  42.374   8.170   7.364
 5057POPC   C1B64411  42.209   8.400   6.464
 5057POPC   C2B64412  42.200   8.440   6.764
 5057POPC   C3B64413  42.218   8.379   7.064
 5057POPC   C4B64414  42.189   8.353   7.364
 5058POPC   NC364415  34.565  12.867   5.564
 5058POPC   PO464416  34.543  12.840   5.864
 5058POPC   GL164417  34.551  12.866   6.164
 5058POPC   GL264418  34.465  12.792   6.164
 5058POPC   C1A64419  34.612  12.822   6.464
 5058POPC   D2A64420  34.557  12.891   6.764
 5058POPC   C3A64421  34.570  12.850   7.064
 5058POPC   C4A64422  34.532  12.812   7.364
 5058POPC   C1B64423  34.330  12.761   6.464
 5058POPC   C2B64424  34.377  12.678   6.764
 5058POPC   C3B64425  34.345  12.750   7.064
 5058POPC   C4B64426  34.350  12.717   7.364
 5059POPC   NC364427  31.435  10.520   5.564
 5059POPC   PO464428  31.494  10.523   5.864
 5059POPC   GL164429  31.452  10.531   6.164
 5059POPC   GL264430  31.636  10.521   6.164
 5059POPC   C1A64431  31.443  10.519   6.464
 5059POPC   D2A64432  31.513  10.545   6.764
 5059POPC   C3A64433  31.444  10.566   7.064
 5059POPC   C4A64434  31.440  10.505   7.364
 5059POPC   C1B64435  31.674  10.452   6.464
 5059POPC   C2B64436  31.701  10.438   6.764
 5059POPC   C3B64437  31.743  10.447   7.064
 5059POPC   C4B64438  31.715  10.435   7.364
 5060POPC   NC364439  11.344  17.464   5.564
 5060POPC   PO464440  11.256  17.464   5.864
 5060POPC   GL164441  11.258  17.531   6.164
 5060POPC   GL264442  11.432  17.490   6.164
 5060POPC   C1A64443  11.291  17.498   6.464
 5060POPC   D2A64444  11.338  17.492   6.764
 5060POPC   C3A64445  11.279  17.534   7.064
 5060POPC   C4A64446  11.350  17.460   7.364
 5060POPC   C1B64447  11.571  17.492   6.464
 5060POPC   C2B64448  11.551  17.477   6.764
 5060POPC   C3B64449  11.546  17.482   7.064
 5060POPC   C4B64450  11.572  17.426   7.364
 5061POPC   NC364451  24.484   1.177   5.564
 5061POPC   PO464452  24.441   1.193   5.864
 5061POPC   GL164453  24.472   1.169   6.164
 5061POPC   GL264454  24.565   1.317   6.164
 5061POPC   C1A64455  24.444   1.199   6.464
 5061POPC   D2A64456  24.519   1.197   6.764
 5061POPC   C3A64457  24.486   1.262   7.064
 5061POPC   C4A64458  24.505   1.243   7.364
 5061POPC   C1B64459  24.639   1.433   6.464
 5061POPC   C2B64460  24.583   1.409   6.764
 5061POPC   C3B64461  24.667   1.464   7.064
 5061POPC   C4B64462  24.594   1.466   7.364
 5062POPC   NC364463   5.879  22.965   5.564
 5062POPC   PO464464   5.858  22.899   5.864
 5062POPC   GL164465   5.831  22.947   6.164
 5062POPC   GL264466   5.770  23.098   6.164
 5062POPC   C1A64467   5.855  22.898   6.464
 5062POPC   D2A64468   5.854  22.943   6.764
 5062POPC   C3A64469   5.822  22.964   7.064
 5062POPC   C4A64470   5.857  22.980   7.364
 5062POPC   C1B64471   5.736  23.168   6.464
 5062POPC   C2B64472   5.800  23.156   6.764
 5062POPC   C3B64473   5.752  23.167   7.064
 5062POPC   C4B64474   5.719  23.143   7.364
 5063POPC   NC364475  29.903  15.985   5.564
 5063POPC   PO464476  29.935  15.982   5.864
 5063POPC   GL164477  29.920  15.970   6.164
 5063POPC   GL264478  29.868  15.815   6.164
 5063POPC   C1A64479  29.935  15.966   6.464
 5063POPC   D2A64480  29.886  15.918   6.764
 5063POPC   C3A64481  29.898  15.917   7.064
 5063POPC   C4A64482  29.949  15.969   7.364
 5063POPC   C1B64483  29.869  15.699   6.464
 5063POPC   C2B64484  29.906  15.707   6.764
 5063POPC   C3B64485  29.872  15.675   7.064
 5063POPC   C4B64486  29.846  15.705   7.364
 5064POPC   NC364487  17.515   9.734   5.564
 5064POPC   PO464488  17.556   9.767   5.864
 5064POPC   GL164489  17.473   9.731   6.164
 5064POPC   GL264490  17.456   9.873   6.164
 5064POPC   C1A64491  17.494   9.789   6.464
 5064POPC   D2A64492  17.554   9.747   6.764
 5064POPC   C3A64493  17.550   9.722   7.064
 5064POPC   C4A64494  17.555   9.721   7.364
 5064POPC   C1B64495  17.345   9.953   6.464
 5064POPC   C2B64496  17.320   9.906   6.764
 5064POPC   C3B64497  17.293   9.958   7.064
 5064POPC   C4B64498  17.305   9.958   7.364
 5065POPC   NC364499  26.787   1.982   5.564
 5065POPC   PO464500  26.842   2.037   5.864
 5065POPC   GL164501  26.800   2.007   6.164
 5065POPC   GL264502  26.675   1.905   6.164
 5065POPC   C1A64503  26.792   1.964   6.464
 5065POPC   D2A64504  26.834   1.972   6.764
 5065POPC   C3A64505  26.797   1.994   7.064
 5065POPC   C4A64506  26.797   1.990   7.364
 5065POPC   C1B64507  26.586   1.923   6.464
 5065POPC   C2B64508  26.579   1.927   6.764
 5065POPC   C3B64509  26.597   1.931   7.064
 5065POPC   C4B64510  26.588   1.918   7.364
 5066POPC   NC364511  44.688   7.411   5.564
 5066POPC   PO464512  44.695   7.396   5.864
 5066POPC   GL164513  44.675   7.449   6.164
 5066POPC   GL264514  44.529   7.474   6.164
 5066POPC   C1A64515  44.684   7.393   6.464
 5066POPC   D2A64516  44.655   7.394   6.764
 5066POPC   C3A64517  44.662   7.385   7.064
 5066POPC   C4A64518  44.623   7.469   7.364
 5066POPC   C1B64519  44.454   7.532   6.464
 5066POPC   C2B64520  44.434   7.597   6.764
 5066POPC   C3B64521  44.400   7.581   7.064
 5066POPC   C4B64522  44.421   7.546   7.364
 5067POPC   NC364523  32.281  43.120   5.564
 5067POPC   PO464524  32.249  43.067   5.864
 5067POPC   GL164525  32.294  43.120   6.164
 5067POPC   GL264526  32.164  43.178   6.164
 5067POPC   C1A64527  32.293  43.077   6.464
 5067POPC   D2A64528  32.251  43.136   6.764
 5067POPC   C3A64529  32.211  43.101   7.064
 5067POPC   C4A64530  32.238  43.157   7.364
 5067POPC   C1B64531  32.057  43.228   6.464
 5067POPC   C2B64532  32.058  43.229   6.764
 5067POPC   C3B64533  32.045  43.312   7.064
 5067POPC   C4B64534  32.040  43.282   7.364
 5068POPC   NC364535  12.849  33.828   5.564
 5068POPC   PO464536  12.854  33.836   5.864
 5068POPC   GL164537  12.819  33.818   6.164
 5068POPC   GL264538  12.791  33.691   6.164
 5068POPC   C1A64539  12.875  33.814   6.464
 5068POPC   D2A64540  12.870  33.803   6.764
 5068POPC   C3A64541  12.852  33.785   7.064
 5068POPC   C4A64542  12.859  33.848   7.364
 5068POPC   C1B64543  12.683  33.610   6.464
 5068POPC   C2B64544  12.742  33.562   6.764
 5068POPC   C3B64545  12.754  33.577   7.064
 5068POPC   C4B64546  12.716  33.547   7.364
 5069POPC   NC364547  31.480  20.628   5.564
 5069POPC   PO464548  31.505  20.655   5.864
 5069POPC   GL164549  31.491  20.578   6.164
 5069POPC   GL264550  31.580  20.698   6.164
 5069POPC   C1A64551  31.491  20.621   6.464
 5069POPC   D2A64552  31.476  20.625   6.764
 5069POPC   C3A64553  31.486  20.562   7.064
 5069POPC   C4A64554  31.438  20.616   7.364
 5069POPC   C1B64555  31.600  20.840   6.464
 5069POPC   C2B64556  31.580  20.829   6.764
 5069POPC   C3B64557  31.566  20.861   7.064
 5069POPC   C4B64558  31.569  20.788   7.364
 5070POPC   NC364559  39.276   8.975   5.564
 5070POPC   PO464560  39.246   8.967   5.864
 5070POPC   GL164561  39.192   8.944   6.164
 5070POPC   GL264562  39.180   9.024   6.164
 5070POPC   C1A64563  39.199   9.001   6.464
 5070POPC   D2A64564  39.224   8.980   6.764
 5070POPC   C3A64565  39.246   8.925   7.064
 5070POPC   C4A64566  39.268   8.977   7.364
 5070POPC   C1B64567  39.083   9.107   6.464
 5070POPC   C2B64568  39.074   9.153   6.764
 5070POPC   C3B64569  39.034   9.171   7.064
 5070POPC   C4B64570  39.052   9.146   7.364
 5071POPC   NC364571   5.882  28.412   5.564
 5071POPC   PO464572   5.908  28.408   5.864
 5071POPC   GL164573   5.871  28.393   6.164
 5071POPC   GL264574   5.773  28.470   6.164
 5071POPC   C1A64575   5.836  28.397   6.464
 5071POPC   D2A64576   5.893  28.387   6.764
 5071POPC   C3A64577   5.847  28.399   7.064
 5071POPC   C4A64578   5.910  28.355   7.364
 5071POPC   C1B64579   5.627  28.481   6.464
 5071POPC   C2B64580   5.658  28.471   6.764
 5071POPC   C3B64581   5.653  28.475   7.064
 5071POPC   C4B64582   5.700  28.488   7.364
 5072POPC   NC364583  16.683  21.408   5.564
 5072POPC   PO464584  16.712  21.380   5.864
 5072POPC   GL164585  16.699  21.340   6.164
 5072POPC   GL264586  16.824  21.424   6.164
 5072POPC   C1A64587  16.706  21.426   6.464
 5072POPC   D2A64588  16.719  21.410   6.764
 5072POPC   C3A64589  16.739  21.358   7.064
 5072POPC   C4A64590  16.698  21.381   7.364
 5072POPC   C1B64591  17.003  21.415   6.464
 5072POPC   C2B64592  16.994  21.394   6.764
 5072POPC   C3B64593  16.974  21.457   7.064
 5072POPC   C4B64594  16.936  21.415   7.364
 5073POPC   NC364595  16.728  29.143   5.564
 5073POPC   PO464596  16.774  29.177   5.864
 5073POPC   GL164597  16.756  29.101   6.164
 5073POPC   GL264598  16.823  29.292   6.164
 5073POPC   C1A64599  16.709  29.156   6.464
 5073POPC   D2A64600  16.746  29.100   6.764
 5073POPC   C3A64601  16.765  29.127   7.064
 5073POPC   C4A64602  16.737  29.113   7.364
 5073POPC   C1B64603  16.859  29.373   6.464
 5073POPC   C2B64604  16.798  29.371   6.764
 5073POPC   C3B64605  16.822  29.417   7.064
 5073POPC   C4B64606  16.828  29.368   7.364
 5074POPC   NC364607   7.396   2.794   5.564
 5074POPC   PO464608   7.378   2.754   5.864
 5074POPC   GL164609   7.409   2.738   6.164
 5074POPC   GL264610   7.310   2.881   6.164
 5074POPC   C1A64611   7.387   2.813   6.464
 5074POPC   D2A64612   7.381   2.751   6.764
 5074POPC   C3A64613   7.409   2.750   7.064
 5074POPC   C4A64614   7.444   2.763   7.364
 5074POPC   C1B64615   7.207   2.933   6.464
 5074POPC   C2B64616   7.242   2.923   6.764
 5074POPC   C3B64617   7.270   2.974   7.064
 5074POPC   C4B64618   7.208   2.913   7.364
 5075POPC   NC364619  13.588  11.333   5.564
 5075POPC   PO464620  13.605  11.302   5.864
 5075POPC   GL164621  13.607  11.349   6.164
 5075POPC   GL264622  13.735  11.170   6.164
 5075POPC   C1A64623  13.626  11.294   6.464
 5075POPC   D2A64624  13.602  11.316   6.764
 5075POPC   C3A64625  13.608  11.306   7.064
 5075POPC   C4A64626  13.579  11.283   7.364
 5075POPC   C1B64627  13.792  11.088   6.464
 5075POPC   C2B64628  13.783  11.082   6.764
 5075POPC   C3B64629  13.776  11.175   7.064
 5075POPC   C4B64630  13.822  11.141   7.364
 5076POPC   NC364631  10.562  32.979   5.564
 5076POPC   PO464632  10.504  33.062   5.864
 5076POPC   GL164633  10.513  33.001   6.164
 5076POPC   GL264634  10.634  32.990   6.164
 5076POPC   C1A64635  10.492  33.028   6.464
 5076POPC   D2A64636  10.558  32.995   6.764
 5076POPC   C3A64637  10.562  33.069   7.064
 5076POPC   C4A64638  10.541  32.993   7.364
 5076POPC   C1B64639  10.729  32.944   6.464
 5076POPC   C2B64640  10.734  32.943   6.764
 5076POPC   C3B64641  10.777  33.021   7.064
 5076POPC   C4B64642  10.819  32.959   7.364
 5077POPC   NC364643  26.019   7.440   5.564
 5077POPC   PO464644  26.023   7.437   5.864
 5077POPC   GL164645  26.007   7.449   6.164
 5077POPC   GL264646  25.941   7.341   6.164
 5077POPC   C1A64647  26.090   7.458   6.464
 5077POPC   D2A64648  25.994   7.397   6.764
 5077POPC   C3A64649  25.995   7.429   7.064
 5077POPC   C4A64650  26.062   7.438   7.364
 5077POPC   C1B64651  25.873   7.277   6.464
 5077POPC   C2B64652  25.851   7.210   6.764
 5077POPC   C3B64653  25.917   7.212   7.064
 5077POPC   C4B64654  25.858   7.226   7.364
 5078POPC   NC364655  43.843  15.207   5.564
 5078POPC   PO464656  43.845  15.219   5.864
 5078POPC   GL164657  43.901  15.155   6.164
 5078POPC   GL264658  43.825  15.047   6.164
 5078POPC   C1A64659  43.931  15.145   6.464
 5078POPC   D2A64660  43.860  15.160   6.764
 5078POPC   C3A64661  43.883  15.206   7.064
 5078POPC   C4A64662  43.894  15.166   7.364
 5078POPC   C1B64663  43.753  15.001   6.464
 5078POPC   C2B64664  43.738  14.938   6.764
 5078POPC   C3B64665  43.704  15.025   7.064
 5078POPC   C4B64666  43.696  14.987   7.364
 5079POPC   NC364667  33.073  10.491   5.564
 5079POPC   PO464668  33.040  10.523   5.864
 5079POPC   GL164669  33.072  10.492   6.164
 5079POPC   GL264670  32.981  10.612   6.164
 5079POPC   C1A64671  32.993  10.561   6.464
 5079POPC   D2A64672  33.004  10.508   6.764
 5079POPC   C3A64673  33.059  10.514   7.064
 5079POPC   C4A64674  33.019  10.546   7.364
 5079POPC   C1B64675  32.905  10.691   6.464
 5079POPC   C2B64676  32.868  10.718   6.764
 5079POPC   C3B64677  32.809  10.751   7.064
 5079POPC   C4B64678  32.845  10.739   7.364
 5080POPC   NC364679  28.348  14.389   5.564
 5080POPC   PO464680  28.365  14.396   5.864
 5080POPC   GL164681  28.342  14.373   6.164
 5080POPC   GL264682  28.241  14.419   6.164
 5080POPC   C1A64683  28.336  14.411   6.464
 5080POPC   D2A64684  28.417  14.373   6.764
 5080POPC   C3A64685  28.374  14.358   7.064
 5080POPC   C4A64686  28.397  14.417   7.364
 5080POPC   C1B64687  28.117  14.508   6.464
 5080POPC   C2B64688  28.098  14.500   6.764
 5080POPC   C3B64689  28.124  14.473   7.064
 5080POPC   C4B64690  28.158  14.477   7.364
 5081POPC   NC364691  39.255   2.797   5.564
 5081POPC   PO464692  39.217   2.733   5.864
 5081POPC   GL164693  39.194   2.772   6.164
 5081POPC   GL264694  39.125   2.868   6.164
 5081POPC   C1A64695  39.255   2.737   6.464
 5081POPC   D2A64696  39.238   2.795   6.764
 5081POPC   C3A64697  39.230   2.760   7.064
 5081POPC   C4A64698  39.182   2.729   7.364
 5081POPC   C1B64699  39.007   2.976   6.464
 5081POPC   C2B64700  39.041   2.886   6.764
 5081POPC   C3B64701  39.000   2.957   7.064
 5081POPC   C4B64702  39.009   2.890   7.364
 5082POPC   NC364703   5.074  41.568   5.564
 5082POPC   PO464704   5.058  41.607   5.864
 5082POPC   GL164705   5.045  41.586   6.164
 5082POPC   GL264706   5.181  41.451   6.164
 5082POPC   C1A64707   5.132  41.530   6.464
 5082POPC   D2A64708   5.130  41.558   6.764
 5082POPC   C3A64709   5.104  41.560   7.064
 5082POPC   C4A64710   5.135  41.552   7.364
 5082POPC   C1B64711   5.283  41.443   6.464
 5082POPC   C2B64712   5.358  41.436   6.764
 5082POPC   C3B64713   5.318  41.467   7.064
 5082POPC   C4B64714   5.361  41.430   7.364
 5083POPC   NC364715   1.218  12.114   5.564
 5083POPC   PO464716   1.261  12.055   5.864
 5083POPC   GL164717   1.167  12.027   6.164
 5083POPC   GL264718   1.165  11.928   6.164
 5083POPC   C1A64719   1.180  12.029   6.464
 5083POPC   D2A64720   1.225  12.044   6.764
 5083POPC   C3A64721   1.216  12.044   7.064
 5083POPC   C4A64722   1.172  12.101   7.364
 5083POPC   C1B64723   1.152  11.856   6.464
 5083POPC   C2B64724   1.158  11.832   6.764
 5083POPC   C3B64725   1.136  11.809   7.064
 5083POPC   C4B64726   1.103  11.850   7.364
 5084POPC   NC364727  11.260   0.409   5.564
 5084POPC   PO464728  11.290   0.412   5.864
 5084POPC   GL164729  11.292   0.481   6.164
 5084POPC   GL264730  11.381   0.536   6.164
 5084POPC   C1A64731  11.308   0.389   6.464
 5084POPC   D2A64732  11.335   0.471   6.764
 5084POPC   C3A64733  11.345   0.431   7.064
 5084POPC   C4A64734  11.337   0.406   7.364
 5084POPC   C1B64735  11.529   0.546   6.464
 5084POPC   C2B64736  11.525   0.566   6.764
 5084POPC   C3B64737  11.544   0.523   7.064
 5084POPC   C4B64738  11.554   0.588   7.364
 5085POPC   NC364739  23.688  37.713   5.564
 5085POPC   PO464740  23.691  37.660   5.864
 5085POPC   GL164741  23.668  37.720   6.164
 5085POPC   GL264742  23.822  37.749   6.164
 5085POPC   C1A64743  23.693  37.685   6.464
 5085POPC   D2A64744  23.700  37.725   6.764
 5085POPC   C3A64745  23.695  37.650   7.064
 5085POPC   C4A64746  23.696  37.683   7.364
 5085POPC   C1B64747  23.879  37.901   6.464
 5085POPC   C2B64748  23.922  37.906   6.764
 5085POPC   C3B64749  23.880  37.887   7.064
 5085POPC   C4B64750  23.896  37.891   7.364
 5086POPC   NC364751   8.955   3.537   5.564
 5086POPC   PO464752   8.929   3.586   5.864
 5086POPC   GL164753   8.948   3.582   6.164
 5086POPC   GL264754   9.061   3.542   6.164
 5086POPC   C1A64755   8.936   3.511   6.464
 5086POPC   D2A64756   8.977   3.565   6.764
 5086POPC   C3A64757   8.949   3.582   7.064
 5086POPC   C4A64758   8.948   3.577   7.364
 5086POPC   C1B64759   9.198   3.593   6.464
 5086POPC   C2B64760   9.226   3.585   6.764
 5086POPC   C3B64761   9.198   3.528   7.064
 5086POPC   C4B64762   9.237   3.593   7.364
 5087POPC   NC364763  28.402  17.527   5.564
 5087POPC   PO464764  28.353  17.502   5.864
 5087POPC   GL164765  28.370  17.548   6.164
 5087POPC   GL264766  28.321  17.359   6.164
 5087POPC   C1A64767  28.354  17.484   6.464
 5087POPC   D2A64768  28.323  17.508   6.764
 5087POPC   C3A64769  28.367  17.542   7.064
 5087POPC   C4A64770  28.360  17.522   7.364
 5087POPC   C1B64771  28.279  17.271   6.464
 5087POPC   C2B64772  28.315  17.253   6.764
 5087POPC   C3B64773  28.305  17.284   7.064
 5087POPC   C4B64774  28.311  17.239   7.364
 5088POPC   NC364775  42.316  10.573   5.564
 5088POPC   PO464776  42.375  10.494   5.864
 5088POPC   GL164777  42.297  10.478   6.164
 5088POPC   GL264778  42.289  10.409   6.164
 5088POPC   C1A64779  42.307  10.519   6.464
 5088POPC   D2A64780  42.373  10.510   6.764
 5088POPC   C3A64781  42.353  10.482   7.064
 5088POPC   C4A64782  42.312  10.542   7.364
 5088POPC   C1B64783  42.179  10.362   6.464
 5088POPC   C2B64784  42.154  10.362   6.764
 5088POPC   C3B64785  42.182  10.301   7.064
 5088POPC   C4B64786  42.192  10.328   7.364
 5089POPC   NC364787   5.079  26.088   5.564
 5089POPC   PO464788   5.059  25.999   5.864
 5089POPC   GL164789   5.100  26.003   6.164
 5089POPC   GL264790   4.938  26.054   6.164
 5089POPC   C1A64791   5.087  26.068   6.464
 5089POPC   D2A64792   5.111  26.069   6.764
 5089POPC   C3A64793   5.135  26.002   7.064
 5089POPC   C4A64794   5.115  26.023   7.364
 5089POPC   C1B64795   4.888  26.136   6.464
 5089POPC   C2B64796   4.876  26.129   6.764
 5089POPC   C3B64797   4.848  26.145   7.064
 5089POPC   C4B64798   4.860  26.116   7.364
 5090POPC   NC364799  36.931  23.720   5.564
 5090POPC   PO464800  36.873  23.753   5.864
 5090POPC   GL164801  36.907  23.748   6.164
 5090POPC   GL264802  36.834  23.588   6.164
 5090POPC   C1A64803  36.872  23.665   6.464
 5090POPC   D2A64804  36.857  23.694   6.764
 5090POPC   C3A64805  36.856  23.723   7.064
 5090POPC   C4A64806  36.869  23.720   7.364
 5090POPC   C1B64807  36.778  23.528   6.464
 5090POPC   C2B64808  36.819  23.468   6.764
 5090POPC   C3B64809  36.775  23.510   7.064
 5090POPC   C4B64810  36.789  23.495   7.364
 5091POPC   NC364811  35.351  26.859   5.564
 5091POPC   PO464812  35.353  26.865   5.864
 5091POPC   GL164813  35.308  26.861   6.164
 5091POPC   GL264814  35.387  26.903   6.164
 5091POPC   C1A64815  35.307  26.855   6.464
 5091POPC   D2A64816  35.400  26.781   6.764
 5091POPC   C3A64817  35.379  26.791   7.064
 5091POPC   C4A64818  35.340  26.853   7.364
 5091POPC   C1B64819  35.352  27.040   6.464
 5091POPC   C2B64820  35.369  27.114   6.764
 5091POPC   C3B64821  35.357  27.111   7.064
 5091POPC   C4B64822  35.368  27.063   7.364
 5092POPC   NC364823  10.532   0.449   5.564
 5092POPC   PO464824  10.489   0.459   5.864
 5092POPC   GL164825  10.535   0.464   6.164
 5092POPC   GL264826  10.626   0.547   6.164
 5092POPC   C1A64827  10.508   0.485   6.464
 5092POPC   D2A64828  10.512   0.460   6.764
 5092POPC   C3A64829  10.487   0.450   7.064
 5092POPC   C4A64830  10.569   0.433   7.364
 5092POPC   C1B64831  10.730   0.516   6.464
 5092POPC   C2B64832  10.777   0.518   6.764
 5092POPC   C3B64833  10.729   0.558   7.064
 5092POPC   C4B64834  10.750   0.602   7.364
 5093POPC   NC364835  19.813   1.989   5.564
 5093POPC   PO464836  19.786   2.017   5.864
 5093POPC   GL164837  19.792   1.974   6.164
 5093POPC   GL264838  19.820   2.070   6.164
 5093POPC   C1A64839  19.809   1.962   6.464
 5093POPC   D2A64840  19.818   2.038   6.764
 5093POPC   C3A64841  19.810   2.030   7.064
 5093POPC   C4A64842  19.860   2.002   7.364
 5093POPC   C1B64843  19.736   2.225   6.464
 5093POPC   C2B64844  19.731   2.185   6.764
 5093POPC   C3B64845  19.680   2.164   7.064
 5093POPC   C4B64846  19.709   2.208   7.364
 5094POPC   NC364847  35.325   1.249   5.564
 5094POPC   PO464848  35.372   1.250   5.864
 5094POPC   GL164849  35.313   1.166   6.164
 5094POPC   GL264850  35.499   1.269   6.164
 5094POPC   C1A64851  35.393   1.258   6.464
 5094POPC   D2A64852  35.320   1.185   6.764
 5094POPC   C3A64853  35.363   1.214   7.064
 5094POPC   C4A64854  35.325   1.235   7.364
 5094POPC   C1B64855  35.612   1.276   6.464
 5094POPC   C2B64856  35.557   1.251   6.764
 5094POPC   C3B64857  35.592   1.208   7.064
 5094POPC   C4B64858  35.596   1.264   7.364
 5095POPC   NC364859  16.727  25.240   5.564
 5095POPC   PO464860  16.732  25.315   5.864
 5095POPC   GL164861  16.780  25.233   6.164
 5095POPC   GL264862  16.672  25.300   6.164
 5095POPC   C1A64863  16.708  25.234   6.464
 5095POPC   D2A64864  16.734  25.235   6.764
 5095POPC   C3A64865  16.686  25.235   7.064
 5095POPC   C4A64866  16.774  25.302   7.364
 5095POPC   C1B64867  16.505  25.390   6.464
 5095POPC   C2B64868  16.533  25.423   6.764
 5095POPC   C3B64869  16.478  25.439   7.064
 5095POPC   C4B64870  16.537  25.440   7.364
 5096POPC   NC364871  28.367  36.912   5.564
 5096POPC   PO464872  28.396  36.914   5.864
 5096POPC   GL164873  28.361  36.899   6.164
 5096POPC   GL264874  28.410  37.022   6.164
 5096POPC   C1A64875  28.339  36.907   6.464
 5096POPC   D2A64876  28.409  36.938   6.764
 5096POPC   C3A64877  28.417  36.878   7.064
 5096POPC   C4A64878  28.369  36.859   7.364
 5096POPC   C1B64879  28.505  37.055   6.464
 5096POPC   C2B64880  28.547  37.066   6.764
 5096POPC   C3B64881  28.520  37.129   7.064
 5096POPC   C4B64882  28.568  37.093   7.364
 5097POPC   NC364883  35.387  40.830   5.564
 5097POPC   PO464884  35.387  40.827   5.864
 5097POPC   GL164885  35.390  40.793   6.164
 5097POPC   GL264886  35.477  40.839   6.164
 5097POPC   C1A64887  35.377  40.830   6.464
 5097POPC   D2A64888  35.323  40.751   6.764
 5097POPC   C3A64889  35.325  40.738   7.064
 5097POPC   C4A64890  35.333  40.772   7.364
 5097POPC   C1B64891  35.555  40.822   6.464
 5097POPC   C2B64892  35.617  40.901   6.764
 5097POPC   C3B64893  35.618  40.856   7.064
 5097POPC   C4B64894  35.633  40.840   7.364
 5098POPC   NC364895  43.110  25.237   5.564
 5098POPC   PO464896  43.128  25.224   5.864
 5098POPC   GL164897  43.154  25.242   6.164
 5098POPC   GL264898  43.138  25.367   6.164
 5098POPC   C1A64899  43.070  25.247   6.464
 5098POPC   D2A64900  43.068  25.285   6.764
 5098POPC   C3A64901  43.062  25.313   7.064
 5098POPC   C4A64902  43.069  25.288   7.364
 5098POPC   C1B64903  43.194  25.511   6.464
 5098POPC   C2B64904  43.150  25.536   6.764
 5098POPC   C3B64905  43.201  25.546   7.064
 5098POPC   C4B64906  43.188  25.542   7.364
 5099POPC   NC364907  30.649  32.292   5.564
 5099POPC   PO464908  30.661  32.216   5.864
 5099POPC   GL164909  30.710  32.293   6.164
 5099POPC   GL264910  30.590  32.340   6.164
 5099POPC   C1A64911  30.699  32.277   6.464
 5099POPC   D2A64912  30.665  32.214   6.764
 5099POPC   C3A64913  30.650  32.206   7.064
 5099POPC   C4A64914  30.715  32.201   7.364
 5099POPC   C1B64915  30.494  32.454   6.464
 5099POPC   C2B64916  30.549  32.452   6.764
 5099POPC   C3B64917  30.500  32.455   7.064
 5099POPC   C4B64918  30.463  32.379   7.364
 5100POPC   NC364919  36.132   1.186   5.564
 5100POPC   PO464920  36.104   1.221   5.864
 5100POPC   GL164921  36.155   1.232   6.164
 5100POPC   GL264922  36.029   1.325   6.164
 5100POPC   C1A64923  36.173   1.198   6.464
 5100POPC   D2A64924  36.117   1.251   6.764
 5100POPC   C3A64925  36.176   1.167   7.064
 5100POPC   C4A64926  36.131   1.191   7.364
 5100POPC   C1B64927  35.950   1.399   6.464
 5100POPC   C2B64928  36.038   1.468   6.764
 5100POPC   C3B64929  36.025   1.426   7.064
 5100POPC   C4B64930  35.972   1.439   7.364
 5101POPC   NC364931  33.833   6.685   5.564
 5101POPC   PO464932  33.800   6.694   5.864
 5101POPC   GL164933  33.793   6.652   6.164
 5101POPC   GL264934  33.813   6.564   6.164
 5101POPC   C1A64935  33.752   6.647   6.464
 5101POPC   D2A64936  33.797   6.632   6.764
 5101POPC   C3A64937  33.795   6.650   7.064
 5101POPC   C4A64938  33.811   6.610   7.364
 5101POPC   C1B64939  33.811   6.399   6.464
 5101POPC   C2B64940  33.850   6.349   6.764
 5101POPC   C3B64941  33.849   6.352   7.064
 5101POPC   C4B64942  33.878   6.436   7.364
 5102POPC   NC364943  19.841  18.308   5.564
 5102POPC   PO464944  19.790  18.237   5.864
 5102POPC   GL164945  19.866  18.234   6.164
 5102POPC   GL264946  19.931  18.216   6.164
 5102POPC   C1A64947  19.864  18.286   6.464
 5102POPC   D2A64948  19.872  18.254   6.764
 5102POPC   C3A64949  19.791  18.235   7.064
 5102POPC   C4A64950  19.786  18.278   7.364
 5102POPC   C1B64951  20.032  18.210   6.464
 5102POPC   C2B64952  20.010  18.188   6.764
 5102POPC   C3B64953  20.064  18.131   7.064
 5102POPC   C4B64954  20.092  18.204   7.364
 5103POPC   NC364955  41.544  17.481   5.564
 5103POPC   PO464956  41.533  17.511   5.864
 5103POPC   GL164957  41.576  17.499   6.164
 5103POPC   GL264958  41.452  17.432   6.164
 5103POPC   C1A64959  41.545  17.555   6.464
 5103POPC   D2A64960  41.562  17.533   6.764
 5103POPC   C3A64961  41.509  17.495   7.064
 5103POPC   C4A64962  41.587  17.496   7.364
 5103POPC   C1B64963  41.411  17.321   6.464
 5103POPC   C2B64964  41.399  17.262   6.764
 5103POPC   C3B64965  41.437  17.271   7.064
 5103POPC   C4B64966  41.437  17.327   7.364
 5104POPC   NC364967  26.854  15.156   5.564
 5104POPC   PO464968  26.771  15.192   5.864
 5104POPC   GL164969  26.847  15.148   6.164
 5104POPC   GL264970  26.842  15.310   6.164
 5104POPC   C1A64971  26.843  15.162   6.464
 5104POPC   D2A64972  26.816  15.181   6.764
 5104POPC   C3A64973  26.793  15.162   7.064
 5104POPC   C4A64974  26.824  15.167   7.364
 5104POPC   C1B64975  26.953  15.429   6.464
 5104POPC   C2B64976  26.934  15.372   6.764
 5104POPC   C3B64977  26.970  15.436   7.064
 5104POPC   C4B64978  26.965  15.357   7.364
 5105POPC   NC364979  35.382  28.410   5.564
 5105POPC   PO464980  35.388  28.347   5.864
 5105POPC   GL164981  35.335  28.406   6.164
 5105POPC   GL264982  35.432  28.288   6.164
 5105POPC   C1A64983  35.362  28.366   6.464
 5105POPC   D2A64984  35.385  28.356   6.764
 5105POPC   C3A64985  35.379  28.391   7.064
 5105POPC   C4A64986  35.342  28.415   7.364
 5105POPC   C1B64987  35.444  28.174   6.464
 5105POPC   C2B64988  35.507  28.190   6.764
 5105POPC   C3B64989  35.465  28.158   7.064
 5105POPC   C4B64990  35.479  28.153   7.364
 5106POPC   NC364991  39.266  40.826   5.564
 5106POPC   PO464992  39.233  40.770   5.864
 5106POPC   GL164993  39.212  40.822   6.164
 5106POPC   GL264994  39.169  40.636   6.164
 5106POPC   C1A64995  39.275  40.767   6.464
 5106POPC   D2A64996  39.211  40.746   6.764
 5106POPC   C3A64997  39.210  40.797   7.064
 5106POPC   C4A64998  39.225  40.777   7.364
 5106POPC   C1B64999  39.161  40.556   6.464
 5106POPC   C2B65000  39.158  40.538   6.764
 5106POPC   C3B65001  39.074  40.535   7.064
 5106POPC   C4B65002  39.078  40.561   7.364
 5107POPC   NC365003  10.478   5.110   5.564
 5107POPC   PO465004  10.550   5.103   5.864
 5107POPC   GL165005  10.548   5.074   6.164
 5107POPC   GL265006  10.428   5.033   6.164
 5107POPC   C1A65007  10.556   5.140   6.464
 5107POPC   D2A65008  10.542   5.112   6.764
 5107POPC   C3A65009  10.572   5.130   7.064
 5107POPC   C4A65010  10.484   5.092   7.364
 5107POPC   C1B65011  10.327   4.967   6.464
 5107POPC   C2B65012  10.355   4.979   6.764
 5107POPC   C3B65013  10.292   4.914   7.064
 5107POPC   C4B65014  10.303   4.978   7.364
 5108POPC   NC365015  43.877  30.743   5.564
 5108POPC   PO465016  43.881  30.702   5.864
 5108POPC   GL165017  43.840  30.666   6.164
 5108POPC   GL265018  43.969  30.775   6.164
 5108POPC   C1A65019  43.882  30.660   6.464
 5108POPC   D2A65020  43.874  30.695   6.764
 5108POPC   C3A65021  43.912  30.714   7.064
 5108POPC   C4A65022  43.878  30.674   7.364
 5108POPC   C1B65023  44.095  30.708   6.464
 5108POPC   C2B65024  44.084  30.756   6.764
 5108POPC   C3B65025  44.145  30.716   7.064
 5108POPC   C4B65026  44.153  30.739   7.364
 5109POPC   NC365027  11.271  14.394   5.564
 5109POPC   PO465028  11.312  14.416   5.864
 5109POPC   GL165029  11.309  14.366   6.164
 5109POPC   GL265030  11.277  14.296   6.164
 5109POPC   C1A65031  11.310  14.453   6.464
 5109POPC   D2A65032  11.316  14.452   6.764
 5109POPC   C3A65033  11.250  14.407   7.064
 5109POPC   C4A65034  11.319  14.413   7.364
 5109POPC   C1B65035  11.212  14.156   6.464
 5109POPC   C2B65036  11.215  14.147   6.764
 5109POPC   C3B65037  11.283  14.114   7.064
 5109POPC   C4B65038  11.207  14.197   7.364
 5110POPC   NC365039  34.623  38.450   5.564
 5110POPC   PO465040  34.566  38.498   5.864
 5110POPC   GL165041  34.595  38.405   6.164
 5110POPC   GL265042  34.416  38.444   6.164
 5110POPC   C1A65043  34.549  38.416   6.464
 5110POPC   D2A65044  34.547  38.451   6.764
 5110POPC   C3A65045  34.586  38.445   7.064
 5110POPC   C4A65046  34.553  38.477   7.364
 5110POPC   C1B65047  34.357  38.393   6.464
 5110POPC   C2B65048  34.317  38.356   6.764
 5110POPC   C3B65049  34.341  38.362   7.064
 5110POPC   C4B65050  34.322  38.399   7.364
 5111POPC   NC365051  14.397  12.843   5.564
 5111POPC   PO465052  14.389  12.857   5.864
 5111POPC   GL165053  14.396  12.897   6.164
 5111POPC   GL265054  14.308  12.798   6.164
 5111POPC   C1A65055  14.356  12.805   6.464
 5111POPC   D2A65056  14.364  12.897   6.764
 5111POPC   C3A65057  14.447  12.880   7.064
 5111POPC   C4A65058  14.354  12.859   7.364
 5111POPC   C1B65059  14.130  12.856   6.464
 5111POPC   C2B65060  14.201  12.832   6.764
 5111POPC   C3B65061  14.185  12.810   7.064
 5111POPC   C4B65062  14.201  12.845   7.364
 5112POPC   NC365063  15.912  14.448   5.564
 5112POPC   PO465064  15.972  14.422   5.864
 5112POPC   GL165065  15.973  14.444   6.164
 5112POPC   GL265066  15.952  14.495   6.164
 5112POPC   C1A65067  15.970  14.381   6.464
 5112POPC   D2A65068  15.937  14.450   6.764
 5112POPC   C3A65069  15.987  14.398   7.064
 5112POPC   C4A65070  15.976  14.426   7.364
 5112POPC   C1B65071  15.934  14.677   6.464
 5112POPC   C2B65072  15.954  14.613   6.764
 5112POPC   C3B65073  15.938  14.608   7.064
 5112POPC   C4B65074  15.997  14.696   7.364
 5113POPC   NC365075   6.677  31.473   5.564
 5113POPC   PO465076   6.644  31.515   5.864
 5113POPC   GL165077   6.595  31.435   6.164
 5113POPC   GL265078   6.575  31.363   6.164
 5113POPC   C1A65079   6.608  31.469   6.464
 5113POPC   D2A65080   6.688  31.468   6.764
 5113POPC   C3A65081   6.683  31.470   7.064
 5113POPC   C4A65082   6.657  31.432   7.364
 5113POPC   C1B65083   6.527  31.274   6.464
 5113POPC   C2B65084   6.537  31.266   6.764
 5113POPC   C3B65085   6.551  31.239   7.064
 5113POPC   C4B65086   6.473  31.300   7.364
 5114POPC   NC365087   1.950   9.006   5.564
 5114POPC   PO465088   1.958   8.981   5.864
 5114POPC   GL165089   1.973   8.974   6.164
 5114POPC   GL265090   2.039   9.086   6.164
 5114POPC   C1A65091   1.957   8.963   6.464
 5114POPC   D2A65092   1.994   9.010   6.764
 5114POPC   C3A65093   1.957   8.984   7.064
 5114POPC   C4A65094   1.983   8.930   7.364
 5114POPC   C1B65095   2.146   9.107   6.464
 5114POPC   C2B65096   2.180   9.159   6.764
 5114POPC   C3B65097   2.196   9.145   7.064
 5114POPC   C4B65098   2.196   9.137   7.364
 5115POPC   NC365099  10.521  27.621   5.564
 5115POPC   PO465100  10.520  27.571   5.864
 5115POPC   GL165101  10.475  27.563   6.164
 5115POPC   GL265102  10.526  27.678   6.164
 5115POPC   C1A65103  10.479  27.617   6.464
 5115POPC   D2A65104  10.531  27.611   6.764
 5115POPC   C3A65105  10.494  27.561   7.064
 5115POPC   C4A65106  10.557  27.637   7.364
 5115POPC   C1B65107  10.485  27.852   6.464
 5115POPC   C2B65108  10.520  27.879   6.764
 5115POPC   C3B65109  10.493  27.799   7.064
 5115POPC   C4B65110  10.548  27.823   7.364
 5116POPC   NC365111  33.751  36.913   5.564
 5116POPC   PO465112  33.796  36.858   5.864
 5116POPC   GL165113  33.794  36.937   6.164
 5116POPC   GL265114  33.725  36.771   6.164
 5116POPC   C1A65115  33.824  36.939   6.464
 5116POPC   D2A65116  33.773  36.950   6.764
 5116POPC   C3A65117  33.817  36.876   7.064
 5116POPC   C4A65118  33.757  36.936   7.364
 5116POPC   C1B65119  33.692  36.696   6.464
 5116POPC   C2B65120  33.661  36.725   6.764
 5116POPC   C3B65121  33.730  36.681   7.064
 5116POPC   C4B65122  33.655  36.727   7.364
 5117POPC   NC365123   6.622  16.724   5.564
 5117POPC   PO465124   6.686  16.725   5.864
 5117POPC   GL165125   6.619  16.740   6.164
 5117POPC   GL265126   6.808  16.686   6.164
 5117POPC   C1A65127   6.653  16.745   6.464
 5117POPC   D2A65128   6.693  16.766   6.764
 5117POPC   C3A65129   6.611  16.780   7.064
 5117POPC   C4A65130   6.687  16.722   7.364
 5117POPC   C1B65131   6.918  16.710   6.464
 5117POPC   C2B65132   6.865  16.679   6.764
 5117POPC   C3B65133   6.932  16.662   7.064
 5117POPC   C4B65134   6.932  16.662   7.364
 5118POPC   NC365135  34.591  16.729   5.564
 5118POPC   PO465136  34.590  16.689   5.864
 5118POPC   GL165137  34.550  16.763   6.164
 5118POPC   GL265138  34.538  16.817   6.164
 5118POPC   C1A65139  34.535  16.727   6.464
 5118POPC   D2A65140  34.602  16.750   6.764
 5118POPC   C3A65141  34.615  16.748   7.064
 5118POPC   C4A65142  34.562  16.746   7.364
 5118POPC   C1B65143  34.525  16.934   6.464
 5118POPC   C2B65144  34.520  16.946   6.764
 5118POPC   C3B65145  34.492  17.002   7.064
 5118POPC   C4B65146  34.485  16.957   7.364
 5119POPC   NC365147  44.623   3.544   5.564
 5119POPC   PO465148  44.635   3.553   5.864
 5119POPC   GL165149  44.709   3.495   6.164
 5119POPC   GL265150  44.592   3.604   6.164
 5119POPC   C1A65151  44.644   3.494   6.464
 5119POPC   D2A65152  44.673   3.573   6.764
 5119POPC   C3A65153  44.644   3.590   7.064
 5119POPC   C4A65154  44.676   3.555   7.364
 5119POPC   C1B65155  44.448   3.601   6.464
 5119POPC   C2B65156  44.410   3.674   6.764
 5119POPC   C3B65157  44.474   3.665   7.064
 5119POPC   C4B65158  44.394   3.657   7.364
 5120POPC   NC365159  10.527  17.539   5.564
 5120POPC   PO465160  10.484  17.462   5.864
 5120POPC   GL165161  10.547  17.533   6.164
 5120POPC   GL265162  10.375  17.506   6.164
 5120POPC   C1A65163  10.476  17.498   6.464
 5120POPC   D2A65164  10.514  17.477   6.764
 5120POPC   C3A65165  10.475  17.462   7.064
 5120POPC   C4A65166  10.475  17.530   7.364
 5120POPC   C1B65167  10.293  17.608   6.464
 5120POPC   C2B65168  10.317  17.575   6.764
 5120POPC   C3B65169  10.306  17.556   7.064
 5120POPC   C4B65170  10.304  17.580   7.364
 5121POPC   NC365171  37.669   5.113   5.564
 5121POPC   PO465172  37.644   5.132   5.864
 5121POPC   GL165173  37.696   5.099   6.164
 5121POPC   GL265174  37.830   5.086   6.164
 5121POPC   C1A65175  37.715   5.108   6.464
 5121POPC   D2A65176  37.648   5.089   6.764
 5121POPC   C3A65177  37.632   5.118   7.064
 5121POPC   C4A65178  37.715   5.117   7.364
 5121POPC   C1B65179  37.901   5.105   6.464
 5121POPC   C2B65180  37.904   5.070   6.764
 5121POPC   C3B65181  37.935   5.027   7.064
 5121POPC   C4B65182  37.978   5.086   7.364
 5122POPC   NC365183   8.935  15.970   5.564
 5122POPC   PO465184   9.020  15.951   5.864
 5122POPC   GL165185   8.981  15.913   6.164
 5122POPC   GL265186   9.109  16.021   6.164
 5122POPC   C1A65187   8.941  15.992   6.464
 5122POPC   D2A65188   8.925  15.954   6.764
 5122POPC   C3A65189   8.996  15.951   7.064
 5122POPC   C4A65190   8.931  15.935   7.364
 5122POPC   C1B65191   9.127  16.098   6.464
 5122POPC   C2B65192   9.201  16.156   6.764
 5122POPC   C3B65193   9.123  16.101   7.064
 5122POPC   C4B65194   9.186  16.137   7.364
 5123POPC   NC365195  37.650  23.745   5.564
 5123POPC   PO465196  37.713  23.710   5.864
 5123POPC   GL165197  37.721  23.687   6.164
 5123POPC   GL265198  37.695  23.864   6.164
 5123POPC   C1A65199  37.672  23.682   6.464
 5123POPC   D2A65200  37.660  23.735   6.764
 5123POPC   C3A65201  37.710  23.763   7.064
 5123POPC   C4A65202  37.689  23.694   7.364
 5123POPC   C1B65203  37.756  23.916   6.464
 5123POPC   C2B65204  37.716  23.912   6.764
 5123POPC   C3B65205  37.679  23.966   7.064
 5123POPC   C4B65206  37.687  23.920   7.364
 5124POPC   NC365207  38.482  29.140   5.564
 5124POPC   PO465208  38.430  29.120   5.864
 5124POPC   GL165209  38.466  29.151   6.164
 5124POPC   GL265210  38.467  29.283   6.164
 5124POPC   C1A65211  38.472  29.151   6.464
 5124POPC   D2A65212  38.474  29.104   6.764
 5124POPC   C3A65213  38.413  29.146   7.064
 5124POPC   C4A65214  38.474  29.161   7.364
 5124POPC   C1B65215  38.435  29.386   6.464
 5124POPC   C2B65216  38.399  29.401   6.764
 5124POPC   C3B65217  38.455  29.422   7.064
 5124POPC   C4B65218  38.460  29.426   7.364
 5125POPC   NC365219  17.526   1.190   5.564
 5125POPC   PO465220  17.480   1.248   5.864
 5125POPC   GL165221  17.555   1.206   6.164
 5125POPC   GL265222  17.504   1.314   6.164
 5125POPC   C1A65223  17.515   1.245   6.464
 5125POPC   D2A65224  17.537   1.242   6.764
 5125POPC   C3A65225  17.504   1.263   7.064
 5125POPC   C4A65226  17.472   1.234   7.364
 5125POPC   C1B65227  17.463   1.419   6.464
 5125POPC   C2B65228  17.471   1.504   6.764
 5125POPC   C3B65229  17.456   1.480   7.064
 5125POPC   C4B65230  17.469   1.474   7.364
 5126POPC   NC365231  39.274  10.493   5.564
 5126POPC   PO465232  39.203  10.568   5.864
 5126POPC   GL165233  39.196  10.490   6.164
 5126POPC   GL265234  39.340  10.514   6.164
 5126POPC   C1A65235  39.225  10.475   6.464
 5126POPC   D2A65236  39.208  10.568   6.764
 5126POPC   C3A65237  39.278  10.534   7.064
 5126POPC   C4A65238  39.256  10.521   7.364
 5126POPC   C1B65239  39.473  10.450   6.464
 5126POPC   C2B65240  39.476  10.408   6.764
 5126POPC   C3B65241  39.444  10.391   7.064
 5126POPC   C4B65242  39.448  10.371   7.364
 5127POPC   NC365243  36.130  33.776   5.564
 5127POPC   PO465244  36.120  33.825   5.864
 5127POPC   GL165245  36.162  33.751   6.164
 5127POPC   GL265246  36.002  33.756   6.164
 5127POPC   C1A65247  36.091  33.842   6.464
 5127POPC   D2A65248  36.140  33.828   6.764
 5127POPC   C3A65249  36.127  33.794   7.064
 5127POPC   C4A65250  36.166  33.834   7.364
 5127POPC   C1B65251  35.830  33.787   6.464
 5127POPC   C2B65252  35.842  33.769   6.764
 5127POPC   C3B65253  35.883  33.757   7.064
 5127POPC   C4B65254  35.876  33.790   7.364
 5128POPC   NC365255  36.084  39.204   5.564
 5128POPC   PO465256  36.115  39.212   5.864
 5128POPC   GL165257  36.130  39.277   6.164
 5128POPC   GL265258  36.131  39.381   6.164
 5128POPC   C1A65259  36.113  39.191   6.464
 5128POPC   D2A65260  36.166  39.269   6.764
 5128POPC   C3A65261  36.095  39.218   7.064
 5128POPC   C4A65262  36.119  39.231   7.364
 5128POPC   C1B65263  36.245  39.458   6.464
 5128POPC   C2B65264  36.217  39.430   6.764
 5128POPC   C3B65265  36.248  39.461   7.064
 5128POPC   C4B65266  36.248  39.472   7.364
 5129POPC   NC365267  15.921  29.890   5.564
 5129POPC   PO465268  15.921  29.945   5.864
 5129POPC   GL165269  15.911  29.897   6.164
 5129POPC   GL265270  15.938  30.004   6.164
 5129POPC   C1A65271  15.932  29.946   6.464
 5129POPC   D2A65272  15.918  29.933   6.764
 5129POPC   C3A65273  15.978  29.951   7.064
 5129POPC   C4A65274  16.001  29.885   7.364
 5129POPC   C1B65275  16.042  30.127   6.464
 5129POPC   C2B65276  15.955  30.162   6.764
 5129POPC   C3B65277  15.975  30.138   7.064
 5129POPC   C4B65278  15.963  30.155   7.364
 5130POPC   NC365279  43.860  10.494   5.564
 5130POPC   PO465280  43.865  10.560   5.864
 5130POPC   GL165281  43.923  10.478   6.164
 5130POPC   GL265282  43.920  10.605   6.164
 5130POPC   C1A65283  43.858  10.499   6.464
 5130POPC   D2A65284  43.888  10.506   6.764
 5130POPC   C3A65285  43.873  10.530   7.064
 5130POPC   C4A65286  43.913  10.491   7.364
 5130POPC   C1B65287  43.935  10.752   6.464
 5130POPC   C2B65288  43.979  10.767   6.764
 5130POPC   C3B65289  43.957  10.810   7.064
 5130POPC   C4B65290  43.922  10.735   7.364
 5131POPC   NC365291   9.744  40.796   5.564
 5131POPC   PO465292   9.774  40.785   5.864
 5131POPC   GL165293   9.718  40.764   6.164
 5131POPC   GL265294   9.666  40.791   6.164
 5131POPC   C1A65295   9.762  40.826   6.464
 5131POPC   D2A65296   9.708  40.744   6.764
 5131POPC   C3A65297   9.738  40.734   7.064
 5131POPC   C4A65298   9.764  40.819   7.364
 5131POPC   C1B65299   9.484  40.678   6.464
 5131POPC   C2B65300   9.465  40.745   6.764
 5131POPC   C3B65301   9.533  40.679   7.064
 5131POPC   C4B65302   9.480  40.732   7.364
 5132POPC   NC365303   1.974  43.891   5.564
 5132POPC   PO465304   1.950  43.918   5.864
 5132POPC   GL165305   1.940  43.874   6.164
 5132POPC   GL265306   1.915  43.840   6.164
 5132POPC   C1A65307   1.954  43.932   6.464
 5132POPC   D2A65308   1.986  43.925   6.764
 5132POPC   C3A65309   1.984  43.890   7.064
 5132POPC   C4A65310   2.005  43.905   7.364
 5132POPC   C1B65311   1.737  43.846   6.464
 5132POPC   C2B65312   1.777  43.838   6.764
 5132POPC   C3B65313   1.701  43.812   7.064
 5132POPC   C4B65314   1.772  43.815   7.364
 5133POPC   NC365315   2.761  29.929   5.564
 5133POPC   PO465316   2.720  29.894   5.864
 5133POPC   GL165317   2.758  29.878   6.164
 5133POPC   GL265318   2.635  29.985   6.164
 5133POPC   C1A65319   2.717  29.929   6.464
 5133POPC   D2A65320   2.812  29.899   6.764
 5133POPC   C3A65321   2.779  29.964   7.064
 5133POPC   C4A65322   2.746  29.915   7.364
 5133POPC   C1B65323   2.499  29.999   6.464
 5133POPC   C2B65324   2.540  29.968   6.764
 5133POPC   C3B65325   2.497  29.983   7.064
 5133POPC   C4B65326   2.577  30.039   7.364
 5134POPC   NC365327   9.743  37.646   5.564
 5134POPC   PO465328   9.748  37.685   5.864
 5134POPC   GL165329   9.734  37.664   6.164
 5134POPC   GL265330   9.850  37.786   6.164
 5134POPC   C1A65331   9.703  37.709   6.464
 5134POPC   D2A65332   9.754  37.636   6.764
 5134POPC   C3A65333   9.795  37.693   7.064
 5134POPC   C4A65334   9.731  37.646   7.364
 5134POPC   C1B65335   9.941  37.802   6.464
 5134POPC   C2B65336   9.989  37.810   6.764
 5134POPC   C3B65337   9.972  37.826   7.064
 5134POPC   C4B65338   9.950  37.887   7.364
 5135POPC   NC365339  30.665  29.964   5.564
 5135POPC   PO465340  30.687  29.954   5.864
 5135POPC   GL165341  30.689  29.936   6.164
 5135POPC   GL265342  30.548  29.943   6.164
 5135POPC   C1A65343  30.708  29.907   6.464
 5135POPC   D2A65344  30.746  29.894   6.764
 5135POPC   C3A65345  30.668  29.883   7.064
 5135POPC   C4A65346  30.688  29.941   7.364
 5135POPC   C1B65347  30.508  29.995   6.464
 5135POPC   C2B65348  30.514  30.018   6.764
 5135POPC   C3B65349  30.495  30.022   7.064
 5135POPC   C4B65350  30.447  30.027   7.364
 5136POPC   NC365351  29.100  14.418   5.564
 5136POPC   PO465352  29.119  14.450   5.864
 5136POPC   GL165353  29.104  14.362   6.164
 5136POPC   GL265354  29.232  14.470   6.164
 5136POPC   C1A65355  29.107  14.385   6.464
 5136POPC   D2A65356  29.173  14.359   6.764
 5136POPC   C3A65357  29.149  14.436   7.064
 5136POPC   C4A65358  29.144  14.412   7.364
 5136POPC   C1B65359  29.253  14.596   6.464
 5136POPC   C2B65360  29.314  14.633   6.764
 5136POPC   C3B65361  29.312  14.635   7.064
 5136POPC   C4B65362  29.299  14.587   7.364
 5137POPC   NC365363  44.675  18.290   5.564
 5137POPC   PO465364  44.650  18.253   5.864
 5137POPC   GL165365  44.629  18.326   6.164
 5137POPC   GL265366  44.610  18.179   6.164
 5137POPC   C1A65367  44.703  18.260   6.464
 5137POPC   D2A65368  44.673  18.285   6.764
 5137POPC   C3A65369  44.675  18.332   7.064
 5137POPC   C4A65370  44.640  18.242   7.364
 5137POPC   C1B65371  44.521  18.045   6.464
 5137POPC   C2B65372  44.550  18.051   6.764
 5137POPC   C3B65373  44.515  18.113   7.064
 5137POPC   C4B65374  44.500  18.132   7.364
 5138POPC   NC365375  10.540  29.965   5.564
 5138POPC   PO465376  10.569  29.891   5.864
 5138POPC   GL165377  10.544  29.938   6.164
 5138POPC   GL265378  10.490  29.845   6.164
 5138POPC   C1A65379  10.554  29.877   6.464
 5138POPC   D2A65380  10.530  29.875   6.764
 5138POPC   C3A65381  10.564  29.895   7.064
 5138POPC   C4A65382  10.544  29.952   7.364
 5138POPC   C1B65383  10.432  29.687   6.464
 5138POPC   C2B65384  10.441  29.695   6.764
 5138POPC   C3B65385  10.417  29.661   7.064
 5138POPC   C4B65386  10.415  29.672   7.364
 5139POPC   NC365387  26.091  27.619   5.564
 5139POPC   PO465388  26.065  27.602   5.864
 5139POPC   GL165389  26.056  27.556   6.164
 5139POPC   GL265390  26.184  27.628   6.164
 5139POPC   C1A65391  26.022  27.607   6.464
 5139POPC   D2A65392  26.069  27.638   6.764
 5139POPC   C3A65393  26.026  27.592   7.064
 5139POPC   C4A65394  25.996  27.554   7.364
 5139POPC   C1B65395  26.243  27.647   6.464
 5139POPC   C2B65396  26.245  27.625   6.764
 5139POPC   C3B65397  26.332  27.579   7.064
 5139POPC   C4B65398  26.303  27.609   7.364
 5140POPC   NC365399   3.499  33.808   5.564
 5140POPC   PO465400   3.549  33.834   5.864
 5140POPC   GL165401   3.506  33.829   6.164
 5140POPC   GL265402   3.472  33.706   6.164
 5140POPC   C1A65403   3.506  33.823   6.464
 5140POPC   D2A65404   3.560  33.813   6.764
 5140POPC   C3A65405   3.494  33.793   7.064
 5140POPC   C4A65406   3.539  33.786   7.364
 5140POPC   C1B65407   3.329  33.609   6.464
 5140POPC   C2B65408   3.367  33.599   6.764
 5140POPC   C3B65409   3.409  33.666   7.064
 5140POPC   C4B65410   3.373  33.641   7.364
 5141POPC   NC365411  30.687  31.485   5.564
 5141POPC   PO465412  30.686  31.458   5.864
 5141POPC   GL165413  30.701  31.433   6.164
 5141POPC   GL265414  30.611  31.491   6.164
 5141POPC   C1A65415  30.709  31.521   6.464
 5141POPC   D2A65416  30.666  31.459   6.764
 5141POPC   C3A65417  30.677  31.432   7.064
 5141POPC   C4A65418  30.659  31.487   7.364
 5141POPC   C1B65419  30.462  31.510   6.464
 5141POPC   C2B65420  30.429  31.526   6.764
 5141POPC   C3B65421  30.503  31.579   7.064
 5141POPC   C4B65422  30.505  31.576   7.364
 5142POPC   NC365423  26.780  38.468   5.564
 5142POPC   PO465424  26.812  38.495   5.864
 5142POPC   GL165425  26.793  38.440   6.164
 5142POPC   GL265426  26.825  38.284   6.164
 5142POPC   C1A65427  26.788  38.467   6.464
 5142POPC   D2A65428  26.860  38.438   6.764
 5142POPC   C3A65429  26.771  38.440   7.064
 5142POPC   C4A65430  26.836  38.461   7.364
 5142POPC   C1B65431  26.879  38.254   6.464
 5142POPC   C2B65432  26.831  38.192   6.764
 5142POPC   C3B65433  26.883  38.176   7.064
 5142POPC   C4B65434  26.855  38.184   7.364
 5143POPC   NC365435  38.478  38.416   5.564
 5143POPC   PO465436  38.486  38.494   5.864
 5143POPC   GL165437  38.436  38.483   6.164
 5143POPC   GL265438  38.382  38.507   6.164
 5143POPC   C1A65439  38.475  38.411   6.464
 5143POPC   D2A65440  38.491  38.449   6.764
 5143POPC   C3A65441  38.425  38.414   7.064
 5143POPC   C4A65442  38.435  38.412   7.364
 5143POPC   C1B65443  38.250  38.475   6.464
 5143POPC   C2B65444  38.203  38.546   6.764
 5143POPC   C3B65445  38.261  38.564   7.064
 5143POPC   C4B65446  38.186  38.546   7.364
 5144POPC   NC365447   8.976  32.215   5.564
 5144POPC   PO465448   9.008  32.213   5.864
 5144POPC   GL165449   8.992  32.241   6.164
 5144POPC   GL265450   8.973  32.353   6.164
 5144POPC   C1A65451   8.957  32.286   6.464
 5144POPC   D2A65452   9.020  32.270   6.764
 5144POPC   C3A65453   8.987  32.256   7.064
 5144POPC   C4A65454   8.966  32.219   7.364
 5144POPC   C1B65455   8.937  32.523   6.464
 5144POPC   C2B65456   8.976  32.508   6.764
 5144POPC   C3B65457   8.955  32.468   7.064
 5144POPC   C4B65458   8.919  32.473   7.364
 5145POPC   NC365459   2.786  36.176   5.564
 5145POPC   PO465460   2.753  36.126   5.864
 5145POPC   GL165461   2.723  36.170   6.164
 5145POPC   GL265462   2.701  36.290   6.164
 5145POPC   C1A65463   2.719  36.152   6.464
 5145POPC   D2A65464   2.739  36.105   6.764
 5145POPC   C3A65465   2.750  36.162   7.064
 5145POPC   C4A65466   2.802  36.176   7.364
 5145POPC   C1B65467   2.626  36.376   6.464
 5145POPC   C2B65468   2.668  36.324   6.764
 5145POPC   C3B65469   2.700  36.396   7.064
 5145POPC   C4B65470   2.640  36.357   7.364
 5146POPC   NC365471  24.539  26.859   5.564
 5146POPC   PO465472  24.445  26.843   5.864
 5146POPC   GL165473  24.539  26.794   6.164
 5146POPC   GL265474  24.422  26.704   6.164
 5146POPC   C1A65475  24.517  26.773   6.464
 5146POPC   D2A65476  24.451  26.849   6.764
 5146POPC   C3A65477  24.459  26.828   7.064
 5146POPC   C4A65478  24.467  26.825   7.364
 5146POPC   C1B65479  24.274  26.623   6.464
 5146POPC   C2B65480  24.348  26.679   6.764
 5146POPC   C3B65481  24.256  26.611   7.064
 5146POPC   C4B65482  24.256  26.601   7.364
 5147POPC   NC365483  11.250  34.614   5.564
 5147POPC   PO465484  11.342  34.545   5.864
 5147POPC   GL165485  11.254  34.605   6.164
 5147POPC   GL265486  11.176  34.584   6.164
 5147POPC   C1A65487  11.267  34.570   6.464
 5147POPC   D2A65488  11.327  34.625   6.764
 5147POPC   C3A65489  11.316  34.558   7.064
 5147POPC   C4A65490  11.254  34.532   7.364
 5147POPC   C1B65491  11.042  34.526   6.464
 5147POPC   C2B65492  11.025  34.546   6.764
 5147POPC   C3B65493  11.082  34.570   7.064
 5147POPC   C4B65494  11.011  34.585   7.364
 5148POPC   NC365495  34.567  21.390   5.564
 5148POPC   PO465496  34.563  21.339   5.864
 5148POPC   GL165497  34.534  21.347   6.164
 5148POPC   GL265498  34.470  21.497   6.164
 5148POPC   C1A65499  34.568  21.427   6.464
 5148POPC   D2A65500  34.616  21.416   6.764
 5148POPC   C3A65501  34.604  21.414   7.064
 5148POPC   C4A65502  34.614  21.351   7.364
 5148POPC   C1B65503  34.414  21.559   6.464
 5148POPC   C2B65504  34.445  21.562   6.764
 5148POPC   C3B65505  34.410  21.587   7.064
 5148POPC   C4B65506  34.480  21.571   7.364
 5149POPC   NC365507  22.941  13.674   5.564
 5149POPC   PO465508  22.924  13.648   5.864
 5149POPC   GL165509  22.959  13.660   6.164
 5149POPC   GL265510  23.037  13.711   6.164
 5149POPC   C1A65511  22.955  13.654   6.464
 5149POPC   D2A65512  22.962  13.641   6.764
 5149POPC   C3A65513  22.982  13.671   7.064
 5149POPC   C4A65514  22.899  13.592   7.364
 5149POPC   C1B65515  23.199  13.787   6.464
 5149POPC   C2B65516  23.156  13.705   6.764
 5149POPC   C3B65517  23.129  13.693   7.064
 5149POPC   C4B65518  23.202  13.734   7.364
 5150POPC   NC365519   7.381   1.968   5.564
 5150POPC   PO465520   7.377   1.962   5.864
 5150POPC   GL165521   7.469   1.959   6.164
 5150POPC   GL265522   7.365   2.063   6.164
 5150POPC   C1A65523   7.386   1.947   6.464
 5150POPC   D2A65524   7.408   1.997   6.764
 5150POPC   C3A65525   7.439   2.030   7.064
 5150POPC   C4A65526   7.456   1.994   7.364
 5150POPC   C1B65527   7.246   2.163   6.464
 5150POPC   C2B65528   7.222   2.192   6.764
 5150POPC   C3B65529   7.310   2.191   7.064
 5150POPC   C4B65530   7.248   2.143   7.364
 5151POPC   NC365531  15.914   8.200   5.564
 5151POPC   PO465532  15.911   8.206   5.864
 5151POPC   GL165533  15.995   8.208   6.164
 5151POPC   GL265534  15.875   8.051   6.164
 5151POPC   C1A65535  15.987   8.218   6.464
 5151POPC   D2A65536  15.994   8.153   6.764
 5151POPC   C3A65537  15.953   8.235   7.064
 5151POPC   C4A65538  15.944   8.200   7.364
 5151POPC   C1B65539  15.841   7.981   6.464
 5151POPC   C2B65540  15.886   7.969   6.764
 5151POPC   C3B65541  15.891   7.941   7.064
 5151POPC   C4B65542  15.858   7.927   7.364
 5152POPC   NC365543  10.519   1.959   5.564
 5152POPC   PO465544  10.517   2.036   5.864
 5152POPC   GL165545  10.567   2.036   6.164
 5152POPC   GL265546  10.463   2.117   6.164
 5152POPC   C1A65547  10.499   2.034   6.464
 5152POPC   D2A65548  10.480   1.995   6.764
 5152POPC   C3A65549  10.527   2.030   7.064
 5152POPC   C4A65550  10.496   1.963   7.364
 5152POPC   C1B65551  10.365   2.147   6.464
 5152POPC   C2B65552  10.358   2.194   6.764
 5152POPC   C3B65553  10.361   2.187   7.064
 5152POPC   C4B65554  10.401   2.221   7.364
 5153POPC   NC365555  34.538  25.238   5.564
 5153POPC   PO465556  34.534  25.276   5.864
 5153POPC   GL165557  34.594  25.260   6.164
 5153POPC   GL265558  34.638  25.425   6.164
 5153POPC   C1A65559  34.580  25.283   6.464
 5153POPC   D2A65560  34.560  25.266   6.764
 5153POPC   C3A65561  34.557  25.234   7.064
 5153POPC   C4A65562  34.622  25.292   7.364
 5153POPC   C1B65563  34.640  25.483   6.464
 5153POPC   C2B65564  34.588  25.467   6.764
 5153POPC   C3B65565  34.604  25.553   7.064
 5153POPC   C4B65566  34.622  25.542   7.364
 5154POPC   NC365567  32.237   3.497   5.564
 5154POPC   PO465568  32.242   3.528   5.864
 5154POPC   GL165569  32.281   3.566   6.164
 5154POPC   GL265570  32.282   3.398   6.164
 5154POPC   C1A65571  32.216   3.512   6.464
 5154POPC   D2A65572  32.286   3.570   6.764
 5154POPC   C3A65573  32.262   3.542   7.064
 5154POPC   C4A65574  32.219   3.536   7.364
 5154POPC   C1B65575  32.251   3.293   6.464
 5154POPC   C2B65576  32.267   3.341   6.764
 5154POPC   C3B65577  32.262   3.248   7.064
 5154POPC   C4B65578  32.229   3.305   7.364
 5155POPC   NC365579  11.310   5.866   5.564
 5155POPC   PO465580  11.332   5.886   5.864
 5155POPC   GL165581  11.258   5.894   6.164
 5155POPC   GL265582  11.221   5.760   6.164
 5155POPC   C1A65583  11.254   5.904   6.464
 5155POPC   D2A65584  11.301   5.857   6.764
 5155POPC   C3A65585  11.289   5.847   7.064
 5155POPC   C4A65586  11.252   5.863   7.364
 5155POPC   C1B65587  11.264   5.637   6.464
 5155POPC   C2B65588  11.270   5.605   6.764
 5155POPC   C3B65589  11.254   5.658   7.064
 5155POPC   C4B65590  11.267   5.659   7.364
 5156POPC   NC365591  12.061  43.127   5.564
 5156POPC   PO465592  12.090  43.072   5.864
 5156POPC   GL165593  12.070  43.106   6.164
 5156POPC   GL265594  11.984  43.040   6.164
 5156POPC   C1A65595  12.083  43.062   6.464
 5156POPC   D2A65596  12.081  43.113   6.764
 5156POPC   C3A65597  12.120  43.133   7.064
 5156POPC   C4A65598  12.083  43.150   7.364
 5156POPC   C1B65599  11.811  42.944   6.464
 5156POPC   C2B65600  11.819  42.935   6.764
 5156POPC   C3B65601  11.887  42.976   7.064
 5156POPC   C4B65602  11.891  43.004   7.364
 5157POPC   NC365603  39.197  31.516   5.564
 5157POPC   PO465604  39.229  31.434   5.864
 5157POPC   GL165605  39.252  31.476   6.164
 5157POPC   GL265606  39.153  31.631   6.164
 5157POPC   C1A65607  39.212  31.503   6.464
 5157POPC   D2A65608  39.226  31.451   6.764
 5157POPC   C3A65609  39.261  31.490   7.064
 5157POPC   C4A65610  39.181  31.505   7.364
 5157POPC   C1B65611  39.170  31.674   6.464
 5157POPC   C2B65612  39.160  31.721   6.764
 5157POPC   C3B65613  39.176  31.687   7.064
 5157POPC   C4B65614  39.214  31.723   7.364
 5158POPC   NC365615  35.395   3.496   5.564
 5158POPC   PO465616  35.311   3.544   5.864
 5158POPC   GL165617  35.334   3.537   6.164
 5158POPC   GL265618  35.213   3.593   6.164
 5158POPC   C1A65619  35.380   3.571   6.464
 5158POPC   D2A65620  35.329   3.591   6.764
 5158POPC   C3A65621  35.394   3.500   7.064
 5158POPC   C4A65622  35.374   3.538   7.364
 5158POPC   C1B65623  35.100   3.706   6.464
 5158POPC   C2B65624  35.189   3.737   6.764
 5158POPC   C3B65625  35.112   3.664   7.064
 5158POPC   C4B65626  35.100   3.711   7.364
 5159POPC   NC365627   6.623  36.106   5.564
 5159POPC   PO465628   6.662  36.112   5.864
 5159POPC   GL165629   6.627  36.120   6.164
 5159POPC   GL265630   6.754  36.239   6.164
 5159POPC   C1A65631   6.635  36.165   6.464
 5159POPC   D2A65632   6.658  36.121   6.764
 5159POPC   C3A65633   6.672  36.093   7.064
 5159POPC   C4A65634   6.610  36.138   7.364
 5159POPC   C1B65635   6.818  36.248   6.464
 5159POPC   C2B65636   6.833  36.289   6.764
 5159POPC   C3B65637   6.845  36.234   7.064
 5159POPC   C4B65638   6.848  36.283   7.364
 5160POPC   NC365639  35.353   4.345   5.564
 5160POPC   PO465640  35.383   4.353   5.864
 5160POPC   GL165641  35.392   4.295   6.164
 5160POPC   GL265642  35.204   4.358   6.164
 5160POPC   C1A65643  35.318   4.347   6.464
 5160POPC   D2A65644  35.381   4.308   6.764
 5160POPC   C3A65645  35.382   4.304   7.064
 5160POPC   C4A65646  35.374   4.280   7.364
 5160POPC   C1B65647  35.093   4.446   6.464
 5160POPC   C2B65648  35.094   4.388   6.764
 5160POPC   C3B65649  35.078   4.384   7.064
 5160POPC   C4B65650  35.129   4.405   7.364
 5161POPC   NC365651  19.879  33.067   5.564
 5161POPC   PO465652  19.798  33.073   5.864
 5161POPC   GL165653  19.827  33.007   6.164
 5161POPC   GL265654  19.824  32.875   6.164
 5161POPC   C1A65655  19.815  33.044   6.464
 5161POPC   D2A65656  19.819  32.994   6.764
 5161POPC   C3A65657  19.837  33.035   7.064
 5161POPC   C4A65658  19.843  32.988   7.364
 5161POPC   C1B65659  19.902  32.811   6.464
 5161POPC   C2B65660  19.866  32.803   6.764
 5161POPC   C3B65661  19.886  32.770   7.064
 5161POPC   C4B65662  19.936  32.747   7.364
 5162POPC   NC365663  12.086  26.823   5.564
 5162POPC   PO465664  12.111  26.815   5.864
 5162POPC   GL165665  12.026  26.814   6.164
 5162POPC   GL265666  12.038  26.668   6.164
 5162POPC   C1A65667  12.110  26.823   6.464
 5162POPC   D2A65668  12.047  26.782   6.764
 5162POPC   C3A65669  12.046  26.860   7.064
 5162POPC   C4A65670  12.028  26.777   7.364
 5162POPC   C1B65671  12.050  26.606   6.464
 5162POPC   C2B65672  12.011  26.618   6.764
 5162POPC   C3B65673  12.061  26.534   7.064
 5162POPC   C4B65674  12.004  26.547   7.364
 5163POPC   NC365675  40.799  40.011   5.564
 5163POPC   PO465676  40.816  40.007   5.864
 5163POPC   GL165677  40.830  40.009   6.164
 5163POPC   GL265678  40.934  39.962   6.164
 5163POPC   C1A65679  40.809  39.998   6.464
 5163POPC   D2A65680  40.766  40.023   6.764
 5163POPC   C3A65681  40.802  39.960   7.064
 5163POPC   C4A65682  40.799  40.043   7.364
 5163POPC   C1B65683  41.073  39.996   6.464
 5163POPC   C2B65684  41.055  40.034   6.764
 5163POPC   C3B65685  41.071  39.986   7.064
 5163POPC   C4B65686  41.066  40.043   7.364
 5164POPC   NC365687  16.730  26.812   5.564
 5164POPC   PO465688  16.727  26.778   5.864
 5164POPC   GL165689  16.710  26.862   6.164
 5164POPC   GL265690  16.654  26.827   6.164
 5164POPC   C1A65691  16.689  26.844   6.464
 5164POPC   D2A65692  16.709  26.802   6.764
 5164POPC   C3A65693  16.724  26.784   7.064
 5164POPC   C4A65694  16.755  26.852   7.364
 5164POPC   C1B65695  16.489  26.845   6.464
 5164POPC   C2B65696  16.472  26.885   6.764
 5164POPC   C3B65697  16.442  26.889   7.064
 5164POPC   C4B65698  16.497  26.841   7.364
 5165POPC   NC365699   9.744  32.218   5.564
 5165POPC   PO465700   9.705  32.211   5.864
 5165POPC   GL165701   9.769  32.269   6.164
 5165POPC   GL265702   9.766  32.167   6.164
 5165POPC   C1A65703   9.798  32.248   6.464
 5165POPC   D2A65704   9.716  32.274   6.764
 5165POPC   C3A65705   9.724  32.293   7.064
 5165POPC   C4A65706   9.706  32.203   7.364
 5165POPC   C1B65707   9.758  32.024   6.464
 5165POPC   C2B65708   9.685  32.034   6.764
 5165POPC   C3B65709   9.681  31.974   7.064
 5165POPC   C4B65710   9.698  32.001   7.364
 5166POPC   NC365711  21.401  25.299   5.564
 5166POPC   PO465712  21.424  25.279   5.864
 5166POPC   GL165713  21.407  25.290   6.164
 5166POPC   GL265714  21.301  25.272   6.164
 5166POPC   C1A65715  21.415  25.281   6.464
 5166POPC   D2A65716  21.372  25.295   6.764
 5166POPC   C3A65717  21.359  25.274   7.064
 5166POPC   C4A65718  21.399  25.253   7.364
 5166POPC   C1B65719  21.190  25.377   6.464
 5166POPC   C2B65720  21.157  25.388   6.764
 5166POPC   C3B65721  21.127  25.397   7.064
 5166POPC   C4B65722  21.199  25.347   7.364
 5167POPC   NC365723  19.874  44.657   5.564
 5167POPC   PO465724  19.870  44.618   5.864
 5167POPC   GL165725  19.848  44.681   6.164
 5167POPC   GL265726  19.917  44.629   6.164
 5167POPC   C1A65727  19.880  44.645   6.464
 5167POPC   D2A65728  19.871  44.641   6.764
 5167POPC   C3A65729  19.878  44.623   7.064
 5167POPC   C4A65730  19.836  44.677   7.364
 5167POPC   C1B65731  20.082  44.703   6.464
 5167POPC   C2B65732  20.058  44.708   6.764
 5167POPC   C3B65733  20.034  44.705   7.064
 5167POPC   C4B65734  20.069  44.740   7.364
 5168POPC   NC365735   9.768  32.985   5.564
 5168POPC   PO465736   9.788  33.063   5.864
 5168POPC   GL165737   9.722  33.019   6.164
 5168POPC   GL265738   9.796  32.905   6.164
 5168POPC   C1A65739   9.753  33.016   6.464
 5168POPC   D2A65740   9.734  33.058   6.764
 5168POPC   C3A65741   9.746  33.050   7.064
 5168POPC   C4A65742   9.766  33.044   7.364
 5168POPC   C1B65743   9.936  32.795   6.464
 5168POPC   C2B65744   9.906  32.833   6.764
 5168POPC   C3B65745   9.870  32.810   7.064
 5168POPC   C4B65746   9.945  32.875   7.364
 5169POPC   NC365747  26.066  38.467   5.564
 5169POPC   PO465748  26.048  38.430   5.864
 5169POPC   GL165749  26.057  38.474   6.164
 5169POPC   GL265750  26.168  38.354   6.164
 5169POPC   C1A65751  26.079  38.418   6.464
 5169POPC   D2A65752  26.076  38.474   6.764
 5169POPC   C3A65753  25.996  38.427   7.064
 5169POPC   C4A65754  26.015  38.451   7.364
 5169POPC   C1B65755  26.253  38.235   6.464
 5169POPC   C2B65756  26.253  38.317   6.764
 5169POPC   C3B65757  26.214  38.278   7.064
 5169POPC   C4B65758  26.221  38.253   7.364
 5170POPC   NC365759  36.097  43.904   5.564
 5170POPC   PO465760  36.135  43.896   5.864
 5170POPC   GL165761  36.094  43.894   6.164
 5170POPC   GL265762  35.962  43.901   6.164
 5170POPC   C1A65763  36.141  43.923   6.464
 5170POPC   D2A65764  36.103  43.868   6.764
 5170POPC   C3A65765  36.157  43.910   7.064
 5170POPC   C4A65766  36.125  43.853   7.364
 5170POPC   C1B65767  35.858  43.884   6.464
 5170POPC   C2B65768  35.922  43.867   6.764
 5170POPC   C3B65769  35.868  43.862   7.064
 5170POPC   C4B65770  35.888  43.848   7.364
 5171POPC   NC365771  12.087   8.971   5.564
 5171POPC   PO465772  12.089   8.968   5.864
 5171POPC   GL165773  12.101   8.945   6.164
 5171POPC   GL265774  12.059   9.066   6.164
 5171POPC   C1A65775  12.117   8.951   6.464
 5171POPC   D2A65776  12.052   8.965   6.764
 5171POPC   C3A65777  12.124   8.952   7.064
 5171POPC   C4A65778  12.034   8.930   7.364
 5171POPC   C1B65779  12.023   9.175   6.464
 5171POPC   C2B65780  11.955   9.249   6.764
 5171POPC   C3B65781  11.972   9.208   7.064
 5171POPC   C4B65782  11.992   9.210   7.364
 5172POPC   NC365783  13.603  25.237   5.564
 5172POPC   PO465784  13.667  25.232   5.864
 5172POPC   GL165785  13.606  25.288   6.164
 5172POPC   GL265786  13.628  25.137   6.164
 5172POPC   C1A65787  13.624  25.242   6.464
 5172POPC   D2A65788  13.578  25.305   6.764
 5172POPC   C3A65789  13.661  25.216   7.064
 5172POPC   C4A65790  13.651  25.277   7.364
 5172POPC   C1B65791  13.700  25.007   6.464
 5172POPC   C2B65792  13.704  25.000   6.764
 5172POPC   C3B65793  13.675  25.002   7.064
 5172POPC   C4B65794  13.734  24.988   7.364
 5173POPC   NC365795   0.415   3.532   5.564
 5173POPC   PO465796   0.435   3.524   5.864
 5173POPC   GL165797   0.422   3.519   6.164
 5173POPC   GL265798   0.433   3.632   6.164
 5173POPC   C1A65799   0.451   3.551   6.464
 5173POPC   D2A65800   0.403   3.580   6.764
 5173POPC   C3A65801   0.439   3.541   7.064
 5173POPC   C4A65802   0.463   3.540   7.364
 5173POPC   C1B65803   0.422   3.788   6.464
 5173POPC   C2B65804   0.432   3.749   6.764
 5173POPC   C3B65805   0.464   3.780   7.064
 5173POPC   C4B65806   0.407   3.821   7.364
 5174POPC   NC365807  35.330   2.810   5.564
 5174POPC   PO465808  35.315   2.786   5.864
 5174POPC   GL165809  35.377   2.790   6.164
 5174POPC   GL265810  35.488   2.828   6.164
 5174POPC   C1A65811  35.372   2.741   6.464
 5174POPC   D2A65812  35.356   2.761   6.764
 5174POPC   C3A65813  35.398   2.727   7.064
 5174POPC   C4A65814  35.389   2.739   7.364
 5174POPC   C1B65815  35.484   2.969   6.464
 5174POPC   C2B65816  35.526   2.983   6.764
 5174POPC   C3B65817  35.564   2.940   7.064
 5174POPC   C4B65818  35.516   2.927   7.364
 5175POPC   NC365819  15.937  11.290   5.564
 5175POPC   PO465820  15.982  11.333   5.864
 5175POPC   GL165821  15.993  11.321   6.164
 5175POPC   GL265822  15.795  11.276   6.164
 5175POPC   C1A65823  15.978  11.349   6.464
 5175POPC   D2A65824  15.950  11.303   6.764
 5175POPC   C3A65825  15.998  11.292   7.064
 5175POPC   C4A65826  15.949  11.323   7.364
 5175POPC   C1B65827  15.658  11.318   6.464
 5175POPC   C2B65828  15.675  11.321   6.764
 5175POPC   C3B65829  15.755  11.254   7.064
 5175POPC   C4B65830  15.690  11.276   7.364
 5176POPC   NC365831   6.671  11.345   5.564
 5176POPC   PO465832   6.611  11.302   5.864
 5176POPC   GL165833   6.608  11.342   6.164
 5176POPC   GL265834   6.761  11.293   6.164
 5176POPC   C1A65835   6.641  11.294   6.464
 5176POPC   D2A65836   6.600  11.274   6.764
 5176POPC   C3A65837   6.609  11.290   7.064
 5176POPC   C4A65838   6.655  11.323   7.364
 5176POPC   C1B65839   6.845  11.243   6.464
 5176POPC   C2B65840   6.912  11.289   6.764
 5176POPC   C3B65841   6.861  11.309   7.064
 5176POPC   C4B65842   6.847  11.263   7.364
 5177POPC   NC365843  34.614   8.977   5.564
 5177POPC   PO465844  34.543   9.018   5.864
 5177POPC   GL165845  34.566   9.017   6.164
 5177POPC   GL265846  34.568   9.107   6.164
 5177POPC   C1A65847  34.598   8.997   6.464
 5177POPC   D2A65848  34.544   8.953   6.764
 5177POPC   C3A65849  34.602   8.989   7.064
 5177POPC   C4A65850  34.557   8.930   7.364
 5177POPC   C1B65851  34.513   9.196   6.464
 5177POPC   C2B65852  34.506   9.189   6.764
 5177POPC   C3B65853  34.441   9.235   7.064
 5177POPC   C4B65854  34.414   9.200   7.364
 5178POPC   NC365855  33.799   8.225   5.564
 5178POPC   PO465856  33.803   8.182   5.864
 5178POPC   GL165857  33.799   8.211   6.164
 5178POPC   GL265858  33.760   8.073   6.164
 5178POPC   C1A65859  33.765   8.185   6.464
 5178POPC   D2A65860  33.751   8.247   6.764
 5178POPC   C3A65861  33.836   8.202   7.064
 5178POPC   C4A65862  33.751   8.184   7.364
 5178POPC   C1B65863  33.598   7.996   6.464
 5178POPC   C2B65864  33.664   7.964   6.764
 5178POPC   C3B65865  33.688   8.012   7.064
 5178POPC   C4B65866  33.692   8.012   7.364
 5179POPC   NC365867  36.941  12.866   5.564
 5179POPC   PO465868  36.923  12.880   5.864
 5179POPC   GL165869  36.926  12.840   6.164
 5179POPC   GL265870  36.782  12.898   6.164
 5179POPC   C1A65871  36.866  12.900   6.464
 5179POPC   D2A65872  36.943  12.827   6.764
 5179POPC   C3A65873  36.892  12.881   7.064
 5179POPC   C4A65874  36.943  12.887   7.364
 5179POPC   C1B65875  36.622  12.897   6.464
 5179POPC   C2B65876  36.668  12.925   6.764
 5179POPC   C3B65877  36.676  12.869   7.064
 5179POPC   C4B65878  36.702  12.949   7.364
 5180POPC   NC365879  11.319  26.080   5.564
 5180POPC   PO465880  11.266  26.076   5.864
 5180POPC   GL165881  11.308  26.054   6.164
 5180POPC   GL265882  11.357  26.150   6.164
 5180POPC   C1A65883  11.322  25.993   6.464
 5180POPC   D2A65884  11.315  26.023   6.764
 5180POPC   C3A65885  11.325  26.055   7.064
 5180POPC   C4A65886  11.346  26.060   7.364
 5180POPC   C1B65887  11.410  26.240   6.464
 5180POPC   C2B65888  11.415  26.219   6.764
 5180POPC   C3B65889  11.483  26.292   7.064
 5180POPC   C4B65890  11.441  26.219   7.364
 5181POPC   NC365891  33.065  31.501   5.564
 5181POPC   PO465892  32.995  31.468   5.864
 5181POPC   GL165893  32.987  31.502   6.164
 5181POPC   GL265894  33.005  31.600   6.164
 5181POPC   C1A65895  32.995  31.475   6.464
 5181POPC   D2A65896  33.012  31.437   6.764
 5181POPC   C3A65897  33.012  31.487   7.064
 5181POPC   C4A65898  33.032  31.520   7.364
 5181POPC   C1B65899  32.936  31.637   6.464
 5181POPC   C2B65900  32.928  31.731   6.764
 5181POPC   C3B65901  32.874  31.632   7.064
 5181POPC   C4B65902  32.889  31.709   7.364
 5182POPC   NC365903  19.811  31.491   5.564
 5182POPC   PO465904  19.800  31.482   5.864
 5182POPC   GL165905  19.793  31.515   6.164
 5182POPC   GL265906  19.813  31.631   6.164
 5182POPC   C1A65907  19.793  31.430   6.464
 5182POPC   D2A65908  19.790  31.522   6.764
 5182POPC   C3A65909  19.832  31.433   7.064
 5182POPC   C4A65910  19.858  31.490   7.364
 5182POPC   C1B65911  19.900  31.686   6.464
 5182POPC   C2B65912  19.827  31.760   6.764
 5182POPC   C3B65913  19.812  31.750   7.064
 5182POPC   C4B65914  19.827  31.728   7.364
 5183POPC   NC365915  43.853  23.701   5.564
 5183POPC   PO465916  43.874  23.692   5.864
 5183POPC   GL165917  43.933  23.678   6.164
 5183POPC   GL265918  43.999  23.797   6.164
 5183POPC   C1A65919  43.912  23.719   6.464
 5183POPC   D2A65920  43.859  23.733   6.764
 5183POPC   C3A65921  43.917  23.700   7.064
 5183POPC   C4A65922  43.863  23.740   7.364
 5183POPC   C1B65923  44.053  23.898   6.464
 5183POPC   C2B65924  44.100  23.853   6.764
 5183POPC   C3B65925  44.097  23.907   7.064
 5183POPC   C4B65926  44.064  23.876   7.364
 5184POPC   NC365927  29.963  32.997   5.564
 5184POPC   PO465928  29.892  33.010   5.864
 5184POPC   GL165929  29.964  33.034   6.164
 5184POPC   GL265930  29.758  33.032   6.164
 5184POPC   C1A65931  29.969  33.038   6.464
 5184POPC   D2A65932  29.944  33.004   6.764
 5184POPC   C3A65933  29.911  32.986   7.064
 5184POPC   C4A65934  29.909  32.977   7.364
 5184POPC   C1B65935  29.656  33.120   6.464
 5184POPC   C2B65936  29.649  33.163   6.764
 5184POPC   C3B65937  29.682  33.081   7.064
 5184POPC   C4B65938  29.688  33.109   7.364
 5185POPC   NC365939  12.822   5.142   5.564
 5185POPC   PO465940  12.852   5.046   5.864
 5185POPC   GL165941  12.802   5.052   6.164
 5185POPC   GL265942  12.771   5.214   6.164
 5185POPC   C1A65943  12.819   5.048   6.464
 5185POPC   D2A65944  12.872   5.046   6.764
 5185POPC   C3A65945  12.872   5.136   7.064
 5185POPC   C4A65946  12.817   5.075   7.364
 5185POPC   C1B65947  12.679   5.235   6.464
 5185POPC   C2B65948  12.697   5.237   6.764
 5185POPC   C3B65949  12.708   5.247   7.064
 5185POPC   C4B65950  12.641   5.306   7.364
 5186POPC   NC365951  26.836  19.808   5.564
 5186POPC   PO465952  26.847  19.836   5.864
 5186POPC   GL165953  26.804  19.819   6.164
 5186POPC   GL265954  26.837  19.971   6.164
 5186POPC   C1A65955  26.816  19.871   6.464
 5186POPC   D2A65956  26.859  19.791   6.764
 5186POPC   C3A65957  26.820  19.845   7.064
 5186POPC   C4A65958  26.770  19.829   7.364
 5186POPC   C1B65959  26.870  20.121   6.464
 5186POPC   C2B65960  26.897  20.115   6.764
 5186POPC   C3B65961  26.871  20.098   7.064
 5186POPC   C4B65962  26.924  20.121   7.364
 5187POPC   NC365963  22.916  22.984   5.564
 5187POPC   PO465964  22.900  22.893   5.864
 5187POPC   GL165965  22.937  22.973   6.164
 5187POPC   GL265966  23.078  22.917   6.164
 5187POPC   C1A65967  22.954  22.938   6.464
 5187POPC   D2A65968  22.943  22.921   6.764
 5187POPC   C3A65969  22.942  22.935   7.064
 5187POPC   C4A65970  22.949  22.916   7.364
 5187POPC   C1B65971  23.215  22.876   6.464
 5187POPC   C2B65972  23.125  22.805   6.764
 5187POPC   C3B65973  23.181  22.826   7.064
 5187POPC   C4B65974  23.136  22.841   7.364
 5188POPC   NC365975  12.882  13.609   5.564
 5188POPC   PO465976  12.852  13.600   5.864
 5188POPC   GL165977  12.881  13.650   6.164
 5188POPC   GL265978  12.790  13.697   6.164
 5188POPC   C1A65979  12.868  13.582   6.464
 5188POPC   D2A65980  12.864  13.597   6.764
 5188POPC   C3A65981  12.867  13.615   7.064
 5188POPC   C4A65982  12.877  13.608   7.364
 5188POPC   C1B65983  12.700  13.815   6.464
 5188POPC   C2B65984  12.657  13.762   6.764
 5188POPC   C3B65985  12.697  13.797   7.064
 5188POPC   C4B65986  12.712  13.777   7.364
 5189POPC   NC365987  14.413  34.582   5.564
 5189POPC   PO465988  14.375  34.579   5.864
 5189POPC   GL165989  14.408  34.587   6.164
 5189POPC   GL265990  14.527  34.680   6.164
 5189POPC   C1A65991  14.390  34.579   6.464
 5189POPC   D2A65992  14.390  34.528   6.764
 5189POPC   C3A65993  14.354  34.617   7.064
 5189POPC   C4A65994  14.451  34.582   7.364
 5189POPC   C1B65995  14.593  34.703   6.464
 5189POPC   C2B65996  14.618  34.665   6.764
 5189POPC   C3B65997  14.629  34.673   7.064
 5189POPC   C4B65998  14.611  34.720   7.364
 5190POPC   NC365999  16.705  16.704   5.564
 5190POPC   PO466000  16.734  16.760   5.864
 5190POPC   GL166001  16.708  16.756   6.164
 5190POPC   GL266002  16.828  16.666   6.164
 5190POPC   C1A66003  16.752  16.771   6.464
 5190POPC   D2A66004  16.748  16.703   6.764
 5190POPC   C3A66005  16.780  16.724   7.064
 5190POPC   C4A66006  16.734  16.780   7.364
 5190POPC   C1B66007  16.857  16.496   6.464
 5190POPC   C2B66008  16.817  16.532   6.764
 5190POPC   C3B66009  16.840  16.470   7.064
 5190POPC   C4B66010  16.876  16.530   7.364
 5191POPC   NC366011   9.002   4.286   5.564
 5191POPC   PO466012   8.967   4.281   5.864
 5191POPC   GL166013   8.974   4.316   6.164
 5191POPC   GL266014   9.100   4.378   6.164
 5191POPC   C1A66015   8.958   4.348   6.464
 5191POPC   D2A66016   8.998   4.344   6.764
 5191POPC   C3A66017   8.975   4.350   7.064
 5191POPC   C4A66018   8.965   4.321   7.364
 5191POPC   C1B66019   9.213   4.437   6.464
 5191POPC   C2B66020   9.185   4.434   6.764
 5191POPC   C3B66021   9.129   4.441   7.064
 5191POPC   C4B66022   9.139   4.491   7.364
 5192POPC   NC366023  26.844  29.176   5.564
 5192POPC   PO466024  26.849  29.109   5.864
 5192POPC   GL166025  26.831  29.117   6.164
 5192POPC   GL266026  26.817  29.227   6.164
 5192POPC   C1A66027  26.813  29.112   6.464
 5192POPC   D2A66028  26.824  29.171   6.764
 5192POPC   C3A66029  26.820  29.104   7.064
 5192POPC   C4A66030  26.821  29.156   7.364
 5192POPC   C1B66031  26.808  29.369   6.464
 5192POPC   C2B66032  26.843  29.381   6.764
 5192POPC   C3B66033  26.789  29.412   7.064
 5192POPC   C4B66034  26.828  29.412   7.364
 5193POPC   NC366035  27.627  26.851   5.564
 5193POPC   PO466036  27.553  26.795   5.864
 5193POPC   GL166037  27.589  26.823   6.164
 5193POPC   GL266038  27.535  26.718   6.164
 5193POPC   C1A66039  27.616  26.799   6.464
 5193POPC   D2A66040  27.570  26.801   6.764
 5193POPC   C3A66041  27.576  26.772   7.064
 5193POPC   C4A66042  27.547  26.822   7.364
 5193POPC   C1B66043  27.355  26.646   6.464
 5193POPC   C2B66044  27.424  26.732   6.764
 5193POPC   C3B66045  27.377  26.735   7.064
 5193POPC   C4B66046  27.335  26.642   7.364
 5194POPC   NC366047  39.187  39.251   5.564
 5194POPC   PO466048  39.224  39.233   5.864
 5194POPC   GL166049  39.225  39.224   6.164
 5194POPC   GL266050  39.273  39.391   6.164
 5194POPC   C1A66051  39.193  39.277   6.464
 5194POPC   D2A66052  39.276  39.265   6.764
 5194POPC   C3A66053  39.252  39.233   7.064
 5194POPC   C4A66054  39.238  39.263   7.364
 5194POPC   C1B66055  39.338  39.426   6.464
 5194POPC   C2B66056  39.328  39.488   6.764
 5194POPC   C3B66057  39.322  39.474   7.064
 5194POPC   C4B66058  39.313  39.446   7.364
 5195POPC   NC366059   4.278  19.828   5.564
 5195POPC   PO466060   4.286  19.881   5.864
 5195POPC   GL166061   4.366  19.859   6.164
 5195POPC   GL266062   4.217  19.736   6.164
 5195POPC   C1A66063   4.269  19.857   6.464
 5195POPC   D2A66064   4.314  19.873   6.764
 5195POPC   C3A66065   4.346  19.806   7.064
 5195POPC   C4A66066   4.273  19.800   7.364
 5195POPC   C1B66067   4.162  19.597   6.464
 5195POPC   C2B66068   4.199  19.608   6.764
 5195POPC   C3B66069   4.217  19.570   7.064
 5195POPC   C4B66070   4.244  19.649   7.364
 5196POPC   NC366071  23.727  19.804   5.564
 5196POPC   PO466072  23.737  19.873   5.864
 5196POPC   GL166073  23.741  19.877   6.164
 5196POPC   GL266074  23.776  19.918   6.164
 5196POPC   C1A66075  23.706  19.786   6.464
 5196POPC   D2A66076  23.737  19.879   6.764
 5196POPC   C3A66077  23.715  19.862   7.064
 5196POPC   C4A66078  23.703  19.788   7.364
 5196POPC   C1B66079  23.821  20.060   6.464
 5196POPC   C2B66080  23.767  20.034   6.764
 5196POPC   C3B66081  23.763  20.113   7.064
 5196POPC   C4B66082  23.758  20.101   7.364
 5197POPC   NC366083  24.456  39.275   5.564
 5197POPC   PO466084  24.508  39.258   5.864
 5197POPC   GL166085  24.476  39.249   6.164
 5197POPC   GL266086  24.594  39.114   6.164
 5197POPC   C1A66087  24.448  39.207   6.464
 5197POPC   D2A66088  24.459  39.220   6.764
 5197POPC   C3A66089  24.446  39.258   7.064
 5197POPC   C4A66090  24.469  39.250   7.364
 5197POPC   C1B66091  24.664  39.114   6.464
 5197POPC   C2B66092  24.701  39.138   6.764
 5197POPC   C3B66093  24.728  39.080   7.064
 5197POPC   C4B66094  24.715  39.103   7.364
 5198POPC   NC366095   9.725  29.916   5.564
 5198POPC   PO466096   9.742  29.949   5.864
 5198POPC   GL166097   9.766  29.934   6.164
 5198POPC   GL266098   9.828  29.769   6.164
 5198POPC   C1A66099   9.778  29.912   6.464
 5198POPC   D2A66100   9.786  29.900   6.764
 5198POPC   C3A66101   9.748  29.874   7.064
 5198POPC   C4A66102   9.729  29.910   7.364
 5198POPC   C1B66103   9.844  29.713   6.464
 5198POPC   C2B66104   9.825  29.738   6.764
 5198POPC   C3B66105   9.834  29.684   7.064
 5198POPC   C4B66106   9.868  29.651   7.364
 5199POPC   NC366107  16.777   8.170   5.564
 5199POPC   PO466108  16.770   8.210   5.864
 5199POPC   GL166109  16.757   8.244   6.164
 5199POPC   GL266110  16.874   8.251   6.164
 5199POPC   C1A66111  16.774   8.234   6.464
 5199POPC   D2A66112  16.695   8.179   6.764
 5199POPC   C3A66113  16.770   8.218   7.064
 5199POPC   C4A66114  16.722   8.193   7.364
 5199POPC   C1B66115  16.905   8.339   6.464
 5199POPC   C2B66116  16.978   8.330   6.764
 5199POPC   C3B66117  16.908   8.288   7.064
 5199POPC   C4B66118  16.904   8.366   7.364
 5200POPC   NC366119  31.447  15.139   5.564
 5200POPC   PO466120  31.437  15.150   5.864
 5200POPC   GL166121  31.518  15.229   6.164
 5200POPC   GL266122  31.595  15.141   6.164
 5200POPC   C1A66123  31.480  15.198   6.464
 5200POPC   D2A66124  31.468  15.184   6.764
 5200POPC   C3A66125  31.475  15.160   7.064
 5200POPC   C4A66126  31.467  15.162   7.364
 5200POPC   C1B66127  31.687  15.042   6.464
 5200POPC   C2B66128  31.747  15.057   6.764
 5200POPC   C3B66129  31.666  15.129   7.064
 5200POPC   C4B66130  31.671  15.124   7.364
 5201POPC   NC366131   2.759   3.588   5.564
 5201POPC   PO466132   2.788   3.509   5.864
 5201POPC   GL166133   2.795   3.502   6.164
 5201POPC   GL266134   2.675   3.630   6.164
 5201POPC   C1A66135   2.801   3.530   6.464
 5201POPC   D2A66136   2.756   3.549   6.764
 5201POPC   C3A66137   2.810   3.537   7.064
 5201POPC   C4A66138   2.768   3.510   7.364
 5201POPC   C1B66139   2.507   3.627   6.464
 5201POPC   C2B66140   2.573   3.610   6.764
 5201POPC   C3B66141   2.562   3.586   7.064
 5201POPC   C4B66142   2.558   3.639   7.364
 5202POPC   NC366143  43.896   9.782   5.564
 5202POPC   PO466144  43.901   9.737   5.864
 5202POPC   GL166145  43.863   9.746   6.164
 5202POPC   GL266146  43.809   9.690   6.164
 5202POPC   C1A66147  43.913   9.794   6.464
 5202POPC   D2A66148  43.899   9.703   6.764
 5202POPC   C3A66149  43.839   9.703   7.064
 5202POPC   C4A66150  43.844   9.762   7.364
 5202POPC   C1B66151  43.609   9.646   6.464
 5202POPC   C2B66152  43.652   9.691   6.764
 5202POPC   C3B66153  43.688   9.683   7.064
 5202POPC   C4B66154  43.692   9.654   7.364
 5203POPC   NC366155  34.526  22.203   5.564
 5203POPC   PO466156  34.549  22.126   5.864
 5203POPC   GL166157  34.538  22.205   6.164
 5203POPC   GL266158  34.603  22.051   6.164
 5203POPC   C1A66159  34.610  22.196   6.464
 5203POPC   D2A66160  34.559  22.194   6.764
 5203POPC   C3A66161  34.543  22.207   7.064
 5203POPC   C4A66162  34.590  22.149   7.364
 5203POPC   C1B66163  34.617  21.927   6.464
 5203POPC   C2B66164  34.609  21.971   6.764
 5203POPC   C3B66165  34.622  21.914   7.064
 5203POPC   C4B66166  34.649  21.888   7.364
 5204POPC   NC366167  23.668  27.612   5.564
 5204POPC   PO466168  23.739  27.623   5.864
 5204POPC   GL166169  23.745  27.560   6.164
 5204POPC   GL266170  23.684  27.456   6.164
 5204POPC   C1A66171  23.666  27.610   6.464
 5204POPC   D2A66172  23.739  27.629   6.764
 5204POPC   C3A66173  23.666  27.558   7.064
 5204POPC   C4A66174  23.732  27.557   7.364
 5204POPC   C1B66175  23.685  27.392   6.464
 5204POPC   C2B66176  23.704  27.393   6.764
 5204POPC   C3B66177  23.653  27.353   7.064
 5204POPC   C4B66178  23.618  27.376   7.364
 5205POPC   NC366179  30.706  12.034   5.564
 5205POPC   PO466180  30.662  12.098   5.864
 5205POPC   GL166181  30.735  12.072   6.164
 5205POPC   GL266182  30.822  11.978   6.164
 5205POPC   C1A66183  30.713  12.112   6.464
 5205POPC   D2A66184  30.689  12.092   6.764
 5205POPC   C3A66185  30.698  12.049   7.064
 5205POPC   C4A66186  30.654  12.051   7.364
 5205POPC   C1B66187  30.888  11.942   6.464
 5205POPC   C2B66188  30.936  11.929   6.764
 5205POPC   C3B66189  30.885  11.980   7.064
 5205POPC   C4B66190  30.892  11.960   7.364
 5206POPC   NC366191  20.624  36.099   5.564
 5206POPC   PO466192  20.632  36.142   5.864
 5206POPC   GL166193  20.615  36.176   6.164
 5206POPC   GL266194  20.528  36.144   6.164
 5206POPC   C1A66195  20.582  36.130   6.464
 5206POPC   D2A66196  20.561  36.105   6.764
 5206POPC   C3A66197  20.610  36.109   7.064
 5206POPC   C4A66198  20.649  36.147   7.364
 5206POPC   C1B66199  20.335  36.112   6.464
 5206POPC   C2B66200  20.346  36.086   6.764
 5206POPC   C3B66201  20.350  36.121   7.064
 5206POPC   C4B66202  20.390  36.179   7.364
 5207POPC   NC366203   8.205   2.759   5.564
 5207POPC   PO466204   8.228   2.808   5.864
 5207POPC   GL166205   8.187   2.780   6.164
 5207POPC   GL266206   8.210   2.905   6.164
 5207POPC   C1A66207   8.240   2.782   6.464
 5207POPC   D2A66208   8.158   2.780   6.764
 5207POPC   C3A66209   8.163   2.780   7.064
 5207POPC   C4A66210   8.220   2.784   7.364
 5207POPC   C1B66211   8.162   3.047   6.464
 5207POPC   C2B66212   8.206   3.009   6.764
 5207POPC   C3B66213   8.145   3.045   7.064
 5207POPC   C4B66214   8.218   3.018   7.364
 5208POPC   NC366215  38.439  33.795   5.564
 5208POPC   PO466216  38.416  33.804   5.864
 5208POPC   GL166217  38.500  33.843   6.164
 5208POPC   GL266218  38.359  33.837   6.164
 5208POPC   C1A66219  38.444  33.821   6.464
 5208POPC   D2A66220  38.484  33.790   6.764
 5208POPC   C3A66221  38.469  33.824   7.064
 5208POPC   C4A66222  38.442  33.805   7.364
 5208POPC   C1B66223  38.237  33.924   6.464
 5208POPC   C2B66224  38.229  33.949   6.764
 5208POPC   C3B66225  38.286  33.937   7.064
 5208POPC   C4B66226  38.302  33.940   7.364
 5209POPC   NC366227   0.415  22.895   5.564
 5209POPC   PO466228   0.393  22.936   5.864
 5209POPC   GL166229   0.404  22.981   6.164
 5209POPC   GL266230   0.579  22.925   6.164
 5209POPC   C1A66231   0.393  22.943   6.464
 5209POPC   D2A66232   0.453  22.902   6.764
 5209POPC   C3A66233   0.401  22.934   7.064
 5209POPC   C4A66234   0.445  22.980   7.364
 5209POPC   C1B66235   0.672  22.927   6.464
 5209POPC   C2B66236   0.712  22.935   6.764
 5209POPC   C3B66237   0.736  22.899   7.064
 5209POPC   C4B66238   0.710  22.941   7.364
 5210POPC   NC366239   4.336  20.586   5.564
 5210POPC   PO466240   4.292  20.597   5.864
 5210POPC   GL166241   4.275  20.627   6.164
 5210POPC   GL266242   4.375  20.723   6.164
 5210POPC   C1A66243   4.342  20.593   6.464
 5210POPC   D2A66244   4.271  20.642   6.764
 5210POPC   C3A66245   4.334  20.629   7.064
 5210POPC   C4A66246   4.278  20.626   7.364
 5210POPC   C1B66247   4.448  20.801   6.464
 5210POPC   C2B66248   4.452  20.819   6.764
 5210POPC   C3B66249   4.424  20.791   7.064
 5210POPC   C4B66250   4.470  20.799   7.364
 5211POPC   NC366251  16.735  23.757   5.564
 5211POPC   PO466252  16.730  23.711   5.864
 5211POPC   GL166253  16.764  23.703   6.164
 5211POPC   GL266254  16.830  23.653   6.164
 5211POPC   C1A66255  16.773  23.705   6.464
 5211POPC   D2A66256  16.701  23.673   6.764
 5211POPC   C3A66257  16.737  23.686   7.064
 5211POPC   C4A66258  16.766  23.735   7.364
 5211POPC   C1B66259  16.911  23.522   6.464
 5211POPC   C2B66260  16.931  23.486   6.764
 5211POPC   C3B66261  16.903  23.514   7.064
 5211POPC   C4B66262  16.862  23.532   7.364
 5212POPC   NC366263  36.087  23.759   5.564
 5212POPC   PO466264  36.165  23.732   5.864
 5212POPC   GL166265  36.162  23.757   6.164
 5212POPC   GL266266  36.091  23.596   6.164
 5212POPC   C1A66267  36.103  23.677   6.464
 5212POPC   D2A66268  36.089  23.758   6.764
 5212POPC   C3A66269  36.166  23.752   7.064
 5212POPC   C4A66270  36.162  23.688   7.364
 5212POPC   C1B66271  35.983  23.496   6.464
 5212POPC   C2B66272  35.940  23.517   6.764
 5212POPC   C3B66273  35.933  23.525   7.064
 5212POPC   C4B66274  35.999  23.477   7.364
 5213POPC   NC366275   7.400   3.502   5.564
 5213POPC   PO466276   7.425   3.528   5.864
 5213POPC   GL166277   7.464   3.500   6.164
 5213POPC   GL266278   7.408   3.684   6.164
 5213POPC   C1A66279   7.424   3.542   6.464
 5213POPC   D2A66280   7.371   3.589   6.764
 5213POPC   C3A66281   7.407   3.510   7.064
 5213POPC   C4A66282   7.455   3.501   7.364
 5213POPC   C1B66283   7.306   3.739   6.464
 5213POPC   C2B66284   7.269   3.803   6.764
 5213POPC   C3B66285   7.319   3.732   7.064
 5213POPC   C4B66286   7.294   3.724   7.364
 5214POPC   NC366287   2.810   8.147   5.564
 5214POPC   PO466288   2.795   8.184   5.864
 5214POPC   GL166289   2.813   8.155   6.164
 5214POPC   GL266290   2.825   8.114   6.164
 5214POPC   C1A66291   2.811   8.193   6.464
 5214POPC   D2A66292   2.749   8.219   6.764
 5214POPC   C3A66293   2.790   8.221   7.064
 5214POPC   C4A66294   2.721   8.188   7.364
 5214POPC   C1B66295   2.960   8.044   6.464
 5214POPC   C2B66296   2.995   8.053   6.764
 5214POPC   C3B66297   3.021   8.038   7.064
 5214POPC   C4B66298   2.934   8.051   7.364
 5215POPC   NC366299  26.797  42.374   5.564
 5215POPC   PO466300  26.783  42.293   5.864
 5215POPC   GL166301  26.846  42.352   6.164
 5215POPC   GL266302  26.713  42.358   6.164
 5215POPC   C1A66303  26.795  42.292   6.464
 5215POPC   D2A66304  26.860  42.323   6.764
 5215POPC   C3A66305  26.790  42.351   7.064
 5215POPC   C4A66306  26.800  42.362   7.364
 5215POPC   C1B66307  26.542  42.364   6.464
 5215POPC   C2B66308  26.595  42.395   6.764
 5215POPC   C3B66309  26.586  42.323   7.064
 5215POPC   C4B66310  26.532  42.408   7.364
 5216POPC   NC366311  23.678  32.978   5.564
 5216POPC   PO466312  23.714  33.003   5.864
 5216POPC   GL166313  23.688  33.067   6.164
 5216POPC   GL266314  23.789  32.868   6.164
 5216POPC   C1A66315  23.745  32.992   6.464
 5216POPC   D2A66316  23.743  33.067   6.764
 5216POPC   C3A66317  23.696  33.002   7.064
 5216POPC   C4A66318  23.686  32.997   7.364
 5216POPC   C1B66319  23.756  32.821   6.464
 5216POPC   C2B66320  23.764  32.814   6.764
 5216POPC   C3B66321  23.738  32.746   7.064
 5216POPC   C4B66322  23.793  32.798   7.364
 5217POPC   NC366323  40.048   8.152   5.564
 5217POPC   PO466324  39.989   8.228   5.864
 5217POPC   GL166325  40.052   8.182   6.164
 5217POPC   GL266326  39.872   8.077   6.164
 5217POPC   C1A66327  39.974   8.193   6.464
 5217POPC   D2A66328  40.012   8.189   6.764
 5217POPC   C3A66329  39.984   8.197   7.064
 5217POPC   C4A66330  39.997   8.189   7.364
 5217POPC   C1B66331  39.823   7.987   6.464
 5217POPC   C2B66332  39.825   8.051   6.764
 5217POPC   C3B66333  39.848   8.072   7.064
 5217POPC   C4B66334  39.779   8.024   7.364
 5218POPC   NC366335  26.774  17.493   5.564
 5218POPC   PO466336  26.814  17.466   5.864
 5218POPC   GL166337  26.837  17.552   6.164
 5218POPC   GL266338  26.958  17.538   6.164
 5218POPC   C1A66339  26.815  17.555   6.464
 5218POPC   D2A66340  26.787  17.485   6.764
 5218POPC   C3A66341  26.830  17.541   7.064
 5218POPC   C4A66342  26.780  17.461   7.364
 5218POPC   C1B66343  27.017  17.643   6.464
 5218POPC   C2B66344  27.045  17.642   6.764
 5218POPC   C3B66345  27.021  17.613   7.064
 5218POPC   C4B66346  27.057  17.581   7.364
 5219POPC   NC366347   1.247  18.332   5.564
 5219POPC   PO466348   1.196  18.258   5.864
 5219POPC   GL166349   1.224  18.276   6.164
 5219POPC   GL266350   1.060  18.214   6.164
 5219POPC   C1A66351   1.233  18.284   6.464
 5219POPC   D2A66352   1.233  18.257   6.764
 5219POPC   C3A66353   1.211  18.269   7.064
 5219POPC   C4A66354   1.233  18.267   7.364
 5219POPC   C1B66355   0.937  18.199   6.464
 5219POPC   C2B66356   0.970  18.211   6.764
 5219POPC   C3B66357   0.972  18.233   7.064
 5219POPC   C4B66358   1.007  18.206   7.364
 5220POPC   NC366359  29.131  26.842   5.564
 5220POPC   PO466360  29.139  26.812   5.864
 5220POPC   GL166361  29.121  26.775   6.164
 5220POPC   GL266362  29.121  26.713   6.164
 5220POPC   C1A66363  29.168  26.801   6.464
 5220POPC   D2A66364  29.187  26.842   6.764
 5220POPC   C3A66365  29.147  26.842   7.064
 5220POPC   C4A66366  29.114  26.819   7.364
 5220POPC   C1B66367  29.032  26.598   6.464
 5220POPC   C2B66368  29.025  26.625   6.764
 5220POPC   C3B66369  29.024  26.590   7.064
 5220POPC   C4B66370  29.080  26.582   7.364
 5221POPC   NC366371  41.546  10.502   5.564
 5221POPC   PO466372  41.595  10.541   5.864
 5221POPC   GL166373  41.520  10.507   6.164
 5221POPC   GL266374  41.680  10.578   6.164
 5221POPC   C1A66375  41.571  10.487   6.464
 5221POPC   D2A66376  41.579  10.478   6.764
 5221POPC   C3A66377  41.583  10.477   7.064
 5221POPC   C4A66378  41.563  10.516   7.364
 5221POPC   C1B66379  41.802  10.603   6.464
 5221POPC   C2B66380  41.779  10.625   6.764
 5221POPC   C3B66381  41.776  10.569   7.064
 5221POPC   C4B66382  41.755  10.607   7.364
 5222POPC   NC366383  36.118   4.343   5.564
 5222POPC   PO466384  36.102   4.288   5.864
 5222POPC   GL166385  36.088   4.359   6.164
 5222POPC   GL266386  36.285   4.288   6.164
 5222POPC   C1A66387  36.107   4.331   6.464
 5222POPC   D2A66388  36.123   4.344   6.764
 5222POPC   C3A66389  36.141   4.339   7.064
 5222POPC   C4A66390  36.102   4.303   7.364
 5222POPC   C1B66391  36.329   4.377   6.464
 5222POPC   C2B66392  36.330   4.331   6.764
 5222POPC   C3B66393  36.364   4.361   7.064
 5222POPC   C4B66394  36.411   4.366   7.364
 5223POPC   NC366395  16.724  38.473   5.564
 5223POPC   PO466396  16.718  38.451   5.864
 5223POPC   GL166397  16.696  38.465   6.164
 5223POPC   GL266398  16.808  38.483   6.164
 5223POPC   C1A66399  16.694  38.434   6.464
 5223POPC   D2A66400  16.738  38.442   6.764
 5223POPC   C3A66401  16.745  38.494   7.064
 5223POPC   C4A66402  16.738  38.435   7.364
 5223POPC   C1B66403  17.008  38.551   6.464
 5223POPC   C2B66404  16.968  38.565   6.764
 5223POPC   C3B66405  16.947  38.534   7.064
 5223POPC   C4B66406  16.978  38.497   7.364
 5224POPC   NC366407  40.019  26.081   5.564
 5224POPC   PO466408  39.973  26.079   5.864
 5224POPC   GL166409  39.992  26.036   6.164
 5224POPC   GL266410  40.128  26.006   6.164
 5224POPC   C1A66411  39.972  26.013   6.464
 5224POPC   D2A66412  40.039  26.016   6.764
 5224POPC   C3A66413  40.018  26.058   7.064
 5224POPC   C4A66414  39.963  26.025   7.364
 5224POPC   C1B66415  40.275  26.031   6.464
 5224POPC   C2B66416  40.215  26.023   6.764
 5224POPC   C3B66417  40.233  26.031   7.064
 5224POPC   C4B66418  40.259  25.968   7.364
 5225POPC   NC366419  12.826   7.470   5.564
 5225POPC   PO466420  12.802   7.462   5.864
 5225POPC   GL166421  12.830   7.389   6.164
 5225POPC   GL266422  12.817   7.559   6.164
 5225POPC   C1A66423  12.873   7.375   6.464
 5225POPC   D2A66424  12.894   7.454   6.764
 5225POPC   C3A66425  12.868   7.455   7.064
 5225POPC   C4A66426  12.803   7.444   7.364
 5225POPC   C1B66427  12.785   7.629   6.464
 5225POPC   C2B66428  12.769   7.654   6.764
 5225POPC   C3B66429  12.847   7.684   7.064
 5225POPC   C4B66430  12.843   7.690   7.364
 5226POPC   NC366431  15.934   9.771   5.564
 5226POPC   PO466432  15.942   9.730   5.864
 5226POPC   GL166433  15.931   9.737   6.164
 5226POPC   GL266434  15.866   9.799   6.164
 5226POPC   C1A66435  15.982   9.760   6.464
 5226POPC   D2A66436  15.979   9.777   6.764
 5226POPC   C3A66437  15.956   9.737   7.064
 5226POPC   C4A66438  15.970   9.711   7.364
 5226POPC   C1B66439  15.698   9.872   6.464
 5226POPC   C2B66440  15.773   9.925   6.764
 5226POPC   C3B66441  15.790   9.837   7.064
 5226POPC   C4B66442  15.761   9.845   7.364
 5227POPC   NC366443   5.137  35.345   5.564
 5227POPC   PO466444   5.140  35.339   5.864
 5227POPC   GL166445   5.122  35.310   6.164
 5227POPC   GL266446   5.014  35.248   6.164
 5227POPC   C1A66447   5.095  35.365   6.464
 5227POPC   D2A66448   5.062  35.322   6.764
 5227POPC   C3A66449   5.116  35.391   7.064
 5227POPC   C4A66450   5.142  35.351   7.364
 5227POPC   C1B66451   4.898  35.178   6.464
 5227POPC   C2B66452   4.886  35.166   6.764
 5227POPC   C3B66453   4.900  35.222   7.064
 5227POPC   C4B66454   4.883  35.152   7.364
 5228POPC   NC366455   2.746  19.824   5.564
 5228POPC   PO466456   2.726  19.879   5.864
 5228POPC   GL166457   2.739  19.861   6.164
 5228POPC   GL266458   2.654  19.778   6.164
 5228POPC   C1A66459   2.794  19.807   6.464
 5228POPC   D2A66460   2.740  19.873   6.764
 5228POPC   C3A66461   2.753  19.804   7.064
 5228POPC   C4A66462   2.809  19.821   7.364
 5228POPC   C1B66463   2.654  19.655   6.464
 5228POPC   C2B66464   2.612  19.633   6.764
 5228POPC   C3B66465   2.586  19.648   7.064
 5228POPC   C4B66466   2.626  19.643   7.364
 5229POPC   NC366467  43.881  19.098   5.564
 5229POPC   PO466468  43.849  19.105   5.864
 5229POPC   GL166469  43.871  19.108   6.164
 5229POPC   GL266470  43.963  18.948   6.164
 5229POPC   C1A66471  43.914  19.053   6.464
 5229POPC   D2A66472  43.866  19.043   6.764
 5229POPC   C3A66473  43.884  19.043   7.064
 5229POPC   C4A66474  43.923  19.026   7.364
 5229POPC   C1B66475  43.896  18.833   6.464
 5229POPC   C2B66476  43.952  18.838   6.764
 5229POPC   C3B66477  43.902  18.794   7.064
 5229POPC   C4B66478  43.958  18.795   7.364
 5230POPC   NC366479  25.281  15.174   5.564
 5230POPC   PO466480  25.252  15.217   5.864
 5230POPC   GL166481  25.284  15.229   6.164
 5230POPC   GL266482  25.310  15.330   6.164
 5230POPC   C1A66483  25.243  15.140   6.464
 5230POPC   D2A66484  25.226  15.184   6.764
 5230POPC   C3A66485  25.298  15.167   7.064
 5230POPC   C4A66486  25.262  15.219   7.364
 5230POPC   C1B66487  25.372  15.390   6.464
 5230POPC   C2B66488  25.364  15.378   6.764
 5230POPC   C3B66489  25.366  15.377   7.064
 5230POPC   C4B66490  25.413  15.382   7.364
 5231POPC   NC366491   5.900   2.744   5.564
 5231POPC   PO466492   5.849   2.768   5.864
 5231POPC   GL166493   5.868   2.768   6.164
 5231POPC   GL266494   5.891   2.635   6.164
 5231POPC   C1A66495   5.848   2.779   6.464
 5231POPC   D2A66496   5.875   2.753   6.764
 5231POPC   C3A66497   5.846   2.812   7.064
 5231POPC   C4A66498   5.872   2.725   7.364
 5231POPC   C1B66499   5.894   2.483   6.464
 5231POPC   C2B66500   5.843   2.559   6.764
 5231POPC   C3B66501   5.877   2.480   7.064
 5231POPC   C4B66502   5.845   2.481   7.364
 5232POPC   NC366503   3.562  22.962   5.564
 5232POPC   PO466504   3.494  22.974   5.864
 5232POPC   GL166505   3.537  22.977   6.164
 5232POPC   GL266506   3.566  23.096   6.164
 5232POPC   C1A66507   3.547  22.973   6.464
 5232POPC   D2A66508   3.545  22.974   6.764
 5232POPC   C3A66509   3.510  22.922   7.064
 5232POPC   C4A66510   3.533  22.987   7.364
 5232POPC   C1B66511   3.555  23.139   6.464
 5232POPC   C2B66512   3.620  23.178   6.764
 5232POPC   C3B66513   3.624  23.182   7.064
 5232POPC   C4B66514   3.612  23.162   7.364
 5233POPC   NC366515  26.078  25.992   5.564
 5233POPC   PO466516  26.003  26.044   5.864
 5233POPC   GL166517  26.041  26.006   6.164
 5233POPC   GL266518  25.948  26.037   6.164
 5233POPC   C1A66519  26.058  26.029   6.464
 5233POPC   D2A66520  26.060  26.081   6.764
 5233POPC   C3A66521  25.997  26.079   7.064
 5233POPC   C4A66522  26.023  26.054   7.364
 5233POPC   C1B66523  25.809  26.093   6.464
 5233POPC   C2B66524  25.821  26.090   6.764
 5233POPC   C3B66525  25.827  26.155   7.064
 5233POPC   C4B66526  25.798  26.063   7.364
 5234POPC   NC366527  18.279  44.660   5.564
 5234POPC   PO466528  18.325  44.708   5.864
 5234POPC   GL166529  18.325  44.629   6.164
 5234POPC   GL266530  18.215  44.752   6.164
 5234POPC   C1A66531  18.284  44.693   6.464
 5234POPC   D2A66532  18.245  44.661   6.764
 5234POPC   C3A66533  18.291  44.664   7.064
 5234POPC   C4A66534  18.311  44.711   7.364
 5234POPC   C1B66535  18.137  44.876   6.464
 5234POPC   C2B66536  18.109  44.849   6.764
 5234POPC   C3B66537  18.160  44.818   7.064
 5234POPC   C4B66538  18.141  44.809   7.364
 5235POPC   NC366539  38.408  15.983   5.564
 5235POPC   PO466540  38.415  15.946   5.864
 5235POPC   GL166541  38.413  15.911   6.164
 5235POPC   GL266542  38.407  15.862   6.164
 5235POPC   C1A66543  38.448  15.919   6.464
 5235POPC   D2A66544  38.478  15.956   6.764
 5235POPC   C3A66545  38.475  15.947   7.064
 5235POPC   C4A66546  38.442  15.920   7.364
 5235POPC   C1B66547  38.331  15.718   6.464
 5235POPC   C2B66548  38.397  15.722   6.764
 5235POPC   C3B66549  38.360  15.764   7.064
 5235POPC   C4B66550  38.332  15.763   7.364
 5236POPC   NC366551  12.037  33.848   5.564
 5236POPC   PO466552  12.040  33.763   5.864
 5236POPC   GL166553  12.082  33.784   6.164
 5236POPC   GL266554  11.967  33.688   6.164
 5236POPC   C1A66555  12.087  33.798   6.464
 5236POPC   D2A66556  12.102  33.775   6.764
 5236POPC   C3A66557  12.094  33.774   7.064
 5236POPC   C4A66558  12.035  33.782   7.364
 5236POPC   C1B66559  11.861  33.657   6.464
 5236POPC   C2B66560  11.850  33.665   6.764
 5236POPC   C3B66561  11.910  33.703   7.064
 5236POPC   C4B66562  11.838  33.653   7.364
 5237POPC   NC366563  22.921  41.590   5.564
 5237POPC   PO466564  22.955  41.533   5.864
 5237POPC   GL166565  22.976  41.511   6.164
 5237POPC   GL266566  23.032  41.573   6.164
 5237POPC   C1A66567  22.954  41.567   6.464
 5237POPC   D2A66568  22.976  41.562   6.764
 5237POPC   C3A66569  22.919  41.580   7.064
 5237POPC   C4A66570  22.896  41.605   7.364
 5237POPC   C1B66571  23.229  41.516   6.464
 5237POPC   C2B66572  23.205  41.509   6.764
 5237POPC   C3B66573  23.207  41.526   7.064
 5237POPC   C4B66574  23.143  41.525   7.364
 5238POPC   NC366575  13.598  40.802   5.564
 5238POPC   PO466576  13.610  40.763   5.864
 5238POPC   GL166577  13.585  40.784   6.164
 5238POPC   GL266578  13.709  40.783   6.164
 5238POPC   C1A66579  13.664  40.811   6.464
 5238POPC   D2A66580  13.658  40.741   6.764
 5238POPC   C3A66581  13.667  40.737   7.064
 5238POPC   C4A66582  13.618  40.820   7.364
 5238POPC   C1B66583  13.827  40.756   6.464
 5238POPC   C2B66584  13.910  40.796   6.764
 5238POPC   C3B66585  13.892  40.839   7.064
 5238POPC   C4B66586  13.848  40.836   7.364
 5239POPC   NC366587  11.282   3.532   5.564
 5239POPC   PO466588  11.294   3.524   5.864
 5239POPC   GL166589  11.325   3.572   6.164
 5239POPC   GL266590  11.137   3.550   6.164
 5239POPC   C1A66591  11.337   3.580   6.464
 5239POPC   D2A66592  11.305   3.493   6.764
 5239POPC   C3A66593  11.338   3.498   7.064
 5239POPC   C4A66594  11.263   3.543   7.364
 5239POPC   C1B66595  11.077   3.467   6.464
 5239POPC   C2B66596  11.102   3.440   6.764
 5239POPC   C3B66597  11.030   3.467   7.064
 5239POPC   C4B66598  11.095   3.478   7.364
 5240POPC   NC366599  20.561  22.965   5.564
 5240POPC   PO466600  20.633  22.902   5.864
 5240POPC   GL166601  20.565  22.973   6.164
 5240POPC   GL266602  20.586  23.040   6.164
 5240POPC   C1A66603  20.634  22.935   6.464
 5240POPC   D2A66604  20.586  22.957   6.764
 5240POPC   C3A66605  20.596  22.988   7.064
 5240POPC   C4A66606  20.574  22.966   7.364
 5240POPC   C1B66607  20.521  23.147   6.464
 5240POPC   C2B66608  20.472  23.196   6.764
 5240POPC   C3B66609  20.481  23.144   7.064
 5240POPC   C4B66610  20.465  23.201   7.364
 5241POPC   NC366611  17.478  16.714   5.564
 5241POPC   PO466612  17.469  16.774   5.864
 5241POPC   GL166613  17.468  16.726   6.164
 5241POPC   GL266614  17.577  16.682   6.164
 5241POPC   C1A66615  17.507  16.733   6.464
 5241POPC   D2A66616  17.469  16.697   6.764
 5241POPC   C3A66617  17.551  16.755   7.064
 5241POPC   C4A66618  17.526  16.689   7.364
 5241POPC   C1B66619  17.730  16.580   6.464
 5241POPC   C2B66620  17.755  16.617   6.764
 5241POPC   C3B66621  17.764  16.603   7.064
 5241POPC   C4B66622  17.729  16.595   7.364
 5242POPC   NC366623  13.610  42.297   5.564
 5242POPC   PO466624  13.615  42.339   5.864
 5242POPC   GL166625  13.644  42.292   6.164
 5242POPC   GL266626  13.519  42.256   6.164
 5242POPC   C1A66627  13.596  42.342   6.464
 5242POPC   D2A66628  13.597  42.340   6.764
 5242POPC   C3A66629  13.579  42.376   7.064
 5242POPC   C4A66630  13.675  42.339   7.364
 5242POPC   C1B66631  13.434  42.240   6.464
 5242POPC   C2B66632  13.393  42.248   6.764
 5242POPC   C3B66633  13.434  42.234   7.064
 5242POPC   C4B66634  13.408  42.242   7.364
 5243POPC   NC366635  32.996  27.612   5.564
 5243POPC   PO466636  33.009  27.574   5.864
 5243POPC   GL166637  32.985  27.547   6.164
 5243POPC   GL266638  32.871  27.585   6.164
 5243POPC   C1A66639  33.071  27.603   6.464
 5243POPC   D2A66640  33.062  27.609   6.764
 5243POPC   C3A66641  32.995  27.553   7.064
 5243POPC   C4A66642  33.011  27.601   7.364
 5243POPC   C1B66643  32.846  27.519   6.464
 5243POPC   C2B66644  32.803  27.476   6.764
 5243POPC   C3B66645  32.809  27.454   7.064
 5243POPC   C4B66646  32.770  27.500   7.364
 5244POPC   NC366647  40.754  36.909   5.564
 5244POPC   PO466648  40.768  36.947   5.864
 5244POPC   GL166649  40.767  36.917   6.164
 5244POPC   GL266650  40.770  37.030   6.164
 5244POPC   C1A66651  40.733  36.927   6.464
 5244POPC   D2A66652  40.738  36.932   6.764
 5244POPC   C3A66653  40.789  36.910   7.064
 5244POPC   C4A66654  40.782  36.946   7.364
 5244POPC   C1B66655  40.852  37.179   6.464
 5244POPC   C2B66656  40.772  37.150   6.764
 5244POPC   C3B66657  40.819  37.170   7.064
 5244POPC   C4B66658  40.780  37.113   7.364
 5245POPC   NC366659  36.103  27.599   5.564
 5245POPC   PO466660  36.143  27.575   5.864
 5245POPC   GL166661  36.155  27.604   6.164
 5245POPC   GL266662  36.116  27.685   6.164
 5245POPC   C1A66663  36.125  27.629   6.464
 5245POPC   D2A66664  36.088  27.551   6.764
 5245POPC   C3A66665  36.166  27.633   7.064
 5245POPC   C4A66666  36.109  27.599   7.364
 5245POPC   C1B66667  36.199  27.845   6.464
 5245POPC   C2B66668  36.204  27.878   6.764
 5245POPC   C3B66669  36.149  27.836   7.064
 5245POPC   C4B66670  36.164  27.862   7.364
 5246POPC   NC366671  15.964  29.126   5.564
 5246POPC   PO466672  15.968  29.102   5.864
 5246POPC   GL166673  16.003  29.156   6.164
 5246POPC   GL266674  16.016  29.038   6.164
 5246POPC   C1A66675  15.954  29.109   6.464
 5246POPC   D2A66676  15.989  29.183   6.764
 5246POPC   C3A66677  15.974  29.189   7.064
 5246POPC   C4A66678  15.961  29.119   7.364
 5246POPC   C1B66679  16.164  28.988   6.464
 5246POPC   C2B66680  16.167  28.983   6.764
 5246POPC   C3B66681  16.113  28.941   7.064
 5246POPC   C4B66682  16.109  28.932   7.364
 5247POPC   NC366683   1.236  33.827   5.564
 5247POPC   PO466684   1.172  33.770   5.864
 5247POPC   GL166685   1.247  33.789   6.164
 5247POPC   GL266686   1.150  33.900   6.164
 5247POPC   C1A66687   1.194  33.806   6.464
 5247POPC   D2A66688   1.199  33.814   6.764
 5247POPC   C3A66689   1.227  33.769   7.064
 5247POPC   C4A66690   1.253  33.760   7.364
 5247POPC   C1B66691   1.062  33.950   6.464
 5247POPC   C2B66692   1.062  33.947   6.764
 5247POPC   C3B66693   1.019  34.018   7.064
 5247POPC   C4B66694   1.011  33.970   7.364
 5248POPC   NC366695  33.011  26.850   5.564
 5248POPC   PO466696  33.022  26.794   5.864
 5248POPC   GL166697  33.060  26.788   6.164
 5248POPC   GL266698  33.090  26.881   6.164
 5248POPC   C1A66699  33.068  26.767   6.464
 5248POPC   D2A66700  32.981  26.865   6.764
 5248POPC   C3A66701  33.072  26.867   7.064
 5248POPC   C4A66702  33.002  26.776   7.364
 5248POPC   C1B66703  33.193  27.025   6.464
 5248POPC   C2B66704  33.175  27.077   6.764
 5248POPC   C3B66705  33.104  27.000   7.064
 5248POPC   C4B66706  33.165  26.987   7.364
 5249POPC   NC366707  29.884  43.884   5.564
 5249POPC   PO466708  29.874  43.881   5.864
 5249POPC   GL166709  29.952  43.887   6.164
 5249POPC   GL266710  29.924  44.048   6.164
 5249POPC   C1A66711  29.967  43.854   6.464
 5249POPC   D2A66712  29.916  43.837   6.764
 5249POPC   C3A66713  29.919  43.842   7.064
 5249POPC   C4A66714  29.877  43.837   7.364
 5249POPC   C1B66715  29.922  44.158   6.464
 5249POPC   C2B66716  29.970  44.093   6.764
 5249POPC   C3B66717  29.911  44.148   7.064
 5249POPC   C4B66718  29.902  44.104   7.364
 5250POPC   NC366719  40.813  39.266   5.564
 5250POPC   PO466720  40.819  39.203   5.864
 5250POPC   GL166721  40.820  39.182   6.164
 5250POPC   GL266722  40.908  39.147   6.164
 5250POPC   C1A66723  40.768  39.189   6.464
 5250POPC   D2A66724  40.829  39.185   6.764
 5250POPC   C3A66725  40.752  39.235   7.064
 5250POPC   C4A66726  40.810  39.272   7.364
 5250POPC   C1B66727  40.983  39.118   6.464
 5250POPC   C2B66728  41.030  39.114   6.764
 5250POPC   C3B66729  40.982  39.117   7.064
 5250POPC   C4B66730  41.007  39.126   7.364
 5251POPC   NC366731  33.795  27.638   5.564
 5251POPC   PO466732  33.769  27.622   5.864
 5251POPC   GL166733  33.828  27.565   6.164
 5251POPC   GL266734  33.730  27.668   6.164
 5251POPC   C1A66735  33.779  27.619   6.464
 5251POPC   D2A66736  33.814  27.632   6.764
 5251POPC   C3A66737  33.841  27.578   7.064
 5251POPC   C4A66738  33.848  27.642   7.364
 5251POPC   C1B66739  33.664  27.756   6.464
 5251POPC   C2B66740  33.615  27.785   6.764
 5251POPC   C3B66741  33.627  27.821   7.064
 5251POPC   C4B66742  33.662  27.763   7.364
 5252POPC   NC366743  22.172  40.009   5.564
 5252POPC   PO466744  22.119  39.977   5.864
 5252POPC   GL166745  22.138  39.999   6.164
 5252POPC   GL266746  22.325  40.069   6.164
 5252POPC   C1A66747  22.165  40.019   6.464
 5252POPC   D2A66748  22.163  40.057   6.764
 5252POPC   C3A66749  22.188  39.999   7.064
 5252POPC   C4A66750  22.150  39.993   7.364
 5252POPC   C1B66751  22.440  40.051   6.464
 5252POPC   C2B66752  22.437  40.101   6.764
 5252POPC   C3B66753  22.403  40.075   7.064
 5252POPC   C4B66754  22.353  40.095   7.364
 5253POPC   NC366755  24.523  40.812   5.564
 5253POPC   PO466756  24.461  40.820   5.864
 5253POPC   GL166757  24.493  40.792   6.164
 5253POPC   GL266758  24.521  40.657   6.164
 5253POPC   C1A66759  24.495  40.787   6.464
 5253POPC   D2A66760  24.482  40.786   6.764
 5253POPC   C3A66761  24.450  40.746   7.064
 5253POPC   C4A66762  24.444  40.816   7.364
 5253POPC   C1B66763  24.526  40.574   6.464
 5253POPC   C2B66764  24.589  40.495   6.764
 5253POPC   C3B66765  24.590  40.500   7.064
 5253POPC   C4B66766  24.528  40.580   7.364
 5254POPC   NC366767  40.824   5.881   5.564
 5254POPC   PO466768  40.780   5.827   5.864
 5254POPC   GL166769  40.818   5.844   6.164
 5254POPC   GL266770  40.688   5.830   6.164
 5254POPC   C1A66771  40.808   5.916   6.464
 5254POPC   D2A66772  40.831   5.826   6.764
 5254POPC   C3A66773  40.796   5.860   7.064
 5254POPC   C4A66774  40.758   5.827   7.364
 5254POPC   C1B66775  40.562   5.871   6.464
 5254POPC   C2B66776  40.516   5.876   6.764
 5254POPC   C3B66777  40.502   5.841   7.064
 5254POPC   C4B66778  40.569   5.877   7.364
 5255POPC   NC366779  11.324  12.842   5.564
 5255POPC   PO466780  11.339  12.878   5.864
 5255POPC   GL166781  11.318  12.893   6.164
 5255POPC   GL266782  11.308  13.005   6.164
 5255POPC   C1A66783  11.271  12.876   6.464
 5255POPC   D2A66784  11.306  12.901   6.764
 5255POPC   C3A66785  11.324  12.818   7.064
 5255POPC   C4A66786  11.318  12.891   7.364
 5255POPC   C1B66787  11.382  13.092   6.464
 5255POPC   C2B66788  11.353  13.132   6.764
 5255POPC   C3B66789  11.357  13.082   7.064
 5255POPC   C4B66790  11.439  13.035   7.364
 5256POPC   NC366791   8.168  24.513   5.564
 5256POPC   PO466792   8.190  24.522   5.864
 5256POPC   GL166793   8.210  24.463   6.164
 5256POPC   GL266794   8.087  24.606   6.164
 5256POPC   C1A66795   8.153  24.536   6.464
 5256POPC   D2A66796   8.228  24.526   6.764
 5256POPC   C3A66797   8.234  24.517   7.064
 5256POPC   C4A66798   8.150  24.474   7.364
 5256POPC   C1B66799   8.109  24.714   6.464
 5256POPC   C2B66800   8.106  24.734   6.764
 5256POPC   C3B66801   8.077  24.748   7.064
 5256POPC   C4B66802   8.111  24.704   7.364
 5257POPC   NC366803  21.396  28.411   5.564
 5257POPC   PO466804  21.340  28.383   5.864
 5257POPC   GL166805  21.347  28.372   6.164
 5257POPC   GL266806  21.411  28.230   6.164
 5257POPC   C1A66807  21.391  28.392   6.464
 5257POPC   D2A66808  21.366  28.324   6.764
 5257POPC   C3A66809  21.338  28.392   7.064
 5257POPC   C4A66810  21.423  28.365   7.364
 5257POPC   C1B66811  21.415  28.121   6.464
 5257POPC   C2B66812  21.331  28.151   6.764
 5257POPC   C3B66813  21.406  28.148   7.064
 5257POPC   C4B66814  21.402  28.070   7.364
 5258POPC   NC366815  39.998  34.535   5.564
 5258POPC   PO466816  39.977  34.584   5.864
 5258POPC   GL166817  39.990  34.602   6.164
 5258POPC   GL266818  40.130  34.709   6.164
 5258POPC   C1A66819  39.999  34.595   6.464
 5258POPC   D2A66820  40.014  34.543   6.764
 5258POPC   C3A66821  40.037  34.558   7.064
 5258POPC   C4A66822  39.961  34.549   7.364
 5258POPC   C1B66823  40.195  34.770   6.464
 5258POPC   C2B66824  40.130  34.806   6.764
 5258POPC   C3B66825  40.207  34.751   7.064
 5258POPC   C4B66826  40.143  34.821   7.364
 5259POPC   NC366827  29.939  29.954   5.564
 5259POPC   PO466828  29.969  29.938   5.864
 5259POPC   GL166829  29.965  29.970   6.164
 5259POPC   GL266830  29.845  29.914   6.164
 5259POPC   C1A66831  29.931  29.890   6.464
 5259POPC   D2A66832  29.946  29.928   6.764
 5259POPC   C3A66833  29.946  29.929   7.064
 5259POPC   C4A66834  29.915  29.921   7.364
 5259POPC   C1B66835  29.680  29.847   6.464
 5259POPC   C2B66836  29.678  29.797   6.764
 5259POPC   C3B66837  29.676  29.868   7.064
 5259POPC   C4B66838  29.662  29.858   7.364
 5260POPC   NC366839  33.000   3.529   5.564
 5260POPC   PO466840  33.070   3.519   5.864
 5260POPC   GL166841  33.024   3.502   6.164
 5260POPC   GL266842  33.032   3.390   6.164
 5260POPC   C1A66843  32.977   3.584   6.464
 5260POPC   D2A66844  33.035   3.547   6.764
 5260POPC   C3A66845  33.030   3.531   7.064
 5260POPC   C4A66846  33.057   3.501   7.364
 5260POPC   C1B66847  33.165   3.350   6.464
 5260POPC   C2B66848  33.118   3.315   6.764
 5260POPC   C3B66849  33.077   3.271   7.064
 5260POPC   C4B66850  33.118   3.302   7.364
 5261POPC   NC366851  43.144  43.133   5.564
 5261POPC   PO466852  43.131  43.079   5.864
 5261POPC   GL166853  43.153  43.130   6.164
 5261POPC   GL266854  43.231  43.187   6.164
 5261POPC   C1A66855  43.125  43.111   6.464
 5261POPC   D2A66856  43.093  43.073   6.764
 5261POPC   C3A66857  43.157  43.106   7.064
 5261POPC   C4A66858  43.079  43.103   7.364
 5261POPC   C1B66859  43.299  43.254   6.464
 5261POPC   C2B66860  43.270  43.279   6.764
 5261POPC   C3B66861  43.343  43.245   7.064
 5261POPC   C4B66862  43.267  43.288   7.364
 5262POPC   NC366863  41.574  14.389   5.564
 5262POPC   PO466864  41.570  14.395   5.864
 5262POPC   GL166865  41.549  14.380   6.164
 5262POPC   GL266866  41.408  14.466   6.164
 5262POPC   C1A66867  41.587  14.441   6.464
 5262POPC   D2A66868  41.556  14.402   6.764
 5262POPC   C3A66869  41.570  14.354   7.064
 5262POPC   C4A66870  41.608  14.434   7.364
 5262POPC   C1B66871  41.297  14.528   6.464
 5262POPC   C2B66872  41.378  14.584   6.764
 5262POPC   C3B66873  41.347  14.523   7.064
 5262POPC   C4B66874  41.338  14.577   7.364
 5263POPC   NC366875   2.758   6.643   5.564
 5263POPC   PO466876   2.785   6.611   5.864
 5263POPC   GL166877   2.780   6.631   6.164
 5263POPC   GL266878   2.801   6.529   6.164
 5263POPC   C1A66879   2.717   6.675   6.464
 5263POPC   D2A66880   2.806   6.637   6.764
 5263POPC   C3A66881   2.740   6.691   7.064
 5263POPC   C4A66882   2.812   6.629   7.364
 5263POPC   C1B66883   2.881   6.480   6.464
 5263POPC   C2B66884   2.851   6.440   6.764
 5263POPC   C3B66885   2.886   6.441   7.064
 5263POPC   C4B66886   2.881   6.475   7.364
 5264POPC   NC366887  10.498  20.629   5.564
 5264POPC   PO466888  10.570  20.631   5.864
 5264POPC   GL166889  10.492  20.635   6.164
 5264POPC   GL266890  10.696  20.572   6.164
 5264POPC   C1A66891  10.504  20.626   6.464
 5264POPC   D2A66892  10.531  20.569   6.764
 5264POPC   C3A66893  10.493  20.649   7.064
 5264POPC   C4A66894  10.541  20.658   7.364
 5264POPC   C1B66895  10.823  20.593   6.464
 5264POPC   C2B66896  10.745  20.661   6.764
 5264POPC   C3B66897  10.779  20.595   7.064
 5264POPC   C4B66898  10.753  20.617   7.364
 5265POPC   NC366899  15.158  42.332   5.564
 5265POPC   PO466900  15.142  42.382   5.864
 5265POPC   GL166901  15.202  42.363   6.164
 5265POPC   GL266902  15.107  42.412   6.164
 5265POPC   C1A66903  15.155  42.332   6.464
 5265POPC   D2A66904  15.150  42.365   6.764
 5265POPC   C3A66905  15.168  42.292   7.064
 5265POPC   C4A66906  15.193  42.364   7.364
 5265POPC   C1B66907  15.130  42.585   6.464
 5265POPC   C2B66908  15.174  42.534   6.764
 5265POPC   C3B66909  15.152  42.625   7.064
 5265POPC   C4B66910  15.180  42.563   7.364
 5266POPC   NC366911  43.100   0.429   5.564
 5266POPC   PO466912  43.154   0.425   5.864
 5266POPC   GL166913  43.105   0.438   6.164
 5266POPC   GL266914  43.150   0.303   6.164
 5266POPC   C1A66915  43.090   0.481   6.464
 5266POPC   D2A66916  43.118   0.431   6.764
 5266POPC   C3A66917  43.073   0.484   7.064
 5266POPC   C4A66918  43.121   0.393   7.364
 5266POPC   C1B66919  43.247   0.241   6.464
 5266POPC   C2B66920  43.162   0.204   6.764
 5266POPC   C3B66921  43.153   0.157   7.064
 5266POPC   C4B66922  43.238   0.176   7.364
 5267POPC   NC366923   0.473   6.675   5.564
 5267POPC   PO466924   0.473   6.671   5.864
 5267POPC   GL166925   0.430   6.599   6.164
 5267POPC   GL266926   0.497   6.528   6.164
 5267POPC   C1A66927   0.416   6.620   6.464
 5267POPC   D2A66928   0.411   6.665   6.764
 5267POPC   C3A66929   0.411   6.648   7.064
 5267POPC   C4A66930   0.484   6.656   7.364
 5267POPC   C1B66931   0.599   6.392   6.464
 5267POPC   C2B66932   0.597   6.464   6.764
 5267POPC   C3B66933   0.619   6.411   7.064
 5267POPC   C4B66934   0.542   6.391   7.364
 5268POPC   NC366935  44.680   9.724   5.564
 5268POPC   PO466936  44.663   9.742   5.864
 5268POPC   GL166937  44.628   9.702   6.164
 5268POPC   GL266938  44.788   9.664   6.164
 5268POPC   C1A66939  44.702   9.768   6.464
 5268POPC   D2A66940  44.643   9.747   6.764
 5268POPC   C3A66941  44.621   9.734   7.064
 5268POPC   C4A66942  44.630   9.699   7.364
 5268POPC   C1B66943  44.862   9.653   6.464
 5268POPC   C2B66944  44.925   9.620   6.764
 5268POPC   C3B66945  44.930   9.638   7.064
 5268POPC   C4B66946  44.874   9.646   7.364
 5269POPC   NC366947  36.891  44.689   5.564
 5269POPC   PO466948  36.924  44.642   5.864
 5269POPC   GL166949  36.887  44.652   6.164
 5269POPC   GL266950  36.761  44.679   6.164
 5269POPC   C1A66951  36.930  44.685   6.464
 5269POPC   D2A66952  36.902  44.702   6.764
 5269POPC   C3A66953  36.862  44.695   7.064
 5269POPC   C4A66954  36.874  44.691   7.364
 5269POPC   C1B66955  36.648  44.736   6.464
 5269POPC   C2B66956  36.643  44.709   6.764
 5269POPC   C3B66957  36.628  44.750   7.064
 5269POPC   C4B66958  36.698  44.689   7.364
 5270POPC   NC366959  22.962  39.983   5.564
 5270POPC   PO466960  22.916  39.986   5.864
 5270POPC   GL166961  22.890  40.038   6.164
 5270POPC   GL266962  23.054  39.999   6.164
 5270POPC   C1A66963  22.913  39.967   6.464
 5270POPC   D2A66964  22.965  39.986   6.764
 5270POPC   C3A66965  22.948  39.991   7.064
 5270POPC   C4A66966  22.958  40.020   7.364
 5270POPC   C1B66967  23.196  39.960   6.464
 5270POPC   C2B66968  23.208  39.983   6.764
 5270POPC   C3B66969  23.206  40.019   7.064
 5270POPC   C4B66970  23.156  40.034   7.364
 5271POPC   NC366971  26.782  21.401   5.564
 5271POPC   PO466972  26.852  21.399   5.864
 5271POPC   GL166973  26.842  21.371   6.164
 5271POPC   GL266974  26.837  21.494   6.164
 5271POPC   C1A66975  26.778  21.396   6.464
 5271POPC   D2A66976  26.792  21.385   6.764
 5271POPC   C3A66977  26.785  21.400   7.064
 5271POPC   C4A66978  26.798  21.368   7.364
 5271POPC   C1B66979  26.774  21.680   6.464
 5271POPC   C2B66980  26.782  21.629   6.764
 5271POPC   C3B66981  26.823  21.601   7.064
 5271POPC   C4B66982  26.806  21.674   7.364
 5272POPC   NC366983  22.134  41.576   5.564
 5272POPC   PO466984  22.159  41.592   5.864
 5272POPC   GL166985  22.190  41.566   6.164
 5272POPC   GL266986  22.127  41.689   6.164
 5272POPC   C1A66987  22.160  41.575   6.464
 5272POPC   D2A66988  22.205  41.540   6.764
 5272POPC   C3A66989  22.164  41.608   7.064
 5272POPC   C4A66990  22.117  41.588   7.364
 5272POPC   C1B66991  22.011  41.784   6.464
 5272POPC   C2B66992  22.043  41.772   6.764
 5272POPC   C3B66993  22.041  41.818   7.064
 5272POPC   C4B66994  22.027  41.820   7.364
 5273POPC   NC366995   6.672  29.096   5.564
 5273POPC   PO466996   6.645  29.154   5.864
 5273POPC   GL166997   6.649  29.183   6.164
 5273POPC   GL266998   6.673  29.068   6.164
 5273POPC   C1A66999   6.667  29.113   6.464
 5273POPC   D2A67000   6.596  29.118   6.764
 5273POPC   C3A67001   6.640  29.172   7.064
 5273POPC   C4A67002   6.602  29.174   7.364
 5273POPC   C1B67003   6.763  28.868   6.464
 5273POPC   C2B67004   6.736  28.874   6.764
 5273POPC   C3B67005   6.738  28.915   7.064
 5273POPC   C4B67006   6.736  28.936   7.364
 5274POPC   NC367007  32.994  15.219   5.564
 5274POPC   PO467008  33.039  15.217   5.864
 5274POPC   GL167009  33.016  15.228   6.164
 5274POPC   GL267010  33.193  15.137   6.164
 5274POPC   C1A67011  32.978  15.180   6.464
 5274POPC   D2A67012  32.997  15.177   6.764
 5274POPC   C3A67013  33.074  15.211   7.064
 5274POPC   C4A67014  33.050  15.146   7.364
 5274POPC   C1B67015  33.284  15.162   6.464
 5274POPC   C2B67016  33.284  15.134   6.764
 5274POPC   C3B67017  33.311  15.104   7.064
 5274POPC   C4B67018  33.225  15.065   7.364
 5275POPC   NC367019   4.330  15.941   5.564
 5275POPC   PO467020   4.286  15.963   5.864
 5275POPC   GL167021   4.271  15.960   6.164
 5275POPC   GL267022   4.338  16.033   6.164
 5275POPC   C1A67023   4.311  15.923   6.464
 5275POPC   D2A67024   4.322  15.993   6.764
 5275POPC   C3A67025   4.289  15.932   7.064
 5275POPC   C4A67026   4.323  15.995   7.364
 5275POPC   C1B67027   4.323  16.167   6.464
 5275POPC   C2B67028   4.269  16.237   6.764
 5275POPC   C3B67029   4.258  16.179   7.064
 5275POPC   C4B67030   4.341  16.244   7.364
 5276POPC   NC367031  21.337  44.650   5.564
 5276POPC   PO467032  21.352  44.669   5.864
 5276POPC   GL167033  21.405  44.628   6.164
 5276POPC   GL267034  21.348  44.539   6.164
 5276POPC   C1A67035  21.406  44.615   6.464
 5276POPC   D2A67036  21.390  44.688   6.764
 5276POPC   C3A67037  21.371  44.638   7.064
 5276POPC   C4A67038  21.411  44.686   7.364
 5276POPC   C1B67039  21.285  44.477   6.464
 5276POPC   C2B67040  21.296  44.463   6.764
 5276POPC   C3B67041  21.274  44.408   7.064
 5276POPC   C4B67042  21.212  44.428   7.364
 5277POPC   NC367043  29.884  19.826   5.564
 5277POPC   PO467044  29.954  19.797   5.864
 5277POPC   GL167045  29.931  19.841   6.164
 5277POPC   GL267046  29.812  19.740   6.164
 5277POPC   C1A67047  29.886  19.825   6.464
 5277POPC   D2A67048  29.904  19.799   6.764
 5277POPC   C3A67049  29.884  19.787   7.064
 5277POPC   C4A67050  29.968  19.855   7.364
 5277POPC   C1B67051  29.740  19.695   6.464
 5277POPC   C2B67052  29.708  19.710   6.764
 5277POPC   C3B67053  29.676  19.676   7.064
 5277POPC   C4B67054  29.691  19.667   7.364
 5278POPC   NC367055  17.483  39.247   5.564
 5278POPC   PO467056  17.528  39.217   5.864
 5278POPC   GL167057  17.539  39.194   6.164
 5278POPC   GL267058  17.394  39.211   6.164
 5278POPC   C1A67059  17.539  39.230   6.464
 5278POPC   D2A67060  17.554  39.224   6.764
 5278POPC   C3A67061  17.488  39.211   7.064
 5278POPC   C4A67062  17.477  39.235   7.364
 5278POPC   C1B67063  17.285  39.260   6.464
 5278POPC   C2B67064  17.209  39.164   6.764
 5278POPC   C3B67065  17.232  39.246   7.064
 5278POPC   C4B67066  17.263  39.249   7.364
 5279POPC   NC367067   5.121  18.249   5.564
 5279POPC   PO467068   5.120  18.315   5.864
 5279POPC   GL167069   5.100  18.250   6.164
 5279POPC   GL267070   4.982  18.324   6.164
 5279POPC   C1A67071   5.129  18.243   6.464
 5279POPC   D2A67072   5.117  18.302   6.764
 5279POPC   C3A67073   5.073  18.271   7.064
 5279POPC   C4A67074   5.103  18.327   7.364
 5279POPC   C1B67075   4.836  18.397   6.464
 5279POPC   C2B67076   4.883  18.456   6.764
 5279POPC   C3B67077   4.918  18.386   7.064
 5279POPC   C4B67078   4.853  18.459   7.364
 5280POPC   NC367079  40.749  28.355   5.564
 5280POPC   PO467080  40.766  28.325   5.864
 5280POPC   GL167081  40.786  28.362   6.164
 5280POPC   GL267082  40.935  28.390   6.164
 5280POPC   C1A67083  40.757  28.381   6.464
 5280POPC   D2A67084  40.817  28.350   6.764
 5280POPC   C3A67085  40.809  28.333   7.064
 5280POPC   C4A67086  40.825  28.366   7.364
 5280POPC   C1B67087  41.003  28.348   6.464
 5280POPC   C2B67088  41.067  28.415   6.764
 5280POPC   C3B67089  40.982  28.355   7.064
 5280POPC   C4B67090  41.004  28.374   7.364
 5281POPC   NC367091  43.127  29.170   5.564
 5281POPC   PO467092  43.151  29.144   5.864
 5281POPC   GL167093  43.087  29.114   6.164
 5281POPC   GL267094  43.141  29.232   6.164
 5281POPC   C1A67095  43.076  29.147   6.464
 5281POPC   D2A67096  43.097  29.172   6.764
 5281POPC   C3A67097  43.064  29.116   7.064
 5281POPC   C4A67098  43.146  29.189   7.364
 5281POPC   C1B67099  43.212  29.420   6.464
 5281POPC   C2B67100  43.226  29.415   6.764
 5281POPC   C3B67101  43.255  29.407   7.064
 5281POPC   C4B67102  43.230  29.401   7.364
 5282POPC   NC367103   6.669   5.129   5.564
 5282POPC   PO467104   6.609   5.044   5.864
 5282POPC   GL167105   6.665   5.083   6.164
 5282POPC   GL267106   6.514   5.114   6.164
 5282POPC   C1A67107   6.679   5.092   6.464
 5282POPC   D2A67108   6.690   5.122   6.764
 5282POPC   C3A67109   6.634   5.111   7.064
 5282POPC   C4A67110   6.670   5.142   7.364
 5282POPC   C1B67111   6.381   5.123   6.464
 5282POPC   C2B67112   6.378   5.103   6.764
 5282POPC   C3B67113   6.371   5.166   7.064
 5282POPC   C4B67114   6.432   5.172   7.364
 5283POPC   NC367115  13.662  15.935   5.564
 5283POPC   PO467116  13.636  15.933   5.864
 5283POPC   GL167117  13.674  15.941   6.164
 5283POPC   GL267118  13.757  16.012   6.164
 5283POPC   C1A67119  13.614  15.985   6.464
 5283POPC   D2A67120  13.677  15.917   6.764
 5283POPC   C3A67121  13.664  15.945   7.064
 5283POPC   C4A67122  13.612  15.962   7.364
 5283POPC   C1B67123  13.899  16.059   6.464
 5283POPC   C2B67124  13.850  16.090   6.764
 5283POPC   C3B67125  13.881  16.037   7.064
 5283POPC   C4B67126  13.811  16.020   7.364
 5284POPC   NC367127  23.759  14.379   5.564
 5284POPC   PO467128  23.729  14.418   5.864
 5284POPC   GL167129  23.696  14.405   6.164
 5284POPC   GL267130  23.665  14.325   6.164
 5284POPC   C1A67131  23.679  14.391   6.464
 5284POPC   D2A67132  23.740  14.355   6.764
 5284POPC   C3A67133  23.711  14.395   7.064
 5284POPC   C4A67134  23.701  14.419   7.364
 5284POPC   C1B67135  23.563  14.243   6.464
 5284POPC   C2B67136  23.609  14.160   6.764
 5284POPC   C3B67137  23.608  14.231   7.064
 5284POPC   C4B67138  23.534  14.246   7.364
 5285POPC   NC367139  35.333  10.567   5.564
 5285POPC   PO467140  35.336  10.565   5.864
 5285POPC   GL167141  35.333  10.538   6.164
 5285POPC   GL267142  35.360  10.648   6.164
 5285POPC   C1A67143  35.382  10.504   6.464
 5285POPC   D2A67144  35.346  10.561   6.764
 5285POPC   C3A67145  35.315  10.495   7.064
 5285POPC   C4A67146  35.371  10.536   7.364
 5285POPC   C1B67147  35.441  10.805   6.464
 5285POPC   C2B67148  35.420  10.740   6.764
 5285POPC   C3B67149  35.375  10.792   7.064
 5285POPC   C4B67150  35.378  10.807   7.364
 5286POPC   NC367151  26.090  11.264   5.564
 5286POPC   PO467152  26.024  11.280   5.864
 5286POPC   GL167153  25.992  11.321   6.164
 5286POPC   GL267154  25.998  11.168   6.164
 5286POPC   C1A67155  26.067  11.270   6.464
 5286POPC   D2A67156  26.024  11.279   6.764
 5286POPC   C3A67157  26.018  11.336   7.064
 5286POPC   C4A67158  26.002  11.329   7.364
 5286POPC   C1B67159  25.962  11.034   6.464
 5286POPC   C2B67160  25.970  11.009   6.764
 5286POPC   C3B67161  26.021  11.013   7.064
 5286POPC   C4B67162  26.011  11.019   7.364
 5287POPC   NC367163   2.808  42.367   5.564
 5287POPC   PO467164   2.764  42.291   5.864
 5287POPC   GL167165   2.733  42.332   6.164
 5287POPC   GL267166   2.694  42.273   6.164
 5287POPC   C1A67167   2.798  42.300   6.464
 5287POPC   D2A67168   2.815  42.359   6.764
 5287POPC   C3A67169   2.793  42.347   7.064
 5287POPC   C4A67170   2.803  42.323   7.364
 5287POPC   C1B67171   2.572  42.146   6.464
 5287POPC   C2B67172   2.546  42.176   6.764
 5287POPC   C3B67173   2.578  42.183   7.064
 5287POPC   C4B67174   2.585  42.180   7.364
 5288POPC   NC367175  38.498  44.618   5.564
 5288POPC   PO467176  38.478  44.702   5.864
 5288POPC   GL167177  38.471  44.619   6.164
 5288POPC   GL267178  38.412  44.573   6.164
 5288POPC   C1A67179  38.419  44.704   6.464
 5288POPC   D2A67180  38.464  44.645   6.764
 5288POPC   C3A67181  38.501  44.629   7.064
 5288POPC   C4A67182  38.437  44.631   7.364
 5288POPC   C1B67183  38.294  44.443   6.464
 5288POPC   C2B67184  38.285  44.522   6.764
 5288POPC   C3B67185  38.276  44.523   7.064
 5288POPC   C4B67186  38.300  44.465   7.364
 5289POPC   NC367187  15.970  40.817   5.564
 5289POPC   PO467188  15.975  40.757   5.864
 5289POPC   GL167189  15.981  40.754   6.164
 5289POPC   GL267190  15.861  40.656   6.164
 5289POPC   C1A67191  15.934  40.756   6.464
 5289POPC   D2A67192  15.939  40.774   6.764
 5289POPC   C3A67193  15.912  40.832   7.064
 5289POPC   C4A67194  15.992  40.802   7.364
 5289POPC   C1B67195  15.793  40.587   6.464
 5289POPC   C2B67196  15.869  40.554   6.764
 5289POPC   C3B67197  15.863  40.594   7.064
 5289POPC   C4B67198  15.804  40.614   7.364
 5290POPC   NC367199  39.264  30.676   5.564
 5290POPC   PO467200  39.215  30.668   5.864
 5290POPC   GL167201  39.233  30.715   6.164
 5290POPC   GL267202  39.169  30.845   6.164
 5290POPC   C1A67203  39.270  30.743   6.464
 5290POPC   D2A67204  39.205  30.733   6.764
 5290POPC   C3A67205  39.187  30.698   7.064
 5290POPC   C4A67206  39.260  30.686   7.364
 5290POPC   C1B67207  39.045  30.847   6.464
 5290POPC   C2B67208  39.121  30.901   6.764
 5290POPC   C3B67209  39.072  30.937   7.064
 5290POPC   C4B67210  39.110  30.920   7.364
 5291POPC   NC367211   8.188   8.997   5.564
 5291POPC   PO467212   8.159   8.982   5.864
 5291POPC   GL167213   8.234   8.947   6.164
 5291POPC   GL267214   8.260   8.851   6.164
 5291POPC   C1A67215   8.226   8.978   6.464
 5291POPC   D2A67216   8.246   8.953   6.764
 5291POPC   C3A67217   8.228   8.961   7.064
 5291POPC   C4A67218   8.222   8.945   7.364
 5291POPC   C1B67219   8.274   8.771   6.464
 5291POPC   C2B67220   8.223   8.695   6.764
 5291POPC   C3B67221   8.221   8.777   7.064
 5291POPC   C4B67222   8.290   8.764   7.364
 5292POPC   NC367223  22.129  22.936   5.564
 5292POPC   PO467224  22.135  22.917   5.864
 5292POPC   GL167225  22.160  22.915   6.164
 5292POPC   GL267226  22.151  23.086   6.164
 5292POPC   C1A67227  22.143  22.977   6.464
 5292POPC   D2A67228  22.203  22.987   6.764
 5292POPC   C3A67229  22.190  22.940   7.064
 5292POPC   C4A67230  22.160  22.908   7.364
 5292POPC   C1B67231  22.202  23.153   6.464
 5292POPC   C2B67232  22.139  23.202   6.764
 5292POPC   C3B67233  22.190  23.206   7.064
 5292POPC   C4B67234  22.187  23.160   7.364
 5293POPC   NC367235   1.994   5.892   5.564
 5293POPC   PO467236   2.015   5.916   5.864
 5293POPC   GL167237   2.007   5.909   6.164
 5293POPC   GL267238   1.943   5.772   6.164
 5293POPC   C1A67239   2.030   5.895   6.464
 5293POPC   D2A67240   2.019   5.831   6.764
 5293POPC   C3A67241   1.996   5.866   7.064
 5293POPC   C4A67242   2.004   5.856   7.364
 5293POPC   C1B67243   1.793   5.734   6.464
 5293POPC   C2B67244   1.832   5.705   6.764
 5293POPC   C3B67245   1.788   5.718   7.064
 5293POPC   C4B67246   1.834   5.712   7.364
 5294POPC   NC367247   1.252   3.538   5.564
 5294POPC   PO467248   1.234   3.557   5.864
 5294POPC   GL167249   1.172   3.499   6.164
 5294POPC   GL267250   1.120   3.505   6.164
 5294POPC   C1A67251   1.237   3.566   6.464
 5294POPC   D2A67252   1.169   3.564   6.764
 5294POPC   C3A67253   1.217   3.497   7.064
 5294POPC   C4A67254   1.196   3.552   7.364
 5294POPC   C1B67255   0.946   3.544   6.464
 5294POPC   C2B67256   0.997   3.539   6.764
 5294POPC   C3B67257   0.958   3.518   7.064
 5294POPC   C4B67258   0.967   3.540   7.364
 5295POPC   NC367259  15.225  43.067   5.564
 5295POPC   PO467260  15.171  43.115   5.864
 5295POPC   GL167261  15.161  43.092   6.164
 5295POPC   GL267262  15.041  43.064   6.164
 5295POPC   C1A67263  15.144  43.104   6.464
 5295POPC   D2A67264  15.130  43.075   6.764
 5295POPC   C3A67265  15.170  43.148   7.064
 5295POPC   C4A67266  15.134  43.063   7.364
 5295POPC   C1B67267  14.948  43.064   6.464
 5295POPC   C2B67268  14.930  43.051   6.764
 5295POPC   C3B67269  14.880  43.106   7.064
 5295POPC   C4B67270  14.939  43.091   7.364
 5296POPC   NC367271  27.547   0.413   5.564
 5296POPC   PO467272  27.554   0.421   5.864
 5296POPC   GL167273  27.562   0.479   6.164
 5296POPC   GL267274  27.681   0.448   6.164
 5296POPC   C1A67275  27.561   0.465   6.464
 5296POPC   D2A67276  27.572   0.432   6.764
 5296POPC   C3A67277  27.563   0.411   7.064
 5296POPC   C4A67278  27.558   0.442   7.364
 5296POPC   C1B67279  27.815   0.470   6.464
 5296POPC   C2B67280  27.820   0.432   6.764
 5296POPC   C3B67281  27.794   0.445   7.064
 5296POPC   C4B67282  27.859   0.421   7.364
 5297POPC   NC367283  30.703  16.768   5.564
 5297POPC   PO467284  30.650  16.731   5.864
 5297POPC   GL167285  30.656  16.729   6.164
 5297POPC   GL267286  30.695  16.638   6.164
 5297POPC   C1A67287  30.715  16.719   6.464
 5297POPC   D2A67288  30.712  16.761   6.764
 5297POPC   C3A67289  30.696  16.682   7.064
 5297POPC   C4A67290  30.667  16.763   7.364
 5297POPC   C1B67291  30.694  16.441   6.464
 5297POPC   C2B67292  30.722  16.466   6.764
 5297POPC   C3B67293  30.691  16.453   7.064
 5297POPC   C4B67294  30.686  16.509   7.364
 5298POPC   NC367295  35.328   5.865   5.564
 5298POPC   PO467296  35.396   5.848   5.864
 5298POPC   GL167297  35.364   5.871   6.164
 5298POPC   GL267298  35.310   5.735   6.164
 5298POPC   C1A67299  35.306   5.839   6.464
 5298POPC   D2A67300  35.366   5.842   6.764
 5298POPC   C3A67301  35.385   5.830   7.064
 5298POPC   C4A67302  35.307   5.839   7.364
 5298POPC   C1B67303  35.255   5.620   6.464
 5298POPC   C2B67304  35.328   5.593   6.764
 5298POPC   C3B67305  35.322   5.576   7.064
 5298POPC   C4B67306  35.316   5.595   7.364
 5299POPC   NC367307   2.812  25.263   5.564
 5299POPC   PO467308   2.733  25.315   5.864
 5299POPC   GL167309   2.745  25.231   6.164
 5299POPC   GL267310   2.794  25.132   6.164
 5299POPC   C1A67311   2.746  25.281   6.464
 5299POPC   D2A67312   2.779  25.287   6.764
 5299POPC   C3A67313   2.760  25.295   7.064
 5299POPC   C4A67314   2.743  25.278   7.364
 5299POPC   C1B67315   2.887  25.073   6.464
 5299POPC   C2B67316   2.858  25.058   6.764
 5299POPC   C3B67317   2.853  25.033   7.064
 5299POPC   C4B67318   2.866  25.028   7.364
 5300POPC   NC367319  39.200   5.877   5.564
 5300POPC   PO467320  39.240   5.836   5.864
 5300POPC   GL167321  39.203   5.832   6.164
 5300POPC   GL267322  39.156   5.795   6.164
 5300POPC   C1A67323  39.278   5.864   6.464
 5300POPC   D2A67324  39.191   5.880   6.764
 5300POPC   C3A67325  39.230   5.857   7.064
 5300POPC   C4A67326  39.246   5.919   7.364
 5300POPC   C1B67327  39.067   5.626   6.464
 5300POPC   C2B67328  39.115   5.688   6.764
 5300POPC   C3B67329  39.091   5.673   7.064
 5300POPC   C4B67330  39.098   5.627   7.364
 5301POPC   NC367331   5.848  14.374   5.564
 5301POPC   PO467332   5.918  14.365   5.864
 5301POPC   GL167333   5.897  14.371   6.164
 5301POPC   GL267334   5.781  14.495   6.164
 5301POPC   C1A67335   5.901  14.399   6.464
 5301POPC   D2A67336   5.840  14.404   6.764
 5301POPC   C3A67337   5.856  14.422   7.064
 5301POPC   C4A67338   5.907  14.442   7.364
 5301POPC   C1B67339   5.674  14.580   6.464
 5301POPC   C2B67340   5.674  14.612   6.764
 5301POPC   C3B67341   5.712  14.582   7.064
 5301POPC   C4B67342   5.657  14.534   7.364
 5302POPC   NC367343   2.791  21.404   5.564
 5302POPC   PO467344   2.771  21.345   5.864
 5302POPC   GL167345   2.782  21.411   6.164
 5302POPC   GL267346   2.680  21.454   6.164
 5302POPC   C1A67347   2.797  21.357   6.464
 5302POPC   D2A67348   2.774  21.360   6.764
 5302POPC   C3A67349   2.786  21.361   7.064
 5302POPC   C4A67350   2.721  21.398   7.364
 5302POPC   C1B67351   2.506  21.427   6.464
 5302POPC   C2B67352   2.474  21.442   6.764
 5302POPC   C3B67353   2.567  21.474   7.064
 5302POPC   C4B67354   2.526  21.483   7.364
 5303POPC   NC367355  26.850  22.973   5.564
 5303POPC   PO467356  26.811  22.906   5.864
 5303POPC   GL167357  26.834  22.965   6.164
 5303POPC   GL267358  26.840  22.832   6.164
 5303POPC   C1A67359  26.845  22.892   6.464
 5303POPC   D2A67360  26.847  22.975   6.764
 5303POPC   C3A67361  26.858  22.920   7.064
 5303POPC   C4A67362  26.861  22.974   7.364
 5303POPC   C1B67363  26.990  22.731   6.464
 5303POPC   C2B67364  26.911  22.693   6.764
 5303POPC   C3B67365  26.923  22.737   7.064
 5303POPC   C4B67366  26.942  22.763   7.364
 5304POPC   NC367367  37.702  12.085   5.564
 5304POPC   PO467368  37.663  12.087   5.864
 5304POPC   GL167369  37.727  12.061   6.164
 5304POPC   GL267370  37.783  12.200   6.164
 5304POPC   C1A67371  37.636  12.052   6.464
 5304POPC   D2A67372  37.657  12.090   6.764
 5304POPC   C3A67373  37.670  12.041   7.064
 5304POPC   C4A67374  37.679  12.040   7.364
 5304POPC   C1B67375  37.789  12.257   6.464
 5304POPC   C2B67376  37.806  12.336   6.764
 5304POPC   C3B67377  37.813  12.347   7.064
 5304POPC   C4B67378  37.788  12.336   7.364
 5305POPC   NC367379   5.843   1.233   5.564
 5305POPC   PO467380   5.858   1.168   5.864
 5305POPC   GL167381   5.835   1.212   6.164
 5305POPC   GL267382   5.818   1.370   6.164
 5305POPC   C1A67383   5.831   1.239   6.464
 5305POPC   D2A67384   5.855   1.186   6.764
 5305POPC   C3A67385   5.907   1.208   7.064
 5305POPC   C4A67386   5.829   1.237   7.364
 5305POPC   C1B67387   5.757   1.419   6.464
 5305POPC   C2B67388   5.827   1.441   6.764
 5305POPC   C3B67389   5.784   1.452   7.064
 5305POPC   C4B67390   5.828   1.418   7.364
 5306POPC   NC367391  43.845   8.228   5.564
 5306POPC   PO467392  43.850   8.176   5.864
 5306POPC   GL167393  43.865   8.198   6.164
 5306POPC   GL267394  43.839   8.279   6.164
 5306POPC   C1A67395  43.901   8.213   6.464
 5306POPC   D2A67396  43.900   8.212   6.764
 5306POPC   C3A67397  43.874   8.169   7.064
 5306POPC   C4A67398  43.930   8.225   7.364
 5306POPC   C1B67399  43.763   8.419   6.464
 5306POPC   C2B67400  43.756   8.364   6.764
 5306POPC   C3B67401  43.799   8.433   7.064
 5306POPC   C4B67402  43.746   8.436   7.364
 5307POPC   NC367403  36.156  36.952   5.564
 5307POPC   PO467404  36.107  36.940   5.864
 5307POPC   GL167405  36.170  36.904   6.164
 5307POPC   GL267406  36.252  36.903   6.164
 5307POPC   C1A67407  36.095  36.920   6.464
 5307POPC   D2A67408  36.132  36.951   6.764
 5307POPC   C3A67409  36.135  36.868   7.064
 5307POPC   C4A67410  36.135  36.914   7.364
 5307POPC   C1B67411  36.355  36.916   6.464
 5307POPC   C2B67412  36.424  36.916   6.764
 5307POPC   C3B67413  36.352  36.906   7.064
 5307POPC   C4B67414  36.367  36.931   7.364
 5308POPC   NC367415  13.624  10.500   5.564
 5308POPC   PO467416  13.669  10.480   5.864
 5308POPC   GL167417  13.602  10.505   6.164
 5308POPC   GL267418  13.566  10.366   6.164
 5308POPC   C1A67419  13.665  10.572   6.464
 5308POPC   D2A67420  13.605  10.528   6.764
 5308POPC   C3A67421  13.663  10.480   7.064
 5308POPC   C4A67422  13.593  10.523   7.364
 5308POPC   C1B67423  13.529  10.278   6.464
 5308POPC   C2B67424  13.462  10.265   6.764
 5308POPC   C3B67425  13.520  10.335   7.064
 5308POPC   C4B67426  13.490  10.289   7.364
 5309POPC   NC367427  12.115  29.102   5.564
 5309POPC   PO467428  12.091  29.173   5.864
 5309POPC   GL167429  12.038  29.178   6.164
 5309POPC   GL267430  12.153  29.146   6.164
 5309POPC   C1A67431  12.101  29.102   6.464
 5309POPC   D2A67432  12.037  29.147   6.764
 5309POPC   C3A67433  12.124  29.153   7.064
 5309POPC   C4A67434  12.090  29.145   7.364
 5309POPC   C1B67435  12.282  29.067   6.464
 5309POPC   C2B67436  12.354  29.113   6.764
 5309POPC   C3B67437  12.307  29.118   7.064
 5309POPC   C4B67438  12.330  29.084   7.364
 5310POPC   NC367439  16.748   9.762   5.564
 5310POPC   PO467440  16.761   9.721   5.864
 5310POPC   GL167441  16.755   9.729   6.164
 5310POPC   GL267442  16.688   9.634   6.164
 5310POPC   C1A67443  16.682   9.743   6.464
 5310POPC   D2A67444  16.766   9.760   6.764
 5310POPC   C3A67445  16.732   9.739   7.064
 5310POPC   C4A67446  16.726   9.744   7.364
 5310POPC   C1B67447  16.776   9.510   6.464
 5310POPC   C2B67448  16.722   9.522   6.764
 5310POPC   C3B67449  16.681   9.453   7.064
 5310POPC   C4B67450  16.774   9.521   7.364
 5311POPC   NC367451  30.693  43.877   5.564
 5311POPC   PO467452  30.679  43.907   5.864
 5311POPC   GL167453  30.671  43.863   6.164
 5311POPC   GL267454  30.748  43.746   6.164
 5311POPC   C1A67455  30.675  43.851   6.464
 5311POPC   D2A67456  30.712  43.915   6.764
 5311POPC   C3A67457  30.731  43.919   7.064
 5311POPC   C4A67458  30.651  43.934   7.364
 5311POPC   C1B67459  30.858  43.681   6.464
 5311POPC   C2B67460  30.840  43.710   6.764
 5311POPC   C3B67461  30.799  43.633   7.064
 5311POPC   C4B67462  30.796  43.657   7.364
 5312POPC   NC367463  16.764  26.036   5.564
 5312POPC   PO467464  16.778  26.064   5.864
 5312POPC   GL167465  16.740  26.009   6.164
 5312POPC   GL267466  16.752  25.910   6.164
 5312POPC   C1A67467  16.689  26.083   6.464
 5312POPC   D2A67468  16.707  26.039   6.764
 5312POPC   C3A67469  16.687  26.091   7.064
 5312POPC   C4A67470  16.691  26.013   7.364
 5312POPC   C1B67471  16.833  25.865   6.464
 5312POPC   C2B67472  16.812  25.847   6.764
 5312POPC   C3B67473  16.890  25.860   7.064
 5312POPC   C4B67474  16.820  25.830   7.364
 5313POPC   NC367475  28.377  32.275   5.564
 5313POPC   PO467476  28.368  32.218   5.864
 5313POPC   GL167477  28.324  32.269   6.164
 5313POPC   GL267478  28.374  32.125   6.164
 5313POPC   C1A67479  28.406  32.285   6.464
 5313POPC   D2A67480  28.343  32.198   6.764
 5313POPC   C3A67481  28.401  32.254   7.064
 5313POPC   C4A67482  28.329  32.213   7.364
 5313POPC   C1B67483  28.351  32.027   6.464
 5313POPC   C2B67484  28.367  31.993   6.764
 5313POPC   C3B67485  28.361  31.964   7.064
 5313POPC   C4B67486  28.297  31.997   7.364
 5314POPC   NC367487  39.223  34.564   5.564
 5314POPC   PO467488  39.214  34.610   5.864
 5314POPC   GL167489  39.271  34.581   6.164
 5314POPC   GL267490  39.207  34.684   6.164
 5314POPC   C1A67491  39.269  34.560   6.464
 5314POPC   D2A67492  39.245  34.574   6.764
 5314POPC   C3A67493  39.192  34.550   7.064
 5314POPC   C4A67494  39.197  34.558   7.364
 5314POPC   C1B67495  39.205  34.783   6.464
 5314POPC   C2B67496  39.281  34.795   6.764
 5314POPC   C3B67497  39.228  34.857   7.064
 5314POPC   C4B67498  39.249  34.860   7.364
 5315POPC   NC367499  12.832  43.114   5.564
 5315POPC   PO467500  12.873  43.082   5.864
 5315POPC   GL167501  12.831  43.152   6.164
 5315POPC   GL267502  12.957  43.054   6.164
 5315POPC   C1A67503  12.823  43.093   6.464
 5315POPC   D2A67504  12.802  43.145   6.764
 5315POPC   C3A67505  12.810  43.143   7.064
 5315POPC   C4A67506  12.807  43.134   7.364
 5315POPC   C1B67507  13.054  43.006   6.464
 5315POPC   C2B67508  13.089  42.954   6.764
 5315POPC   C3B67509  13.117  43.001   7.064
 5315POPC   C4B67510  13.058  43.011   7.364
 5316POPC   NC367511   6.668  40.785   5.564
 5316POPC   PO467512   6.613  40.775   5.864
 5316POPC   GL167513   6.669  40.779   6.164
 5316POPC   GL267514   6.795  40.876   6.164
 5316POPC   C1A67515   6.694  40.783   6.464
 5316POPC   D2A67516   6.615  40.820   6.764
 5316POPC   C3A67517   6.624  40.770   7.064
 5316POPC   C4A67518   6.690  40.760   7.364
 5316POPC   C1B67519   6.803  40.920   6.464
 5316POPC   C2B67520   6.831  40.892   6.764
 5316POPC   C3B67521   6.874  40.904   7.064
 5316POPC   C4B67522   6.887  40.914   7.364
 5317POPC   NC367523  44.615  25.292   5.564
 5317POPC   PO467524  44.687  25.275   5.864
 5317POPC   GL167525  44.675  25.288   6.164
 5317POPC   GL267526  44.751  25.380   6.164
 5317POPC   C1A67527  44.630  25.237   6.464
 5317POPC   D2A67528  44.665  25.237   6.764
 5317POPC   C3A67529  44.644  25.295   7.064
 5317POPC   C4A67530  44.664  25.218   7.364
 5317POPC   C1B67531  44.811  25.420   6.464
 5317POPC   C2B67532  44.857  25.486   6.764
 5317POPC   C3B67533  44.885  25.461   7.064
 5317POPC   C4B67534  44.819  25.460   7.364
 5318POPC   NC367535  42.294  12.047   5.564
 5318POPC   PO467536  42.298  12.051   5.864
 5318POPC   GL167537  42.288  12.118   6.164
 5318POPC   GL267538  42.368  12.223   6.164
 5318POPC   C1A67539  42.305  12.092   6.464
 5318POPC   D2A67540  42.298  12.045   6.764
 5318POPC   C3A67541  42.317  12.107   7.064
 5318POPC   C4A67542  42.365  12.053   7.364
 5318POPC   C1B67543  42.418  12.314   6.464
 5318POPC   C2B67544  42.444  12.289   6.764
 5318POPC   C3B67545  42.464  12.292   7.064
 5318POPC   C4B67546  42.443  12.332   7.364
 5319POPC   NC367547  42.352  35.343   5.564
 5319POPC   PO467548  42.305  35.373   5.864
 5319POPC   GL167549  42.346  35.312   6.164
 5319POPC   GL267550  42.349  35.426   6.164
 5319POPC   C1A67551  42.325  35.395   6.464
 5319POPC   D2A67552  42.361  35.383   6.764
 5319POPC   C3A67553  42.347  35.397   7.064
 5319POPC   C4A67554  42.374  35.343   7.364
 5319POPC   C1B67555  42.411  35.580   6.464
 5319POPC   C2B67556  42.459  35.580   6.764
 5319POPC   C3B67557  42.445  35.628   7.064
 5319POPC   C4B67558  42.430  35.596   7.364
 5320POPC   NC367559  40.025  33.017   5.564
 5320POPC   PO467560  39.965  32.990   5.864
 5320POPC   GL167561  39.990  33.074   6.164
 5320POPC   GL267562  40.042  32.875   6.164
 5320POPC   C1A67563  39.993  33.065   6.464
 5320POPC   D2A67564  40.004  33.014   6.764
 5320POPC   C3A67565  40.048  33.047   7.064
 5320POPC   C4A67566  40.026  33.025   7.364
 5320POPC   C1B67567  40.105  32.826   6.464
 5320POPC   C2B67568  40.075  32.786   6.764
 5320POPC   C3B67569  40.134  32.810   7.064
 5320POPC   C4B67570  40.131  32.790   7.364
 5321POPC   NC367571   1.977   8.230   5.564
 5321POPC   PO467572   1.941   8.151   5.864
 5321POPC   GL167573   1.981   8.242   6.164
 5321POPC   GL267574   1.981   8.294   6.164
 5321POPC   C1A67575   1.991   8.187   6.464
 5321POPC   D2A67576   2.032   8.157   6.764
 5321POPC   C3A67577   1.994   8.183   7.064
 5321POPC   C4A67578   1.962   8.199   7.364
 5321POPC   C1B67579   2.050   8.393   6.464
 5321POPC   C2B67580   2.029   8.469   6.764
 5321POPC   C3B67581   2.069   8.439   7.064
 5321POPC   C4B67582   2.079   8.404   7.364
 5322POPC   NC367583  43.096  33.844   5.564
 5322POPC   PO467584  43.101  33.782   5.864
 5322POPC   GL167585  43.068  33.815   6.164
 5322POPC   GL267586  43.207  33.907   6.164
 5322POPC   C1A67587  43.091  33.779   6.464
 5322POPC   D2A67588  43.122  33.775   6.764
 5322POPC   C3A67589  43.126  33.785   7.064
 5322POPC   C4A67590  43.105  33.801   7.364
 5322POPC   C1B67591  43.367  33.952   6.464
 5322POPC   C2B67592  43.295  33.941   6.764
 5322POPC   C3B67593  43.301  33.900   7.064
 5322POPC   C4B67594  43.311  33.954   7.364
 5323POPC   NC367595  10.521  16.742   5.564
 5323POPC   PO467596  10.477  16.712   5.864
 5323POPC   GL167597  10.558  16.766   6.164
 5323POPC   GL267598  10.548  16.867   6.164
 5323POPC   C1A67599  10.481  16.722   6.464
 5323POPC   D2A67600  10.498  16.738   6.764
 5323POPC   C3A67601  10.557  16.716   7.064
 5323POPC   C4A67602  10.533  16.696   7.364
 5323POPC   C1B67603  10.514  17.013   6.464
 5323POPC   C2B67604  10.496  16.999   6.764
 5323POPC   C3B67605  10.542  16.992   7.064
 5323POPC   C4B67606  10.556  16.992   7.364
 5324POPC   NC367607  31.427  30.701   5.564
 5324POPC   PO467608  31.432  30.714   5.864
 5324POPC   GL167609  31.484  30.730   6.164
 5324POPC   GL267610  31.377  30.624   6.164
 5324POPC   C1A67611  31.460  30.744   6.464
 5324POPC   D2A67612  31.465  30.719   6.764
 5324POPC   C3A67613  31.494  30.742   7.064
 5324POPC   C4A67614  31.461  30.684   7.364
 5324POPC   C1B67615  31.274  30.572   6.464
 5324POPC   C2B67616  31.254  30.561   6.764
 5324POPC   C3B67617  31.246  30.506   7.064
 5324POPC   C4B67618  31.221  30.553   7.364
 5325POPC   NC367619  30.715  18.253   5.564
 5325POPC   PO467620  30.728  18.267   5.864
 5325POPC   GL167621  30.691  18.269   6.164
 5325POPC   GL267622  30.727  18.167   6.164
 5325POPC   C1A67623  30.700  18.328   6.464
 5325POPC   D2A67624  30.746  18.307   6.764
 5325POPC   C3A67625  30.715  18.314   7.064
 5325POPC   C4A67626  30.669  18.271   7.364
 5325POPC   C1B67627  30.723  18.035   6.464
 5325POPC   C2B67628  30.782  18.069   6.764
 5325POPC   C3B67629  30.796  18.052   7.064
 5325POPC   C4B67630  30.771  18.048   7.364
 5326POPC   NC367631  22.147  29.105   5.564
 5326POPC   PO467632  22.149  29.181   5.864
 5326POPC   GL167633  22.132  29.173   6.164
 5326POPC   GL267634  22.015  29.264   6.164
 5326POPC   C1A67635  22.114  29.193   6.464
 5326POPC   D2A67636  22.144  29.158   6.764
 5326POPC   C3A67637  22.113  29.139   7.064
 5326POPC   C4A67638  22.196  29.144   7.364
 5326POPC   C1B67639  21.931  29.263   6.464
 5326POPC   C2B67640  21.956  29.322   6.764
 5326POPC   C3B67641  21.953  29.259   7.064
 5326POPC   C4B67642  21.948  29.242   7.364
 5327POPC   NC367643  35.342  34.580   5.564
 5327POPC   PO467644  35.380  34.572   5.864
 5327POPC   GL167645  35.390  34.584   6.164
 5327POPC   GL267646  35.235  34.588   6.164
 5327POPC   C1A67647  35.311  34.598   6.464
 5327POPC   D2A67648  35.310  34.555   6.764
 5327POPC   C3A67649  35.326  34.603   7.064
 5327POPC   C4A67650  35.364  34.562   7.364
 5327POPC   C1B67651  35.136  34.723   6.464
 5327POPC   C2B67652  35.135  34.737   6.764
 5327POPC   C3B67653  35.085  34.734   7.064
 5327POPC   C4B67654  35.122  34.685   7.364
 5328POPC   NC367655  30.677   7.408   5.564
 5328POPC   PO467656  30.746   7.374   5.864
 5328POPC   GL167657  30.665   7.442   6.164
 5328POPC   GL267658  30.576   7.340   6.164
 5328POPC   C1A67659  30.731   7.389   6.464
 5328POPC   D2A67660  30.705   7.452   6.764
 5328POPC   C3A67661  30.703   7.464   7.064
 5328POPC   C4A67662  30.733   7.425   7.364
 5328POPC   C1B67663  30.468   7.336   6.464
 5328POPC   C2B67664  30.408   7.334   6.764
 5328POPC   C3B67665  30.448   7.365   7.064
 5328POPC   C4B67666  30.415   7.308   7.364
 5329POPC   NC367667  36.117  30.673   5.564
 5329POPC   PO467668  36.106  30.678   5.864
 5329POPC   GL167669  36.097  30.648   6.164
 5329POPC   GL267670  36.100  30.589   6.164
 5329POPC   C1A67671  36.125  30.691   6.464
 5329POPC   D2A67672  36.168  30.664   6.764
 5329POPC   C3A67673  36.142  30.708   7.064
 5329POPC   C4A67674  36.104  30.694   7.364
 5329POPC   C1B67675  35.944  30.489   6.464
 5329POPC   C2B67676  35.982  30.507   6.764
 5329POPC   C3B67677  35.930  30.484   7.064
 5329POPC   C4B67678  35.956  30.496   7.364
 5330POPC   NC367679   6.625  32.238   5.564
 5330POPC   PO467680   6.613  32.202   5.864
 5330POPC   GL167681   6.596  32.280   6.164
 5330POPC   GL267682   6.583  32.167   6.164
 5330POPC   C1A67683   6.673  32.258   6.464
 5330POPC   D2A67684   6.606  32.231   6.764
 5330POPC   C3A67685   6.663  32.226   7.064
 5330POPC   C4A67686   6.676  32.255   7.364
 5330POPC   C1B67687   6.440  32.079   6.464
 5330POPC   C2B67688   6.427  32.039   6.764
 5330POPC   C3B67689   6.473  32.032   7.064
 5330POPC   C4B67690   6.508  32.097   7.364
 5331POPC   NC367691   1.167  16.686   5.564
 5331POPC   PO467692   1.194  16.777   5.864
 5331POPC   GL167693   1.226  16.763   6.164
 5331POPC   GL267694   1.294  16.643   6.164
 5331POPC   C1A67695   1.184  16.706   6.464
 5331POPC   D2A67696   1.215  16.777   6.764
 5331POPC   C3A67697   1.243  16.753   7.064
 5331POPC   C4A67698   1.168  16.737   7.364
 5331POPC   C1B67699   1.382  16.555   6.464
 5331POPC   C2B67700   1.352  16.565   6.764
 5331POPC   C3B67701   1.394  16.495   7.064
 5331POPC   C4B67702   1.365  16.477   7.364
 5332POPC   NC367703  29.908   1.187   5.564
 5332POPC   PO467704  29.951   1.227   5.864
 5332POPC   GL167705  29.956   1.257   6.164
 5332POPC   GL267706  29.772   1.226   6.164
 5332POPC   C1A67707  29.911   1.225   6.464
 5332POPC   D2A67708  29.968   1.252   6.764
 5332POPC   C3A67709  29.918   1.226   7.064
 5332POPC   C4A67710  29.929   1.198   7.364
 5332POPC   C1B67711  29.646   1.094   6.464
 5332POPC   C2B67712  29.651   1.119   6.764
 5332POPC   C3B67713  29.684   1.105   7.064
 5332POPC   C4B67714  29.670   1.114   7.364
 5333POPC   NC367715   0.443  42.326   5.564
 5333POPC   PO467716   0.388  42.326   5.864
 5333POPC   GL167717   0.437  42.380   6.164
 5333POPC   GL267718   0.312  42.402   6.164
 5333POPC   C1A67719   0.455  42.364   6.464
 5333POPC   D2A67720   0.486  42.353   6.764
 5333POPC   C3A67721   0.446  42.306   7.064
 5333POPC   C4A67722   0.472  42.354   7.364
 5333POPC   C1B67723   0.262  42.504   6.464
 5333POPC   C2B67724   0.244  42.493   6.764
 5333POPC   C3B67725   0.179  42.438   7.064
 5333POPC   C4B67726   0.208  42.459   7.364
 5334POPC   NC367727  26.773  14.356   5.564
 5334POPC   PO467728  26.857  14.404   5.864
 5334POPC   GL167729  26.844  14.360   6.164
 5334POPC   GL267730  26.779  14.263   6.164
 5334POPC   C1A67731  26.822  14.356   6.464
 5334POPC   D2A67732  26.783  14.359   6.764
 5334POPC   C3A67733  26.816  14.408   7.064
 5334POPC   C4A67734  26.776  14.403   7.364
 5334POPC   C1B67735  26.678  14.160   6.464
 5334POPC   C2B67736  26.709  14.148   6.764
 5334POPC   C3B67737  26.720  14.138   7.064
 5334POPC   C4B67738  26.674  14.223   7.364
 5335POPC   NC367739  15.203   5.903   5.564
 5335POPC   PO467740  15.212   5.901   5.864
 5335POPC   GL167741  15.143   5.878   6.164
 5335POPC   GL267742  15.209   5.738   6.164
 5335POPC   C1A67743  15.197   5.850   6.464
 5335POPC   D2A67744  15.152   5.825   6.764
 5335POPC   C3A67745  15.162   5.837   7.064
 5335POPC   C4A67746  15.150   5.882   7.364
 5335POPC   C1B67747  15.146   5.621   6.464
 5335POPC   C2B67748  15.176   5.602   6.764
 5335POPC   C3B67749  15.230   5.623   7.064
 5335POPC   C4B67750  15.195   5.585   7.364
 5336POPC   NC367751  35.339  29.153   5.564
 5336POPC   PO467752  35.369  29.096   5.864
 5336POPC   GL167753  35.304  29.171   6.164
 5336POPC   GL267754  35.305  29.247   6.164
 5336POPC   C1A67755  35.360  29.143   6.464
 5336POPC   D2A67756  35.335  29.141   6.764
 5336POPC   C3A67757  35.340  29.188   7.064
 5336POPC   C4A67758  35.313  29.121   7.364
 5336POPC   C1B67759  35.168  29.294   6.464
 5336POPC   C2B67760  35.179  29.382   6.764
 5336POPC   C3B67761  35.174  29.372   7.064
 5336POPC   C4B67762  35.222  29.374   7.364
 5337POPC   NC367763  36.904  28.363   5.564
 5337POPC   PO467764  36.892  28.379   5.864
 5337POPC   GL167765  36.864  28.356   6.164
 5337POPC   GL267766  37.058  28.334   6.164
 5337POPC   C1A67767  36.913  28.375   6.464
 5337POPC   D2A67768  36.942  28.334   6.764
 5337POPC   C3A67769  36.908  28.387   7.064
 5337POPC   C4A67770  36.944  28.325   7.364
 5337POPC   C1B67771  37.155  28.284   6.464
 5337POPC   C2B67772  37.104  28.228   6.764
 5337POPC   C3B67773  37.117  28.299   7.064
 5337POPC   C4B67774  37.152  28.298   7.364
 5338POPC   NC367775   5.896  11.324   5.564
 5338POPC   PO467776   5.903  11.315   5.864
 5338POPC   GL167777   5.869  11.319   6.164
 5338POPC   GL267778   5.797  11.390   6.164
 5338POPC   C1A67779   5.828  11.270   6.464
 5338POPC   D2A67780   5.849  11.336   6.764
 5338POPC   C3A67781   5.820  11.313   7.064
 5338POPC   C4A67782   5.850  11.325   7.364
 5338POPC   C1B67783   5.690  11.453   6.464
 5338POPC   C2B67784   5.632  11.419   6.764
 5338POPC   C3B67785   5.687  11.479   7.064
 5338POPC   C4B67786   5.664  11.399   7.364
 5339POPC   NC367787  11.278   1.218   5.564
 5339POPC   PO467788  11.259   1.222   5.864
 5339POPC   GL167789  11.275   1.244   6.164
 5339POPC   GL267790  11.223   1.366   6.164
 5339POPC   C1A67791  11.263   1.178   6.464
 5339POPC   D2A67792  11.336   1.248   6.764
 5339POPC   C3A67793  11.330   1.203   7.064
 5339POPC   C4A67794  11.346   1.196   7.364
 5339POPC   C1B67795  11.187   1.459   6.464
 5339POPC   C2B67796  11.170   1.458   6.764
 5339POPC   C3B67797  11.178   1.408   7.064
 5339POPC   C4B67798  11.125   1.393   7.364
 5340POPC   NC367799  38.417  30.739   5.564
 5340POPC   PO467800  38.411  30.704   5.864
 5340POPC   GL167801  38.433  30.711   6.164
 5340POPC   GL267802  38.447  30.800   6.164
 5340POPC   C1A67803  38.445  30.675   6.464
 5340POPC   D2A67804  38.473  30.654   6.764
 5340POPC   C3A67805  38.432  30.712   7.064
 5340POPC   C4A67806  38.420  30.662   7.364
 5340POPC   C1B67807  38.492  30.911   6.464
 5340POPC   C2B67808  38.553  30.896   6.764
 5340POPC   C3B67809  38.506  30.981   7.064
 5340POPC   C4B67810  38.494  30.981   7.364
 5341POPC   NC367811  42.354  43.115   5.564
 5341POPC   PO467812  42.308  43.132   5.864
 5341POPC   GL167813  42.376  43.078   6.164
 5341POPC   GL267814  42.416  42.992   6.164
 5341POPC   C1A67815  42.336  43.103   6.464
 5341POPC   D2A67816  42.366  43.110   6.764
 5341POPC   C3A67817  42.366  43.096   7.064
 5341POPC   C4A67818  42.323  43.147   7.364
 5341POPC   C1B67819  42.502  43.016   6.464
 5341POPC   C2B67820  42.540  43.003   6.764
 5341POPC   C3B67821  42.538  42.935   7.064
 5341POPC   C4B67822  42.525  43.019   7.364
 5342POPC   NC367823  34.619  11.345   5.564
 5342POPC   PO467824  34.546  11.331   5.864
 5342POPC   GL167825  34.552  11.344   6.164
 5342POPC   GL267826  34.656  11.367   6.164
 5342POPC   C1A67827  34.545  11.253   6.464
 5342POPC   D2A67828  34.559  11.344   6.764
 5342POPC   C3A67829  34.602  11.324   7.064
 5342POPC   C4A67830  34.569  11.326   7.364
 5342POPC   C1B67831  34.764  11.495   6.464
 5342POPC   C2B67832  34.814  11.477   6.764
 5342POPC   C3B67833  34.775  11.447   7.064
 5342POPC   C4B67834  34.750  11.406   7.364
 5343POPC   NC367835  25.305  42.320   5.564
 5343POPC   PO467836  25.224  42.288   5.864
 5343POPC   GL167837  25.260  42.351   6.164
 5343POPC   GL267838  25.308  42.178   6.164
 5343POPC   C1A67839  25.301  42.364   6.464
 5343POPC   D2A67840  25.284  42.339   6.764
 5343POPC   C3A67841  25.297  42.333   7.064
 5343POPC   C4A67842  25.278  42.383   7.364
 5343POPC   C1B67843  25.343  42.041   6.464
 5343POPC   C2B67844  25.302  42.109   6.764
 5343POPC   C3B67845  25.273  42.097   7.064
 5343POPC   C4B67846  25.284  42.106   7.364
 5344POPC   NC367847   2.798  10.531   5.564
 5344POPC   PO467848   2.776  10.555   5.864
 5344POPC   GL167849   2.766  10.498   6.164
 5344POPC   GL267850   2.677  10.450   6.164
 5344POPC   C1A67851   2.754  10.497   6.464
 5344POPC   D2A67852   2.752  10.522   6.764
 5344POPC   C3A67853   2.721  10.486   7.064
 5344POPC   C4A67854   2.803  10.534   7.364
 5344POPC   C1B67855   2.525  10.328   6.464
 5344POPC   C2B67856   2.601  10.351   6.764
 5344POPC   C3B67857   2.549  10.369   7.064
 5344POPC   C4B67858   2.555  10.385   7.364
 5345POPC   NC367859  15.220  28.404   5.564
 5345POPC   PO467860  15.133  28.339   5.864
 5345POPC   GL167861  15.129  28.394   6.164
 5345POPC   GL267862  15.108  28.225   6.164
 5345POPC   C1A67863  15.200  28.416   6.464
 5345POPC   D2A67864  15.229  28.320   6.764
 5345POPC   C3A67865  15.225  28.412   7.064
 5345POPC   C4A67866  15.225  28.383   7.364
 5345POPC   C1B67867  15.105  28.188   6.464
 5345POPC   C2B67868  15.115  28.177   6.764
 5345POPC   C3B67869  15.081  28.163   7.064
 5345POPC   C4B67870  15.045  28.157   7.364
 5346POPC   NC367871  32.258  39.988   5.564
 5346POPC   PO467872  32.277  40.017   5.864
 5346POPC   GL167873  32.286  39.971   6.164
 5346POPC   GL267874  32.131  39.987   6.164
 5346POPC   C1A67875  32.221  40.010   6.464
 5346POPC   D2A67876  32.276  40.011   6.764
 5346POPC   C3A67877  32.248  39.972   7.064
 5346POPC   C4A67878  32.219  40.038   7.364
 5346POPC   C1B67879  32.013  40.035   6.464
 5346POPC   C2B67880  32.026  40.001   6.764
 5346POPC   C3B67881  32.045  40.063   7.064
 5346POPC   C4B67882  31.971  40.054   7.364
 5347POPC   NC367883  12.077  35.315   5.564
 5347POPC   PO467884  12.048  35.397   5.864
 5347POPC   GL167885  12.026  35.332   6.164
 5347POPC   GL267886  12.061  35.477   6.164
 5347POPC   C1A67887  12.040  35.344   6.464
 5347POPC   D2A67888  12.049  35.329   6.764
 5347POPC   C3A67889  12.046  35.320   7.064
 5347POPC   C4A67890  12.043  35.381   7.364
 5347POPC   C1B67891  12.146  35.571   6.464
 5347POPC   C2B67892  12.159  35.626   6.764
 5347POPC   C3B67893  12.110  35.558   7.064
 5347POPC   C4B67894  12.156  35.618   7.364
 5348POPC   NC367895  23.742  43.143   5.564
 5348POPC   PO467896  23.691  43.120   5.864
 5348POPC   GL167897  23.700  43.064   6.164
 5348POPC   GL267898  23.786  42.954   6.164
 5348POPC   C1A67899  23.708  43.081   6.464
 5348POPC   D2A67900  23.681  43.128   6.764
 5348POPC   C3A67901  23.696  43.121   7.064
 5348POPC   C4A67902  23.752  43.123   7.364
 5348POPC   C1B67903  23.806  42.918   6.464
 5348POPC   C2B67904  23.744  42.908   6.764
 5348POPC   C3B67905  23.829  42.915   7.064
 5348POPC   C4B67906  23.796  42.872   7.364
 5349POPC   NC367907   3.577  26.847   5.564
 5349POPC   PO467908   3.531  26.793   5.864
 5349POPC   GL167909   3.549  26.767   6.164
 5349POPC   GL267910   3.473  26.926   6.164
 5349POPC   C1A67911   3.496  26.779   6.464
 5349POPC   D2A67912   3.505  26.785   6.764
 5349POPC   C3A67913   3.566  26.847   7.064
 5349POPC   C4A67914   3.512  26.770   7.364
 5349POPC   C1B67915   3.322  26.994   6.464
 5349POPC   C2B67916   3.372  26.951   6.764
 5349POPC   C3B67917   3.341  27.030   7.064
 5349POPC   C4B67918   3.403  26.974   7.364
 5350POPC   NC367919  40.052  43.846   5.564
 5350POPC   PO467920  39.969  43.845   5.864
 5350POPC   GL167921  40.011  43.936   6.164
 5350POPC   GL267922  40.078  43.961   6.164
 5350POPC   C1A67923  40.015  43.879   6.464
 5350POPC   D2A67924  39.958  43.909   6.764
 5350POPC   C3A67925  40.056  43.883   7.064
 5350POPC   C4A67926  39.970  43.910   7.364
 5350POPC   C1B67927  40.288  43.981   6.464
 5350POPC   C2B67928  40.222  43.980   6.764
 5350POPC   C3B67929  40.209  43.996   7.064
 5350POPC   C4B67930  40.205  43.920   7.364
 5351POPC   NC367931  18.313  27.560   5.564
 5351POPC   PO467932  18.254  27.560   5.864
 5351POPC   GL167933  18.331  27.587   6.164
 5351POPC   GL267934  18.320  27.467   6.164
 5351POPC   C1A67935  18.261  27.586   6.464
 5351POPC   D2A67936  18.253  27.615   6.764
 5351POPC   C3A67937  18.249  27.607   7.064
 5351POPC   C4A67938  18.328  27.608   7.364
 5351POPC   C1B67939  18.264  27.380   6.464
 5351POPC   C2B67940  18.339  27.311   6.764
 5351POPC   C3B67941  18.297  27.380   7.064
 5351POPC   C4B67942  18.299  27.336   7.364
 5352POPC   NC367943  21.349   2.028   5.564
 5352POPC   PO467944  21.348   1.959   5.864
 5352POPC   GL167945  21.356   2.002   6.164
 5352POPC   GL267946  21.359   1.834   6.164
 5352POPC   C1A67947  21.370   2.020   6.464
 5352POPC   D2A67948  21.408   1.964   6.764
 5352POPC   C3A67949  21.397   1.976   7.064
 5352POPC   C4A67950  21.351   1.972   7.364
 5352POPC   C1B67951  21.334   1.700   6.464
 5352POPC   C2B67952  21.320   1.703   6.764
 5352POPC   C3B67953  21.377   1.700   7.064
 5352POPC   C4B67954  21.333   1.767   7.364
 5353POPC   NC367955  20.575  32.214   5.564
 5353POPC   PO467956  20.566  32.291   5.864
 5353POPC   GL167957  20.609  32.219   6.164
 5353POPC   GL267958  20.670  32.224   6.164
 5353POPC   C1A67959  20.605  32.278   6.464
 5353POPC   D2A67960  20.623  32.288   6.764
 5353POPC   C3A67961  20.627  32.265   7.064
 5353POPC   C4A67962  20.628  32.250   7.364
 5353POPC   C1B67963  20.785  32.132   6.464
 5353POPC   C2B67964  20.829  32.158   6.764
 5353POPC   C3B67965  20.872  32.137   7.064
 5353POPC   C4B67966  20.817  32.145   7.364
 5354POPC   NC367967  43.147  43.859   5.564
 5354POPC   PO467968  43.067  43.842   5.864
 5354POPC   GL167969  43.129  43.928   6.164
 5354POPC   GL267970  43.203  43.828   6.164
 5354POPC   C1A67971  43.156  43.864   6.464
 5354POPC   D2A67972  43.160  43.901   6.764
 5354POPC   C3A67973  43.140  43.870   7.064
 5354POPC   C4A67974  43.129  43.881   7.364
 5354POPC   C1B67975  43.237  43.701   6.464
 5354POPC   C2B67976  43.266  43.697   6.764
 5354POPC   C3B67977  43.240  43.733   7.064
 5354POPC   C4B67978  43.293  43.739   7.364
 5355POPC   NC367979  16.000   8.925   5.564
 5355POPC   PO467980  15.973   8.979   5.864
 5355POPC   GL167981  15.989   8.993   6.164
 5355POPC   GL267982  15.915   8.844   6.164
 5355POPC   C1A67983  15.957   8.999   6.464
 5355POPC   D2A67984  15.949   8.983   6.764
 5355POPC   C3A67985  15.970   9.002   7.064
 5355POPC   C4A67986  15.933   9.018   7.364
 5355POPC   C1B67987  15.928   8.727   6.464
 5355POPC   C2B67988  15.953   8.737   6.764
 5355POPC   C3B67989  15.904   8.711   7.064
 5355POPC   C4B67990  15.915   8.706   7.364
 5356POPC   NC367991  20.596  44.695   5.564
 5356POPC   PO467992  20.654  44.637   5.864
 5356POPC   GL167993  20.616  44.625   6.164
 5356POPC   GL267994  20.482  44.582   6.164
 5356POPC   C1A67995  20.647  44.703   6.464
 5356POPC   D2A67996  20.612  44.639   6.764
 5356POPC   C3A67997  20.585  44.674   7.064
 5356POPC   C4A67998  20.608  44.616   7.364
 5356POPC   C1B67999  20.417  44.522   6.464
 5356POPC   C2B68000  20.404  44.522   6.764
 5356POPC   C3B68001  20.426  44.512   7.064
 5356POPC   C4B68002  20.389  44.505   7.364
 5357POPC   NC368003  26.767  23.673   5.564
 5357POPC   PO468004  26.820  23.747   5.864
 5357POPC   GL168005  26.799  23.739   6.164
 5357POPC   GL268006  26.788  23.833   6.164
 5357POPC   C1A68007  26.779  23.751   6.464
 5357POPC   D2A68008  26.853  23.703   6.764
 5357POPC   C3A68009  26.848  23.743   7.064
 5357POPC   C4A68010  26.865  23.729   7.364
 5357POPC   C1B68011  26.748  23.938   6.464
 5357POPC   C2B68012  26.660  23.983   6.764
 5357POPC   C3B68013  26.687  23.898   7.064
 5357POPC   C4B68014  26.654  23.934   7.364
 5358POPC   NC368015  26.062  37.633   5.564
 5358POPC   PO468016  26.084  37.677   5.864
 5358POPC   GL168017  26.051  37.725   6.164
 5358POPC   GL268018  26.147  37.591   6.164
 5358POPC   C1A68019  26.010  37.641   6.464
 5358POPC   D2A68020  26.015  37.721   6.764
 5358POPC   C3A68021  26.040  37.701   7.064
 5358POPC   C4A68022  26.042  37.723   7.364
 5358POPC   C1B68023  26.207  37.441   6.464
 5358POPC   C2B68024  26.153  37.466   6.764
 5358POPC   C3B68025  26.224  37.489   7.064
 5358POPC   C4B68026  26.238  37.446   7.364
 5359POPC   NC368027  40.036   6.670   5.564
 5359POPC   PO468028  39.990   6.666   5.864
 5359POPC   GL168029  39.971   6.686   6.164
 5359POPC   GL268030  39.969   6.773   6.164
 5359POPC   C1A68031  40.049   6.604   6.464
 5359POPC   D2A68032  40.013   6.625   6.764
 5359POPC   C3A68033  39.959   6.668   7.064
 5359POPC   C4A68034  39.987   6.682   7.364
 5359POPC   C1B68035  39.855   6.899   6.464
 5359POPC   C2B68036  39.881   6.860   6.764
 5359POPC   C3B68037  39.864   6.815   7.064
 5359POPC   C4B68038  39.837   6.802   7.364
 5360POPC   NC368039  26.796  10.482   5.564
 5360POPC   PO468040  26.769  10.544   5.864
 5360POPC   GL168041  26.841  10.516   6.164
 5360POPC   GL268042  26.755  10.616   6.164
 5360POPC   C1A68043  26.769  10.485   6.464
 5360POPC   D2A68044  26.849  10.527   6.764
 5360POPC   C3A68045  26.800  10.511   7.064
 5360POPC   C4A68046  26.860  10.539   7.364
 5360POPC   C1B68047  26.680  10.753   6.464
 5360POPC   C2B68048  26.717  10.760   6.764
 5360POPC   C3B68049  26.724  10.768   7.064
 5360POPC   C4B68050  26.695  10.775   7.364
 5361POPC   NC368051   4.299  42.290   5.564
 5361POPC   PO468052   4.291  42.357   5.864
 5361POPC   GL168053   4.326  42.357   6.164
 5361POPC   GL268054   4.403  42.408   6.164
 5361POPC   C1A68055   4.329  42.373   6.464
 5361POPC   D2A68056   4.287  42.302   6.764
 5361POPC   C3A68057   4.358  42.375   7.064
 5361POPC   C4A68058   4.275  42.290   7.364
 5361POPC   C1B68059   4.533  42.393   6.464
 5361POPC   C2B68060   4.561  42.437   6.764
 5361POPC   C3B68061   4.546  42.365   7.064
 5361POPC   C4B68062   4.598  42.404   7.364
 5362POPC   NC368063  38.475  41.573   5.564
 5362POPC   PO468064  38.472  41.534   5.864
 5362POPC   GL168065  38.486  41.514   6.164
 5362POPC   GL268066  38.323  41.630   6.164
 5362POPC   C1A68067  38.425  41.511   6.464
 5362POPC   D2A68068  38.432  41.546   6.764
 5362POPC   C3A68069  38.424  41.564   7.064
 5362POPC   C4A68070  38.455  41.586   7.364
 5362POPC   C1B68071  38.243  41.695   6.464
 5362POPC   C2B68072  38.247  41.775   6.764
 5362POPC   C3B68073  38.315  41.758   7.064
 5362POPC   C4B68074  38.281  41.748   7.364
 5363POPC   NC368075   3.497  19.872   5.564
 5363POPC   PO468076   3.509  19.871   5.864
 5363POPC   GL168077   3.562  19.857   6.164
 5363POPC   GL268078   3.460  19.772   6.164
 5363POPC   C1A68079   3.548  19.799   6.464
 5363POPC   D2A68080   3.501  19.848   6.764
 5363POPC   C3A68081   3.564  19.873   7.064
 5363POPC   C4A68082   3.561  19.876   7.364
 5363POPC   C1B68083   3.331  19.796   6.464
 5363POPC   C2B68084   3.329  19.723   6.764
 5363POPC   C3B68085   3.335  19.774   7.064
 5363POPC   C4B68086   3.344  19.780   7.364
 5364POPC   NC368087  12.117  16.718   5.564
 5364POPC   PO468088  12.088  16.726   5.864
 5364POPC   GL168089  12.074  16.697   6.164
 5364POPC   GL268090  12.020  16.859   6.164
 5364POPC   C1A68091  12.042  16.776   6.464
 5364POPC   D2A68092  12.066  16.720   6.764
 5364POPC   C3A68093  12.096  16.748   7.064
 5364POPC   C4A68094  12.059  16.750   7.364
 5364POPC   C1B68095  11.904  16.905   6.464
 5364POPC   C2B68096  11.951  16.949   6.764
 5364POPC   C3B68097  11.973  16.904   7.064
 5364POPC   C4B68098  11.962  16.916   7.364
 5365POPC   NC368099   0.440  12.845   5.564
 5365POPC   PO468100   0.443  12.818   5.864
 5365POPC   GL168101   0.457  12.845   6.164
 5365POPC   GL268102   0.288  12.895   6.164
 5365POPC   C1A68103   0.412  12.886   6.464
 5365POPC   D2A68104   0.410  12.897   6.764
 5365POPC   C3A68105   0.414  12.840   7.064
 5365POPC   C4A68106   0.467  12.893   7.364
 5365POPC   C1B68107   0.201  13.001   6.464
 5365POPC   C2B68108   0.228  12.947   6.764
 5365POPC   C3B68109   0.208  12.978   7.064
 5365POPC   C4B68110   0.222  12.954   7.364
 5366POPC   NC368111   8.941  22.116   5.564
 5366POPC   PO468112   8.931  22.156   5.864
 5366POPC   GL168113   8.983  22.124   6.164
 5366POPC   GL268114   9.108  22.269   6.164
 5366POPC   C1A68115   8.984  22.188   6.464
 5366POPC   D2A68116   9.004  22.182   6.764
 5366POPC   C3A68117   8.924  22.112   7.064
 5366POPC   C4A68118   9.016  22.189   7.364
 5366POPC   C1B68119   9.153  22.361   6.464
 5366POPC   C2B68120   9.172  22.367   6.764
 5366POPC   C3B68121   9.151  22.358   7.064
 5366POPC   C4B68122   9.138  22.379   7.364
 5367POPC   NC368123  14.418  44.637   5.564
 5367POPC   PO468124  14.453  44.701   5.864
 5367POPC   GL168125  14.453  44.652   6.164
 5367POPC   GL268126  14.548  44.670   6.164
 5367POPC   C1A68127  14.414  44.618   6.464
 5367POPC   D2A68128  14.399  44.624   6.764
 5367POPC   C3A68129  14.386  44.661   7.064
 5367POPC   C4A68130  14.403  44.655   7.364
 5367POPC   C1B68131  14.693  44.736   6.464
 5367POPC   C2B68132  14.682  44.711   6.764
 5367POPC   C3B68133  14.667  44.750   7.064
 5367POPC   C4B68134  14.666  44.726   7.364
 5368POPC   NC368135  15.216  12.880   5.564
 5368POPC   PO468136  15.148  12.838   5.864
 5368POPC   GL168137  15.176  12.895   6.164
 5368POPC   GL268138  15.026  12.920   6.164
 5368POPC   C1A68139  15.205  12.871   6.464
 5368POPC   D2A68140  15.214  12.879   6.764
 5368POPC   C3A68141  15.190  12.810   7.064
 5368POPC   C4A68142  15.136  12.819   7.364
 5368POPC   C1B68143  14.895  12.888   6.464
 5368POPC   C2B68144  14.898  12.918   6.764
 5368POPC   C3B68145  14.897  12.946   7.064
 5368POPC   C4B68146  14.937  12.937   7.364
 5369POPC   NC368147  15.225  40.035   5.564
 5369POPC   PO468148  15.209  40.053   5.864
 5369POPC   GL168149  15.166  40.056   6.164
 5369POPC   GL268150  15.030  39.930   6.164
 5369POPC   C1A68151  15.188  40.020   6.464
 5369POPC   D2A68152  15.212  40.014   6.764
 5369POPC   C3A68153  15.201  39.998   7.064
 5369POPC   C4A68154  15.190  40.017   7.364
 5369POPC   C1B68155  14.926  39.975   6.464
 5369POPC   C2B68156  14.983  39.951   6.764
 5369POPC   C3B68157  14.906  39.956   7.064
 5369POPC   C4B68158  14.934  39.944   7.364
 5370POPC   NC368159  25.244   6.667   5.564
 5370POPC   PO468160  25.269   6.677   5.864
 5370POPC   GL168161  25.246   6.644   6.164
 5370POPC   GL268162  25.205   6.604   6.164
 5370POPC   C1A68163  25.310   6.677   6.464
 5370POPC   D2A68164  25.245   6.679   6.764
 5370POPC   C3A68165  25.290   6.609   7.064
 5370POPC   C4A68166  25.219   6.669   7.364
 5370POPC   C1B68167  25.042   6.505   6.464
 5370POPC   C2B68168  25.049   6.492   6.764
 5370POPC   C3B68169  25.054   6.516   7.064
 5370POPC   C4B68170  25.104   6.535   7.364
 5371POPC   NC368171  15.228  22.921   5.564
 5371POPC   PO468172  15.220  22.977   5.864
 5371POPC   GL168173  15.178  22.935   6.164
 5371POPC   GL268174  15.064  22.903   6.164
 5371POPC   C1A68175  15.216  22.986   6.464
 5371POPC   D2A68176  15.136  22.960   6.764
 5371POPC   C3A68177  15.159  22.929   7.064
 5371POPC   C4A68178  15.167  22.922   7.364
 5371POPC   C1B68179  14.906  22.934   6.464
 5371POPC   C2B68180  14.968  22.881   6.764
 5371POPC   C3B68181  14.901  22.886   7.064
 5371POPC   C4B68182  14.951  22.902   7.364
 5372POPC   NC368183   7.374   5.049   5.564
 5372POPC   PO468184   7.397   5.081   5.864
 5372POPC   GL168185   7.387   5.129   6.164
 5372POPC   GL268186   7.502   5.149   6.164
 5372POPC   C1A68187   7.432   5.076   6.464
 5372POPC   D2A68188   7.396   5.083   6.764
 5372POPC   C3A68189   7.451   5.132   7.064
 5372POPC   C4A68190   7.469   5.091   7.364
 5372POPC   C1B68191   7.708   5.128   6.464
 5372POPC   C2B68192   7.626   5.146   6.764
 5372POPC   C3B68193   7.698   5.110   7.064
 5372POPC   C4B68194   7.679   5.178   7.364
 5373POPC   NC368195  11.316  37.672   5.564
 5373POPC   PO468196  11.320  37.687   5.864
 5373POPC   GL168197  11.342  37.689   6.164
 5373POPC   GL268198  11.397  37.706   6.164
 5373POPC   C1A68199  11.267  37.712   6.464
 5373POPC   D2A68200  11.311  37.640   6.764
 5373POPC   C3A68201  11.276  37.664   7.064
 5373POPC   C4A68202  11.292  37.723   7.364
 5373POPC   C1B68203  11.494  37.837   6.464
 5373POPC   C2B68204  11.522  37.791   6.764
 5373POPC   C3B68205  11.464  37.802   7.064
 5373POPC   C4B68206  11.549  37.801   7.364
 5374POPC   NC368207  26.073  22.952   5.564
 5374POPC   PO468208  26.075  22.925   5.864
 5374POPC   GL168209  25.996  22.940   6.164
 5374POPC   GL268210  26.000  23.077   6.164
 5374POPC   C1A68211  26.043  22.924   6.464
 5374POPC   D2A68212  26.078  22.896   6.764
 5374POPC   C3A68213  26.004  22.973   7.064
 5374POPC   C4A68214  26.043  22.927   7.364
 5374POPC   C1B68215  25.971  23.170   6.464
 5374POPC   C2B68216  25.932  23.193   6.764
 5374POPC   C3B68217  25.984  23.173   7.064
 5374POPC   C4B68218  25.935  23.145   7.364
 5375POPC   NC368219  26.068  40.814   5.564
 5375POPC   PO468220  26.066  40.736   5.864
 5375POPC   GL168221  26.049  40.816   6.164
 5375POPC   GL268222  25.872  40.775   6.164
 5375POPC   C1A68223  26.032  40.809   6.464
 5375POPC   D2A68224  26.032  40.747   6.764
 5375POPC   C3A68225  26.061  40.760   7.064
 5375POPC   C4A68226  26.059  40.766   7.364
 5375POPC   C1B68227  25.805  40.806   6.464
 5375POPC   C2B68228  25.832  40.748   6.764
 5375POPC   C3B68229  25.758  40.800   7.064
 5375POPC   C4B68230  25.772  40.774   7.364
 5376POPC   NC368231  39.264  33.043   5.564
 5376POPC   PO468232  39.216  33.007   5.864
 5376POPC   GL168233  39.256  33.030   6.164
 5376POPC   GL268234  39.210  33.117   6.164
 5376POPC   C1A68235  39.241  32.977   6.464
 5376POPC   D2A68236  39.221  33.061   6.764
 5376POPC   C3A68237  39.261  33.010   7.064
 5376POPC   C4A68238  39.184  33.007   7.364
 5376POPC   C1B68239  39.274  33.281   6.464
 5376POPC   C2B68240  39.206  33.242   6.764
 5376POPC   C3B68241  39.239  33.279   7.064
 5376POPC   C4B68242  39.207  33.315   7.364
 5377POPC   NC368243   2.767  33.004   5.564
 5377POPC   PO468244   2.751  33.005   5.864
 5377POPC   GL168245   2.752  33.005   6.164
 5377POPC   GL268246   2.706  32.894   6.164
 5377POPC   C1A68247   2.755  33.000   6.464
 5377POPC   D2A68248   2.782  33.023   6.764
 5377POPC   C3A68249   2.732  33.050   7.064
 5377POPC   C4A68250   2.762  33.066   7.364
 5377POPC   C1B68251   2.580  32.851   6.464
 5377POPC   C2B68252   2.599  32.849   6.764
 5377POPC   C3B68253   2.601  32.820   7.064
 5377POPC   C4B68254   2.544  32.862   7.364
 5378POPC   NC368255   7.391  11.269   5.564
 5378POPC   PO468256   7.414  11.290   5.864
 5378POPC   GL168257   7.453  11.275   6.164
 5378POPC   GL268258   7.446  11.161   6.164
 5378POPC   C1A68259   7.453  11.330   6.464
 5378POPC   D2A68260   7.427  11.331   6.764
 5378POPC   C3A68261   7.409  11.252   7.064
 5378POPC   C4A68262   7.387  11.334   7.364
 5378POPC   C1B68263   7.458  11.032   6.464
 5378POPC   C2B68264   7.442  11.054   6.764
 5378POPC   C3B68265   7.430  11.106   7.064
 5378POPC   C4B68266   7.472  11.021   7.364
 5379POPC   NC368267   6.694  39.266   5.564
 5379POPC   PO468268   6.630  39.225   5.864
 5379POPC   GL168269   6.671  39.182   6.164
 5379POPC   GL268270   6.680  39.110   6.164
 5379POPC   C1A68271   6.623  39.234   6.464
 5379POPC   D2A68272   6.623  39.250   6.764
 5379POPC   C3A68273   6.608  39.242   7.064
 5379POPC   C4A68274   6.614  39.273   7.364
 5379POPC   C1B68275   6.694  39.023   6.464
 5379POPC   C2B68276   6.700  39.038   6.764
 5379POPC   C3B68277   6.721  39.001   7.064
 5379POPC   C4B68278   6.734  39.043   7.364
 5380POPC   NC368279  22.156  28.358   5.564
 5380POPC   PO468280  22.203  28.369   5.864
 5380POPC   GL168281  22.175  28.365   6.164
 5380POPC   GL268282  22.271  28.261   6.164
 5380POPC   C1A68283  22.169  28.343   6.464
 5380POPC   D2A68284  22.127  28.333   6.764
 5380POPC   C3A68285  22.129  28.320   7.064
 5380POPC   C4A68286  22.198  28.379   7.364
 5380POPC   C1B68287  22.281  28.166   6.464
 5380POPC   C2B68288  22.323  28.201   6.764
 5380POPC   C3B68289  22.335  28.215   7.064
 5380POPC   C4B68290  22.303  28.210   7.364
 5381POPC   NC368291  33.841  29.899   5.564
 5381POPC   PO468292  33.839  29.941   5.864
 5381POPC   GL168293  33.837  29.893   6.164
 5381POPC   GL268294  33.737  30.015   6.164
 5381POPC   C1A68295  33.839  29.954   6.464
 5381POPC   D2A68296  33.803  29.913   6.764
 5381POPC   C3A68297  33.821  29.969   7.064
 5381POPC   C4A68298  33.848  29.903   7.364
 5381POPC   C1B68299  33.593  29.992   6.464
 5381POPC   C2B68300  33.552  30.004   6.764
 5381POPC   C3B68301  33.597  30.007   7.064
 5381POPC   C4B68302  33.587  30.015   7.364
 5382POPC   NC368303  10.551   8.190   5.564
 5382POPC   PO468304  10.479   8.227   5.864
 5382POPC   GL168305  10.505   8.183   6.164
 5382POPC   GL268306  10.583   8.064   6.164
 5382POPC   C1A68307  10.475   8.194   6.464
 5382POPC   D2A68308  10.488   8.196   6.764
 5382POPC   C3A68309  10.528   8.147   7.064
 5382POPC   C4A68310  10.474   8.152   7.364
 5382POPC   C1B68311  10.658   7.957   6.464
 5382POPC   C2B68312  10.645   7.948   6.764
 5382POPC   C3B68313  10.640   8.003   7.064
 5382POPC   C4B68314  10.609   7.921   7.364
 5383POPC   NC368315   5.085  19.821   5.564
 5383POPC   PO468316   5.103  19.791   5.864
 5383POPC   GL168317   5.048  19.850   6.164
 5383POPC   GL268318   5.145  19.736   6.164
 5383POPC   C1A68319   5.067  19.852   6.464
 5383POPC   D2A68320   5.090  19.865   6.764
 5383POPC   C3A68321   5.121  19.806   7.064
 5383POPC   C4A68322   5.102  19.842   7.364
 5383POPC   C1B68323   5.195  19.610   6.464
 5383POPC   C2B68324   5.230  19.563   6.764
 5383POPC   C3B68325   5.191  19.612   7.064
 5383POPC   C4B68326   5.238  19.601   7.364
 5384POPC   NC368327  33.001  36.893   5.564
 5384POPC   PO468328  33.050  36.939   5.864
 5384POPC   GL168329  32.993  36.951   6.164
 5384POPC   GL268330  33.070  36.824   6.164
 5384POPC   C1A68331  33.040  36.944   6.464
 5384POPC   D2A68332  33.034  36.854   6.764
 5384POPC   C3A68333  33.055  36.902   7.064
 5384POPC   C4A68334  32.977  36.902   7.364
 5384POPC   C1B68335  33.207  36.736   6.464
 5384POPC   C2B68336  33.134  36.751   6.764
 5384POPC   C3B68337  33.195  36.677   7.064
 5384POPC   C4B68338  33.151  36.723   7.364
 5385POPC   NC368339  15.177  26.071   5.564
 5385POPC   PO468340  15.145  26.043   5.864
 5385POPC   GL168341  15.182  26.077   6.164
 5385POPC   GL268342  15.211  26.185   6.164
 5385POPC   C1A68343  15.170  25.996   6.464
 5385POPC   D2A68344  15.154  26.011   6.764
 5385POPC   C3A68345  15.134  26.016   7.064
 5385POPC   C4A68346  15.130  26.035   7.364
 5385POPC   C1B68347  15.281  26.213   6.464
 5385POPC   C2B68348  15.341  26.275   6.764
 5385POPC   C3B68349  15.290  26.288   7.064
 5385POPC   C4B68350  15.304  26.210   7.364
 5386POPC   NC368351  25.312   8.220   5.564
 5386POPC   PO468352  25.303   8.246   5.864
 5386POPC   GL168353  25.266   8.192   6.164
 5386POPC   GL268354  25.191   8.246   6.164
 5386POPC   C1A68355  25.314   8.164   6.464
 5386POPC   D2A68356  25.297   8.156   6.764
 5386POPC   C3A68357  25.299   8.186   7.064
 5386POPC   C4A68358  25.276   8.191   7.364
 5386POPC   C1B68359  25.086   8.378   6.464
 5386POPC   C2B68360  25.119   8.386   6.764
 5386POPC   C3B68361  25.125   8.396   7.064
 5386POPC   C4B68362  25.136   8.423   7.364
 5387POPC   NC368363  36.126  34.553   5.564
 5387POPC   PO468364  36.150  34.610   5.864
 5387POPC   GL168365  36.168  34.566   6.164
 5387POPC   GL268366  36.054  34.660   6.164
 5387POPC   C1A68367  36.129  34.579   6.464
 5387POPC   D2A68368  36.107  34.553   6.764
 5387POPC   C3A68369  36.125  34.578   7.064
 5387POPC   C4A68370  36.143  34.540   7.364
 5387POPC   C1B68371  36.099  34.864   6.464
 5387POPC   C2B68372  36.082  34.775   6.764
 5387POPC   C3B68373  36.108  34.866   7.064
 5387POPC   C4B68374  36.099  34.793   7.364
 5388POPC   NC368375  12.844  10.557   5.564
 5388POPC   PO468376  12.834  10.489   5.864
 5388POPC   GL168377  12.884  10.528   6.164
 5388POPC   GL268378  12.883  10.604   6.164
 5388POPC   C1A68379  12.843  10.525   6.464
 5388POPC   D2A68380  12.856  10.566   6.764
 5388POPC   C3A68381  12.901  10.525   7.064
 5388POPC   C4A68382  12.879  10.540   7.364
 5388POPC   C1B68383  12.806  10.807   6.464
 5388POPC   C2B68384  12.847  10.820   6.764
 5388POPC   C3B68385  12.831  10.730   7.064
 5388POPC   C4B68386  12.800  10.726   7.364
 5389POPC   NC368387  17.538  37.644   5.564
 5389POPC   PO468388  17.510  37.729   5.864
 5389POPC   GL168389  17.471  37.715   6.164
 5389POPC   GL268390  17.438  37.543   6.164
 5389POPC   C1A68391  17.480  37.659   6.464
 5389POPC   D2A68392  17.501  37.653   6.764
 5389POPC   C3A68393  17.499  37.681   7.064
 5389POPC   C4A68394  17.472  37.666   7.364
 5389POPC   C1B68395  17.291  37.475   6.464
 5389POPC   C2B68396  17.379  37.523   6.764
 5389POPC   C3B68397  17.282  37.460   7.064
 5389POPC   C4B68398  17.348  37.505   7.364
 5390POPC   NC368399   2.750  36.894   5.564
 5390POPC   PO468400   2.749  36.912   5.864
 5390POPC   GL168401   2.720  36.902   6.164
 5390POPC   GL268402   2.602  36.865   6.164
 5390POPC   C1A68403   2.770  36.863   6.464
 5390POPC   D2A68404   2.764  36.904   6.764
 5390POPC   C3A68405   2.735  36.931   7.064
 5390POPC   C4A68406   2.770  36.862   7.364
 5390POPC   C1B68407   2.498  36.837   6.464
 5390POPC   C2B68408   2.543  36.849   6.764
 5390POPC   C3B68409   2.554  36.856   7.064
 5390POPC   C4B68410   2.524  36.853   7.364
 5391POPC   NC368411  14.448  26.060   5.564
 5391POPC   PO468412  14.396  26.029   5.864
 5391POPC   GL168413  14.415  26.050   6.164
 5391POPC   GL268414  14.470  26.182   6.164
 5391POPC   C1A68415  14.377  26.090   6.464
 5391POPC   D2A68416  14.421  25.996   6.764
 5391POPC   C3A68417  14.451  26.051   7.064
 5391POPC   C4A68418  14.400  26.080   7.364
 5391POPC   C1B68419  14.599  26.180   6.464
 5391POPC   C2B68420  14.586  26.204   6.764
 5391POPC   C3B68421  14.524  26.199   7.064
 5391POPC   C4B68422  14.599  26.186   7.364
 5392POPC   NC368423   7.410  32.256   5.564
 5392POPC   PO468424   7.381  32.295   5.864
 5392POPC   GL168425   7.409  32.285   6.164
 5392POPC   GL268426   7.518  32.224   6.164
 5392POPC   C1A68427   7.455  32.261   6.464
 5392POPC   D2A68428   7.407  32.285   6.764
 5392POPC   C3A68429   7.390  32.240   7.064
 5392POPC   C4A68430   7.406  32.215   7.364
 5392POPC   C1B68431   7.649  32.310   6.464
 5392POPC   C2B68432   7.636  32.309   6.764
 5392POPC   C3B68433   7.639  32.222   7.064
 5392POPC   C4B68434   7.647  32.255   7.364
 5393POPC   NC368435   1.248  25.246   5.564
 5393POPC   PO468436   1.242  25.225   5.864
 5393POPC   GL168437   1.225  25.286   6.164
 5393POPC   GL268438   1.197  25.412   6.164
 5393POPC   C1A68439   1.209  25.302   6.464
 5393POPC   D2A68440   1.212  25.259   6.764
 5393POPC   C3A68441   1.226  25.267   7.064
 5393POPC   C4A68442   1.180  25.233   7.364
 5393POPC   C1B68443   1.142  25.534   6.464
 5393POPC   C2B68444   1.164  25.492   6.764
 5393POPC   C3B68445   1.164  25.501   7.064
 5393POPC   C4B68446   1.080  25.459   7.364
 5394POPC   NC368447  16.728  28.357   5.564
 5394POPC   PO468448  16.738  28.325   5.864
 5394POPC   GL168449  16.730  28.355   6.164
 5394POPC   GL268450  16.765  28.467   6.164
 5394POPC   C1A68451  16.707  28.326   6.464
 5394POPC   D2A68452  16.737  28.343   6.764
 5394POPC   C3A68453  16.777  28.341   7.064
 5394POPC   C4A68454  16.771  28.338   7.364
 5394POPC   C1B68455  16.916  28.533   6.464
 5394POPC   C2B68456  16.874  28.571   6.764
 5394POPC   C3B68457  16.927  28.604   7.064
 5394POPC   C4B68458  16.924  28.586   7.364
 5395POPC   NC368459  37.659  37.633   5.564
 5395POPC   PO468460  37.712  37.711   5.864
 5395POPC   GL168461  37.663  37.726   6.164
 5395POPC   GL268462  37.676  37.779   6.164
 5395POPC   C1A68463  37.656  37.660   6.464
 5395POPC   D2A68464  37.693  37.658   6.764
 5395POPC   C3A68465  37.697  37.686   7.064
 5395POPC   C4A68466  37.703  37.666   7.364
 5395POPC   C1B68467  37.721  37.966   6.464
 5395POPC   C2B68468  37.657  37.942   6.764
 5395POPC   C3B68469  37.626  37.979   7.064
 5395POPC   C4B68470  37.662  37.932   7.364
 5396POPC   NC368471   6.606  29.876   5.564
 5396POPC   PO468472   6.631  29.954   5.864
 5396POPC   GL168473   6.632  29.948   6.164
 5396POPC   GL268474   6.726  29.930   6.164
 5396POPC   C1A68475   6.627  29.946   6.464
 5396POPC   D2A68476   6.682  29.879   6.764
 5396POPC   C3A68477   6.640  29.910   7.064
 5396POPC   C4A68478   6.678  29.930   7.364
 5396POPC   C1B68479   6.848  29.896   6.464
 5396POPC   C2B68480   6.927  29.894   6.764
 5396POPC   C3B68481   6.886  29.926   7.064
 5396POPC   C4B68482   6.896  29.945   7.364
 5397POPC   NC368483   7.457  21.383   5.564
 5397POPC   PO468484   7.456  21.371   5.864
 5397POPC   GL168485   7.450  21.405   6.164
 5397POPC   GL268486   7.259  21.433   6.164
 5397POPC   C1A68487   7.401  21.428   6.464
 5397POPC   D2A68488   7.430  21.426   6.764
 5397POPC   C3A68489   7.448  21.348   7.064
 5397POPC   C4A68490   7.401  21.387   7.364
 5397POPC   C1B68491   7.229  21.492   6.464
 5397POPC   C2B68492   7.133  21.497   6.764
 5397POPC   C3B68493   7.174  21.418   7.064
 5397POPC   C4B68494   7.146  21.425   7.364
 5398POPC   NC368495  32.295  16.766   5.564
 5398POPC   PO468496  32.205  16.776   5.864
 5398POPC   GL168497  32.260  16.722   6.164
 5398POPC   GL268498  32.299  16.803   6.164
 5398POPC   C1A68499  32.286  16.685   6.464
 5398POPC   D2A68500  32.282  16.758   6.764
 5398POPC   C3A68501  32.234  16.691   7.064
 5398POPC   C4A68502  32.221  16.700   7.364
 5398POPC   C1B68503  32.395  16.930   6.464
 5398POPC   C2B68504  32.397  16.913   6.764
 5398POPC   C3B68505  32.410  16.927   7.064
 5398POPC   C4B68506  32.331  16.965   7.364
 5399POPC   NC368507  10.532   4.343   5.564
 5399POPC   PO468508  10.480   4.350   5.864
 5399POPC   GL168509  10.500   4.326   6.164
 5399POPC   GL268510  10.438   4.237   6.164
 5399POPC   C1A68511  10.538   4.275   6.464
 5399POPC   D2A68512  10.539   4.335   6.764
 5399POPC   C3A68513  10.556   4.331   7.064
 5399POPC   C4A68514  10.574   4.303   7.364
 5399POPC   C1B68515  10.400   4.137   6.464
 5399POPC   C2B68516  10.374   4.079   6.764
 5399POPC   C3B68517  10.361   4.099   7.064
 5399POPC   C4B68518  10.374   4.154   7.364
 5400POPC   NC368519  41.567  23.680   5.564
 5400POPC   PO468520  41.533  23.739   5.864
 5400POPC   GL168521  41.519  23.762   6.164
 5400POPC   GL268522  41.484  23.840   6.164
 5400POPC   C1A68523  41.516  23.747   6.464
 5400POPC   D2A68524  41.593  23.725   6.764
 5400POPC   C3A68525  41.604  23.762   7.064
 5400POPC   C4A68526  41.593  23.704   7.364
 5400POPC   C1B68527  41.483  23.972   6.464
 5400POPC   C2B68528  41.523  23.996   6.764
 5400POPC   C3B68529  41.503  23.937   7.064
 5400POPC   C4B68530  41.477  23.964   7.364
 5401POPC   NC368531  40.831  43.926   5.564
 5401POPC   PO468532  40.785  43.870   5.864
 5401POPC   GL168533  40.741  43.928   6.164
 5401POPC   GL268534  40.668  43.950   6.164
 5401POPC   C1A68535  40.783  43.902   6.464
 5401POPC   D2A68536  40.811  43.909   6.764
 5401POPC   C3A68537  40.813  43.883   7.064
 5401POPC   C4A68538  40.786  43.880   7.364
 5401POPC   C1B68539  40.520  43.974   6.464
 5401POPC   C2B68540  40.554  44.030   6.764
 5401POPC   C3B68541  40.510  44.031   7.064
 5401POPC   C4B68542  40.523  43.959   7.364
 5402POPC   NC368543  32.994   8.174   5.564
 5402POPC   PO468544  33.035   8.237   5.864
 5402POPC   GL168545  32.997   8.220   6.164
 5402POPC   GL268546  33.119   8.232   6.164
 5402POPC   C1A68547  33.034   8.205   6.464
 5402POPC   D2A68548  33.013   8.167   6.764
 5402POPC   C3A68549  33.062   8.156   7.064
 5402POPC   C4A68550  33.037   8.208   7.364
 5402POPC   C1B68551  33.261   8.383   6.464
 5402POPC   C2B68552  33.269   8.313   6.764
 5402POPC   C3B68553  33.230   8.363   7.064
 5402POPC   C4B68554  33.183   8.349   7.364
 5403POPC   NC368555  24.494  22.952   5.564
 5403POPC   PO468556  24.516  22.985   5.864
 5403POPC   GL168557  24.499  22.902   6.164
 5403POPC   GL268558  24.456  23.039   6.164
 5403POPC   C1A68559  24.440  22.897   6.464
 5403POPC   D2A68560  24.458  22.922   6.764
 5403POPC   C3A68561  24.494  22.906   7.064
 5403POPC   C4A68562  24.526  22.951   7.364
 5403POPC   C1B68563  24.463  23.146   6.464
 5403POPC   C2B68564  24.422  23.175   6.764
 5403POPC   C3B68565  24.479  23.233   7.064
 5403POPC   C4B68566  24.466  23.188   7.364
 5404POPC   NC368567   5.881  23.753   5.564
 5404POPC   PO468568   5.902  23.685   5.864
 5404POPC   GL168569   5.826  23.707   6.164
 5404POPC   GL268570   5.871  23.635   6.164
 5404POPC   C1A68571   5.903  23.723   6.464
 5404POPC   D2A68572   5.875  23.734   6.764
 5404POPC   C3A68573   5.861  23.689   7.064
 5404POPC   C4A68574   5.860  23.752   7.364
 5404POPC   C1B68575   5.891  23.473   6.464
 5404POPC   C2B68576   5.905  23.424   6.764
 5404POPC   C3B68577   5.907  23.430   7.064
 5404POPC   C4B68578   5.896  23.494   7.364
 5405POPC   NC368579  22.951  27.567   5.564
 5405POPC   PO468580  22.949  27.560   5.864
 5405POPC   GL168581  22.965  27.549   6.164
 5405POPC   GL268582  22.876  27.541   6.164
 5405POPC   C1A68583  22.955  27.604   6.464
 5405POPC   D2A68584  22.910  27.607   6.764
 5405POPC   C3A68585  22.893  27.559   7.064
 5405POPC   C4A68586  22.891  27.637   7.364
 5405POPC   C1B68587  22.714  27.408   6.464
 5405POPC   C2B68588  22.713  27.465   6.764
 5405POPC   C3B68589  22.728  27.474   7.064
 5405POPC   C4B68590  22.731  27.419   7.364
 5406POPC   NC368591  29.966  31.446   5.564
 5406POPC   PO468592  29.955  31.434   5.864
 5406POPC   GL168593  29.949  31.466   6.164
 5406POPC   GL268594  30.080  31.381   6.164
 5406POPC   C1A68595  29.925  31.485   6.464
 5406POPC   D2A68596  29.886  31.439   6.764
 5406POPC   C3A68597  29.940  31.480   7.064
 5406POPC   C4A68598  29.938  31.493   7.364
 5406POPC   C1B68599  30.180  31.351   6.464
 5406POPC   C2B68600  30.160  31.431   6.764
 5406POPC   C3B68601  30.169  31.352   7.064
 5406POPC   C4B68602  30.179  31.389   7.364
 5407POPC   NC368603  11.269  18.256   5.564
 5407POPC   PO468604  11.328  18.289   5.864
 5407POPC   GL168605  11.338  18.238   6.164
 5407POPC   GL268606  11.206  18.399   6.164
 5407POPC   C1A68607  11.344  18.307   6.464
 5407POPC   D2A68608  11.330  18.242   6.764
 5407POPC   C3A68609  11.316  18.238   7.064
 5407POPC   C4A68610  11.293  18.250   7.364
 5407POPC   C1B68611  11.154  18.426   6.464
 5407POPC   C2B68612  11.115  18.520   6.764
 5407POPC   C3B68613  11.093  18.439   7.064
 5407POPC   C4B68614  11.176  18.518   7.364
 5408POPC   NC368615   3.491  19.069   5.564
 5408POPC   PO468616   3.559  19.044   5.864
 5408POPC   GL168617   3.493  19.098   6.164
 5408POPC   GL268618   3.466  18.945   6.164
 5408POPC   C1A68619   3.533  19.037   6.464
 5408POPC   D2A68620   3.516  19.055   6.764
 5408POPC   C3A68621   3.506  19.059   7.064
 5408POPC   C4A68622   3.539  19.042   7.364
 5408POPC   C1B68623   3.487  18.802   6.464
 5408POPC   C2B68624   3.491  18.858   6.764
 5408POPC   C3B68625   3.448  18.831   7.064
 5408POPC   C4B68626   3.502  18.804   7.364
 5409POPC   NC368627  18.235  43.925   5.564
 5409POPC   PO468628  18.260  43.886   5.864
 5409POPC   GL168629  18.282  43.923   6.164
 5409POPC   GL268630  18.175  43.862   6.164
 5409POPC   C1A68631  18.274  43.839   6.464
 5409POPC   D2A68632  18.327  43.849   6.764
 5409POPC   C3A68633  18.286  43.900   7.064
 5409POPC   C4A68634  18.293  43.925   7.364
 5409POPC   C1B68635  18.036  43.866   6.464
 5409POPC   C2B68636  18.009  43.834   6.764
 5409POPC   C3B68637  18.061  43.856   7.064
 5409POPC   C4B68638  18.025  43.856   7.364
 5410POPC   NC368639  17.489   1.991   5.564
 5410POPC   PO468640  17.496   1.942   5.864
 5410POPC   GL168641  17.542   2.004   6.164
 5410POPC   GL268642  17.595   1.983   6.164
 5410POPC   C1A68643  17.545   1.954   6.464
 5410POPC   D2A68644  17.519   1.995   6.764
 5410POPC   C3A68645  17.473   1.966   7.064
 5410POPC   C4A68646  17.529   1.993   7.364
 5410POPC   C1B68647  17.763   1.950   6.464
 5410POPC   C2B68648  17.721   1.989   6.764
 5410POPC   C3B68649  17.730   1.950   7.064
 5410POPC   C4B68650  17.739   1.964   7.364
 5411POPC   NC368651  42.325  42.365   5.564
 5411POPC   PO468652  42.304  42.307   5.864
 5411POPC   GL168653  42.356  42.329   6.164
 5411POPC   GL268654  42.423  42.341   6.164
 5411POPC   C1A68655  42.382  42.287   6.464
 5411POPC   D2A68656  42.340  42.293   6.764
 5411POPC   C3A68657  42.356  42.368   7.064
 5411POPC   C4A68658  42.348  42.291   7.364
 5411POPC   C1B68659  42.567  42.417   6.464
 5411POPC   C2B68660  42.549  42.473   6.764
 5411POPC   C3B68661  42.518  42.403   7.064
 5411POPC   C4B68662  42.590  42.467   7.364
 5412POPC   NC368663  13.626   8.947   5.564
 5412POPC   PO468664  13.612   8.982   5.864
 5412POPC   GL168665  13.583   8.968   6.164
 5412POPC   GL268666  13.504   9.032   6.164
 5412POPC   C1A68667  13.648   9.003   6.464
 5412POPC   D2A68668  13.620   8.948   6.764
 5412POPC   C3A68669  13.595   9.014   7.064
 5412POPC   C4A68670  13.634   8.974   7.364
 5412POPC   C1B68671  13.427   9.048   6.464
 5412POPC   C2B68672  13.344   9.056   6.764
 5412POPC   C3B68673  13.426   8.999   7.064
 5412POPC   C4B68674  13.401   9.029   7.364
 5413POPC   NC368675  44.676   1.993   5.564
 5413POPC   PO468676  44.638   2.018   5.864
 5413POPC   GL168677  44.706   2.032   6.164
 5413POPC   GL268678  44.788   1.875   6.164
 5413POPC   C1A68679  44.630   1.968   6.464
 5413POPC   D2A68680  44.660   1.971   6.764
 5413POPC   C3A68681  44.679   2.023   7.064
 5413POPC   C4A68682  44.711   2.006   7.364
 5413POPC   C1B68683  44.802   1.826   6.464
 5413POPC   C2B68684  44.822   1.834   6.764
 5413POPC   C3B68685  44.812   1.755   7.064
 5413POPC   C4B68686  44.776   1.749   7.364
 5414POPC   NC368687  23.739  26.007   5.564
 5414POPC   PO468688  23.720  26.061   5.864
 5414POPC   GL168689  23.717  25.999   6.164
 5414POPC   GL268690  23.836  25.947   6.164
 5414POPC   C1A68691  23.685  25.994   6.464
 5414POPC   D2A68692  23.691  26.036   6.764
 5414POPC   C3A68693  23.721  26.083   7.064
 5414POPC   C4A68694  23.754  26.074   7.364
 5414POPC   C1B68695  23.942  25.903   6.464
 5414POPC   C2B68696  23.893  25.913   6.764
 5414POPC   C3B68697  23.968  25.990   7.064
 5414POPC   C4B68698  23.903  25.923   7.364
 5415POPC   NC368699  41.532  43.854   5.564
 5415POPC   PO468700  41.605  43.862   5.864
 5415POPC   GL168701  41.539  43.928   6.164
 5415POPC   GL268702  41.528  43.815   6.164
 5415POPC   C1A68703  41.516  43.907   6.464
 5415POPC   D2A68704  41.580  43.917   6.764
 5415POPC   C3A68705  41.522  43.881   7.064
 5415POPC   C4A68706  41.521  43.872   7.364
 5415POPC   C1B68707  41.477  43.687   6.464
 5415POPC   C2B68708  41.477  43.683   6.764
 5415POPC   C3B68709  41.528  43.684   7.064
 5415POPC   C4B68710  41.454  43.615   7.364
 5416POPC   NC368711   5.068   1.168   5.564
 5416POPC   PO468712   5.097   1.251   5.864
 5416POPC   GL168713   5.095   1.257   6.164
 5416POPC   GL268714   5.029   1.241   6.164
 5416POPC   C1A68715   5.087   1.216   6.464
 5416POPC   D2A68716   5.108   1.177   6.764
 5416POPC   C3A68717   5.093   1.164   7.064
 5416POPC   C4A68718   5.077   1.171   7.364
 5416POPC   C1B68719   4.846   1.302   6.464
 5416POPC   C2B68720   4.896   1.285   6.764
 5416POPC   C3B68721   4.874   1.345   7.064
 5416POPC   C4B68722   4.864   1.374   7.364
 5417POPC   NC368723  42.324  26.071   5.564
 5417POPC   PO468724  42.324  26.070   5.864
 5417POPC   GL168725  42.338  26.019   6.164
 5417POPC   GL268726  42.421  26.095   6.164
 5417POPC   C1A68727  42.348  25.992   6.464
 5417POPC   D2A68728  42.372  26.004   6.764
 5417POPC   C3A68729  42.304  26.010   7.064
 5417POPC   C4A68730  42.310  26.073   7.364
 5417POPC   C1B68731  42.622  26.110   6.464
 5417POPC   C2B68732  42.583  26.121   6.764
 5417POPC   C3B68733  42.605  26.114   7.064
 5417POPC   C4B68734  42.602  26.117   7.364
 5418POPC   NC368735  14.436  21.434   5.564
 5418POPC   PO468736  14.361  21.340   5.864
 5418POPC   GL168737  14.426  21.345   6.164
 5418POPC   GL268738  14.309  21.354   6.164
 5418POPC   C1A68739  14.417  21.433   6.464
 5418POPC   D2A68740  14.409  21.341   6.764
 5418POPC   C3A68741  14.361  21.424   7.064
 5418POPC   C4A68742  14.444  21.384   7.364
 5418POPC   C1B68743  14.158  21.283   6.464
 5418POPC   C2B68744  14.142  21.244   6.764
 5418POPC   C3B68745  14.166  21.286   7.064
 5418POPC   C4B68746  14.209  21.302   7.364
 5419POPC   NC368747  13.603  17.493   5.564
 5419POPC   PO468748  13.650  17.528   5.864
 5419POPC   GL168749  13.605  17.483   6.164
 5419POPC   GL268750  13.682  17.386   6.164
 5419POPC   C1A68751  13.630  17.495   6.464
 5419POPC   D2A68752  13.660  17.472   6.764
 5419POPC   C3A68753  13.626  17.477   7.064
 5419POPC   C4A68754  13.656  17.482   7.364
 5419POPC   C1B68755  13.706  17.292   6.464
 5419POPC   C2B68756  13.733  17.277   6.764
 5419POPC   C3B68757  13.669  17.320   7.064
 5419POPC   C4B68758  13.736  17.266   7.364
 5420POPC   NC368759  31.426  28.375   5.564
 5420POPC   PO468760  31.498  28.379   5.864
 5420POPC   GL168761  31.436  28.369   6.164
 5420POPC   GL268762  31.340  28.346   6.164
 5420POPC   C1A68763  31.471  28.323   6.464
 5420POPC   D2A68764  31.493  28.324   6.764
 5420POPC   C3A68765  31.455  28.378   7.064
 5420POPC   C4A68766  31.511  28.401   7.364
 5420POPC   C1B68767  31.223  28.410   6.464
 5420POPC   C2B68768  31.187  28.342   6.764
 5420POPC   C3B68769  31.214  28.350   7.064
 5420POPC   C4B68770  31.215  28.380   7.364
 5421POPC   NC368771  24.476  38.459   5.564
 5421POPC   PO468772  24.471  38.470   5.864
 5421POPC   GL168773  24.523  38.503   6.164
 5421POPC   GL268774  24.339  38.407   6.164
 5421POPC   C1A68775  24.444  38.503   6.464
 5421POPC   D2A68776  24.501  38.493   6.764
 5421POPC   C3A68777  24.471  38.440   7.064
 5421POPC   C4A68778  24.472  38.470   7.364
 5421POPC   C1B68779  24.244  38.458   6.464
 5421POPC   C2B68780  24.243  38.490   6.764
 5421POPC   C3B68781  24.218  38.457   7.064
 5421POPC   C4B68782  24.246  38.501   7.364
 5422POPC   NC368783  22.900  23.666   5.564
 5422POPC   PO468784  22.889  23.741   5.864
 5422POPC   GL168785  22.915  23.733   6.164
 5422POPC   GL268786  22.914  23.595   6.164
 5422POPC   C1A68787  22.976  23.683   6.464
 5422POPC   D2A68788  22.923  23.757   6.764
 5422POPC   C3A68789  22.954  23.701   7.064
 5422POPC   C4A68790  22.921  23.731   7.364
 5422POPC   C1B68791  22.980  23.487   6.464
 5422POPC   C2B68792  22.957  23.483   6.764
 5422POPC   C3B68793  22.977  23.507   7.064
 5422POPC   C4B68794  22.903  23.466   7.364
 5423POPC   NC368795  44.656  17.551   5.564
 5423POPC   PO468796  44.627  17.470   5.864
 5423POPC   GL168797  44.707  17.552   6.164
 5423POPC   GL268798  44.761  17.494   6.164
 5423POPC   C1A68799  44.677  17.485   6.464
 5423POPC   D2A68800  44.645  17.545   6.764
 5423POPC   C3A68801  44.621  17.523   7.064
 5423POPC   C4A68802  44.665  17.531   7.364
 5423POPC   C1B68803  44.917  17.611   6.464
 5423POPC   C2B68804  44.935  17.577   6.764
 5423POPC   C3B68805  44.862  17.568   7.064
 5423POPC   C4B68806  44.919  17.581   7.364
 5424POPC   NC368807  30.697  19.883   5.564
 5424POPC   PO468808  30.733  19.872   5.864
 5424POPC   GL168809  30.704  19.817   6.164
 5424POPC   GL268810  30.632  19.711   6.164
 5424POPC   C1A68811  30.726  19.826   6.464
 5424POPC   D2A68812  30.706  19.799   6.764
 5424POPC   C3A68813  30.688  19.818   7.064
 5424POPC   C4A68814  30.657  19.832   7.364
 5424POPC   C1B68815  30.578  19.618   6.464
 5424POPC   C2B68816  30.607  19.649   6.764
 5424POPC   C3B68817  30.607  19.656   7.064
 5424POPC   C4B68818  30.525  19.595   7.364
 5425POPC   NC368819  33.070  43.844   5.564
 5425POPC   PO468820  33.074  43.932   5.864
 5425POPC   GL168821  33.031  43.903   6.164
 5425POPC   GL268822  32.950  43.773   6.164
 5425POPC   C1A68823  32.992  43.842   6.464
 5425POPC   D2A68824  33.021  43.873   6.764
 5425POPC   C3A68825  33.028  43.900   7.064
 5425POPC   C4A68826  32.994  43.844   7.364
 5425POPC   C1B68827  32.961  43.617   6.464
 5425POPC   C2B68828  32.910  43.645   6.764
 5425POPC   C3B68829  32.963  43.673   7.064
 5425POPC   C4B68830  32.944  43.703   7.364
 5426POPC   NC368831  11.348  25.227   5.564
 5426POPC   PO468832  11.267  25.303   5.864
 5426POPC   GL168833  11.290  25.286   6.164
 5426POPC   GL268834  11.415  25.215   6.164
 5426POPC   C1A68835  11.262  25.250   6.464
 5426POPC   D2A68836  11.286  25.257   6.764
 5426POPC   C3A68837  11.304  25.278   7.064
 5426POPC   C4A68838  11.254  25.270   7.364
 5426POPC   C1B68839  11.485  25.046   6.464
 5426POPC   C2B68840  11.513  25.117   6.764
 5426POPC   C3B68841  11.522  25.141   7.064
 5426POPC   C4B68842  11.452  25.097   7.364
 5427POPC   NC368843  17.543  28.327   5.564
 5427POPC   PO468844  17.542  28.384   5.864
 5427POPC   GL168845  17.462  28.399   6.164
 5427POPC   GL268846  17.498  28.272   6.164
 5427POPC   C1A68847  17.492  28.378   6.464
 5427POPC   D2A68848  17.501  28.333   6.764
 5427POPC   C3A68849  17.526  28.325   7.064
 5427POPC   C4A68850  17.528  28.381   7.364
 5427POPC   C1B68851  17.462  28.112   6.464
 5427POPC   C2B68852  17.413  28.152   6.764
 5427POPC   C3B68853  17.474  28.118   7.064
 5427POPC   C4B68854  17.485  28.154   7.364
 5428POPC   NC368855  36.925  43.097   5.564
 5428POPC   PO468856  36.899  43.062   5.864
 5428POPC   GL168857  36.913  43.131   6.164
 5428POPC   GL268858  37.062  43.108   6.164
 5428POPC   C1A68859  36.921  43.075   6.464
 5428POPC   D2A68860  36.928  43.155   6.764
 5428POPC   C3A68861  36.931  43.081   7.064
 5428POPC   C4A68862  36.867  43.143   7.364
 5428POPC   C1B68863  37.126  43.155   6.464
 5428POPC   C2B68864  37.181  43.203   6.764
 5428POPC   C3B68865  37.158  43.207   7.064
 5428POPC   C4B68866  37.162  43.170   7.364
 5429POPC   NC368867  33.837  32.215   5.564
 5429POPC   PO468868  33.841  32.210   5.864
 5429POPC   GL168869  33.756  32.213   6.164
 5429POPC   GL268870  33.885  32.242   6.164
 5429POPC   C1A68871  33.787  32.204   6.464
 5429POPC   D2A68872  33.819  32.258   6.764
 5429POPC   C3A68873  33.783  32.288   7.064
 5429POPC   C4A68874  33.827  32.257   7.364
 5429POPC   C1B68875  34.011  32.301   6.464
 5429POPC   C2B68876  34.080  32.258   6.764
 5429POPC   C3B68877  34.066  32.322   7.064
 5429POPC   C4B68878  34.040  32.319   7.364
 5430POPC   NC368879  26.770  41.593   5.564
 5430POPC   PO468880  26.798  41.541   5.864
 5430POPC   GL168881  26.835  41.538   6.164
 5430POPC   GL268882  26.690  41.455   6.164
 5430POPC   C1A68883  26.839  41.603   6.464
 5430POPC   D2A68884  26.793  41.592   6.764
 5430POPC   C3A68885  26.839  41.594   7.064
 5430POPC   C4A68886  26.783  41.565   7.364
 5430POPC   C1B68887  26.598  41.474   6.464
 5430POPC   C2B68888  26.571  41.439   6.764
 5430POPC   C3B68889  26.632  41.398   7.064
 5430POPC   C4B68890  26.636  41.381   7.364
 5431POPC   NC368891   6.600   6.648   5.564
 5431POPC   PO468892   6.597   6.596   5.864
 5431POPC   GL168893   6.693   6.638   6.164
 5431POPC   GL268894   6.699   6.712   6.164
 5431POPC   C1A68895   6.655   6.667   6.464
 5431POPC   D2A68896   6.662   6.605   6.764
 5431POPC   C3A68897   6.636   6.689   7.064
 5431POPC   C4A68898   6.606   6.645   7.364
 5431POPC   C1B68899   6.829   6.839   6.464
 5431POPC   C2B68900   6.793   6.803   6.764
 5431POPC   C3B68901   6.872   6.804   7.064
 5431POPC   C4B68902   6.803   6.798   7.364
 5432POPC   NC368903  27.619  19.875   5.564
 5432POPC   PO468904  27.606  19.816   5.864
 5432POPC   GL168905  27.551  19.789   6.164
 5432POPC   GL268906  27.680  19.802   6.164
 5432POPC   C1A68907  27.639  19.866   6.464
 5432POPC   D2A68908  27.569  19.825   6.764
 5432POPC   C3A68909  27.548  19.833   7.064
 5432POPC   C4A68910  27.593  19.812   7.364
 5432POPC   C1B68911  27.785  19.780   6.464
 5432POPC   C2B68912  27.851  19.765   6.764
 5432POPC   C3B68913  27.851  19.724   7.064
 5432POPC   C4B68914  27.808  19.743   7.364
 5433POPC   NC368915  39.244  32.224   5.564
 5433POPC   PO468916  39.226  32.224   5.864
 5433POPC   GL168917  39.186  32.264   6.164
 5433POPC   GL268918  39.148  32.148   6.164
 5433POPC   C1A68919  39.182  32.274   6.464
 5433POPC   D2A68920  39.228  32.220   6.764
 5433POPC   C3A68921  39.191  32.287   7.064
 5433POPC   C4A68922  39.186  32.267   7.364
 5433POPC   C1B68923  39.064  32.049   6.464
 5433POPC   C2B68924  39.054  32.040   6.764
 5433POPC   C3B68925  39.058  32.077   7.064
 5433POPC   C4B68926  39.089  32.000   7.364
 5434POPC   NC368927  13.643  28.327   5.564
 5434POPC   PO468928  13.651  28.379   5.864
 5434POPC   GL168929  13.611  28.358   6.164
 5434POPC   GL268930  13.578  28.456   6.164
 5434POPC   C1A68931  13.579  28.343   6.464
 5434POPC   D2A68932  13.668  28.352   6.764
 5434POPC   C3A68933  13.650  28.394   7.064
 5434POPC   C4A68934  13.673  28.342   7.364
 5434POPC   C1B68935  13.476  28.628   6.464
 5434POPC   C2B68936  13.487  28.552   6.764
 5434POPC   C3B68937  13.470  28.626   7.064
 5434POPC   C4B68938  13.515  28.567   7.364
 5435POPC   NC368939   1.963  32.241   5.564
 5435POPC   PO468940   1.978  32.217   5.864
 5435POPC   GL168941   1.966  32.223   6.164
 5435POPC   GL268942   2.102  32.241   6.164
 5435POPC   C1A68943   1.973  32.201   6.464
 5435POPC   D2A68944   1.949  32.227   6.764
 5435POPC   C3A68945   1.974  32.214   7.064
 5435POPC   C4A68946   1.945  32.285   7.364
 5435POPC   C1B68947   2.204  32.267   6.464
 5435POPC   C2B68948   2.195  32.233   6.764
 5435POPC   C3B68949   2.209  32.241   7.064
 5435POPC   C4B68950   2.255  32.307   7.364
 5436POPC   NC368951  28.330  27.598   5.564
 5436POPC   PO468952  28.348  27.594   5.864
 5436POPC   GL168953  28.384  27.643   6.164
 5436POPC   GL268954  28.380  27.480   6.164
 5436POPC   C1A68955  28.350  27.550   6.464
 5436POPC   D2A68956  28.361  27.643   6.764
 5436POPC   C3A68957  28.383  27.556   7.064
 5436POPC   C4A68958  28.338  27.626   7.364
 5436POPC   C1B68959  28.374  27.392   6.464
 5436POPC   C2B68960  28.391  27.391   6.764
 5436POPC   C3B68961  28.350  27.351   7.064
 5436POPC   C4B68962  28.430  27.328   7.364
 5437POPC   NC368963  13.673  36.887   5.564
 5437POPC   PO468964  13.670  36.895   5.864
 5437POPC   GL168965  13.583  36.949   6.164
 5437POPC   GL268966  13.537  36.749   6.164
 5437POPC   C1A68967  13.635  36.925   6.464
 5437POPC   D2A68968  13.634  36.904   6.764
 5437POPC   C3A68969  13.638  36.923   7.064
 5437POPC   C4A68970  13.640  36.936   7.364
 5437POPC   C1B68971  13.491  36.673   6.464
 5437POPC   C2B68972  13.507  36.649   6.764
 5437POPC   C3B68973  13.489  36.686   7.064
 5437POPC   C4B68974  13.553  36.658   7.364
 5438POPC   NC368975   1.195   1.225   5.564
 5438POPC   PO468976   1.200   1.238   5.864
 5438POPC   GL168977   1.183   1.166   6.164
 5438POPC   GL268978   1.331   1.258   6.164
 5438POPC   C1A68979   1.207   1.235   6.464
 5438POPC   D2A68980   1.189   1.182   6.764
 5438POPC   C3A68981   1.183   1.218   7.064
 5438POPC   C4A68982   1.183   1.226   7.364
 5438POPC   C1B68983   1.399   1.279   6.464
 5438POPC   C2B68984   1.412   1.286   6.764
 5438POPC   C3B68985   1.397   1.296   7.064
 5438POPC   C4B68986   1.473   1.355   7.364
 5439POPC   NC368987  24.538  22.197   5.564
 5439POPC   PO468988  24.456  22.191   5.864
 5439POPC   GL168989  24.538  22.156   6.164
 5439POPC   GL268990  24.499  22.042   6.164
 5439POPC   C1A68991  24.498  22.124   6.464
 5439POPC   D2A68992  24.486  22.133   6.764
 5439POPC   C3A68993  24.521  22.154   7.064
 5439POPC   C4A68994  24.499  22.164   7.364
 5439POPC   C1B68995  24.461  21.865   6.464
 5439POPC   C2B68996  24.504  21.870   6.764
 5439POPC   C3B68997  24.460  21.894   7.064
 5439POPC   C4B68998  24.524  21.875   7.364
 5440POPC   NC368999  17.485  40.801   5.564
 5440POPC   PO469000  17.469  40.771   5.864
 5440POPC   GL169001  17.521  40.808   6.164
 5440POPC   GL269002  17.581  40.662   6.164
 5440POPC   C1A69003  17.530  40.803   6.464
 5440POPC   D2A69004  17.548  40.825   6.764
 5440POPC   C3A69005  17.529  40.740   7.064
 5440POPC   C4A69006  17.527  40.775   7.364
 5440POPC   C1B69007  17.664  40.551   6.464
 5440POPC   C2B69008  17.648  40.524   6.764
 5440POPC   C3B69009  17.677  40.562   7.064
 5440POPC   C4B69010  17.669  40.572   7.364
 5441POPC   NC369011  23.726   2.012   5.564
 5441POPC   PO469012  23.756   1.995   5.864
 5441POPC   GL169013  23.719   2.020   6.164
 5441POPC   GL269014  23.696   1.873   6.164
 5441POPC   C1A69015  23.751   1.966   6.464
 5441POPC   D2A69016  23.700   1.975   6.764
 5441POPC   C3A69017  23.679   1.943   7.064
 5441POPC   C4A69018  23.684   1.965   7.364
 5441POPC   C1B69019  23.560   1.762   6.464
 5441POPC   C2B69020  23.629   1.810   6.764
 5441POPC   C3B69021  23.586   1.778   7.064
 5441POPC   C4B69022  23.565   1.750   7.364
 5442POPC   NC369023   5.858  27.622   5.564
 5442POPC   PO469024   5.859  27.560   5.864
 5442POPC   GL169025   5.843  27.573   6.164
 5442POPC   GL269026   5.879  27.710   6.164
 5442POPC   C1A69027   5.916  27.613   6.464
 5442POPC   D2A69028   5.912  27.569   6.764
 5442POPC   C3A69029   5.846  27.587   7.064
 5442POPC   C4A69030   5.889  27.595   7.364
 5442POPC   C1B69031   5.873  27.883   6.464
 5442POPC   C2B69032   5.843  27.810   6.764
 5442POPC   C3B69033   5.839  27.828   7.064
 5442POPC   C4B69034   5.901  27.804   7.364
 5443POPC   NC369035  29.891  15.194   5.564
 5443POPC   PO469036  29.889  15.213   5.864
 5443POPC   GL169037  29.903  15.188   6.164
 5443POPC   GL269038  29.986  15.235   6.164
 5443POPC   C1A69039  29.894  15.172   6.464
 5443POPC   D2A69040  29.928  15.195   6.764
 5443POPC   C3A69041  29.896  15.130   7.064
 5443POPC   C4A69042  29.913  15.172   7.364
 5443POPC   C1B69043  30.140  15.319   6.464
 5443POPC   C2B69044  30.087  15.391   6.764
 5443POPC   C3B69045  30.130  15.373   7.064
 5443POPC   C4B69046  30.086  15.402   7.364
 5444POPC   NC369047  19.066   3.528   5.564
 5444POPC   PO469048  19.037   3.580   5.864
 5444POPC   GL169049  19.033   3.514   6.164
 5444POPC   GL269050  19.119   3.638   6.164
 5444POPC   C1A69051  19.018   3.526   6.464
 5444POPC   D2A69052  19.083   3.533   6.764
 5444POPC   C3A69053  19.051   3.557   7.064
 5444POPC   C4A69054  19.096   3.543   7.364
 5444POPC   C1B69055  19.116   3.807   6.464
 5444POPC   C2B69056  19.156   3.740   6.764
 5444POPC   C3B69057  19.159   3.758   7.064
 5444POPC   C4B69058  19.140   3.753   7.364
 5445POPC   NC369059  26.813  28.405   5.564
 5445POPC   PO469060  26.859  28.403   5.864
 5445POPC   GL169061  26.855  28.341   6.164
 5445POPC   GL269062  26.882  28.270   6.164
 5445POPC   C1A69063  26.856  28.320   6.464
 5445POPC   D2A69064  26.846  28.359   6.764
 5445POPC   C3A69065  26.853  28.387   7.064
 5445POPC   C4A69066  26.814  28.355   7.364
 5445POPC   C1B69067  27.054  28.248   6.464
 5445POPC   C2B69068  26.971  28.246   6.764
 5445POPC   C3B69069  27.041  28.193   7.064
 5445POPC   C4B69070  26.971  28.221   7.364
 5446POPC   NC369071  34.578  15.223   5.564
 5446POPC   PO469072  34.551  15.177   5.864
 5446POPC   GL169073  34.588  15.189   6.164
 5446POPC   GL269074  34.639  15.049   6.164
 5446POPC   C1A69075  34.603  15.193   6.464
 5446POPC   D2A69076  34.565  15.173   6.764
 5446POPC   C3A69077  34.547  15.222   7.064
 5446POPC   C4A69078  34.568  15.216   7.364
 5446POPC   C1B69079  34.754  14.979   6.464
 5446POPC   C2B69080  34.781  14.978   6.764
 5446POPC   C3B69081  34.772  14.993   7.064
 5446POPC   C4B69082  34.716  15.015   7.364
 5447POPC   NC369083  12.884  15.994   5.564
 5447POPC   PO469084  12.857  15.907   5.864
 5447POPC   GL169085  12.874  15.972   6.164
 5447POPC   GL269086  12.732  16.008   6.164
 5447POPC   C1A69087  12.804  15.957   6.464
 5447POPC   D2A69088  12.847  15.911   6.764
 5447POPC   C3A69089  12.898  15.961   7.064
 5447POPC   C4A69090  12.900  15.927   7.364
 5447POPC   C1B69091  12.581  15.970   6.464
 5447POPC   C2B69092  12.629  15.996   6.764
 5447POPC   C3B69093  12.626  15.970   7.064
 5447POPC   C4B69094  12.594  16.037   7.364
 5448POPC   NC369095  21.408  31.490   5.564
 5448POPC   PO469096  21.436  31.522   5.864
 5448POPC   GL169097  21.436  31.513   6.164
 5448POPC   GL269098  21.494  31.335   6.164
 5448POPC   C1A69099  21.431  31.504   6.464
 5448POPC   D2A69100  21.345  31.473   6.764
 5448POPC   C3A69101  21.406  31.461   7.064
 5448POPC   C4A69102  21.402  31.428   7.364
 5448POPC   C1B69103  21.479  31.274   6.464
 5448POPC   C2B69104  21.507  31.277   6.764
 5448POPC   C3B69105  21.500  31.225   7.064
 5448POPC   C4B69106  21.528  31.287   7.364
 5449POPC   NC369107   1.979  44.704   5.564
 5449POPC   PO469108   1.975  44.621   5.864
 5449POPC   GL169109   1.950  44.618   6.164
 5449POPC   GL269110   1.930  44.624   6.164
 5449POPC   C1A69111   1.959  44.691   6.464
 5449POPC   D2A69112   2.035  44.662   6.764
 5449POPC   C3A69113   2.019  44.697   7.064
 5449POPC   C4A69114   1.997  44.672   7.364
 5449POPC   C1B69115   1.828  44.475   6.464
 5449POPC   C2B69116   1.764  44.523   6.764
 5449POPC   C3B69117   1.831  44.527   7.064
 5449POPC   C4B69118   1.762  44.458   7.364
 5450POPC   NC369119  40.828   8.957   5.564
 5450POPC   PO469120  40.770   9.002   5.864
 5450POPC   GL169121  40.811   8.963   6.164
 5450POPC   GL269122  40.848   9.137   6.164
 5450POPC   C1A69123  40.811   8.978   6.464
 5450POPC   D2A69124  40.830   8.927   6.764
 5450POPC   C3A69125  40.735   8.984   7.064
 5450POPC   C4A69126  40.820   8.973   7.364
 5450POPC   C1B69127  40.898   9.219   6.464
 5450POPC   C2B69128  40.913   9.208   6.764
 5450POPC   C3B69129  40.861   9.234   7.064
 5450POPC   C4B69130  40.905   9.203   7.364
 5451POPC   NC369131  16.766   5.061   5.564
 5451POPC   PO469132  16.769   5.081   5.864
 5451POPC   GL169133  16.700   5.069   6.164
 5451POPC   GL269134  16.746   5.256   6.164
 5451POPC   C1A69135  16.690   5.082   6.464
 5451POPC   D2A69136  16.745   5.096   6.764
 5451POPC   C3A69137  16.757   5.112   7.064
 5451POPC   C4A69138  16.757   5.105   7.364
 5451POPC   C1B69139  16.710   5.310   6.464
 5451POPC   C2B69140  16.735   5.303   6.764
 5451POPC   C3B69141  16.701   5.365   7.064
 5451POPC   C4B69142  16.730   5.384   7.364
 5452POPC   NC369143  19.874   9.770   5.564
 5452POPC   PO469144  19.829   9.727   5.864
 5452POPC   GL169145  19.837   9.767   6.164
 5452POPC   GL269146  19.740   9.624   6.164
 5452POPC   C1A69147  19.800   9.764   6.464
 5452POPC   D2A69148  19.804   9.791   6.764
 5452POPC   C3A69149  19.787   9.796   7.064
 5452POPC   C4A69150  19.861   9.718   7.364
 5452POPC   C1B69151  19.699   9.532   6.464
 5452POPC   C2B69152  19.694   9.530   6.764
 5452POPC   C3B69153  19.676   9.496   7.064
 5452POPC   C4B69154  19.655   9.570   7.364
 5453POPC   NC369155   3.544  36.947   5.564
 5453POPC   PO469156   3.507  36.886   5.864
 5453POPC   GL169157   3.544  36.856   6.164
 5453POPC   GL269158   3.608  36.779   6.164
 5453POPC   C1A69159   3.591  36.914   6.464
 5453POPC   D2A69160   3.497  36.943   6.764
 5453POPC   C3A69161   3.506  36.859   7.064
 5453POPC   C4A69162   3.516  36.951   7.364
 5453POPC   C1B69163   3.681  36.664   6.464
 5453POPC   C2B69164   3.669  36.737   6.764
 5453POPC   C3B69165   3.705  36.706   7.064
 5453POPC   C4B69166   3.689  36.714   7.364
 5454POPC   NC369167  23.673   7.417   5.564
 5454POPC   PO469168  23.733   7.384   5.864
 5454POPC   GL169169  23.753   7.425   6.164
 5454POPC   GL269170  23.871   7.456   6.164
 5454POPC   C1A69171  23.679   7.408   6.464
 5454POPC   D2A69172  23.746   7.384   6.764
 5454POPC   C3A69173  23.681   7.441   7.064
 5454POPC   C4A69174  23.692   7.431   7.364
 5454POPC   C1B69175  23.920   7.547   6.464
 5454POPC   C2B69176  23.894   7.563   6.764
 5454POPC   C3B69177  23.908   7.527   7.064
 5454POPC   C4B69178  23.969   7.496   7.364
 5455POPC   NC369179  22.151  29.927   5.564
 5455POPC   PO469180  22.206  29.956   5.864
 5455POPC   GL169181  22.172  29.912   6.164
 5455POPC   GL269182  22.034  29.903   6.164
 5455POPC   C1A69183  22.170  29.900   6.464
 5455POPC   D2A69184  22.201  29.882   6.764
 5455POPC   C3A69185  22.211  29.945   7.064
 5455POPC   C4A69186  22.174  29.951   7.364
 5455POPC   C1B69187  21.923  29.837   6.464
 5455POPC   C2B69188  21.958  29.772   6.764
 5455POPC   C3B69189  21.944  29.844   7.064
 5455POPC   C4B69190  21.897  29.813   7.364
 5456POPC   NC369191  33.754  21.410   5.564
 5456POPC   PO469192  33.826  21.425   5.864
 5456POPC   GL169193  33.800  21.384   6.164
 5456POPC   GL269194  33.880  21.289   6.164
 5456POPC   C1A69195  33.775  21.429   6.464
 5456POPC   D2A69196  33.790  21.362   6.764
 5456POPC   C3A69197  33.780  21.375   7.064
 5456POPC   C4A69198  33.791  21.391   7.364
 5456POPC   C1B69199  34.024  21.279   6.464
 5456POPC   C2B69200  33.981  21.244   6.764
 5456POPC   C3B69201  34.043  21.286   7.064
 5456POPC   C4B69202  34.028  21.285   7.364
 5457POPC   NC369203   3.563  17.544   5.564
 5457POPC   PO469204   3.577  17.542   5.864
 5457POPC   GL169205   3.576  17.554   6.164
 5457POPC   GL269206   3.618  17.600   6.164
 5457POPC   C1A69207   3.570  17.507   6.464
 5457POPC   D2A69208   3.546  17.514   6.764
 5457POPC   C3A69209   3.527  17.487   7.064
 5457POPC   C4A69210   3.558  17.480   7.364
 5457POPC   C1B69211   3.625  17.773   6.464
 5457POPC   C2B69212   3.639  17.793   6.764
 5457POPC   C3B69213   3.566  17.718   7.064
 5457POPC   C4B69214   3.575  17.784   7.364
 5458POPC   NC369215   9.762  36.100   5.564
 5458POPC   PO469216   9.743  36.084   5.864
 5458POPC   GL169217   9.715  36.155   6.164
 5458POPC   GL269218   9.642  36.181   6.164
 5458POPC   C1A69219   9.776  36.136   6.464
 5458POPC   D2A69220   9.707  36.083   6.764
 5458POPC   C3A69221   9.777  36.145   7.064
 5458POPC   C4A69222   9.725  36.120   7.364
 5458POPC   C1B69223   9.484  36.194   6.464
 5458POPC   C2B69224   9.497  36.190   6.764
 5458POPC   C3B69225   9.548  36.199   7.064
 5458POPC   C4B69226   9.461  36.107   7.364
 5459POPC   NC369227  35.366  39.241   5.564
 5459POPC   PO469228  35.362  39.200   5.864
 5459POPC   GL169229  35.306  39.253   6.164
 5459POPC   GL269230  35.209  39.219   6.164
 5459POPC   C1A69231  35.379  39.240   6.464
 5459POPC   D2A69232  35.380  39.184   6.764
 5459POPC   C3A69233  35.348  39.255   7.064
 5459POPC   C4A69234  35.304  39.183   7.364
 5459POPC   C1B69235  35.149  39.115   6.464
 5459POPC   C2B69236  35.161  39.127   6.764
 5459POPC   C3B69237  35.089  39.119   7.064
 5459POPC   C4B69238  35.117  39.109   7.364
 5460POPC   NC369239  44.639  10.489   5.564
 5460POPC   PO469240  44.635  10.551   5.864
 5460POPC   GL169241  44.699  10.476   6.164
 5460POPC   GL269242  44.582  10.468   6.164
 5460POPC   C1A69243  44.688  10.499   6.464
 5460POPC   D2A69244  44.697  10.495   6.764
 5460POPC   C3A69245  44.688  10.478   7.064
 5460POPC   C4A69246  44.672  10.534   7.364
 5460POPC   C1B69247  44.493  10.332   6.464
 5460POPC   C2B69248  44.432  10.337   6.764
 5460POPC   C3B69249  44.529  10.370   7.064
 5460POPC   C4B69250  44.464  10.344   7.364
 5461POPC   NC369251   4.270  14.432   5.564
 5461POPC   PO469252   4.314  14.380   5.864
 5461POPC   GL169253   4.312  14.380   6.164
 5461POPC   GL269254   4.419  14.272   6.164
 5461POPC   C1A69255   4.272  14.441   6.464
 5461POPC   D2A69256   4.325  14.404   6.764
 5461POPC   C3A69257   4.292  14.360   7.064
 5461POPC   C4A69258   4.307  14.444   7.364
 5461POPC   C1B69259   4.488  14.237   6.464
 5461POPC   C2B69260   4.505  14.187   6.764
 5461POPC   C3B69261   4.449  14.225   7.064
 5461POPC   C4B69262   4.533  14.196   7.364
 5462POPC   NC369263  34.564  26.821   5.564
 5462POPC   PO469264  34.531  26.773   5.864
 5462POPC   GL169265  34.616  26.795   6.164
 5462POPC   GL269266  34.688  26.691   6.164
 5462POPC   C1A69267  34.611  26.771   6.464
 5462POPC   D2A69268  34.566  26.821   6.764
 5462POPC   C3A69269  34.526  26.863   7.064
 5462POPC   C4A69270  34.607  26.862   7.364
 5462POPC   C1B69271  34.711  26.635   6.464
 5462POPC   C2B69272  34.674  26.580   6.764
 5462POPC   C3B69273  34.666  26.583   7.064
 5462POPC   C4B69274  34.656  26.576   7.364
 5463POPC   NC369275  27.614  23.746   5.564
 5463POPC   PO469276  27.570  23.685   5.864
 5463POPC   GL169277  27.610  23.724   6.164
 5463POPC   GL269278  27.533  23.679   6.164
 5463POPC   C1A69279  27.631  23.688   6.464
 5463POPC   D2A69280  27.631  23.745   6.764
 5463POPC   C3A69281  27.641  23.742   7.064
 5463POPC   C4A69282  27.630  23.748   7.364
 5463POPC   C1B69283  27.390  23.543   6.464
 5463POPC   C2B69284  27.435  23.530   6.764
 5463POPC   C3B69285  27.383  23.570   7.064
 5463POPC   C4B69286  27.430  23.551   7.364
 5464POPC   NC369287  35.314  42.378   5.564
 5464POPC   PO469288  35.376  42.363   5.864
 5464POPC   GL169289  35.380  42.290   6.164
 5464POPC   GL269290  35.440  42.336   6.164
 5464POPC   C1A69291  35.352  42.300   6.464
 5464POPC   D2A69292  35.373  42.304   6.764
 5464POPC   C3A69293  35.382  42.361   7.064
 5464POPC   C4A69294  35.309  42.307   7.364
 5464POPC   C1B69295  35.613  42.458   6.464
 5464POPC   C2B69296  35.555  42.454   6.764
 5464POPC   C3B69297  35.555  42.427   7.064
 5464POPC   C4B69298  35.577  42.454   7.364
 5465POPC   NC369299   3.510  21.375   5.564
 5465POPC   PO469300   3.576  21.347   5.864
 5465POPC   GL169301   3.533  21.344   6.164
 5465POPC   GL269302   3.643  21.482   6.164
 5465POPC   C1A69303   3.586  21.343   6.464
 5465POPC   D2A69304   3.520  21.404   6.764
 5465POPC   C3A69305   3.591  21.435   7.064
 5465POPC   C4A69306   3.507  21.435   7.364
 5465POPC   C1B69307   3.664  21.631   6.464
 5465POPC   C2B69308   3.703  21.594   6.764
 5465POPC   C3B69309   3.716  21.632   7.064
 5465POPC   C4B69310   3.632  21.552   7.364
 5466POPC   NC369311  43.880   2.772   5.564
 5466POPC   PO469312  43.855   2.768   5.864
 5466POPC   GL169313  43.903   2.717   6.164
 5466POPC   GL269314  43.946   2.714   6.164
 5466POPC   C1A69315  43.864   2.804   6.464
 5466POPC   D2A69316  43.935   2.736   6.764
 5466POPC   C3A69317  43.912   2.789   7.064
 5466POPC   C4A69318  43.893   2.727   7.364
 5466POPC   C1B69319  44.103   2.609   6.464
 5466POPC   C2B69320  44.106   2.624   6.764
 5466POPC   C3B69321  44.097   2.646   7.064
 5466POPC   C4B69322  44.081   2.615   7.364
 5467POPC   NC369323  33.755  43.880   5.564
 5467POPC   PO469324  33.832  43.851   5.864
 5467POPC   GL169325  33.778  43.868   6.164
 5467POPC   GL269326  33.869  43.786   6.164
 5467POPC   C1A69327  33.782  43.895   6.464
 5467POPC   D2A69328  33.791  43.869   6.764
 5467POPC   C3A69329  33.835  43.926   7.064
 5467POPC   C4A69330  33.785  43.887   7.364
 5467POPC   C1B69331  33.884  43.686   6.464
 5467POPC   C2B69332  33.814  43.673   6.764
 5467POPC   C3B69333  33.810  43.639   7.064
 5467POPC   C4B69334  33.886  43.658   7.364
 5468POPC   NC369335  38.475  29.893   5.564
 5468POPC   PO469336  38.454  29.883   5.864
 5468POPC   GL169337  38.419  29.900   6.164
 5468POPC   GL269338  38.587  29.947   6.164
 5468POPC   C1A69339  38.423  29.920   6.464
 5468POPC   D2A69340  38.505  29.883   6.764
 5468POPC   C3A69341  38.439  29.896   7.064
 5468POPC   C4A69342  38.412  29.911   7.364
 5468POPC   C1B69343  38.699  29.895   6.464
 5468POPC   C2B69344  38.744  29.850   6.764
 5468POPC   C3B69345  38.732  29.884   7.064
 5468POPC   C4B69346  38.739  29.908   7.364
 5469POPC   NC369347   5.053  34.561   5.564
 5469POPC   PO469348   5.116  34.582   5.864
 5469POPC   GL169349   5.111  34.556   6.164
 5469POPC   GL269350   5.053  34.470   6.164
 5469POPC   C1A69351   5.054  34.565   6.464
 5469POPC   D2A69352   5.100  34.528   6.764
 5469POPC   C3A69353   5.076  34.582   7.064
 5469POPC   C4A69354   5.083  34.609   7.364
 5469POPC   C1B69355   5.061  34.285   6.464
 5469POPC   C2B69356   5.008  34.344   6.764
 5469POPC   C3B69357   5.017  34.294   7.064
 5469POPC   C4B69358   5.007  34.378   7.364
 5470POPC   NC369359  12.902  26.034   5.564
 5470POPC   PO469360  12.889  26.028   5.864
 5470POPC   GL169361  12.853  26.038   6.164
 5470POPC   GL269362  12.846  25.929   6.164
 5470POPC   C1A69363  12.870  26.016   6.464
 5470POPC   D2A69364  12.875  26.070   6.764
 5470POPC   C3A69365  12.879  26.065   7.064
 5470POPC   C4A69366  12.852  26.018   7.364
 5470POPC   C1B69367  12.889  25.794   6.464
 5470POPC   C2B69368  12.879  25.764   6.764
 5470POPC   C3B69369  12.918  25.756   7.064
 5470POPC   C4B69370  12.909  25.816   7.364
 5471POPC   NC369371  19.037  36.890   5.564
 5471POPC   PO469372  19.024  36.892   5.864
 5471POPC   GL169373  19.106  36.921   6.164
 5471POPC   GL269374  19.113  36.855   6.164
 5471POPC   C1A69375  19.096  36.870   6.464
 5471POPC   D2A69376  19.098  36.909   6.764
 5471POPC   C3A69377  19.084  36.906   7.064
 5471POPC   C4A69378  19.037  36.871   7.364
 5471POPC   C1B69379  19.181  36.766   6.464
 5471POPC   C2B69380  19.193  36.746   6.764
 5471POPC   C3B69381  19.242  36.706   7.064
 5471POPC   C4B69382  19.193  36.672   7.364
 5472POPC   NC369383  31.473  26.048   5.564
 5472POPC   PO469384  31.483  26.003   5.864
 5472POPC   GL169385  31.433  26.000   6.164
 5472POPC   GL269386  31.619  26.086   6.164
 5472POPC   C1A69387  31.522  26.031   6.464
 5472POPC   D2A69388  31.512  26.006   6.764
 5472POPC   C3A69389  31.461  26.000   7.064
 5472POPC   C4A69390  31.469  26.017   7.364
 5472POPC   C1B69391  31.702  26.079   6.464
 5472POPC   C2B69392  31.732  26.043   6.764
 5472POPC   C3B69393  31.722  26.077   7.064
 5472POPC   C4B69394  31.750  26.044   7.364
 5473POPC   NC369395  24.535  33.787   5.564
 5473POPC   PO469396  24.453  33.759   5.864
 5473POPC   GL169397  24.459  33.762   6.164
 5473POPC   GL269398  24.660  33.825   6.164
 5473POPC   C1A69399  24.499  33.849   6.464
 5473POPC   D2A69400  24.472  33.797   6.764
 5473POPC   C3A69401  24.528  33.774   7.064
 5473POPC   C4A69402  24.505  33.825   7.364
 5473POPC   C1B69403  24.745  33.900   6.464
 5473POPC   C2B69404  24.689  33.879   6.764
 5473POPC   C3B69405  24.711  33.900   7.064
 5473POPC   C4B69406  24.763  33.852   7.364
 5474POPC   NC369407  42.330  27.571   5.564
 5474POPC   PO469408  42.376  27.553   5.864
 5474POPC   GL169409  42.344  27.627   6.164
 5474POPC   GL269410  42.350  27.678   6.164
 5474POPC   C1A69411  42.379  27.556   6.464
 5474POPC   D2A69412  42.344  27.632   6.764
 5474POPC   C3A69413  42.297  27.580   7.064
 5474POPC   C4A69414  42.294  27.569   7.364
 5474POPC   C1B69415  42.309  27.828   6.464
 5474POPC   C2B69416  42.256  27.790   6.764
 5474POPC   C3B69417  42.276  27.805   7.064
 5474POPC   C4B69418  42.300  27.849   7.364
 5475POPC   NC369419   7.445   8.993   5.564
 5475POPC   PO469420   7.427   9.000   5.864
 5475POPC   GL169421   7.460   8.941   6.164
 5475POPC   GL269422   7.318   9.066   6.164
 5475POPC   C1A69423   7.463   8.967   6.464
 5475POPC   D2A69424   7.385   8.986   6.764
 5475POPC   C3A69425   7.406   8.984   7.064
 5475POPC   C4A69426   7.424   9.001   7.364
 5475POPC   C1B69427   7.267   9.209   6.464
 5475POPC   C2B69428   7.246   9.192   6.764
 5475POPC   C3B69429   7.245   9.177   7.064
 5475POPC   C4B69430   7.319   9.208   7.364
 5476POPC   NC369431  15.204  15.209   5.564
 5476POPC   PO469432  15.193  15.222   5.864
 5476POPC   GL169433  15.146  15.222   6.164
 5476POPC   GL269434  15.210  15.335   6.164
 5476POPC   C1A69435  15.217  15.133   6.464
 5476POPC   D2A69436  15.156  15.206   6.764
 5476POPC   C3A69437  15.168  15.208   7.064
 5476POPC   C4A69438  15.153  15.157   7.364
 5476POPC   C1B69439  15.326  15.382   6.464
 5476POPC   C2B69440  15.317  15.440   6.764
 5476POPC   C3B69441  15.281  15.381   7.064
 5476POPC   C4B69442  15.260  15.351   7.364
 5477POPC   NC369443  20.591   7.387   5.564
 5477POPC   PO469444  20.654   7.406   5.864
 5477POPC   GL169445  20.600   7.432   6.164
 5477POPC   GL269446  20.706   7.409   6.164
 5477POPC   C1A69447  20.617   7.469   6.464
 5477POPC   D2A69448  20.622   7.371   6.764
 5477POPC   C3A69449  20.648   7.426   7.064
 5477POPC   C4A69450  20.597   7.412   7.364
 5477POPC   C1B69451  20.857   7.400   6.464
 5477POPC   C2B69452  20.903   7.403   6.764
 5477POPC   C3B69453  20.832   7.405   7.064
 5477POPC   C4B69454  20.831   7.440   7.364
 5478POPC   NC369455  41.554  11.345   5.564
 5478POPC   PO469456  41.572  11.296   5.864
 5478POPC   GL169457  41.558  11.313   6.164
 5478POPC   GL269458  41.441  11.222   6.164
 5478POPC   C1A69459  41.586  11.349   6.464
 5478POPC   D2A69460  41.590  11.265   6.764
 5478POPC   C3A69461  41.588  11.320   7.064
 5478POPC   C4A69462  41.541  11.310   7.364
 5478POPC   C1B69463  41.374  11.134   6.464
 5478POPC   C2B69464  41.306  11.179   6.764
 5478POPC   C3B69465  41.380  11.207   7.064
 5478POPC   C4B69466  41.373  11.156   7.364
 5479POPC   NC369467  14.407  40.802   5.564
 5479POPC   PO469468  14.384  40.752   5.864
 5479POPC   GL169469  14.416  40.821   6.164
 5479POPC   GL269470  14.335  40.914   6.164
 5479POPC   C1A69471  14.417  40.743   6.464
 5479POPC   D2A69472  14.400  40.825   6.764
 5479POPC   C3A69473  14.443  40.742   7.064
 5479POPC   C4A69474  14.381  40.810   7.364
 5479POPC   C1B69475  14.281  41.035   6.464
 5479POPC   C2B69476  14.270  40.971   6.764
 5479POPC   C3B69477  14.251  41.027   7.064
 5479POPC   C4B69478  14.321  40.950   7.364
 5480POPC   NC369479  12.854  36.119   5.564
 5480POPC   PO469480  12.888  36.089   5.864
 5480POPC   GL169481  12.856  36.172   6.164
 5480POPC   GL269482  12.882  36.216   6.164
 5480POPC   C1A69483  12.867  36.107   6.464
 5480POPC   D2A69484  12.825  36.156   6.764
 5480POPC   C3A69485  12.812  36.079   7.064
 5480POPC   C4A69486  12.893  36.134   7.364
 5480POPC   C1B69487  12.867  36.417   6.464
 5480POPC   C2B69488  12.813  36.350   6.764
 5480POPC   C3B69489  12.837  36.389   7.064
 5480POPC   C4B69490  12.821  36.355   7.364
 5481POPC   NC369491   5.138  31.450   5.564
 5481POPC   PO469492   5.090  31.426   5.864
 5481POPC   GL169493   5.086  31.510   6.164
 5481POPC   GL269494   5.069  31.608   6.164
 5481POPC   C1A69495   5.110  31.470   6.464
 5481POPC   D2A69496   5.080  31.505   6.764
 5481POPC   C3A69497   5.116  31.446   7.064
 5481POPC   C4A69498   5.095  31.462   7.364
 5481POPC   C1B69499   5.129  31.737   6.464
 5481POPC   C2B69500   5.073  31.744   6.764
 5481POPC   C3B69501   5.131  31.698   7.064
 5481POPC   C4B69502   5.100  31.703   7.364
 5482POPC   NC369503  10.495   6.636   5.564
 5482POPC   PO469504  10.483   6.690   5.864
 5482POPC   GL169505  10.499   6.661   6.164
 5482POPC   GL269506  10.441   6.756   6.164
 5482POPC   C1A69507  10.513   6.690   6.464
 5482POPC   D2A69508  10.480   6.618   6.764
 5482POPC   C3A69509  10.564   6.689   7.064
 5482POPC   C4A69510  10.513   6.603   7.364
 5482POPC   C1B69511  10.352   6.860   6.464
 5482POPC   C2B69512  10.329   6.851   6.764
 5482POPC   C3B69513  10.346   6.848   7.064
 5482POPC   C4B69514  10.349   6.783   7.364
 5483POPC   NC369515   1.965  34.594   5.564
 5483POPC   PO469516   1.990  34.577   5.864
 5483POPC   GL169517   1.963  34.614   6.164
 5483POPC   GL269518   2.083  34.711   6.164
 5483POPC   C1A69519   2.027  34.534   6.464
 5483POPC   D2A69520   2.034  34.530   6.764
 5483POPC   C3A69521   2.029  34.570   7.064
 5483POPC   C4A69522   1.989  34.581   7.364
 5483POPC   C1B69523   2.156  34.777   6.464
 5483POPC   C2B69524   2.126  34.799   6.764
 5483POPC   C3B69525   2.080  34.829   7.064
 5483POPC   C4B69526   2.136  34.777   7.364
 5484POPC   NC369527   1.985   9.779   5.564
 5484POPC   PO469528   2.006   9.771   5.864
 5484POPC   GL169529   2.036   9.748   6.164
 5484POPC   GL269530   2.019   9.666   6.164
 5484POPC   C1A69531   1.943   9.722   6.464
 5484POPC   D2A69532   2.009   9.711   6.764
 5484POPC   C3A69533   1.977   9.699   7.064
 5484POPC   C4A69534   1.983   9.775   7.364
 5484POPC   C1B69535   2.062   9.496   6.464
 5484POPC   C2B69536   2.038   9.524   6.764
 5484POPC   C3B69537   1.986   9.486   7.064
 5484POPC   C4B69538   2.004   9.529   7.364
 5485POPC   NC369539  39.966  18.269   5.564
 5485POPC   PO469540  39.987  18.301   5.864
 5485POPC   GL169541  39.964  18.278   6.164
 5485POPC   GL269542  40.096  18.191   6.164
 5485POPC   C1A69543  39.976  18.305   6.464
 5485POPC   D2A69544  39.979  18.276   6.764
 5485POPC   C3A69545  39.961  18.316   7.064
 5485POPC   C4A69546  40.054  18.280   7.364
 5485POPC   C1B69547  40.131  18.070   6.464
 5485POPC   C2B69548  40.204  18.107   6.764
 5485POPC   C3B69549  40.169  18.066   7.064
 5485POPC   C4B69550  40.177  18.106   7.364
 5486POPC   NC369551   4.360  24.474   5.564
 5486POPC   PO469552   4.271  24.484   5.864
 5486POPC   GL169553   4.276  24.457   6.164
 5486POPC   GL269554   4.219  24.404   6.164
 5486POPC   C1A69555   4.360  24.499   6.464
 5486POPC   D2A69556   4.354  24.469   6.764
 5486POPC   C3A69557   4.283  24.462   7.064
 5486POPC   C4A69558   4.308  24.533   7.364
 5486POPC   C1B69559   4.150  24.365   6.464
 5486POPC   C2B69560   4.106  24.282   6.764
 5486POPC   C3B69561   4.088  24.362   7.064
 5486POPC   C4B69562   4.097  24.306   7.364
 5487POPC   NC369563  20.657  40.826   5.564
 5487POPC   PO469564  20.598  40.737   5.864
 5487POPC   GL169565  20.604  40.745   6.164
 5487POPC   GL269566  20.697  40.793   6.164
 5487POPC   C1A69567  20.600  40.734   6.464
 5487POPC   D2A69568  20.616  40.783   6.764
 5487POPC   C3A69569  20.609  40.821   7.064
 5487POPC   C4A69570  20.567  40.741   7.364
 5487POPC   C1B69571  20.872  40.754   6.464
 5487POPC   C2B69572  20.870  40.807   6.764
 5487POPC   C3B69573  20.832  40.797   7.064
 5487POPC   C4B69574  20.869  40.831   7.364
 5488POPC   NC369575   2.758  30.694   5.564
 5488POPC   PO469576   2.771  30.696   5.864
 5488POPC   GL169577   2.741  30.661   6.164
 5488POPC   GL269578   2.857  30.594   6.164
 5488POPC   C1A69579   2.756  30.730   6.464
 5488POPC   D2A69580   2.794  30.733   6.764
 5488POPC   C3A69581   2.724  30.664   7.064
 5488POPC   C4A69582   2.807  30.731   7.364
 5488POPC   C1B69583   2.927  30.520   6.464
 5488POPC   C2B69584   2.905  30.470   6.764
 5488POPC   C3B69585   2.904  30.491   7.064
 5488POPC   C4B69586   2.926  30.523   7.364
 5489POPC   NC369587  31.507   5.863   5.564
 5489POPC   PO469588  31.458   5.855   5.864
 5489POPC   GL169589  31.439   5.870   6.164
 5489POPC   GL269590  31.537   5.787   6.164
 5489POPC   C1A69591  31.454   5.906   6.464
 5489POPC   D2A69592  31.506   5.883   6.764
 5489POPC   C3A69593  31.423   5.862   7.064
 5489POPC   C4A69594  31.519   5.886   7.364
 5489POPC   C1B69595  31.654   5.770   6.464
 5489POPC   C2B69596  31.702   5.760   6.764
 5489POPC   C3B69597  31.717   5.767   7.064
 5489POPC   C4B69598  31.688   5.736   7.364
 5490POPC   NC369599  32.984  15.940   5.564
 5490POPC   PO469600  33.004  15.989   5.864
 5490POPC   GL169601  33.029  15.916   6.164
 5490POPC   GL269602  32.950  16.089   6.164
 5490POPC   C1A69603  33.001  15.990   6.464
 5490POPC   D2A69604  33.016  15.925   6.764
 5490POPC   C3A69605  33.022  15.995   7.064
 5490POPC   C4A69606  33.021  15.935   7.364
 5490POPC   C1B69607  32.840  16.172   6.464
 5490POPC   C2B69608  32.865  16.092   6.764
 5490POPC   C3B69609  32.875  16.178   7.064
 5490POPC   C4B69610  32.826  16.175   7.364
 5491POPC   NC369611  25.217   3.539   5.564
 5491POPC   PO469612  25.270   3.535   5.864
 5491POPC   GL169613  25.270   3.498   6.164
 5491POPC   GL269614  25.265   3.464   6.164
 5491POPC   C1A69615  25.259   3.544   6.464
 5491POPC   D2A69616  25.255   3.575   6.764
 5491POPC   C3A69617  25.239   3.543   7.064
 5491POPC   C4A69618  25.266   3.585   7.364
 5491POPC   C1B69619  25.202   3.291   6.464
 5491POPC   C2B69620  25.157   3.316   6.764
 5491POPC   C3B69621  25.146   3.257   7.064
 5491POPC   C4B69622  25.175   3.277   7.364
 5492POPC   NC369623  34.614  24.475   5.564
 5492POPC   PO469624  34.608  24.464   5.864
 5492POPC   GL169625  34.574  24.469   6.164
 5492POPC   GL269626  34.677  24.579   6.164
 5492POPC   C1A69627  34.557  24.514   6.464
 5492POPC   D2A69628  34.575  24.445   6.764
 5492POPC   C3A69629  34.542  24.507   7.064
 5492POPC   C4A69630  34.571  24.481   7.364
 5492POPC   C1B69631  34.709  24.704   6.464
 5492POPC   C2B69632  34.792  24.645   6.764
 5492POPC   C3B69633  34.740  24.657   7.064
 5492POPC   C4B69634  34.750  24.656   7.364
 5493POPC   NC369635  17.472   2.748   5.564
 5493POPC   PO469636  17.494   2.778   5.864
 5493POPC   GL169637  17.471   2.811   6.164
 5493POPC   GL269638  17.383   2.803   6.164
 5493POPC   C1A69639  17.465   2.804   6.464
 5493POPC   D2A69640  17.517   2.720   6.764
 5493POPC   C3A69641  17.526   2.809   7.064
 5493POPC   C4A69642  17.458   2.775   7.364
 5493POPC   C1B69643  17.264   2.881   6.464
 5493POPC   C2B69644  17.327   2.921   6.764
 5493POPC   C3B69645  17.340   2.900   7.064
 5493POPC   C4B69646  17.296   2.894   7.364
 5494POPC   NC369647  42.355   5.831   5.564
 5494POPC   PO469648  42.310   5.908   5.864
 5494POPC   GL169649  42.291   5.908   6.164
 5494POPC   GL269650  42.409   5.789   6.164
 5494POPC   C1A69651  42.363   5.822   6.464
 5494POPC   D2A69652  42.333   5.904   6.764
 5494POPC   C3A69653  42.315   5.871   7.064
 5494POPC   C4A69654  42.344   5.851   7.364
 5494POPC   C1B69655  42.558   5.796   6.464
 5494POPC   C2B69656  42.521   5.784   6.764
 5494POPC   C3B69657  42.614   5.775   7.064
 5494POPC   C4B69658  42.535   5.735   7.364
 5495POPC   NC369659   1.976  24.534   5.564
 5495POPC   PO469660   2.000  24.522   5.864
 5495POPC   GL169661   2.020  24.536   6.164
 5495POPC   GL269662   2.102  24.522   6.164
 5495POPC   C1A69663   1.947  24.451   6.464
 5495POPC   D2A69664   2.007  24.535   6.764
 5495POPC   C3A69665   2.001  24.503   7.064
 5495POPC   C4A69666   1.944  24.536   7.364
 5495POPC   C1B69667   2.260  24.606   6.464
 5495POPC   C2B69668   2.210  24.557   6.764
 5495POPC   C3B69669   2.238  24.626   7.064
 5495POPC   C4B69670   2.202  24.538   7.364
 5496POPC   NC369671   9.022  22.957   5.564
 5496POPC   PO469672   8.950  22.958   5.864
 5496POPC   GL169673   8.983  22.930   6.164
 5496POPC   GL269674   8.955  22.789   6.164
 5496POPC   C1A69675   8.979  22.985   6.464
 5496POPC   D2A69676   9.012  22.976   6.764
 5496POPC   C3A69677   8.950  22.909   7.064
 5496POPC   C4A69678   8.968  22.899   7.364
 5496POPC   C1B69679   8.827  22.745   6.464
 5496POPC   C2B69680   8.885  22.674   6.764
 5496POPC   C3B69681   8.836  22.716   7.064
 5496POPC   C4B69682   8.912  22.741   7.364
 5497POPC   NC369683  15.193  26.780   5.564
 5497POPC   PO469684  15.190  26.816   5.864
 5497POPC   GL169685  15.141  26.848   6.164
 5497POPC   GL269686  15.325  26.832   6.164
 5497POPC   C1A69687  15.215  26.858   6.464
 5497POPC   D2A69688  15.165  26.859   6.764
 5497POPC   C3A69689  15.221  26.802   7.064
 5497POPC   C4A69690  15.195  26.786   7.364
 5497POPC   C1B69691  15.404  26.841   6.464
 5497POPC   C2B69692  15.464  26.887   6.764
 5497POPC   C3B69693  15.435  26.892   7.064
 5497POPC   C4B69694  15.428  26.827   7.364
 5498POPC   NC369695   2.025  12.094   5.564
 5498POPC   PO469696   1.953  12.094   5.864
 5498POPC   GL169697   1.981  12.038   6.164
 5498POPC   GL269698   2.009  12.185   6.164
 5498POPC   C1A69699   2.039  12.096   6.464
 5498POPC   D2A69700   1.965  12.081   6.764
 5498POPC   C3A69701   2.002  12.100   7.064
 5498POPC   C4A69702   2.019  12.030   7.364
 5498POPC   C1B69703   2.045  12.271   6.464
 5498POPC   C2B69704   2.100  12.283   6.764
 5498POPC   C3B69705   2.095  12.299   7.064
 5498POPC   C4B69706   2.118  12.322   7.364
 5499POPC   NC369707  32.280   5.108   5.564
 5499POPC   PO469708  32.293   5.132   5.864
 5499POPC   GL169709  32.274   5.104   6.164
 5499POPC   GL269710  32.276   5.250   6.164
 5499POPC   C1A69711  32.223   5.070   6.464
 5499POPC   D2A69712  32.287   5.132   6.764
 5499POPC   C3A69713  32.224   5.053   7.064
 5499POPC   C4A69714  32.211   5.053   7.364
 5499POPC   C1B69715  32.330   5.347   6.464
 5499POPC   C2B69716  32.364   5.299   6.764
 5499POPC   C3B69717  32.346   5.354   7.064
 5499POPC   C4B69718  32.366   5.292   7.364
 5500POPC   NC369719  33.021  39.220   5.564
 5500POPC   PO469720  33.009  39.249   5.864
 5500POPC   GL169721  33.041  39.185   6.164
 5500POPC   GL269722  33.110  39.249   6.164
 5500POPC   C1A69723  33.028  39.200   6.464
 5500POPC   D2A69724  33.001  39.202   6.764
 5500POPC   C3A69725  33.032  39.224   7.064
 5500POPC   C4A69726  33.017  39.276   7.364
 5500POPC   C1B69727  33.268  39.300   6.464
 5500POPC   C2B69728  33.282  39.331   6.764
 5500POPC   C3B69729  33.234  39.373   7.064
 5500POPC   C4B69730  33.235  39.294   7.364
 5501POPC   NC369731  40.778  27.638   5.564
 5501POPC   PO469732  40.793  27.626   5.864
 5501POPC   GL169733  40.761  27.571   6.164
 5501POPC   GL269734  40.725  27.495   6.164
 5501POPC   C1A69735  40.737  27.613   6.464
 5501POPC   D2A69736  40.754  27.579   6.764
 5501POPC   C3A69737  40.808  27.595   7.064
 5501POPC   C4A69738  40.744  27.590   7.364
 5501POPC   C1B69739  40.784  27.395   6.464
 5501POPC   C2B69740  40.770  27.366   6.764
 5501POPC   C3B69741  40.759  27.345   7.064
 5501POPC   C4B69742  40.694  27.388   7.364
 5502POPC   NC369743   8.935  15.145   5.564
 5502POPC   PO469744   9.017  15.157   5.864
 5502POPC   GL169745   8.937  15.136   6.164
 5502POPC   GL269746   9.046  15.177   6.164
 5502POPC   C1A69747   8.955  15.189   6.464
 5502POPC   D2A69748   8.942  15.165   6.764
 5502POPC   C3A69749   8.939  15.200   7.064
 5502POPC   C4A69750   8.996  15.176   7.364
 5502POPC   C1B69751   9.216  15.279   6.464
 5502POPC   C2B69752   9.184  15.223   6.764
 5502POPC   C3B69753   9.221  15.233   7.064
 5502POPC   C4B69754   9.227  15.283   7.364
 5503POPC   NC369755  36.115  21.374   5.564
 5503POPC   PO469756  36.145  21.411   5.864
 5503POPC   GL169757  36.085  21.351   6.164
 5503POPC   GL269758  36.147  21.298   6.164
 5503POPC   C1A69759  36.107  21.433   6.464
 5503POPC   D2A69760  36.172  21.402   6.764
 5503POPC   C3A69761  36.099  21.352   7.064
 5503POPC   C4A69762  36.138  21.403   7.364
 5503POPC   C1B69763  36.231  21.122   6.464
 5503POPC   C2B69764  36.171  21.134   6.764
 5503POPC   C3B69765  36.224  21.124   7.064
 5503POPC   C4B69766  36.144  21.120   7.364
 5504POPC   NC369767  13.659  31.516   5.564
 5504POPC   PO469768  13.647  31.513   5.864
 5504POPC   GL169769  13.579  31.429   6.164
 5504POPC   GL269770  13.583  31.330   6.164
 5504POPC   C1A69771  13.667  31.520   6.464
 5504POPC   D2A69772  13.617  31.506   6.764
 5504POPC   C3A69773  13.658  31.505   7.064
 5504POPC   C4A69774  13.597  31.461   7.364
 5504POPC   C1B69775  13.595  31.196   6.464
 5504POPC   C2B69776  13.548  31.206   6.764
 5504POPC   C3B69777  13.536  31.272   7.064
 5504POPC   C4B69778  13.545  31.228   7.364
 5505POPC   NC369779  13.584  15.221   5.564
 5505POPC   PO469780  13.601  15.221   5.864
 5505POPC   GL169781  13.663  15.179   6.164
 5505POPC   GL269782  13.573  15.341   6.164
 5505POPC   C1A69783  13.628  15.148   6.464
 5505POPC   D2A69784  13.641  15.139   6.764
 5505POPC   C3A69785  13.621  15.176   7.064
 5505POPC   C4A69786  13.651  15.167   7.364
 5505POPC   C1B69787  13.532  15.426   6.464
 5505POPC   C2B69788  13.541  15.399   6.764
 5505POPC   C3B69789  13.521  15.434   7.064
 5505POPC   C4B69790  13.537  15.409   7.364
 5506POPC   NC369791  29.182   2.010   5.564
 5506POPC   PO469792  29.098   1.981   5.864
 5506POPC   GL169793  29.158   1.972   6.164
 5506POPC   GL269794  29.059   1.992   6.164
 5506POPC   C1A69795  29.128   1.992   6.464
 5506POPC   D2A69796  29.097   1.945   6.764
 5506POPC   C3A69797  29.132   1.956   7.064
 5506POPC   C4A69798  29.127   2.021   7.364
 5506POPC   C1B69799  28.926   1.940   6.464
 5506POPC   C2B69800  28.914   1.943   6.764
 5506POPC   C3B69801  28.929   1.895   7.064
 5506POPC   C4B69802  28.891   1.880   7.364
 5507POPC   NC369803  44.668   4.330   5.564
 5507POPC   PO469804  44.694   4.339   5.864
 5507POPC   GL169805  44.661   4.329   6.164
 5507POPC   GL269806  44.783   4.215   6.164
 5507POPC   C1A69807  44.695   4.278   6.464
 5507POPC   D2A69808  44.620   4.361   6.764
 5507POPC   C3A69809  44.672   4.301   7.064
 5507POPC   C4A69810  44.695   4.348   7.364
 5507POPC   C1B69811  44.841   4.208   6.464
 5507POPC   C2B69812  44.871   4.242   6.764
 5507POPC   C3B69813  44.925   4.166   7.064
 5507POPC   C4B69814  44.915   4.208   7.364
 5508POPC   NC369815  36.126   0.458   5.564
 5508POPC   PO469816  36.104   0.486   5.864
 5508POPC   GL169817  36.141   0.431   6.164
 5508POPC   GL269818  35.996   0.442   6.164
 5508POPC   C1A69819  36.125   0.483   6.464
 5508POPC   D2A69820  36.117   0.401   6.764
 5508POPC   C3A69821  36.153   0.396   7.064
 5508POPC   C4A69822  36.097   0.455   7.364
 5508POPC   C1B69823  35.911   0.507   6.464
 5508POPC   C2B69824  35.930   0.500   6.764
 5508POPC   C3B69825  35.856   0.488   7.064
 5508POPC   C4B69826  35.916   0.535   7.364
 5509POPC   NC369827  10.513  40.044   5.564
 5509POPC   PO469828  10.495  39.967   5.864
 5509POPC   GL169829  10.572  40.050   6.164
 5509POPC   GL269830  10.390  39.982   6.164
 5509POPC   C1A69831  10.562  40.009   6.464
 5509POPC   D2A69832  10.491  40.043   6.764
 5509POPC   C3A69833  10.518  40.044   7.064
 5509POPC   C4A69834  10.516  39.983   7.364
 5509POPC   C1B69835  10.314  39.880   6.464
 5509POPC   C2B69836  10.312  39.960   6.764
 5509POPC   C3B69837  10.314  39.931   7.064
 5509POPC   C4B69838  10.301  39.942   7.364
 5510POPC   NC369839  28.410  36.082   5.564
 5510POPC   PO469840  28.363  36.156   5.864
 5510POPC   GL169841  28.321  36.154   6.164
 5510POPC   GL269842  28.479  36.128   6.164
 5510POPC   C1A69843  28.418  36.176   6.464
 5510POPC   D2A69844  28.321  36.081   6.764
 5510POPC   C3A69845  28.356  36.101   7.064
 5510POPC   C4A69846  28.336  36.099   7.364
 5510POPC   C1B69847  28.633  36.040   6.464
 5510POPC   C2B69848  28.601  36.062   6.764
 5510POPC   C3B69849  28.610  36.017   7.064
 5510POPC   C4B69850  28.581  36.033   7.364
 5511POPC   NC369851  12.063  27.627   5.564
 5511POPC   PO469852  12.045  27.641   5.864
 5511POPC   GL169853  12.049  27.625   6.164
 5511POPC   GL269854  12.052  27.668   6.164
 5511POPC   C1A69855  12.109  27.613   6.464
 5511POPC   D2A69856  12.046  27.584   6.764
 5511POPC   C3A69857  12.038  27.616   7.064
 5511POPC   C4A69858  12.080  27.581   7.364
 5511POPC   C1B69859  11.985  27.827   6.464
 5511POPC   C2B69860  11.974  27.800   6.764
 5511POPC   C3B69861  11.919  27.851   7.064
 5511POPC   C4B69862  11.948  27.782   7.364
 5512POPC   NC369863   1.960  42.306   5.564
 5512POPC   PO469864   1.974  42.360   5.864
 5512POPC   GL169865   2.014  42.305   6.164
 5512POPC   GL269866   2.042  42.412   6.164
 5512POPC   C1A69867   2.000  42.357   6.464
 5512POPC   D2A69868   1.947  42.293   6.764
 5512POPC   C3A69869   1.967  42.302   7.064
 5512POPC   C4A69870   2.034  42.291   7.364
 5512POPC   C1B69871   2.043  42.593   6.464
 5512POPC   C2B69872   2.059  42.545   6.764
 5512POPC   C3B69873   2.057  42.605   7.064
 5512POPC   C4B69874   2.104  42.556   7.364
 5513POPC   NC369875   5.109  13.656   5.564
 5513POPC   PO469876   5.047  13.669   5.864
 5513POPC   GL169877   5.058  13.622   6.164
 5513POPC   GL269878   5.200  13.630   6.164
 5513POPC   C1A69879   5.060  13.599   6.464
 5513POPC   D2A69880   5.136  13.614   6.764
 5513POPC   C3A69881   5.110  13.608   7.064
 5513POPC   C4A69882   5.106  13.607   7.364
 5513POPC   C1B69883   5.284  13.509   6.464
 5513POPC   C2B69884   5.306  13.556   6.764
 5513POPC   C3B69885   5.317  13.546   7.064
 5513POPC   C4B69886   5.332  13.562   7.364
 5514POPC   NC369887  19.098  39.991   5.564
 5514POPC   PO469888  19.027  40.004   5.864
 5514POPC   GL169889  19.036  40.036   6.164
 5514POPC   GL269890  18.956  40.014   6.164
 5514POPC   C1A69891  19.054  39.967   6.464
 5514POPC   D2A69892  19.089  39.962   6.764
 5514POPC   C3A69893  19.106  40.023   7.064
 5514POPC   C4A69894  19.013  40.035   7.364
 5514POPC   C1B69895  18.827  39.962   6.464
 5514POPC   C2B69896  18.790  39.932   6.764
 5514POPC   C3B69897  18.816  39.990   7.064
 5514POPC   C4B69898  18.820  39.992   7.364
 5515POPC   NC369899   8.206   4.364   5.564
 5515POPC   PO469900   8.197   4.351   5.864
 5515POPC   GL169901   8.192   4.355   6.164
 5515POPC   GL269902   8.116   4.256   6.164
 5515POPC   C1A69903   8.164   4.329   6.464
 5515POPC   D2A69904   8.197   4.315   6.764
 5515POPC   C3A69905   8.241   4.354   7.064
 5515POPC   C4A69906   8.152   4.319   7.364
 5515POPC   C1B69907   8.080   4.133   6.464
 5515POPC   C2B69908   8.067   4.093   6.764
 5515POPC   C3B69909   8.095   4.067   7.064
 5515POPC   C4B69910   8.036   4.084   7.364
 5516POPC   NC369911  35.334  35.384   5.564
 5516POPC   PO469912  35.390  35.387   5.864
 5516POPC   GL169913  35.302  35.318   6.164
 5516POPC   GL269914  35.182  35.320   6.164
 5516POPC   C1A69915  35.324  35.352   6.464
 5516POPC   D2A69916  35.327  35.336   6.764
 5516POPC   C3A69917  35.366  35.324   7.064
 5516POPC   C4A69918  35.363  35.355   7.364
 5516POPC   C1B69919  35.112  35.308   6.464
 5516POPC   C2B69920  35.117  35.384   6.764
 5516POPC   C3B69921  35.118  35.396   7.064
 5516POPC   C4B69922  35.056  35.340   7.364
 5517POPC   NC369923  14.369  39.978   5.564
 5517POPC   PO469924  14.384  40.028   5.864
 5517POPC   GL169925  14.442  39.980   6.164
 5517POPC   GL269926  14.421  40.171   6.164
 5517POPC   C1A69927  14.446  39.967   6.464
 5517POPC   D2A69928  14.439  40.024   6.764
 5517POPC   C3A69929  14.447  40.016   7.064
 5517POPC   C4A69930  14.371  40.018   7.364
 5517POPC   C1B69931  14.401  40.284   6.464
 5517POPC   C2B69932  14.422  40.266   6.764
 5517POPC   C3B69933  14.351  40.256   7.064
 5517POPC   C4B69934  14.414  40.213   7.364
 5518POPC   NC369935  19.810  26.849   5.564
 5518POPC   PO469936  19.848  26.865   5.864
 5518POPC   GL169937  19.788  26.796   6.164
 5518POPC   GL269938  19.782  26.882   6.164
 5518POPC   C1A69939  19.804  26.801   6.464
 5518POPC   D2A69940  19.790  26.845   6.764
 5518POPC   C3A69941  19.788  26.835   7.064
 5518POPC   C4A69942  19.879  26.821   7.364
 5518POPC   C1B69943  19.662  26.940   6.464
 5518POPC   C2B69944  19.672  26.942   6.764
 5518POPC   C3B69945  19.648  26.953   7.064
 5518POPC   C4B69946  19.637  26.952   7.364
 5519POPC   NC369947  29.894   8.975   5.564
 5519POPC   PO469948  29.876   8.993   5.864
 5519POPC   GL169949  29.964   8.975   6.164
 5519POPC   GL269950  29.762   9.052   6.164
 5519POPC   C1A69951  29.896   8.956   6.464
 5519POPC   D2A69952  29.923   8.980   6.764
 5519POPC   C3A69953  29.931   9.002   7.064
 5519POPC   C4A69954  29.898   8.981   7.364
 5519POPC   C1B69955  29.698   9.039   6.464
 5519POPC   C2B69956  29.692   9.097   6.764
 5519POPC   C3B69957  29.683   9.070   7.064
 5519POPC   C4B69958  29.655   9.110   7.364
 5520POPC   NC369959  19.809   8.168   5.564
 5520POPC   PO469960  19.839   8.222   5.864
 5520POPC   GL169961  19.815   8.243   6.164
 5520POPC   GL269962  19.910   8.266   6.164
 5520POPC   C1A69963  19.833   8.223   6.464
 5520POPC   D2A69964  19.883   8.171   6.764
 5520POPC   C3A69965  19.874   8.165   7.064
 5520POPC   C4A69966  19.884   8.236   7.364
 5520POPC   C1B69967  20.012   8.321   6.464
 5520POPC   C2B69968  20.078   8.342   6.764
 5520POPC   C3B69969  20.056   8.345   7.064
 5520POPC   C4B69970  20.053   8.312   7.364
 5521POPC   NC369971  27.553  41.516   5.564
 5521POPC   PO469972  27.633  41.581   5.864
 5521POPC   GL169973  27.620  41.600   6.164
 5521POPC   GL269974  27.604  41.408   6.164
 5521POPC   C1A69975  27.563  41.544   6.464
 5521POPC   D2A69976  27.584  41.558   6.764
 5521POPC   C3A69977  27.620  41.527   7.064
 5521POPC   C4A69978  27.635  41.524   7.364
 5521POPC   C1B69979  27.587  41.329   6.464
 5521POPC   C2B69980  27.582  41.323   6.764
 5521POPC   C3B69981  27.556  41.318   7.064
 5521POPC   C4B69982  27.566  41.263   7.364
 5522POPC   NC369983  22.924  32.293   5.564
 5522POPC   PO469984  22.947  32.260   5.864
 5522POPC   GL169985  22.910  32.220   6.164
 5522POPC   GL269986  22.993  32.083   6.164
 5522POPC   C1A69987  22.926  32.280   6.464
 5522POPC   D2A69988  22.897  32.226   6.764
 5522POPC   C3A69989  22.936  32.257   7.064
 5522POPC   C4A69990  22.913  32.253   7.364
 5522POPC   C1B69991  23.024  31.964   6.464
 5522POPC   C2B69992  22.983  32.019   6.764
 5522POPC   C3B69993  23.004  32.031   7.064
 5522POPC   C4B69994  22.986  32.019   7.364
 5523POPC   NC369995  26.794   0.448   5.564
 5523POPC   PO469996  26.819   0.449   5.864
 5523POPC   GL169997  26.835   0.429   6.164
 5523POPC   GL269998  26.731   0.448   6.164
 5523POPC   C1A69999  26.828   0.453   6.464
 5523POPC   D2A70000  26.800   0.392   6.764
 5523POPC   C3A70001  26.842   0.395   7.064
 5523POPC   C4A70002  26.783   0.451   7.364
 5523POPC   C1B70003  26.593   0.453   6.464
 5523POPC   C2B70004  26.574   0.466   6.764
 5523POPC   C3B70005  26.520   0.479   7.064
 5523POPC   C4B70006  26.600   0.412   7.364
 5524POPC   NC370007  14.376  31.483   5.564
 5524POPC   PO470008  14.373  31.457   5.864
 5524POPC   GL170009  14.442  31.486   6.164
 5524POPC   GL270010  14.250  31.486   6.164
 5524POPC   C1A70011  14.395  31.474   6.464
 5524POPC   D2A70012  14.428  31.502   6.764
 5524POPC   C3A70013  14.433  31.429   7.064
 5524POPC   C4A70014  14.368  31.502   7.364
 5524POPC   C1B70015  14.207  31.623   6.464
 5524POPC   C2B70016  14.191  31.551   6.764
 5524POPC   C3B70017  14.220  31.538   7.064
 5524POPC   C4B70018  14.137  31.547   7.364
 5525POPC   NC370019  12.064  36.090   5.564
 5525POPC   PO470020  12.052  36.111   5.864
 5525POPC   GL170021  12.059  36.125   6.164
 5525POPC   GL270022  11.980  36.154   6.164
 5525POPC   C1A70023  12.048  36.117   6.464
 5525POPC   D2A70024  12.100  36.100   6.764
 5525POPC   C3A70025  12.036  36.112   7.064
 5525POPC   C4A70026  12.035  36.160   7.364
 5525POPC   C1B70027  11.811  36.237   6.464
 5525POPC   C2B70028  11.810  36.184   6.764
 5525POPC   C3B70029  11.847  36.230   7.064
 5525POPC   C4B70030  11.794  36.159   7.364
 5526POPC   NC370031  12.125  12.852   5.564
 5526POPC   PO470032  12.096  12.867   5.864
 5526POPC   GL170033  12.051  12.893   6.164
 5526POPC   GL270034  12.094  12.731   6.164
 5526POPC   C1A70035  12.030  12.815   6.464
 5526POPC   D2A70036  12.110  12.861   6.764
 5526POPC   C3A70037  12.096  12.858   7.064
 5526POPC   C4A70038  12.121  12.871   7.364
 5526POPC   C1B70039  12.094  12.646   6.464
 5526POPC   C2B70040  12.119  12.557   6.764
 5526POPC   C3B70041  12.079  12.616   7.064
 5526POPC   C4B70042  12.097  12.597   7.364
 5527POPC   NC370043   5.117  43.124   5.564
 5527POPC   PO470044   5.046  43.103   5.864
 5527POPC   GL170045   5.129  43.090   6.164
 5527POPC   GL270046   5.027  43.004   6.164
 5527POPC   C1A70047   5.142  43.156   6.464
 5527POPC   D2A70048   5.057  43.065   6.764
 5527POPC   C3A70049   5.084  43.064   7.064
 5527POPC   C4A70050   5.097  43.096   7.364
 5527POPC   C1B70051   4.909  42.956   6.464
 5527POPC   C2B70052   4.905  43.003   6.764
 5527POPC   C3B70053   4.878  42.931   7.064
 5527POPC   C4B70054   4.891  42.915   7.364
 5528POPC   NC370055  26.864  37.690   5.564
 5528POPC   PO470056  26.835  37.719   5.864
 5528POPC   GL170057  26.847  37.655   6.164
 5528POPC   GL270058  26.906  37.551   6.164
 5528POPC   C1A70059  26.844  37.646   6.464
 5528POPC   D2A70060  26.775  37.645   6.764
 5528POPC   C3A70061  26.787  37.655   7.064
 5528POPC   C4A70062  26.768  37.678   7.364
 5528POPC   C1B70063  27.004  37.485   6.464
 5528POPC   C2B70064  26.981  37.497   6.764
 5528POPC   C3B70065  26.983  37.478   7.064
 5528POPC   C4B70066  26.938  37.528   7.364
 5529POPC   NC370067  39.213   6.669   5.564
 5529POPC   PO470068  39.234   6.682   5.864
 5529POPC   GL170069  39.210   6.616   6.164
 5529POPC   GL270070  39.193   6.732   6.164
 5529POPC   C1A70071  39.204   6.607   6.464
 5529POPC   D2A70072  39.228   6.673   6.764
 5529POPC   C3A70073  39.266   6.640   7.064
 5529POPC   C4A70074  39.281   6.658   7.364
 5529POPC   C1B70075  39.058   6.805   6.464
 5529POPC   C2B70076  39.099   6.820   6.764
 5529POPC   C3B70077  39.059   6.879   7.064
 5529POPC   C4B70078  39.092   6.842   7.364
 5530POPC   NC370079  28.364  24.516   5.564
 5530POPC   PO470080  28.380  24.514   5.864
 5530POPC   GL170081  28.342  24.495   6.164
 5530POPC   GL270082  28.351  24.420   6.164
 5530POPC   C1A70083  28.348  24.490   6.464
 5530POPC   D2A70084  28.412  24.472   6.764
 5530POPC   C3A70085  28.412  24.496   7.064
 5530POPC   C4A70086  28.352  24.532   7.364
 5530POPC   C1B70087  28.227  24.267   6.464
 5530POPC   C2B70088  28.264  24.274   6.764
 5530POPC   C3B70089  28.272  24.311   7.064
 5530POPC   C4B70090  28.254  24.241   7.364
 5531POPC   NC370091   4.348  44.691   5.564
 5531POPC   PO470092   4.300  44.641   5.864
 5531POPC   GL170093   4.312  44.655   6.164
 5531POPC   GL270094   4.413  44.665   6.164
 5531POPC   C1A70095   4.337  44.707   6.464
 5531POPC   D2A70096   4.276  44.632   6.764
 5531POPC   C3A70097   4.339  44.698   7.064
 5531POPC   C4A70098   4.318  44.642   7.364
 5531POPC   C1B70099   4.553  44.582   6.464
 5531POPC   C2B70100   4.590  44.609   6.764
 5531POPC   C3B70101   4.559  44.621   7.064
 5531POPC   C4B70102   4.546  44.666   7.364
 5532POPC   NC370103  36.880  33.054   5.564
 5532POPC   PO470104  36.937  33.010   5.864
 5532POPC   GL170105  36.882  33.046   6.164
 5532POPC   GL270106  36.787  33.012   6.164
 5532POPC   C1A70107  36.875  33.024   6.464
 5532POPC   D2A70108  36.862  33.024   6.764
 5532POPC   C3A70109  36.926  33.000   7.064
 5532POPC   C4A70110  36.905  33.050   7.364
 5532POPC   C1B70111  36.615  33.074   6.464
 5532POPC   C2B70112  36.630  33.029   6.764
 5532POPC   C3B70113  36.659  33.031   7.064
 5532POPC   C4B70114  36.619  33.014   7.364
 5533POPC   NC370115  21.366  36.148   5.564
 5533POPC   PO470116  21.409  36.107   5.864
 5533POPC   GL170117  21.427  36.150   6.164
 5533POPC   GL270118  21.333  36.175   6.164
 5533POPC   C1A70119  21.358  36.148   6.464
 5533POPC   D2A70120  21.366  36.098   6.764
 5533POPC   C3A70121  21.397  36.081   7.064
 5533POPC   C4A70122  21.403  36.096   7.364
 5533POPC   C1B70123  21.181  36.312   6.464
 5533POPC   C2B70124  21.249  36.328   6.764
 5533POPC   C3B70125  21.211  36.345   7.064
 5533POPC   C4B70126  21.188  36.276   7.364
 5534POPC   NC370127  19.813  38.422   5.564
 5534POPC   PO470128  19.823  38.470   5.864
 5534POPC   GL170129  19.840  38.460   6.164
 5534POPC   GL270130  19.661  38.442   6.164
 5534POPC   C1A70131  19.806  38.503   6.464
 5534POPC   D2A70132  19.857  38.499   6.764
 5534POPC   C3A70133  19.835  38.491   7.064
 5534POPC   C4A70134  19.854  38.479   7.364
 5534POPC   C1B70135  19.578  38.437   6.464
 5534POPC   C2B70136  19.570  38.501   6.764
 5534POPC   C3B70137  19.599  38.494   7.064
 5534POPC   C4B70138  19.550  38.508   7.364
 5535POPC   NC370139  10.476  34.614   5.564
 5535POPC   PO470140  10.477  34.619   5.864
 5535POPC   GL170141  10.548  34.578   6.164
 5535POPC   GL270142  10.383  34.591   6.164
 5535POPC   C1A70143  10.482  34.565   6.464
 5535POPC   D2A70144  10.505  34.567   6.764
 5535POPC   C3A70145  10.573  34.531   7.064
 5535POPC   C4A70146  10.516  34.575   7.364
 5535POPC   C1B70147  10.322  34.626   6.464
 5535POPC   C2B70148  10.250  34.681   6.764
 5535POPC   C3B70149  10.265  34.637   7.064
 5535POPC   C4B70150  10.329  34.634   7.364
 5536POPC   NC370151   9.005  18.269   5.564
 5536POPC   PO470152   8.965  18.248   5.864
 5536POPC   GL170153   8.965  18.255   6.164
 5536POPC   GL270154   9.061  18.185   6.164
 5536POPC   C1A70155   9.018  18.242   6.464
 5536POPC   D2A70156   8.937  18.239   6.764
 5536POPC   C3A70157   8.979  18.307   7.064
 5536POPC   C4A70158   8.998  18.305   7.364
 5536POPC   C1B70159   9.087  18.079   6.464
 5536POPC   C2B70160   9.059  18.077   6.764
 5536POPC   C3B70161   9.034  18.036   7.064
 5536POPC   C4B70162   9.116  18.083   7.364
 5537POPC   NC370163  32.284  23.708   5.564
 5537POPC   PO470164  32.209  23.665   5.864
 5537POPC   GL170165  32.235  23.749   6.164
 5537POPC   GL270166  32.330  23.842   6.164
 5537POPC   C1A70167  32.293  23.715   6.464
 5537POPC   D2A70168  32.283  23.686   6.764
 5537POPC   C3A70169  32.279  23.675   7.064
 5537POPC   C4A70170  32.211  23.718   7.364
 5537POPC   C1B70171  32.469  23.870   6.464
 5537POPC   C2B70172  32.475  23.862   6.764
 5537POPC   C3B70173  32.438  23.923   7.064
 5537POPC   C4B70174  32.405  23.902   7.364
 5538POPC   NC370175  15.172  25.311   5.564
 5538POPC   PO470176  15.194  25.302   5.864
 5538POPC   GL170177  15.208  25.313   6.164
 5538POPC   GL270178  15.310  25.275   6.164
 5538POPC   C1A70179  15.155  25.230   6.464
 5538POPC   D2A70180  15.161  25.219   6.764
 5538POPC   C3A70181  15.145  25.234   7.064
 5538POPC   C4A70182  15.154  25.251   7.364
 5538POPC   C1B70183  15.463  25.329   6.464
 5538POPC   C2B70184  15.378  25.391   6.764
 5538POPC   C3B70185  15.429  25.382   7.064
 5538POPC   C4B70186  15.382  25.395   7.364
 5539POPC   NC370187   6.610   1.998   5.564
 5539POPC   PO470188   6.660   2.019   5.864
 5539POPC   GL170189   6.604   2.038   6.164
 5539POPC   GL270190   6.722   2.032   6.164
 5539POPC   C1A70191   6.617   2.011   6.464
 5539POPC   D2A70192   6.612   2.035   6.764
 5539POPC   C3A70193   6.692   1.978   7.064
 5539POPC   C4A70194   6.682   2.038   7.364
 5539POPC   C1B70195   6.931   1.953   6.464
 5539POPC   C2B70196   6.889   2.004   6.764
 5539POPC   C3B70197   6.875   2.028   7.064
 5539POPC   C4B70198   6.925   1.976   7.364
 5540POPC   NC370199  39.983  44.693   5.564
 5540POPC   PO470200  40.032  44.652   5.864
 5540POPC   GL170201  39.978  44.661   6.164
 5540POPC   GL270202  39.958  44.567   6.164
 5540POPC   C1A70203  40.007  44.685   6.464
 5540POPC   D2A70204  39.994  44.638   6.764
 5540POPC   C3A70205  39.970  44.625   7.064
 5540POPC   C4A70206  40.040  44.635   7.364
 5540POPC   C1B70207  39.797  44.425   6.464
 5540POPC   C2B70208  39.795  44.503   6.764
 5540POPC   C3B70209  39.810  44.460   7.064
 5540POPC   C4B70210  39.854  44.433   7.364
 5541POPC   NC370211  15.927  15.956   5.564
 5541POPC   PO470212  15.981  15.962   5.864
 5541POPC   GL170213  16.005  15.948   6.164
 5541POPC   GL270214  15.974  15.802   6.164
 5541POPC   C1A70215  15.947  15.952   6.464
 5541POPC   D2A70216  15.918  15.954   6.764
 5541POPC   C3A70217  15.929  15.983   7.064
 5541POPC   C4A70218  15.957  15.992   7.364
 5541POPC   C1B70219  16.001  15.739   6.464
 5541POPC   C2B70220  15.979  15.659   6.764
 5541POPC   C3B70221  16.027  15.706   7.064
 5541POPC   C4B70222  15.984  15.674   7.364
 5542POPC   NC370223  26.049  26.806   5.564
 5542POPC   PO470224  26.077  26.846   5.864
 5542POPC   GL170225  26.043  26.772   6.164
 5542POPC   GL270226  25.892  26.896   6.164
 5542POPC   C1A70227  26.026  26.806   6.464
 5542POPC   D2A70228  26.090  26.794   6.764
 5542POPC   C3A70229  26.009  26.817   7.064
 5542POPC   C4A70230  26.008  26.847   7.364
 5542POPC   C1B70231  25.799  26.907   6.464
 5542POPC   C2B70232  25.829  26.878   6.764
 5542POPC   C3B70233  25.844  26.858   7.064
 5542POPC   C4B70234  25.845  26.860   7.364
 5543POPC   NC370235  43.932  26.798   5.564
 5543POPC   PO470236  43.927  26.832   5.864
 5543POPC   GL170237  43.845  26.800   6.164
 5543POPC   GL270238  43.784  26.952   6.164
 5543POPC   C1A70239  43.872  26.782   6.464
 5543POPC   D2A70240  43.872  26.768   6.764
 5543POPC   C3A70241  43.841  26.792   7.064
 5543POPC   C4A70242  43.843  26.788   7.364
 5543POPC   C1B70243  43.716  27.028   6.464
 5543POPC   C2B70244  43.760  27.012   6.764
 5543POPC   C3B70245  43.785  27.006   7.064
 5543POPC   C4B70246  43.700  26.986   7.364
 5544POPC   NC370247  31.518   6.663   5.564
 5544POPC   PO470248  31.451   6.651   5.864
 5544POPC   GL170249  31.449   6.674   6.164
 5544POPC   GL270250  31.335   6.672   6.164
 5544POPC   C1A70251  31.492   6.652   6.464
 5544POPC   D2A70252  31.505   6.612   6.764
 5544POPC   C3A70253  31.465   6.628   7.064
 5544POPC   C4A70254  31.452   6.646   7.364
 5544POPC   C1B70255  31.187   6.708   6.464
 5544POPC   C2B70256  31.265   6.735   6.764
 5544POPC   C3B70257  31.226   6.724   7.064
 5544POPC   C4B70258  31.227   6.732   7.364
 5545POPC   NC370259  34.577   5.124   5.564
 5545POPC   PO470260  34.624   5.074   5.864
 5545POPC   GL170261  34.586   5.109   6.164
 5545POPC   GL270262  34.614   5.219   6.164
 5545POPC   C1A70263  34.598   5.053   6.464
 5545POPC   D2A70264  34.545   5.063   6.764
 5545POPC   C3A70265  34.599   5.081   7.064
 5545POPC   C4A70266  34.551   5.048   7.364
 5545POPC   C1B70267  34.604   5.365   6.464
 5545POPC   C2B70268  34.582   5.301   6.764
 5545POPC   C3B70269  34.605   5.358   7.064
 5545POPC   C4B70270  34.604   5.378   7.364
 5546POPC   NC370271  26.085   0.447   5.564
 5546POPC   PO470272  26.046   0.427   5.864
 5546POPC   GL170273  26.080   0.412   6.164
 5546POPC   GL270274  25.936   0.496   6.164
 5546POPC   C1A70275  26.063   0.464   6.464
 5546POPC   D2A70276  26.050   0.448   6.764
 5546POPC   C3A70277  26.012   0.390   7.064
 5546POPC   C4A70278  26.041   0.459   7.364
 5546POPC   C1B70279  25.830   0.487   6.464
 5546POPC   C2B70280  25.837   0.471   6.764
 5546POPC   C3B70281  25.773   0.411   7.064
 5546POPC   C4B70282  25.763   0.449   7.364
 5547POPC   NC370283  38.493  40.820   5.564
 5547POPC   PO470284  38.420  40.814   5.864
 5547POPC   GL170285  38.424  40.766   6.164
 5547POPC   GL270286  38.385  40.700   6.164
 5547POPC   C1A70287  38.485  40.739   6.464
 5547POPC   D2A70288  38.461  40.821   6.764
 5547POPC   C3A70289  38.464  40.761   7.064
 5547POPC   C4A70290  38.503  40.734   7.364
 5547POPC   C1B70291  38.235  40.638   6.464
 5547POPC   C2B70292  38.279  40.668   6.764
 5547POPC   C3B70293  38.297  40.608   7.064
 5547POPC   C4B70294  38.262  40.612   7.364
 5548POPC   NC370295  26.814   1.177   5.564
 5548POPC   PO470296  26.820   1.177   5.864
 5548POPC   GL170297  26.790   1.203   6.164
 5548POPC   GL270298  26.919   1.225   6.164
 5548POPC   C1A70299  26.822   1.213   6.464
 5548POPC   D2A70300  26.836   1.178   6.764
 5548POPC   C3A70301  26.785   1.257   7.064
 5548POPC   C4A70302  26.844   1.214   7.364
 5548POPC   C1B70303  27.009   1.338   6.464
 5548POPC   C2B70304  27.042   1.265   6.764
 5548POPC   C3B70305  27.072   1.250   7.064
 5548POPC   C4B70306  27.015   1.321   7.364
 5549POPC   NC370307   3.538  32.267   5.564
 5549POPC   PO470308   3.541  32.234   5.864
 5549POPC   GL170309   3.574  32.216   6.164
 5549POPC   GL270310   3.616  32.162   6.164
 5549POPC   C1A70311   3.492  32.245   6.464
 5549POPC   D2A70312   3.573  32.235   6.764
 5549POPC   C3A70313   3.550  32.247   7.064
 5549POPC   C4A70314   3.527  32.288   7.364
 5549POPC   C1B70315   3.771  32.181   6.464
 5549POPC   C2B70316   3.737  32.168   6.764
 5549POPC   C3B70317   3.721  32.185   7.064
 5549POPC   C4B70318   3.749  32.108   7.364
 5550POPC   NC370319  26.786   9.773   5.564
 5550POPC   PO470320  26.814   9.778   5.864
 5550POPC   GL170321  26.797   9.753   6.164
 5550POPC   GL270322  26.765   9.594   6.164
 5550POPC   C1A70323  26.786   9.720   6.464
 5550POPC   D2A70324  26.791   9.729   6.764
 5550POPC   C3A70325  26.850   9.727   7.064
 5550POPC   C4A70326  26.785   9.699   7.364
 5550POPC   C1B70327  26.841   9.457   6.464
 5550POPC   C2B70328  26.772   9.527   6.764
 5550POPC   C3B70329  26.757   9.541   7.064
 5550POPC   C4B70330  26.750   9.456   7.364
 5551POPC   NC370331  11.347   8.963   5.564
 5551POPC   PO470332  11.325   8.959   5.864
 5551POPC   GL170333  11.349   8.966   6.164
 5551POPC   GL270334  11.286   8.841   6.164
 5551POPC   C1A70335  11.266   8.985   6.464
 5551POPC   D2A70336  11.271   8.923   6.764
 5551POPC   C3A70337  11.346   8.954   7.064
 5551POPC   C4A70338  11.311   8.997   7.364
 5551POPC   C1B70339  11.255   8.693   6.464
 5551POPC   C2B70340  11.240   8.723   6.764
 5551POPC   C3B70341  11.287   8.742   7.064
 5551POPC   C4B70342  11.277   8.687   7.364
 5552POPC   NC370343  33.065  11.329   5.564
 5552POPC   PO470344  33.022  11.350   5.864
 5552POPC   GL170345  33.004  11.302   6.164
 5552POPC   GL270346  32.989  11.398   6.164
 5552POPC   C1A70347  33.059  11.338   6.464
 5552POPC   D2A70348  33.007  11.280   6.764
 5552POPC   C3A70349  32.996  11.306   7.064
 5552POPC   C4A70350  33.022  11.304   7.364
 5552POPC   C1B70351  32.983  11.561   6.464
 5552POPC   C2B70352  33.026  11.568   6.764
 5552POPC   C3B70353  32.967  11.574   7.064
 5552POPC   C4B70354  33.021  11.591   7.364
 5553POPC   NC370355   9.717   7.425   5.564
 5553POPC   PO470356   9.720   7.428   5.864
 5553POPC   GL170357   9.756   7.393   6.164
 5553POPC   GL270358   9.616   7.400   6.164
 5553POPC   C1A70359   9.731   7.461   6.464
 5553POPC   D2A70360   9.789   7.442   6.764
 5553POPC   C3A70361   9.768   7.439   7.064
 5553POPC   C4A70362   9.716   7.373   7.364
 5553POPC   C1B70363   9.487   7.349   6.464
 5553POPC   C2B70364   9.559   7.296   6.764
 5553POPC   C3B70365   9.540   7.311   7.064
 5553POPC   C4B70366   9.475   7.299   7.364
 5554POPC   NC370367  42.294   3.517   5.564
 5554POPC   PO470368  42.341   3.521   5.864
 5554POPC   GL170369  42.293   3.502   6.164
 5554POPC   GL270370  42.313   3.714   6.164
 5554POPC   C1A70371  42.305   3.588   6.464
 5554POPC   D2A70372  42.285   3.584   6.764
 5554POPC   C3A70373  42.317   3.493   7.064
 5554POPC   C4A70374  42.330   3.557   7.364
 5554POPC   C1B70375  42.335   3.818   6.464
 5554POPC   C2B70376  42.388   3.779   6.764
 5554POPC   C3B70377  42.338   3.797   7.064
 5554POPC   C4B70378  42.335   3.814   7.364
 5555POPC   NC370379  11.292  29.147   5.564
 5555POPC   PO470380  11.323  29.183   5.864
 5555POPC   GL170381  11.294  29.183   6.164
 5555POPC   GL270382  11.389  29.167   6.164
 5555POPC   C1A70383  11.306  29.110   6.464
 5555POPC   D2A70384  11.302  29.137   6.764
 5555POPC   C3A70385  11.263  29.141   7.064
 5555POPC   C4A70386  11.342  29.126   7.364
 5555POPC   C1B70387  11.534  29.300   6.464
 5555POPC   C2B70388  11.553  29.310   6.764
 5555POPC   C3B70389  11.534  29.229   7.064
 5555POPC   C4B70390  11.549  29.232   7.364
 5556POPC   NC370391  30.708  28.323   5.564
 5556POPC   PO470392  30.693  28.359   5.864
 5556POPC   GL170393  30.718  28.325   6.164
 5556POPC   GL270394  30.568  28.414   6.164
 5556POPC   C1A70395  30.689  28.376   6.464
 5556POPC   D2A70396  30.737  28.393   6.764
 5556POPC   C3A70397  30.663  28.403   7.064
 5556POPC   C4A70398  30.721  28.399   7.364
 5556POPC   C1B70399  30.497  28.483   6.464
 5556POPC   C2B70400  30.528  28.454   6.764
 5556POPC   C3B70401  30.519  28.489   7.064
 5556POPC   C4B70402  30.443  28.489   7.364
 5557POPC   NC370403   1.954  25.312   5.564
 5557POPC   PO470404   1.966  25.225   5.864
 5557POPC   GL170405   1.961  25.301   6.164
 5557POPC   GL270406   1.986  25.428   6.164
 5557POPC   C1A70407   1.990  25.291   6.464
 5557POPC   D2A70408   2.024  25.290   6.764
 5557POPC   C3A70409   2.005  25.294   7.064
 5557POPC   C4A70410   2.010  25.258   7.364
 5557POPC   C1B70411   2.058  25.538   6.464
 5557POPC   C2B70412   2.064  25.493   6.764
 5557POPC   C3B70413   2.044  25.539   7.064
 5557POPC   C4B70414   1.998  25.562   7.364
 5558POPC   NC370415  44.665  20.575   5.564
 5558POPC   PO470416  44.655  20.642   5.864
 5558POPC   GL170417  44.658  20.632   6.164
 5558POPC   GL270418  44.535  20.698   6.164
 5558POPC   C1A70419  44.642  20.596   6.464
 5558POPC   D2A70420  44.706  20.632   6.764
 5558POPC   C3A70421  44.698  20.603   7.064
 5558POPC   C4A70422  44.622  20.650   7.364
 5558POPC   C1B70423  44.478  20.721   6.464
 5558POPC   C2B70424  44.399  20.734   6.764
 5558POPC   C3B70425  44.442  20.725   7.064
 5558POPC   C4B70426  44.417  20.762   7.364
 5559POPC   NC370427  22.152  34.593   5.564
 5559POPC   PO470428  22.166  34.606   5.864
 5559POPC   GL170429  22.172  34.570   6.164
 5559POPC   GL270430  22.061  34.641   6.164
 5559POPC   C1A70431  22.112  34.579   6.464
 5559POPC   D2A70432  22.154  34.535   6.764
 5559POPC   C3A70433  22.190  34.609   7.064
 5559POPC   C4A70434  22.136  34.543   7.364
 5559POPC   C1B70435  21.895  34.735   6.464
 5559POPC   C2B70436  21.976  34.692   6.764
 5559POPC   C3B70437  21.905  34.726   7.064
 5559POPC   C4B70438  21.962  34.666   7.364
 5560POPC   NC370439  42.356  39.259   5.564
 5560POPC   PO470440  42.381  39.251   5.864
 5560POPC   GL170441  42.318  39.223   6.164
 5560POPC   GL270442  42.327  39.314   6.164
 5560POPC   C1A70443  42.343  39.257   6.464
 5560POPC   D2A70444  42.289  39.243   6.764
 5560POPC   C3A70445  42.306  39.220   7.064
 5560POPC   C4A70446  42.329  39.233   7.364
 5560POPC   C1B70447  42.248  39.437   6.464
 5560POPC   C2B70448  42.260  39.508   6.764
 5560POPC   C3B70449  42.282  39.437   7.064
 5560POPC   C4B70450  42.273  39.456   7.364
 5561POPC   NC370451  39.960   8.931   5.564
 5561POPC   PO470452  39.970   8.928   5.864
 5561POPC   GL170453  40.046   8.961   6.164
 5561POPC   GL270454  40.089   9.080   6.164
 5561POPC   C1A70455  40.032   8.983   6.464
 5561POPC   D2A70456  40.006   8.999   6.764
 5561POPC   C3A70457  39.989   8.957   7.064
 5561POPC   C4A70458  40.005   8.998   7.364
 5561POPC   C1B70459  40.107   9.224   6.464
 5561POPC   C2B70460  40.160   9.131   6.764
 5561POPC   C3B70461  40.142   9.210   7.064
 5561POPC   C4B70462  40.131   9.140   7.364
 5562POPC   NC370463   1.957  18.278   5.564
 5562POPC   PO470464   2.028  18.241   5.864
 5562POPC   GL170465   1.994  18.320   6.164
 5562POPC   GL270466   1.910  18.258   6.164
 5562POPC   C1A70467   2.002  18.303   6.464
 5562POPC   D2A70468   1.965  18.284   6.764
 5562POPC   C3A70469   2.034  18.306   7.064
 5562POPC   C4A70470   1.947  18.253   7.364
 5562POPC   C1B70471   1.791  18.186   6.464
 5562POPC   C2B70472   1.784  18.234   6.764
 5562POPC   C3B70473   1.726  18.221   7.064
 5562POPC   C4B70474   1.708  18.261   7.364
 5563POPC   NC370475   4.317  23.690   5.564
 5563POPC   PO470476   4.299  23.736   5.864
 5563POPC   GL170477   4.328  23.673   6.164
 5563POPC   GL270478   4.269  23.655   6.164
 5563POPC   C1A70479   4.365  23.747   6.464
 5563POPC   D2A70480   4.269  23.673   6.764
 5563POPC   C3A70481   4.322  23.722   7.064
 5563POPC   C4A70482   4.349  23.713   7.364
 5563POPC   C1B70483   4.120  23.479   6.464
 5563POPC   C2B70484   4.187  23.512   6.764
 5563POPC   C3B70485   4.152  23.490   7.064
 5563POPC   C4B70486   4.185  23.464   7.364
 5564POPC   NC370487  21.429  22.958   5.564
 5564POPC   PO470488  21.412  22.889   5.864
 5564POPC   GL170489  21.336  22.939   6.164
 5564POPC   GL270490  21.268  22.935   6.164
 5564POPC   C1A70491  21.355  22.959   6.464
 5564POPC   D2A70492  21.417  22.982   6.764
 5564POPC   C3A70493  21.369  22.913   7.064
 5564POPC   C4A70494  21.361  22.962   7.364
 5564POPC   C1B70495  21.118  22.891   6.464
 5564POPC   C2B70496  21.155  22.927   6.764
 5564POPC   C3B70497  21.168  22.928   7.064
 5564POPC   C4B70498  21.101  22.867   7.364
 5565POPC   NC370499  34.596   2.801   5.564
 5565POPC   PO470500  34.548   2.735   5.864
 5565POPC   GL170501  34.590   2.761   6.164
 5565POPC   GL270502  34.657   2.746   6.164
 5565POPC   C1A70503  34.621   2.724   6.464
 5565POPC   D2A70504  34.532   2.750   6.764
 5565POPC   C3A70505  34.531   2.727   7.064
 5565POPC   C4A70506  34.558   2.748   7.364
 5565POPC   C1B70507  34.796   2.760   6.464
 5565POPC   C2B70508  34.872   2.733   6.764
 5565POPC   C3B70509  34.793   2.742   7.064
 5565POPC   C4B70510  34.782   2.806   7.364
 5566POPC   NC370511  31.519  29.125   5.564
 5566POPC   PO470512  31.440  29.143   5.864
 5566POPC   GL170513  31.472  29.167   6.164
 5566POPC   GL270514  31.348  29.164   6.164
 5566POPC   C1A70515  31.504  29.137   6.464
 5566POPC   D2A70516  31.429  29.188   6.764
 5566POPC   C3A70517  31.475  29.142   7.064
 5566POPC   C4A70518  31.438  29.103   7.364
 5566POPC   C1B70519  31.271  29.219   6.464
 5566POPC   C2B70520  31.195  29.165   6.764
 5566POPC   C3B70521  31.234  29.156   7.064
 5566POPC   C4B70522  31.223  29.151   7.364
 5567POPC   NC370523  12.063  19.084   5.564
 5567POPC   PO470524  12.116  19.083   5.864
 5567POPC   GL170525  12.094  19.090   6.164
 5567POPC   GL270526  12.234  19.054   6.164
 5567POPC   C1A70527  12.053  19.032   6.464
 5567POPC   D2A70528  12.080  19.066   6.764
 5567POPC   C3A70529  12.085  19.033   7.064
 5567POPC   C4A70530  12.070  19.081   7.364
 5567POPC   C1B70531  12.286  18.983   6.464
 5567POPC   C2B70532  12.328  19.022   6.764
 5567POPC   C3B70533  12.333  18.973   7.064
 5567POPC   C4B70534  12.284  18.927   7.364
 5568POPC   NC370535   5.900  24.519   5.564
 5568POPC   PO470536   5.822  24.457   5.864
 5568POPC   GL170537   5.909  24.478   6.164
 5568POPC   GL270538   5.715  24.511   6.164
 5568POPC   C1A70539   5.845  24.451   6.464
 5568POPC   D2A70540   5.837  24.455   6.764
 5568POPC   C3A70541   5.827  24.443   7.064
 5568POPC   C4A70542   5.831  24.467   7.364
 5568POPC   C1B70543   5.624  24.636   6.464
 5568POPC   C2B70544   5.591  24.577   6.764
 5568POPC   C3B70545   5.632  24.580   7.064
 5568POPC   C4B70546   5.646  24.579   7.364
 5569POPC   NC370547  18.292  12.112   5.564
 5569POPC   PO470548  18.300  12.122   5.864
 5569POPC   GL170549  18.238  12.079   6.164
 5569POPC   GL270550  18.168  12.029   6.164
 5569POPC   C1A70551  18.311  12.095   6.464
 5569POPC   D2A70552  18.261  12.045   6.764
 5569POPC   C3A70553  18.263  12.113   7.064
 5569POPC   C4A70554  18.310  12.108   7.364
 5569POPC   C1B70555  18.076  11.926   6.464
 5569POPC   C2B70556  18.067  11.989   6.764
 5569POPC   C3B70557  18.105  12.021   7.064
 5569POPC   C4B70558  18.096  12.010   7.364
 5570POPC   NC370559  17.473   4.332   5.564
 5570POPC   PO470560  17.478   4.344   5.864
 5570POPC   GL170561  17.487   4.304   6.164
 5570POPC   GL270562  17.651   4.286   6.164
 5570POPC   C1A70563  17.469   4.344   6.464
 5570POPC   D2A70564  17.502   4.338   6.764
 5570POPC   C3A70565  17.547   4.295   7.064
 5570POPC   C4A70566  17.538   4.318   7.364
 5570POPC   C1B70567  17.717   4.186   6.464
 5570POPC   C2B70568  17.741   4.198   6.764
 5570POPC   C3B70569  17.738   4.226   7.064
 5570POPC   C4B70570  17.741   4.207   7.364
 5571POPC   NC370571  22.985  39.195   5.564
 5571POPC   PO470572  22.947  39.207   5.864
 5571POPC   GL170573  22.980  39.249   6.164
 5571POPC   GL270574  22.987  39.307   6.164
 5571POPC   C1A70575  22.946  39.203   6.464
 5571POPC   D2A70576  22.935  39.207   6.764
 5571POPC   C3A70577  22.940  39.235   7.064
 5571POPC   C4A70578  22.971  39.226   7.364
 5571POPC   C1B70579  23.105  39.414   6.464
 5571POPC   C2B70580  23.111  39.445   6.764
 5571POPC   C3B70581  23.048  39.406   7.064
 5571POPC   C4B70582  23.069  39.441   7.364
 5572POPC   NC370583   3.495   5.115   5.564
 5572POPC   PO470584   3.548   5.058   5.864
 5572POPC   GL170585   3.523   5.136   6.164
 5572POPC   GL270586   3.512   4.978   6.164
 5572POPC   C1A70587   3.591   5.049   6.464
 5572POPC   D2A70588   3.521   5.106   6.764
 5572POPC   C3A70589   3.572   5.091   7.064
 5572POPC   C4A70590   3.546   5.142   7.364
 5572POPC   C1B70591   3.622   4.878   6.464
 5572POPC   C2B70592   3.616   4.888   6.764
 5572POPC   C3B70593   3.574   4.839   7.064
 5572POPC   C4B70594   3.531   4.854   7.364
 5573POPC   NC370595  36.155   5.113   5.564
 5573POPC   PO470596  36.084   5.077   5.864
 5573POPC   GL170597  36.112   5.079   6.164
 5573POPC   GL270598  36.199   5.081   6.164
 5573POPC   C1A70599  36.089   5.065   6.464
 5573POPC   D2A70600  36.146   5.090   6.764
 5573POPC   C3A70601  36.106   5.073   7.064
 5573POPC   C4A70602  36.176   5.113   7.364
 5573POPC   C1B70603  36.383   5.030   6.464
 5573POPC   C2B70604  36.394   5.033   6.764
 5573POPC   C3B70605  36.406   5.034   7.064
 5573POPC   C4B70606  36.418   5.066   7.364
 5574POPC   NC370607  36.864  26.784   5.564
 5574POPC   PO470608  36.934  26.786   5.864
 5574POPC   GL170609  36.860  26.777   6.164
 5574POPC   GL270610  36.919  26.653   6.164
 5574POPC   C1A70611  36.951  26.796   6.464
 5574POPC   D2A70612  36.882  26.846   6.764
 5574POPC   C3A70613  36.953  26.821   7.064
 5574POPC   C4A70614  36.892  26.848   7.364
 5574POPC   C1B70615  36.978  26.572   6.464
 5574POPC   C2B70616  37.013  26.625   6.764
 5574POPC   C3B70617  36.949  26.528   7.064
 5574POPC   C4B70618  36.973  26.578   7.364
 5575POPC   NC370619   2.756  26.071   5.564
 5575POPC   PO470620   2.768  26.001   5.864
 5575POPC   GL170621   2.774  26.053   6.164
 5575POPC   GL270622   2.850  26.185   6.164
 5575POPC   C1A70623   2.762  26.035   6.464
 5575POPC   D2A70624   2.796  26.031   6.764
 5575POPC   C3A70625   2.782  26.089   7.064
 5575POPC   C4A70626   2.759  26.088   7.364
 5575POPC   C1B70627   2.881  26.271   6.464
 5575POPC   C2B70628   2.936  26.286   6.764
 5575POPC   C3B70629   2.906  26.263   7.064
 5575POPC   C4B70630   2.869  26.268   7.364
 5576POPC   NC370631  12.856  32.985   5.564
 5576POPC   PO470632  12.824  33.072   5.864
 5576POPC   GL170633  12.861  33.014   6.164
 5576POPC   GL270634  12.749  32.889   6.164
 5576POPC   C1A70635  12.856  33.012   6.464
 5576POPC   D2A70636  12.848  33.049   6.764
 5576POPC   C3A70637  12.852  33.065   7.064
 5576POPC   C4A70638  12.853  33.017   7.364
 5576POPC   C1B70639  12.730  32.864   6.464
 5576POPC   C2B70640  12.734  32.816   6.764
 5576POPC   C3B70641  12.708  32.824   7.064
 5576POPC   C4B70642  12.736  32.799   7.364
 5577POPC   NC370643  19.032  15.928   5.564
 5577POPC   PO470644  19.035  15.907   5.864
 5577POPC   GL170645  19.009  15.915   6.164
 5577POPC   GL270646  19.106  15.857   6.164
 5577POPC   C1A70647  19.009  15.983   6.464
 5577POPC   D2A70648  19.098  15.938   6.764
 5577POPC   C3A70649  19.106  15.928   7.064
 5577POPC   C4A70650  19.016  15.913   7.364
 5577POPC   C1B70651  19.084  15.673   6.464
 5577POPC   C2B70652  19.105  15.675   6.764
 5577POPC   C3B70653  19.063  15.742   7.064
 5577POPC   C4B70654  19.080  15.683   7.364
 5578POPC   NC370655  14.432  36.938   5.564
 5578POPC   PO470656  14.413  36.951   5.864
 5578POPC   GL170657  14.436  36.921   6.164
 5578POPC   GL270658  14.409  36.755   6.164
 5578POPC   C1A70659  14.431  36.920   6.464
 5578POPC   D2A70660  14.447  36.886   6.764
 5578POPC   C3A70661  14.420  36.953   7.064
 5578POPC   C4A70662  14.413  36.889   7.364
 5578POPC   C1B70663  14.480  36.649   6.464
 5578POPC   C2B70664  14.527  36.693   6.764
 5578POPC   C3B70665  14.544  36.685   7.064
 5578POPC   C4B70666  14.515  36.657   7.364
 5579POPC   NC370667  19.809  36.102   5.564
 5579POPC   PO470668  19.836  36.126   5.864
 5579POPC   GL170669  19.862  36.095   6.164
 5579POPC   GL270670  19.746  36.181   6.164
 5579POPC   C1A70671  19.791  36.094   6.464
 5579POPC   D2A70672  19.882  36.164   6.764
 5579POPC   C3A70673  19.815  36.162   7.064
 5579POPC   C4A70674  19.824  36.089   7.364
 5579POPC   C1B70675  19.547  36.189   6.464
 5579POPC   C2B70676  19.580  36.223   6.764
 5579POPC   C3B70677  19.625  36.232   7.064
 5579POPC   C4B70678  19.546  36.195   7.364
 5580POPC   NC370679  19.031  32.245   5.564
 5580POPC   PO470680  19.104  32.256   5.864
 5580POPC   GL170681  19.063  32.217   6.164
 5580POPC   GL270682  19.092  32.333   6.164
 5580POPC   C1A70683  19.075  32.204   6.464
 5580POPC   D2A70684  19.025  32.205   6.764
 5580POPC   C3A70685  19.010  32.268   7.064
 5580POPC   C4A70686  19.028  32.282   7.364
 5580POPC   C1B70687  19.124  32.478   6.464
 5580POPC   C2B70688  19.160  32.474   6.764
 5580POPC   C3B70689  19.164  32.478   7.064
 5580POPC   C4B70690  19.094  32.461   7.364
 5581POPC   NC370691  29.192  19.855   5.564
 5581POPC   PO470692  29.164  19.806   5.864
 5581POPC   GL170693  29.118  19.870   6.164
 5581POPC   GL270694  29.287  19.781   6.164
 5581POPC   C1A70695  29.125  19.840   6.464
 5581POPC   D2A70696  29.124  19.870   6.764
 5581POPC   C3A70697  29.151  19.875   7.064
 5581POPC   C4A70698  29.192  19.819   7.364
 5581POPC   C1B70699  29.360  19.730   6.464
 5581POPC   C2B70700  29.413  19.695   6.764
 5581POPC   C3B70701  29.363  19.698   7.064
 5581POPC   C4B70702  29.345  19.760   7.364
 5582POPC   NC370703  29.160  37.662   5.564
 5582POPC   PO470704  29.098  37.699   5.864
 5582POPC   GL170705  29.189  37.642   6.164
 5582POPC   GL270706  29.064  37.699   6.164
 5582POPC   C1A70707  29.112  37.683   6.464
 5582POPC   D2A70708  29.128  37.654   6.764
 5582POPC   C3A70709  29.150  37.729   7.064
 5582POPC   C4A70710  29.193  37.667   7.364
 5582POPC   C1B70711  28.957  37.797   6.464
 5582POPC   C2B70712  28.924  37.821   6.764
 5582POPC   C3B70713  28.949  37.772   7.064
 5582POPC   C4B70714  28.889  37.760   7.364
 5583POPC   NC370715  27.610  11.324   5.564
 5583POPC   PO470716  27.634  11.336   5.864
 5583POPC   GL170717  27.595  11.257   6.164
 5583POPC   GL270718  27.480  11.235   6.164
 5583POPC   C1A70719  27.581  11.307   6.464
 5583POPC   D2A70720  27.601  11.255   6.764
 5583POPC   C3A70721  27.556  11.287   7.064
 5583POPC   C4A70722  27.604  11.270   7.364
 5583POPC   C1B70723  27.347  11.134   6.464
 5583POPC   C2B70724  27.371  11.134   6.764
 5583POPC   C3B70725  27.390  11.172   7.064
 5583POPC   C4B70726  27.418  11.159   7.364
 5584POPC   NC370727  23.738  38.408   5.564
 5584POPC   PO470728  23.760  38.473   5.864
 5584POPC   GL170729  23.752  38.422   6.164
 5584POPC   GL270730  23.782  38.516   6.164
 5584POPC   C1A70731  23.713  38.431   6.464
 5584POPC   D2A70732  23.753  38.409   6.764
 5584POPC   C3A70733  23.723  38.500   7.064
 5584POPC   C4A70734  23.708  38.410   7.364
 5584POPC   C1B70735  23.928  38.624   6.464
 5584POPC   C2B70736  23.926  38.594   6.764
 5584POPC   C3B70737  23.901  38.671   7.064
 5584POPC   C4B70738  23.914  38.641   7.364
 5585POPC   NC370739  32.268  26.865   5.564
 5585POPC   PO470740  32.291  26.813   5.864
 5585POPC   GL170741  32.289  26.839   6.164
 5585POPC   GL270742  32.375  26.772   6.164
 5585POPC   C1A70743  32.208  26.842   6.464
 5585POPC   D2A70744  32.272  26.822   6.764
 5585POPC   C3A70745  32.199  26.837   7.064
 5585POPC   C4A70746  32.216  26.782   7.364
 5585POPC   C1B70747  32.546  26.838   6.464
 5585POPC   C2B70748  32.517  26.761   6.764
 5585POPC   C3B70749  32.478  26.760   7.064
 5585POPC   C4B70750  32.528  26.819   7.364
 5586POPC   NC370751  41.594   5.895   5.564
 5586POPC   PO470752  41.526   5.864   5.864
 5586POPC   GL170753  41.560   5.840   6.164
 5586POPC   GL270754  41.438   5.864   6.164
 5586POPC   C1A70755  41.578   5.885   6.464
 5586POPC   D2A70756  41.608   5.831   6.764
 5586POPC   C3A70757  41.589   5.872   7.064
 5586POPC   C4A70758  41.534   5.826   7.364
 5586POPC   C1B70759  41.320   5.906   6.464
 5586POPC   C2B70760  41.324   5.868   6.764
 5586POPC   C3B70761  41.290   5.918   7.064
 5586POPC   C4B70762  41.319   5.877   7.364
 5587POPC   NC370763   5.824  36.935   5.564
 5587POPC   PO470764   5.833  36.856   5.864
 5587POPC   GL170765   5.820  36.933   6.164
 5587POPC   GL270766   5.774  37.018   6.164
 5587POPC   C1A70767   5.885  36.890   6.464
 5587POPC   D2A70768   5.871  36.872   6.764
 5587POPC   C3A70769   5.855  36.876   7.064
 5587POPC   C4A70770   5.858  36.861   7.364
 5587POPC   C1B70771   5.705  37.149   6.464
 5587POPC   C2B70772   5.715  37.090   6.764
 5587POPC   C3B70773   5.716  37.156   7.064
 5587POPC   C4B70774   5.728  37.136   7.364
 5588POPC   NC370775  27.609  26.032   5.564
 5588POPC   PO470776  27.565  26.082   5.864
 5588POPC   GL170777  27.595  26.036   6.164
 5588POPC   GL270778  27.491  25.987   6.164
 5588POPC   C1A70779  27.568  26.066   6.464
 5588POPC   D2A70780  27.562  26.017   6.764
 5588POPC   C3A70781  27.582  26.056   7.064
 5588POPC   C4A70782  27.633  26.062   7.364
 5588POPC   C1B70783  27.403  25.921   6.464
 5588POPC   C2B70784  27.388  25.877   6.764
 5588POPC   C3B70785  27.425  25.927   7.064
 5588POPC   C4B70786  27.362  25.927   7.364
 5589POPC   NC370787  40.007  22.126   5.564
 5589POPC   PO470788  39.981  22.151   5.864
 5589POPC   GL170789  40.007  22.204   6.164
 5589POPC   GL270790  40.177  22.161   6.164
 5589POPC   C1A70791  39.997  22.206   6.464
 5589POPC   D2A70792  40.047  22.162   6.764
 5589POPC   C3A70793  40.036  22.201   7.064
 5589POPC   C4A70794  40.044  22.125   7.364
 5589POPC   C1B70795  40.244  22.168   6.464
 5589POPC   C2B70796  40.213  22.255   6.764
 5589POPC   C3B70797  40.224  22.176   7.064
 5589POPC   C4B70798  40.260  22.195   7.364
 5590POPC   NC370799  31.448   4.341   5.564
 5590POPC   PO470800  31.459   4.276   5.864
 5590POPC   GL170801  31.505   4.345   6.164
 5590POPC   GL270802  31.366   4.269   6.164
 5590POPC   C1A70803  31.457   4.307   6.464
 5590POPC   D2A70804  31.465   4.310   6.764
 5590POPC   C3A70805  31.457   4.329   7.064
 5590POPC   C4A70806  31.431   4.325   7.364
 5590POPC   C1B70807  31.251   4.239   6.464
 5590POPC   C2B70808  31.195   4.214   6.764
 5590POPC   C3B70809  31.241   4.254   7.064
 5590POPC   C4B70810  31.197   4.233   7.364
 5591POPC   NC370811  43.853  12.034   5.564
 5591POPC   PO470812  43.879  12.041   5.864
 5591POPC   GL170813  43.906  12.030   6.164
 5591POPC   GL270814  43.853  12.210   6.164
 5591POPC   C1A70815  43.919  12.122   6.464
 5591POPC   D2A70816  43.876  12.110   6.764
 5591POPC   C3A70817  43.838  12.062   7.064
 5591POPC   C4A70818  43.863  12.041   7.364
 5591POPC   C1B70819  43.742  12.310   6.464
 5591POPC   C2B70820  43.723  12.264   6.764
 5591POPC   C3B70821  43.753  12.281   7.064
 5591POPC   C4B70822  43.738  12.299   7.364
 5592POPC   NC370823  35.306  19.056   5.564
 5592POPC   PO470824  35.306  19.085   5.864
 5592POPC   GL170825  35.359  19.072   6.164
 5592POPC   GL270826  35.433  19.188   6.164
 5592POPC   C1A70827  35.396  19.102   6.464
 5592POPC   D2A70828  35.323  19.079   6.764
 5592POPC   C3A70829  35.365  19.066   7.064
 5592POPC   C4A70830  35.369  19.050   7.364
 5592POPC   C1B70831  35.549  19.243   6.464
 5592POPC   C2B70832  35.516  19.201   6.764
 5592POPC   C3B70833  35.564  19.271   7.064
 5592POPC   C4B70834  35.496  19.272   7.364
 5593POPC   NC370835  13.594  35.370   5.564
 5593POPC   PO470836  13.603  35.381   5.864
 5593POPC   GL170837  13.646  35.376   6.164
 5593POPC   GL270838  13.711  35.485   6.164
 5593POPC   C1A70839  13.600  35.341   6.464
 5593POPC   D2A70840  13.676  35.307   6.764
 5593POPC   C3A70841  13.648  35.354   7.064
 5593POPC   C4A70842  13.603  35.375   7.364
 5593POPC   C1B70843  13.708  35.574   6.464
 5593POPC   C2B70844  13.746  35.546   6.764
 5593POPC   C3B70845  13.753  35.598   7.064
 5593POPC   C4B70846  13.785  35.609   7.364
 5594POPC   NC370847  32.250  11.253   5.564
 5594POPC   PO470848  32.230  11.316   5.864
 5594POPC   GL170849  32.274  11.340   6.164
 5594POPC   GL270850  32.193  11.397   6.164
 5594POPC   C1A70851  32.254  11.306   6.464
 5594POPC   D2A70852  32.245  11.310   6.764
 5594POPC   C3A70853  32.278  11.344   7.064
 5594POPC   C4A70854  32.263  11.328   7.364
 5594POPC   C1B70855  32.169  11.563   6.464
 5594POPC   C2B70856  32.110  11.473   6.764
 5594POPC   C3B70857  32.139  11.545   7.064
 5594POPC   C4B70858  32.100  11.548   7.364
 5595POPC   NC370859   8.995   5.106   5.564
 5595POPC   PO470860   8.983   5.065   5.864
 5595POPC   GL170861   9.014   5.108   6.164
 5595POPC   GL270862   8.994   4.929   6.164
 5595POPC   C1A70863   8.998   5.137   6.464
 5595POPC   D2A70864   9.020   5.124   6.764
 5595POPC   C3A70865   9.004   5.132   7.064
 5595POPC   C4A70866   9.004   5.085   7.364
 5595POPC   C1B70867   8.923   4.899   6.464
 5595POPC   C2B70868   8.917   4.868   6.764
 5595POPC   C3B70869   8.922   4.886   7.064
 5595POPC   C4B70870   8.899   4.820   7.364
 5596POPC   NC370871  28.386  30.654   5.564
 5596POPC   PO470872  28.400  30.688   5.864
 5596POPC   GL170873  28.345  30.677   6.164
 5596POPC   GL270874  28.497  30.748   6.164
 5596POPC   C1A70875  28.397  30.704   6.464
 5596POPC   D2A70876  28.403  30.714   6.764
 5596POPC   C3A70877  28.386  30.684   7.064
 5596POPC   C4A70878  28.379  30.681   7.364
 5596POPC   C1B70879  28.559  30.829   6.464
 5596POPC   C2B70880  28.576  30.803   6.764
 5596POPC   C3B70881  28.598  30.879   7.064
 5596POPC   C4B70882  28.527  30.860   7.364
 5597POPC   NC370883  36.898  22.938   5.564
 5597POPC   PO470884  36.896  22.926   5.864
 5597POPC   GL170885  36.892  22.935   6.164
 5597POPC   GL270886  36.837  23.046   6.164
 5597POPC   C1A70887  36.934  22.930   6.464
 5597POPC   D2A70888  36.946  22.913   6.764
 5597POPC   C3A70889  36.881  22.947   7.064
 5597POPC   C4A70890  36.948  22.895   7.364
 5597POPC   C1B70891  36.915  23.201   6.464
 5597POPC   C2B70892  36.818  23.159   6.764
 5597POPC   C3B70893  36.918  23.231   7.064
 5597POPC   C4B70894  36.891  23.158   7.364
 5598POPC   NC370895  28.417  12.038   5.564
 5598POPC   PO470896  28.320  12.073   5.864
 5598POPC   GL170897  28.340  12.073   6.164
 5598POPC   GL270898  28.480  12.065   6.164
 5598POPC   C1A70899  28.379  12.045   6.464
 5598POPC   D2A70900  28.382  12.108   6.764
 5598POPC   C3A70901  28.340  12.053   7.064
 5598POPC   C4A70902  28.369  12.098   7.364
 5598POPC   C1B70903  28.634  12.000   6.464
 5598POPC   C2B70904  28.581  12.023   6.764
 5598POPC   C3B70905  28.633  12.011   7.064
 5598POPC   C4B70906  28.625  11.953   7.364
 5599POPC   NC370907  30.678  15.224   5.564
 5599POPC   PO470908  30.706  15.221   5.864
 5599POPC   GL170909  30.661  15.140   6.164
 5599POPC   GL270910  30.621  15.306   6.164
 5599POPC   C1A70911  30.671  15.217   6.464
 5599POPC   D2A70912  30.666  15.219   6.764
 5599POPC   C3A70913  30.660  15.164   7.064
 5599POPC   C4A70914  30.720  15.192   7.364
 5599POPC   C1B70915  30.511  15.347   6.464
 5599POPC   C2B70916  30.577  15.381   6.764
 5599POPC   C3B70917  30.574  15.366   7.064
 5599POPC   C4B70918  30.506  15.361   7.364
 5600POPC   NC370919   8.216  43.082   5.564
 5600POPC   PO470920   8.219  43.155   5.864
 5600POPC   GL170921   8.196  43.154   6.164
 5600POPC   GL270922   8.115  43.152   6.164
 5600POPC   C1A70923   8.225  43.145   6.464
 5600POPC   D2A70924   8.147  43.157   6.764
 5600POPC   C3A70925   8.163  43.107   7.064
 5600POPC   C4A70926   8.205  43.124   7.364
 5600POPC   C1B70927   7.995  43.203   6.464
 5600POPC   C2B70928   8.031  43.248   6.764
 5600POPC   C3B70929   7.949  43.262   7.064
 5600POPC   C4B70930   7.946  43.262   7.364
 5601POPC   NC370931  38.492  19.804   5.564
 5601POPC   PO470932  38.439  19.872   5.864
 5601POPC   GL170933  38.446  19.870   6.164
 5601POPC   GL270934  38.459  19.910   6.164
 5601POPC   C1A70935  38.415  19.837   6.464
 5601POPC   D2A70936  38.405  19.803   6.764
 5601POPC   C3A70937  38.477  19.856   7.064
 5601POPC   C4A70938  38.413  19.863   7.364
 5601POPC   C1B70939  38.544  20.114   6.464
 5601POPC   C2B70940  38.498  20.106   6.764
 5601POPC   C3B70941  38.495  20.037   7.064
 5601POPC   C4B70942  38.534  20.048   7.364
 5602POPC   NC370943  41.581  34.612   5.564
 5602POPC   PO470944  41.527  34.569   5.864
 5602POPC   GL170945  41.541  34.578   6.164
 5602POPC   GL270946  41.466  34.731   6.164
 5602POPC   C1A70947  41.602  34.617   6.464
 5602POPC   D2A70948  41.585  34.547   6.764
 5602POPC   C3A70949  41.559  34.548   7.064
 5602POPC   C4A70950  41.515  34.537   7.364
 5602POPC   C1B70951  41.493  34.816   6.464
 5602POPC   C2B70952  41.427  34.760   6.764
 5602POPC   C3B70953  41.396  34.794   7.064
 5602POPC   C4B70954  41.449  34.767   7.364
 5603POPC   NC370955  23.712   6.610   5.564
 5603POPC   PO470956  23.672   6.602   5.864
 5603POPC   GL170957  23.705   6.601   6.164
 5603POPC   GL270958  23.594   6.754   6.164
 5603POPC   C1A70959  23.729   6.684   6.464
 5603POPC   D2A70960  23.743   6.680   6.764
 5603POPC   C3A70961  23.730   6.683   7.064
 5603POPC   C4A70962  23.672   6.663   7.364
 5603POPC   C1B70963  23.546   6.805   6.464
 5603POPC   C2B70964  23.533   6.774   6.764
 5603POPC   C3B70965  23.535   6.733   7.064
 5603POPC   C4B70966  23.482   6.770   7.364
 5604POPC   NC370967  32.249  17.469   5.564
 5604POPC   PO470968  32.284  17.528   5.864
 5604POPC   GL170969  32.258  17.511   6.164
 5604POPC   GL270970  32.369  17.410   6.164
 5604POPC   C1A70971  32.212  17.525   6.464
 5604POPC   D2A70972  32.250  17.553   6.764
 5604POPC   C3A70973  32.244  17.467   7.064
 5604POPC   C4A70974  32.209  17.507   7.364
 5604POPC   C1B70975  32.485  17.351   6.464
 5604POPC   C2B70976  32.427  17.335   6.764
 5604POPC   C3B70977  32.435  17.370   7.064
 5604POPC   C4B70978  32.442  17.410   7.364
 5605POPC   NC370979  33.772  22.162   5.564
 5605POPC   PO470980  33.849  22.196   5.864
 5605POPC   GL170981  33.771  22.195   6.164
 5605POPC   GL270982  33.757  22.071   6.164
 5605POPC   C1A70983  33.798  22.202   6.464
 5605POPC   D2A70984  33.777  22.198   6.764
 5605POPC   C3A70985  33.791  22.194   7.064
 5605POPC   C4A70986  33.776  22.139   7.364
 5605POPC   C1B70987  33.700  21.932   6.464
 5605POPC   C2B70988  33.742  21.904   6.764
 5605POPC   C3B70989  33.765  21.876   7.064
 5605POPC   C4B70990  33.723  21.902   7.364
 5606POPC   NC370991  40.761   1.984   5.564
 5606POPC   PO470992  40.783   1.982   5.864
 5606POPC   GL170993  40.790   2.010   6.164
 5606POPC   GL270994  40.738   1.818   6.164
 5606POPC   C1A70995  40.776   2.037   6.464
 5606POPC   D2A70996  40.747   1.960   6.764
 5606POPC   C3A70997  40.783   2.011   7.064
 5606POPC   C4A70998  40.787   1.960   7.364
 5606POPC   C1B70999  40.709   1.757   6.464
 5606POPC   C2B71000  40.776   1.696   6.764
 5606POPC   C3B71001  40.716   1.759   7.064
 5606POPC   C4B71002  40.783   1.790   7.364
 5607POPC   NC371003  34.573  37.695   5.564
 5607POPC   PO471004  34.593  37.704   5.864
 5607POPC   GL171005  34.551  37.706   6.164
 5607POPC   GL271006  34.430  37.765   6.164
 5607POPC   C1A71007  34.617  37.638   6.464
 5607POPC   D2A71008  34.530  37.679   6.764
 5607POPC   C3A71009  34.570  37.701   7.064
 5607POPC   C4A71010  34.601  37.721   7.364
 5607POPC   C1B71011  34.343  37.788   6.464
 5607POPC   C2B71012  34.300  37.797   6.764
 5607POPC   C3B71013  34.316  37.748   7.064
 5607POPC   C4B71014  34.393  37.746   7.364
 5608POPC   NC371015   6.637   8.234   5.564
 5608POPC   PO471016   6.639   8.241   5.864
 5608POPC   GL171017   6.652   8.221   6.164
 5608POPC   GL271018   6.618   8.089   6.164
 5608POPC   C1A71019   6.693   8.168   6.464
 5608POPC   D2A71020   6.682   8.196   6.764
 5608POPC   C3A71021   6.615   8.203   7.064
 5608POPC   C4A71022   6.670   8.160   7.364
 5608POPC   C1B71023   6.517   7.998   6.464
 5608POPC   C2B71024   6.535   8.018   6.764
 5608POPC   C3B71025   6.500   8.008   7.064
 5608POPC   C4B71026   6.505   7.974   7.364
 5609POPC   NC371027  40.805  44.686   5.564
 5609POPC   PO471028  40.804  44.636   5.864
 5609POPC   GL171029  40.823  44.665   6.164
 5609POPC   GL271030  40.800  44.499   6.164
 5609POPC   C1A71031  40.744  44.698   6.464
 5609POPC   D2A71032  40.817  44.640   6.764
 5609POPC   C3A71033  40.772  44.638   7.064
 5609POPC   C4A71034  40.797  44.620   7.364
 5609POPC   C1B71035  40.759  44.450   6.464
 5609POPC   C2B71036  40.803  44.431   6.764
 5609POPC   C3B71037  40.806  44.440   7.064
 5609POPC   C4B71038  40.790  44.418   7.364
 5610POPC   NC371039  30.673  17.487   5.564
 5610POPC   PO471040  30.663  17.497   5.864
 5610POPC   GL171041  30.685  17.525   6.164
 5610POPC   GL271042  30.691  17.354   6.164
 5610POPC   C1A71043  30.716  17.513   6.464
 5610POPC   D2A71044  30.703  17.513   6.764
 5610POPC   C3A71045  30.695  17.494   7.064
 5610POPC   C4A71046  30.662  17.550   7.364
 5610POPC   C1B71047  30.763  17.308   6.464
 5610POPC   C2B71048  30.768  17.234   6.764
 5610POPC   C3B71049  30.685  17.241   7.064
 5610POPC   C4B71050  30.763  17.262   7.364
 5611POPC   NC371051  15.175   8.243   5.564
 5611POPC   PO471052  15.168   8.195   5.864
 5611POPC   GL171053  15.164   8.211   6.164
 5611POPC   GL271054  15.153   8.048   6.164
 5611POPC   C1A71055  15.209   8.244   6.464
 5611POPC   D2A71056  15.184   8.147   6.764
 5611POPC   C3A71057  15.188   8.240   7.064
 5611POPC   C4A71058  15.216   8.212   7.364
 5611POPC   C1B71059  15.137   7.986   6.464
 5611POPC   C2B71060  15.153   7.967   6.764
 5611POPC   C3B71061  15.136   7.994   7.064
 5611POPC   C4B71062  15.172   7.900   7.364
 5612POPC   NC371063  12.830  11.349   5.564
 5612POPC   PO471064  12.820  11.256   5.864
 5612POPC   GL171065  12.868  11.295   6.164
 5612POPC   GL271066  12.942  11.249   6.164
 5612POPC   C1A71067  12.899  11.313   6.464
 5612POPC   D2A71068  12.830  11.297   6.764
 5612POPC   C3A71069  12.807  11.340   7.064
 5612POPC   C4A71070  12.859  11.324   7.364
 5612POPC   C1B71071  13.068  11.205   6.464
 5612POPC   C2B71072  13.043  11.226   6.764
 5612POPC   C3B71073  13.052  11.191   7.064
 5612POPC   C4B71074  13.107  11.199   7.364
 5613POPC   NC371075  38.495  28.397   5.564
 5613POPC   PO471076  38.494  28.336   5.864
 5613POPC   GL171077  38.444  28.324   6.164
 5613POPC   GL271078  38.349  28.299   6.164
 5613POPC   C1A71079  38.450  28.358   6.464
 5613POPC   D2A71080  38.468  28.352   6.764
 5613POPC   C3A71081  38.494  28.415   7.064
 5613POPC   C4A71082  38.500  28.379   7.364
 5613POPC   C1B71083  38.249  28.205   6.464
 5613POPC   C2B71084  38.279  28.180   6.764
 5613POPC   C3B71085  38.253  28.182   7.064
 5613POPC   C4B71086  38.321  28.145   7.364
 5614POPC   NC371087  35.334  11.317   5.564
 5614POPC   PO471088  35.344  11.301   5.864
 5614POPC   GL171089  35.396  11.262   6.164
 5614POPC   GL271090  35.380  11.379   6.164
 5614POPC   C1A71091  35.372  11.340   6.464
 5614POPC   D2A71092  35.365  11.297   6.764
 5614POPC   C3A71093  35.386  11.252   7.064
 5614POPC   C4A71094  35.358  11.305   7.364
 5614POPC   C1B71095  35.385  11.535   6.464
 5614POPC   C2B71096  35.460  11.541   6.764
 5614POPC   C3B71097  35.390  11.531   7.064
 5614POPC   C4B71098  35.382  11.579   7.364
 5615POPC   NC371099  21.434  40.734   5.564
 5615POPC   PO471100  21.344  40.825   5.864
 5615POPC   GL171101  21.381  40.829   6.164
 5615POPC   GL271102  21.458  40.825   6.164
 5615POPC   C1A71103  21.348  40.818   6.464
 5615POPC   D2A71104  21.369  40.798   6.764
 5615POPC   C3A71105  21.420  40.812   7.064
 5615POPC   C4A71106  21.342  40.762   7.364
 5615POPC   C1B71107  21.558  40.942   6.464
 5615POPC   C2B71108  21.615  40.973   6.764
 5615POPC   C3B71109  21.619  40.926   7.064
 5615POPC   C4B71110  21.572  40.982   7.364
 5616POPC   NC371111  29.146  31.498   5.564
 5616POPC   PO471112  29.139  31.458   5.864
 5616POPC   GL171113  29.125  31.449   6.164
 5616POPC   GL271114  28.996  31.384   6.164
 5616POPC   C1A71115  29.125  31.427   6.464
 5616POPC   D2A71116  29.164  31.479   6.764
 5616POPC   C3A71117  29.192  31.498   7.064
 5616POPC   C4A71118  29.181  31.497   7.364
 5616POPC   C1B71119  28.945  31.424   6.464
 5616POPC   C2B71120  28.923  31.431   6.764
 5616POPC   C3B71121  28.891  31.383   7.064
 5616POPC   C4B71122  28.922  31.386   7.364
 5617POPC   NC371123   1.233   5.842   5.564
 5617POPC   PO471124   1.172   5.878   5.864
 5617POPC   GL171125   1.168   5.912   6.164
 5617POPC   GL271126   1.278   5.799   6.164
 5617POPC   C1A71127   1.211   5.898   6.464
 5617POPC   D2A71128   1.171   5.853   6.764
 5617POPC   C3A71129   1.252   5.880   7.064
 5617POPC   C4A71130   1.201   5.852   7.364
 5617POPC   C1B71131   1.319   5.623   6.464
 5617POPC   C2B71132   1.359   5.695   6.764
 5617POPC   C3B71133   1.340   5.690   7.064
 5617POPC   C4B71134   1.343   5.683   7.364
 5618POPC   NC371135  24.455  15.214   5.564
 5618POPC   PO471136  24.517  15.201   5.864
 5618POPC   GL171137  24.456  15.144   6.164
 5618POPC   GL271138  24.383  15.123   6.164
 5618POPC   C1A71139  24.528  15.131   6.464
 5618POPC   D2A71140  24.465  15.162   6.764
 5618POPC   C3A71141  24.533  15.179   7.064
 5618POPC   C4A71142  24.487  15.139   7.364
 5618POPC   C1B71143  24.210  15.154   6.464
 5618POPC   C2B71144  24.207  15.147   6.764
 5618POPC   C3B71145  24.207  15.139   7.064
 5618POPC   C4B71146  24.279  15.100   7.364
 5619POPC   NC371147  33.048   1.249   5.564
 5619POPC   PO471148  33.011   1.165   5.864
 5619POPC   GL171149  32.985   1.187   6.164
 5619POPC   GL271150  32.977   1.133   6.164
 5619POPC   C1A71151  33.007   1.228   6.464
 5619POPC   D2A71152  33.052   1.185   6.764
 5619POPC   C3A71153  33.004   1.192   7.064
 5619POPC   C4A71154  33.026   1.249   7.364
 5619POPC   C1B71155  32.947   0.941   6.464
 5619POPC   C2B71156  33.020   0.995   6.764
 5619POPC   C3B71157  32.963   1.000   7.064
 5619POPC   C4B71158  32.944   0.980   7.364
 5620POPC   NC371159  19.018  33.038   5.564
 5620POPC   PO471160  19.023  33.007   5.864
 5620POPC   GL171161  19.060  33.007   6.164
 5620POPC   GL271162  19.175  32.883   6.164
 5620POPC   C1A71163  19.051  32.996   6.464
 5620POPC   D2A71164  19.085  33.008   6.764
 5620POPC   C3A71165  19.013  33.045   7.064
 5620POPC   C4A71166  19.015  32.982   7.364
 5620POPC   C1B71167  19.205  32.828   6.464
 5620POPC   C2B71168  19.165  32.846   6.764
 5620POPC   C3B71169  19.171  32.797   7.064
 5620POPC   C4B71170  19.180  32.855   7.364
 5621POPC   NC371171  44.668  40.023   5.564
 5621POPC   PO471172  44.617  39.986   5.864
 5621POPC   GL171173  44.678  39.958   6.164
 5621POPC   GL271174  44.558  40.112   6.164
 5621POPC   C1A71175  44.633  40.046   6.464
 5621POPC   D2A71176  44.695  40.041   6.764
 5621POPC   C3A71177  44.674  39.969   7.064
 5621POPC   C4A71178  44.654  39.983   7.364
 5621POPC   C1B71179  44.541  40.254   6.464
 5621POPC   C2B71180  44.587  40.193   6.764
 5621POPC   C3B71181  44.547  40.275   7.064
 5621POPC   C4B71182  44.585  40.241   7.364
 5622POPC   NC371183  39.989  32.296   5.564
 5622POPC   PO471184  40.051  32.285   5.864
 5622POPC   GL171185  40.043  32.262   6.164
 5622POPC   GL271186  40.092  32.343   6.164
 5622POPC   C1A71187  39.982  32.278   6.464
 5622POPC   D2A71188  40.055  32.229   6.764
 5622POPC   C3A71189  39.993  32.210   7.064
 5622POPC   C4A71190  39.981  32.206   7.364
 5622POPC   C1B71191  40.206  32.417   6.464
 5622POPC   C2B71192  40.232  32.403   6.764
 5622POPC   C3B71193  40.215  32.415   7.064
 5622POPC   C4B71194  40.215  32.416   7.364
 5623POPC   NC371195  43.066   5.129   5.564
 5623POPC   PO471196  43.106   5.066   5.864
 5623POPC   GL171197  43.064   5.084   6.164
 5623POPC   GL271198  43.242   5.050   6.164
 5623POPC   C1A71199  43.146   5.090   6.464
 5623POPC   D2A71200  43.070   5.071   6.764
 5623POPC   C3A71201  43.103   5.050   7.064
 5623POPC   C4A71202  43.116   5.066   7.364
 5623POPC   C1B71203  43.316   5.113   6.464
 5623POPC   C2B71204  43.315   5.101   6.764
 5623POPC   C3B71205  43.398   5.108   7.064
 5623POPC   C4B71206  43.370   5.040   7.364
 5624POPC   NC371207  33.761  33.829   5.564
 5624POPC   PO471208  33.767  33.766   5.864
 5624POPC   GL171209  33.849  33.793   6.164
 5624POPC   GL271210  33.712  33.758   6.164
 5624POPC   C1A71211  33.836  33.775   6.464
 5624POPC   D2A71212  33.788  33.795   6.764
 5624POPC   C3A71213  33.792  33.820   7.064
 5624POPC   C4A71214  33.799  33.804   7.364
 5624POPC   C1B71215  33.565  33.710   6.464
 5624POPC   C2B71216  33.518  33.676   6.764
 5624POPC   C3B71217  33.589  33.670   7.064
 5624POPC   C4B71218  33.597  33.747   7.364
 5625POPC   NC371219  18.249  22.164   5.564
 5625POPC   PO471220  18.243  22.158   5.864
 5625POPC   GL171221  18.235  22.195   6.164
 5625POPC   GL271222  18.357  22.223   6.164
 5625POPC   C1A71223  18.311  22.134   6.464
 5625POPC   D2A71224  18.331  22.165   6.764
 5625POPC   C3A71225  18.328  22.167   7.064
 5625POPC   C4A71226  18.251  22.143   7.364
 5625POPC   C1B71227  18.477  22.206   6.464
 5625POPC   C2B71228  18.475  22.268   6.764
 5625POPC   C3B71229  18.492  22.202   7.064
 5625POPC   C4B71230  18.506  22.189   7.364
 5626POPC   NC371231  12.838  43.854   5.564
 5626POPC   PO471232  12.862  43.908   5.864
 5626POPC   GL171233  12.881  43.836   6.164
 5626POPC   GL271234  12.855  43.986   6.164
 5626POPC   C1A71235  12.821  43.913   6.464
 5626POPC   D2A71236  12.805  43.849   6.764
 5626POPC   C3A71237  12.891  43.875   7.064
 5626POPC   C4A71238  12.811  43.857   7.364
 5626POPC   C1B71239  12.777  44.138   6.464
 5626POPC   C2B71240  12.837  44.154   6.764
 5626POPC   C3B71241  12.795  44.149   7.064
 5626POPC   C4B71242  12.830  44.150   7.364
 5627POPC   NC371243  24.513  10.559   5.564
 5627POPC   PO471244  24.511  10.548   5.864
 5627POPC   GL171245  24.510  10.507   6.164
 5627POPC   GL271246  24.650  10.539   6.164
 5627POPC   C1A71247  24.491  10.562   6.464
 5627POPC   D2A71248  24.446  10.500   6.764
 5627POPC   C3A71249  24.443  10.555   7.064
 5627POPC   C4A71250  24.452  10.546   7.364
 5627POPC   C1B71251  24.743  10.524   6.464
 5627POPC   C2B71252  24.769  10.492   6.764
 5627POPC   C3B71253  24.717  10.578   7.064
 5627POPC   C4B71254  24.719  10.518   7.364
 5628POPC   NC371255  41.577  28.373   5.564
 5628POPC   PO471256  41.542  28.412   5.864
 5628POPC   GL171257  41.522  28.329   6.164
 5628POPC   GL271258  41.499  28.296   6.164
 5628POPC   C1A71259  41.570  28.356   6.464
 5628POPC   D2A71260  41.580  28.408   6.764
 5628POPC   C3A71261  41.588  28.362   7.064
 5628POPC   C4A71262  41.523  28.378   7.364
 5628POPC   C1B71263  41.328  28.236   6.464
 5628POPC   C2B71264  41.409  28.238   6.764
 5628POPC   C3B71265  41.385  28.250   7.064
 5628POPC   C4B71266  41.413  28.223   7.364
 5629POPC   NC371267  17.523  36.882   5.564
 5629POPC   PO471268  17.478  36.884   5.864
 5629POPC   GL171269  17.461  36.925   6.164
 5629POPC   GL271270  17.365  36.856   6.164
 5629POPC   C1A71271  17.508  36.868   6.464
 5629POPC   D2A71272  17.507  36.933   6.764
 5629POPC   C3A71273  17.483  36.931   7.064
 5629POPC   C4A71274  17.544  36.893   7.364
 5629POPC   C1B71275  17.246  36.803   6.464
 5629POPC   C2B71276  17.258  36.818   6.764
 5629POPC   C3B71277  17.275  36.811   7.064
 5629POPC   C4B71278  17.334  36.741   7.364
 5630POPC   NC371279  15.924   1.191   5.564
 5630POPC   PO471280  16.000   1.168   5.864
 5630POPC   GL171281  15.969   1.166   6.164
 5630POPC   GL271282  15.884   1.093   6.164
 5630POPC   C1A71283  15.918   1.195   6.464
 5630POPC   D2A71284  16.001   1.233   6.764
 5630POPC   C3A71285  15.976   1.186   7.064
 5630POPC   C4A71286  15.962   1.180   7.364
 5630POPC   C1B71287  15.752   1.029   6.464
 5630POPC   C2B71288  15.797   0.995   6.764
 5630POPC   C3B71289  15.772   0.983   7.064
 5630POPC   C4B71290  15.781   1.063   7.364
 5631POPC   NC371291   0.437   1.249   5.564
 5631POPC   PO471292   0.417   1.248   5.864
 5631POPC   GL171293   0.398   1.259   6.164
 5631POPC   GL271294   0.509   1.064   6.164
 5631POPC   C1A71295   0.437   1.196   6.464
 5631POPC   D2A71296   0.407   1.231   6.764
 5631POPC   C3A71297   0.406   1.174   7.064
 5631POPC   C4A71298   0.448   1.255   7.364
 5631POPC   C1B71299   0.537   0.966   6.464
 5631POPC   C2B71300   0.488   1.027   6.764
 5631POPC   C3B71301   0.556   1.017   7.064
 5631POPC   C4B71302   0.509   1.001   7.364
 5632POPC   NC371303  33.813  36.166   5.564
 5632POPC   PO471304  33.776  36.165   5.864
 5632POPC   GL171305  33.764  36.085   6.164
 5632POPC   GL271306  33.860  36.275   6.164
 5632POPC   C1A71307  33.827  36.156   6.464
 5632POPC   D2A71308  33.768  36.109   6.764
 5632POPC   C3A71309  33.751  36.144   7.064
 5632POPC   C4A71310  33.754  36.160   7.364
 5632POPC   C1B71311  33.827  36.413   6.464
 5632POPC   C2B71312  33.837  36.340   6.764
 5632POPC   C3B71313  33.860  36.394   7.064
 5632POPC   C4B71314  33.843  36.398   7.364
 5633POPC   NC371315  22.200  24.496   5.564
 5633POPC   PO471316  22.161  24.449   5.864
 5633POPC   GL171317  22.211  24.440   6.164
 5633POPC   GL271318  22.093  24.420   6.164
 5633POPC   C1A71319  22.149  24.473   6.464
 5633POPC   D2A71320  22.119  24.499   6.764
 5633POPC   C3A71321  22.209  24.467   7.064
 5633POPC   C4A71322  22.173  24.457   7.364
 5633POPC   C1B71323  21.987  24.275   6.464
 5633POPC   C2B71324  22.007  24.287   6.764
 5633POPC   C3B71325  22.023  24.291   7.064
 5633POPC   C4B71326  22.081  24.262   7.364
 5634POPC   NC371327  15.174  19.821   5.564
 5634POPC   PO471328  15.136  19.873   5.864
 5634POPC   GL171329  15.153  19.810   6.164
 5634POPC   GL271330  15.255  19.702   6.164
 5634POPC   C1A71331  15.187  19.794   6.464
 5634POPC   D2A71332  15.186  19.845   6.764
 5634POPC   C3A71333  15.193  19.806   7.064
 5634POPC   C4A71334  15.179  19.808   7.364
 5634POPC   C1B71335  15.285  19.629   6.464
 5634POPC   C2B71336  15.360  19.582   6.764
 5634POPC   C3B71337  15.343  19.657   7.064
 5634POPC   C4B71338  15.352  19.654   7.364
 5635POPC   NC371339  25.275  36.884   5.564
 5635POPC   PO471340  25.262  36.892   5.864
 5635POPC   GL171341  25.242  36.939   6.164
 5635POPC   GL271342  25.260  36.777   6.164
 5635POPC   C1A71343  25.226  36.882   6.464
 5635POPC   D2A71344  25.231  36.898   6.764
 5635POPC   C3A71345  25.266  36.903   7.064
 5635POPC   C4A71346  25.258  36.887   7.364
 5635POPC   C1B71347  25.285  36.655   6.464
 5635POPC   C2B71348  25.190  36.629   6.764
 5635POPC   C3B71349  25.245  36.698   7.064
 5635POPC   C4B71350  25.264  36.700   7.364
 5636POPC   NC371351  33.841   8.942   5.564
 5636POPC   PO471352  33.768   8.970   5.864
 5636POPC   GL171353  33.849   8.925   6.164
 5636POPC   GL271354  33.799   8.832   6.164
 5636POPC   C1A71355  33.788   8.983   6.464
 5636POPC   D2A71356  33.809   8.980   6.764
 5636POPC   C3A71357  33.763   8.963   7.064
 5636POPC   C4A71358  33.795   9.007   7.364
 5636POPC   C1B71359  33.852   8.757   6.464
 5636POPC   C2B71360  33.878   8.679   6.764
 5636POPC   C3B71361  33.811   8.762   7.064
 5636POPC   C4B71362  33.835   8.691   7.364
 5637POPC   NC371363  15.995  17.457   5.564
 5637POPC   PO471364  15.985  17.500   5.864
 5637POPC   GL171365  15.914  17.458   6.164
 5637POPC   GL271366  15.840  17.615   6.164
 5637POPC   C1A71367  15.991  17.476   6.464
 5637POPC   D2A71368  15.969  17.483   6.764
 5637POPC   C3A71369  15.971  17.485   7.064
 5637POPC   C4A71370  15.980  17.469   7.364
 5637POPC   C1B71371  15.849  17.654   6.464
 5637POPC   C2B71372  15.800  17.665   6.764
 5637POPC   C3B71373  15.809  17.667   7.064
 5637POPC   C4B71374  15.833  17.660   7.364
 5638POPC   NC371375   2.806  41.594   5.564
 5638POPC   PO471376   2.758  41.539   5.864
 5638POPC   GL171377   2.803  41.586   6.164
 5638POPC   GL271378   2.839  41.675   6.164
 5638POPC   C1A71379   2.805  41.577   6.464
 5638POPC   D2A71380   2.718  41.557   6.764
 5638POPC   C3A71381   2.761  41.580   7.064
 5638POPC   C4A71382   2.778  41.528   7.364
 5638POPC   C1B71383   2.938  41.712   6.464
 5638POPC   C2B71384   2.958  41.692   6.764
 5638POPC   C3B71385   2.974  41.690   7.064
 5638POPC   C4B71386   3.005  41.657   7.364
 5639POPC   NC371387  40.762  41.544   5.564
 5639POPC   PO471388  40.774  41.536   5.864
 5639POPC   GL171389  40.806  41.511   6.164
 5639POPC   GL271390  40.728  41.391   6.164
 5639POPC   C1A71391  40.792  41.565   6.464
 5639POPC   D2A71392  40.743  41.595   6.764
 5639POPC   C3A71393  40.756  41.602   7.064
 5639POPC   C4A71394  40.733  41.527   7.364
 5639POPC   C1B71395  40.750  41.354   6.464
 5639POPC   C2B71396  40.671  41.333   6.764
 5639POPC   C3B71397  40.747  41.287   7.064
 5639POPC   C4B71398  40.706  41.361   7.364
 5640POPC   NC371399   7.442  15.224   5.564
 5640POPC   PO471400   7.415  15.177   5.864
 5640POPC   GL171401   7.456  15.169   6.164
 5640POPC   GL271402   7.553  15.251   6.164
 5640POPC   C1A71403   7.409  15.153   6.464
 5640POPC   D2A71404   7.436  15.145   6.764
 5640POPC   C3A71405   7.426  15.176   7.064
 5640POPC   C4A71406   7.446  15.149   7.364
 5640POPC   C1B71407   7.643  15.333   6.464
 5640POPC   C2B71408   7.639  15.373   6.764
 5640POPC   C3B71409   7.641  15.300   7.064
 5640POPC   C4B71410   7.623  15.395   7.364
 5641POPC   NC371411  28.350  13.634   5.564
 5641POPC   PO471412  28.416  13.636   5.864
 5641POPC   GL171413  28.417  13.653   6.164
 5641POPC   GL271414  28.443  13.767   6.164
 5641POPC   C1A71415  28.368  13.624   6.464
 5641POPC   D2A71416  28.411  13.643   6.764
 5641POPC   C3A71417  28.380  13.608   7.064
 5641POPC   C4A71418  28.373  13.654   7.364
 5641POPC   C1B71419  28.397  13.851   6.464
 5641POPC   C2B71420  28.427  13.848   6.764
 5641POPC   C3B71421  28.399  13.885   7.064
 5641POPC   C4B71422  28.378  13.837   7.364
 5642POPC   NC371423  28.356   8.154   5.564
 5642POPC   PO471424  28.369   8.176   5.864
 5642POPC   GL171425  28.400   8.243   6.164
 5642POPC   GL271426  28.509   8.144   6.164
 5642POPC   C1A71427  28.321   8.196   6.464
 5642POPC   D2A71428  28.383   8.162   6.764
 5642POPC   C3A71429  28.396   8.161   7.064
 5642POPC   C4A71430  28.405   8.215   7.364
 5642POPC   C1B71431  28.564   8.002   6.464
 5642POPC   C2B71432  28.573   7.991   6.764
 5642POPC   C3B71433  28.560   8.070   7.064
 5642POPC   C4B71434  28.610   8.070   7.364
 5643POPC   NC371435   1.962  32.985   5.564
 5643POPC   PO471436   1.988  32.988   5.864
 5643POPC   GL171437   2.028  33.060   6.164
 5643POPC   GL271438   1.847  33.078   6.164
 5643POPC   C1A71439   2.009  33.006   6.464
 5643POPC   D2A71440   1.971  33.017   6.764
 5643POPC   C3A71441   2.018  33.063   7.064
 5643POPC   C4A71442   2.032  33.051   7.364
 5643POPC   C1B71443   1.777  33.174   6.464
 5643POPC   C2B71444   1.766  33.224   6.764
 5643POPC   C3B71445   1.818  33.189   7.064
 5643POPC   C4B71446   1.749  33.166   7.364
 5644POPC   NC371447  14.417   5.829   5.564
 5644POPC   PO471448  14.420   5.902   5.864
 5644POPC   GL171449  14.356   5.903   6.164
 5644POPC   GL271450  14.295   5.872   6.164
 5644POPC   C1A71451  14.380   5.830   6.464
 5644POPC   D2A71452  14.370   5.917   6.764
 5644POPC   C3A71453  14.368   5.868   7.064
 5644POPC   C4A71454  14.397   5.842   7.364
 5644POPC   C1B71455  14.130   5.853   6.464
 5644POPC   C2B71456  14.200   5.795   6.764
 5644POPC   C3B71457  14.166   5.816   7.064
 5644POPC   C4B71458  14.157   5.815   7.364
 5645POPC   NC371459  28.412  11.291   5.564
 5645POPC   PO471460  28.327  11.251   5.864
 5645POPC   GL171461  28.354  11.339   6.164
 5645POPC   GL271462  28.502  11.322   6.164
 5645POPC   C1A71463  28.377  11.268   6.464
 5645POPC   D2A71464  28.346  11.272   6.764
 5645POPC   C3A71465  28.382  11.323   7.064
 5645POPC   C4A71466  28.322  11.263   7.364
 5645POPC   C1B71467  28.638  11.255   6.464
 5645POPC   C2B71468  28.595  11.242   6.764
 5645POPC   C3B71469  28.581  11.270   7.064
 5645POPC   C4B71470  28.566  11.253   7.364
 5646POPC   NC371471  15.152  24.466   5.564
 5646POPC   PO471472  15.176  24.510   5.864
 5646POPC   GL171473  15.208  24.498   6.164
 5646POPC   GL271474  15.042  24.496   6.164
 5646POPC   C1A71475  15.213  24.521   6.464
 5646POPC   D2A71476  15.154  24.505   6.764
 5646POPC   C3A71477  15.130  24.448   7.064
 5646POPC   C4A71478  15.189  24.497   7.364
 5646POPC   C1B71479  14.953  24.511   6.464
 5646POPC   C2B71480  14.926  24.512   6.764
 5646POPC   C3B71481  14.968  24.504   7.064
 5646POPC   C4B71482  14.902  24.512   7.364
 5647POPC   NC371483  12.850  28.372   5.564
 5647POPC   PO471484  12.884  28.353   5.864
 5647POPC   GL171485  12.874  28.390   6.164
 5647POPC   GL271486  12.904  28.259   6.164
 5647POPC   C1A71487  12.872  28.377   6.464
 5647POPC   D2A71488  12.864  28.386   6.764
 5647POPC   C3A71489  12.826  28.335   7.064
 5647POPC   C4A71490  12.893  28.367   7.364
 5647POPC   C1B71491  13.030  28.165   6.464
 5647POPC   C2B71492  13.009  28.193   6.764
 5647POPC   C3B71493  13.085  28.240   7.064
 5647POPC   C4B71494  13.039  28.226   7.364
 5648POPC   NC371495  44.648   8.928   5.564
 5648POPC   PO471496  44.705   9.020   5.864
 5648POPC   GL171497  44.704   8.946   6.164
 5648POPC   GL271498  44.575   9.034   6.164
 5648POPC   C1A71499  44.631   8.925   6.464
 5648POPC   D2A71500  44.712   9.003   6.764
 5648POPC   C3A71501  44.665   9.001   7.064
 5648POPC   C4A71502  44.628   8.969   7.364
 5648POPC   C1B71503  44.478   9.052   6.464
 5648POPC   C2B71504  44.409   9.114   6.764
 5648POPC   C3B71505  44.414   9.049   7.064
 5648POPC   C4B71506  44.481   9.059   7.364
 5649POPC   NC371507   4.328  11.276   5.564
 5649POPC   PO471508   4.285  11.318   5.864
 5649POPC   GL171509   4.337  11.317   6.164
 5649POPC   GL271510   4.364  11.418   6.164
 5649POPC   C1A71511   4.317  11.303   6.464
 5649POPC   D2A71512   4.322  11.276   6.764
 5649POPC   C3A71513   4.304  11.269   7.064
 5649POPC   C4A71514   4.342  11.308   7.364
 5649POPC   C1B71515   4.294  11.524   6.464
 5649POPC   C2B71516   4.370  11.513   6.764
 5649POPC   C3B71517   4.367  11.580   7.064
 5649POPC   C4B71518   4.365  11.540   7.364
 5650POPC   NC371519   6.634  38.472   5.564
 5650POPC   PO471520   6.675  38.466   5.864
 5650POPC   GL171521   6.688  38.445   6.164
 5650POPC   GL271522   6.765  38.514   6.164
 5650POPC   C1A71523   6.609  38.436   6.464
 5650POPC   D2A71524   6.624  38.475   6.764
 5650POPC   C3A71525   6.614  38.478   7.064
 5650POPC   C4A71526   6.620  38.458   7.364
 5650POPC   C1B71527   6.885  38.650   6.464
 5650POPC   C2B71528   6.889  38.650   6.764
 5650POPC   C3B71529   6.813  38.568   7.064
 5650POPC   C4B71530   6.879  38.599   7.364
 5651POPC   NC371531  33.787   4.284   5.564
 5651POPC   PO471532  33.806   4.281   5.864
 5651POPC   GL171533  33.819   4.290   6.164
 5651POPC   GL271534  33.772   4.461   6.164
 5651POPC   C1A71535  33.792   4.312   6.464
 5651POPC   D2A71536  33.818   4.326   6.764
 5651POPC   C3A71537  33.794   4.350   7.064
 5651POPC   C4A71538  33.769   4.357   7.364
 5651POPC   C1B71539  33.803   4.538   6.464
 5651POPC   C2B71540  33.891   4.575   6.764
 5651POPC   C3B71541  33.813   4.587   7.064
 5651POPC   C4B71542  33.891   4.565   7.364
 5652POPC   NC371543  43.904  41.545   5.564
 5652POPC   PO471544  43.928  41.517   5.864
 5652POPC   GL171545  43.845  41.514   6.164
 5652POPC   GL271546  43.816  41.571   6.164
 5652POPC   C1A71547  43.884  41.514   6.464
 5652POPC   D2A71548  43.868  41.605   6.764
 5652POPC   C3A71549  43.848  41.602   7.064
 5652POPC   C4A71550  43.935  41.589   7.364
 5652POPC   C1B71551  43.662  41.638   6.464
 5652POPC   C2B71552  43.664  41.638   6.764
 5652POPC   C3B71553  43.647  41.627   7.064
 5652POPC   C4B71554  43.614  41.658   7.364
 5653POPC   NC371555  13.661  41.530   5.564
 5653POPC   PO471556  13.675  41.542   5.864
 5653POPC   GL171557  13.611  41.605   6.164
 5653POPC   GL271558  13.484  41.577   6.164
 5653POPC   C1A71559  13.627  41.515   6.464
 5653POPC   D2A71560  13.598  41.555   6.764
 5653POPC   C3A71561  13.604  41.580   7.064
 5653POPC   C4A71562  13.584  41.530   7.364
 5653POPC   C1B71563  13.415  41.629   6.464
 5653POPC   C2B71564  13.389  41.649   6.764
 5653POPC   C3B71565  13.348  41.633   7.064
 5653POPC   C4B71566  13.365  41.620   7.364
 5654POPC   NC371567  10.499  14.375   5.564
 5654POPC   PO471568  10.523  14.407   5.864
 5654POPC   GL171569  10.567  14.372   6.164
 5654POPC   GL271570  10.540  14.240   6.164
 5654POPC   C1A71571  10.550  14.404   6.464
 5654POPC   D2A71572  10.481  14.366   6.764
 5654POPC   C3A71573  10.571  14.418   7.064
 5654POPC   C4A71574  10.550  14.359   7.364
 5654POPC   C1B71575  10.460  14.117   6.464
 5654POPC   C2B71576  10.469  14.132   6.764
 5654POPC   C3B71577  10.451  14.139   7.064
 5654POPC   C4B71578  10.452  14.180   7.364
 5655POPC   NC371579   5.883  39.208   5.564
 5655POPC   PO471580   5.847  39.253   5.864
 5655POPC   GL171581   5.881  39.279   6.164
 5655POPC   GL271582   6.002  39.223   6.164
 5655POPC   C1A71583   5.854  39.280   6.464
 5655POPC   D2A71584   5.883  39.224   6.764
 5655POPC   C3A71585   5.832  39.272   7.064
 5655POPC   C4A71586   5.851  39.228   7.364
 5655POPC   C1B71587   6.112  39.095   6.464
 5655POPC   C2B71588   6.126  39.101   6.764
 5655POPC   C3B71589   6.125  39.153   7.064
 5655POPC   C4B71590   6.104  39.158   7.364
 5656POPC   NC371591  12.830  32.205   5.564
 5656POPC   PO471592  12.884  32.212   5.864
 5656POPC   GL171593  12.830  32.211   6.164
 5656POPC   GL271594  13.001  32.201   6.164
 5656POPC   C1A71595  12.861  32.282   6.464
 5656POPC   D2A71596  12.856  32.226   6.764
 5656POPC   C3A71597  12.831  32.214   7.064
 5656POPC   C4A71598  12.879  32.227   7.364
 5656POPC   C1B71599  13.025  32.129   6.464
 5656POPC   C2B71600  13.049  32.135   6.764
 5656POPC   C3B71601  13.030  32.094   7.064
 5656POPC   C4B71602  13.082  32.087   7.364
 5657POPC   NC371603  44.625  15.944   5.564
 5657POPC   PO471604  44.711  15.906   5.864
 5657POPC   GL171605  44.630  15.947   6.164
 5657POPC   GL271606  44.533  15.891   6.164
 5657POPC   C1A71607  44.650  15.951   6.464
 5657POPC   D2A71608  44.642  15.999   6.764
 5657POPC   C3A71609  44.616  15.942   7.064
 5657POPC   C4A71610  44.701  15.917   7.364
 5657POPC   C1B71611  44.413  15.912   6.464
 5657POPC   C2B71612  44.471  15.884   6.764
 5657POPC   C3B71613  44.456  15.900   7.064
 5657POPC   C4B71614  44.442  15.883   7.364
 5658POPC   NC371615  43.893   5.114   5.564
 5658POPC   PO471616  43.925   5.058   5.864
 5658POPC   GL171617  43.911   5.141   6.164
 5658POPC   GL271618  44.017   5.138   6.164
 5658POPC   C1A71619  43.877   5.129   6.464
 5658POPC   D2A71620  43.847   5.085   6.764
 5658POPC   C3A71621  43.881   5.064   7.064
 5658POPC   C4A71622  43.910   5.095   7.364
 5658POPC   C1B71623  44.140   5.116   6.464
 5658POPC   C2B71624  44.133   5.165   6.764
 5658POPC   C3B71625  44.090   5.138   7.064
 5658POPC   C4B71626  44.087   5.130   7.364
 5659POPC   NC371627  30.686   2.748   5.564
 5659POPC   PO471628  30.706   2.743   5.864
 5659POPC   GL171629  30.657   2.731   6.164
 5659POPC   GL271630  30.563   2.694   6.164
 5659POPC   C1A71631  30.704   2.782   6.464
 5659POPC   D2A71632  30.739   2.770   6.764
 5659POPC   C3A71633  30.664   2.774   7.064
 5659POPC   C4A71634  30.681   2.727   7.364
 5659POPC   C1B71635  30.457   2.708   6.464
 5659POPC   C2B71636  30.482   2.680   6.764
 5659POPC   C3B71637  30.423   2.680   7.064
 5659POPC   C4B71638  30.443   2.737   7.364
 5660POPC   NC371639  36.886  25.307   5.564
 5660POPC   PO471640  36.932  25.231   5.864
 5660POPC   GL171641  36.926  25.313   6.164
 5660POPC   GL271642  36.795  25.343   6.164
 5660POPC   C1A71643  36.922  25.277   6.464
 5660POPC   D2A71644  36.893  25.302   6.764
 5660POPC   C3A71645  36.874  25.222   7.064
 5660POPC   C4A71646  36.952  25.236   7.364
 5660POPC   C1B71647  36.632  25.385   6.464
 5660POPC   C2B71648  36.644  25.389   6.764
 5660POPC   C3B71649  36.722  25.339   7.064
 5660POPC   C4B71650  36.673  25.413   7.364
 5661POPC   NC371651   0.445  17.493   5.564
 5661POPC   PO471652   0.465  17.467   5.864
 5661POPC   GL171653   0.389  17.478   6.164
 5661POPC   GL271654   0.562  17.453   6.164
 5661POPC   C1A71655   0.411  17.462   6.464
 5661POPC   D2A71656   0.392  17.462   6.764
 5661POPC   C3A71657   0.467  17.531   7.064
 5661POPC   C4A71658   0.406  17.491   7.364
 5661POPC   C1B71659   0.666  17.477   6.464
 5661POPC   C2B71660   0.663  17.463   6.764
 5661POPC   C3B71661   0.724  17.434   7.064
 5661POPC   C4B71662   0.699  17.458   7.364
 5662POPC   NC371663  43.893  40.737   5.564
 5662POPC   PO471664  43.870  40.815   5.864
 5662POPC   GL171665  43.923  40.749   6.164
 5662POPC   GL271666  43.722  40.733   6.164
 5662POPC   C1A71667  43.869  40.734   6.464
 5662POPC   D2A71668  43.912  40.817   6.764
 5662POPC   C3A71669  43.886  40.804   7.064
 5662POPC   C4A71670  43.839  40.767   7.364
 5662POPC   C1B71671  43.628  40.650   6.464
 5662POPC   C2B71672  43.645  40.737   6.764
 5662POPC   C3B71673  43.671  40.710   7.064
 5662POPC   C4B71674  43.661  40.678   7.364
 5663POPC   NC371675  14.408  18.282   5.564
 5663POPC   PO471676  14.445  18.267   5.864
 5663POPC   GL171677  14.425  18.308   6.164
 5663POPC   GL271678  14.528  18.219   6.164
 5663POPC   C1A71679  14.366  18.286   6.464
 5663POPC   D2A71680  14.380  18.321   6.764
 5663POPC   C3A71681  14.449  18.260   7.064
 5663POPC   C4A71682  14.354  18.324   7.364
 5663POPC   C1B71683  14.630  18.168   6.464
 5663POPC   C2B71684  14.663  18.123   6.764
 5663POPC   C3B71685  14.589  18.184   7.064
 5663POPC   C4B71686  14.667  18.149   7.364
 5664POPC   NC371687   8.932   7.442   5.564
 5664POPC   PO471688   9.005   7.413   5.864
 5664POPC   GL171689   8.994   7.444   6.164
 5664POPC   GL271690   9.132   7.470   6.164
 5664POPC   C1A71691   9.016   7.384   6.464
 5664POPC   D2A71692   8.972   7.417   6.764
 5664POPC   C3A71693   8.959   7.470   7.064
 5664POPC   C4A71694   8.989   7.430   7.364
 5664POPC   C1B71695   9.162   7.563   6.464
 5664POPC   C2B71696   9.175   7.559   6.764
 5664POPC   C3B71697   9.214   7.541   7.064
 5664POPC   C4B71698   9.158   7.516   7.364
 5665POPC   NC371699   7.439  10.572   5.564
 5665POPC   PO471700   7.381  10.489   5.864
 5665POPC   GL171701   7.393  10.492   6.164
 5665POPC   GL271702   7.543  10.430   6.164
 5665POPC   C1A71703   7.385  10.491   6.464
 5665POPC   D2A71704   7.419  10.480   6.764
 5665POPC   C3A71705   7.415  10.555   7.064
 5665POPC   C4A71706   7.389  10.515   7.364
 5665POPC   C1B71707   7.664  10.407   6.464
 5665POPC   C2B71708   7.656  10.337   6.764
 5665POPC   C3B71709   7.594  10.421   7.064
 5665POPC   C4B71710   7.576  10.383   7.364
 5666POPC   NC371711   9.704   0.463   5.564
 5666POPC   PO471712   9.787   0.448   5.864
 5666POPC   GL171713   9.734   0.447   6.164
 5666POPC   GL271714   9.832   0.518   6.164
 5666POPC   C1A71715   9.770   0.461   6.464
 5666POPC   D2A71716   9.770   0.488   6.764
 5666POPC   C3A71717   9.699   0.390   7.064
 5666POPC   C4A71718   9.789   0.413   7.364
 5666POPC   C1B71719   9.962   0.627   6.464
 5666POPC   C2B71720   9.892   0.662   6.764
 5666POPC   C3B71721   9.885   0.586   7.064
 5666POPC   C4B71722   9.910   0.659   7.364
 5667POPC   NC371723  11.306  40.754   5.564
 5667POPC   PO471724  11.323  40.786   5.864
 5667POPC   GL171725  11.329  40.760   6.164
 5667POPC   GL271726  11.437  40.761   6.164
 5667POPC   C1A71727  11.255  40.833   6.464
 5667POPC   D2A71728  11.271  40.768   6.764
 5667POPC   C3A71729  11.329  40.827   7.064
 5667POPC   C4A71730  11.331  40.808   7.364
 5667POPC   C1B71731  11.505  40.799   6.464
 5667POPC   C2B71732  11.561  40.842   6.764
 5667POPC   C3B71733  11.497  40.810   7.064
 5667POPC   C4B71734  11.552  40.848   7.364
 5668POPC   NC371735   1.244  23.759   5.564
 5668POPC   PO471736   1.213  23.679   5.864
 5668POPC   GL171737   1.241  23.685   6.164
 5668POPC   GL271738   1.313  23.775   6.164
 5668POPC   C1A71739   1.189  23.751   6.464
 5668POPC   D2A71740   1.187  23.715   6.764
 5668POPC   C3A71741   1.262  23.722   7.064
 5668POPC   C4A71742   1.188  23.710   7.364
 5668POPC   C1B71743   1.407  23.895   6.464
 5668POPC   C2B71744   1.411  23.903   6.764
 5668POPC   C3B71745   1.370  23.947   7.064
 5668POPC   C4B71746   1.352  23.943   7.364
 5669POPC   NC371747  34.576  12.064   5.564
 5669POPC   PO471748  34.605  12.079   5.864
 5669POPC   GL171749  34.551  12.041   6.164
 5669POPC   GL271750  34.469  12.034   6.164
 5669POPC   C1A71751  34.620  12.115   6.464
 5669POPC   D2A71752  34.571  12.048   6.764
 5669POPC   C3A71753  34.545  12.071   7.064
 5669POPC   C4A71754  34.556  12.105   7.364
 5669POPC   C1B71755  34.312  12.021   6.464
 5669POPC   C2B71756  34.294  12.021   6.764
 5669POPC   C3B71757  34.317  12.059   7.064
 5669POPC   C4B71758  34.375  11.995   7.364
 5670POPC   NC371759   5.897  36.117   5.564
 5670POPC   PO471760   5.856  36.130   5.864
 5670POPC   GL171761   5.870  36.106   6.164
 5670POPC   GL271762   5.771  36.172   6.164
 5670POPC   C1A71763   5.898  36.092   6.464
 5670POPC   D2A71764   5.850  36.141   6.764
 5670POPC   C3A71765   5.876  36.174   7.064
 5670POPC   C4A71766   5.905  36.172   7.364
 5670POPC   C1B71767   5.635  36.171   6.464
 5670POPC   C2B71768   5.575  36.203   6.764
 5670POPC   C3B71769   5.622  36.196   7.064
 5670POPC   C4B71770   5.581  36.202   7.364
 5671POPC   NC371771  14.357  11.321   5.564
 5671POPC   PO471772  14.399  11.301   5.864
 5671POPC   GL171773  14.391  11.276   6.164
 5671POPC   GL271774  14.462  11.193   6.164
 5671POPC   C1A71775  14.367  11.326   6.464
 5671POPC   D2A71776  14.376  11.324   6.764
 5671POPC   C3A71777  14.369  11.317   7.064
 5671POPC   C4A71778  14.453  11.267   7.364
 5671POPC   C1B71779  14.459  11.030   6.464
 5671POPC   C2B71780  14.441  11.047   6.764
 5671POPC   C3B71781  14.424  11.012   7.064
 5671POPC   C4B71782  14.428  11.082   7.364
 5672POPC   NC371783  12.821  38.418   5.564
 5672POPC   PO471784  12.804  38.504   5.864
 5672POPC   GL171785  12.874  38.418   6.164
 5672POPC   GL271786  12.954  38.510   6.164
 5672POPC   C1A71787  12.805  38.483   6.464
 5672POPC   D2A71788  12.901  38.454   6.764
 5672POPC   C3A71789  12.860  38.502   7.064
 5672POPC   C4A71790  12.840  38.453   7.364
 5672POPC   C1B71791  13.068  38.588   6.464
 5672POPC   C2B71792  13.044  38.504   6.764
 5672POPC   C3B71793  13.133  38.553   7.064
 5672POPC   C4B71794  13.042  38.535   7.364
 5673POPC   NC371795  23.742  15.909   5.564
 5673POPC   PO471796  23.725  16.002   5.864
 5673POPC   GL171797  23.673  15.977   6.164
 5673POPC   GL271798  23.664  15.852   6.164
 5673POPC   C1A71799  23.698  15.922   6.464
 5673POPC   D2A71800  23.676  15.946   6.764
 5673POPC   C3A71801  23.759  15.929   7.064
 5673POPC   C4A71802  23.760  15.908   7.364
 5673POPC   C1B71803  23.747  15.699   6.464
 5673POPC   C2B71804  23.755  15.747   6.764
 5673POPC   C3B71805  23.754  15.739   7.064
 5673POPC   C4B71806  23.669  15.693   7.364
 5674POPC   NC371807   1.166  14.387   5.564
 5674POPC   PO471808   1.226  14.369   5.864
 5674POPC   GL171809   1.165  14.380   6.164
 5674POPC   GL271810   1.260  14.565   6.164
 5674POPC   C1A71811   1.246  14.378   6.464
 5674POPC   D2A71812   1.220  14.408   6.764
 5674POPC   C3A71813   1.249  14.405   7.064
 5674POPC   C4A71814   1.256  14.385   7.364
 5674POPC   C1B71815   1.253  14.636   6.464
 5674POPC   C2B71816   1.300  14.670   6.764
 5674POPC   C3B71817   1.272  14.635   7.064
 5674POPC   C4B71818   1.311  14.646   7.364
 5675POPC   NC371819   0.480   9.011   5.564
 5675POPC   PO471820   0.413   8.991   5.864
 5675POPC   GL171821   0.472   8.969   6.164
 5675POPC   GL271822   0.575   9.039   6.164
 5675POPC   C1A71823   0.425   8.970   6.464
 5675POPC   D2A71824   0.407   8.925   6.764
 5675POPC   C3A71825   0.466   8.958   7.064
 5675POPC   C4A71826   0.411   8.936   7.364
 5675POPC   C1B71827   0.683   9.106   6.464
 5675POPC   C2B71828   0.624   9.041   6.764
 5675POPC   C3B71829   0.651   9.048   7.064
 5675POPC   C4B71830   0.655   9.076   7.364
 5676POPC   NC371831   1.951  33.839   5.564
 5676POPC   PO471832   1.961  33.839   5.864
 5676POPC   GL171833   1.961  33.787   6.164
 5676POPC   GL271834   2.021  33.868   6.164
 5676POPC   C1A71835   1.969  33.771   6.464
 5676POPC   D2A71836   1.959  33.782   6.764
 5676POPC   C3A71837   1.979  33.807   7.064
 5676POPC   C4A71838   1.968  33.791   7.364
 5676POPC   C1B71839   2.162  33.962   6.464
 5676POPC   C2B71840   2.113  33.968   6.764
 5676POPC   C3B71841   2.128  33.995   7.064
 5676POPC   C4B71842   2.100  33.974   7.364
 5677POPC   NC371843  19.017   7.396   5.564
 5677POPC   PO471844  19.084   7.458   5.864
 5677POPC   GL171845  19.023   7.390   6.164
 5677POPC   GL271846  18.905   7.457   6.164
 5677POPC   C1A71847  19.009   7.375   6.464
 5677POPC   D2A71848  19.029   7.383   6.764
 5677POPC   C3A71849  19.065   7.396   7.064
 5677POPC   C4A71850  19.074   7.398   7.364
 5677POPC   C1B71851  18.873   7.521   6.464
 5677POPC   C2B71852  18.829   7.570   6.764
 5677POPC   C3B71853  18.885   7.508   7.064
 5677POPC   C4B71854  18.820   7.527   7.364
 5678POPC   NC371855   8.957  24.538   5.564
 5678POPC   PO471856   8.989  24.496   5.864
 5678POPC   GL171857   8.959  24.505   6.164
 5678POPC   GL271858   8.988  24.657   6.164
 5678POPC   C1A71859   9.022  24.441   6.464
 5678POPC   D2A71860   9.012  24.481   6.764
 5678POPC   C3A71861   8.970  24.485   7.064
 5678POPC   C4A71862   8.930  24.512   7.364
 5678POPC   C1B71863   8.965  24.749   6.464
 5678POPC   C2B71864   8.926  24.707   6.764
 5678POPC   C3B71865   8.949  24.693   7.064
 5678POPC   C4B71866   8.913  24.740   7.364
 5679POPC   NC371867  38.470   3.551   5.564
 5679POPC   PO471868  38.422   3.492   5.864
 5679POPC   GL171869  38.455   3.590   6.164
 5679POPC   GL271870  38.530   3.627   6.164
 5679POPC   C1A71871  38.410   3.513   6.464
 5679POPC   D2A71872  38.409   3.505   6.764
 5679POPC   C3A71873  38.476   3.551   7.064
 5679POPC   C4A71874  38.495   3.555   7.364
 5679POPC   C1B71875  38.673   3.723   6.464
 5679POPC   C2B71876  38.655   3.698   6.764
 5679POPC   C3B71877  38.590   3.689   7.064
 5679POPC   C4B71878  38.578   3.684   7.364
 5680POPC   NC371879  36.099  40.774   5.564
 5680POPC   PO471880  36.159  40.812   5.864
 5680POPC   GL171881  36.099  40.754   6.164
 5680POPC   GL271882  36.047  40.652   6.164
 5680POPC   C1A71883  36.082  40.762   6.464
 5680POPC   D2A71884  36.119  40.821   6.764
 5680POPC   C3A71885  36.104  40.744   7.064
 5680POPC   C4A71886  36.138  40.745   7.364
 5680POPC   C1B71887  36.011  40.561   6.464
 5680POPC   C2B71888  35.986  40.537   6.764
 5680POPC   C3B71889  35.978  40.576   7.064
 5680POPC   C4B71890  35.969  40.566   7.364
 5681POPC   NC371891  34.556   9.754   5.564
 5681POPC   PO471892  34.594   9.781   5.864
 5681POPC   GL171893  34.562   9.762   6.164
 5681POPC   GL271894  34.707   9.828   6.164
 5681POPC   C1A71895  34.562   9.706   6.464
 5681POPC   D2A71896  34.560   9.705   6.764
 5681POPC   C3A71897  34.569   9.755   7.064
 5681POPC   C4A71898  34.585   9.732   7.364
 5681POPC   C1B71899  34.835   9.888   6.464
 5681POPC   C2B71900  34.811   9.852   6.764
 5681POPC   C3B71901  34.779   9.876   7.064
 5681POPC   C4B71902  34.796   9.909   7.364
 5682POPC   NC371903   7.462  35.335   5.564
 5682POPC   PO471904   7.390  35.366   5.864
 5682POPC   GL171905   7.463  35.347   6.164
 5682POPC   GL271906   7.441  35.481   6.164
 5682POPC   C1A71907   7.395  35.398   6.464
 5682POPC   D2A71908   7.464  35.391   6.764
 5682POPC   C3A71909   7.411  35.306   7.064
 5682POPC   C4A71910   7.418  35.308   7.364
 5682POPC   C1B71911   7.505  35.606   6.464
 5682POPC   C2B71912   7.466  35.562   6.764
 5682POPC   C3B71913   7.470  35.603   7.064
 5682POPC   C4B71914   7.521  35.583   7.364
 5683POPC   NC371915  16.738  20.585   5.564
 5683POPC   PO471916  16.759  20.615   5.864
 5683POPC   GL171917  16.750  20.617   6.164
 5683POPC   GL271918  16.701  20.532   6.164
 5683POPC   C1A71919  16.693  20.577   6.464
 5683POPC   D2A71920  16.704  20.659   6.764
 5683POPC   C3A71921  16.709  20.613   7.064
 5683POPC   C4A71922  16.718  20.627   7.364
 5683POPC   C1B71923  16.656  20.371   6.464
 5683POPC   C2B71924  16.569  20.408   6.764
 5683POPC   C3B71925  16.616  20.442   7.064
 5683POPC   C4B71926  16.590  20.419   7.364
 5684POPC   NC371927  12.045  15.180   5.564
 5684POPC   PO471928  12.054  15.226   5.864
 5684POPC   GL171929  12.034  15.149   6.164
 5684POPC   GL271930  12.171  15.196   6.164
 5684POPC   C1A71931  12.087  15.195   6.464
 5684POPC   D2A71932  12.060  15.229   6.764
 5684POPC   C3A71933  12.032  15.161   7.064
 5684POPC   C4A71934  12.118  15.213   7.364
 5684POPC   C1B71935  12.330  15.179   6.464
 5684POPC   C2B71936  12.288  15.134   6.764
 5684POPC   C3B71937  12.302  15.210   7.064
 5684POPC   C4B71938  12.306  15.132   7.364
 5685POPC   NC371939  27.642   1.244   5.564
 5685POPC   PO471940  27.643   1.199   5.864
 5685POPC   GL171941  27.568   1.236   6.164
 5685POPC   GL271942  27.677   1.156   6.164
 5685POPC   C1A71943  27.605   1.207   6.464
 5685POPC   D2A71944  27.633   1.248   6.764
 5685POPC   C3A71945  27.578   1.222   7.064
 5685POPC   C4A71946  27.634   1.228   7.364
 5685POPC   C1B71947  27.797   1.050   6.464
 5685POPC   C2B71948  27.749   0.985   6.764
 5685POPC   C3B71949  27.797   1.058   7.064
 5685POPC   C4B71950  27.772   1.031   7.364
 5686POPC   NC371951  24.464  36.912   5.564
 5686POPC   PO471952  24.457  36.950   5.864
 5686POPC   GL171953  24.506  36.905   6.164
 5686POPC   GL271954  24.456  36.793   6.164
 5686POPC   C1A71955  24.522  36.903   6.464
 5686POPC   D2A71956  24.448  36.943   6.764
 5686POPC   C3A71957  24.499  36.853   7.064
 5686POPC   C4A71958  24.466  36.899   7.364
 5686POPC   C1B71959  24.427  36.655   6.464
 5686POPC   C2B71960  24.398  36.616   6.764
 5686POPC   C3B71961  24.481  36.616   7.064
 5686POPC   C4B71962  24.484  36.672   7.364
 5687POPC   NC371963   6.617  19.040   5.564
 5687POPC   PO471964   6.694  19.107   5.864
 5687POPC   GL171965   6.626  19.020   6.164
 5687POPC   GL271966   6.485  18.971   6.164
 5687POPC   C1A71967   6.650  19.082   6.464
 5687POPC   D2A71968   6.623  19.088   6.764
 5687POPC   C3A71969   6.610  19.063   7.064
 5687POPC   C4A71970   6.680  19.022   7.364
 5687POPC   C1B71971   6.389  18.932   6.464
 5687POPC   C2B71972   6.448  18.933   6.764
 5687POPC   C3B71973   6.428  18.962   7.064
 5687POPC   C4B71974   6.445  18.977   7.364
 5688POPC   NC371975  30.732  37.673   5.564
 5688POPC   PO471976  30.716  37.692   5.864
 5688POPC   GL171977  30.716  37.729   6.164
 5688POPC   GL271978  30.606  37.715   6.164
 5688POPC   C1A71979  30.676  37.676   6.464
 5688POPC   D2A71980  30.675  37.640   6.764
 5688POPC   C3A71981  30.691  37.675   7.064
 5688POPC   C4A71982  30.678  37.685   7.364
 5688POPC   C1B71983  30.519  37.829   6.464
 5688POPC   C2B71984  30.499  37.795   6.764
 5688POPC   C3B71985  30.455  37.771   7.064
 5688POPC   C4B71986  30.497  37.787   7.364
 5689POPC   NC371987  36.108  13.647   5.564
 5689POPC   PO471988  36.119  13.581   5.864
 5689POPC   GL171989  36.086  13.654   6.164
 5689POPC   GL271990  36.193  13.544   6.164
 5689POPC   C1A71991  36.133  13.659   6.464
 5689POPC   D2A71992  36.149  13.605   6.764
 5689POPC   C3A71993  36.118  13.592   7.064
 5689POPC   C4A71994  36.151  13.610   7.364
 5689POPC   C1B71995  36.248  13.359   6.464
 5689POPC   C2B71996  36.201  13.351   6.764
 5689POPC   C3B71997  36.180  13.362   7.064
 5689POPC   C4B71998  36.259  13.384   7.364
 5690POPC   NC371999  22.944   5.884   5.564
 5690POPC   PO472000  22.940   5.846   5.864
 5690POPC   GL172001  22.976   5.861   6.164
 5690POPC   GL272002  23.079   5.915   6.164
 5690POPC   C1A72003  22.932   5.914   6.464
 5690POPC   D2A72004  22.956   5.849   6.764
 5690POPC   C3A72005  22.968   5.838   7.064
 5690POPC   C4A72006  22.914   5.848   7.364
 5690POPC   C1B72007  23.169   5.866   6.464
 5690POPC   C2B72008  23.234   5.840   6.764
 5690POPC   C3B72009  23.149   5.895   7.064
 5690POPC   C4B72010  23.143   5.930   7.364
 5691POPC   NC372011  33.017  22.187   5.564
 5691POPC   PO472012  32.998  22.127   5.864
 5691POPC   GL172013  33.067  22.132   6.164
 5691POPC   GL272014  32.891  22.174   6.164
 5691POPC   C1A72015  33.031  22.130   6.464
 5691POPC   D2A72016  33.001  22.115   6.764
 5691POPC   C3A72017  33.053  22.150   7.064
 5691POPC   C4A72018  33.018  22.131   7.364
 5691POPC   C1B72019  32.841  22.256   6.464
 5691POPC   C2B72020  32.798  22.245   6.764
 5691POPC   C3B72021  32.829  22.277   7.064
 5691POPC   C4B72022  32.810  22.290   7.364
 5692POPC   NC372023  44.686  37.648   5.564
 5692POPC   PO472024  44.655  37.701   5.864
 5692POPC   GL172025  44.692  37.694   6.164
 5692POPC   GL272026  44.509  37.663   6.164
 5692POPC   C1A72027  44.625  37.649   6.464
 5692POPC   D2A72028  44.700  37.723   6.764
 5692POPC   C3A72029  44.662  37.695   7.064
 5692POPC   C4A72030  44.643  37.699   7.364
 5692POPC   C1B72031  44.433  37.565   6.464
 5692POPC   C2B72032  44.456  37.555   6.764
 5692POPC   C3B72033  44.449  37.603   7.064
 5692POPC   C4B72034  44.417  37.545   7.364
 5693POPC   NC372035  42.347  15.223   5.564
 5693POPC   PO472036  42.362  15.178   5.864
 5693POPC   GL172037  42.309  15.174   6.164
 5693POPC   GL272038  42.197  15.219   6.164
 5693POPC   C1A72039  42.360  15.207   6.464
 5693POPC   D2A72040  42.292  15.188   6.764
 5693POPC   C3A72041  42.285  15.155   7.064
 5693POPC   C4A72042  42.366  15.184   7.364
 5693POPC   C1B72043  42.058  15.238   6.464
 5693POPC   C2B72044  42.042  15.215   6.764
 5693POPC   C3B72045  42.073  15.168   7.064
 5693POPC   C4B72046  42.085  15.185   7.364
 5694POPC   NC372047  16.763   0.474   5.564
 5694POPC   PO472048  16.739   0.392   5.864
 5694POPC   GL172049  16.699   0.476   6.164
 5694POPC   GL272050  16.749   0.528   6.164
 5694POPC   C1A72051  16.758   0.418   6.464
 5694POPC   D2A72052  16.721   0.390   6.764
 5694POPC   C3A72053  16.746   0.389   7.064
 5694POPC   C4A72054  16.764   0.419   7.364
 5694POPC   C1B72055  16.795   0.710   6.464
 5694POPC   C2B72056  16.796   0.691   6.764
 5694POPC   C3B72057  16.756   0.709   7.064
 5694POPC   C4B72058  16.823   0.654   7.364
 5695POPC   NC372059  16.718  11.296   5.564
 5695POPC   PO472060  16.734  11.339   5.864
 5695POPC   GL172061  16.737  11.286   6.164
 5695POPC   GL272062  16.718  11.462   6.164
 5695POPC   C1A72063  16.742  11.273   6.464
 5695POPC   D2A72064  16.719  11.349   6.764
 5695POPC   C3A72065  16.726  11.274   7.064
 5695POPC   C4A72066  16.748  11.320   7.364
 5695POPC   C1B72067  16.734  11.580   6.464
 5695POPC   C2B72068  16.777  11.575   6.764
 5695POPC   C3B72069  16.761  11.524   7.064
 5695POPC   C4B72070  16.789  11.564   7.364
 5696POPC   NC372071   0.484  27.606   5.564
 5696POPC   PO472072   0.420  27.633   5.864
 5696POPC   GL172073   0.411  27.620   6.164
 5696POPC   GL272074   0.578  27.635   6.164
 5696POPC   C1A72075   0.422  27.576   6.464
 5696POPC   D2A72076   0.441  27.566   6.764
 5696POPC   C3A72077   0.487  27.623   7.064
 5696POPC   C4A72078   0.430  27.620   7.364
 5696POPC   C1B72079   0.663  27.659   6.464
 5696POPC   C2B72080   0.650  27.601   6.764
 5696POPC   C3B72081   0.678  27.657   7.064
 5696POPC   C4B72082   0.726  27.638   7.364
 5697POPC   NC372083   5.824   5.879   5.564
 5697POPC   PO472084   5.884   5.822   5.864
 5697POPC   GL172085   5.820   5.830   6.164
 5697POPC   GL272086   5.701   5.805   6.164
 5697POPC   C1A72087   5.842   5.901   6.464
 5697POPC   D2A72088   5.915   5.853   6.764
 5697POPC   C3A72089   5.885   5.915   7.064
 5697POPC   C4A72090   5.887   5.865   7.364
 5697POPC   C1B72091   5.600   5.858   6.464
 5697POPC   C2B72092   5.619   5.842   6.764
 5697POPC   C3B72093   5.579   5.829   7.064
 5697POPC   C4B72094   5.630   5.767   7.364
 5698POPC   NC372095   1.958  37.655   5.564
 5698POPC   PO472096   1.994  37.712   5.864
 5698POPC   GL172097   2.033  37.717   6.164
 5698POPC   GL272098   2.041  37.762   6.164
 5698POPC   C1A72099   1.957  37.639   6.464
 5698POPC   D2A72100   1.989  37.633   6.764
 5698POPC   C3A72101   2.012  37.721   7.064
 5698POPC   C4A72102   1.998  37.721   7.364
 5698POPC   C1B72103   2.140  37.897   6.464
 5698POPC   C2B72104   2.162  37.926   6.764
 5698POPC   C3B72105   2.167  37.885   7.064
 5698POPC   C4B72106   2.142  37.841   7.364
 5699POPC   NC372107  34.570  40.763   5.564
 5699POPC   PO472108  34.625  40.747   5.864
 5699POPC   GL172109  34.602  40.817   6.164
 5699POPC   GL272110  34.409  40.766   6.164
 5699POPC   C1A72111  34.591  40.780   6.464
 5699POPC   D2A72112  34.612  40.755   6.764
 5699POPC   C3A72113  34.575  40.761   7.064
 5699POPC   C4A72114  34.539  40.750   7.364
 5699POPC   C1B72115  34.353  40.785   6.464
 5699POPC   C2B72116  34.301  40.775   6.764
 5699POPC   C3B72117  34.337  40.709   7.064
 5699POPC   C4B72118  34.310  40.726   7.364
 5700POPC   NC372119  26.006  34.568   5.564
 5700POPC   PO472120  26.052  34.609   5.864
 5700POPC   GL172121  26.054  34.553   6.164
 5700POPC   GL272122  26.156  34.625   6.164
 5700POPC   C1A72123  25.996  34.582   6.464
 5700POPC   D2A72124  26.084  34.532   6.764
 5700POPC   C3A72125  26.083  34.577   7.064
 5700POPC   C4A72126  26.088  34.617   7.364
 5700POPC   C1B72127  26.270  34.713   6.464
 5700POPC   C2B72128  26.265  34.689   6.764
 5700POPC   C3B72129  26.291  34.673   7.064
 5700POPC   C4B72130  26.211  34.714   7.364
 5701POPC   NC372131  15.951  30.660   5.564
 5701POPC   PO472132  15.967  30.710   5.864
 5701POPC   GL172133  16.001  30.657   6.164
 5701POPC   GL272134  15.888  30.747   6.164
 5701POPC   C1A72135  15.944  30.666   6.464
 5701POPC   D2A72136  15.986  30.694   6.764
 5701POPC   C3A72137  15.971  30.721   7.064
 5701POPC   C4A72138  15.970  30.731   7.364
 5701POPC   C1B72139  15.673  30.817   6.464
 5701POPC   C2B72140  15.755  30.815   6.764
 5701POPC   C3B72141  15.736  30.767   7.064
 5701POPC   C4B72142  15.727  30.763   7.364
 5702POPC   NC372143  36.940  17.488   5.564
 5702POPC   PO472144  36.918  17.510   5.864
 5702POPC   GL172145  36.872  17.521   6.164
 5702POPC   GL272146  36.838  17.558   6.164
 5702POPC   C1A72147  36.922  17.468   6.464
 5702POPC   D2A72148  36.884  17.459   6.764
 5702POPC   C3A72149  36.895  17.470   7.064
 5702POPC   C4A72150  36.899  17.478   7.364
 5702POPC   C1B72151  36.738  17.651   6.464
 5702POPC   C2B72152  36.709  17.678   6.764
 5702POPC   C3B72153  36.741  17.695   7.064
 5702POPC   C4B72154  36.731  17.701   7.364
 5703POPC   NC372155  20.586   1.993   5.564
 5703POPC   PO472156  20.569   1.983   5.864
 5703POPC   GL172157  20.650   1.981   6.164
 5703POPC   GL272158  20.495   1.918   6.164
 5703POPC   C1A72159  20.576   2.030   6.464
 5703POPC   D2A72160  20.638   1.947   6.764
 5703POPC   C3A72161  20.569   2.040   7.064
 5703POPC   C4A72162  20.582   2.004   7.364
 5703POPC   C1B72163  20.466   1.813   6.464
 5703POPC   C2B72164  20.416   1.807   6.764
 5703POPC   C3B72165  20.489   1.816   7.064
 5703POPC   C4B72166  20.423   1.772   7.364
 5704POPC   NC372167  19.865  43.888   5.564
 5704POPC   PO472168  19.824  43.874   5.864
 5704POPC   GL172169  19.853  43.847   6.164
 5704POPC   GL272170  19.717  43.945   6.164
 5704POPC   C1A72171  19.790  43.870   6.464
 5704POPC   D2A72172  19.831  43.885   6.764
 5704POPC   C3A72173  19.806  43.923   7.064
 5704POPC   C4A72174  19.824  43.927   7.364
 5704POPC   C1B72175  19.669  44.052   6.464
 5704POPC   C2B72176  19.628  44.085   6.764
 5704POPC   C3B72177  19.685  44.034   7.064
 5704POPC   C4B72178  19.641  44.066   7.364
 5705POPC   NC372179   1.980   1.215   5.564
 5705POPC   PO472180   1.953   1.188   5.864
 5705POPC   GL172181   2.029   1.241   6.164
 5705POPC   GL272182   2.121   1.159   6.164
 5705POPC   C1A72183   1.964   1.232   6.464
 5705POPC   D2A72184   1.965   1.242   6.764
 5705POPC   C3A72185   1.967   1.218   7.064
 5705POPC   C4A72186   2.027   1.183   7.364
 5705POPC   C1B72187   2.192   1.052   6.464
 5705POPC   C2B72188   2.179   1.053   6.764
 5705POPC   C3B72189   2.189   1.059   7.064
 5705POPC   C4B72190   2.131   1.071   7.364
 5706POPC   NC372191  31.511   8.171   5.564
 5706POPC   PO472192  31.482   8.158   5.864
 5706POPC   GL172193  31.497   8.173   6.164
 5706POPC   GL272194  31.592   8.191   6.164
 5706POPC   C1A72195  31.505   8.173   6.464
 5706POPC   D2A72196  31.447   8.185   6.764
 5706POPC   C3A72197  31.521   8.202   7.064
 5706POPC   C4A72198  31.447   8.167   7.364
 5706POPC   C1B72199  31.738   8.103   6.464
 5706POPC   C2B72200  31.710   8.143   6.764
 5706POPC   C3B72201  31.683   8.149   7.064
 5706POPC   C4B72202  31.698   8.124   7.364
 5707POPC   NC372203  18.264  29.112   5.564
 5707POPC   PO472204  18.323  29.107   5.864
 5707POPC   GL172205  18.303  29.183   6.164
 5707POPC   GL272206  18.324  29.286   6.164
 5707POPC   C1A72207  18.329  29.128   6.464
 5707POPC   D2A72208  18.243  29.127   6.764
 5707POPC   C3A72209  18.322  29.118   7.064
 5707POPC   C4A72210  18.262  29.192   7.364
 5707POPC   C1B72211  18.362  29.328   6.464
 5707POPC   C2B72212  18.438  29.372   6.764
 5707POPC   C3B72213  18.344  29.409   7.064
 5707POPC   C4B72214  18.410  29.345   7.364
 5708POPC   NC372215  17.498   5.060   5.564
 5708POPC   PO472216  17.504   5.067   5.864
 5708POPC   GL172217  17.523   5.088   6.164
 5708POPC   GL272218  17.383   4.964   6.164
 5708POPC   C1A72219  17.521   5.074   6.464
 5708POPC   D2A72220  17.477   5.101   6.764
 5708POPC   C3A72221  17.549   5.120   7.064
 5708POPC   C4A72222  17.531   5.096   7.364
 5708POPC   C1B72223  17.300   4.923   6.464
 5708POPC   C2B72224  17.389   4.918   6.764
 5708POPC   C3B72225  17.352   4.881   7.064
 5708POPC   C4B72226  17.290   4.921   7.364
 5709POPC   NC372227  33.802  33.050   5.564
 5709POPC   PO472228  33.823  33.053   5.864
 5709POPC   GL172229  33.788  33.005   6.164
 5709POPC   GL272230  33.869  32.984   6.164
 5709POPC   C1A72231  33.754  33.056   6.464
 5709POPC   D2A72232  33.790  33.027   6.764
 5709POPC   C3A72233  33.818  32.994   7.064
 5709POPC   C4A72234  33.779  33.015   7.364
 5709POPC   C1B72235  33.993  32.868   6.464
 5709POPC   C2B72236  33.967  32.826   6.764
 5709POPC   C3B72237  33.947  32.800   7.064
 5709POPC   C4B72238  34.025  32.878   7.364
 5710POPC   NC372239  43.882  37.681   5.564
 5710POPC   PO472240  43.849  37.720   5.864
 5710POPC   GL172241  43.852  37.719   6.164
 5710POPC   GL272242  43.788  37.686   6.164
 5710POPC   C1A72243  43.908  37.644   6.464
 5710POPC   D2A72244  43.929  37.654   6.764
 5710POPC   C3A72245  43.843  37.633   7.064
 5710POPC   C4A72246  43.851  37.661   7.364
 5710POPC   C1B72247  43.591  37.746   6.464
 5710POPC   C2B72248  43.687  37.691   6.764
 5710POPC   C3B72249  43.660  37.749   7.064
 5710POPC   C4B72250  43.687  37.708   7.364
 5711POPC   NC372251  40.750   7.416   5.564
 5711POPC   PO472252  40.814   7.371   5.864
 5711POPC   GL172253  40.787   7.426   6.164
 5711POPC   GL272254  40.639   7.408   6.164
 5711POPC   C1A72255  40.812   7.437   6.464
 5711POPC   D2A72256  40.756   7.462   6.764
 5711POPC   C3A72257  40.794   7.441   7.064
 5711POPC   C4A72258  40.781   7.376   7.364
 5711POPC   C1B72259  40.506   7.378   6.464
 5711POPC   C2B72260  40.501   7.433   6.764
 5711POPC   C3B72261  40.542   7.370   7.064
 5711POPC   C4B72262  40.560   7.380   7.364
 5712POPC   NC372263   9.001  25.266   5.564
 5712POPC   PO472264   8.992  25.237   5.864
 5712POPC   GL172265   8.929  25.309   6.164
 5712POPC   GL272266   8.885  25.359   6.164
 5712POPC   C1A72267   8.999  25.238   6.464
 5712POPC   D2A72268   8.939  25.294   6.764
 5712POPC   C3A72269   8.952  25.308   7.064
 5712POPC   C4A72270   9.002  25.279   7.364
 5712POPC   C1B72271   8.869  25.483   6.464
 5712POPC   C2B72272   8.867  25.467   6.764
 5712POPC   C3B72273   8.813  25.446   7.064
 5712POPC   C4B72274   8.887  25.531   7.364
 5713POPC   NC372275  22.975  18.241   5.564
 5713POPC   PO472276  22.908  18.269   5.864
 5713POPC   GL172277  22.905  18.302   6.164
 5713POPC   GL272278  22.815  18.340   6.164
 5713POPC   C1A72279  22.972  18.322   6.464
 5713POPC   D2A72280  22.956  18.237   6.764
 5713POPC   C3A72281  22.896  18.282   7.064
 5713POPC   C4A72282  22.895  18.239   7.364
 5713POPC   C1B72283  22.814  18.465   6.464
 5713POPC   C2B72284  22.812  18.481   6.764
 5713POPC   C3B72285  22.811  18.501   7.064
 5713POPC   C4B72286  22.770  18.447   7.364
 5714POPC   NC372287  14.392  26.828   5.564
 5714POPC   PO472288  14.445  26.852   5.864
 5714POPC   GL172289  14.354  26.785   6.164
 5714POPC   GL272290  14.265  26.700   6.164
 5714POPC   C1A72291  14.379  26.859   6.464
 5714POPC   D2A72292  14.358  26.782   6.764
 5714POPC   C3A72293  14.398  26.834   7.064
 5714POPC   C4A72294  14.412  26.837   7.364
 5714POPC   C1B72295  14.165  26.678   6.464
 5714POPC   C2B72296  14.237  26.648   6.764
 5714POPC   C3B72297  14.218  26.657   7.064
 5714POPC   C4B72298  14.246  26.648   7.364
 5715POPC   NC372299  41.548  36.160   5.564
 5715POPC   PO472300  41.570  36.142   5.864
 5715POPC   GL172301  41.601  36.163   6.164
 5715POPC   GL272302  41.666  36.266   6.164
 5715POPC   C1A72303  41.589  36.120   6.464
 5715POPC   D2A72304  41.535  36.118   6.764
 5715POPC   C3A72305  41.536  36.130   7.064
 5715POPC   C4A72306  41.566  36.116   7.364
 5715POPC   C1B72307  41.759  36.277   6.464
 5715POPC   C2B72308  41.724  36.282   6.764
 5715POPC   C3B72309  41.757  36.364   7.064
 5715POPC   C4B72310  41.679  36.303   7.364
 5716POPC   NC372311  33.815  19.824   5.564
 5716POPC   PO472312  33.765  19.828   5.864
 5716POPC   GL172313  33.755  19.876   6.164
 5716POPC   GL272314  33.915  19.869   6.164
 5716POPC   C1A72315  33.842  19.797   6.464
 5716POPC   D2A72316  33.812  19.795   6.764
 5716POPC   C3A72317  33.821  19.857   7.064
 5716POPC   C4A72318  33.776  19.826   7.364
 5716POPC   C1B72319  34.007  19.993   6.464
 5716POPC   C2B72320  33.995  19.985   6.764
 5716POPC   C3B72321  34.033  19.933   7.064
 5716POPC   C4B72322  34.034  19.928   7.364
 5717POPC   NC372323  28.330  15.908   5.564
 5717POPC   PO472324  28.358  15.999   5.864
 5717POPC   GL172325  28.389  15.929   6.164
 5717POPC   GL272326  28.497  15.814   6.164
 5717POPC   C1A72327  28.406  15.965   6.464
 5717POPC   D2A72328  28.410  15.969   6.764
 5717POPC   C3A72329  28.358  15.972   7.064
 5717POPC   C4A72330  28.377  15.973   7.364
 5717POPC   C1B72331  28.518  15.751   6.464
 5717POPC   C2B72332  28.507  15.781   6.764
 5717POPC   C3B72333  28.530  15.752   7.064
 5717POPC   C4B72334  28.552  15.792   7.364
 5718POPC   NC372335   9.743  17.518   5.564
 5718POPC   PO472336   9.790  17.508   5.864
 5718POPC   GL172337   9.764  17.473   6.164
 5718POPC   GL272338   9.581  17.500   6.164
 5718POPC   C1A72339   9.762  17.519   6.464
 5718POPC   D2A72340   9.790  17.475   6.764
 5718POPC   C3A72341   9.714  17.483   7.064
 5718POPC   C4A72342   9.713  17.488   7.364
 5718POPC   C1B72343   9.488  17.471   6.464
 5718POPC   C2B72344   9.458  17.439   6.764
 5718POPC   C3B72345   9.540  17.514   7.064
 5718POPC   C4B72346   9.520  17.512   7.364
 5719POPC   NC372347  25.277  20.585   5.564
 5719POPC   PO472348  25.286  20.577   5.864
 5719POPC   GL172349  25.262  20.564   6.164
 5719POPC   GL272350  25.160  20.733   6.164
 5719POPC   C1A72351  25.286  20.610   6.464
 5719POPC   D2A72352  25.315  20.645   6.764
 5719POPC   C3A72353  25.279  20.612   7.064
 5719POPC   C4A72354  25.243  20.626   7.364
 5719POPC   C1B72355  25.090  20.833   6.464
 5719POPC   C2B72356  25.080  20.798   6.764
 5719POPC   C3B72357  25.080  20.832   7.064
 5719POPC   C4B72358  25.068  20.800   7.364
 5720POPC   NC372359  22.187  30.724   5.564
 5720POPC   PO472360  22.169  30.694   5.864
 5720POPC   GL172361  22.136  30.699   6.164
 5720POPC   GL272362  22.174  30.847   6.164
 5720POPC   C1A72363  22.209  30.687   6.464
 5720POPC   D2A72364  22.169  30.666   6.764
 5720POPC   C3A72365  22.114  30.740   7.064
 5720POPC   C4A72366  22.136  30.662   7.364
 5720POPC   C1B72367  22.213  30.898   6.464
 5720POPC   C2B72368  22.260  30.982   6.764
 5720POPC   C3B72369  22.246  30.938   7.064
 5720POPC   C4B72370  22.245  30.989   7.364
 5721POPC   NC372371  38.482  31.448   5.564
 5721POPC   PO472372  38.467  31.521   5.864
 5721POPC   GL172373  38.435  31.519   6.164
 5721POPC   GL272374  38.584  31.417   6.164
 5721POPC   C1A72375  38.504  31.427   6.464
 5721POPC   D2A72376  38.465  31.424   6.764
 5721POPC   C3A72377  38.489  31.488   7.064
 5721POPC   C4A72378  38.417  31.465   7.364
 5721POPC   C1B72379  38.731  31.391   6.464
 5721POPC   C2B72380  38.702  31.412   6.764
 5721POPC   C3B72381  38.743  31.396   7.064
 5721POPC   C4B72382  38.710  31.430   7.364
 5722POPC   NC372383  40.755   8.163   5.564
 5722POPC   PO472384  40.786   8.219   5.864
 5722POPC   GL172385  40.807   8.221   6.164
 5722POPC   GL272386  40.951   8.170   6.164
 5722POPC   C1A72387  40.799   8.200   6.464
 5722POPC   D2A72388  40.755   8.194   6.764
 5722POPC   C3A72389  40.747   8.243   7.064
 5722POPC   C4A72390  40.750   8.246   7.364
 5722POPC   C1B72391  41.025   8.168   6.464
 5722POPC   C2B72392  40.995   8.193   6.764
 5722POPC   C3B72393  41.067   8.175   7.064
 5722POPC   C4B72394  41.080   8.241   7.364
 5723POPC   NC372395  32.207  36.860   5.564
 5723POPC   PO472396  32.223  36.933   5.864
 5723POPC   GL172397  32.256  36.952   6.164
 5723POPC   GL272398  32.287  36.987   6.164
 5723POPC   C1A72399  32.262  36.878   6.464
 5723POPC   D2A72400  32.227  36.884   6.764
 5723POPC   C3A72401  32.235  36.953   7.064
 5723POPC   C4A72402  32.265  36.921   7.364
 5723POPC   C1B72403  32.309  37.099   6.464
 5723POPC   C2B72404  32.293  37.175   6.764
 5723POPC   C3B72405  32.378  37.116   7.064
 5723POPC   C4B72406  32.288  37.164   7.364
 5724POPC   NC372407  38.494  17.457   5.564
 5724POPC   PO472408  38.453  17.528   5.864
 5724POPC   GL172409  38.429  17.501   6.164
 5724POPC   GL272410  38.526  17.368   6.164
 5724POPC   C1A72411  38.454  17.549   6.464
 5724POPC   D2A72412  38.438  17.533   6.764
 5724POPC   C3A72413  38.408  17.473   7.064
 5724POPC   C4A72414  38.505  17.521   7.364
 5724POPC   C1B72415  38.539  17.226   6.464
 5724POPC   C2B72416  38.538  17.241   6.764
 5724POPC   C3B72417  38.493  17.232   7.064
 5724POPC   C4B72418  38.564  17.296   7.364
 5725POPC   NC372419  36.097  33.071   5.564
 5725POPC   PO472420  36.173  33.022   5.864
 5725POPC   GL172421  36.093  33.019   6.164
 5725POPC   GL272422  36.213  33.040   6.164
 5725POPC   C1A72423  36.109  32.989   6.464
 5725POPC   D2A72424  36.149  33.006   6.764
 5725POPC   C3A72425  36.104  33.047   7.064
 5725POPC   C4A72426  36.100  32.991   7.364
 5725POPC   C1B72427  36.345  33.057   6.464
 5725POPC   C2B72428  36.367  33.049   6.764
 5725POPC   C3B72429  36.357  33.054   7.064
 5725POPC   C4B72430  36.365  32.973   7.364
 5726POPC   NC372431   4.306   5.914   5.564
 5726POPC   PO472432   4.346   5.864   5.864
 5726POPC   GL172433   4.334   5.912   6.164
 5726POPC   GL272434   4.447   5.755   6.164
 5726POPC   C1A72435   4.319   5.914   6.464
 5726POPC   D2A72436   4.329   5.890   6.764
 5726POPC   C3A72437   4.333   5.911   7.064
 5726POPC   C4A72438   4.286   5.820   7.364
 5726POPC   C1B72439   4.445   5.685   6.464
 5726POPC   C2B72440   4.485   5.708   6.764
 5726POPC   C3B72441   4.515   5.711   7.064
 5726POPC   C4B72442   4.441   5.705   7.364
 5727POPC   NC372443  26.864  27.563   5.564
 5727POPC   PO472444  26.831  27.602   5.864
 5727POPC   GL172445  26.818  27.620   6.164
 5727POPC   GL272446  26.900  27.628   6.164
 5727POPC   C1A72447  26.844  27.598   6.464
 5727POPC   D2A72448  26.784  27.621   6.764
 5727POPC   C3A72449  26.867  27.591   7.064
 5727POPC   C4A72450  26.795  27.613   7.364
 5727POPC   C1B72451  26.999  27.763   6.464
 5727POPC   C2B72452  27.048  27.764   6.764
 5727POPC   C3B72453  26.975  27.744   7.064
 5727POPC   C4B72454  27.054  27.749   7.364
 5728POPC   NC372455   9.768  43.852   5.564
 5728POPC   PO472456   9.703  43.877   5.864
 5728POPC   GL172457   9.747  43.932   6.164
 5728POPC   GL272458   9.618  43.967   6.164
 5728POPC   C1A72459   9.741  43.892   6.464
 5728POPC   D2A72460   9.714  43.881   6.764
 5728POPC   C3A72461   9.716  43.921   7.064
 5728POPC   C4A72462   9.790  43.885   7.364
 5728POPC   C1B72463   9.551  44.043   6.464
 5728POPC   C2B72464   9.578  44.027   6.764
 5728POPC   C3B72465   9.527  44.041   7.064
 5728POPC   C4B72466   9.511  44.063   7.364
 5729POPC   NC372467  39.983   9.730   5.564
 5729POPC   PO472468  40.025   9.741   5.864
 5729POPC   GL172469  39.992   9.706   6.164
 5729POPC   GL272470  39.899   9.793   6.164
 5729POPC   C1A72471  39.977   9.754   6.464
 5729POPC   D2A72472  40.029   9.723   6.764
 5729POPC   C3A72473  40.000   9.755   7.064
 5729POPC   C4A72474  39.991   9.776   7.364
 5729POPC   C1B72475  39.777   9.750   6.464
 5729POPC   C2B72476  39.720   9.825   6.764
 5729POPC   C3B72477  39.792   9.767   7.064
 5729POPC   C4B72478  39.716   9.781   7.364
 5730POPC   NC372479  40.017  10.523   5.564
 5730POPC   PO472480  39.963  10.506   5.864
 5730POPC   GL172481  40.043  10.543   6.164
 5730POPC   GL272482  40.122  10.441   6.164
 5730POPC   C1A72483  39.964  10.491   6.464
 5730POPC   D2A72484  39.969  10.524   6.764
 5730POPC   C3A72485  39.973  10.484   7.064
 5730POPC   C4A72486  40.053  10.561   7.364
 5730POPC   C1B72487  40.256  10.357   6.464
 5730POPC   C2B72488  40.228  10.416   6.764
 5730POPC   C3B72489  40.162  10.408   7.064
 5730POPC   C4B72490  40.240  10.416   7.364
 5731POPC   NC372491   6.635  26.865   5.564
 5731POPC   PO472492   6.652  26.836   5.864
 5731POPC   GL172493   6.602  26.839   6.164
 5731POPC   GL272494   6.563  26.914   6.164
 5731POPC   C1A72495   6.676  26.852   6.464
 5731POPC   D2A72496   6.671  26.841   6.764
 5731POPC   C3A72497   6.688  26.779   7.064
 5731POPC   C4A72498   6.617  26.862   7.364
 5731POPC   C1B72499   6.598  27.052   6.464
 5731POPC   C2B72500   6.607  27.043   6.764
 5731POPC   C3B72501   6.530  27.049   7.064
 5731POPC   C4B72502   6.558  27.066   7.364
 5732POPC   NC372503  31.509  32.999   5.564
 5732POPC   PO472504  31.502  33.008   5.864
 5732POPC   GL172505  31.482  33.013   6.164
 5732POPC   GL272506  31.558  33.127   6.164
 5732POPC   C1A72507  31.487  33.003   6.464
 5732POPC   D2A72508  31.499  33.059   6.764
 5732POPC   C3A72509  31.503  33.014   7.064
 5732POPC   C4A72510  31.480  33.055   7.364
 5732POPC   C1B72511  31.701  33.190   6.464
 5732POPC   C2B72512  31.691  33.177   6.764
 5732POPC   C3B72513  31.702  33.158   7.064
 5732POPC   C4B72514  31.690  33.184   7.364
 5733POPC   NC372515   2.011  13.597   5.564
 5733POPC   PO472516   1.978  13.627   5.864
 5733POPC   GL172517   1.978  13.603   6.164
 5733POPC   GL272518   1.847  13.583   6.164
 5733POPC   C1A72519   1.957  13.657   6.464
 5733POPC   D2A72520   1.962  13.616   6.764
 5733POPC   C3A72521   2.025  13.640   7.064
 5733POPC   C4A72522   2.026  13.661   7.364
 5733POPC   C1B72523   1.727  13.547   6.464
 5733POPC   C2B72524   1.756  13.570   6.764
 5733POPC   C3B72525   1.751  13.561   7.064
 5733POPC   C4B72526   1.762  13.554   7.364
 5734POPC   NC372527  22.950  29.965   5.564
 5734POPC   PO472528  22.981  29.914   5.864
 5734POPC   GL172529  22.921  29.899   6.164
 5734POPC   GL272530  22.946  29.827   6.164
 5734POPC   C1A72531  22.931  29.957   6.464
 5734POPC   D2A72532  22.975  29.888   6.764
 5734POPC   C3A72533  22.946  29.948   7.064
 5734POPC   C4A72534  22.937  29.878   7.364
 5734POPC   C1B72535  22.911  29.628   6.464
 5734POPC   C2B72536  22.923  29.641   6.764
 5734POPC   C3B72537  22.929  29.644   7.064
 5734POPC   C4B72538  22.884  29.653   7.364
 5735POPC   NC372539  29.937  44.630   5.564
 5735POPC   PO472540  29.880  44.671   5.864
 5735POPC   GL172541  29.912  44.680   6.164
 5735POPC   GL272542  29.782  44.735   6.164
 5735POPC   C1A72543  29.907  44.707   6.464
 5735POPC   D2A72544  29.913  44.630   6.764
 5735POPC   C3A72545  29.938  44.629   7.064
 5735POPC   C4A72546  29.956  44.711   7.364
 5735POPC   C1B72547  29.679  44.815   6.464
 5735POPC   C2B72548  29.664  44.758   6.764
 5735POPC   C3B72549  29.735  44.781   7.064
 5735POPC   C4B72550  29.740  44.785   7.364
 5736POPC   NC372551   7.391  12.845   5.564
 5736POPC   PO472552   7.410  12.856   5.864
 5736POPC   GL172553   7.382  12.806   6.164
 5736POPC   GL272554   7.588  12.776   6.164
 5736POPC   C1A72555   7.401  12.837   6.464
 5736POPC   D2A72556   7.385  12.891   6.764
 5736POPC   C3A72557   7.378  12.878   7.064
 5736POPC   C4A72558   7.401  12.878   7.364
 5736POPC   C1B72559   7.661  12.728   6.464
 5736POPC   C2B72560   7.654  12.800   6.764
 5736POPC   C3B72561   7.679  12.769   7.064
 5736POPC   C4B72562   7.626  12.766   7.364
 5737POPC   NC372563  15.139  14.402   5.564
 5737POPC   PO472564  15.171  14.450   5.864
 5737POPC   GL172565  15.192  14.376   6.164
 5737POPC   GL272566  15.160  14.503   6.164
 5737POPC   C1A72567  15.156  14.391   6.464
 5737POPC   D2A72568  15.197  14.450   6.764
 5737POPC   C3A72569  15.206  14.400   7.064
 5737POPC   C4A72570  15.148  14.367   7.364
 5737POPC   C1B72571  15.051  14.653   6.464
 5737POPC   C2B72572  15.078  14.595   6.764
 5737POPC   C3B72573  15.065  14.610   7.064
 5737POPC   C4B72574  15.018  14.656   7.364
 5738POPC   NC372575  34.573  42.289   5.564
 5738POPC   PO472576  34.527  42.309   5.864
 5738POPC   GL172577  34.606  42.316   6.164
 5738POPC   GL272578  34.528  42.469   6.164
 5738POPC   C1A72579  34.545  42.301   6.464
 5738POPC   D2A72580  34.612  42.307   6.764
 5738POPC   C3A72581  34.593  42.292   7.064
 5738POPC   C4A72582  34.553  42.333   7.364
 5738POPC   C1B72583  34.457  42.528   6.464
 5738POPC   C2B72584  34.408  42.493   6.764
 5738POPC   C3B72585  34.400  42.518   7.064
 5738POPC   C4B72586  34.397  42.582   7.364
 5739POPC   NC372587  38.417  19.101   5.564
 5739POPC   PO472588  38.474  19.032   5.864
 5739POPC   GL172589  38.482  19.101   6.164
 5739POPC   GL272590  38.549  19.164   6.164
 5739POPC   C1A72591  38.437  19.061   6.464
 5739POPC   D2A72592  38.497  19.012   6.764
 5739POPC   C3A72593  38.448  19.011   7.064
 5739POPC   C4A72594  38.497  19.098   7.364
 5739POPC   C1B72595  38.539  19.258   6.464
 5739POPC   C2B72596  38.607  19.245   6.764
 5739POPC   C3B72597  38.621  19.314   7.064
 5739POPC   C4B72598  38.623  19.233   7.364
 5740POPC   NC372599  17.538  26.072   5.564
 5740POPC   PO472600  17.490  26.054   5.864
 5740POPC   GL172601  17.462  25.999   6.164
 5740POPC   GL272602  17.574  26.132   6.164
 5740POPC   C1A72603  17.544  26.022   6.464
 5740POPC   D2A72604  17.457  26.030   6.764
 5740POPC   C3A72605  17.488  26.014   7.064
 5740POPC   C4A72606  17.553  26.004   7.364
 5740POPC   C1B72607  17.712  26.217   6.464
 5740POPC   C2B72608  17.689  26.152   6.764
 5740POPC   C3B72609  17.689  26.151   7.064
 5740POPC   C4B72610  17.733  26.183   7.364
 5741POPC   NC372611   5.054   8.184   5.564
 5741POPC   PO472612   5.046   8.178   5.864
 5741POPC   GL172613   5.125   8.243   6.164
 5741POPC   GL272614   5.069   8.051   6.164
 5741POPC   C1A72615   5.109   8.240   6.464
 5741POPC   D2A72616   5.086   8.176   6.764
 5741POPC   C3A72617   5.070   8.153   7.064
 5741POPC   C4A72618   5.106   8.225   7.364
 5741POPC   C1B72619   5.033   7.982   6.464
 5741POPC   C2B72620   5.005   7.909   6.764
 5741POPC   C3B72621   5.061   7.987   7.064
 5741POPC   C4B72622   5.101   7.909   7.364
 5742POPC   NC372623  17.496   5.862   5.564
 5742POPC   PO472624  17.460   5.916   5.864
 5742POPC   GL172625  17.538   5.910   6.164
 5742POPC   GL272626  17.593   5.883   6.164
 5742POPC   C1A72627  17.493   5.916   6.464
 5742POPC   D2A72628  17.503   5.844   6.764
 5742POPC   C3A72629  17.491   5.856   7.064
 5742POPC   C4A72630  17.477   5.844   7.364
 5742POPC   C1B72631  17.775   5.978   6.464
 5742POPC   C2B72632  17.768   6.012   6.764
 5742POPC   C3B72633  17.755   5.951   7.064
 5742POPC   C4B72634  17.688   6.005   7.364
 5743POPC   NC372635   4.291  12.805   5.564
 5743POPC   PO472636   4.326  12.806   5.864
 5743POPC   GL172637   4.288  12.811   6.164
 5743POPC   GL272638   4.228  12.969   6.164
 5743POPC   C1A72639   4.278  12.843   6.464
 5743POPC   D2A72640   4.366  12.886   6.764
 5743POPC   C3A72641   4.297  12.849   7.064
 5743POPC   C4A72642   4.351  12.890   7.364
 5743POPC   C1B72643   4.149  13.038   6.464
 5743POPC   C2B72644   4.236  13.110   6.764
 5743POPC   C3B72645   4.191  13.112   7.064
 5743POPC   C4B72646   4.164  13.104   7.364
 5744POPC   NC372647  27.548  29.963   5.564
 5744POPC   PO472648  27.595  29.942   5.864
 5744POPC   GL172649  27.552  29.941   6.164
 5744POPC   GL272650  27.679  29.912   6.164
 5744POPC   C1A72651  27.547  29.907   6.464
 5744POPC   D2A72652  27.548  29.900   6.764
 5744POPC   C3A72653  27.547  29.903   7.064
 5744POPC   C4A72654  27.576  29.957   7.364
 5744POPC   C1B72655  27.860  29.824   6.464
 5744POPC   C2B72656  27.829  29.766   6.764
 5744POPC   C3B72657  27.770  29.847   7.064
 5744POPC   C4B72658  27.816  29.806   7.364
 5745POPC   NC372659   9.720  15.924   5.564
 5745POPC   PO472660   9.749  15.921   5.864
 5745POPC   GL172661   9.725  15.948   6.164
 5745POPC   GL272662   9.848  15.953   6.164
 5745POPC   C1A72663   9.769  15.955   6.464
 5745POPC   D2A72664   9.757  15.925   6.764
 5745POPC   C3A72665   9.701  15.948   7.064
 5745POPC   C4A72666   9.713  15.961   7.364
 5745POPC   C1B72667  10.012  15.854   6.464
 5745POPC   C2B72668  10.006  15.871   6.764
 5745POPC   C3B72669  10.023  15.892   7.064
 5745POPC   C4B72670  10.007  15.869   7.364
 5746POPC   NC372671  26.035  15.989   5.564
 5746POPC   PO472672  26.048  15.957   5.864
 5746POPC   GL172673  26.004  15.998   6.164
 5746POPC   GL272674  25.901  15.900   6.164
 5746POPC   C1A72675  26.069  15.959   6.464
 5746POPC   D2A72676  26.070  15.934   6.764
 5746POPC   C3A72677  26.002  15.992   7.064
 5746POPC   C4A72678  26.088  15.907   7.364
 5746POPC   C1B72679  25.793  15.862   6.464
 5746POPC   C2B72680  25.862  15.849   6.764
 5746POPC   C3B72681  25.803  15.820   7.064
 5746POPC   C4B72682  25.824  15.794   7.364
 5747POPC   NC372683   9.011  10.533   5.564
 5747POPC   PO472684   8.937  10.547   5.864
 5747POPC   GL172685   9.015  10.514   6.164
 5747POPC   GL272686   8.963  10.684   6.164
 5747POPC   C1A72687   9.013  10.522   6.464
 5747POPC   D2A72688   8.943  10.562   6.764
 5747POPC   C3A72689   8.984  10.563   7.064
 5747POPC   C4A72690   9.002  10.570   7.364
 5747POPC   C1B72691   8.852  10.778   6.464
 5747POPC   C2B72692   8.899  10.705   6.764
 5747POPC   C3B72693   8.887  10.787   7.064
 5747POPC   C4B72694   8.881  10.749   7.364
 5748POPC   NC372695  12.856  29.148   5.564
 5748POPC   PO472696  12.845  29.162   5.864
 5748POPC   GL172697  12.882  29.119   6.164
 5748POPC   GL272698  12.987  29.110   6.164
 5748POPC   C1A72699  12.814  29.135   6.464
 5748POPC   D2A72700  12.837  29.186   6.764
 5748POPC   C3A72701  12.877  29.161   7.064
 5748POPC   C4A72702  12.897  29.169   7.364
 5748POPC   C1B72703  13.003  28.943   6.464
 5748POPC   C2B72704  13.085  28.957   6.764
 5748POPC   C3B72705  13.070  28.939   7.064
 5748POPC   C4B72706  13.086  28.992   7.364
 5749POPC   NC372707   9.765  14.383   5.564
 5749POPC   PO472708   9.699  14.354   5.864
 5749POPC   GL172709   9.708  14.372   6.164
 5749POPC   GL272710   9.900  14.320   6.164
 5749POPC   C1A72711   9.780  14.424   6.464
 5749POPC   D2A72712   9.735  14.363   6.764
 5749POPC   C3A72713   9.735  14.410   7.064
 5749POPC   C4A72714   9.796  14.377   7.364
 5749POPC   C1B72715   9.948  14.299   6.464
 5749POPC   C2B72716   9.993  14.229   6.764
 5749POPC   C3B72717   9.931  14.283   7.064
 5749POPC   C4B72718   9.982  14.251   7.364
 5750POPC   NC372719  12.073  39.251   5.564
 5750POPC   PO472720  12.037  39.218   5.864
 5750POPC   GL172721  12.050  39.248   6.164
 5750POPC   GL272722  12.118  39.089   6.164
 5750POPC   C1A72723  12.049  39.230   6.464
 5750POPC   D2A72724  12.111  39.194   6.764
 5750POPC   C3A72725  12.125  39.276   7.064
 5750POPC   C4A72726  12.067  39.260   7.364
 5750POPC   C1B72727  12.123  38.951   6.464
 5750POPC   C2B72728  12.085  38.994   6.764
 5750POPC   C3B72729  12.086  38.985   7.064
 5750POPC   C4B72730  12.106  38.955   7.364
 5751POPC   NC372731  43.913  38.461   5.564
 5751POPC   PO472732  43.924  38.411   5.864
 5751POPC   GL172733  43.862  38.463   6.164
 5751POPC   GL272734  43.850  38.346   6.164
 5751POPC   C1A72735  43.857  38.443   6.464
 5751POPC   D2A72736  43.914  38.470   6.764
 5751POPC   C3A72737  43.900  38.416   7.064
 5751POPC   C4A72738  43.847  38.453   7.364
 5751POPC   C1B72739  43.692  38.245   6.464
 5751POPC   C2B72740  43.692  38.258   6.764
 5751POPC   C3B72741  43.688  38.290   7.064
 5751POPC   C4B72742  43.742  38.250   7.364
 5752POPC   NC372743  28.366  44.664   5.564
 5752POPC   PO472744  28.321  44.684   5.864
 5752POPC   GL172745  28.336  44.664   6.164
 5752POPC   GL272746  28.500  44.753   6.164
 5752POPC   C1A72747  28.334  44.710   6.464
 5752POPC   D2A72748  28.321  44.641   6.764
 5752POPC   C3A72749  28.363  44.707   7.064
 5752POPC   C4A72750  28.401  44.676   7.364
 5752POPC   C1B72751  28.574  44.839   6.464
 5752POPC   C2B72752  28.606  44.807   6.764
 5752POPC   C3B72753  28.527  44.817   7.064
 5752POPC   C4B72754  28.577  44.784   7.364
 5753POPC   NC372755  32.281   1.179   5.564
 5753POPC   PO472756  32.221   1.246   5.864
 5753POPC   GL172757  32.272   1.170   6.164
 5753POPC   GL272758  32.301   1.294   6.164
 5753POPC   C1A72759  32.272   1.213   6.464
 5753POPC   D2A72760  32.293   1.237   6.764
 5753POPC   C3A72761  32.254   1.232   7.064
 5753POPC   C4A72762  32.211   1.197   7.364
 5753POPC   C1B72763  32.308   1.445   6.464
 5753POPC   C2B72764  32.265   1.469   6.764
 5753POPC   C3B72765  32.303   1.463   7.064
 5753POPC   C4B72766  32.302   1.469   7.364
 5754POPC   NC372767  11.275  40.027   5.564
 5754POPC   PO472768  11.274  40.050   5.864
 5754POPC   GL172769  11.341  40.011   6.164
 5754POPC   GL272770  11.385  39.860   6.164
 5754POPC   C1A72771  11.283  40.024   6.464
 5754POPC   D2A72772  11.291  40.025   6.764
 5754POPC   C3A72773  11.289  40.014   7.064
 5754POPC   C4A72774  11.315  40.054   7.364
 5754POPC   C1B72775  11.407  39.781   6.464
 5754POPC   C2B72776  11.423  39.849   6.764
 5754POPC   C3B72777  11.409  39.813   7.064
 5754POPC   C4B72778  11.474  39.806   7.364
 5755POPC   NC372779   9.757  23.724   5.564
 5755POPC   PO472780   9.756  23.676   5.864
 5755POPC   GL172781   9.758  23.738   6.164
 5755POPC   GL272782   9.865  23.682   6.164
 5755POPC   C1A72783   9.775  23.744   6.464
 5755POPC   D2A72784   9.745  23.729   6.764
 5755POPC   C3A72785   9.764  23.700   7.064
 5755POPC   C4A72786   9.749  23.702   7.364
 5755POPC   C1B72787   9.983  23.687   6.464
 5755POPC   C2B72788  10.044  23.689   6.764
 5755POPC   C3B72789  10.017  23.711   7.064
 5755POPC   C4B72790   9.997  23.703   7.364
 5756POPC   NC372791   0.474  16.709   5.564
 5756POPC   PO472792   0.476  16.688   5.864
 5756POPC   GL172793   0.463  16.736   6.164
 5756POPC   GL272794   0.503  16.840   6.164
 5756POPC   C1A72795   0.458  16.710   6.464
 5756POPC   D2A72796   0.485  16.758   6.764
 5756POPC   C3A72797   0.394  16.688   7.064
 5756POPC   C4A72798   0.461  16.757   7.364
 5756POPC   C1B72799   0.528  16.925   6.464
 5756POPC   C2B72800   0.444  16.974   6.764
 5756POPC   C3B72801   0.459  16.987   7.064
 5756POPC   C4B72802   0.443  16.957   7.364
 5757POPC   NC372803  22.185  43.863   5.564
 5757POPC   PO472804  22.191  43.894   5.864
 5757POPC   GL172805  22.137  43.934   6.164
 5757POPC   GL272806  22.070  43.866   6.164
 5757POPC   C1A72807  22.191  43.862   6.464
 5757POPC   D2A72808  22.123  43.891   6.764
 5757POPC   C3A72809  22.181  43.878   7.064
 5757POPC   C4A72810  22.154  43.925   7.364
 5757POPC   C1B72811  21.867  43.809   6.464
 5757POPC   C2B72812  21.936  43.789   6.764
 5757POPC   C3B72813  21.952  43.859   7.064
 5757POPC   C4B72814  21.867  43.836   7.364
 5758POPC   NC372815  19.016  22.210   5.564
 5758POPC   PO472816  19.065  22.139   5.864
 5758POPC   GL172817  19.078  22.189   6.164
 5758POPC   GL272818  19.126  22.059   6.164
 5758POPC   C1A72819  19.068  22.197   6.464
 5758POPC   D2A72820  19.099  22.183   6.764
 5758POPC   C3A72821  19.073  22.134   7.064
 5758POPC   C4A72822  19.070  22.149   7.364
 5758POPC   C1B72823  19.152  21.996   6.464
 5758POPC   C2B72824  19.221  21.931   6.764
 5758POPC   C3B72825  19.228  21.995   7.064
 5758POPC   C4B72826  19.146  21.933   7.364
 5759POPC   NC372827   3.529   1.202   5.564
 5759POPC   PO472828   3.557   1.241   5.864
 5759POPC   GL172829   3.546   1.183   6.164
 5759POPC   GL272830   3.395   1.217   6.164
 5759POPC   C1A72831   3.573   1.229   6.464
 5759POPC   D2A72832   3.506   1.203   6.764
 5759POPC   C3A72833   3.591   1.184   7.064
 5759POPC   C4A72834   3.582   1.250   7.364
 5759POPC   C1B72835   3.273   1.207   6.464
 5759POPC   C2B72836   3.272   1.264   6.764
 5759POPC   C3B72837   3.264   1.288   7.064
 5759POPC   C4B72838   3.322   1.282   7.364
 5760POPC   NC372839  19.101  22.947   5.564
 5760POPC   PO472840  19.062  22.965   5.864
 5760POPC   GL172841  19.082  22.944   6.164
 5760POPC   GL272842  19.177  22.958   6.164
 5760POPC   C1A72843  19.030  22.919   6.464
 5760POPC   D2A72844  19.078  22.969   6.764
 5760POPC   C3A72845  19.010  22.974   7.064
 5760POPC   C4A72846  19.048  22.902   7.364
 5760POPC   C1B72847  19.341  22.949   6.464
 5760POPC   C2B72848  19.324  22.918   6.764
 5760POPC   C3B72849  19.319  22.894   7.064
 5760POPC   C4B72850  19.352  22.906   7.364
 5761POPC   NC372851  12.849  37.633   5.564
 5761POPC   PO472852  12.852  37.700   5.864
 5761POPC   GL172853  12.868  37.650   6.164
 5761POPC   GL272854  12.766  37.709   6.164
 5761POPC   C1A72855  12.877  37.669   6.464
 5761POPC   D2A72856  12.902  37.648   6.764
 5761POPC   C3A72857  12.854  37.665   7.064
 5761POPC   C4A72858  12.837  37.663   7.364
 5761POPC   C1B72859  12.633  37.842   6.464
 5761POPC   C2B72860  12.680  37.829   6.764
 5761POPC   C3B72861  12.641  37.751   7.064
 5761POPC   C4B72862  12.582  37.756   7.364
 5762POPC   NC372863  26.813   7.457   5.564
 5762POPC   PO472864  26.808   7.390   5.864
 5762POPC   GL172865  26.857   7.432   6.164
 5762POPC   GL272866  26.815   7.277   6.164
 5762POPC   C1A72867  26.863   7.458   6.464
 5762POPC   D2A72868  26.840   7.400   6.764
 5762POPC   C3A72869  26.785   7.417   7.064
 5762POPC   C4A72870  26.791   7.422   7.364
 5762POPC   C1B72871  26.864   7.174   6.464
 5762POPC   C2B72872  26.865   7.195   6.764
 5762POPC   C3B72873  26.883   7.174   7.064
 5762POPC   C4B72874  26.901   7.139   7.364
 5763POPC   NC372875  39.277  12.876   5.564
 5763POPC   PO472876  39.267  12.858   5.864
 5763POPC   GL172877  39.197  12.886   6.164
 5763POPC   GL272878  39.321  12.734   6.164
 5763POPC   C1A72879  39.200  12.887   6.464
 5763POPC   D2A72880  39.217  12.869   6.764
 5763POPC   C3A72881  39.207  12.865   7.064
 5763POPC   C4A72882  39.198  12.898   7.364
 5763POPC   C1B72883  39.382  12.670   6.464
 5763POPC   C2B72884  39.295  12.609   6.764
 5763POPC   C3B72885  39.376  12.598   7.064
 5763POPC   C4B72886  39.374  12.607   7.364
 5764POPC   NC372887  32.287  27.601   5.564
 5764POPC   PO472888  32.295  27.627   5.864
 5764POPC   GL172889  32.291  27.566   6.164
 5764POPC   GL272890  32.337  27.694   6.164
 5764POPC   C1A72891  32.286  27.544   6.464
 5764POPC   D2A72892  32.212  27.549   6.764
 5764POPC   C3A72893  32.249  27.623   7.064
 5764POPC   C4A72894  32.210  27.572   7.364
 5764POPC   C1B72895  32.399  27.770   6.464
 5764POPC   C2B72896  32.314  27.810   6.764
 5764POPC   C3B72897  32.400  27.825   7.064
 5764POPC   C4B72898  32.314  27.814   7.364
 5765POPC   NC372899   7.429  29.922   5.564
 5765POPC   PO472900   7.433  29.889   5.864
 5765POPC   GL172901   7.406  29.878   6.164
 5765POPC   GL272902   7.468  29.831   6.164
 5765POPC   C1A72903   7.468  29.915   6.464
 5765POPC   D2A72904   7.460  29.905   6.764
 5765POPC   C3A72905   7.426  29.949   7.064
 5765POPC   C4A72906   7.455  29.905   7.364
 5765POPC   C1B72907   7.586  29.703   6.464
 5765POPC   C2B72908   7.601  29.716   6.764
 5765POPC   C3B72909   7.556  29.746   7.064
 5765POPC   C4B72910   7.575  29.739   7.364
 5766POPC   NC372911  29.911  29.135   5.564
 5766POPC   PO472912  29.889  29.144   5.864
 5766POPC   GL172913  29.934  29.194   6.164
 5766POPC   GL272914  29.954  29.268   6.164
 5766POPC   C1A72915  29.905  29.145   6.464
 5766POPC   D2A72916  29.905  29.108   6.764
 5766POPC   C3A72917  29.898  29.190   7.064
 5766POPC   C4A72918  29.880  29.138   7.364
 5766POPC   C1B72919  29.891  29.433   6.464
 5766POPC   C2B72920  29.917  29.357   6.764
 5766POPC   C3B72921  29.957  29.402   7.064
 5766POPC   C4B72922  29.921  29.427   7.364
 5767POPC   NC372923  32.214   6.640   5.564
 5767POPC   PO472924  32.275   6.662   5.864
 5767POPC   GL172925  32.224   6.689   6.164
 5767POPC   GL272926  32.286   6.768   6.164
 5767POPC   C1A72927  32.256   6.626   6.464
 5767POPC   D2A72928  32.245   6.685   6.764
 5767POPC   C3A72929  32.256   6.613   7.064
 5767POPC   C4A72930  32.284   6.673   7.364
 5767POPC   C1B72931  32.326   6.842   6.464
 5767POPC   C2B72932  32.367   6.906   6.764
 5767POPC   C3B72933  32.279   6.923   7.064
 5767POPC   C4B72934  32.361   6.842   7.364
 5768POPC   NC372935  40.737  16.758   5.564
 5768POPC   PO472936  40.783  16.751   5.864
 5768POPC   GL172937  40.784  16.730   6.164
 5768POPC   GL272938  40.885  16.664   6.164
 5768POPC   C1A72939  40.783  16.749   6.464
 5768POPC   D2A72940  40.753  16.704   6.764
 5768POPC   C3A72941  40.751  16.755   7.064
 5768POPC   C4A72942  40.734  16.720   7.364
 5768POPC   C1B72943  40.907  16.484   6.464
 5768POPC   C2B72944  40.903  16.546   6.764
 5768POPC   C3B72945  40.964  16.544   7.064
 5768POPC   C4B72946  40.956  16.573   7.364
 5769POPC   NC372947  17.460  31.463   5.564
 5769POPC   PO472948  17.537  31.473   5.864
 5769POPC   GL172949  17.472  31.515   6.164
 5769POPC   GL272950  17.401  31.511   6.164
 5769POPC   C1A72951  17.489  31.518   6.464
 5769POPC   D2A72952  17.556  31.520   6.764
 5769POPC   C3A72953  17.494  31.498   7.064
 5769POPC   C4A72954  17.527  31.432   7.364
 5769POPC   C1B72955  17.235  31.561   6.464
 5769POPC   C2B72956  17.226  31.542   6.764
 5769POPC   C3B72957  17.288  31.537   7.064
 5769POPC   C4B72958  17.231  31.569   7.364
 5770POPC   NC372959  44.705  39.272   5.564
 5770POPC   PO472960  44.628  39.251   5.864
 5770POPC   GL172961  44.681  39.256   6.164
 5770POPC   GL272962  44.597  39.316   6.164
 5770POPC   C1A72963  44.696  39.188   6.464
 5770POPC   D2A72964  44.699  39.228   6.764
 5770POPC   C3A72965  44.658  39.262   7.064
 5770POPC   C4A72966  44.642  39.260   7.364
 5770POPC   C1B72967  44.550  39.428   6.464
 5770POPC   C2B72968  44.546  39.387   6.764
 5770POPC   C3B72969  44.547  39.387   7.064
 5770POPC   C4B72970  44.554  39.409   7.364
 5771POPC   NC372971  10.503  21.374   5.564
 5771POPC   PO472972  10.544  21.414   5.864
 5771POPC   GL172973  10.536  21.344   6.164
 5771POPC   GL272974  10.411  21.483   6.164
 5771POPC   C1A72975  10.544  21.427   6.464
 5771POPC   D2A72976  10.504  21.433   6.764
 5771POPC   C3A72977  10.548  21.362   7.064
 5771POPC   C4A72978  10.516  21.355   7.364
 5771POPC   C1B72979  10.389  21.593   6.464
 5771POPC   C2B72980  10.358  21.549   6.764
 5771POPC   C3B72981  10.350  21.616   7.064
 5771POPC   C4B72982  10.368  21.633   7.364
 5772POPC   NC372983  37.712  16.710   5.564
 5772POPC   PO472984  37.661  16.760   5.864
 5772POPC   GL172985  37.662  16.747   6.164
 5772POPC   GL272986  37.796  16.800   6.164
 5772POPC   C1A72987  37.691  16.696   6.464
 5772POPC   D2A72988  37.685  16.707   6.764
 5772POPC   C3A72989  37.671  16.725   7.064
 5772POPC   C4A72990  37.693  16.711   7.364
 5772POPC   C1B72991  37.843  16.892   6.464
 5772POPC   C2B72992  37.789  16.894   6.764
 5772POPC   C3B72993  37.867  16.959   7.064
 5772POPC   C4B72994  37.806  16.925   7.364
 5773POPC   NC372995  19.051  37.718   5.564
 5773POPC   PO472996  19.027  37.651   5.864
 5773POPC   GL172997  19.060  37.668   6.164
 5773POPC   GL272998  19.191  37.680   6.164
 5773POPC   C1A72999  19.051  37.706   6.464
 5773POPC   D2A73000  19.011  37.645   6.764
 5773POPC   C3A73001  19.094  37.685   7.064
 5773POPC   C4A73002  19.071  37.685   7.364
 5773POPC   C1B73003  19.335  37.724   6.464
 5773POPC   C2B73004  19.283  37.737   6.764
 5773POPC   C3B73005  19.327  37.802   7.064
 5773POPC   C4B73006  19.308  37.775   7.364
 5774POPC   NC373007  20.637  33.059   5.564
 5774POPC   PO473008  20.592  32.993   5.864
 5774POPC   GL173009  20.605  33.049   6.164
 5774POPC   GL273010  20.439  32.968   6.164
 5774POPC   C1A73011  20.569  33.022   6.464
 5774POPC   D2A73012  20.571  33.039   6.764
 5774POPC   C3A73013  20.563  33.059   7.064
 5774POPC   C4A73014  20.629  33.030   7.364
 5774POPC   C1B73015  20.410  32.923   6.464
 5774POPC   C2B73016  20.362  32.989   6.764
 5774POPC   C3B73017  20.414  32.922   7.064
 5774POPC   C4B73018  20.393  32.928   7.364
 5775POPC   NC373019  15.959  27.610   5.564
 5775POPC   PO473020  15.984  27.627   5.864
 5775POPC   GL173021  15.976  27.637   6.164
 5775POPC   GL273022  16.019  27.523   6.164
 5775POPC   C1A73023  15.934  27.603   6.464
 5775POPC   D2A73024  15.979  27.598   6.764
 5775POPC   C3A73025  15.933  27.596   7.064
 5775POPC   C4A73026  15.941  27.613   7.364
 5775POPC   C1B73027  16.115  27.477   6.464
 5775POPC   C2B73028  16.149  27.459   6.764
 5775POPC   C3B73029  16.167  27.475   7.064
 5775POPC   C4B73030  16.183  27.398   7.364
 5776POPC   NC373031   3.533  39.241   5.564
 5776POPC   PO473032   3.510  39.278   5.864
 5776POPC   GL173033   3.581  39.218   6.164
 5776POPC   GL273034   3.466  39.219   6.164
 5776POPC   C1A73035   3.508  39.264   6.464
 5776POPC   D2A73036   3.558  39.250   6.764
 5776POPC   C3A73037   3.542  39.244   7.064
 5776POPC   C4A73038   3.543  39.182   7.364
 5776POPC   C1B73039   3.331  39.234   6.464
 5776POPC   C2B73040   3.335  39.147   6.764
 5776POPC   C3B73041   3.334  39.209   7.064
 5776POPC   C4B73042   3.304  39.232   7.364
 5777POPC   NC373043  23.681  13.642   5.564
 5777POPC   PO473044  23.668  13.643   5.864
 5777POPC   GL173045  23.666  13.592   6.164
 5777POPC   GL273046  23.862  13.646   6.164
 5777POPC   C1A73047  23.720  13.671   6.464
 5777POPC   D2A73048  23.678  13.586   6.764
 5777POPC   C3A73049  23.724  13.614   7.064
 5777POPC   C4A73050  23.696  13.645   7.364
 5777POPC   C1B73051  23.997  13.648   6.464
 5777POPC   C2B73052  23.945  13.660   6.764
 5777POPC   C3B73053  23.932  13.671   7.064
 5777POPC   C4B73054  23.952  13.620   7.364
 5778POPC   NC373055  40.021  23.745   5.564
 5778POPC   PO473056  40.004  23.737   5.864
 5778POPC   GL173057  39.964  23.674   6.164
 5778POPC   GL273058  39.982  23.855   6.164
 5778POPC   C1A73059  40.026  23.690   6.464
 5778POPC   D2A73060  40.054  23.686   6.764
 5778POPC   C3A73061  40.027  23.721   7.064
 5778POPC   C4A73062  39.975  23.730   7.364
 5778POPC   C1B73063  40.007  24.008   6.464
 5778POPC   C2B73064  40.023  23.955   6.764
 5778POPC   C3B73065  40.067  23.925   7.064
 5778POPC   C4B73066  40.045  23.996   7.364
 5779POPC   NC373067   5.895  13.618   5.564
 5779POPC   PO473068   5.844  13.579   5.864
 5779POPC   GL173069   5.889  13.664   6.164
 5779POPC   GL273070   5.939  13.589   6.164
 5779POPC   C1A73071   5.860  13.605   6.464
 5779POPC   D2A73072   5.907  13.676   6.764
 5779POPC   C3A73073   5.889  13.599   7.064
 5779POPC   C4A73074   5.858  13.583   7.364
 5779POPC   C1B73075   6.119  13.512   6.464
 5779POPC   C2B73076   6.108  13.500   6.764
 5779POPC   C3B73077   6.026  13.472   7.064
 5779POPC   C4B73078   6.076  13.437   7.364
 5780POPC   NC373079  40.008  27.633   5.564
 5780POPC   PO473080  39.975  27.620   5.864
 5780POPC   GL173081  39.959  27.548   6.164
 5780POPC   GL273082  40.114  27.504   6.164
 5780POPC   C1A73083  40.053  27.631   6.464
 5780POPC   D2A73084  40.003  27.630   6.764
 5780POPC   C3A73085  40.036  27.623   7.064
 5780POPC   C4A73086  40.020  27.611   7.364
 5780POPC   C1B73087  40.257  27.488   6.464
 5780POPC   C2B73088  40.215  27.476   6.764
 5780POPC   C3B73089  40.234  27.521   7.064
 5780POPC   C4B73090  40.255  27.526   7.364
 5781POPC   NC373091  27.584  33.042   5.564
 5781POPC   PO473092  27.576  33.056   5.864
 5781POPC   GL173093  27.553  33.015   6.164
 5781POPC   GL273094  27.523  33.164   6.164
 5781POPC   C1A73095  27.610  32.989   6.464
 5781POPC   D2A73096  27.585  33.055   6.764
 5781POPC   C3A73097  27.634  32.979   7.064
 5781POPC   C4A73098  27.581  32.983   7.364
 5781POPC   C1B73099  27.517  33.258   6.464
 5781POPC   C2B73100  27.428  33.202   6.764
 5781POPC   C3B73101  27.421  33.258   7.064
 5781POPC   C4B73102  27.503  33.209   7.364
 5782POPC   NC373103  31.430  31.500   5.564
 5782POPC   PO473104  31.442  31.450   5.864
 5782POPC   GL173105  31.470  31.448   6.164
 5782POPC   GL273106  31.453  31.363   6.164
 5782POPC   C1A73107  31.436  31.440   6.464
 5782POPC   D2A73108  31.494  31.518   6.764
 5782POPC   C3A73109  31.468  31.489   7.064
 5782POPC   C4A73110  31.430  31.437   7.364
 5782POPC   C1B73111  31.403  31.254   6.464
 5782POPC   C2B73112  31.424  31.262   6.764
 5782POPC   C3B73113  31.447  31.251   7.064
 5782POPC   C4B73114  31.390  31.269   7.364
 5783POPC   NC373115  35.349  15.204   5.564
 5783POPC   PO473116  35.327  15.213   5.864
 5783POPC   GL173117  35.329  15.207   6.164
 5783POPC   GL273118  35.341  15.286   6.164
 5783POPC   C1A73119  35.306  15.170   6.464
 5783POPC   D2A73120  35.376  15.160   6.764
 5783POPC   C3A73121  35.370  15.209   7.064
 5783POPC   C4A73122  35.385  15.160   7.364
 5783POPC   C1B73123  35.360  15.377   6.464
 5783POPC   C2B73124  35.413  15.419   6.764
 5783POPC   C3B73125  35.381  15.437   7.064
 5783POPC   C4B73126  35.380  15.423   7.364
 5784POPC   NC373127  44.684  23.666   5.564
 5784POPC   PO473128  44.684  23.754   5.864
 5784POPC   GL173129  44.619  23.739   6.164
 5784POPC   GL273130  44.627  23.579   6.164
 5784POPC   C1A73131  44.621  23.752   6.464
 5784POPC   D2A73132  44.694  23.736   6.764
 5784POPC   C3A73133  44.638  23.676   7.064
 5784POPC   C4A73134  44.614  23.741   7.364
 5784POPC   C1B73135  44.541  23.462   6.464
 5784POPC   C2B73136  44.580  23.499   6.764
 5784POPC   C3B73137  44.566  23.490   7.064
 5784POPC   C4B73138  44.540  23.491   7.364
 5785POPC   NC373139  39.215  14.379   5.564
 5785POPC   PO473140  39.198  14.404   5.864
 5785POPC   GL173141  39.181  14.381   6.164
 5785POPC   GL273142  39.097  14.354   6.164
 5785POPC   C1A73143  39.209  14.370   6.464
 5785POPC   D2A73144  39.222  14.359   6.764
 5785POPC   C3A73145  39.267  14.410   7.064
 5785POPC   C4A73146  39.227  14.449   7.364
 5785POPC   C1B73147  38.944  14.444   6.464
 5785POPC   C2B73148  38.972  14.379   6.764
 5785POPC   C3B73149  38.961  14.438   7.064
 5785POPC   C4B73150  38.967  14.360   7.364
 5786POPC   NC373151  31.485  27.636   5.564
 5786POPC   PO473152  31.517  27.589   5.864
 5786POPC   GL173153  31.465  27.631   6.164
 5786POPC   GL273154  31.584  27.533   6.164
 5786POPC   C1A73155  31.447  27.593   6.464
 5786POPC   D2A73156  31.471  27.599   6.764
 5786POPC   C3A73157  31.521  27.566   7.064
 5786POPC   C4A73158  31.441  27.590   7.364
 5786POPC   C1B73159  31.720  27.426   6.464
 5786POPC   C2B73160  31.672  27.402   6.764
 5786POPC   C3B73161  31.628  27.409   7.064
 5786POPC   C4B73162  31.625  27.462   7.364
 5787POPC   NC373163   9.761  31.444   5.564
 5787POPC   PO473164   9.708  31.504   5.864
 5787POPC   GL173165   9.701  31.478   6.164
 5787POPC   GL273166   9.651  31.413   6.164
 5787POPC   C1A73167   9.724  31.496   6.464
 5787POPC   D2A73168   9.775  31.499   6.764
 5787POPC   C3A73169   9.725  31.458   7.064
 5787POPC   C4A73170   9.748  31.430   7.364
 5787POPC   C1B73171   9.533  31.481   6.464
 5787POPC   C2B73172   9.487  31.464   6.764
 5787POPC   C3B73173   9.550  31.403   7.064
 5787POPC   C4B73174   9.543  31.413   7.364
 5788POPC   NC373175  16.760  40.021   5.564
 5788POPC   PO473176  16.744  39.997   5.864
 5788POPC   GL173177  16.734  39.983   6.164
 5788POPC   GL273178  16.851  40.078   6.164
 5788POPC   C1A73179  16.712  39.993   6.464
 5788POPC   D2A73180  16.685  39.985   6.764
 5788POPC   C3A73181  16.692  40.044   7.064
 5788POPC   C4A73182  16.718  39.972   7.364
 5788POPC   C1B73183  16.910  40.173   6.464
 5788POPC   C2B73184  16.975  40.105   6.764
 5788POPC   C3B73185  16.942  40.123   7.064
 5788POPC   C4B73186  16.969  40.094   7.364
 5789POPC   NC373187   9.784  26.035   5.564
 5789POPC   PO473188   9.733  26.003   5.864
 5789POPC   GL173189   9.734  25.993   6.164
 5789POPC   GL273190   9.878  25.903   6.164
 5789POPC   C1A73191   9.756  26.032   6.464
 5789POPC   D2A73192   9.773  26.087   6.764
 5789POPC   C3A73193   9.773  26.052   7.064
 5789POPC   C4A73194   9.718  26.049   7.364
 5789POPC   C1B73195   9.902  25.820   6.464
 5789POPC   C2B73196   9.881  25.901   6.764
 5789POPC   C3B73197   9.937  25.890   7.064
 5789POPC   C4B73198   9.925  25.843   7.364
 5790POPC   NC373199   4.345   8.199   5.564
 5790POPC   PO473200   4.322   8.180   5.864
 5790POPC   GL173201   4.290   8.173   6.164
 5790POPC   GL273202   4.387   8.368   6.164
 5790POPC   C1A73203   4.337   8.245   6.464
 5790POPC   D2A73204   4.269   8.199   6.764
 5790POPC   C3A73205   4.304   8.189   7.064
 5790POPC   C4A73206   4.349   8.162   7.364
 5790POPC   C1B73207   4.313   8.403   6.464
 5790POPC   C2B73208   4.383   8.422   6.764
 5790POPC   C3B73209   4.354   8.433   7.064
 5790POPC   C4B73210   4.333   8.420   7.364
 5791POPC   NC373211  40.764  31.467   5.564
 5791POPC   PO473212  40.785  31.469   5.864
 5791POPC   GL173213  40.748  31.514   6.164
 5791POPC   GL273214  40.703  31.591   6.164
 5791POPC   C1A73215  40.795  31.512   6.464
 5791POPC   D2A73216  40.766  31.447   6.764
 5791POPC   C3A73217  40.801  31.462   7.064
 5791POPC   C4A73218  40.752  31.504   7.364
 5791POPC   C1B73219  40.561  31.583   6.464
 5791POPC   C2B73220  40.538  31.600   6.764
 5791POPC   C3B73221  40.581  31.631   7.064
 5791POPC   C4B73222  40.544  31.592   7.364
 5792POPC   NC373223   3.577   1.944   5.564
 5792POPC   PO473224   3.589   2.023   5.864
 5792POPC   GL173225   3.524   1.957   6.164
 5792POPC   GL273226   3.597   1.893   6.164
 5792POPC   C1A73227   3.533   1.977   6.464
 5792POPC   D2A73228   3.505   2.025   6.764
 5792POPC   C3A73229   3.496   2.033   7.064
 5792POPC   C4A73230   3.584   2.014   7.364
 5792POPC   C1B73231   3.654   1.732   6.464
 5792POPC   C2B73232   3.590   1.758   6.764
 5792POPC   C3B73233   3.666   1.756   7.064
 5792POPC   C4B73234   3.621   1.788   7.364
 5793POPC   NC373235  16.737  35.304   5.564
 5793POPC   PO473236  16.751  35.330   5.864
 5793POPC   GL173237  16.747  35.392   6.164
 5793POPC   GL273238  16.866  35.294   6.164
 5793POPC   C1A73239  16.710  35.393   6.464
 5793POPC   D2A73240  16.719  35.314   6.764
 5793POPC   C3A73241  16.750  35.365   7.064
 5793POPC   C4A73242  16.740  35.376   7.364
 5793POPC   C1B73243  17.004  35.250   6.464
 5793POPC   C2B73244  16.952  35.268   6.764
 5793POPC   C3B73245  16.911  35.285   7.064
 5793POPC   C4B73246  16.977  35.205   7.364
 5794POPC   NC373247  22.938   3.568   5.564
 5794POPC   PO473248  22.894   3.531   5.864
 5794POPC   GL173249  22.966   3.517   6.164
 5794POPC   GL273250  22.838   3.554   6.164
 5794POPC   C1A73251  22.956   3.543   6.464
 5794POPC   D2A73252  22.958   3.510   6.764
 5794POPC   C3A73253  22.961   3.519   7.064
 5794POPC   C4A73254  22.897   3.554   7.364
 5794POPC   C1B73255  22.738   3.505   6.464
 5794POPC   C2B73256  22.665   3.577   6.764
 5794POPC   C3B73257  22.702   3.582   7.064
 5794POPC   C4B73258  22.723   3.545   7.364
 5795POPC   NC373259  24.501  15.919   5.564
 5795POPC   PO473260  24.475  15.947   5.864
 5795POPC   GL173261  24.466  15.961   6.164
 5795POPC   GL273262  24.608  15.823   6.164
 5795POPC   C1A73263  24.466  15.963   6.464
 5795POPC   D2A73264  24.471  15.931   6.764
 5795POPC   C3A73265  24.469  15.969   7.064
 5795POPC   C4A73266  24.506  15.962   7.364
 5795POPC   C1B73267  24.608  15.812   6.464
 5795POPC   C2B73268  24.679  15.774   6.764
 5795POPC   C3B73269  24.616  15.797   7.064
 5795POPC   C4B73270  24.642  15.771   7.364
 5796POPC   NC373271   5.079  28.418   5.564
 5796POPC   PO473272   5.043  28.368   5.864
 5796POPC   GL173273   5.120  28.350   6.164
 5796POPC   GL273274   5.138  28.276   6.164
 5796POPC   C1A73275   5.054  28.326   6.464
 5796POPC   D2A73276   5.118  28.372   6.764
 5796POPC   C3A73277   5.069  28.348   7.064
 5796POPC   C4A73278   5.069  28.327   7.364
 5796POPC   C1B73279   5.171  28.137   6.464
 5796POPC   C2B73280   5.172  28.103   6.764
 5796POPC   C3B73281   5.217  28.136   7.064
 5796POPC   C4B73282   5.162  28.148   7.364
 5797POPC   NC373283  34.601  22.924   5.564
 5797POPC   PO473284  34.561  22.968   5.864
 5797POPC   GL173285  34.569  22.911   6.164
 5797POPC   GL273286  34.606  22.853   6.164
 5797POPC   C1A73287  34.576  22.916   6.464
 5797POPC   D2A73288  34.619  22.890   6.764
 5797POPC   C3A73289  34.574  22.973   7.064
 5797POPC   C4A73290  34.592  22.916   7.364
 5797POPC   C1B73291  34.615  22.730   6.464
 5797POPC   C2B73292  34.612  22.732   6.764
 5797POPC   C3B73293  34.622  22.727   7.064
 5797POPC   C4B73294  34.650  22.665   7.364
 5798POPC   NC373295  25.294  16.733   5.564
 5798POPC   PO473296  25.284  16.724   5.864
 5798POPC   GL173297  25.238  16.727   6.164
 5798POPC   GL273298  25.316  16.592   6.164
 5798POPC   C1A73299  25.295  16.704   6.464
 5798POPC   D2A73300  25.264  16.757   6.764
 5798POPC   C3A73301  25.218  16.750   7.064
 5798POPC   C4A73302  25.289  16.763   7.364
 5798POPC   C1B73303  25.336  16.473   6.464
 5798POPC   C2B73304  25.344  16.475   6.764
 5798POPC   C3B73305  25.364  16.546   7.064
 5798POPC   C4B73306  25.378  16.457   7.364
 5799POPC   NC373307   8.163  44.637   5.564
 5799POPC   PO473308   8.205  44.625   5.864
 5799POPC   GL173309   8.172  44.702   6.164
 5799POPC   GL273310   8.123  44.630   6.164
 5799POPC   C1A73311   8.169  44.670   6.464
 5799POPC   D2A73312   8.201  44.711   6.764
 5799POPC   C3A73313   8.222  44.665   7.064
 5799POPC   C4A73314   8.231  44.628   7.364
 5799POPC   C1B73315   7.946  44.579   6.464
 5799POPC   C2B73316   7.954  44.529   6.764
 5799POPC   C3B73317   7.989  44.612   7.064
 5799POPC   C4B73318   7.990  44.532   7.364
 5800POPC   NC373319   4.285  32.231   5.564
 5800POPC   PO473320   4.354  32.282   5.864
 5800POPC   GL173321   4.311  32.218   6.164
 5800POPC   GL273322   4.217  32.184   6.164
 5800POPC   C1A73323   4.322  32.213   6.464
 5800POPC   D2A73324   4.332  32.264   6.764
 5800POPC   C3A73325   4.276  32.289   7.064
 5800POPC   C4A73326   4.290  32.206   7.364
 5800POPC   C1B73327   4.046  32.198   6.464
 5800POPC   C2B73328   4.086  32.234   6.764
 5800POPC   C3B73329   4.081  32.207   7.064
 5800POPC   C4B73330   4.058  32.198   7.364
 5801POPC   NC373331  22.938   1.951   5.564
 5801POPC   PO473332  22.905   1.993   5.864
 5801POPC   GL173333  22.980   1.952   6.164
 5801POPC   GL273334  23.046   2.013   6.164
 5801POPC   C1A73335  22.923   1.991   6.464
 5801POPC   D2A73336  22.943   1.960   6.764
 5801POPC   C3A73337  22.981   1.972   7.064
 5801POPC   C4A73338  22.912   1.968   7.364
 5801POPC   C1B73339  23.135   2.110   6.464
 5801POPC   C2B73340  23.122   2.056   6.764
 5801POPC   C3B73341  23.191   2.110   7.064
 5801POPC   C4B73342  23.155   2.140   7.364
 5802POPC   NC373343  36.881  42.380   5.564
 5802POPC   PO473344  36.933  42.311   5.864
 5802POPC   GL173345  36.926  42.327   6.164
 5802POPC   GL273346  36.789  42.419   6.164
 5802POPC   C1A73347  36.860  42.376   6.464
 5802POPC   D2A73348  36.931  42.381   6.764
 5802POPC   C3A73349  36.897  42.320   7.064
 5802POPC   C4A73350  36.932  42.355   7.364
 5802POPC   C1B73351  36.718  42.480   6.464
 5802POPC   C2B73352  36.773  42.549   6.764
 5802POPC   C3B73353  36.698  42.538   7.064
 5802POPC   C4B73354  36.756  42.540   7.364
 5803POPC   NC373355  10.520  33.845   5.564
 5803POPC   PO473356  10.492  33.792   5.864
 5803POPC   GL173357  10.546  33.828   6.164
 5803POPC   GL273358  10.598  33.801   6.164
 5803POPC   C1A73359  10.532  33.839   6.464
 5803POPC   D2A73360  10.570  33.795   6.764
 5803POPC   C3A73361  10.553  33.787   7.064
 5803POPC   C4A73362  10.570  33.823   7.364
 5803POPC   C1B73363  10.741  33.840   6.464
 5803POPC   C2B73364  10.812  33.827   6.764
 5803POPC   C3B73365  10.800  33.886   7.064
 5803POPC   C4B73366  10.818  33.884   7.364
 5804POPC   NC373367  31.460  17.546   5.564
 5804POPC   PO473368  31.426  17.555   5.864
 5804POPC   GL173369  31.520  17.476   6.164
 5804POPC   GL273370  31.573  17.539   6.164
 5804POPC   C1A73371  31.517  17.483   6.464
 5804POPC   D2A73372  31.435  17.512   6.764
 5804POPC   C3A73373  31.487  17.505   7.064
 5804POPC   C4A73374  31.428  17.506   7.364
 5804POPC   C1B73375  31.689  17.636   6.464
 5804POPC   C2B73376  31.683  17.633   6.764
 5804POPC   C3B73377  31.675  17.615   7.064
 5804POPC   C4B73378  31.691  17.613   7.364
 5805POPC   NC373379   9.726  28.347   5.564
 5805POPC   PO473380   9.772  28.345   5.864
 5805POPC   GL173381   9.702  28.377   6.164
 5805POPC   GL273382   9.725  28.457   6.164
 5805POPC   C1A73383   9.789  28.335   6.464
 5805POPC   D2A73384   9.743  28.358   6.764
 5805POPC   C3A73385   9.750  28.347   7.064
 5805POPC   C4A73386   9.785  28.398   7.364
 5805POPC   C1B73387   9.723  28.576   6.464
 5805POPC   C2B73388   9.757  28.641   6.764
 5805POPC   C3B73389   9.742  28.609   7.064
 5805POPC   C4B73390   9.727  28.571   7.364
 5806POPC   NC373391  15.912  10.537   5.564
 5806POPC   PO473392  15.909  10.477   5.864
 5806POPC   GL173393  15.989  10.550   6.164
 5806POPC   GL273394  16.079  10.609   6.164
 5806POPC   C1A73395  15.982  10.525   6.464
 5806POPC   D2A73396  15.980  10.553   6.764
 5806POPC   C3A73397  15.965  10.536   7.064
 5806POPC   C4A73398  15.947  10.499   7.364
 5806POPC   C1B73399  16.206  10.698   6.464
 5806POPC   C2B73400  16.196  10.714   6.764
 5806POPC   C3B73401  16.167  10.635   7.064
 5806POPC   C4B73402  16.127  10.628   7.364
 5807POPC   NC373403   6.619  44.612   5.564
 5807POPC   PO473404   6.688  44.675   5.864
 5807POPC   GL173405   6.666  44.701   6.164
 5807POPC   GL273406   6.642  44.817   6.164
 5807POPC   C1A73407   6.656  44.698   6.464
 5807POPC   D2A73408   6.597  44.680   6.764
 5807POPC   C3A73409   6.628  44.640   7.064
 5807POPC   C4A73410   6.679  44.682   7.364
 5807POPC   C1B73411   6.548  44.937   6.464
 5807POPC   C2B73412   6.529  44.893   6.764
 5807POPC   C3B73413   6.533  44.921   7.064
 5807POPC   C4B73414   6.496  44.861   7.364
 5808POPC   NC373415   3.548  42.355   5.564
 5808POPC   PO473416   3.521  42.317   5.864
 5808POPC   GL173417   3.547  42.317   6.164
 5808POPC   GL273418   3.682  42.299   6.164
 5808POPC   C1A73419   3.543  42.365   6.464
 5808POPC   D2A73420   3.497  42.289   6.764
 5808POPC   C3A73421   3.498  42.321   7.064
 5808POPC   C4A73422   3.522  42.292   7.364
 5808POPC   C1B73423   3.775  42.136   6.464
 5808POPC   C2B73424   3.759  42.202   6.764
 5808POPC   C3B73425   3.720  42.215   7.064
 5808POPC   C4B73426   3.734  42.158   7.364
 5809POPC   NC373427   2.732  40.051   5.564
 5809POPC   PO473428   2.735  40.047   5.864
 5809POPC   GL173429   2.735  40.042   6.164
 5809POPC   GL273430   2.614  40.007   6.164
 5809POPC   C1A73431   2.758  39.978   6.464
 5809POPC   D2A73432   2.766  40.023   6.764
 5809POPC   C3A73433   2.731  40.048   7.064
 5809POPC   C4A73434   2.749  39.979   7.364
 5809POPC   C1B73435   2.469  40.052   6.464
 5809POPC   C2B73436   2.488  40.043   6.764
 5809POPC   C3B73437   2.519  39.990   7.064
 5809POPC   C4B73438   2.561  40.062   7.364
 5810POPC   NC373439   9.717  13.676   5.564
 5810POPC   PO473440   9.740  13.616   5.864
 5810POPC   GL173441   9.761  13.622   6.164
 5810POPC   GL273442   9.691  13.707   6.164
 5810POPC   C1A73443   9.724  13.630   6.464
 5810POPC   D2A73444   9.767  13.661   6.764
 5810POPC   C3A73445   9.726  13.612   7.064
 5810POPC   C4A73446   9.747  13.578   7.364
 5810POPC   C1B73447   9.598  13.874   6.464
 5810POPC   C2B73448   9.657  13.803   6.764
 5810POPC   C3B73449   9.665  13.822   7.064
 5810POPC   C4B73450   9.667  13.841   7.364
 5811POPC   NC373451  15.934  26.091   5.564
 5811POPC   PO473452  15.999  26.002   5.864
 5811POPC   GL173453  15.926  26.090   6.164
 5811POPC   GL273454  16.041  26.173   6.164
 5811POPC   C1A73455  15.968  26.015   6.464
 5811POPC   D2A73456  15.977  26.007   6.764
 5811POPC   C3A73457  15.945  26.000   7.064
 5811POPC   C4A73458  15.909  26.004   7.364
 5811POPC   C1B73459  16.114  26.215   6.464
 5811POPC   C2B73460  16.123  26.254   6.764
 5811POPC   C3B73461  16.122  26.225   7.064
 5811POPC   C4B73462  16.031  26.248   7.364
 5812POPC   NC373463   2.726  27.543   5.564
 5812POPC   PO473464   2.723  27.599   5.864
 5812POPC   GL173465   2.731  27.607   6.164
 5812POPC   GL273466   2.697  27.693   6.164
 5812POPC   C1A73467   2.783  27.613   6.464
 5812POPC   D2A73468   2.785  27.562   6.764
 5812POPC   C3A73469   2.776  27.586   7.064
 5812POPC   C4A73470   2.763  27.547   7.364
 5812POPC   C1B73471   2.557  27.760   6.464
 5812POPC   C2B73472   2.505  27.676   6.764
 5812POPC   C3B73473   2.526  27.676   7.064
 5812POPC   C4B73474   2.521  27.714   7.364
 5813POPC   NC373475  31.463  11.295   5.564
 5813POPC   PO473476  31.483  11.277   5.864
 5813POPC   GL173477  31.477  11.259   6.164
 5813POPC   GL273478  31.585  11.238   6.164
 5813POPC   C1A73479  31.477  11.258   6.464
 5813POPC   D2A73480  31.519  11.326   6.764
 5813POPC   C3A73481  31.452  11.346   7.064
 5813POPC   C4A73482  31.513  11.320   7.364
 5813POPC   C1B73483  31.607  11.064   6.464
 5813POPC   C2B73484  31.638  11.117   6.764
 5813POPC   C3B73485  31.596  11.122   7.064
 5813POPC   C4B73486  31.658  11.136   7.364
 5814POPC   NC373487  42.324  44.692   5.564
 5814POPC   PO473488  42.382  44.614   5.864
 5814POPC   GL173489  42.328  44.654   6.164
 5814POPC   GL273490  42.181  44.674   6.164
 5814POPC   C1A73491  42.380  44.699   6.464
 5814POPC   D2A73492  42.318  44.677   6.764
 5814POPC   C3A73493  42.313  44.657   7.064
 5814POPC   C4A73494  42.334  44.668   7.364
 5814POPC   C1B73495  42.064  44.625   6.464
 5814POPC   C2B73496  42.066  44.661   6.764
 5814POPC   C3B73497  42.082  44.712   7.064
 5814POPC   C4B73498  42.062  44.708   7.364
 5815POPC   NC373499  44.673  26.788   5.564
 5815POPC   PO473500  44.639  26.805   5.864
 5815POPC   GL173501  44.700  26.776   6.164
 5815POPC   GL273502  44.593  26.855   6.164
 5815POPC   C1A73503  44.623  26.801   6.464
 5815POPC   D2A73504  44.629  26.856   6.764
 5815POPC   C3A73505  44.707  26.857   7.064
 5815POPC   C4A73506  44.657  26.799   7.364
 5815POPC   C1B73507  44.462  26.952   6.464
 5815POPC   C2B73508  44.501  26.946   6.764
 5815POPC   C3B73509  44.496  26.938   7.064
 5815POPC   C4B73510  44.469  27.023   7.364
 5816POPC   NC373511   5.090   8.960   5.564
 5816POPC   PO473512   5.069   8.975   5.864
 5816POPC   GL173513   5.139   9.008   6.164
 5816POPC   GL273514   5.234   9.088   6.164
 5816POPC   C1A73515   5.060   8.940   6.464
 5816POPC   D2A73516   5.113   8.936   6.764
 5816POPC   C3A73517   5.126   8.932   7.064
 5816POPC   C4A73518   5.078   8.987   7.364
 5816POPC   C1B73519   5.313   9.128   6.464
 5816POPC   C2B73520   5.253   9.129   6.764
 5816POPC   C3B73521   5.321   9.070   7.064
 5816POPC   C4B73522   5.332   9.150   7.364
 5817POPC   NC373523  38.454  36.166   5.564
 5817POPC   PO473524  38.409  36.135   5.864
 5817POPC   GL173525  38.484  36.143   6.164
 5817POPC   GL273526  38.390  36.151   6.164
 5817POPC   C1A73527  38.410  36.127   6.464
 5817POPC   D2A73528  38.455  36.140   6.764
 5817POPC   C3A73529  38.484  36.141   7.064
 5817POPC   C4A73530  38.440  36.141   7.364
 5817POPC   C1B73531  38.232  36.259   6.464
 5817POPC   C2B73532  38.240  36.269   6.764
 5817POPC   C3B73533  38.266  36.261   7.064
 5817POPC   C4B73534  38.241  36.212   7.364
 5818POPC   NC373535  15.142  43.870   5.564
 5818POPC   PO473536  15.161  43.860   5.864
 5818POPC   GL173537  15.226  43.852   6.164
 5818POPC   GL273538  15.219  43.818   6.164
 5818POPC   C1A73539  15.131  43.906   6.464
 5818POPC   D2A73540  15.151  43.865   6.764
 5818POPC   C3A73541  15.178  43.890   7.064
 5818POPC   C4A73542  15.227  43.932   7.364
 5818POPC   C1B73543  15.341  43.713   6.464
 5818POPC   C2B73544  15.263  43.618   6.764
 5818POPC   C3B73545  15.270  43.647   7.064
 5818POPC   C4B73546  15.281  43.659   7.364
 5819POPC   NC373547  40.042   0.426   5.564
 5819POPC   PO473548  39.987   0.473   5.864
 5819POPC   GL173549  40.046   0.413   6.164
 5819POPC   GL273550  39.916   0.471   6.164
 5819POPC   C1A73551  40.007   0.448   6.464
 5819POPC   D2A73552  40.000   0.469   6.764
 5819POPC   C3A73553  40.051   0.488   7.064
 5819POPC   C4A73554  40.028   0.419   7.364
 5819POPC   C1B73555  39.734   0.542   6.464
 5819POPC   C2B73556  39.746   0.509   6.764
 5819POPC   C3B73557  39.760   0.498   7.064
 5819POPC   C4B73558  39.793   0.579   7.364
 5820POPC   NC373559   4.352   9.004   5.564
 5820POPC   PO473560   4.336   9.020   5.864
 5820POPC   GL173561   4.320   8.936   6.164
 5820POPC   GL273562   4.324   8.868   6.164
 5820POPC   C1A73563   4.288   8.957   6.464
 5820POPC   D2A73564   4.281   8.985   6.764
 5820POPC   C3A73565   4.337   8.987   7.064
 5820POPC   C4A73566   4.320   8.948   7.364
 5820POPC   C1B73567   4.243   8.728   6.464
 5820POPC   C2B73568   4.320   8.681   6.764
 5820POPC   C3B73569   4.243   8.758   7.064
 5820POPC   C4B73570   4.313   8.706   7.364
 5821POPC   NC373571   9.768  20.575   5.564
 5821POPC   PO473572   9.772  20.592   5.864
 5821POPC   GL173573   9.791  20.597   6.164
 5821POPC   GL273574   9.736  20.678   6.164
 5821POPC   C1A73575   9.761  20.631   6.464
 5821POPC   D2A73576   9.735  20.562   6.764
 5821POPC   C3A73577   9.707  20.569   7.064
 5821POPC   C4A73578   9.743  20.606   7.364
 5821POPC   C1B73579   9.598  20.828   6.464
 5821POPC   C2B73580   9.607  20.826   6.764
 5821POPC   C3B73581   9.690  20.818   7.064
 5821POPC   C4B73582   9.598  20.837   7.364
 5822POPC   NC373583  39.182   5.129   5.564
 5822POPC   PO473584  39.267   5.096   5.864
 5822POPC   GL173585  39.211   5.067   6.164
 5822POPC   GL273586  39.379   5.095   6.164
 5822POPC   C1A73587  39.260   5.057   6.464
 5822POPC   D2A73588  39.193   5.110   6.764
 5822POPC   C3A73589  39.243   5.076   7.064
 5822POPC   C4A73590  39.192   5.087   7.364
 5822POPC   C1B73591  39.433   5.148   6.464
 5822POPC   C2B73592  39.436   5.149   6.764
 5822POPC   C3B73593  39.471   5.171   7.064
 5822POPC   C4B73594  39.526   5.162   7.364
 5823POPC   NC373595  35.380  44.619   5.564
 5823POPC   PO473596  35.390  44.647   5.864
 5823POPC   GL173597  35.318  44.709   6.164
 5823POPC   GL273598  35.391  44.582   6.164
 5823POPC   C1A73599  35.371  44.614   6.464
 5823POPC   D2A73600  35.307  44.689   6.764
 5823POPC   C3A73601  35.361  44.613   7.064
 5823POPC   C4A73602  35.330  44.621   7.364
 5823POPC   C1B73603  35.409  44.408   6.464
 5823POPC   C2B73604  35.407  44.460   6.764
 5823POPC   C3B73605  35.341  44.398   7.064
 5823POPC   C4B73606  35.320  44.411   7.364
 5824POPC   NC373607  20.660   6.643   5.564
 5824POPC   PO473608  20.582   6.683   5.864
 5824POPC   GL173609  20.622   6.645   6.164
 5824POPC   GL273610  20.682   6.790   6.164
 5824POPC   C1A73611  20.624   6.680   6.464
 5824POPC   D2A73612  20.576   6.627   6.764
 5824POPC   C3A73613  20.575   6.638   7.064
 5824POPC   C4A73614  20.637   6.676   7.364
 5824POPC   C1B73615  20.674   6.848   6.464
 5824POPC   C2B73616  20.700   6.919   6.764
 5824POPC   C3B73617  20.629   6.849   7.064
 5824POPC   C4B73618  20.675   6.894   7.364
 5825POPC   NC373619  26.854  36.157   5.564
 5825POPC   PO473620  26.861  36.138   5.864
 5825POPC   GL173621  26.786  36.116   6.164
 5825POPC   GL273622  26.676  36.207   6.164
 5825POPC   C1A73623  26.863  36.086   6.464
 5825POPC   D2A73624  26.838  36.156   6.764
 5825POPC   C3A73625  26.777  36.080   7.064
 5825POPC   C4A73626  26.785  36.098   7.364
 5825POPC   C1B73627  26.596  36.224   6.464
 5825POPC   C2B73628  26.609  36.244   6.764
 5825POPC   C3B73629  26.549  36.165   7.064
 5825POPC   C4B73630  26.565  36.161   7.364
 5826POPC   NC373631  21.404   7.459   5.564
 5826POPC   PO473632  21.412   7.416   5.864
 5826POPC   GL173633  21.377   7.414   6.164
 5826POPC   GL273634  21.336   7.254   6.164
 5826POPC   C1A73635  21.378   7.371   6.464
 5826POPC   D2A73636  21.409   7.378   6.764
 5826POPC   C3A73637  21.382   7.405   7.064
 5826POPC   C4A73638  21.387   7.388   7.364
 5826POPC   C1B73639  21.415   7.155   6.464
 5826POPC   C2B73640  21.341   7.193   6.764
 5826POPC   C3B73641  21.392   7.123   7.064
 5826POPC   C4B73642  21.351   7.174   7.364
 5827POPC   NC373643   0.453   5.066   5.564
 5827POPC   PO473644   0.409   5.099   5.864
 5827POPC   GL173645   0.466   5.052   6.164
 5827POPC   GL273646   0.364   4.997   6.164
 5827POPC   C1A73647   0.459   5.126   6.464
 5827POPC   D2A73648   0.431   5.130   6.764
 5827POPC   C3A73649   0.397   5.089   7.064
 5827POPC   C4A73650   0.455   5.101   7.364
 5827POPC   C1B73651   0.211   4.899   6.464
 5827POPC   C2B73652   0.272   4.892   6.764
 5827POPC   C3B73653   0.265   4.923   7.064
 5827POPC   C4B73654   0.301   4.961   7.364
 5828POPC   NC373655  33.037  32.204   5.564
 5828POPC   PO473656  33.004  32.292   5.864
 5828POPC   GL173657  33.053  32.290   6.164
 5828POPC   GL273658  33.129  32.148   6.164
 5828POPC   C1A73659  32.980  32.268   6.464
 5828POPC   D2A73660  33.071  32.201   6.764
 5828POPC   C3A73661  33.058  32.254   7.064
 5828POPC   C4A73662  33.052  32.297   7.364
 5828POPC   C1B73663  33.229  32.047   6.464
 5828POPC   C2B73664  33.240  32.066   6.764
 5828POPC   C3B73665  33.213  32.109   7.064
 5828POPC   C4B73666  33.208  32.071   7.364
 5829POPC   NC373667  28.333   3.535   5.564
 5829POPC   PO473668  28.337   3.565   5.864
 5829POPC   GL173669  28.342   3.570   6.164
 5829POPC   GL273670  28.271   3.615   6.164
 5829POPC   C1A73671  28.416   3.557   6.464
 5829POPC   D2A73672  28.347   3.563   6.764
 5829POPC   C3A73673  28.400   3.580   7.064
 5829POPC   C4A73674  28.325   3.572   7.364
 5829POPC   C1B73675  28.111   3.704   6.464
 5829POPC   C2B73676  28.128   3.624   6.764
 5829POPC   C3B73677  28.198   3.620   7.064
 5829POPC   C4B73678  28.155   3.629   7.364
 5830POPC   NC373679  32.280  10.559   5.564
 5830POPC   PO473680  32.207  10.518   5.864
 5830POPC   GL173681  32.268  10.492   6.164
 5830POPC   GL273682  32.301  10.429   6.164
 5830POPC   C1A73683  32.260  10.523   6.464
 5830POPC   D2A73684  32.271  10.507   6.764
 5830POPC   C3A73685  32.268  10.520   7.064
 5830POPC   C4A73686  32.295  10.506   7.364
 5830POPC   C1B73687  32.422  10.359   6.464
 5830POPC   C2B73688  32.409  10.394   6.764
 5830POPC   C3B73689  32.436  10.373   7.064
 5830POPC   C4B73690  32.413  10.380   7.364
 5831POPC   NC373691  42.311   7.378   5.564
 5831POPC   PO473692  42.368   7.380   5.864
 5831POPC   GL173693  42.320   7.408   6.164
 5831POPC   GL273694  42.266   7.278   6.164
 5831POPC   C1A73695  42.308   7.423   6.464
 5831POPC   D2A73696  42.299   7.427   6.764
 5831POPC   C3A73697  42.286   7.442   7.064
 5831POPC   C4A73698  42.345   7.454   7.364
 5831POPC   C1B73699  42.307   7.151   6.464
 5831POPC   C2B73700  42.330   7.168   6.764
 5831POPC   C3B73701  42.327   7.187   7.064
 5831POPC   C4B73702  42.330   7.174   7.364
 5832POPC   NC373703  22.974  26.858   5.564
 5832POPC   PO473704  22.942  26.843   5.864
 5832POPC   GL173705  22.933  26.816   6.164
 5832POPC   GL273706  23.040  26.878   6.164
 5832POPC   C1A73707  22.934  26.797   6.464
 5832POPC   D2A73708  22.953  26.818   6.764
 5832POPC   C3A73709  22.936  26.780   7.064
 5832POPC   C4A73710  22.907  26.839   7.364
 5832POPC   C1B73711  23.175  26.928   6.464
 5832POPC   C2B73712  23.139  26.889   6.764
 5832POPC   C3B73713  23.215  26.939   7.064
 5832POPC   C4B73714  23.215  26.940   7.364
 5833POPC   NC373715  25.315  26.002   5.564
 5833POPC   PO473716  25.315  26.054   5.864
 5833POPC   GL173717  25.292  26.089   6.164
 5833POPC   GL273718  25.293  26.189   6.164
 5833POPC   C1A73719  25.312  26.013   6.464
 5833POPC   D2A73720  25.269  26.054   6.764
 5833POPC   C3A73721  25.273  26.054   7.064
 5833POPC   C4A73722  25.280  26.077   7.364
 5833POPC   C1B73723  25.446  26.283   6.464
 5833POPC   C2B73724  25.454  26.220   6.764
 5833POPC   C3B73725  25.379  26.262   7.064
 5833POPC   C4B73726  25.402  26.287   7.364
 5834POPC   NC373727   4.305  17.514   5.564
 5834POPC   PO473728   4.362  17.457   5.864
 5834POPC   GL173729   4.285  17.496   6.164
 5834POPC   GL273730   4.331  17.665   6.164
 5834POPC   C1A73731   4.313  17.464   6.464
 5834POPC   D2A73732   4.308  17.466   6.764
 5834POPC   C3A73733   4.330  17.540   7.064
 5834POPC   C4A73734   4.323  17.526   7.364
 5834POPC   C1B73735   4.428  17.686   6.464
 5834POPC   C2B73736   4.450  17.770   6.764
 5834POPC   C3B73737   4.404  17.757   7.064
 5834POPC   C4B73738   4.429  17.687   7.364
 5835POPC   NC373739  41.516   8.204   5.564
 5835POPC   PO473740  41.555   8.164   5.864
 5835POPC   GL173741  41.608   8.225   6.164
 5835POPC   GL273742  41.587   8.307   6.164
 5835POPC   C1A73743  41.572   8.183   6.464
 5835POPC   D2A73744  41.582   8.238   6.764
 5835POPC   C3A73745  41.538   8.215   7.064
 5835POPC   C4A73746  41.591   8.174   7.364
 5835POPC   C1B73747  41.708   8.437   6.464
 5835POPC   C2B73748  41.663   8.376   6.764
 5835POPC   C3B73749  41.695   8.436   7.064
 5835POPC   C4B73750  41.652   8.432   7.364
 5836POPC   NC373751  16.740   4.344   5.564
 5836POPC   PO473752  16.710   4.314   5.864
 5836POPC   GL173753  16.713   4.366   6.164
 5836POPC   GL273754  16.627   4.261   6.164
 5836POPC   C1A73755  16.724   4.332   6.464
 5836POPC   D2A73756  16.750   4.291   6.764
 5836POPC   C3A73757  16.692   4.347   7.064
 5836POPC   C4A73758  16.753   4.326   7.364
 5836POPC   C1B73759  16.514   4.244   6.464
 5836POPC   C2B73760  16.458   4.227   6.764
 5836POPC   C3B73761  16.444   4.233   7.064
 5836POPC   C4B73762  16.528   4.234   7.364
 5837POPC   NC373763  22.988  22.144   5.564
 5837POPC   PO473764  22.933  22.200   5.864
 5837POPC   GL173765  22.977  22.202   6.164
 5837POPC   GL273766  22.938  22.002   6.164
 5837POPC   C1A73767  22.981  22.126   6.464
 5837POPC   D2A73768  22.914  22.188   6.764
 5837POPC   C3A73769  22.909  22.148   7.064
 5837POPC   C4A73770  22.938  22.144   7.364
 5837POPC   C1B73771  22.962  21.895   6.464
 5837POPC   C2B73772  22.942  21.864   6.764
 5837POPC   C3B73773  22.942  21.911   7.064
 5837POPC   C4B73774  22.986  21.876   7.364
 5838POPC   NC373775   8.168  31.465   5.564
 5838POPC   PO473776   8.238  31.479   5.864
 5838POPC   GL173777   8.170  31.428   6.164
 5838POPC   GL273778   8.135  31.387   6.164
 5838POPC   C1A73779   8.189  31.520   6.464
 5838POPC   D2A73780   8.197  31.480   6.764
 5838POPC   C3A73781   8.212  31.437   7.064
 5838POPC   C4A73782   8.219  31.514   7.364
 5838POPC   C1B73783   7.953  31.336   6.464
 5838POPC   C2B73784   7.941  31.389   6.764
 5838POPC   C3B73785   8.008  31.337   7.064
 5838POPC   C4B73786   8.019  31.326   7.364
 5839POPC   NC373787  41.547  43.128   5.564
 5839POPC   PO473788  41.513  43.062   5.864
 5839POPC   GL173789  41.585  43.137   6.164
 5839POPC   GL273790  41.664  43.133   6.164
 5839POPC   C1A73791  41.583  43.078   6.464
 5839POPC   D2A73792  41.543  43.128   6.764
 5839POPC   C3A73793  41.576  43.150   7.064
 5839POPC   C4A73794  41.523  43.065   7.364
 5839POPC   C1B73795  41.779  43.192   6.464
 5839POPC   C2B73796  41.849  43.191   6.764
 5839POPC   C3B73797  41.822  43.207   7.064
 5839POPC   C4B73798  41.793  43.205   7.364
 5840POPC   NC373799  31.502  36.892   5.564
 5840POPC   PO473800  31.447  36.856   5.864
 5840POPC   GL173801  31.516  36.865   6.164
 5840POPC   GL273802  31.308  36.882   6.164
 5840POPC   C1A73803  31.431  36.915   6.464
 5840POPC   D2A73804  31.440  36.883   6.764
 5840POPC   C3A73805  31.495  36.906   7.064
 5840POPC   C4A73806  31.447  36.862   7.364
 5840POPC   C1B73807  31.219  36.880   6.464
 5840POPC   C2B73808  31.255  36.854   6.764
 5840POPC   C3B73809  31.254  36.860   7.064
 5840POPC   C4B73810  31.211  36.831   7.364
 5841POPC   NC373811  39.259  16.704   5.564
 5841POPC   PO473812  39.256  16.701   5.864
 5841POPC   GL173813  39.277  16.735   6.164
 5841POPC   GL273814  39.379  16.768   6.164
 5841POPC   C1A73815  39.202  16.772   6.464
 5841POPC   D2A73816  39.225  16.755   6.764
 5841POPC   C3A73817  39.280  16.760   7.064
 5841POPC   C4A73818  39.214  16.739   7.364
 5841POPC   C1B73819  39.459  16.692   6.464
 5841POPC   C2B73820  39.468  16.690   6.764
 5841POPC   C3B73821  39.525  16.761   7.064
 5841POPC   C4B73822  39.520  16.727   7.364
 5842POPC   NC373823  18.268   0.478   5.564
 5842POPC   PO473824  18.242   0.394   5.864
 5842POPC   GL173825  18.314   0.401   6.164
 5842POPC   GL273826  18.128   0.503   6.164
 5842POPC   C1A73827  18.284   0.487   6.464
 5842POPC   D2A73828  18.292   0.391   6.764
 5842POPC   C3A73829  18.235   0.468   7.064
 5842POPC   C4A73830  18.263   0.430   7.364
 5842POPC   C1B73831  18.113   0.584   6.464
 5842POPC   C2B73832  18.065   0.596   6.764
 5842POPC   C3B73833  18.040   0.531   7.064
 5842POPC   C4B73834  18.099   0.550   7.364
 5843POPC   NC373835  19.040   8.191   5.564
 5843POPC   PO473836  19.106   8.157   5.864
 5843POPC   GL173837  19.014   8.168   6.164
 5843POPC   GL273838  18.909   8.238   6.164
 5843POPC   C1A73839  19.010   8.240   6.464
 5843POPC   D2A73840  19.025   8.225   6.764
 5843POPC   C3A73841  19.015   8.164   7.064
 5843POPC   C4A73842  19.048   8.179   7.364
 5843POPC   C1B73843  18.820   8.285   6.464
 5843POPC   C2B73844  18.780   8.202   6.764
 5843POPC   C3B73845  18.795   8.234   7.064
 5843POPC   C4B73846  18.804   8.263   7.364
 5844POPC   NC373847  35.331  32.974   5.564
 5844POPC   PO473848  35.308  32.975   5.864
 5844POPC   GL173849  35.309  33.061   6.164
 5844POPC   GL273850  35.235  32.923   6.164
 5844POPC   C1A73851  35.398  33.074   6.464
 5844POPC   D2A73852  35.396  33.014   6.764
 5844POPC   C3A73853  35.318  33.068   7.064
 5844POPC   C4A73854  35.317  33.001   7.364
 5844POPC   C1B73855  35.159  32.825   6.464
 5844POPC   C2B73856  35.173  32.840   6.764
 5844POPC   C3B73857  35.113  32.846   7.064
 5844POPC   C4B73858  35.126  32.891   7.364
 5845POPC   NC373859  40.022   4.358   5.564
 5845POPC   PO473860  40.024   4.299   5.864
 5845POPC   GL173861  39.971   4.299   6.164
 5845POPC   GL273862  39.875   4.335   6.164
 5845POPC   C1A73863  40.000   4.301   6.464
 5845POPC   D2A73864  40.052   4.358   6.764
 5845POPC   C3A73865  39.994   4.270   7.064
 5845POPC   C4A73866  40.044   4.334   7.364
 5845POPC   C1B73867  39.817   4.373   6.464
 5845POPC   C2B73868  39.739   4.439   6.764
 5845POPC   C3B73869  39.812   4.355   7.064
 5845POPC   C4B73870  39.804   4.357   7.364
 5846POPC   NC373871  39.963  22.957   5.564
 5846POPC   PO473872  40.010  22.973   5.864
 5846POPC   GL173873  40.013  22.920   6.164
 5846POPC   GL273874  40.012  23.032   6.164
 5846POPC   C1A73875  39.985  22.894   6.464
 5846POPC   D2A73876  40.032  22.920   6.764
 5846POPC   C3A73877  40.042  22.913   7.064
 5846POPC   C4A73878  39.961  22.951   7.364
 5846POPC   C1B73879  39.968  23.224   6.464
 5846POPC   C2B73880  39.977  23.211   6.764
 5846POPC   C3B73881  39.996  23.198   7.064
 5846POPC   C4B73882  39.999  23.216   7.364
 5847POPC   NC373883   5.864  33.063   5.564
 5847POPC   PO473884   5.835  33.054   5.864
 5847POPC   GL173885   5.916  33.041   6.164
 5847POPC   GL273886   5.792  33.086   6.164
 5847POPC   C1A73887   5.911  32.993   6.464
 5847POPC   D2A73888   5.908  33.030   6.764
 5847POPC   C3A73889   5.826  33.009   7.064
 5847POPC   C4A73890   5.822  33.008   7.364
 5847POPC   C1B73891   5.576  33.102   6.464
 5847POPC   C2B73892   5.579  33.016   6.764
 5847POPC   C3B73893   5.614  33.069   7.064
 5847POPC   C4B73894   5.633  33.045   7.364
 5848POPC   NC373895  10.495  26.049   5.564
 5848POPC   PO473896  10.526  26.020   5.864
 5848POPC   GL173897  10.549  26.063   6.164
 5848POPC   GL273898  10.531  26.113   6.164
 5848POPC   C1A73899  10.565  26.000   6.464
 5848POPC   D2A73900  10.479  26.069   6.764
 5848POPC   C3A73901  10.536  26.035   7.064
 5848POPC   C4A73902  10.571  26.069   7.364
 5848POPC   C1B73903  10.597  26.272   6.464
 5848POPC   C2B73904  10.581  26.256   6.764
 5848POPC   C3B73905  10.608  26.242   7.064
 5848POPC   C4B73906  10.609  26.313   7.364
 5849POPC   NC373907  17.532   0.412   5.564
 5849POPC   PO473908  17.527   0.471   5.864
 5849POPC   GL173909  17.459   0.435   6.164
 5849POPC   GL273910  17.581   0.462   6.164
 5849POPC   C1A73911  17.552   0.455   6.464
 5849POPC   D2A73912  17.508   0.420   6.764
 5849POPC   C3A73913  17.522   0.406   7.064
 5849POPC   C4A73914  17.541   0.417   7.364
 5849POPC   C1B73915  17.742   0.540   6.464
 5849POPC   C2B73916  17.723   0.519   6.764
 5849POPC   C3B73917  17.769   0.539   7.064
 5849POPC   C4B73918  17.706   0.563   7.364
 5850POPC   NC373919   3.582  28.404   5.564
 5850POPC   PO473920   3.505  28.321   5.864
 5850POPC   GL173921   3.550  28.392   6.164
 5850POPC   GL273922   3.399  28.464   6.164
 5850POPC   C1A73923   3.546  28.322   6.464
 5850POPC   D2A73924   3.526  28.406   6.764
 5850POPC   C3A73925   3.502  28.319   7.064
 5850POPC   C4A73926   3.528  28.382   7.364
 5850POPC   C1B73927   3.371  28.512   6.464
 5850POPC   C2B73928   3.314  28.534   6.764
 5850POPC   C3B73929   3.388  28.559   7.064
 5850POPC   C4B73930   3.351  28.528   7.364
 5851POPC   NC373931  38.446   0.477   5.564
 5851POPC   PO473932  38.431   0.482   5.864
 5851POPC   GL173933  38.489   0.467   6.164
 5851POPC   GL273934  38.295   0.443   6.164
 5851POPC   C1A73935  38.473   0.420   6.464
 5851POPC   D2A73936  38.417   0.463   6.764
 5851POPC   C3A73937  38.452   0.454   7.064
 5851POPC   C4A73938  38.452   0.401   7.364
 5851POPC   C1B73939  38.248   0.508   6.464
 5851POPC   C2B73940  38.183   0.528   6.764
 5851POPC   C3B73941  38.203   0.576   7.064
 5851POPC   C4B73942  38.182   0.529   7.364
 5852POPC   NC373943  44.707  43.113   5.564
 5852POPC   PO473944  44.704  43.120   5.864
 5852POPC   GL173945  44.640  43.151   6.164
 5852POPC   GL273946  44.688  42.966   6.164
 5852POPC   C1A73947  44.675  43.159   6.464
 5852POPC   D2A73948  44.661  43.066   6.764
 5852POPC   C3A73949  44.691  43.137   7.064
 5852POPC   C4A73950  44.662  43.148   7.364
 5852POPC   C1B73951  44.712  42.915   6.464
 5852POPC   C2B73952  44.730  42.838   6.764
 5852POPC   C3B73953  44.752  42.888   7.064
 5852POPC   C4B73954  44.700  42.903   7.364
 5853POPC   NC373955   5.914  32.201   5.564
 5853POPC   PO473956   5.908  32.220   5.864
 5853POPC   GL173957   5.841  32.296   6.164
 5853POPC   GL273958   5.727  32.291   6.164
 5853POPC   C1A73959   5.912  32.244   6.464
 5853POPC   D2A73960   5.881  32.288   6.764
 5853POPC   C3A73961   5.881  32.235   7.064
 5853POPC   C4A73962   5.827  32.201   7.364
 5853POPC   C1B73963   5.627  32.197   6.464
 5853POPC   C2B73964   5.607  32.289   6.764
 5853POPC   C3B73965   5.585  32.220   7.064
 5853POPC   C4B73966   5.659  32.285   7.364
 5854POPC   NC373967  41.559  32.207   5.564
 5854POPC   PO473968  41.584  32.264   5.864
 5854POPC   GL173969  41.533  32.271   6.164
 5854POPC   GL273970  41.625  32.178   6.164
 5854POPC   C1A73971  41.600  32.296   6.464
 5854POPC   D2A73972  41.509  32.214   6.764
 5854POPC   C3A73973  41.576  32.207   7.064
 5854POPC   C4A73974  41.588  32.267   7.364
 5854POPC   C1B73975  41.740  32.142   6.464
 5854POPC   C2B73976  41.834  32.102   6.764
 5854POPC   C3B73977  41.829  32.127   7.064
 5854POPC   C4B73978  41.749  32.176   7.364
 5855POPC   NC373979  41.516  13.644   5.564
 5855POPC   PO473980  41.538  13.594   5.864
 5855POPC   GL173981  41.517  13.618   6.164
 5855POPC   GL273982  41.661  13.723   6.164
 5855POPC   C1A73983  41.565  13.663   6.464
 5855POPC   D2A73984  41.543  13.596   6.764
 5855POPC   C3A73985  41.581  13.588   7.064
 5855POPC   C4A73986  41.601  13.646   7.364
 5855POPC   C1B73987  41.713  13.814   6.464
 5855POPC   C2B73988  41.694  13.782   6.764
 5855POPC   C3B73989  41.749  13.834   7.064
 5855POPC   C4B73990  41.721  13.824   7.364
 5856POPC   NC373991  14.394  43.913   5.564
 5856POPC   PO473992  14.418  43.870   5.864
 5856POPC   GL173993  14.422  43.846   6.164
 5856POPC   GL273994  14.485  43.964   6.164
 5856POPC   C1A73995  14.421  43.893   6.464
 5856POPC   D2A73996  14.398  43.870   6.764
 5856POPC   C3A73997  14.402  43.896   7.064
 5856POPC   C4A73998  14.452  43.841   7.364
 5856POPC   C1B73999  14.688  43.919   6.464
 5856POPC   C2B74000  14.660  43.976   6.764
 5856POPC   C3B74001  14.652  43.896   7.064
 5856POPC   C4B74002  14.653  43.940   7.364
 5857POPC   NC374003  33.847  26.825   5.564
 5857POPC   PO474004  33.759  26.857   5.864
 5857POPC   GL174005  33.811  26.855   6.164
 5857POPC   GL274006  33.937  26.860   6.164
 5857POPC   C1A74007  33.831  26.792   6.464
 5857POPC   D2A74008  33.825  26.779   6.764
 5857POPC   C3A74009  33.849  26.773   7.064
 5857POPC   C4A74010  33.834  26.823   7.364
 5857POPC   C1B74011  33.973  26.976   6.464
 5857POPC   C2B74012  34.001  26.996   6.764
 5857POPC   C3B74013  33.953  26.958   7.064
 5857POPC   C4B74014  33.961  26.945   7.364
 5858POPC   NC374015  36.908  41.567   5.564
 5858POPC   PO474016  36.917  41.510   5.864
 5858POPC   GL174017  36.946  41.529   6.164
 5858POPC   GL274018  36.995  41.521   6.164
 5858POPC   C1A74019  36.893  41.584   6.464
 5858POPC   D2A74020  36.904  41.527   6.764
 5858POPC   C3A74021  36.897  41.534   7.064
 5858POPC   C4A74022  36.949  41.551   7.364
 5858POPC   C1B74023  37.140  41.495   6.464
 5858POPC   C2B74024  37.184  41.541   6.764
 5858POPC   C3B74025  37.130  41.520   7.064
 5858POPC   C4B74026  37.124  41.552   7.364
 5859POPC   NC374027  43.137  13.578   5.564
 5859POPC   PO474028  43.106  13.663   5.864
 5859POPC   GL174029  43.063  13.643   6.164
 5859POPC   GL274030  43.241  13.585   6.164
 5859POPC   C1A74031  43.137  13.604   6.464
 5859POPC   D2A74032  43.143  13.580   6.764
 5859POPC   C3A74033  43.084  13.634   7.064
 5859POPC   C4A74034  43.153  13.668   7.364
 5859POPC   C1B74035  43.316  13.494   6.464
 5859POPC   C2B74036  43.239  13.460   6.764
 5859POPC   C3B74037  43.271  13.453   7.064
 5859POPC   C4B74038  43.287  13.462   7.364
 5860POPC   NC374039   2.753  12.808   5.564
 5860POPC   PO474040   2.749  12.896   5.864
 5860POPC   GL174041   2.781  12.853   6.164
 5860POPC   GL274042   2.734  12.682   6.164
 5860POPC   C1A74043   2.809  12.822   6.464
 5860POPC   D2A74044   2.717  12.830   6.764
 5860POPC   C3A74045   2.769  12.819   7.064
 5860POPC   C4A74046   2.741  12.887   7.364
 5860POPC   C1B74047   2.757  12.634   6.464
 5860POPC   C2B74048   2.716  12.639   6.764
 5860POPC   C3B74049   2.730  12.601   7.064
 5860POPC   C4B74050   2.733  12.600   7.364
 5861POPC   NC374051  25.251  41.569   5.564
 5861POPC   PO474052  25.256  41.513   5.864
 5861POPC   GL174053  25.230  41.533   6.164
 5861POPC   GL274054  25.348  41.401   6.164
 5861POPC   C1A74055  25.227  41.556   6.464
 5861POPC   D2A74056  25.315  41.598   6.764
 5861POPC   C3A74057  25.315  41.520   7.064
 5861POPC   C4A74058  25.258  41.553   7.364
 5861POPC   C1B74059  25.367  41.317   6.464
 5861POPC   C2B74060  25.366  41.314   6.764
 5861POPC   C3B74061  25.409  41.351   7.064
 5861POPC   C4B74062  25.408  41.365   7.364
 5862POPC   NC374063  24.449   6.598   5.564
 5862POPC   PO474064  24.539   6.600   5.864
 5862POPC   GL174065  24.533   6.675   6.164
 5862POPC   GL274066  24.593   6.642   6.164
 5862POPC   C1A74067  24.538   6.611   6.464
 5862POPC   D2A74068  24.459   6.631   6.764
 5862POPC   C3A74069  24.527   6.681   7.064
 5862POPC   C4A74070  24.452   6.632   7.364
 5862POPC   C1B74071  24.744   6.712   6.464
 5862POPC   C2B74072  24.698   6.716   6.764
 5862POPC   C3B74073  24.717   6.738   7.064
 5862POPC   C4B74074  24.707   6.724   7.364
 5863POPC   NC374075  13.660  27.614   5.564
 5863POPC   PO474076  13.604  27.583   5.864
 5863POPC   GL174077  13.655  27.572   6.164
 5863POPC   GL274078  13.790  27.582   6.164
 5863POPC   C1A74079  13.615  27.554   6.464
 5863POPC   D2A74080  13.656  27.640   6.764
 5863POPC   C3A74081  13.669  27.546   7.064
 5863POPC   C4A74082  13.607  27.556   7.364
 5863POPC   C1B74083  13.907  27.622   6.464
 5863POPC   C2B74084  13.895  27.605   6.764
 5863POPC   C3B74085  13.906  27.583   7.064
 5863POPC   C4B74086  13.835  27.603   7.364
 5864POPC   NC374087  24.523  19.865   5.564
 5864POPC   PO474088  24.453  19.858   5.864
 5864POPC   GL174089  24.471  19.799   6.164
 5864POPC   GL274090  24.613  19.731   6.164
 5864POPC   C1A74091  24.486  19.864   6.464
 5864POPC   D2A74092  24.538  19.802   6.764
 5864POPC   C3A74093  24.486  19.868   7.064
 5864POPC   C4A74094  24.506  19.836   7.364
 5864POPC   C1B74095  24.692  19.682   6.464
 5864POPC   C2B74096  24.654  19.702   6.764
 5864POPC   C3B74097  24.674  19.691   7.064
 5864POPC   C4B74098  24.720  19.704   7.364
 5865POPC   NC374099  19.785  40.790   5.564
 5865POPC   PO474100  19.835  40.738   5.864
 5865POPC   GL174101  19.820  40.803   6.164
 5865POPC   GL274102  19.905  40.715   6.164
 5865POPC   C1A74103  19.820  40.785   6.464
 5865POPC   D2A74104  19.857  40.746   6.764
 5865POPC   C3A74105  19.845  40.777   7.064
 5865POPC   C4A74106  19.852  40.744   7.364
 5865POPC   C1B74107  19.918  40.512   6.464
 5865POPC   C2B74108  19.926  40.557   6.764
 5865POPC   C3B74109  19.975  40.545   7.064
 5865POPC   C4B74110  19.914  40.560   7.364
 5866POPC   NC374111  22.905  21.359   5.564
 5866POPC   PO474112  22.969  21.406   5.864
 5866POPC   GL174113  22.915  21.388   6.164
 5866POPC   GL274114  22.865  21.498   6.164
 5866POPC   C1A74115  22.963  21.341   6.464
 5866POPC   D2A74116  22.912  21.396   6.764
 5866POPC   C3A74117  22.895  21.377   7.064
 5866POPC   C4A74118  22.891  21.431   7.364
 5866POPC   C1B74119  22.776  21.548   6.464
 5866POPC   C2B74120  22.740  21.522   6.764
 5866POPC   C3B74121  22.726  21.533   7.064
 5866POPC   C4B74122  22.797  21.532   7.364
 5867POPC   NC374123  18.303  21.393   5.564
 5867POPC   PO474124  18.289  21.361   5.864
 5867POPC   GL174125  18.241  21.365   6.164
 5867POPC   GL274126  18.278  21.481   6.164
 5867POPC   C1A74127  18.315  21.340   6.464
 5867POPC   D2A74128  18.315  21.412   6.764
 5867POPC   C3A74129  18.265  21.402   7.064
 5867POPC   C4A74130  18.244  21.387   7.364
 5867POPC   C1B74131  18.225  21.627   6.464
 5867POPC   C2B74132  18.165  21.618   6.764
 5867POPC   C3B74133  18.153  21.628   7.064
 5867POPC   C4B74134  18.151  21.663   7.364
 5868POPC   NC374135  10.491  43.126   5.564
 5868POPC   PO474136  10.500  43.138   5.864
 5868POPC   GL174137  10.484  43.087   6.164
 5868POPC   GL274138  10.617  43.063   6.164
 5868POPC   C1A74139  10.515  43.143   6.464
 5868POPC   D2A74140  10.557  43.154   6.764
 5868POPC   C3A74141  10.534  43.115   7.064
 5868POPC   C4A74142  10.540  43.159   7.364
 5868POPC   C1B74143  10.744  43.065   6.464
 5868POPC   C2B74144  10.739  43.134   6.764
 5868POPC   C3B74145  10.797  43.063   7.064
 5868POPC   C4B74146  10.783  43.056   7.364
 5869POPC   NC374147   5.858  19.855   5.564
 5869POPC   PO474148   5.876  19.822   5.864
 5869POPC   GL174149   5.916  19.835   6.164
 5869POPC   GL274150   5.744  19.727   6.164
 5869POPC   C1A74151   5.884  19.815   6.464
 5869POPC   D2A74152   5.893  19.878   6.764
 5869POPC   C3A74153   5.828  19.855   7.064
 5869POPC   C4A74154   5.918  19.802   7.364
 5869POPC   C1B74155   5.688  19.673   6.464
 5869POPC   C2B74156   5.706  19.682   6.764
 5869POPC   C3B74157   5.662  19.618   7.064
 5869POPC   C4B74158   5.735  19.646   7.364
 5870POPC   NC374159  17.550  19.785   5.564
 5870POPC   PO474160  17.541  19.833   5.864
 5870POPC   GL174161  17.483  19.854   6.164
 5870POPC   GL274162  17.561  19.920   6.164
 5870POPC   C1A74163  17.539  19.816   6.464
 5870POPC   D2A74164  17.556  19.870   6.764
 5870POPC   C3A74165  17.464  19.805   7.064
 5870POPC   C4A74166  17.480  19.871   7.364
 5870POPC   C1B74167  17.629  20.064   6.464
 5870POPC   C2B74168  17.637  19.985   6.764
 5870POPC   C3B74169  17.664  20.023   7.064
 5870POPC   C4B74170  17.671  20.062   7.364
 5871POPC   NC374171  25.274  35.341   5.564
 5871POPC   PO474172  25.294  35.359   5.864
 5871POPC   GL174173  25.306  35.337   6.164
 5871POPC   GL274174  25.355  35.444   6.164
 5871POPC   C1A74175  25.234  35.354   6.464
 5871POPC   D2A74176  25.233  35.359   6.764
 5871POPC   C3A74177  25.276  35.305   7.064
 5871POPC   C4A74178  25.220  35.349   7.364
 5871POPC   C1B74179  25.409  35.594   6.464
 5871POPC   C2B74180  25.357  35.532   6.764
 5871POPC   C3B74181  25.390  35.534   7.064
 5871POPC   C4B74182  25.395  35.553   7.364
 5872POPC   NC374183  34.565   3.499   5.564
 5872POPC   PO474184  34.582   3.529   5.864
 5872POPC   GL174185  34.621   3.509   6.164
 5872POPC   GL274186  34.499   3.442   6.164
 5872POPC   C1A74187  34.573   3.579   6.464
 5872POPC   D2A74188  34.607   3.581   6.764
 5872POPC   C3A74189  34.583   3.587   7.064
 5872POPC   C4A74190  34.584   3.578   7.364
 5872POPC   C1B74191  34.333   3.405   6.464
 5872POPC   C2B74192  34.369   3.395   6.764
 5872POPC   C3B74193  34.348   3.419   7.064
 5872POPC   C4B74194  34.416   3.394   7.364
 5873POPC   NC374195   3.514  13.669   5.564
 5873POPC   PO474196   3.565  13.640   5.864
 5873POPC   GL174197   3.519  13.659   6.164
 5873POPC   GL274198   3.641  13.727   6.164
 5873POPC   C1A74199   3.532  13.598   6.464
 5873POPC   D2A74200   3.492  13.628   6.764
 5873POPC   C3A74201   3.501  13.586   7.064
 5873POPC   C4A74202   3.502  13.667   7.364
 5873POPC   C1B74203   3.736  13.776   6.464
 5873POPC   C2B74204   3.741  13.743   6.764
 5873POPC   C3B74205   3.743  13.769   7.064
 5873POPC   C4B74206   3.767  13.735   7.364
 5874POPC   NC374207  29.124  10.534   5.564
 5874POPC   PO474208  29.166  10.573   5.864
 5874POPC   GL174209  29.144  10.514   6.164
 5874POPC   GL274210  29.274  10.533   6.164
 5874POPC   C1A74211  29.162  10.477   6.464
 5874POPC   D2A74212  29.137  10.541   6.764
 5874POPC   C3A74213  29.146  10.572   7.064
 5874POPC   C4A74214  29.169  10.522   7.364
 5874POPC   C1B74215  29.393  10.450   6.464
 5874POPC   C2B74216  29.346  10.441   6.764
 5874POPC   C3B74217  29.425  10.490   7.064
 5874POPC   C4B74218  29.417  10.421   7.364
 5875POPC   NC374219  26.795  16.778   5.564
 5875POPC   PO474220  26.803  16.695   5.864
 5875POPC   GL174221  26.838  16.719   6.164
 5875POPC   GL274222  26.896  16.783   6.164
 5875POPC   C1A74223  26.768  16.761   6.464
 5875POPC   D2A74224  26.799  16.747   6.764
 5875POPC   C3A74225  26.864  16.718   7.064
 5875POPC   C4A74226  26.830  16.736   7.364
 5875POPC   C1B74227  27.053  16.759   6.464
 5875POPC   C2B74228  27.024  16.780   6.764
 5875POPC   C3B74229  27.037  16.753   7.064
 5875POPC   C4B74230  27.093  16.765   7.364
 5876POPC   NC374231   7.380  27.569   5.564
 5876POPC   PO474232   7.406  27.570   5.864
 5876POPC   GL174233   7.411  27.587   6.164
 5876POPC   GL274234   7.264  27.535   6.164
 5876POPC   C1A74235   7.443  27.611   6.464
 5876POPC   D2A74236   7.395  27.590   6.764
 5876POPC   C3A74237   7.402  27.625   7.064
 5876POPC   C4A74238   7.437  27.605   7.364
 5876POPC   C1B74239   7.174  27.462   6.464
 5876POPC   C2B74240   7.225  27.492   6.764
 5876POPC   C3B74241   7.161  27.500   7.064
 5876POPC   C4B74242   7.218  27.531   7.364
 5877POPC   NC374243   5.143  40.025   5.564
 5877POPC   PO474244   5.125  40.046   5.864
 5877POPC   GL174245   5.065  40.013   6.164
 5877POPC   GL274246   5.225  39.972   6.164
 5877POPC   C1A74247   5.079  40.033   6.464
 5877POPC   D2A74248   5.112  39.962   6.764
 5877POPC   C3A74249   5.071  39.985   7.064
 5877POPC   C4A74250   5.093  40.011   7.364
 5877POPC   C1B74251   5.273  39.850   6.464
 5877POPC   C2B74252   5.317  39.910   6.764
 5877POPC   C3B74253   5.284  39.906   7.064
 5877POPC   C4B74254   5.329  39.869   7.364
 5878POPC   NC374255   6.605   5.854   5.564
 5878POPC   PO474256   6.603   5.866   5.864
 5878POPC   GL174257   6.659   5.874   6.164
 5878POPC   GL274258   6.757   5.891   6.164
 5878POPC   C1A74259   6.637   5.861   6.464
 5878POPC   D2A74260   6.609   5.845   6.764
 5878POPC   C3A74261   6.660   5.896   7.064
 5878POPC   C4A74262   6.692   5.835   7.364
 5878POPC   C1B74263   6.859   5.864   6.464
 5878POPC   C2B74264   6.852   5.865   6.764
 5878POPC   C3B74265   6.907   5.882   7.064
 5878POPC   C4B74266   6.889   5.871   7.364
 5879POPC   NC374267  33.790  18.244   5.564
 5879POPC   PO474268  33.762  18.245   5.864
 5879POPC   GL174269  33.757  18.320   6.164
 5879POPC   GL274270  33.774  18.445   6.164
 5879POPC   C1A74271  33.778  18.268   6.464
 5879POPC   D2A74272  33.809  18.270   6.764
 5879POPC   C3A74273  33.811  18.274   7.064
 5879POPC   C4A74274  33.762  18.237   7.364
 5879POPC   C1B74275  33.828  18.562   6.464
 5879POPC   C2B74276  33.776  18.548   6.764
 5879POPC   C3B74277  33.760  18.544   7.064
 5879POPC   C4B74278  33.783  18.538   7.364
 5880POPC   NC374279  35.361  41.573   5.564
 5880POPC   PO474280  35.398  41.575   5.864
 5880POPC   GL174281  35.337  41.583   6.164
 5880POPC   GL274282  35.276  41.434   6.164
 5880POPC   C1A74283  35.394  41.580   6.464
 5880POPC   D2A74284  35.372  41.575   6.764
 5880POPC   C3A74285  35.378  41.580   7.064
 5880POPC   C4A74286  35.307  41.522   7.364
 5880POPC   C1B74287  35.279  41.275   6.464
 5880POPC   C2B74288  35.325  41.327   6.764
 5880POPC   C3B74289  35.263  41.315   7.064
 5880POPC   C4B74290  35.252  41.300   7.364
 5881POPC   NC374291  32.248   0.482   5.564
 5881POPC   PO474292  32.207   0.474   5.864
 5881POPC   GL174293  32.205   0.475   6.164
 5881POPC   GL274294  32.131   0.339   6.164
 5881POPC   C1A74295  32.203   0.476   6.464
 5881POPC   D2A74296  32.279   0.481   6.764
 5881POPC   C3A74297  32.224   0.419   7.064
 5881POPC   C4A74298  32.281   0.421   7.364
 5881POPC   C1B74299  32.054   0.280   6.464
 5881POPC   C2B74300  32.008   0.300   6.764
 5881POPC   C3B74301  31.978   0.286   7.064
 5881POPC   C4B74302  32.008   0.310   7.364
 5882POPC   NC374303  18.257  26.064   5.564
 5882POPC   PO474304  18.270  26.064   5.864
 5882POPC   GL174305  18.311  26.007   6.164
 5882POPC   GL274306  18.378  25.951   6.164
 5882POPC   C1A74307  18.315  26.078   6.464
 5882POPC   D2A74308  18.280  26.050   6.764
 5882POPC   C3A74309  18.330  26.001   7.064
 5882POPC   C4A74310  18.327  26.083   7.364
 5882POPC   C1B74311  18.449  25.872   6.464
 5882POPC   C2B74312  18.443  25.923   6.764
 5882POPC   C3B74313  18.461  25.870   7.064
 5882POPC   C4B74314  18.451  25.922   7.364
 5883POPC   NC374315  29.148   9.706   5.564
 5883POPC   PO474316  29.103   9.750   5.864
 5883POPC   GL174317  29.112   9.708   6.164
 5883POPC   GL274318  29.212   9.891   6.164
 5883POPC   C1A74319  29.122   9.758   6.464
 5883POPC   D2A74320  29.155   9.730   6.764
 5883POPC   C3A74321  29.161   9.723   7.064
 5883POPC   C4A74322  29.100   9.708   7.364
 5883POPC   C1B74323  29.175   9.999   6.464
 5883POPC   C2B74324  29.219   9.972   6.764
 5883POPC   C3B74325  29.203   9.949   7.064
 5883POPC   C4B74326  29.199   9.959   7.364
 5884POPC   NC374327  41.583  12.065   5.564
 5884POPC   PO474328  41.585  12.074   5.864
 5884POPC   GL174329  41.525  12.106   6.164
 5884POPC   GL274330  41.455  12.047   6.164
 5884POPC   C1A74331  41.521  12.114   6.464
 5884POPC   D2A74332  41.574  12.032   6.764
 5884POPC   C3A74333  41.578  12.088   7.064
 5884POPC   C4A74334  41.574  12.093   7.364
 5884POPC   C1B74335  41.350  12.125   6.464
 5884POPC   C2B74336  41.272  12.077   6.764
 5884POPC   C3B74337  41.272  12.111   7.064
 5884POPC   C4B74338  41.334  12.122   7.364
 5885POPC   NC374339  30.721   4.342   5.564
 5885POPC   PO474340  30.649   4.298   5.864
 5885POPC   GL174341  30.649   4.289   6.164
 5885POPC   GL274342  30.545   4.307   6.164
 5885POPC   C1A74343  30.686   4.307   6.464
 5885POPC   D2A74344  30.696   4.320   6.764
 5885POPC   C3A74345  30.653   4.334   7.064
 5885POPC   C4A74346  30.733   4.349   7.364
 5885POPC   C1B74347  30.474   4.253   6.464
 5885POPC   C2B74348  30.434   4.246   6.764
 5885POPC   C3B74349  30.484   4.322   7.064
 5885POPC   C4B74350  30.487   4.278   7.364
 5886POPC   NC374351   0.456  18.289   5.564
 5886POPC   PO474352   0.451  18.272   5.864
 5886POPC   GL174353   0.398  18.273   6.164
 5886POPC   GL274354   0.549  18.366   6.164
 5886POPC   C1A74355   0.468  18.282   6.464
 5886POPC   D2A74356   0.396  18.307   6.764
 5886POPC   C3A74357   0.425  18.284   7.064
 5886POPC   C4A74358   0.399  18.314   7.364
 5886POPC   C1B74359   0.607  18.470   6.464
 5886POPC   C2B74360   0.621  18.473   6.764
 5886POPC   C3B74361   0.588  18.469   7.064
 5886POPC   C4B74362   0.645  18.512   7.364
 5887POPC   NC374363  21.433  32.278   5.564
 5887POPC   PO474364  21.351  32.232   5.864
 5887POPC   GL174365  21.353  32.288   6.164
 5887POPC   GL274366  21.514  32.178   6.164
 5887POPC   C1A74367  21.400  32.282   6.464
 5887POPC   D2A74368  21.422  32.296   6.764
 5887POPC   C3A74369  21.389  32.226   7.064
 5887POPC   C4A74370  21.385  32.257   7.364
 5887POPC   C1B74371  21.656  32.178   6.464
 5887POPC   C2B74372  21.617  32.186   6.764
 5887POPC   C3B74373  21.662  32.251   7.064
 5887POPC   C4B74374  21.605  32.168   7.364
 5888POPC   NC374375  28.418  25.993   5.564
 5888POPC   PO474376  28.397  26.014   5.864
 5888POPC   GL174377  28.358  26.053   6.164
 5888POPC   GL274378  28.440  26.012   6.164
 5888POPC   C1A74379  28.372  25.996   6.464
 5888POPC   D2A74380  28.367  26.030   6.764
 5888POPC   C3A74381  28.348  25.995   7.064
 5888POPC   C4A74382  28.321  26.040   7.364
 5888POPC   C1B74383  28.572  25.908   6.464
 5888POPC   C2B74384  28.626  25.969   6.764
 5888POPC   C3B74385  28.626  25.889   7.064
 5888POPC   C4B74386  28.600  25.944   7.364
 5889POPC   NC374387  11.302  15.918   5.564
 5889POPC   PO474388  11.282  15.988   5.864
 5889POPC   GL174389  11.271  15.936   6.164
 5889POPC   GL274390  11.262  15.807   6.164
 5889POPC   C1A74391  11.291  15.940   6.464
 5889POPC   D2A74392  11.262  16.000   6.764
 5889POPC   C3A74393  11.270  15.951   7.064
 5889POPC   C4A74394  11.289  15.962   7.364
 5889POPC   C1B74395  11.163  15.760   6.464
 5889POPC   C2B74396  11.167  15.714   6.764
 5889POPC   C3B74397  11.164  15.689   7.064
 5889POPC   C4B74398  11.212  15.744   7.364
 5890POPC   NC374399  26.858   5.095   5.564
 5890POPC   PO474400  26.809   5.086   5.864
 5890POPC   GL174401  26.799   5.138   6.164
 5890POPC   GL274402  26.942   5.047   6.164
 5890POPC   C1A74403  26.804   5.121   6.464
 5890POPC   D2A74404  26.770   5.098   6.764
 5890POPC   C3A74405  26.835   5.068   7.064
 5890POPC   C4A74406  26.861   5.117   7.364
 5890POPC   C1B74407  27.034   5.008   6.464
 5890POPC   C2B74408  27.001   5.038   6.764
 5890POPC   C3B74409  27.040   4.961   7.064
 5890POPC   C4B74410  27.012   5.018   7.364
 5891POPC   NC374411  29.915   6.683   5.564
 5891POPC   PO474412  29.913   6.635   5.864
 5891POPC   GL174413  29.873   6.602   6.164
 5891POPC   GL274414  30.072   6.646   6.164
 5891POPC   C1A74415  29.910   6.689   6.464
 5891POPC   D2A74416  29.964   6.619   6.764
 5891POPC   C3A74417  29.893   6.618   7.064
 5891POPC   C4A74418  29.905   6.676   7.364
 5891POPC   C1B74419  30.187   6.618   6.464
 5891POPC   C2B74420  30.126   6.606   6.764
 5891POPC   C3B74421  30.121   6.609   7.064
 5891POPC   C4B74422  30.191   6.578   7.364
 5892POPC   NC374423  32.216  39.199   5.564
 5892POPC   PO474424  32.217  39.235   5.864
 5892POPC   GL174425  32.207  39.209   6.164
 5892POPC   GL274426  32.124  39.243   6.164
 5892POPC   C1A74427  32.293  39.264   6.464
 5892POPC   D2A74428  32.297  39.280   6.764
 5892POPC   C3A74429  32.249  39.271   7.064
 5892POPC   C4A74430  32.206  39.253   7.364
 5892POPC   C1B74431  31.966  39.240   6.464
 5892POPC   C2B74432  31.975  39.212   6.764
 5892POPC   C3B74433  31.966  39.220   7.064
 5892POPC   C4B74434  32.013  39.220   7.364
 5893POPC   NC374435  28.332  10.487   5.564
 5893POPC   PO474436  28.372  10.485   5.864
 5893POPC   GL174437  28.320  10.536   6.164
 5893POPC   GL274438  28.223  10.551   6.164
 5893POPC   C1A74439  28.381  10.482   6.464
 5893POPC   D2A74440  28.321  10.551   6.764
 5893POPC   C3A74441  28.388  10.533   7.064
 5893POPC   C4A74442  28.410  10.514   7.364
 5893POPC   C1B74443  28.149  10.643   6.464
 5893POPC   C2B74444  28.089  10.606   6.764
 5893POPC   C3B74445  28.117  10.589   7.064
 5893POPC   C4B74446  28.128  10.633   7.364
 5894POPC   NC374447   2.008  41.572   5.564
 5894POPC   PO474448   1.975  41.567   5.864
 5894POPC   GL174449   2.027  41.597   6.164
 5894POPC   GL274450   1.963  41.639   6.164
 5894POPC   C1A74451   2.024  41.515   6.464
 5894POPC   D2A74452   2.025  41.581   6.764
 5894POPC   C3A74453   1.998  41.567   7.064
 5894POPC   C4A74454   2.026  41.571   7.364
 5894POPC   C1B74455   1.977  41.811   6.464
 5894POPC   C2B74456   1.998  41.794   6.764
 5894POPC   C3B74457   1.986  41.815   7.064
 5894POPC   C4B74458   1.959  41.798   7.364
 5895POPC   NC374459   0.398  22.165   5.564
 5895POPC   PO474460   0.394  22.189   5.864
 5895POPC   GL174461   0.440  22.114   6.164
 5895POPC   GL274462   0.341  22.196   6.164
 5895POPC   C1A74463   0.479  22.184   6.464
 5895POPC   D2A74464   0.463  22.144   6.764
 5895POPC   C3A74465   0.482  22.204   7.064
 5895POPC   C4A74466   0.486  22.140   7.364
 5895POPC   C1B74467   0.257  22.361   6.464
 5895POPC   C2B74468   0.274  22.285   6.764
 5895POPC   C3B74469   0.217  22.347   7.064
 5895POPC   C4B74470   0.272  22.344   7.364
 5896POPC   NC374471  13.656  20.579   5.564
 5896POPC   PO474472  13.673  20.610   5.864
 5896POPC   GL174473  13.585  20.617   6.164
 5896POPC   GL274474  13.670  20.745   6.164
 5896POPC   C1A74475  13.603  20.599   6.464
 5896POPC   D2A74476  13.630  20.653   6.764
 5896POPC   C3A74477  13.589  20.571   7.064
 5896POPC   C4A74478  13.651  20.595   7.364
 5896POPC   C1B74479  13.827  20.751   6.464
 5896POPC   C2B74480  13.780  20.784   6.764
 5896POPC   C3B74481  13.813  20.793   7.064
 5896POPC   C4B74482  13.782  20.747   7.364
 5897POPC   NC374483  40.780  30.653   5.564
 5897POPC   PO474484  40.812  30.718   5.864
 5897POPC   GL174485  40.764  30.734   6.164
 5897POPC   GL274486  40.759  30.549   6.164
 5897POPC   C1A74487  40.765  30.691   6.464
 5897POPC   D2A74488  40.811  30.699   6.764
 5897POPC   C3A74489  40.758  30.716   7.064
 5897POPC   C4A74490  40.825  30.741   7.364
 5897POPC   C1B74491  40.726  30.503   6.464
 5897POPC   C2B74492  40.698  30.458   6.764
 5897POPC   C3B74493  40.731  30.480   7.064
 5897POPC   C4B74494  40.721  30.451   7.364
 5898POPC   NC374495  27.587  35.373   5.564
 5898POPC   PO474496  27.601  35.314   5.864
 5898POPC   GL174497  27.561  35.314   6.164
 5898POPC   GL274498  27.619  35.426   6.164
 5898POPC   C1A74499  27.620  35.302   6.464
 5898POPC   D2A74500  27.621  35.367   6.764
 5898POPC   C3A74501  27.609  35.316   7.064
 5898POPC   C4A74502  27.544  35.346   7.364
 5898POPC   C1B74503  27.659  35.586   6.464
 5898POPC   C2B74504  27.687  35.620   6.764
 5898POPC   C3B74505  27.626  35.613   7.064
 5898POPC   C4B74506  27.722  35.563   7.364
 5899POPC   NC374507  42.376   4.309   5.564
 5899POPC   PO474508  42.330   4.357   5.864
 5899POPC   GL174509  42.378   4.286   6.164
 5899POPC   GL274510  42.478   4.273   6.164
 5899POPC   C1A74511  42.290   4.272   6.464
 5899POPC   D2A74512  42.316   4.274   6.764
 5899POPC   C3A74513  42.289   4.325   7.064
 5899POPC   C4A74514  42.370   4.366   7.364
 5899POPC   C1B74515  42.576   4.163   6.464
 5899POPC   C2B74516  42.527   4.243   6.764
 5899POPC   C3B74517  42.542   4.190   7.064
 5899POPC   C4B74518  42.528   4.239   7.364
 5900POPC   NC374519  34.626  27.588   5.564
 5900POPC   PO474520  34.531  27.635   5.864
 5900POPC   GL174521  34.574  27.582   6.164
 5900POPC   GL274522  34.743  27.589   6.164
 5900POPC   C1A74523  34.618  27.583   6.464
 5900POPC   D2A74524  34.552  27.620   6.764
 5900POPC   C3A74525  34.565  27.610   7.064
 5900POPC   C4A74526  34.594  27.604   7.364
 5900POPC   C1B74527  34.846  27.554   6.464
 5900POPC   C2B74528  34.809  27.472   6.764
 5900POPC   C3B74529  34.808  27.552   7.064
 5900POPC   C4B74530  34.825  27.521   7.364
 5901POPC   NC374531  35.357  29.893   5.564
 5901POPC   PO474532  35.371  29.937   5.864
 5901POPC   GL174533  35.384  29.954   6.164
 5901POPC   GL274534  35.341  29.808   6.164
 5901POPC   C1A74535  35.359  29.914   6.464
 5901POPC   D2A74536  35.397  29.900   6.764
 5901POPC   C3A74537  35.342  29.887   7.064
 5901POPC   C4A74538  35.398  29.929   7.364
 5901POPC   C1B74539  35.243  29.655   6.464
 5901POPC   C2B74540  35.315  29.695   6.764
 5901POPC   C3B74541  35.232  29.723   7.064
 5901POPC   C4B74542  35.317  29.659   7.364
 5902POPC   NC374543  20.628  12.823   5.564
 5902POPC   PO474544  20.610  12.883   5.864
 5902POPC   GL174545  20.643  12.820   6.164
 5902POPC   GL274546  20.743  12.907   6.164
 5902POPC   C1A74547  20.633  12.804   6.464
 5902POPC   D2A74548  20.643  12.814   6.764
 5902POPC   C3A74549  20.614  12.822   7.064
 5902POPC   C4A74550  20.645  12.872   7.364
 5902POPC   C1B74551  20.884  12.855   6.464
 5902POPC   C2B74552  20.852  12.858   6.764
 5902POPC   C3B74553  20.846  12.861   7.064
 5902POPC   C4B74554  20.891  12.901   7.364
 5903POPC   NC374555  22.976   7.463   5.564
 5903POPC   PO474556  22.947   7.429   5.864
 5903POPC   GL174557  22.958   7.448   6.164
 5903POPC   GL274558  22.911   7.347   6.164
 5903POPC   C1A74559  22.941   7.405   6.464
 5903POPC   D2A74560  22.949   7.424   6.764
 5903POPC   C3A74561  22.906   7.372   7.064
 5903POPC   C4A74562  22.984   7.419   7.364
 5903POPC   C1B74563  22.933   7.165   6.464
 5903POPC   C2B74564  22.859   7.210   6.764
 5903POPC   C3B74565  22.931   7.161   7.064
 5903POPC   C4B74566  22.839   7.166   7.364
 5904POPC   NC374567  12.099   8.203   5.564
 5904POPC   PO474568  12.051   8.199   5.864
 5904POPC   GL174569  12.034   8.181   6.164
 5904POPC   GL274570  12.106   8.272   6.164
 5904POPC   C1A74571  12.054   8.161   6.464
 5904POPC   D2A74572  12.031   8.230   6.764
 5904POPC   C3A74573  12.064   8.227   7.064
 5904POPC   C4A74574  12.122   8.166   7.364
 5904POPC   C1B74575  12.119   8.394   6.464
 5904POPC   C2B74576  12.082   8.450   6.764
 5904POPC   C3B74577  12.097   8.451   7.064
 5904POPC   C4B74578  12.122   8.430   7.364
 5905POPC   NC374579   5.079  12.831   5.564
 5905POPC   PO474580   5.133  12.844   5.864
 5905POPC   GL174581   5.062  12.867   6.164
 5905POPC   GL274582   5.100  12.960   6.164
 5905POPC   C1A74583   5.053  12.882   6.464
 5905POPC   D2A74584   5.077  12.813   6.764
 5905POPC   C3A74585   5.063  12.870   7.064
 5905POPC   C4A74586   5.080  12.869   7.364
 5905POPC   C1B74587   5.037  13.067   6.464
 5905POPC   C2B74588   5.056  13.078   6.764
 5905POPC   C3B74589   5.114  13.058   7.064
 5905POPC   C4B74590   5.084  13.121   7.364
 5906POPC   NC374591  34.606  34.622   5.564
 5906POPC   PO474592  34.572  34.532   5.864
 5906POPC   GL174593  34.547  34.543   6.164
 5906POPC   GL274594  34.549  34.664   6.164
 5906POPC   C1A74595  34.555  34.602   6.464
 5906POPC   D2A74596  34.610  34.597   6.764
 5906POPC   C3A74597  34.590  34.581   7.064
 5906POPC   C4A74598  34.566  34.583   7.364
 5906POPC   C1B74599  34.560  34.842   6.464
 5906POPC   C2B74600  34.497  34.855   6.764
 5906POPC   C3B74601  34.543  34.830   7.064
 5906POPC   C4B74602  34.556  34.833   7.364
 5907POPC   NC374603  42.342  26.849   5.564
 5907POPC   PO474604  42.298  26.863   5.864
 5907POPC   GL174605  42.300  26.803   6.164
 5907POPC   GL274606  42.355  26.699   6.164
 5907POPC   C1A74607  42.358  26.799   6.464
 5907POPC   D2A74608  42.327  26.825   6.764
 5907POPC   C3A74609  42.381  26.806   7.064
 5907POPC   C4A74610  42.287  26.838   7.364
 5907POPC   C1B74611  42.351  26.554   6.464
 5907POPC   C2B74612  42.342  26.614   6.764
 5907POPC   C3B74613  42.339  26.601   7.064
 5907POPC   C4B74614  42.346  26.598   7.364
 5908POPC   NC374615  13.600  13.671   5.564
 5908POPC   PO474616  13.638  13.601   5.864
 5908POPC   GL174617  13.596  13.619   6.164
 5908POPC   GL274618  13.554  13.729   6.164
 5908POPC   C1A74619  13.621  13.597   6.464
 5908POPC   D2A74620  13.670  13.583   6.764
 5908POPC   C3A74621  13.654  13.614   7.064
 5908POPC   C4A74622  13.587  13.635   7.364
 5908POPC   C1B74623  13.444  13.796   6.464
 5908POPC   C2B74624  13.481  13.739   6.764
 5908POPC   C3B74625  13.452  13.798   7.064
 5908POPC   C4B74626  13.404  13.833   7.364
 5909POPC   NC374627   4.284  18.268   5.564
 5909POPC   PO474628   4.361  18.325   5.864
 5909POPC   GL174629   4.357  18.266   6.164
 5909POPC   GL274630   4.357  18.134   6.164
 5909POPC   C1A74631   4.305  18.294   6.464
 5909POPC   D2A74632   4.273  18.304   6.764
 5909POPC   C3A74633   4.348  18.308   7.064
 5909POPC   C4A74634   4.302  18.244   7.364
 5909POPC   C1B74635   4.356  18.077   6.464
 5909POPC   C2B74636   4.325  18.081   6.764
 5909POPC   C3B74637   4.387  18.016   7.064
 5909POPC   C4B74638   4.359  17.988   7.364
 5910POPC   NC374639  34.544  33.790   5.564
 5910POPC   PO474640  34.624  33.753   5.864
 5910POPC   GL174641  34.621  33.773   6.164
 5910POPC   GL274642  34.523  33.698   6.164
 5910POPC   C1A74643  34.575  33.777   6.464
 5910POPC   D2A74644  34.602  33.776   6.764
 5910POPC   C3A74645  34.539  33.803   7.064
 5910POPC   C4A74646  34.585  33.766   7.364
 5910POPC   C1B74647  34.509  33.581   6.464
 5910POPC   C2B74648  34.543  33.509   6.764
 5910POPC   C3B74649  34.512  33.579   7.064
 5910POPC   C4B74650  34.555  33.553   7.364
 5911POPC   NC374651   2.734  35.328   5.564
 5911POPC   PO474652   2.771  35.347   5.864
 5911POPC   GL174653   2.719  35.376   6.164
 5911POPC   GL274654   2.691  35.431   6.164
 5911POPC   C1A74655   2.751  35.385   6.464
 5911POPC   D2A74656   2.741  35.328   6.764
 5911POPC   C3A74657   2.748  35.347   7.064
 5911POPC   C4A74658   2.761  35.392   7.364
 5911POPC   C1B74659   2.492  35.461   6.464
 5911POPC   C2B74660   2.530  35.460   6.764
 5911POPC   C3B74661   2.563  35.416   7.064
 5911POPC   C4B74662   2.561  35.467   7.364
 5912POPC   NC374663  12.884   8.197   5.564
 5912POPC   PO474664  12.817   8.203   5.864
 5912POPC   GL174665  12.852   8.232   6.164
 5912POPC   GL274666  12.842   8.065   6.164
 5912POPC   C1A74667  12.826   8.151   6.464
 5912POPC   D2A74668  12.868   8.207   6.764
 5912POPC   C3A74669  12.896   8.198   7.064
 5912POPC   C4A74670  12.894   8.162   7.364
 5912POPC   C1B74671  12.824   7.933   6.464
 5912POPC   C2B74672  12.832   7.903   6.764
 5912POPC   C3B74673  12.794   7.944   7.064
 5912POPC   C4B74674  12.778   7.993   7.364
 5913POPC   NC374675   4.268  33.818   5.564
 5913POPC   PO474676   4.287  33.829   5.864
 5913POPC   GL174677   4.357  33.783   6.164
 5913POPC   GL274678   4.170  33.760   6.164
 5913POPC   C1A74679   4.321  33.767   6.464
 5913POPC   D2A74680   4.350  33.820   6.764
 5913POPC   C3A74681   4.309  33.782   7.064
 5913POPC   C4A74682   4.289  33.765   7.364
 5913POPC   C1B74683   4.041  33.804   6.464
 5913POPC   C2B74684   4.087  33.799   6.764
 5913POPC   C3B74685   4.078  33.856   7.064
 5913POPC   C4B74686   4.028  33.833   7.364
 5914POPC   NC374687  40.743  11.281   5.564
 5914POPC   PO474688  40.736  11.329   5.864
 5914POPC   GL174689  40.787  11.297   6.164
 5914POPC   GL274690  40.928  11.284   6.164
 5914POPC   C1A74691  40.781  11.344   6.464
 5914POPC   D2A74692  40.733  11.291   6.764
 5914POPC   C3A74693  40.753  11.276   7.064
 5914POPC   C4A74694  40.780  11.320   7.364
 5914POPC   C1B74695  41.040  11.169   6.464
 5914POPC   C2B74696  40.981  11.221   6.764
 5914POPC   C3B74697  40.974  11.223   7.064
 5914POPC   C4B74698  40.984  11.190   7.364
 5915POPC   NC374699  19.009  15.161   5.564
 5915POPC   PO474700  19.094  15.139   5.864
 5915POPC   GL174701  19.044  15.174   6.164
 5915POPC   GL274702  19.131  15.053   6.164
 5915POPC   C1A74703  19.054  15.176   6.464
 5915POPC   D2A74704  19.095  15.205   6.764
 5915POPC   C3A74705  19.021  15.197   7.064
 5915POPC   C4A74706  19.087  15.184   7.364
 5915POPC   C1B74707  19.284  15.015   6.464
 5915POPC   C2B74708  19.266  14.979   6.764
 5915POPC   C3B74709  19.223  15.029   7.064
 5915POPC   C4B74710  19.287  15.033   7.364
 5916POPC   NC374711  22.113  36.860   5.564
 5916POPC   PO474712  22.186  36.869   5.864
 5916POPC   GL174713  22.137  36.857   6.164
 5916POPC   GL274714  22.149  36.784   6.164
 5916POPC   C1A74715  22.165  36.903   6.464
 5916POPC   D2A74716  22.158  36.923   6.764
 5916POPC   C3A74717  22.117  36.860   7.064
 5916POPC   C4A74718  22.182  36.873   7.364
 5916POPC   C1B74719  22.070  36.634   6.464
 5916POPC   C2B74720  22.097  36.652   6.764
 5916POPC   C3B74721  22.070  36.700   7.064
 5916POPC   C4B74722  22.088  36.651   7.364
 5917POPC   NC374723  22.128  32.286   5.564
 5917POPC   PO474724  22.175  32.275   5.864
 5917POPC   GL174725  22.158  32.224   6.164
 5917POPC   GL274726  22.242  32.137   6.164
 5917POPC   C1A74727  22.159  32.226   6.464
 5917POPC   D2A74728  22.173  32.207   6.764
 5917POPC   C3A74729  22.178  32.211   7.064
 5917POPC   C4A74730  22.192  32.279   7.364
 5917POPC   C1B74731  22.329  32.080   6.464
 5917POPC   C2B74732  22.365  32.095   6.764
 5917POPC   C3B74733  22.328  32.100   7.064
 5917POPC   C4B74734  22.307  32.083   7.364
 5918POPC   NC374735  14.439   9.747   5.564
 5918POPC   PO474736  14.441   9.729   5.864
 5918POPC   GL174737  14.425   9.728   6.164
 5918POPC   GL274738  14.488   9.721   6.164
 5918POPC   C1A74739  14.361   9.748   6.464
 5918POPC   D2A74740  14.372   9.728   6.764
 5918POPC   C3A74741  14.404   9.778   7.064
 5918POPC   C4A74742  14.446   9.764   7.364
 5918POPC   C1B74743  14.624   9.669   6.464
 5918POPC   C2B74744  14.668   9.640   6.764
 5918POPC   C3B74745  14.607   9.630   7.064
 5918POPC   C4B74746  14.649   9.639   7.364
 5919POPC   NC374747  19.871  11.320   5.564
 5919POPC   PO474748  19.842  11.326   5.864
 5919POPC   GL174749  19.853  11.271   6.164
 5919POPC   GL274750  19.892  11.388   6.164
 5919POPC   C1A74751  19.862  11.314   6.464
 5919POPC   D2A74752  19.865  11.323   6.764
 5919POPC   C3A74753  19.822  11.312   7.064
 5919POPC   C4A74754  19.869  11.282   7.364
 5919POPC   C1B74755  19.836  11.547   6.464
 5919POPC   C2B74756  19.881  11.514   6.764
 5919POPC   C3B74757  19.884  11.560   7.064
 5919POPC   C4B74758  19.896  11.596   7.364
 5920POPC   NC374759   0.389  37.659   5.564
 5920POPC   PO474760   0.425  37.643   5.864
 5920POPC   GL174761   0.458  37.692   6.164
 5920POPC   GL274762   0.479  37.599   6.164
 5920POPC   C1A74763   0.409  37.672   6.464
 5920POPC   D2A74764   0.456  37.699   6.764
 5920POPC   C3A74765   0.435  37.630   7.064
 5920POPC   C4A74766   0.394  37.724   7.364
 5920POPC   C1B74767   0.452  37.474   6.464
 5920POPC   C2B74768   0.394  37.477   6.764
 5920POPC   C3B74769   0.419  37.384   7.064
 5920POPC   C4B74770   0.414  37.387   7.364
 5921POPC   NC374771  13.610  12.894   5.564
 5921POPC   PO474772  13.672  12.835   5.864
 5921POPC   GL174773  13.660  12.876   6.164
 5921POPC   GL274774  13.783  12.858   6.164
 5921POPC   C1A74775  13.649  12.862   6.464
 5921POPC   D2A74776  13.610  12.835   6.764
 5921POPC   C3A74777  13.652  12.896   7.064
 5921POPC   C4A74778  13.628  12.856   7.364
 5921POPC   C1B74779  13.870  12.889   6.464
 5921POPC   C2B74780  13.829  12.872   6.764
 5921POPC   C3B74781  13.875  12.886   7.064
 5921POPC   C4B74782  13.924  12.856   7.364
 5922POPC   NC374783   4.300   4.291   5.564
 5922POPC   PO474784   4.307   4.282   5.864
 5922POPC   GL174785   4.343   4.273   6.164
 5922POPC   GL274786   4.423   4.364   6.164
 5922POPC   C1A74787   4.363   4.336   6.464
 5922POPC   D2A74788   4.338   4.286   6.764
 5922POPC   C3A74789   4.318   4.343   7.064
 5922POPC   C4A74790   4.334   4.361   7.364
 5922POPC   C1B74791   4.582   4.419   6.464
 5922POPC   C2B74792   4.533   4.455   6.764
 5922POPC   C3B74793   4.489   4.482   7.064
 5922POPC   C4B74794   4.541   4.401   7.364
 5923POPC   NC374795   3.539  39.973   5.564
 5923POPC   PO474796   3.561  40.029   5.864
 5923POPC   GL174797   3.538  40.041   6.164
 5923POPC   GL274798   3.523  39.907   6.164
 5923POPC   C1A74799   3.536  40.044   6.464
 5923POPC   D2A74800   3.514  39.980   6.764
 5923POPC   C3A74801   3.555  40.003   7.064
 5923POPC   C4A74802   3.578  40.024   7.364
 5923POPC   C1B74803   3.436  39.777   6.464
 5923POPC   C2B74804   3.413  39.797   6.764
 5923POPC   C3B74805   3.446  39.765   7.064
 5923POPC   C4B74806   3.426  39.799   7.364
 5924POPC   NC374807  11.280   9.787   5.564
 5924POPC   PO474808  11.337   9.795   5.864
 5924POPC   GL174809  11.320   9.789   6.164
 5924POPC   GL274810  11.144   9.824   6.164
 5924POPC   C1A74811  11.288   9.752   6.464
 5924POPC   D2A74812  11.322   9.760   6.764
 5924POPC   C3A74813  11.269   9.789   7.064
 5924POPC   C4A74814  11.304   9.764   7.364
 5924POPC   C1B74815  11.072   9.809   6.464
 5924POPC   C2B74816  11.089   9.786   6.764
 5924POPC   C3B74817  11.077   9.829   7.064
 5924POPC   C4B74818  11.080   9.857   7.364
 5925POPC   NC374819  26.825   6.626   5.564
 5925POPC   PO474820  26.835   6.645   5.864
 5925POPC   GL174821  26.792   6.661   6.164
 5925POPC   GL274822  26.871   6.788   6.164
 5925POPC   C1A74823  26.823   6.636   6.464
 5925POPC   D2A74824  26.816   6.683   6.764
 5925POPC   C3A74825  26.771   6.668   7.064
 5925POPC   C4A74826  26.843   6.643   7.364
 5925POPC   C1B74827  26.895   6.934   6.464
 5925POPC   C2B74828  26.838   6.897   6.764
 5925POPC   C3B74829  26.877   6.854   7.064
 5925POPC   C4B74830  26.905   6.869   7.364
 5926POPC   NC374831  35.364   1.986   5.564
 5926POPC   PO474832  35.344   1.953   5.864
 5926POPC   GL174833  35.329   1.957   6.164
 5926POPC   GL274834  35.305   1.909   6.164
 5926POPC   C1A74835  35.329   1.954   6.464
 5926POPC   D2A74836  35.320   2.018   6.764
 5926POPC   C3A74837  35.339   1.941   7.064
 5926POPC   C4A74838  35.336   1.978   7.364
 5926POPC   C1B74839  35.202   1.830   6.464
 5926POPC   C2B74840  35.197   1.811   6.764
 5926POPC   C3B74841  35.175   1.854   7.064
 5926POPC   C4B74842  35.118   1.841   7.364
 5927POPC   NC374843   4.303  21.430   5.564
 5927POPC   PO474844   4.366  21.360   5.864
 5927POPC   GL174845   4.321  21.377   6.164
 5927POPC   GL274846   4.257  21.291   6.164
 5927POPC   C1A74847   4.280  21.373   6.464
 5927POPC   D2A74848   4.337  21.412   6.764
 5927POPC   C3A74849   4.352  21.399   7.064
 5927POPC   C4A74850   4.337  21.396   7.364
 5927POPC   C1B74851   4.258  21.093   6.464
 5927POPC   C2B74852   4.213  21.126   6.764
 5927POPC   C3B74853   4.288  21.147   7.064
 5927POPC   C4B74854   4.280  21.180   7.364
 5928POPC   NC374855   3.556  12.874   5.564
 5928POPC   PO474856   3.502  12.860   5.864
 5928POPC   GL174857   3.532  12.825   6.164
 5928POPC   GL274858   3.640  12.951   6.164
 5928POPC   C1A74859   3.553  12.812   6.464
 5928POPC   D2A74860   3.552  12.834   6.764
 5928POPC   C3A74861   3.536  12.844   7.064
 5928POPC   C4A74862   3.531  12.868   7.364
 5928POPC   C1B74863   3.705  13.084   6.464
 5928POPC   C2B74864   3.663  13.068   6.764
 5928POPC   C3B74865   3.744  13.079   7.064
 5928POPC   C4B74866   3.716  13.039   7.364
 5929POPC   NC374867  17.513   8.949   5.564
 5929POPC   PO474868  17.515   8.989   5.864
 5929POPC   GL174869  17.538   8.923   6.164
 5929POPC   GL274870  17.648   9.042   6.164
 5929POPC   C1A74871  17.462   8.946   6.464
 5929POPC   D2A74872  17.515   9.020   6.764
 5929POPC   C3A74873  17.488   9.015   7.064
 5929POPC   C4A74874  17.498   8.971   7.364
 5929POPC   C1B74875  17.759   9.080   6.464
 5929POPC   C2B74876  17.756   9.047   6.764
 5929POPC   C3B74877  17.769   9.020   7.064
 5929POPC   C4B74878  17.763   9.060   7.364
 5930POPC   NC374879  21.430  36.854   5.564
 5930POPC   PO474880  21.395  36.940   5.864
 5930POPC   GL174881  21.339  36.906   6.164
 5930POPC   GL274882  21.453  37.040   6.164
 5930POPC   C1A74883  21.429  36.905   6.464
 5930POPC   D2A74884  21.374  36.884   6.764
 5930POPC   C3A74885  21.417  36.902   7.064
 5930POPC   C4A74886  21.343  36.863   7.364
 5930POPC   C1B74887  21.470  37.179   6.464
 5930POPC   C2B74888  21.465  37.120   6.764
 5930POPC   C3B74889  21.477  37.148   7.064
 5930POPC   C4B74890  21.510  37.166   7.364
 5931POPC   NC374891  15.148  21.368   5.564
 5931POPC   PO474892  15.157  21.342   5.864
 5931POPC   GL174893  15.142  21.358   6.164
 5931POPC   GL274894  15.205  21.231   6.164
 5931POPC   C1A74895  15.178  21.343   6.464
 5931POPC   D2A74896  15.153  21.362   6.764
 5931POPC   C3A74897  15.156  21.415   7.064
 5931POPC   C4A74898  15.144  21.419   7.364
 5931POPC   C1B74899  15.250  21.122   6.464
 5931POPC   C2B74900  15.270  21.189   6.764
 5931POPC   C3B74901  15.241  21.196   7.064
 5931POPC   C4B74902  15.256  21.131   7.364
 5932POPC   NC374903  13.665  36.176   5.564
 5932POPC   PO474904  13.661  36.103   5.864
 5932POPC   GL174905  13.648  36.170   6.164
 5932POPC   GL274906  13.562  36.240   6.164
 5932POPC   C1A74907  13.620  36.115   6.464
 5932POPC   D2A74908  13.616  36.098   6.764
 5932POPC   C3A74909  13.615  36.090   7.064
 5932POPC   C4A74910  13.626  36.111   7.364
 5932POPC   C1B74911  13.449  36.340   6.464
 5932POPC   C2B74912  13.425  36.260   6.764
 5932POPC   C3B74913  13.415  36.304   7.064
 5932POPC   C4B74914  13.489  36.322   7.364
 5933POPC   NC374915  19.030   1.193   5.564
 5933POPC   PO474916  19.089   1.234   5.864
 5933POPC   GL174917  19.083   1.164   6.164
 5933POPC   GL274918  19.037   1.120   6.164
 5933POPC   C1A74919  19.046   1.175   6.464
 5933POPC   D2A74920  19.034   1.175   6.764
 5933POPC   C3A74921  19.050   1.202   7.064
 5933POPC   C4A74922  19.098   1.223   7.364
 5933POPC   C1B74923  19.151   0.991   6.464
 5933POPC   C2B74924  19.065   1.012   6.764
 5933POPC   C3B74925  19.152   0.978   7.064
 5933POPC   C4B74926  19.096   0.976   7.364
 5934POPC   NC374927   6.636   0.409   5.564
 5934POPC   PO474928   6.654   0.438   5.864
 5934POPC   GL174929   6.595   0.485   6.164
 5934POPC   GL274930   6.682   0.485   6.164
 5934POPC   C1A74931   6.694   0.482   6.464
 5934POPC   D2A74932   6.666   0.460   6.764
 5934POPC   C3A74933   6.595   0.392   7.064
 5934POPC   C4A74934   6.655   0.399   7.364
 5934POPC   C1B74935   6.774   0.669   6.464
 5934POPC   C2B74936   6.762   0.612   6.764
 5934POPC   C3B74937   6.819   0.666   7.064
 5934POPC   C4B74938   6.851   0.653   7.364
 5935POPC   NC374939  14.379   0.434   5.564
 5935POPC   PO474940  14.393   0.439   5.864
 5935POPC   GL174941  14.402   0.481   6.164
 5935POPC   GL274942  14.290   0.384   6.164
 5935POPC   C1A74943  14.378   0.421   6.464
 5935POPC   D2A74944  14.421   0.419   6.764
 5935POPC   C3A74945  14.354   0.474   7.064
 5935POPC   C4A74946  14.382   0.450   7.364
 5935POPC   C1B74947  14.290   0.216   6.464
 5935POPC   C2B74948  14.291   0.200   6.764
 5935POPC   C3B74949  14.261   0.274   7.064
 5935POPC   C4B74950  14.234   0.196   7.364
 5936POPC   NC374951  21.386  18.317   5.564
 5936POPC   PO474952  21.414  18.305   5.864
 5936POPC   GL174953  21.433  18.272   6.164
 5936POPC   GL274954  21.271  18.376   6.164
 5936POPC   C1A74955  21.421  18.277   6.464
 5936POPC   D2A74956  21.340  18.258   6.764
 5936POPC   C3A74957  21.426  18.312   7.064
 5936POPC   C4A74958  21.394  18.261   7.364
 5936POPC   C1B74959  21.279  18.492   6.464
 5936POPC   C2B74960  21.251  18.530   6.764
 5936POPC   C3B74961  21.279  18.463   7.064
 5936POPC   C4B74962  21.209  18.471   7.364
 5937POPC   NC374963  42.308  40.751   5.564
 5937POPC   PO474964  42.308  40.741   5.864
 5937POPC   GL174965  42.340  40.778   6.164
 5937POPC   GL274966  42.324  40.652   6.164
 5937POPC   C1A74967  42.309  40.739   6.464
 5937POPC   D2A74968  42.285  40.777   6.764
 5937POPC   C3A74969  42.372  40.812   7.064
 5937POPC   C4A74970  42.309  40.809   7.364
 5937POPC   C1B74971  42.237  40.523   6.464
 5937POPC   C2B74972  42.205  40.587   6.764
 5937POPC   C3B74973  42.246  40.540   7.064
 5937POPC   C4B74974  42.250  40.519   7.364
 5938POPC   NC374975  41.559  18.285   5.564
 5938POPC   PO474976  41.510  18.296   5.864
 5938POPC   GL174977  41.548  18.246   6.164
 5938POPC   GL274978  41.664  18.394   6.164
 5938POPC   C1A74979  41.597  18.283   6.464
 5938POPC   D2A74980  41.555  18.318   6.764
 5938POPC   C3A74981  41.538  18.255   7.064
 5938POPC   C4A74982  41.588  18.289   7.364
 5938POPC   C1B74983  41.676  18.512   6.464
 5938POPC   C2B74984  41.680  18.514   6.764
 5938POPC   C3B74985  41.744  18.507   7.064
 5938POPC   C4B74986  41.697  18.488   7.364
 5939POPC   NC374987  43.904  12.888   5.564
 5939POPC   PO474988  43.913  12.854   5.864
 5939POPC   GL174989  43.916  12.885   6.164
 5939POPC   GL274990  44.051  12.866   6.164
 5939POPC   C1A74991  43.934  12.847   6.464
 5939POPC   D2A74992  43.882  12.827   6.764
 5939POPC   C3A74993  43.929  12.876   7.064
 5939POPC   C4A74994  43.918  12.851   7.364
 5939POPC   C1B74995  44.167  12.849   6.464
 5939POPC   C2B74996  44.151  12.836   6.764
 5939POPC   C3B74997  44.101  12.841   7.064
 5939POPC   C4B74998  44.134  12.810   7.364
 5940POPC   NC374999   4.340  40.000   5.564
 5940POPC   PO475000   4.320  39.996   5.864
 5940POPC   GL175001   4.283  39.999   6.164
 5940POPC   GL275002   4.396  40.080   6.164
 5940POPC   C1A75003   4.280  39.997   6.464
 5940POPC   D2A75004   4.281  40.031   6.764
 5940POPC   C3A75005   4.361  40.015   7.064
 5940POPC   C4A75006   4.314  39.957   7.364
 5940POPC   C1B75007   4.462  40.166   6.464
 5940POPC   C2B75008   4.546  40.160   6.764
 5940POPC   C3B75009   4.532  40.119   7.064
 5940POPC   C4B75010   4.472  40.205   7.364
 5941POPC   NC375011  40.053  36.916   5.564
 5941POPC   PO475012  40.031  36.948   5.864
 5941POPC   GL175013  40.031  36.860   6.164
 5941POPC   GL275014  40.069  36.859   6.164
 5941POPC   C1A75015  40.048  36.950   6.464
 5941POPC   D2A75016  40.055  36.937   6.764
 5941POPC   C3A75017  39.959  36.892   7.064
 5941POPC   C4A75018  39.986  36.903   7.364
 5941POPC   C1B75019  40.171  36.733   6.464
 5941POPC   C2B75020  40.222  36.688   6.764
 5941POPC   C3B75021  40.134  36.684   7.064
 5941POPC   C4B75022  40.138  36.697   7.364
 5942POPC   NC375023  23.700  39.205   5.564
 5942POPC   PO475024  23.760  39.210   5.864
 5942POPC   GL175025  23.755  39.278   6.164
 5942POPC   GL275026  23.806  39.323   6.164
 5942POPC   C1A75027  23.708  39.186   6.464
 5942POPC   D2A75028  23.748  39.186   6.764
 5942POPC   C3A75029  23.701  39.189   7.064
 5942POPC   C4A75030  23.760  39.209   7.364
 5942POPC   C1B75031  23.949  39.323   6.464
 5942POPC   C2B75032  23.972  39.338   6.764
 5942POPC   C3B75033  23.914  39.306   7.064
 5942POPC   C4B75034  23.958  39.342   7.364
 5943POPC   NC375035   9.788  19.037   5.564
 5943POPC   PO475036   9.797  19.058   5.864
 5943POPC   GL175037   9.716  19.053   6.164
 5943POPC   GL275038   9.903  19.145   6.164
 5943POPC   C1A75039   9.787  19.073   6.464
 5943POPC   D2A75040   9.701  19.038   6.764
 5943POPC   C3A75041   9.719  19.019   7.064
 5943POPC   C4A75042   9.721  19.093   7.364
 5943POPC   C1B75043   9.940  19.158   6.464
 5943POPC   C2B75044   9.927  19.167   6.764
 5943POPC   C3B75045   9.948  19.236   7.064
 5943POPC   C4B75046   9.930  19.169   7.364
 5944POPC   NC375047  40.733  29.106   5.564
 5944POPC   PO475048  40.813  29.101   5.864
 5944POPC   GL175049  40.797  29.109   6.164
 5944POPC   GL275050  40.649  29.174   6.164
 5944POPC   C1A75051  40.783  29.137   6.464
 5944POPC   D2A75052  40.789  29.108   6.764
 5944POPC   C3A75053  40.785  29.113   7.064
 5944POPC   C4A75054  40.745  29.178   7.364
 5944POPC   C1B75055  40.561  29.114   6.464
 5944POPC   C2B75056  40.577  29.136   6.764
 5944POPC   C3B75057  40.491  29.170   7.064
 5944POPC   C4B75058  40.547  29.117   7.364
 5945POPC   NC375059  40.790  15.930   5.564
 5945POPC   PO475060  40.736  15.983   5.864
 5945POPC   GL175061  40.776  15.915   6.164
 5945POPC   GL275062  40.803  15.854   6.164
 5945POPC   C1A75063  40.761  15.962   6.464
 5945POPC   D2A75064  40.784  15.987   6.764
 5945POPC   C3A75065  40.805  15.917   7.064
 5945POPC   C4A75066  40.742  15.989   7.364
 5945POPC   C1B75067  40.845  15.721   6.464
 5945POPC   C2B75068  40.937  15.760   6.764
 5945POPC   C3B75069  40.848  15.729   7.064
 5945POPC   C4B75070  40.852  15.703   7.364
 5946POPC   NC375071  36.146  37.677   5.564
 5946POPC   PO475072  36.135  37.716   5.864
 5946POPC   GL175073  36.142  37.668   6.164
 5946POPC   GL275074  36.091  37.595   6.164
 5946POPC   C1A75075  36.149  37.704   6.464
 5946POPC   D2A75076  36.081  37.690   6.764
 5946POPC   C3A75077  36.125  37.674   7.064
 5946POPC   C4A75078  36.113  37.668   7.364
 5946POPC   C1B75079  36.040  37.441   6.464
 5946POPC   C2B75080  36.008  37.409   6.764
 5946POPC   C3B75081  35.989  37.463   7.064
 5946POPC   C4B75082  36.023  37.440   7.364
 5947POPC   NC375083  19.072  20.645   5.564
 5947POPC   PO475084  19.107  20.609   5.864
 5947POPC   GL175085  19.074  20.653   6.164
 5947POPC   GL275086  18.984  20.531   6.164
 5947POPC   C1A75087  19.075  20.576   6.464
 5947POPC   D2A75088  19.025  20.612   6.764
 5947POPC   C3A75089  19.086  20.588   7.064
 5947POPC   C4A75090  19.012  20.619   7.364
 5947POPC   C1B75091  18.863  20.395   6.464
 5947POPC   C2B75092  18.883  20.436   6.764
 5947POPC   C3B75093  18.832  20.485   7.064
 5947POPC   C4B75094  18.872  20.408   7.364
 5948POPC   NC375095   8.175  42.313   5.564
 5948POPC   PO475096   8.225  42.295   5.864
 5948POPC   GL175097   8.169  42.315   6.164
 5948POPC   GL275098   8.054  42.298   6.164
 5948POPC   C1A75099   8.219  42.291   6.464
 5948POPC   D2A75100   8.159  42.300   6.764
 5948POPC   C3A75101   8.188  42.305   7.064
 5948POPC   C4A75102   8.190  42.323   7.364
 5948POPC   C1B75103   7.931  42.346   6.464
 5948POPC   C2B75104   7.943  42.366   6.764
 5948POPC   C3B75105   7.908  42.320   7.064
 5948POPC   C4B75106   7.981  42.361   7.364
 5949POPC   NC375107  23.763  34.601   5.564
 5949POPC   PO475108  23.695  34.621   5.864
 5949POPC   GL175109  23.700  34.543   6.164
 5949POPC   GL275110  23.629  34.567   6.164
 5949POPC   C1A75111  23.700  34.542   6.464
 5949POPC   D2A75112  23.711  34.565   6.764
 5949POPC   C3A75113  23.721  34.616   7.064
 5949POPC   C4A75114  23.701  34.583   7.364
 5949POPC   C1B75115  23.439  34.528   6.464
 5949POPC   C2B75116  23.429  34.531   6.764
 5949POPC   C3B75117  23.437  34.594   7.064
 5949POPC   C4B75118  23.470  34.584   7.364
 5950POPC   NC375119  37.716   3.493   5.564
 5950POPC   PO475120  37.666   3.558   5.864
 5950POPC   GL175121  37.720   3.498   6.164
 5950POPC   GL275122  37.677   3.620   6.164
 5950POPC   C1A75123  37.700   3.527   6.464
 5950POPC   D2A75124  37.722   3.497   6.764
 5950POPC   C3A75125  37.672   3.525   7.064
 5950POPC   C4A75126  37.638   3.497   7.364
 5950POPC   C1B75127  37.733   3.810   6.464
 5950POPC   C2B75128  37.773   3.730   6.764
 5950POPC   C3B75129  37.747   3.778   7.064
 5950POPC   C4B75130  37.803   3.819   7.364
 5951POPC   NC375131   3.588  16.735   5.564
 5951POPC   PO475132   3.538  16.695   5.864
 5951POPC   GL175133   3.548  16.747   6.164
 5951POPC   GL275134   3.595  16.761   6.164
 5951POPC   C1A75135   3.518  16.701   6.464
 5951POPC   D2A75136   3.591  16.745   6.764
 5951POPC   C3A75137   3.517  16.683   7.064
 5951POPC   C4A75138   3.560  16.736   7.364
 5951POPC   C1B75139   3.723  16.912   6.464
 5951POPC   C2B75140   3.720  16.901   6.764
 5951POPC   C3B75141   3.726  16.856   7.064
 5951POPC   C4B75142   3.707  16.888   7.364
 5952POPC   NC375143   7.458  16.775   5.564
 5952POPC   PO475144   7.464  16.764   5.864
 5952POPC   GL175145   7.400  16.730   6.164
 5952POPC   GL275146   7.476  16.823   6.164
 5952POPC   C1A75147   7.382  16.684   6.464
 5952POPC   D2A75148   7.436  16.698   6.764
 5952POPC   C3A75149   7.421  16.686   7.064
 5952POPC   C4A75150   7.389  16.737   7.364
 5952POPC   C1B75151   7.501  16.993   6.464
 5952POPC   C2B75152   7.546  16.962   6.764
 5952POPC   C3B75153   7.533  16.956   7.064
 5952POPC   C4B75154   7.550  16.964   7.364
 5953POPC   NC375155   2.780  15.959   5.564
 5953POPC   PO475156   2.726  15.973   5.864
 5953POPC   GL175157   2.719  15.941   6.164
 5953POPC   GL275158   2.709  15.841   6.164
 5953POPC   C1A75159   2.767  15.928   6.464
 5953POPC   D2A75160   2.764  15.937   6.764
 5953POPC   C3A75161   2.801  15.984   7.064
 5953POPC   C4A75162   2.739  15.996   7.364
 5953POPC   C1B75163   2.531  15.818   6.464
 5953POPC   C2B75164   2.593  15.805   6.764
 5953POPC   C3B75165   2.565  15.811   7.064
 5953POPC   C4B75166   2.575  15.794   7.364
 5954POPC   NC375167   5.133  16.729   5.564
 5954POPC   PO475168   5.113  16.760   5.864
 5954POPC   GL175169   5.133  16.682   6.164
 5954POPC   GL275170   5.164  16.744   6.164
 5954POPC   C1A75171   5.121  16.757   6.464
 5954POPC   D2A75172   5.110  16.704   6.764
 5954POPC   C3A75173   5.134  16.688   7.064
 5954POPC   C4A75174   5.111  16.752   7.364
 5954POPC   C1B75175   5.338  16.861   6.464
 5954POPC   C2B75176   5.357  16.776   6.764
 5954POPC   C3B75177   5.360  16.829   7.064
 5954POPC   C4B75178   5.363  16.843   7.364
 5955POPC   NC375179   9.723   1.198   5.564
 5955POPC   PO475180   9.704   1.263   5.864
 5955POPC   GL175181   9.709   1.260   6.164
 5955POPC   GL275182   9.716   1.044   6.164
 5955POPC   C1A75183   9.760   1.197   6.464
 5955POPC   D2A75184   9.745   1.225   6.764
 5955POPC   C3A75185   9.754   1.232   7.064
 5955POPC   C4A75186   9.743   1.224   7.364
 5955POPC   C1B75187   9.744   0.959   6.464
 5955POPC   C2B75188   9.704   0.983   6.764
 5955POPC   C3B75189   9.755   0.941   7.064
 5955POPC   C4B75190   9.730   0.958   7.364
 5956POPC   NC375191   1.167  17.512   5.564
 5956POPC   PO475192   1.203  17.546   5.864
 5956POPC   GL175193   1.225  17.539   6.164
 5956POPC   GL275194   1.272  17.342   6.164
 5956POPC   C1A75195   1.233  17.533   6.464
 5956POPC   D2A75196   1.230  17.520   6.764
 5956POPC   C3A75197   1.203  17.516   7.064
 5956POPC   C4A75198   1.169  17.518   7.364
 5956POPC   C1B75199   1.305  17.282   6.464
 5956POPC   C2B75200   1.296  17.270   6.764
 5956POPC   C3B75201   1.263  17.288   7.064
 5956POPC   C4B75202   1.303  17.266   7.364
 5957POPC   NC375203  43.129  35.358   5.564
 5957POPC   PO475204  43.070  35.345   5.864
 5957POPC   GL175205  43.105  35.387   6.164
 5957POPC   GL275206  43.193  35.423   6.164
 5957POPC   C1A75207  43.077  35.401   6.464
 5957POPC   D2A75208  43.070  35.324   6.764
 5957POPC   C3A75209  43.089  35.314   7.064
 5957POPC   C4A75210  43.081  35.398   7.364
 5957POPC   C1B75211  43.257  35.601   6.464
 5957POPC   C2B75212  43.280  35.573   6.764
 5957POPC   C3B75213  43.229  35.583   7.064
 5957POPC   C4B75214  43.255  35.591   7.364
 5958POPC   NC375215   5.116   7.418   5.564
 5958POPC   PO475216   5.093   7.396   5.864
 5958POPC   GL175217   5.088   7.465   6.164
 5958POPC   GL275218   5.080   7.559   6.164
 5958POPC   C1A75219   5.141   7.456   6.464
 5958POPC   D2A75220   5.078   7.432   6.764
 5958POPC   C3A75221   5.048   7.391   7.064
 5958POPC   C4A75222   5.135   7.381   7.364
 5958POPC   C1B75223   5.066   7.689   6.464
 5958POPC   C2B75224   5.138   7.621   6.764
 5958POPC   C3B75225   5.071   7.704   7.064
 5958POPC   C4B75226   5.132   7.703   7.364
 5959POPC   NC375227  43.088   8.995   5.564
 5959POPC   PO475228  43.082   9.005   5.864
 5959POPC   GL175229  43.156   8.949   6.164
 5959POPC   GL275230  43.132   8.834   6.164
 5959POPC   C1A75231  43.108   8.950   6.464
 5959POPC   D2A75232  43.063   8.992   6.764
 5959POPC   C3A75233  43.112   9.004   7.064
 5959POPC   C4A75234  43.096   8.950   7.364
 5959POPC   C1B75235  43.136   8.754   6.464
 5959POPC   C2B75236  43.107   8.691   6.764
 5959POPC   C3B75237  43.125   8.764   7.064
 5959POPC   C4B75238  43.131   8.768   7.364
 5960POPC   NC375239  26.776  33.070   5.564
 5960POPC   PO475240  26.847  33.031   5.864
 5960POPC   GL175241  26.801  33.041   6.164
 5960POPC   GL275242  26.708  32.994   6.164
 5960POPC   C1A75243  26.827  33.039   6.464
 5960POPC   D2A75244  26.845  32.997   6.764
 5960POPC   C3A75245  26.795  32.989   7.064
 5960POPC   C4A75246  26.843  32.986   7.364
 5960POPC   C1B75247  26.591  32.973   6.464
 5960POPC   C2B75248  26.562  33.011   6.764
 5960POPC   C3B75249  26.593  32.971   7.064
 5960POPC   C4B75250  26.602  32.991   7.364
 5961POPC   NC375251   1.960   2.730   5.564
 5961POPC   PO475252   1.955   2.743   5.864
 5961POPC   GL175253   2.029   2.723   6.164
 5961POPC   GL275254   1.866   2.663   6.164
 5961POPC   C1A75255   2.036   2.807   6.464
 5961POPC   D2A75256   2.010   2.716   6.764
 5961POPC   C3A75257   1.994   2.767   7.064
 5961POPC   C4A75258   2.008   2.716   7.364
 5961POPC   C1B75259   1.789   2.616   6.464
 5961POPC   C2B75260   1.778   2.601   6.764
 5961POPC   C3B75261   1.742   2.656   7.064
 5961POPC   C4B75262   1.757   2.624   7.364
 5962POPC   NC375263   8.959  11.253   5.564
 5962POPC   PO475264   9.010  11.300   5.864
 5962POPC   GL175265   8.933  11.262   6.164
 5962POPC   GL275266   8.858  11.358   6.164
 5962POPC   C1A75267   8.930  11.329   6.464
 5962POPC   D2A75268   8.925  11.315   6.764
 5962POPC   C3A75269   8.941  11.283   7.064
 5962POPC   C4A75270   8.965  11.323   7.364
 5962POPC   C1B75271   8.731  11.370   6.464
 5962POPC   C2B75272   8.740  11.325   6.764
 5962POPC   C3B75273   8.755  11.394   7.064
 5962POPC   C4B75274   8.713  11.378   7.364
 5963POPC   NC375275  13.602  44.659   5.564
 5963POPC   PO475276  13.604  44.646   5.864
 5963POPC   GL175277  13.585  44.637   6.164
 5963POPC   GL275278  13.607  44.511   6.164
 5963POPC   C1A75279  13.651  44.681   6.464
 5963POPC   D2A75280  13.629  44.689   6.764
 5963POPC   C3A75281  13.663  44.711   7.064
 5963POPC   C4A75282  13.584  44.636   7.364
 5963POPC   C1B75283  13.533  44.455   6.464
 5963POPC   C2B75284  13.532  44.441   6.764
 5963POPC   C3B75285  13.549  44.430   7.064
 5963POPC   C4B75286  13.581  44.454   7.364
 5964POPC   NC375287  36.884   0.450   5.564
 5964POPC   PO475288  36.926   0.477   5.864
 5964POPC   GL175289  36.897   0.446   6.164
 5964POPC   GL275290  36.985   0.288   6.164
 5964POPC   C1A75291  36.924   0.419   6.464
 5964POPC   D2A75292  36.875   0.441   6.764
 5964POPC   C3A75293  36.936   0.438   7.064
 5964POPC   C4A75294  36.874   0.479   7.364
 5964POPC   C1B75295  37.020   0.257   6.464
 5964POPC   C2B75296  37.054   0.242   6.764
 5964POPC   C3B75297  37.102   0.273   7.064
 5964POPC   C4B75298  37.067   0.222   7.364
 5965POPC   NC375299  20.588   8.196   5.564
 5965POPC   PO475300  20.606   8.237   5.864
 5965POPC   GL175301  20.594   8.220   6.164
 5965POPC   GL275302  20.672   8.088   6.164
 5965POPC   C1A75303  20.610   8.193   6.464
 5965POPC   D2A75304  20.628   8.154   6.764
 5965POPC   C3A75305  20.649   8.180   7.064
 5965POPC   C4A75306  20.646   8.154   7.364
 5965POPC   C1B75307  20.681   7.994   6.464
 5965POPC   C2B75308  20.670   7.972   6.764
 5965POPC   C3B75309  20.672   8.004   7.064
 5965POPC   C4B75310  20.709   7.996   7.364
 5966POPC   NC375311  44.672  29.902   5.564
 5966POPC   PO475312  44.616  29.889   5.864
 5966POPC   GL175313  44.680  29.948   6.164
 5966POPC   GL275314  44.552  30.058   6.164
 5966POPC   C1A75315  44.626  29.962   6.464
 5966POPC   D2A75316  44.619  29.968   6.764
 5966POPC   C3A75317  44.674  29.962   7.064
 5966POPC   C4A75318  44.704  29.954   7.364
 5966POPC   C1B75319  44.475  30.083   6.464
 5966POPC   C2B75320  44.480  30.085   6.764
 5966POPC   C3B75321  44.445  30.057   7.064
 5966POPC   C4B75322  44.460  30.111   7.364
 5967POPC   NC375323  24.444  12.066   5.564
 5967POPC   PO475324  24.532  12.099   5.864
 5967POPC   GL175325  24.446  12.099   6.164
 5967POPC   GL275326  24.482  11.963   6.164
 5967POPC   C1A75327  24.507  12.105   6.464
 5967POPC   D2A75328  24.510  12.057   6.764
 5967POPC   C3A75329  24.474  12.120   7.064
 5967POPC   C4A75330  24.471  12.060   7.364
 5967POPC   C1B75331  24.554  11.866   6.464
 5967POPC   C2B75332  24.553  11.866   6.764
 5967POPC   C3B75333  24.518  11.814   7.064
 5967POPC   C4B75334  24.596  11.869   7.364
 5968POPC   NC375335  19.843  28.374   5.564
 5968POPC   PO475336  19.874  28.367   5.864
 5968POPC   GL175337  19.833  28.354   6.164
 5968POPC   GL275338  19.936  28.388   6.164
 5968POPC   C1A75339  19.807  28.340   6.464
 5968POPC   D2A75340  19.789  28.378   6.764
 5968POPC   C3A75341  19.851  28.343   7.064
 5968POPC   C4A75342  19.792  28.390   7.364
 5968POPC   C1B75343  20.020  28.521   6.464
 5968POPC   C2B75344  20.046  28.472   6.764
 5968POPC   C3B75345  20.074  28.504   7.064
 5968POPC   C4B75346  20.015  28.530   7.364
 5969POPC   NC375347  42.327  25.258   5.564
 5969POPC   PO475348  42.336  25.262   5.864
 5969POPC   GL175349  42.287  25.240   6.164
 5969POPC   GL275350  42.223  25.356   6.164
 5969POPC   C1A75351  42.312  25.256   6.464
 5969POPC   D2A75352  42.332  25.230   6.764
 5969POPC   C3A75353  42.334  25.311   7.064
 5969POPC   C4A75354  42.348  25.226   7.364
 5969POPC   C1B75355  42.158  25.455   6.464
 5969POPC   C2B75356  42.154  25.431   6.764
 5969POPC   C3B75357  42.187  25.461   7.064
 5969POPC   C4B75358  42.160  25.423   7.364
 5970POPC   NC375359  33.035  17.480   5.564
 5970POPC   PO475360  33.072  17.545   5.864
 5970POPC   GL175361  32.980  17.521   6.164
 5970POPC   GL275362  32.938  17.363   6.164
 5970POPC   C1A75363  33.049  17.496   6.464
 5970POPC   D2A75364  33.012  17.518   6.764
 5970POPC   C3A75365  32.998  17.525   7.064
 5970POPC   C4A75366  32.995  17.474   7.364
 5970POPC   C1B75367  32.997  17.238   6.464
 5970POPC   C2B75368  32.914  17.295   6.764
 5970POPC   C3B75369  32.943  17.309   7.064
 5970POPC   C4B75370  32.921  17.260   7.364
 5971POPC   NC375371  13.660  30.715   5.564
 5971POPC   PO475372  13.600  30.653   5.864
 5971POPC   GL175373  13.653  30.720   6.164
 5971POPC   GL275374  13.706  30.661   6.164
 5971POPC   C1A75375  13.647  30.681   6.464
 5971POPC   D2A75376  13.668  30.746   6.764
 5971POPC   C3A75377  13.663  30.653   7.064
 5971POPC   C4A75378  13.582  30.745   7.364
 5971POPC   C1B75379  13.881  30.639   6.464
 5971POPC   C2B75380  13.828  30.617   6.764
 5971POPC   C3B75381  13.878  30.639   7.064
 5971POPC   C4B75382  13.855  30.665   7.364
 5972POPC   NC375383  13.615  33.021   5.564
 5972POPC   PO475384  13.638  33.028   5.864
 5972POPC   GL175385  13.675  33.065   6.164
 5972POPC   GL275386  13.644  33.146   6.164
 5972POPC   C1A75387  13.672  33.022   6.464
 5972POPC   D2A75388  13.650  33.055   6.764
 5972POPC   C3A75389  13.646  33.035   7.064
 5972POPC   C4A75390  13.597  33.000   7.364
 5972POPC   C1B75391  13.565  33.289   6.464
 5972POPC   C2B75392  13.604  33.304   6.764
 5972POPC   C3B75393  13.647  33.320   7.064
 5972POPC   C4B75394  13.622  33.291   7.364
 5973POPC   NC375395  27.616  29.187   5.564
 5973POPC   PO475396  27.588  29.153   5.864
 5973POPC   GL175397  27.622  29.118   6.164
 5973POPC   GL275398  27.649  29.000   6.164
 5973POPC   C1A75399  27.597  29.160   6.464
 5973POPC   D2A75400  27.600  29.104   6.764
 5973POPC   C3A75401  27.568  29.099   7.064
 5973POPC   C4A75402  27.558  29.130   7.364
 5973POPC   C1B75403  27.744  28.939   6.464
 5973POPC   C2B75404  27.709  28.936   6.764
 5973POPC   C3B75405  27.761  28.954   7.064
 5973POPC   C4B75406  27.703  28.971   7.364
 5974POPC   NC375407  26.794  43.111   5.564
 5974POPC   PO475408  26.803  43.065   5.864
 5974POPC   GL175409  26.825  43.097   6.164
 5974POPC   GL275410  26.891  43.112   6.164
 5974POPC   C1A75411  26.826  43.148   6.464
 5974POPC   D2A75412  26.863  43.098   6.764
 5974POPC   C3A75413  26.806  43.090   7.064
 5974POPC   C4A75414  26.781  43.098   7.364
 5974POPC   C1B75415  27.060  43.174   6.464
 5974POPC   C2B75416  27.077  43.138   6.764
 5974POPC   C3B75417  27.048  43.137   7.064
 5974POPC   C4B75418  27.105  43.114   7.364
 5975POPC   NC375419  42.292  23.755   5.564
 5975POPC   PO475420  42.356  23.677   5.864
 5975POPC   GL175421  42.357  23.722   6.164
 5975POPC   GL275422  42.412  23.766   6.164
 5975POPC   C1A75423  42.325  23.680   6.464
 5975POPC   D2A75424  42.356  23.664   6.764
 5975POPC   C3A75425  42.343  23.692   7.064
 5975POPC   C4A75426  42.323  23.721   7.364
 5975POPC   C1B75427  42.581  23.904   6.464
 5975POPC   C2B75428  42.573  23.830   6.764
 5975POPC   C3B75429  42.541  23.828   7.064
 5975POPC   C4B75430  42.536  23.860   7.364
 5976POPC   NC375431  32.990  14.398   5.564
 5976POPC   PO475432  32.998  14.358   5.864
 5976POPC   GL175433  33.018  14.438   6.164
 5976POPC   GL275434  32.904  14.479   6.164
 5976POPC   C1A75435  33.021  14.412   6.464
 5976POPC   D2A75436  32.975  14.451   6.764
 5976POPC   C3A75437  32.999  14.403   7.064
 5976POPC   C4A75438  33.061  14.387   7.364
 5976POPC   C1B75439  32.869  14.622   6.464
 5976POPC   C2B75440  32.858  14.588   6.764
 5976POPC   C3B75441  32.823  14.623   7.064
 5976POPC   C4B75442  32.804  14.577   7.364
 5977POPC   NC375443   2.015  22.193   5.564
 5977POPC   PO475444   1.972  22.130   5.864
 5977POPC   GL175445   1.946  22.202   6.164
 5977POPC   GL275446   1.875  22.139   6.164
 5977POPC   C1A75447   1.983  22.155   6.464
 5977POPC   D2A75448   2.034  22.184   6.764
 5977POPC   C3A75449   2.030  22.154   7.064
 5977POPC   C4A75450   1.987  22.181   7.364
 5977POPC   C1B75451   1.766  22.196   6.464
 5977POPC   C2B75452   1.731  22.197   6.764
 5977POPC   C3B75453   1.720  22.167   7.064
 5977POPC   C4B75454   1.787  22.153   7.364
 5978POPC   NC375455  42.363  24.519   5.564
 5978POPC   PO475456  42.381  24.527   5.864
 5978POPC   GL175457  42.384  24.501   6.164
 5978POPC   GL275458  42.235  24.417   6.164
 5978POPC   C1A75459  42.286  24.498   6.464
 5978POPC   D2A75460  42.373  24.493   6.764
 5978POPC   C3A75461  42.382  24.508   7.064
 5978POPC   C4A75462  42.291  24.527   7.364
 5978POPC   C1B75463  42.091  24.399   6.464
 5978POPC   C2B75464  42.152  24.311   6.764
 5978POPC   C3B75465  42.165  24.331   7.064
 5978POPC   C4B75466  42.145  24.385   7.364
 5979POPC   NC375467  19.075   4.325   5.564
 5979POPC   PO475468  19.035   4.355   5.864
 5979POPC   GL175469  19.069   4.328   6.164
 5979POPC   GL275470  18.920   4.345   6.164
 5979POPC   C1A75471  19.027   4.304   6.464
 5979POPC   D2A75472  19.026   4.331   6.764
 5979POPC   C3A75473  19.067   4.272   7.064
 5979POPC   C4A75474  19.016   4.350   7.364
 5979POPC   C1B75475  18.871   4.475   6.464
 5979POPC   C2B75476  18.904   4.481   6.764
 5979POPC   C3B75477  18.840   4.481   7.064
 5979POPC   C4B75478  18.846   4.510   7.364
 5980POPC   NC375479  16.692  37.728   5.564
 5980POPC   PO475480  16.735  37.658   5.864
 5980POPC   GL175481  16.695  37.645   6.164
 5980POPC   GL275482  16.780  37.784   6.164
 5980POPC   C1A75483  16.691  37.654   6.464
 5980POPC   D2A75484  16.747  37.727   6.764
 5980POPC   C3A75485  16.697  37.673   7.064
 5980POPC   C4A75486  16.771  37.658   7.364
 5980POPC   C1B75487  16.722  37.950   6.464
 5980POPC   C2B75488  16.777  37.886   6.764
 5980POPC   C3B75489  16.761  37.895   7.064
 5980POPC   C4B75490  16.754  37.962   7.364
 5981POPC   NC375491  15.194  17.504   5.564
 5981POPC   PO475492  15.148  17.542   5.864
 5981POPC   GL175493  15.132  17.485   6.164
 5981POPC   GL275494  15.262  17.587   6.164
 5981POPC   C1A75495  15.184  17.518   6.464
 5981POPC   D2A75496  15.155  17.493   6.764
 5981POPC   C3A75497  15.170  17.494   7.064
 5981POPC   C4A75498  15.199  17.476   7.364
 5981POPC   C1B75499  15.291  17.744   6.464
 5981POPC   C2B75500  15.289  17.682   6.764
 5981POPC   C3B75501  15.306  17.706   7.064
 5981POPC   C4B75502  15.312  17.694   7.364
 5982POPC   NC375503  30.735  13.642   5.564
 5982POPC   PO475504  30.670  13.634   5.864
 5982POPC   GL175505  30.648  13.584   6.164
 5982POPC   GL275506  30.826  13.541   6.164
 5982POPC   C1A75507  30.714  13.622   6.464
 5982POPC   D2A75508  30.732  13.657   6.764
 5982POPC   C3A75509  30.684  13.669   7.064
 5982POPC   C4A75510  30.674  13.602   7.364
 5982POPC   C1B75511  30.825  13.392   6.464
 5982POPC   C2B75512  30.883  13.486   6.764
 5982POPC   C3B75513  30.896  13.439   7.064
 5982POPC   C4B75514  30.826  13.454   7.364
 5983POPC   NC375515  23.729  36.899   5.564
 5983POPC   PO475516  23.718  36.876   5.864
 5983POPC   GL175517  23.760  36.915   6.164
 5983POPC   GL275518  23.771  37.007   6.164
 5983POPC   C1A75519  23.760  36.933   6.464
 5983POPC   D2A75520  23.677  36.908   6.764
 5983POPC   C3A75521  23.752  36.915   7.064
 5983POPC   C4A75522  23.729  36.944   7.364
 5983POPC   C1B75523  23.847  37.084   6.464
 5983POPC   C2B75524  23.832  37.135   6.764
 5983POPC   C3B75525  23.881  37.131   7.064
 5983POPC   C4B75526  23.897  37.087   7.364
 5984POPC   NC375527  15.223   6.651   5.564
 5984POPC   PO475528  15.180   6.692   5.864
 5984POPC   GL175529  15.211   6.604   6.164
 5984POPC   GL275530  15.134   6.731   6.164
 5984POPC   C1A75531  15.213   6.679   6.464
 5984POPC   D2A75532  15.226   6.673   6.764
 5984POPC   C3A75533  15.172   6.628   7.064
 5984POPC   C4A75534  15.185   6.679   7.364
 5984POPC   C1B75535  15.074   6.868   6.464
 5984POPC   C2B75536  15.006   6.870   6.764
 5984POPC   C3B75537  15.027   6.910   7.064
 5984POPC   C4B75538  15.035   6.894   7.364
 5985POPC   NC375539  18.321   1.967   5.564
 5985POPC   PO475540  18.324   1.975   5.864
 5985POPC   GL175541  18.235   1.946   6.164
 5985POPC   GL275542  18.421   2.054   6.164
 5985POPC   C1A75543  18.325   1.997   6.464
 5985POPC   D2A75544  18.261   2.034   6.764
 5985POPC   C3A75545  18.326   1.975   7.064
 5985POPC   C4A75546  18.321   1.970   7.364
 5985POPC   C1B75547  18.414   2.140   6.464
 5985POPC   C2B75548  18.451   2.200   6.764
 5985POPC   C3B75549  18.484   2.121   7.064
 5985POPC   C4B75550  18.456   2.119   7.364
 5986POPC   NC375551  39.977  39.183   5.564
 5986POPC   PO475552  40.022  39.260   5.864
 5986POPC   GL175553  39.981  39.247   6.164
 5986POPC   GL275554  40.046  39.118   6.164
 5986POPC   C1A75555  39.997  39.193   6.464
 5986POPC   D2A75556  40.006  39.277   6.764
 5986POPC   C3A75557  39.981  39.277   7.064
 5986POPC   C4A75558  39.979  39.203   7.364
 5986POPC   C1B75559  40.069  38.987   6.464
 5986POPC   C2B75560  40.126  39.025   6.764
 5986POPC   C3B75561  40.141  38.983   7.064
 5986POPC   C4B75562  40.126  39.035   7.364
 5987POPC   NC375563  36.163  26.047   5.564
 5987POPC   PO475564  36.126  25.994   5.864
 5987POPC   GL175565  36.161  26.071   6.164
 5987POPC   GL275566  36.236  26.193   6.164
 5987POPC   C1A75567  36.083  25.997   6.464
 5987POPC   D2A75568  36.155  26.014   6.764
 5987POPC   C3A75569  36.142  26.077   7.064
 5987POPC   C4A75570  36.169  26.030   7.364
 5987POPC   C1B75571  36.307  26.283   6.464
 5987POPC   C2B75572  36.293  26.204   6.764
 5987POPC   C3B75573  36.317  26.244   7.064
 5987POPC   C4B75574  36.277  26.271   7.364
 5988POPC   NC375575  27.611  17.487   5.564
 5988POPC   PO475576  27.568  17.541   5.864
 5988POPC   GL175577  27.562  17.518   6.164
 5988POPC   GL275578  27.647  17.400   6.164
 5988POPC   C1A75579  27.628  17.530   6.464
 5988POPC   D2A75580  27.544  17.484   6.764
 5988POPC   C3A75581  27.603  17.534   7.064
 5988POPC   C4A75582  27.583  17.477   7.364
 5988POPC   C1B75583  27.703  17.243   6.464
 5988POPC   C2B75584  27.700  17.317   6.764
 5988POPC   C3B75585  27.756  17.329   7.064
 5988POPC   C4B75586  27.667  17.300   7.364
 5989POPC   NC375587  34.583  32.290   5.564
 5989POPC   PO475588  34.604  32.245   5.864
 5989POPC   GL175589  34.604  32.273   6.164
 5989POPC   GL275590  34.727  32.235   6.164
 5989POPC   C1A75591  34.612  32.244   6.464
 5989POPC   D2A75592  34.557  32.260   6.764
 5989POPC   C3A75593  34.530  32.270   7.064
 5989POPC   C4A75594  34.574  32.285   7.364
 5989POPC   C1B75595  34.813  32.171   6.464
 5989POPC   C2B75596  34.831  32.194   6.764
 5989POPC   C3B75597  34.860  32.220   7.064
 5989POPC   C4B75598  34.835  32.140   7.364
 5990POPC   NC375599  11.312  33.758   5.564
 5990POPC   PO475600  11.324  33.836   5.864
 5990POPC   GL175601  11.266  33.848   6.164
 5990POPC   GL275602  11.410  33.811   6.164
 5990POPC   C1A75603  11.278  33.757   6.464
 5990POPC   D2A75604  11.289  33.818   6.764
 5990POPC   C3A75605  11.269  33.763   7.064
 5990POPC   C4A75606  11.268  33.818   7.364
 5990POPC   C1B75607  11.598  33.873   6.464
 5990POPC   C2B75608  11.594  33.778   6.764
 5990POPC   C3B75609  11.519  33.802   7.064
 5990POPC   C4B75610  11.592  33.782   7.364
 5991POPC   NC375611   0.423  29.873   5.564
 5991POPC   PO475612   0.394  29.946   5.864
 5991POPC   GL175613   0.422  29.882   6.164
 5991POPC   GL275614   0.431  29.828   6.164
 5991POPC   C1A75615   0.404  29.908   6.464
 5991POPC   D2A75616   0.473  29.907   6.764
 5991POPC   C3A75617   0.482  29.910   7.064
 5991POPC   C4A75618   0.467  29.938   7.364
 5991POPC   C1B75619   0.459  29.666   6.464
 5991POPC   C2B75620   0.440  29.708   6.764
 5991POPC   C3B75621   0.438  29.636   7.064
 5991POPC   C4B75622   0.457  29.628   7.364
 5992POPC   NC375623  35.318  13.629   5.564
 5992POPC   PO475624  35.377  13.650   5.864
 5992POPC   GL175625  35.397  13.607   6.164
 5992POPC   GL275626  35.328  13.770   6.164
 5992POPC   C1A75627  35.329  13.592   6.464
 5992POPC   D2A75628  35.400  13.617   6.764
 5992POPC   C3A75629  35.319  13.615   7.064
 5992POPC   C4A75630  35.319  13.664   7.364
 5992POPC   C1B75631  35.368  13.910   6.464
 5992POPC   C2B75632  35.349  13.903   6.764
 5992POPC   C3B75633  35.334  13.879   7.064
 5992POPC   C4B75634  35.316  13.854   7.364
 5993POPC   NC375635   4.289  22.167   5.564
 5993POPC   PO475636   4.285  22.174   5.864
 5993POPC   GL175637   4.342  22.147   6.164
 5993POPC   GL275638   4.236  22.255   6.164
 5993POPC   C1A75639   4.285  22.191   6.464
 5993POPC   D2A75640   4.333  22.112   6.764
 5993POPC   C3A75641   4.296  22.113   7.064
 5993POPC   C4A75642   4.315  22.199   7.364
 5993POPC   C1B75643   4.225  22.412   6.464
 5993POPC   C2B75644   4.162  22.413   6.764
 5993POPC   C3B75645   4.191  22.357   7.064
 5993POPC   C4B75646   4.222  22.341   7.364
 5994POPC   NC375647  14.366  27.555   5.564
 5994POPC   PO475648  14.390  27.557   5.864
 5994POPC   GL175649  14.391  27.608   6.164
 5994POPC   GL275650  14.557  27.545   6.164
 5994POPC   C1A75651  14.429  27.577   6.464
 5994POPC   D2A75652  14.402  27.570   6.764
 5994POPC   C3A75653  14.434  27.556   7.064
 5994POPC   C4A75654  14.448  27.563   7.364
 5994POPC   C1B75655  14.605  27.576   6.464
 5994POPC   C2B75656  14.600  27.500   6.764
 5994POPC   C3B75657  14.667  27.545   7.064
 5994POPC   C4B75658  14.623  27.495   7.364
 5995POPC   NC375659  36.159  10.524   5.564
 5995POPC   PO475660  36.119  10.515   5.864
 5995POPC   GL175661  36.157  10.570   6.164
 5995POPC   GL275662  36.037  10.577   6.164
 5995POPC   C1A75663  36.150  10.480   6.464
 5995POPC   D2A75664  36.128  10.498   6.764
 5995POPC   C3A75665  36.116  10.482   7.064
 5995POPC   C4A75666  36.166  10.504   7.364
 5995POPC   C1B75667  35.918  10.573   6.464
 5995POPC   C2B75668  35.928  10.597   6.764
 5995POPC   C3B75669  35.895  10.584   7.064
 5995POPC   C4B75670  35.890  10.545   7.364
 5996POPC   NC375671  17.510   6.668   5.564
 5996POPC   PO475672  17.494   6.635   5.864
 5996POPC   GL175673  17.542   6.684   6.164
 5996POPC   GL275674  17.376   6.619   6.164
 5996POPC   C1A75675  17.473   6.624   6.464
 5996POPC   D2A75676  17.545   6.692   6.764
 5996POPC   C3A75677  17.464   6.680   7.064
 5996POPC   C4A75678  17.482   6.648   7.364
 5996POPC   C1B75679  17.305   6.499   6.464
 5996POPC   C2B75680  17.258   6.494   6.764
 5996POPC   C3B75681  17.258   6.459   7.064
 5996POPC   C4B75682  17.295   6.454   7.364
 5997POPC   NC375683   4.273   7.415   5.564
 5997POPC   PO475684   4.343   7.407   5.864
 5997POPC   GL175685   4.309   7.412   6.164
 5997POPC   GL275686   4.208   7.459   6.164
 5997POPC   C1A75687   4.314   7.384   6.464
 5997POPC   D2A75688   4.305   7.466   6.764
 5997POPC   C3A75689   4.298   7.401   7.064
 5997POPC   C4A75690   4.289   7.389   7.364
 5997POPC   C1B75691   4.106   7.531   6.464
 5997POPC   C2B75692   4.085   7.514   6.764
 5997POPC   C3B75693   4.099   7.555   7.064
 5997POPC   C4B75694   4.074   7.508   7.364
 5998POPC   NC375695   1.221   8.959   5.564
 5998POPC   PO475696   1.229   8.946   5.864
 5998POPC   GL175697   1.184   8.923   6.164
 5998POPC   GL275698   1.102   8.895   6.164
 5998POPC   C1A75699   1.225   8.962   6.464
 5998POPC   D2A75700   1.217   9.006   6.764
 5998POPC   C3A75701   1.237   8.953   7.064
 5998POPC   C4A75702   1.223   8.976   7.364
 5998POPC   C1B75703   1.076   8.748   6.464
 5998POPC   C2B75704   1.058   8.806   6.764
 5998POPC   C3B75705   1.039   8.731   7.064
 5998POPC   C4B75706   1.072   8.775   7.364
 5999POPC   NC375707  43.897  36.113   5.564
 5999POPC   PO475708  43.854  36.173   5.864
 5999POPC   GL175709  43.889  36.136   6.164
 5999POPC   GL275710  44.038  36.187   6.164
 5999POPC   C1A75711  43.876  36.079   6.464
 5999POPC   D2A75712  43.907  36.136   6.764
 5999POPC   C3A75713  43.890  36.140   7.064
 5999POPC   C4A75714  43.854  36.113   7.364
 5999POPC   C1B75715  44.108  36.182   6.464
 5999POPC   C2B75716  44.093  36.203   6.764
 5999POPC   C3B75717  44.158  36.246   7.064
 5999POPC   C4B75718  44.124  36.257   7.364
 6000POPC   NC375719  12.045  11.257   5.564
 6000POPC   PO475720  12.106  11.334   5.864
 6000POPC   GL175721  12.121  11.255   6.164
 6000POPC   GL275722  11.974  11.421   6.164
 6000POPC   C1A75723  12.073  11.288   6.464
 6000POPC   D2A75724  12.098  11.264   6.764
 6000POPC   C3A75725  12.028  11.269   7.064
 6000POPC   C4A75726  12.114  11.327   7.364
 6000POPC   C1B75727  11.915  11.501   6.464
 6000POPC   C2B75728  11.934  11.471   6.764
 6000POPC   C3B75729  11.969  11.483   7.064
 6000POPC   C4B75730  11.928  11.486   7.364
 6001POPC   NC375731   4.349   2.782   5.564
 6001POPC   PO475732   4.274   2.729   5.864
 6001POPC   GL175733   4.339   2.733   6.164
 6001POPC   GL275734   4.213   2.828   6.164
 6001POPC   C1A75735   4.315   2.778   6.464
 6001POPC   D2A75736   4.321   2.736   6.764
 6001POPC   C3A75737   4.323   2.807   7.064
 6001POPC   C4A75738   4.293   2.724   7.364
 6001POPC   C1B75739   4.122   2.927   6.464
 6001POPC   C2B75740   4.139   2.976   6.764
 6001POPC   C3B75741   4.096   2.972   7.064
 6001POPC   C4B75742   4.108   2.942   7.364
 6002POPC   NC375743  32.218  40.745   5.564
 6002POPC   PO475744  32.262  40.819   5.864
 6002POPC   GL175745  32.253  40.819   6.164
 6002POPC   GL275746  32.280  40.697   6.164
 6002POPC   C1A75747  32.288  40.802   6.464
 6002POPC   D2A75748  32.262  40.820   6.764
 6002POPC   C3A75749  32.277  40.782   7.064
 6002POPC   C4A75750  32.291  40.795   7.364
 6002POPC   C1B75751  32.239  40.510   6.464
 6002POPC   C2B75752  32.265  40.542   6.764
 6002POPC   C3B75753  32.304  40.552   7.064
 6002POPC   C4B75754  32.272  40.518   7.364
 6003POPC   NC375755  39.964  24.526   5.564
 6003POPC   PO475756  40.048  24.463   5.864
 6003POPC   GL175757  39.979  24.499   6.164
 6003POPC   GL275758  40.077  24.392   6.164
 6003POPC   C1A75759  40.048  24.512   6.464
 6003POPC   D2A75760  39.967  24.538   6.764
 6003POPC   C3A75761  40.013  24.516   7.064
 6003POPC   C4A75762  40.017  24.448   7.364
 6003POPC   C1B75763  40.226  24.265   6.464
 6003POPC   C2B75764  40.204  24.305   6.764
 6003POPC   C3B75765  40.140  24.292   7.064
 6003POPC   C4B75766  40.148  24.336   7.364
 6004POPC   NC375767  21.432  27.579   5.564
 6004POPC   PO475768  21.423  27.566   5.864
 6004POPC   GL175769  21.364  27.563   6.164
 6004POPC   GL275770  21.251  27.497   6.164
 6004POPC   C1A75771  21.348  27.628   6.464
 6004POPC   D2A75772  21.363  27.617   6.764
 6004POPC   C3A75773  21.398  27.587   7.064
 6004POPC   C4A75774  21.378  27.601   7.364
 6004POPC   C1B75775  21.154  27.465   6.464
 6004POPC   C2B75776  21.179  27.465   6.764
 6004POPC   C3B75777  21.238  27.394   7.064
 6004POPC   C4B75778  21.215  27.449   7.364
 6005POPC   NC375779  29.886  10.512   5.564
 6005POPC   PO475780  29.964  10.539   5.864
 6005POPC   GL175781  29.889  10.481   6.164
 6005POPC   GL275782  29.801  10.572   6.164
 6005POPC   C1A75783  29.950  10.533   6.464
 6005POPC   D2A75784  29.915  10.484   6.764
 6005POPC   C3A75785  29.901  10.526   7.064
 6005POPC   C4A75786  29.901  10.503   7.364
 6005POPC   C1B75787  29.687  10.692   6.464
 6005POPC   C2B75788  29.719  10.662   6.764
 6005POPC   C3B75789  29.720  10.700   7.064
 6005POPC   C4B75790  29.740  10.699   7.364
 6006POPC   NC375791  25.235  19.843   5.564
 6006POPC   PO475792  25.226  19.814   5.864
 6006POPC   GL175793  25.265  19.794   6.164
 6006POPC   GL275794  25.160  19.786   6.164
 6006POPC   C1A75795  25.296  19.820   6.464
 6006POPC   D2A75796  25.221  19.788   6.764
 6006POPC   C3A75797  25.235  19.832   7.064
 6006POPC   C4A75798  25.264  19.871   7.364
 6006POPC   C1B75799  25.036  19.842   6.464
 6006POPC   C2B75800  25.058  19.820   6.764
 6006POPC   C3B75801  25.004  19.786   7.064
 6006POPC   C4B75802  24.984  19.851   7.364
 6007POPC   NC375803  10.475   3.515   5.564
 6007POPC   PO475804  10.495   3.546   5.864
 6007POPC   GL175805  10.544   3.529   6.164
 6007POPC   GL275806  10.543   3.667   6.164
 6007POPC   C1A75807  10.490   3.558   6.464
 6007POPC   D2A75808  10.547   3.561   6.764
 6007POPC   C3A75809  10.523   3.533   7.064
 6007POPC   C4A75810  10.540   3.498   7.364
 6007POPC   C1B75811  10.519   3.770   6.464
 6007POPC   C2B75812  10.529   3.801   6.764
 6007POPC   C3B75813  10.494   3.758   7.064
 6007POPC   C4B75814  10.559   3.775   7.364
 6008POPC   NC375815  16.681   6.645   5.564
 6008POPC   PO475816  16.748   6.646   5.864
 6008POPC   GL175817  16.744   6.686   6.164
 6008POPC   GL275818  16.656   6.530   6.164
 6008POPC   C1A75819  16.737   6.688   6.464
 6008POPC   D2A75820  16.709   6.664   6.764
 6008POPC   C3A75821  16.753   6.654   7.064
 6008POPC   C4A75822  16.737   6.632   7.364
 6008POPC   C1B75823  16.674   6.447   6.464
 6008POPC   C2B75824  16.687   6.443   6.764
 6008POPC   C3B75825  16.687   6.405   7.064
 6008POPC   C4B75826  16.647   6.401   7.364
 6009POPC   NC375827  10.503  35.373   5.564
 6009POPC   PO475828  10.573  35.390   5.864
 6009POPC   GL175829  10.535  35.363   6.164
 6009POPC   GL275830  10.386  35.438   6.164
 6009POPC   C1A75831  10.529  35.320   6.464
 6009POPC   D2A75832  10.536  35.351   6.764
 6009POPC   C3A75833  10.554  35.382   7.064
 6009POPC   C4A75834  10.538  35.380   7.364
 6009POPC   C1B75835  10.349  35.564   6.464
 6009POPC   C2B75836  10.384  35.558   6.764
 6009POPC   C3B75837  10.309  35.565   7.064
 6009POPC   C4B75838  10.320  35.482   7.364
 6010POPC   NC375839   5.115  36.082   5.564
 6010POPC   PO475840   5.123  36.092   5.864
 6010POPC   GL175841   5.086  36.136   6.164
 6010POPC   GL275842   5.220  36.073   6.164
 6010POPC   C1A75843   5.063  36.160   6.464
 6010POPC   D2A75844   5.065  36.177   6.764
 6010POPC   C3A75845   5.069  36.103   7.064
 6010POPC   C4A75846   5.091  36.123   7.364
 6010POPC   C1B75847   5.323  35.922   6.464
 6010POPC   C2B75848   5.314  35.987   6.764
 6010POPC   C3B75849   5.293  36.002   7.064
 6010POPC   C4B75850   5.282  35.984   7.364
 6011POPC   NC375851   5.073   2.039   5.564
 6011POPC   PO475852   5.063   1.983   5.864
 6011POPC   GL175853   5.090   2.027   6.164
 6011POPC   GL275854   5.206   2.034   6.164
 6011POPC   C1A75855   5.094   2.006   6.464
 6011POPC   D2A75856   5.088   2.019   6.764
 6011POPC   C3A75857   5.122   1.983   7.064
 6011POPC   C4A75858   5.141   1.988   7.364
 6011POPC   C1B75859   5.320   1.998   6.464
 6011POPC   C2B75860   5.373   1.961   6.764
 6011POPC   C3B75861   5.378   2.009   7.064
 6011POPC   C4B75862   5.393   1.991   7.364
 6012POPC   NC375863   5.045  12.105   5.564
 6012POPC   PO475864   5.086  12.035   5.864
 6012POPC   GL175865   5.129  12.114   6.164
 6012POPC   GL275866   4.947  12.168   6.164
 6012POPC   C1A75867   5.071  12.086   6.464
 6012POPC   D2A75868   5.129  12.080   6.764
 6012POPC   C3A75869   5.138  12.094   7.064
 6012POPC   C4A75870   5.094  12.040   7.364
 6012POPC   C1B75871   4.826  12.215   6.464
 6012POPC   C2B75872   4.904  12.193   6.764
 6012POPC   C3B75873   4.895  12.182   7.064
 6012POPC   C4B75874   4.852  12.168   7.364
 6013POPC   NC375875  28.413  43.935   5.564
 6013POPC   PO475876  28.385  43.876   5.864
 6013POPC   GL175877  28.390  43.866   6.164
 6013POPC   GL275878  28.286  43.792   6.164
 6013POPC   C1A75879  28.334  43.889   6.464
 6013POPC   D2A75880  28.414  43.876   6.764
 6013POPC   C3A75881  28.382  43.920   7.064
 6013POPC   C4A75882  28.375  43.887   7.364
 6013POPC   C1B75883  28.304  43.687   6.464
 6013POPC   C2B75884  28.277  43.608   6.764
 6013POPC   C3B75885  28.300  43.618   7.064
 6013POPC   C4B75886  28.320  43.678   7.364
 6014POPC   NC375887  24.463   8.197   5.564
 6014POPC   PO475888  24.486   8.214   5.864
 6014POPC   GL175889  24.510   8.224   6.164
 6014POPC   GL275890  24.380   8.341   6.164
 6014POPC   C1A75891  24.504   8.195   6.464
 6014POPC   D2A75892  24.499   8.217   6.764
 6014POPC   C3A75893  24.525   8.239   7.064
 6014POPC   C4A75894  24.520   8.245   7.364
 6014POPC   C1B75895  24.365   8.425   6.464
 6014POPC   C2B75896  24.361   8.397   6.764
 6014POPC   C3B75897  24.313   8.390   7.064
 6014POPC   C4B75898  24.328   8.388   7.364
 6015POPC   NC375899  10.559  13.597   5.564
 6015POPC   PO475900  10.536  13.663   5.864
 6015POPC   GL175901  10.557  13.670   6.164
 6015POPC   GL275902  10.485  13.546   6.164
 6015POPC   C1A75903  10.552  13.641   6.464
 6015POPC   D2A75904  10.487  13.644   6.764
 6015POPC   C3A75905  10.527  13.579   7.064
 6015POPC   C4A75906  10.537  13.599   7.364
 6015POPC   C1B75907  10.493  13.385   6.464
 6015POPC   C2B75908  10.521  13.420   6.764
 6015POPC   C3B75909  10.560  13.328   7.064
 6015POPC   C4B75910  10.577  13.395   7.364
 6016POPC   NC375911  11.303  31.506   5.564
 6016POPC   PO475912  11.263  31.476   5.864
 6016POPC   GL175913  11.340  31.440   6.164
 6016POPC   GL275914  11.175  31.436   6.164
 6016POPC   C1A75915  11.266  31.431   6.464
 6016POPC   D2A75916  11.314  31.483   6.764
 6016POPC   C3A75917  11.275  31.509   7.064
 6016POPC   C4A75918  11.271  31.475   7.364
 6016POPC   C1B75919  11.054  31.444   6.464
 6016POPC   C2B75920  11.013  31.448   6.764
 6016POPC   C3B75921  11.089  31.473   7.064
 6016POPC   C4B75922  11.017  31.450   7.364
 6017POPC   NC375923  36.948   2.763   5.564
 6017POPC   PO475924  36.901   2.771   5.864
 6017POPC   GL175925  36.859   2.793   6.164
 6017POPC   GL275926  36.894   2.677   6.164
 6017POPC   C1A75927  36.918   2.800   6.464
 6017POPC   D2A75928  36.867   2.797   6.764
 6017POPC   C3A75929  36.951   2.780   7.064
 6017POPC   C4A75930  36.948   2.779   7.364
 6017POPC   C1B75931  36.887   2.497   6.464
 6017POPC   C2B75932  36.894   2.482   6.764
 6017POPC   C3B75933  36.824   2.536   7.064
 6017POPC   C4B75934  36.810   2.507   7.364
 6018POPC   NC375935   3.590  23.681   5.564
 6018POPC   PO475936   3.516  23.760   5.864
 6018POPC   GL175937   3.577  23.727   6.164
 6018POPC   GL275938   3.536  23.631   6.164
 6018POPC   C1A75939   3.563  23.762   6.464
 6018POPC   D2A75940   3.588  23.686   6.764
 6018POPC   C3A75941   3.532  23.667   7.064
 6018POPC   C4A75942   3.504  23.721   7.364
 6018POPC   C1B75943   3.407  23.511   6.464
 6018POPC   C2B75944   3.443  23.470   6.764
 6018POPC   C3B75945   3.422  23.532   7.064
 6018POPC   C4B75946   3.426  23.492   7.364
 6019POPC   NC375947  32.252  42.374   5.564
 6019POPC   PO475948  32.235  42.293   5.864
 6019POPC   GL175949  32.219  42.304   6.164
 6019POPC   GL275950  32.347  42.412   6.164
 6019POPC   C1A75951  32.294  42.360   6.464
 6019POPC   D2A75952  32.209  42.380   6.764
 6019POPC   C3A75953  32.227  42.376   7.064
 6019POPC   C4A75954  32.243  42.384   7.364
 6019POPC   C1B75955  32.497  42.373   6.464
 6019POPC   C2B75956  32.436  42.447   6.764
 6019POPC   C3B75957  32.446  42.377   7.064
 6019POPC   C4B75958  32.446  42.457   7.364
 6020POPC   NC375959  27.611  14.401   5.564
 6020POPC   PO475960  27.632  14.402   5.864
 6020POPC   GL175961  27.571  14.404   6.164
 6020POPC   GL275962  27.674  14.266   6.164
 6020POPC   C1A75963  27.598  14.397   6.464
 6020POPC   D2A75964  27.622  14.402   6.764
 6020POPC   C3A75965  27.639  14.441   7.064
 6020POPC   C4A75966  27.600  14.427   7.364
 6020POPC   C1B75967  27.677  14.218   6.464
 6020POPC   C2B75968  27.731  14.155   6.764
 6020POPC   C3B75969  27.683  14.147   7.064
 6020POPC   C4B75970  27.697  14.229   7.364
 6021POPC   NC375971  15.929   5.918   5.564
 6021POPC   PO475972  15.957   5.855   5.864
 6021POPC   GL175973  15.907   5.884   6.164
 6021POPC   GL275974  15.868   5.738   6.164
 6021POPC   C1A75975  15.976   5.912   6.464
 6021POPC   D2A75976  15.937   5.825   6.764
 6021POPC   C3A75977  15.966   5.848   7.064
 6021POPC   C4A75978  15.910   5.825   7.364
 6021POPC   C1B75979  15.784   5.674   6.464
 6021POPC   C2B75980  15.825   5.659   6.764
 6021POPC   C3B75981  15.819   5.607   7.064
 6021POPC   C4B75982  15.813   5.613   7.364
 6022POPC   NC375983  19.849  36.931   5.564
 6022POPC   PO475984  19.839  36.861   5.864
 6022POPC   GL175985  19.856  36.891   6.164
 6022POPC   GL275986  19.831  37.020   6.164
 6022POPC   C1A75987  19.849  36.925   6.464
 6022POPC   D2A75988  19.814  36.895   6.764
 6022POPC   C3A75989  19.791  36.898   7.064
 6022POPC   C4A75990  19.877  36.936   7.364
 6022POPC   C1B75991  19.935  37.157   6.464
 6022POPC   C2B75992  19.883  37.162   6.764
 6022POPC   C3B75993  19.925  37.136   7.064
 6022POPC   C4B75994  19.842  37.191   7.364
 6023POPC   NC375995  43.854   1.960   5.564
 6023POPC   PO475996  43.847   1.968   5.864
 6023POPC   GL175997  43.910   1.955   6.164
 6023POPC   GL275998  43.970   1.907   6.164
 6023POPC   C1A75999  43.861   2.004   6.464
 6023POPC   D2A76000  43.852   1.950   6.764
 6023POPC   C3A76001  43.850   1.960   7.064
 6023POPC   C4A76002  43.933   2.019   7.364
 6023POPC   C1B76003  44.142   1.874   6.464
 6023POPC   C2B76004  44.096   1.887   6.764
 6023POPC   C3B76005  44.087   1.869   7.064
 6023POPC   C4B76006  44.077   1.862   7.364
 6024POPC   NC376007   8.199  15.157   5.564
 6024POPC   PO476008   8.167  15.188   5.864
 6024POPC   GL176009   8.160  15.226   6.164
 6024POPC   GL276010   8.204  15.329   6.164
 6024POPC   C1A76011   8.184  15.218   6.464
 6024POPC   D2A76012   8.149  15.199   6.764
 6024POPC   C3A76013   8.225  15.184   7.064
 6024POPC   C4A76014   8.188  15.220   7.364
 6024POPC   C1B76015   8.291  15.368   6.464
 6024POPC   C2B76016   8.343  15.404   6.764
 6024POPC   C3B76017   8.339  15.374   7.064
 6024POPC   C4B76018   8.291  15.400   7.364
 6025POPC   NC376019  40.777  38.485   5.564
 6025POPC   PO476020  40.790  38.479   5.864
 6025POPC   GL176021  40.811  38.489   6.164
 6025POPC   GL276022  40.948  38.398   6.164
 6025POPC   C1A76023  40.733  38.461   6.464
 6025POPC   D2A76024  40.775  38.447   6.764
 6025POPC   C3A76025  40.776  38.474   7.064
 6025POPC   C4A76026  40.787  38.461   7.364
 6025POPC   C1B76027  40.996  38.397   6.464
 6025POPC   C2B76028  41.053  38.355   6.764
 6025POPC   C3B76029  40.970  38.405   7.064
 6025POPC   C4B76030  41.035  38.359   7.364
 6026POPC   NC376031   5.091   2.763   5.564
 6026POPC   PO476032   5.049   2.796   5.864
 6026POPC   GL176033   5.118   2.794   6.164
 6026POPC   GL276034   5.211   2.880   6.164
 6026POPC   C1A76035   5.049   2.745   6.464
 6026POPC   D2A76036   5.099   2.744   6.764
 6026POPC   C3A76037   5.134   2.781   7.064
 6026POPC   C4A76038   5.078   2.756   7.364
 6026POPC   C1B76039   5.214   2.950   6.464
 6026POPC   C2B76040   5.247   2.962   6.764
 6026POPC   C3B76041   5.262   2.982   7.064
 6026POPC   C4B76042   5.246   2.957   7.364
 6027POPC   NC376043  10.509  36.129   5.564
 6027POPC   PO476044  10.522  36.146   5.864
 6027POPC   GL176045  10.489  36.137   6.164
 6027POPC   GL276046  10.575  35.995   6.164
 6027POPC   C1A76047  10.517  36.159   6.464
 6027POPC   D2A76048  10.525  36.133   6.764
 6027POPC   C3A76049  10.487  36.080   7.064
 6027POPC   C4A76050  10.509  36.110   7.364
 6027POPC   C1B76051  10.660  35.980   6.464
 6027POPC   C2B76052  10.708  35.986   6.764
 6027POPC   C3B76053  10.750  35.943   7.064
 6027POPC   C4B76054  10.676  35.956   7.364
 6028POPC   NC376055   9.729  43.063   5.564
 6028POPC   PO476056   9.766  43.146   5.864
 6028POPC   GL176057   9.761  43.062   6.164
 6028POPC   GL276058   9.671  43.131   6.164
 6028POPC   C1A76059   9.709  43.153   6.464
 6028POPC   D2A76060   9.726  43.068   6.764
 6028POPC   C3A76061   9.754  43.109   7.064
 6028POPC   C4A76062   9.710  43.088   7.364
 6028POPC   C1B76063   9.475  43.106   6.464
 6028POPC   C2B76064   9.542  43.042   6.764
 6028POPC   C3B76065   9.535  43.045   7.064
 6028POPC   C4B76066   9.541  43.069   7.364
 6029POPC   NC376067  13.642   5.881   5.564
 6029POPC   PO476068  13.612   5.848   5.864
 6029POPC   GL176069  13.655   5.905   6.164
 6029POPC   GL276070  13.606   5.952   6.164
 6029POPC   C1A76071  13.662   5.833   6.464
 6029POPC   D2A76072  13.660   5.873   6.764
 6029POPC   C3A76073  13.657   5.873   7.064
 6029POPC   C4A76074  13.592   5.863   7.364
 6029POPC   C1B76075  13.559   6.122   6.464
 6029POPC   C2B76076  13.532   6.056   6.764
 6029POPC   C3B76077  13.559   6.132   7.064
 6029POPC   C4B76078  13.501   6.077   7.364
 6030POPC   NC376079  43.138  31.469   5.564
 6030POPC   PO476080  43.101  31.444   5.864
 6030POPC   GL176081  43.125  31.426   6.164
 6030POPC   GL276082  43.058  31.584   6.164
 6030POPC   C1A76083  43.124  31.476   6.464
 6030POPC   D2A76084  43.138  31.453   6.764
 6030POPC   C3A76085  43.097  31.467   7.064
 6030POPC   C4A76086  43.148  31.460   7.364
 6030POPC   C1B76087  43.073  31.768   6.464
 6030POPC   C2B76088  43.065  31.758   6.764
 6030POPC   C3B76089  43.094  31.756   7.064
 6030POPC   C4B76090  43.061  31.682   7.364
 6031POPC   NC376091  41.548   6.670   5.564
 6031POPC   PO476092  41.588   6.606   5.864
 6031POPC   GL176093  41.567   6.651   6.164
 6031POPC   GL276094  41.691   6.707   6.164
 6031POPC   C1A76095  41.552   6.630   6.464
 6031POPC   D2A76096  41.552   6.643   6.764
 6031POPC   C3A76097  41.525   6.652   7.064
 6031POPC   C4A76098  41.549   6.676   7.364
 6031POPC   C1B76099  41.767   6.766   6.464
 6031POPC   C2B76100  41.818   6.733   6.764
 6031POPC   C3B76101  41.822   6.772   7.064
 6031POPC   C4B76102  41.834   6.679   7.364
 6032POPC   NC376103  25.995  43.132   5.564
 6032POPC   PO476104  26.002  43.112   5.864
 6032POPC   GL176105  26.074  43.127   6.164
 6032POPC   GL276106  26.080  43.194   6.164
 6032POPC   C1A76107  26.058  43.123   6.464
 6032POPC   D2A76108  26.051  43.107   6.764
 6032POPC   C3A76109  26.091  43.159   7.064
 6032POPC   C4A76110  25.995  43.102   7.364
 6032POPC   C1B76111  26.026  43.331   6.464
 6032POPC   C2B76112  26.066  43.409   6.764
 6032POPC   C3B76113  26.019  43.371   7.064
 6032POPC   C4B76114  25.992  43.339   7.364
 6033POPC   NC376115   8.969  34.572   5.564
 6033POPC   PO476116   9.013  34.576   5.864
 6033POPC   GL176117   9.005  34.557   6.164
 6033POPC   GL276118   9.112  34.564   6.164
 6033POPC   C1A76119   9.022  34.576   6.464
 6033POPC   D2A76120   8.941  34.564   6.764
 6033POPC   C3A76121   8.983  34.545   7.064
 6033POPC   C4A76122   8.925  34.542   7.364
 6033POPC   C1B76123   9.261  34.601   6.464
 6033POPC   C2B76124   9.224  34.589   6.764
 6033POPC   C3B76125   9.175  34.609   7.064
 6033POPC   C4B76126   9.271  34.612   7.364
 6034POPC   NC376127  23.738  40.052   5.564
 6034POPC   PO476128  23.667  40.023   5.864
 6034POPC   GL176129  23.701  39.974   6.164
 6034POPC   GL276130  23.796  40.092   6.164
 6034POPC   C1A76131  23.710  40.016   6.464
 6034POPC   D2A76132  23.672  40.036   6.764
 6034POPC   C3A76133  23.754  40.000   7.064
 6034POPC   C4A76134  23.763  40.004   7.364
 6034POPC   C1B76135  23.919  40.090   6.464
 6034POPC   C2B76136  23.995  40.106   6.764
 6034POPC   C3B76137  23.983  40.093   7.064
 6034POPC   C4B76138  23.905  40.108   7.364
 6035POPC   NC376139  36.899  36.096   5.564
 6035POPC   PO476140  36.870  36.087   5.864
 6035POPC   GL176141  36.925  36.108   6.164
 6035POPC   GL276142  36.736  36.100   6.164
 6035POPC   C1A76143  36.885  36.079   6.464
 6035POPC   D2A76144  36.937  36.140   6.764
 6035POPC   C3A76145  36.855  36.150   7.064
 6035POPC   C4A76146  36.863  36.121   7.364
 6035POPC   C1B76147  36.609  36.127   6.464
 6035POPC   C2B76148  36.638  36.148   6.764
 6035POPC   C3B76149  36.683  36.168   7.064
 6035POPC   C4B76150  36.655  36.127   7.364
 6036POPC   NC376151  20.625  18.306   5.564
 6036POPC   PO476152  20.585  18.247   5.864
 6036POPC   GL176153  20.658  18.331   6.164
 6036POPC   GL276154  20.552  18.190   6.164
 6036POPC   C1A76155  20.593  18.292   6.464
 6036POPC   D2A76156  20.592  18.289   6.764
 6036POPC   C3A76157  20.626  18.283   7.064
 6036POPC   C4A76158  20.628  18.246   7.364
 6036POPC   C1B76159  20.466  18.014   6.464
 6036POPC   C2B76160  20.479  18.020   6.764
 6036POPC   C3B76161  20.479  18.080   7.064
 6036POPC   C4B76162  20.518  18.037   7.364
 6037POPC   NC376163   8.928  20.606   5.564
 6037POPC   PO476164   9.013  20.578   5.864
 6037POPC   GL176165   8.972  20.563   6.164
 6037POPC   GL276166   8.957  20.508   6.164
 6037POPC   C1A76167   8.974  20.588   6.464
 6037POPC   D2A76168   8.979  20.617   6.764
 6037POPC   C3A76169   9.013  20.574   7.064
 6037POPC   C4A76170   8.978  20.630   7.364
 6037POPC   C1B76171   8.981  20.369   6.464
 6037POPC   C2B76172   8.999  20.317   6.764
 6037POPC   C3B76173   8.981  20.405   7.064
 6037POPC   C4B76174   9.036  20.384   7.364
 6038POPC   NC376175  21.349  15.131   5.564
 6038POPC   PO476176  21.424  15.167   5.864
 6038POPC   GL176177  21.389  15.133   6.164
 6038POPC   GL276178  21.369  15.048   6.164
 6038POPC   C1A76179  21.354  15.207   6.464
 6038POPC   D2A76180  21.406  15.150   6.764
 6038POPC   C3A76181  21.423  15.170   7.064
 6038POPC   C4A76182  21.376  15.184   7.364
 6038POPC   C1B76183  21.394  14.910   6.464
 6038POPC   C2B76184  21.389  14.885   6.764
 6038POPC   C3B76185  21.399  14.935   7.064
 6038POPC   C4B76186  21.445  14.945   7.364
 6039POPC   NC376187  16.762  13.635   5.564
 6039POPC   PO476188  16.697  13.677   5.864
 6039POPC   GL176189  16.685  13.675   6.164
 6039POPC   GL276190  16.605  13.726   6.164
 6039POPC   C1A76191  16.716  13.596   6.464
 6039POPC   D2A76192  16.723  13.608   6.764
 6039POPC   C3A76193  16.776  13.664   7.064
 6039POPC   C4A76194  16.780  13.578   7.364
 6039POPC   C1B76195  16.459  13.700   6.464
 6039POPC   C2B76196  16.554  13.765   6.764
 6039POPC   C3B76197  16.459  13.757   7.064
 6039POPC   C4B76198  16.526  13.750   7.364
 6040POPC   NC376199  21.345  26.844   5.564
 6040POPC   PO476200  21.425  26.839   5.864
 6040POPC   GL176201  21.416  26.832   6.164
 6040POPC   GL276202  21.355  26.894   6.164
 6040POPC   C1A76203  21.405  26.833   6.464
 6040POPC   D2A76204  21.412  26.794   6.764
 6040POPC   C3A76205  21.408  26.811   7.064
 6040POPC   C4A76206  21.424  26.856   7.364
 6040POPC   C1B76207  21.209  27.008   6.464
 6040POPC   C2B76208  21.267  26.992   6.764
 6040POPC   C3B76209  21.252  27.034   7.064
 6040POPC   C4B76210  21.240  26.991   7.364
 6041POPC   NC376211   2.777  20.578   5.564
 6041POPC   PO476212   2.746  20.658   5.864
 6041POPC   GL176213   2.802  20.632   6.164
 6041POPC   GL276214   2.890  20.494   6.164
 6041POPC   C1A76215   2.799  20.631   6.464
 6041POPC   D2A76216   2.784  20.593   6.764
 6041POPC   C3A76217   2.721  20.582   7.064
 6041POPC   C4A76218   2.767  20.631   7.364
 6041POPC   C1B76219   3.012  20.484   6.464
 6041POPC   C2B76220   2.926  20.472   6.764
 6041POPC   C3B76221   3.005  20.473   7.064
 6041POPC   C4B76222   2.918  20.502   7.364
 6042POPC   NC376223   2.766   5.091   5.564
 6042POPC   PO476224   2.800   5.081   5.864
 6042POPC   GL176225   2.802   5.117   6.164
 6042POPC   GL276226   2.879   5.016   6.164
 6042POPC   C1A76227   2.730   5.105   6.464
 6042POPC   D2A76228   2.717   5.098   6.764
 6042POPC   C3A76229   2.795   5.111   7.064
 6042POPC   C4A76230   2.738   5.082   7.364
 6042POPC   C1B76231   2.900   4.955   6.464
 6042POPC   C2B76232   2.972   4.933   6.764
 6042POPC   C3B76233   2.890   4.932   7.064
 6042POPC   C4B76234   2.935   4.877   7.364
 6043POPC   NC376235  39.219  37.691   5.564
 6043POPC   PO476236  39.251  37.703   5.864
 6043POPC   GL176237  39.241  37.683   6.164
 6043POPC   GL276238  39.182  37.784   6.164
 6043POPC   C1A76239  39.205  37.677   6.464
 6043POPC   D2A76240  39.199  37.716   6.764
 6043POPC   C3A76241  39.255  37.696   7.064
 6043POPC   C4A76242  39.264  37.722   7.364
 6043POPC   C1B76243  39.060  37.837   6.464
 6043POPC   C2B76244  39.078  37.831   6.764
 6043POPC   C3B76245  39.094  37.855   7.064
 6043POPC   C4B76246  39.013  37.886   7.364
 6044POPC   NC376247  18.311  41.514   5.564
 6044POPC   PO476248  18.296  41.530   5.864
 6044POPC   GL176249  18.325  41.595   6.164
 6044POPC   GL276250  18.350  41.627   6.164
 6044POPC   C1A76251  18.301  41.598   6.464
 6044POPC   D2A76252  18.331  41.575   6.764
 6044POPC   C3A76253  18.299  41.589   7.064
 6044POPC   C4A76254  18.298  41.584   7.364
 6044POPC   C1B76255  18.487  41.718   6.464
 6044POPC   C2B76256  18.534  41.728   6.764
 6044POPC   C3B76257  18.511  41.681   7.064
 6044POPC   C4B76258  18.483  41.665   7.364
 6045POPC   NC376259   5.897  17.504   5.564
 6045POPC   PO476260   5.884  17.476   5.864
 6045POPC   GL176261   5.907  17.550   6.164
 6045POPC   GL276262   5.841  17.597   6.164
 6045POPC   C1A76263   5.863  17.545   6.464
 6045POPC   D2A76264   5.849  17.541   6.764
 6045POPC   C3A76265   5.868  17.549   7.064
 6045POPC   C4A76266   5.832  17.513   7.364
 6045POPC   C1B76267   5.675  17.681   6.464
 6045POPC   C2B76268   5.752  17.724   6.764
 6045POPC   C3B76269   5.685  17.694   7.064
 6045POPC   C4B76270   5.726  17.740   7.364
 6046POPC   NC376271  41.509   5.107   5.564
 6046POPC   PO476272  41.520   5.043   5.864
 6046POPC   GL176273  41.609   5.139   6.164
 6046POPC   GL276274  41.489   5.116   6.164
 6046POPC   C1A76275  41.575   5.047   6.464
 6046POPC   D2A76276  41.577   5.134   6.764
 6046POPC   C3A76277  41.555   5.058   7.064
 6046POPC   C4A76278  41.520   5.113   7.364
 6046POPC   C1B76279  41.363   5.169   6.464
 6046POPC   C2B76280  41.306   5.251   6.764
 6046POPC   C3B76281  41.368   5.174   7.064
 6046POPC   C4B76282  41.306   5.181   7.364
 6047POPC   NC376283   5.073  44.699   5.564
 6047POPC   PO476284   5.092  44.699   5.864
 6047POPC   GL176285   5.133  44.710   6.164
 6047POPC   GL276286   5.183  44.605   6.164
 6047POPC   C1A76287   5.077  44.707   6.464
 6047POPC   D2A76288   5.072  44.705   6.764
 6047POPC   C3A76289   5.055  44.663   7.064
 6047POPC   C4A76290   5.091  44.649   7.364
 6047POPC   C1B76291   5.259  44.497   6.464
 6047POPC   C2B76292   5.307  44.441   6.764
 6047POPC   C3B76293   5.247  44.483   7.064
 6047POPC   C4B76294   5.253  44.439   7.364
 6048POPC   NC376295   3.540  22.170   5.564
 6048POPC   PO476296   3.570  22.145   5.864
 6048POPC   GL176297   3.493  22.121   6.164
 6048POPC   GL276298   3.566  22.289   6.164
 6048POPC   C1A76299   3.555  22.128   6.464
 6048POPC   D2A76300   3.547  22.193   6.764
 6048POPC   C3A76301   3.494  22.184   7.064
 6048POPC   C4A76302   3.570  22.136   7.364
 6048POPC   C1B76303   3.562  22.452   6.464
 6048POPC   C2B76304   3.653  22.445   6.764
 6048POPC   C3B76305   3.581  22.451   7.064
 6048POPC   C4B76306   3.636  22.427   7.364
 6049POPC   NC376307  44.684  12.039   5.564
 6049POPC   PO476308  44.635  12.117   5.864
 6049POPC   GL176309  44.642  12.029   6.164
 6049POPC   GL276310  44.792  11.980   6.164
 6049POPC   C1A76311  44.663  12.030   6.464
 6049POPC   D2A76312  44.661  12.053   6.764
 6049POPC   C3A76313  44.706  12.038   7.064
 6049POPC   C4A76314  44.635  12.044   7.364
 6049POPC   C1B76315  44.830  11.966   6.464
 6049POPC   C2B76316  44.885  11.904   6.764
 6049POPC   C3B76317  44.870  11.920   7.064
 6049POPC   C4B76318  44.865  11.957   7.364
 6050POPC   NC376319  12.860  12.871   5.564
 6050POPC   PO476320  12.868  12.833   5.864
 6050POPC   GL176321  12.881  12.865   6.164
 6050POPC   GL276322  12.911  12.698   6.164
 6050POPC   C1A76323  12.851  12.898   6.464
 6050POPC   D2A76324  12.900  12.804   6.764
 6050POPC   C3A76325  12.890  12.901   7.064
 6050POPC   C4A76326  12.808  12.803   7.364
 6050POPC   C1B76327  12.896  12.562   6.464
 6050POPC   C2B76328  12.960  12.603   6.764
 6050POPC   C3B76329  12.970  12.571   7.064
 6050POPC   C4B76330  12.970  12.613   7.364
 6051POPC   NC376331  36.866  32.251   5.564
 6051POPC   PO476332  36.919  32.296   5.864
 6051POPC   GL176333  36.912  32.220   6.164
 6051POPC   GL276334  36.821  32.369   6.164
 6051POPC   C1A76335  36.901  32.279   6.464
 6051POPC   D2A76336  36.887  32.242   6.764
 6051POPC   C3A76337  36.944  32.264   7.064
 6051POPC   C4A76338  36.857  32.230   7.364
 6051POPC   C1B76339  36.693  32.381   6.464
 6051POPC   C2B76340  36.685  32.353   6.764
 6051POPC   C3B76341  36.662  32.362   7.064
 6051POPC   C4B76342  36.727  32.385   7.364
 6052POPC   NC376343  25.269  13.623   5.564
 6052POPC   PO476344  25.286  13.655   5.864
 6052POPC   GL176345  25.218  13.588   6.164
 6052POPC   GL276346  25.169  13.690   6.164
 6052POPC   C1A76347  25.267  13.626   6.464
 6052POPC   D2A76348  25.288  13.669   6.764
 6052POPC   C3A76349  25.308  13.620   7.064
 6052POPC   C4A76350  25.305  13.648   7.364
 6052POPC   C1B76351  25.046  13.817   6.464
 6052POPC   C2B76352  25.075  13.816   6.764
 6052POPC   C3B76353  25.042  13.763   7.064
 6052POPC   C4B76354  25.051  13.800   7.364
 6053POPC   NC376355  36.108  15.964   5.564
 6053POPC   PO476356  36.087  15.972   5.864
 6053POPC   GL176357  36.122  15.924   6.164
 6053POPC   GL276358  36.016  15.844   6.164
 6053POPC   C1A76359  36.095  15.913   6.464
 6053POPC   D2A76360  36.150  15.990   6.764
 6053POPC   C3A76361  36.150  15.991   7.064
 6053POPC   C4A76362  36.140  15.981   7.364
 6053POPC   C1B76363  36.007  15.763   6.464
 6053POPC   C2B76364  36.012  15.801   6.764
 6053POPC   C3B76365  35.985  15.756   7.064
 6053POPC   C4B76366  35.966  15.804   7.364
 6054POPC   NC376367   9.701  39.200   5.564
 6054POPC   PO476368   9.731  39.241   5.864
 6054POPC   GL176369   9.774  39.206   6.164
 6054POPC   GL276370   9.656  39.199   6.164
 6054POPC   C1A76371   9.756  39.276   6.464
 6054POPC   D2A76372   9.727  39.265   6.764
 6054POPC   C3A76373   9.713  39.222   7.064
 6054POPC   C4A76374   9.792  39.203   7.364
 6054POPC   C1B76375   9.551  39.101   6.464
 6054POPC   C2B76376   9.538  39.071   6.764
 6054POPC   C3B76377   9.537  39.078   7.064
 6054POPC   C4B76378   9.551  39.090   7.364
 6055POPC   NC376379  28.365  18.333   5.564
 6055POPC   PO476380  28.348  18.245   5.864
 6055POPC   GL176381  28.395  18.247   6.164
 6055POPC   GL276382  28.350  18.434   6.164
 6055POPC   C1A76383  28.403  18.248   6.464
 6055POPC   D2A76384  28.343  18.322   6.764
 6055POPC   C3A76385  28.396  18.318   7.064
 6055POPC   C4A76386  28.384  18.278   7.364
 6055POPC   C1B76387  28.295  18.552   6.464
 6055POPC   C2B76388  28.254  18.480   6.764
 6055POPC   C3B76389  28.248  18.557   7.064
 6055POPC   C4B76390  28.292  18.505   7.364
 6056POPC   NC376391  43.095  36.919   5.564
 6056POPC   PO476392  43.092  36.892   5.864
 6056POPC   GL176393  43.127  36.924   6.164
 6056POPC   GL276394  42.983  36.969   6.164
 6056POPC   C1A76395  43.158  36.854   6.464
 6056POPC   D2A76396  43.126  36.925   6.764
 6056POPC   C3A76397  43.147  36.941   7.064
 6056POPC   C4A76398  43.061  36.882   7.364
 6056POPC   C1B76399  42.882  37.064   6.464
 6056POPC   C2B76400  42.890  37.083   6.764
 6056POPC   C3B76401  42.931  37.007   7.064
 6056POPC   C4B76402  42.937  37.021   7.364
 6057POPC   NC376403  42.326  15.911   5.564
 6057POPC   PO476404  42.314  15.931   5.864
 6057POPC   GL176405  42.314  15.948   6.164
 6057POPC   GL276406  42.217  16.065   6.164
 6057POPC   C1A76407  42.342  15.906   6.464
 6057POPC   D2A76408  42.374  15.909   6.764
 6057POPC   C3A76409  42.306  15.967   7.064
 6057POPC   C4A76410  42.339  15.920   7.364
 6057POPC   C1B76411  42.163  16.098   6.464
 6057POPC   C2B76412  42.179  16.133   6.764
 6057POPC   C3B76413  42.102  16.103   7.064
 6057POPC   C4B76414  42.118  16.072   7.364
 6058POPC   NC376415  20.637  26.821   5.564
 6058POPC   PO476416  20.608  26.836   5.864
 6058POPC   GL176417  20.565  26.852   6.164
 6058POPC   GL276418  20.595  26.735   6.164
 6058POPC   C1A76419  20.623  26.769   6.464
 6058POPC   D2A76420  20.616  26.830   6.764
 6058POPC   C3A76421  20.584  26.844   7.064
 6058POPC   C4A76422  20.614  26.858   7.364
 6058POPC   C1B76423  20.531  26.572   6.464
 6058POPC   C2B76424  20.507  26.578   6.764
 6058POPC   C3B76425  20.491  26.576   7.064
 6058POPC   C4B76426  20.504  26.601   7.364
 6059POPC   NC376427  43.911  35.390   5.564
 6059POPC   PO476428  43.917  35.370   5.864
 6059POPC   GL176429  43.840  35.315   6.164
 6059POPC   GL276430  43.909  35.198   6.164
 6059POPC   C1A76431  43.858  35.345   6.464
 6059POPC   D2A76432  43.855  35.315   6.764
 6059POPC   C3A76433  43.930  35.389   7.064
 6059POPC   C4A76434  43.928  35.368   7.364
 6059POPC   C1B76435  43.987  35.134   6.464
 6059POPC   C2B76436  43.927  35.098   6.764
 6059POPC   C3B76437  43.985  35.078   7.064
 6059POPC   C4B76438  43.936  35.066   7.364
 6060POPC   NC376439  41.559   8.973   5.564
 6060POPC   PO476440  41.574   8.951   5.864
 6060POPC   GL176441  41.569   8.955   6.164
 6060POPC   GL276442  41.436   8.988   6.164
 6060POPC   C1A76443  41.529   8.971   6.464
 6060POPC   D2A76444  41.566   8.981   6.764
 6060POPC   C3A76445  41.511   8.947   7.064
 6060POPC   C4A76446  41.590   8.968   7.364
 6060POPC   C1B76447  41.305   9.044   6.464
 6060POPC   C2B76448  41.306   9.084   6.764
 6060POPC   C3B76449  41.366   9.071   7.064
 6060POPC   C4B76450  41.356   9.125   7.364
 6061POPC   NC376451  15.198   9.009   5.564
 6061POPC   PO476452  15.198   8.929   5.864
 6061POPC   GL176453  15.147   8.938   6.164
 6061POPC   GL276454  15.157   9.134   6.164
 6061POPC   C1A76455  15.156   8.967   6.464
 6061POPC   D2A76456  15.156   8.951   6.764
 6061POPC   C3A76457  15.182   8.967   7.064
 6061POPC   C4A76458  15.167   8.931   7.364
 6061POPC   C1B76459  15.054   9.252   6.464
 6061POPC   C2B76460  15.073   9.169   6.764
 6061POPC   C3B76461  15.038   9.241   7.064
 6061POPC   C4B76462  15.117   9.243   7.364
 6062POPC   NC376463  38.453  36.897   5.564
 6062POPC   PO476464  38.418  36.907   5.864
 6062POPC   GL176465  38.441  36.901   6.164
 6062POPC   GL276466  38.488  37.017   6.164
 6062POPC   C1A76467  38.485  36.941   6.464
 6062POPC   D2A76468  38.495  36.939   6.764
 6062POPC   C3A76469  38.454  36.901   7.064
 6062POPC   C4A76470  38.405  36.913   7.364
 6062POPC   C1B76471  38.574  37.123   6.464
 6062POPC   C2B76472  38.659  37.080   6.764
 6062POPC   C3B76473  38.570  37.131   7.064
 6062POPC   C4B76474  38.650  37.108   7.364
 6063POPC   NC376475   4.352   9.698   5.564
 6063POPC   PO476476   4.346   9.767   5.864
 6063POPC   GL176477   4.279   9.765   6.164
 6063POPC   GL276478   4.437   9.845   6.164
 6063POPC   C1A76479   4.303   9.708   6.464
 6063POPC   D2A76480   4.337   9.740   6.764
 6063POPC   C3A76481   4.320   9.764   7.064
 6063POPC   C4A76482   4.360   9.796   7.364
 6063POPC   C1B76483   4.448   9.885   6.464
 6063POPC   C2B76484   4.460   9.910   6.764
 6063POPC   C3B76485   4.467   9.915   7.064
 6063POPC   C4B76486   4.502   9.927   7.364
 6064POPC   NC376487  36.945  19.012   5.564
 6064POPC   PO476488  36.914  19.019   5.864
 6064POPC   GL176489  36.858  19.100   6.164
 6064POPC   GL276490  36.966  18.984   6.164
 6064POPC   C1A76491  36.901  19.048   6.464
 6064POPC   D2A76492  36.894  19.109   6.764
 6064POPC   C3A76493  36.888  19.065   7.064
 6064POPC   C4A76494  36.914  19.051   7.364
 6064POPC   C1B76495  37.147  18.966   6.464
 6064POPC   C2B76496  37.087  18.969   6.764
 6064POPC   C3B76497  37.109  18.907   7.064
 6064POPC   C4B76498  37.143  18.969   7.364
 6065POPC   NC376499  39.987   2.010   5.564
 6065POPC   PO476500  40.044   1.955   5.864
 6065POPC   GL176501  40.003   2.003   6.164
 6065POPC   GL276502  40.003   2.150   6.164
 6065POPC   C1A76503  40.037   1.985   6.464
 6065POPC   D2A76504  39.971   2.000   6.764
 6065POPC   C3A76505  39.984   1.945   7.064
 6065POPC   C4A76506  40.036   1.960   7.364
 6065POPC   C1B76507  39.991   2.264   6.464
 6065POPC   C2B76508  40.023   2.210   6.764
 6065POPC   C3B76509  40.030   2.256   7.064
 6065POPC   C4B76510  40.007   2.279   7.364
 6066POPC   NC376511   5.117   3.540   5.564
 6066POPC   PO476512   5.078   3.586   5.864
 6066POPC   GL176513   5.087   3.502   6.164
 6066POPC   GL276514   5.172   3.650   6.164
 6066POPC   C1A76515   5.103   3.541   6.464
 6066POPC   D2A76516   5.090   3.578   6.764
 6066POPC   C3A76517   5.086   3.493   7.064
 6066POPC   C4A76518   5.052   3.524   7.364
 6066POPC   C1B76519   5.227   3.767   6.464
 6066POPC   C2B76520   5.204   3.705   6.764
 6066POPC   C3B76521   5.250   3.753   7.064
 6066POPC   C4B76522   5.259   3.733   7.364
 6067POPC   NC376523  20.603  41.570   5.564
 6067POPC   PO476524  20.637  41.552   5.864
 6067POPC   GL176525  20.617  41.539   6.164
 6067POPC   GL276526  20.699  41.633   6.164
 6067POPC   C1A76527  20.648  41.554   6.464
 6067POPC   D2A76528  20.592  41.544   6.764
 6067POPC   C3A76529  20.610  41.603   7.064
 6067POPC   C4A76530  20.605  41.579   7.364
 6067POPC   C1B76531  20.803  41.689   6.464
 6067POPC   C2B76532  20.795  41.725   6.764
 6067POPC   C3B76533  20.792  41.735   7.064
 6067POPC   C4B76534  20.823  41.782   7.364
 6068POPC   NC376535   0.426   0.443   5.564
 6068POPC   PO476536   0.469   0.399   5.864
 6068POPC   GL176537   0.455   0.401   6.164
 6068POPC   GL276538   0.431   0.368   6.164
 6068POPC   C1A76539   0.482   0.453   6.464
 6068POPC   D2A76540   0.481   0.467   6.764
 6068POPC   C3A76541   0.418   0.487   7.064
 6068POPC   C4A76542   0.389   0.395   7.364
 6068POPC   C1B76543   0.364   0.179   6.464
 6068POPC   C2B76544   0.392   0.150   6.764
 6068POPC   C3B76545   0.382   0.150   7.064
 6068POPC   C4B76546   0.360   0.237   7.364
 6069POPC   NC376547   5.858  43.933   5.564
 6069POPC   PO476548   5.905  43.892   5.864
 6069POPC   GL176549   5.829  43.874   6.164
 6069POPC   GL276550   6.029  43.819   6.164
 6069POPC   C1A76551   5.845  43.849   6.464
 6069POPC   D2A76552   5.884  43.852   6.764
 6069POPC   C3A76553   5.852  43.912   7.064
 6069POPC   C4A76554   5.831  43.916   7.364
 6069POPC   C1B76555   6.085  43.776   6.464
 6069POPC   C2B76556   6.051  43.759   6.764
 6069POPC   C3B76557   6.113  43.760   7.064
 6069POPC   C4B76558   6.059  43.796   7.364
 6070POPC   NC376559  43.927  26.038   5.564
 6070POPC   PO476560  43.926  26.070   5.864
 6070POPC   GL176561  43.840  26.024   6.164
 6070POPC   GL276562  43.828  25.975   6.164
 6070POPC   C1A76563  43.845  26.010   6.464
 6070POPC   D2A76564  43.874  26.026   6.764
 6070POPC   C3A76565  43.889  26.015   7.064
 6070POPC   C4A76566  43.867  26.016   7.364
 6070POPC   C1B76567  43.681  25.909   6.464
 6070POPC   C2B76568  43.682  25.903   6.764
 6070POPC   C3B76569  43.703  25.889   7.064
 6070POPC   C4B76570  43.696  25.825   7.364
 6071POPC   NC376571  22.951  15.165   5.564
 6071POPC   PO476572  22.962  15.136   5.864
 6071POPC   GL176573  22.985  15.212   6.164
 6071POPC   GL276574  22.980  15.093   6.164
 6071POPC   C1A76575  22.919  15.201   6.464
 6071POPC   D2A76576  22.907  15.178   6.764
 6071POPC   C3A76577  22.924  15.197   7.064
 6071POPC   C4A76578  22.896  15.184   7.364
 6071POPC   C1B76579  23.070  15.002   6.464
 6071POPC   C2B76580  23.122  14.965   6.764
 6071POPC   C3B76581  23.059  15.007   7.064
 6071POPC   C4B76582  23.096  14.976   7.364
 6072POPC   NC376583  43.879  39.275   5.564
 6072POPC   PO476584  43.930  39.186   5.864
 6072POPC   GL176585  43.856  39.261   6.164
 6072POPC   GL276586  43.906  39.384   6.164
 6072POPC   C1A76587  43.888  39.221   6.464
 6072POPC   D2A76588  43.841  39.182   6.764
 6072POPC   C3A76589  43.842  39.217   7.064
 6072POPC   C4A76590  43.845  39.181   7.364
 6072POPC   C1B76591  43.896  39.442   6.464
 6072POPC   C2B76592  43.963  39.511   6.764
 6072POPC   C3B76593  43.949  39.522   7.064
 6072POPC   C4B76594  43.886  39.452   7.364
 6073POPC   NC376595  12.113  41.578   5.564
 6073POPC   PO476596  12.103  41.605   5.864
 6073POPC   GL176597  12.071  41.534   6.164
 6073POPC   GL276598  11.944  41.451   6.164
 6073POPC   C1A76599  12.026  41.511   6.464
 6073POPC   D2A76600  12.112  41.554   6.764
 6073POPC   C3A76601  12.088  41.524   7.064
 6073POPC   C4A76602  12.121  41.587   7.364
 6073POPC   C1B76603  11.878  41.356   6.464
 6073POPC   C2B76604  11.861  41.361   6.764
 6073POPC   C3B76605  11.885  41.345   7.064
 6073POPC   C4B76606  11.898  41.336   7.364
 6074POPC   NC376607  25.994  42.285   5.564
 6074POPC   PO476608  26.064  42.332   5.864
 6074POPC   GL176609  26.050  42.372   6.164
 6074POPC   GL276610  25.895  42.406   6.164
 6074POPC   C1A76611  26.030  42.372   6.464
 6074POPC   D2A76612  25.995  42.318   6.764
 6074POPC   C3A76613  25.992  42.365   7.064
 6074POPC   C4A76614  26.017  42.294   7.364
 6074POPC   C1B76615  25.865  42.447   6.464
 6074POPC   C2B76616  25.881  42.453   6.764
 6074POPC   C3B76617  25.849  42.468   7.064
 6074POPC   C4B76618  25.833  42.441   7.364
 6075POPC   NC376619  10.570   7.446   5.564
 6075POPC   PO476620  10.571   7.432   5.864
 6075POPC   GL176621  10.533   7.434   6.164
 6075POPC   GL276622  10.526   7.558   6.164
 6075POPC   C1A76623  10.562   7.430   6.464
 6075POPC   D2A76624  10.512   7.441   6.764
 6075POPC   C3A76625  10.566   7.461   7.064
 6075POPC   C4A76626  10.477   7.381   7.364
 6075POPC   C1B76627  10.488   7.682   6.464
 6075POPC   C2B76628  10.468   7.703   6.764
 6075POPC   C3B76629  10.504   7.716   7.064
 6075POPC   C4B76630  10.514   7.629   7.364
 6076POPC   NC376631   5.117  27.615   5.564
 6076POPC   PO476632   5.131  27.555   5.864
 6076POPC   GL176633   5.121  27.569   6.164
 6076POPC   GL276634   5.178  27.710   6.164
 6076POPC   C1A76635   5.050  27.613   6.464
 6076POPC   D2A76636   5.108  27.554   6.764
 6076POPC   C3A76637   5.054  27.572   7.064
 6076POPC   C4A76638   5.097  27.585   7.364
 6076POPC   C1B76639   5.278  27.768   6.464
 6076POPC   C2B76640   5.291  27.713   6.764
 6076POPC   C3B76641   5.297  27.757   7.064
 6076POPC   C4B76642   5.305  27.729   7.364
 6077POPC   NC376643  29.110  12.077   5.564
 6077POPC   PO476644  29.132  12.108   5.864
 6077POPC   GL176645  29.113  12.123   6.164
 6077POPC   GL276646  29.219  12.185   6.164
 6077POPC   C1A76647  29.195  12.079   6.464
 6077POPC   D2A76648  29.183  12.063   6.764
 6077POPC   C3A76649  29.101  12.066   7.064
 6077POPC   C4A76650  29.098  12.120   7.364
 6077POPC   C1B76651  29.209  12.361   6.464
 6077POPC   C2B76652  29.204  12.310   6.764
 6077POPC   C3B76653  29.183  12.333   7.064
 6077POPC   C4B76654  29.185  12.326   7.364
 6078POPC   NC376655  32.224  33.801   5.564
 6078POPC   PO476656  32.278  33.808   5.864
 6078POPC   GL176657  32.218  33.781   6.164
 6078POPC   GL276658  32.338  33.878   6.164
 6078POPC   C1A76659  32.255  33.757   6.464
 6078POPC   D2A76660  32.272  33.821   6.764
 6078POPC   C3A76661  32.234  33.789   7.064
 6078POPC   C4A76662  32.288  33.786   7.364
 6078POPC   C1B76663  32.526  33.832   6.464
 6078POPC   C2B76664  32.444  33.911   6.764
 6078POPC   C3B76665  32.455  33.880   7.064
 6078POPC   C4B76666  32.527  33.852   7.364
 6079POPC   NC376667   6.605  15.961   5.564
 6079POPC   PO476668   6.596  16.000   5.864
 6079POPC   GL176669   6.676  15.923   6.164
 6079POPC   GL276670   6.565  15.999   6.164
 6079POPC   C1A76671   6.603  15.952   6.464
 6079POPC   D2A76672   6.605  15.987   6.764
 6079POPC   C3A76673   6.656  15.988   7.064
 6079POPC   C4A76674   6.656  15.949   7.364
 6079POPC   C1B76675   6.430  16.143   6.464
 6079POPC   C2B76676   6.466  16.138   6.764
 6079POPC   C3B76677   6.477  16.079   7.064
 6079POPC   C4B76678   6.485  16.076   7.364
 6080POPC   NC376679  19.010  12.081   5.564
 6080POPC   PO476680  19.082  12.124   5.864
 6080POPC   GL176681  19.059  12.044   6.164
 6080POPC   GL276682  19.130  11.971   6.164
 6080POPC   C1A76683  19.093  12.060   6.464
 6080POPC   D2A76684  19.009  12.037   6.764
 6080POPC   C3A76685  19.015  12.077   7.064
 6080POPC   C4A76686  19.083  12.035   7.364
 6080POPC   C1B76687  19.111  11.817   6.464
 6080POPC   C2B76688  19.165  11.831   6.764
 6080POPC   C3B76689  19.166  11.886   7.064
 6080POPC   C4B76690  19.123  11.807   7.364
 6081POPC   NC376691  15.187  29.906   5.564
 6081POPC   PO476692  15.160  29.962   5.864
 6081POPC   GL176693  15.194  29.876   6.164
 6081POPC   GL276694  15.130  30.009   6.164
 6081POPC   C1A76695  15.204  29.874   6.464
 6081POPC   D2A76696  15.131  29.950   6.764
 6081POPC   C3A76697  15.137  29.881   7.064
 6081POPC   C4A76698  15.208  29.893   7.364
 6081POPC   C1B76699  15.021  30.061   6.464
 6081POPC   C2B76700  15.013  30.073   6.764
 6081POPC   C3B76701  15.003  30.088   7.064
 6081POPC   C4B76702  15.021  30.075   7.364
 6082POPC   NC376703  12.848  26.826   5.564
 6082POPC   PO476704  12.832  26.819   5.864
 6082POPC   GL176705  12.832  26.853   6.164
 6082POPC   GL276706  12.824  26.712   6.164
 6082POPC   C1A76707  12.897  26.790   6.464
 6082POPC   D2A76708  12.862  26.817   6.764
 6082POPC   C3A76709  12.839  26.809   7.064
 6082POPC   C4A76710  12.883  26.845   7.364
 6082POPC   C1B76711  12.872  26.580   6.464
 6082POPC   C2B76712  12.797  26.523   6.764
 6082POPC   C3B76713  12.859  26.565   7.064
 6082POPC   C4B76714  12.871  26.616   7.364
 6083POPC   NC376715  43.858  11.257   5.564
 6083POPC   PO476716  43.876  11.325   5.864
 6083POPC   GL176717  43.841  11.340   6.164
 6083POPC   GL276718  43.868  11.197   6.164
 6083POPC   C1A76719  43.884  11.286   6.464
 6083POPC   D2A76720  43.845  11.267   6.764
 6083POPC   C3A76721  43.848  11.303   7.064
 6083POPC   C4A76722  43.865  11.345   7.364
 6083POPC   C1B76723  43.819  11.090   6.464
 6083POPC   C2B76724  43.814  11.046   6.764
 6083POPC   C3B76725  43.852  11.066   7.064
 6083POPC   C4B76726  43.780  11.061   7.364
 6084POPC   NC376727  22.180  13.621   5.564
 6084POPC   PO476728  22.203  13.591   5.864
 6084POPC   GL176729  22.188  13.645   6.164
 6084POPC   GL276730  22.098  13.520   6.164
 6084POPC   C1A76731  22.132  13.632   6.464
 6084POPC   D2A76732  22.169  13.667   6.764
 6084POPC   C3A76733  22.136  13.667   7.064
 6084POPC   C4A76734  22.129  13.653   7.364
 6084POPC   C1B76735  21.924  13.460   6.464
 6084POPC   C2B76736  21.930  13.510   6.764
 6084POPC   C3B76737  21.999  13.490   7.064
 6084POPC   C4B76738  21.949  13.491   7.364
 6085POPC   NC376739   1.193  26.064   5.564
 6085POPC   PO476740   1.254  26.029   5.864
 6085POPC   GL176741   1.243  26.018   6.164
 6085POPC   GL276742   1.360  25.971   6.164
 6085POPC   C1A76743   1.175  26.038   6.464
 6085POPC   D2A76744   1.255  26.051   6.764
 6085POPC   C3A76745   1.173  26.040   7.064
 6085POPC   C4A76746   1.219  26.072   7.364
 6085POPC   C1B76747   1.507  25.967   6.464
 6085POPC   C2B76748   1.416  25.981   6.764
 6085POPC   C3B76749   1.493  26.007   7.064
 6085POPC   C4B76750   1.448  25.974   7.364
 6086POPC   NC376751  40.771  29.954   5.564
 6086POPC   PO476752  40.764  29.954   5.864
 6086POPC   GL176753  40.784  29.897   6.164
 6086POPC   GL276754  40.749  29.812   6.164
 6086POPC   C1A76755  40.738  29.878   6.464
 6086POPC   D2A76756  40.785  29.920   6.764
 6086POPC   C3A76757  40.756  29.960   7.064
 6086POPC   C4A76758  40.754  29.871   7.364
 6086POPC   C1B76759  40.696  29.647   6.464
 6086POPC   C2B76760  40.680  29.727   6.764
 6086POPC   C3B76761  40.716  29.659   7.064
 6086POPC   C4B76762  40.697  29.648   7.364
 6087POPC   NC376763  26.063  40.031   5.564
 6087POPC   PO476764  26.013  39.989   5.864
 6087POPC   GL176765  26.065  40.030   6.164
 6087POPC   GL276766  26.000  39.862   6.164
 6087POPC   C1A76767  26.017  40.003   6.464
 6087POPC   D2A76768  26.042  39.968   6.764
 6087POPC   C3A76769  26.081  40.035   7.064
 6087POPC   C4A76770  26.061  40.030   7.364
 6087POPC   C1B76771  26.008  39.738   6.464
 6087POPC   C2B76772  26.002  39.800   6.764
 6087POPC   C3B76773  26.017  39.755   7.064
 6087POPC   C4B76774  26.081  39.795   7.364
 6088POPC   NC376775  37.635  15.215   5.564
 6088POPC   PO476776  37.634  15.140   5.864
 6088POPC   GL176777  37.664  15.214   6.164
 6088POPC   GL276778  37.800  15.163   6.164
 6088POPC   C1A76779  37.679  15.133   6.464
 6088POPC   D2A76780  37.684  15.168   6.764
 6088POPC   C3A76781  37.650  15.167   7.064
 6088POPC   C4A76782  37.673  15.204   7.364
 6088POPC   C1B76783  37.930  15.163   6.464
 6088POPC   C2B76784  37.922  15.140   6.764
 6088POPC   C3B76785  37.904  15.148   7.064
 6088POPC   C4B76786  37.908  15.105   7.364
 6089POPC   NC376787  18.329  36.151   5.564
 6089POPC   PO476788  18.265  36.150   5.864
 6089POPC   GL176789  18.248  36.115   6.164
 6089POPC   GL276790  18.220  36.227   6.164
 6089POPC   C1A76791  18.250  36.156   6.464
 6089POPC   D2A76792  18.241  36.091   6.764
 6089POPC   C3A76793  18.298  36.084   7.064
 6089POPC   C4A76794  18.238  36.135   7.364
 6089POPC   C1B76795  18.202  36.302   6.464
 6089POPC   C2B76796  18.171  36.298   6.764
 6089POPC   C3B76797  18.165  36.297   7.064
 6089POPC   C4B76798  18.128  36.388   7.364
 6090POPC   NC376799  36.872  18.253   5.564
 6090POPC   PO476800  36.948  18.249   5.864
 6090POPC   GL176801  36.905  18.266   6.164
 6090POPC   GL276802  36.973  18.374   6.164
 6090POPC   C1A76803  36.876  18.293   6.464
 6090POPC   D2A76804  36.940  18.322   6.764
 6090POPC   C3A76805  36.945  18.275   7.064
 6090POPC   C4A76806  36.908  18.266   7.364
 6090POPC   C1B76807  37.124  18.377   6.464
 6090POPC   C2B76808  37.131  18.342   6.764
 6090POPC   C3B76809  37.145  18.415   7.064
 6090POPC   C4B76810  37.089  18.431   7.364
 6091POPC   NC376811  22.133  40.826   5.564
 6091POPC   PO476812  22.143  40.830   5.864
 6091POPC   GL176813  22.207  40.820   6.164
 6091POPC   GL276814  22.249  40.852   6.164
 6091POPC   C1A76815  22.164  40.825   6.464
 6091POPC   D2A76816  22.159  40.751   6.764
 6091POPC   C3A76817  22.191  40.762   7.064
 6091POPC   C4A76818  22.181  40.823   7.364
 6091POPC   C1B76819  22.224  40.990   6.464
 6091POPC   C2B76820  22.288  40.973   6.764
 6091POPC   C3B76821  22.266  40.978   7.064
 6091POPC   C4B76822  22.268  41.042   7.364
 6092POPC   NC376823  31.492  29.871   5.564
 6092POPC   PO476824  31.492  29.947   5.864
 6092POPC   GL176825  31.446  29.872   6.164
 6092POPC   GL276826  31.378  29.997   6.164
 6092POPC   C1A76827  31.426  29.963   6.464
 6092POPC   D2A76828  31.506  29.931   6.764
 6092POPC   C3A76829  31.472  29.968   7.064
 6092POPC   C4A76830  31.457  29.897   7.364
 6092POPC   C1B76831  31.257  30.040   6.464
 6092POPC   C2B76832  31.220  29.957   6.764
 6092POPC   C3B76833  31.257  29.960   7.064
 6092POPC   C4B76834  31.222  29.973   7.364
 6093POPC   NC376835  43.149   3.571   5.564
 6093POPC   PO476836  43.150   3.537   5.864
 6093POPC   GL176837  43.098   3.590   6.164
 6093POPC   GL276838  43.234   3.595   6.164
 6093POPC   C1A76839  43.120   3.567   6.464
 6093POPC   D2A76840  43.152   3.554   6.764
 6093POPC   C3A76841  43.135   3.533   7.064
 6093POPC   C4A76842  43.160   3.506   7.364
 6093POPC   C1B76843  43.369   3.654   6.464
 6093POPC   C2B76844  43.305   3.662   6.764
 6093POPC   C3B76845  43.379   3.608   7.064
 6093POPC   C4B76846  43.376   3.674   7.364
 6094POPC   NC376847  35.371  25.287   5.564
 6094POPC   PO476848  35.302  25.272   5.864
 6094POPC   GL176849  35.348  25.217   6.164
 6094POPC   GL276850  35.223  25.222   6.164
 6094POPC   C1A76851  35.334  25.264   6.464
 6094POPC   D2A76852  35.369  25.285   6.764
 6094POPC   C3A76853  35.377  25.252   7.064
 6094POPC   C4A76854  35.358  25.257   7.364
 6094POPC   C1B76855  35.101  25.248   6.464
 6094POPC   C2B76856  35.150  25.178   6.764
 6094POPC   C3B76857  35.089  25.168   7.064
 6094POPC   C4B76858  35.106  25.220   7.364
 6095POPC   NC376859  14.361  38.416   5.564
 6095POPC   PO476860  14.362  38.459   5.864
 6095POPC   GL176861  14.354  38.467   6.164
 6095POPC   GL276862  14.482  38.361   6.164
 6095POPC   C1A76863  14.446  38.490   6.464
 6095POPC   D2A76864  14.413  38.457   6.764
 6095POPC   C3A76865  14.421  38.427   7.064
 6095POPC   C4A76866  14.376  38.477   7.364
 6095POPC   C1B76867  14.550  38.206   6.464
 6095POPC   C2B76868  14.486  38.199   6.764
 6095POPC   C3B76869  14.514  38.220   7.064
 6095POPC   C4B76870  14.517  38.217   7.364
 6096POPC   NC376871  27.615  15.909   5.564
 6096POPC   PO476872  27.572  15.959   5.864
 6096POPC   GL176873  27.601  15.976   6.164
 6096POPC   GL276874  27.688  16.059   6.164
 6096POPC   C1A76875  27.557  15.931   6.464
 6096POPC   D2A76876  27.578  16.001   6.764
 6096POPC   C3A76877  27.624  15.971   7.064
 6096POPC   C4A76878  27.590  15.960   7.364
 6096POPC   C1B76879  27.663  16.197   6.464
 6096POPC   C2B76880  27.665  16.220   6.764
 6096POPC   C3B76881  27.671  16.198   7.064
 6096POPC   C4B76882  27.703  16.157   7.364
 6097POPC   NC376883   4.363  34.568   5.564
 6097POPC   PO476884   4.276  34.572   5.864
 6097POPC   GL176885   4.362  34.598   6.164
 6097POPC   GL276886   4.240  34.688   6.164
 6097POPC   C1A76887   4.298  34.533   6.464
 6097POPC   D2A76888   4.310  34.598   6.764
 6097POPC   C3A76889   4.279  34.586   7.064
 6097POPC   C4A76890   4.357  34.532   7.364
 6097POPC   C1B76891   4.112  34.711   6.464
 6097POPC   C2B76892   4.095  34.775   6.764
 6097POPC   C3B76893   4.128  34.788   7.064
 6097POPC   C4B76894   4.171  34.722   7.364
 6098POPC   NC376895  32.267  14.445   5.564
 6098POPC   PO476896  32.288  14.426   5.864
 6098POPC   GL176897  32.228  14.372   6.164
 6098POPC   GL276898  32.287  14.284   6.164
 6098POPC   C1A76899  32.258  14.441   6.464
 6098POPC   D2A76900  32.225  14.451   6.764
 6098POPC   C3A76901  32.294  14.429   7.064
 6098POPC   C4A76902  32.230  14.402   7.364
 6098POPC   C1B76903  32.287  14.184   6.464
 6098POPC   C2B76904  32.357  14.147   6.764
 6098POPC   C3B76905  32.345  14.147   7.064
 6098POPC   C4B76906  32.333  14.168   7.364
 6099POPC   NC376907  19.818  43.153   5.564
 6099POPC   PO476908  19.843  43.125   5.864
 6099POPC   GL176909  19.846  43.123   6.164
 6099POPC   GL276910  19.899  43.016   6.164
 6099POPC   C1A76911  19.853  43.114   6.464
 6099POPC   D2A76912  19.883  43.093   6.764
 6099POPC   C3A76913  19.853  43.114   7.064
 6099POPC   C4A76914  19.849  43.103   7.364
 6099POPC   C1B76915  19.908  42.839   6.464
 6099POPC   C2B76916  19.936  42.847   6.764
 6099POPC   C3B76917  19.894  42.914   7.064
 6099POPC   C4B76918  19.911  42.833   7.364
 6100POPC   NC376919  26.027  15.214   5.564
 6100POPC   PO476920  26.004  15.148   5.864
 6100POPC   GL176921  26.051  15.187   6.164
 6100POPC   GL276922  25.977  15.126   6.164
 6100POPC   C1A76923  26.078  15.199   6.464
 6100POPC   D2A76924  26.004  15.214   6.764
 6100POPC   C3A76925  26.067  15.158   7.064
 6100POPC   C4A76926  26.005  15.178   7.364
 6100POPC   C1B76927  25.786  15.082   6.464
 6100POPC   C2B76928  25.780  15.098   6.764
 6100POPC   C3B76929  25.821  15.083   7.064
 6100POPC   C4B76930  25.777  15.103   7.364
 6101POPC   NC376931  36.856   3.591   5.564
 6101POPC   PO476932  36.880   3.532   5.864
 6101POPC   GL176933  36.888   3.563   6.164
 6101POPC   GL276934  36.791   3.556   6.164
 6101POPC   C1A76935  36.934   3.555   6.464
 6101POPC   D2A76936  36.918   3.548   6.764
 6101POPC   C3A76937  36.907   3.534   7.064
 6101POPC   C4A76938  36.861   3.517   7.364
 6101POPC   C1B76939  36.678   3.630   6.464
 6101POPC   C2B76940  36.649   3.612   6.764
 6101POPC   C3B76941  36.683   3.622   7.064
 6101POPC   C4B76942  36.679   3.654   7.364
 6102POPC   NC376943   7.411  14.434   5.564
 6102POPC   PO476944   7.382  14.446   5.864
 6102POPC   GL176945   7.448  14.393   6.164
 6102POPC   GL276946   7.297  14.476   6.164
 6102POPC   C1A76947   7.401  14.421   6.464
 6102POPC   D2A76948   7.374  14.388   6.764
 6102POPC   C3A76949   7.453  14.425   7.064
 6102POPC   C4A76950   7.430  14.398   7.364
 6102POPC   C1B76951   7.225  14.590   6.464
 6102POPC   C2B76952   7.248  14.577   6.764
 6102POPC   C3B76953   7.268  14.527   7.064
 6102POPC   C4B76954   7.247  14.614   7.364
 6103POPC   NC376955  43.106   9.786   5.564
 6103POPC   PO476956  43.085   9.722   5.864
 6103POPC   GL176957  43.085   9.713   6.164
 6103POPC   GL276958  43.081   9.585   6.164
 6103POPC   C1A76959  43.112   9.784   6.464
 6103POPC   D2A76960  43.074   9.744   6.764
 6103POPC   C3A76961  43.070   9.765   7.064
 6103POPC   C4A76962  43.140   9.726   7.364
 6103POPC   C1B76963  43.152   9.485   6.464
 6103POPC   C2B76964  43.149   9.468   6.764
 6103POPC   C3B76965  43.132   9.503   7.064
 6103POPC   C4B76966  43.165   9.482   7.364
 6104POPC   NC376967   5.098  33.011   5.564
 6104POPC   PO476968   5.118  32.979   5.864
 6104POPC   GL176969   5.071  33.058   6.164
 6104POPC   GL276970   5.053  33.090   6.164
 6104POPC   C1A76971   5.096  33.039   6.464
 6104POPC   D2A76972   5.113  32.986   6.764
 6104POPC   C3A76973   5.143  32.998   7.064
 6104POPC   C4A76974   5.107  33.017   7.364
 6104POPC   C1B76975   4.961  33.242   6.464
 6104POPC   C2B76976   4.944  33.248   6.764
 6104POPC   C3B76977   4.963  33.237   7.064
 6104POPC   C4B76978   4.942  33.268   7.364
 6105POPC   NC376979  32.208   2.796   5.564
 6105POPC   PO476980  32.208   2.795   5.864
 6105POPC   GL176981  32.240   2.717   6.164
 6105POPC   GL276982  32.230   2.624   6.164
 6105POPC   C1A76983  32.293   2.789   6.464
 6105POPC   D2A76984  32.281   2.732   6.764
 6105POPC   C3A76985  32.260   2.748   7.064
 6105POPC   C4A76986  32.251   2.757   7.364
 6105POPC   C1B76987  32.192   2.550   6.464
 6105POPC   C2B76988  32.167   2.513   6.764
 6105POPC   C3B76989  32.244   2.543   7.064
 6105POPC   C4B76990  32.158   2.503   7.364
 6106POPC   NC376991   1.943  17.545   5.564
 6106POPC   PO476992   1.996  17.461   5.864
 6106POPC   GL176993   2.021  17.473   6.164
 6106POPC   GL276994   1.912  17.406   6.164
 6106POPC   C1A76995   1.984  17.468   6.464
 6106POPC   D2A76996   1.962  17.536   6.764
 6106POPC   C3A76997   1.951  17.500   7.064
 6106POPC   C4A76998   2.010  17.495   7.364
 6106POPC   C1B76999   1.730  17.382   6.464
 6106POPC   C2B77000   1.769  17.422   6.764
 6106POPC   C3B77001   1.751  17.379   7.064
 6106POPC   C4B77002   1.778  17.398   7.364
 6107POPC   NC377003  31.446  35.311   5.564
 6107POPC   PO477004  31.486  35.315   5.864
 6107POPC   GL177005  31.491  35.390   6.164
 6107POPC   GL277006  31.580  35.424   6.164
 6107POPC   C1A77007  31.453  35.318   6.464
 6107POPC   D2A77008  31.451  35.379   6.764
 6107POPC   C3A77009  31.452  35.323   7.064
 6107POPC   C4A77010  31.482  35.396   7.364
 6107POPC   C1B77011  31.643  35.542   6.464
 6107POPC   C2B77012  31.693  35.528   6.764
 6107POPC   C3B77013  31.644  35.532   7.064
 6107POPC   C4B77014  31.608  35.569   7.364
 6108POPC   NC377015   5.074  20.609   5.564
 6108POPC   PO477016   5.092  20.648   5.864
 6108POPC   GL177017   5.120  20.580   6.164
 6108POPC   GL277018   5.173  20.572   6.164
 6108POPC   C1A77019   5.112  20.626   6.464
 6108POPC   D2A77020   5.111  20.589   6.764
 6108POPC   C3A77021   5.105  20.602   7.064
 6108POPC   C4A77022   5.092  20.608   7.364
 6108POPC   C1B77023   5.363  20.568   6.464
 6108POPC   C2B77024   5.382  20.576   6.764
 6108POPC   C3B77025   5.327  20.586   7.064
 6108POPC   C4B77026   5.304  20.586   7.364
 6109POPC   NC377027  10.540  42.307   5.564
 6109POPC   PO477028  10.563  42.369   5.864
 6109POPC   GL177029  10.516  42.348   6.164
 6109POPC   GL277030  10.600  42.464   6.164
 6109POPC   C1A77031  10.475  42.367   6.464
 6109POPC   D2A77032  10.549  42.375   6.764
 6109POPC   C3A77033  10.565  42.299   7.064
 6109POPC   C4A77034  10.554  42.376   7.364
 6109POPC   C1B77035  10.711  42.557   6.464
 6109POPC   C2B77036  10.708  42.535   6.764
 6109POPC   C3B77037  10.695  42.524   7.064
 6109POPC   C4B77038  10.631  42.561   7.364
 6110POPC   NC377039  40.734  32.280   5.564
 6110POPC   PO477040  40.787  32.226   5.864
 6110POPC   GL177041  40.826  32.270   6.164
 6110POPC   GL277042  40.846  32.212   6.164
 6110POPC   C1A77043  40.750  32.268   6.464
 6110POPC   D2A77044  40.788  32.296   6.764
 6110POPC   C3A77045  40.800  32.209   7.064
 6110POPC   C4A77046  40.791  32.285   7.364
 6110POPC   C1B77047  41.013  32.067   6.464
 6110POPC   C2B77048  41.019  32.122   6.764
 6110POPC   C3B77049  40.962  32.147   7.064
 6110POPC   C4B77050  40.983  32.157   7.364
 6111POPC   NC377051  36.915  39.235   5.564
 6111POPC   PO477052  36.869  39.206   5.864
 6111POPC   GL177053  36.921  39.273   6.164
 6111POPC   GL277054  36.983  39.246   6.164
 6111POPC   C1A77055  36.867  39.226   6.464
 6111POPC   D2A77056  36.937  39.274   6.764
 6111POPC   C3A77057  36.914  39.184   7.064
 6111POPC   C4A77058  36.950  39.241   7.364
 6111POPC   C1B77059  37.113  39.341   6.464
 6111POPC   C2B77060  37.192  39.300   6.764
 6111POPC   C3B77061  37.121  39.275   7.064
 6111POPC   C4B77062  37.111  39.281   7.364
 6112POPC   NC377063   5.891  15.166   5.564
 6112POPC   PO477064   5.867  15.164   5.864
 6112POPC   GL177065   5.887  15.192   6.164
 6112POPC   GL277066   5.951  15.042   6.164
 6112POPC   C1A77067   5.832  15.134   6.464
 6112POPC   D2A77068   5.884  15.227   6.764
 6112POPC   C3A77069   5.833  15.161   7.064
 6112POPC   C4A77070   5.832  15.160   7.364
 6112POPC   C1B77071   6.018  14.931   6.464
 6112POPC   C2B77072   6.052  14.951   6.764
 6112POPC   C3B77073   6.008  14.931   7.064
 6112POPC   C4B77074   6.048  15.008   7.364
 6113POPC   NC377075   5.077  38.421   5.564
 6113POPC   PO477076   5.138  38.468   5.864
 6113POPC   GL177077   5.118  38.501   6.164
 6113POPC   GL277078   5.162  38.557   6.164
 6113POPC   C1A77079   5.125  38.490   6.464
 6113POPC   D2A77080   5.083  38.436   6.764
 6113POPC   C3A77081   5.093  38.426   7.064
 6113POPC   C4A77082   5.103  38.466   7.364
 6113POPC   C1B77083   5.298  38.570   6.464
 6113POPC   C2B77084   5.360  38.601   6.764
 6113POPC   C3B77085   5.272  38.575   7.064
 6113POPC   C4B77086   5.348  38.519   7.364
 6114POPC   NC377087  15.931  41.599   5.564
 6114POPC   PO477088  15.990  41.584   5.864
 6114POPC   GL177089  15.926  41.512   6.164
 6114POPC   GL277090  15.891  41.454   6.164
 6114POPC   C1A77091  15.986  41.510   6.464
 6114POPC   D2A77092  15.911  41.538   6.764
 6114POPC   C3A77093  15.941  41.536   7.064
 6114POPC   C4A77094  15.953  41.566   7.364
 6114POPC   C1B77095  15.912  41.290   6.464
 6114POPC   C2B77096  15.881  41.327   6.764
 6114POPC   C3B77097  15.918  41.337   7.064
 6114POPC   C4B77098  15.850  41.329   7.364
 6115POPC   NC377099  22.153  17.457   5.564
 6115POPC   PO477100  22.127  17.492   5.864
 6115POPC   GL177101  22.130  17.493   6.164
 6115POPC   GL277102  22.117  17.393   6.164
 6115POPC   C1A77103  22.194  17.492   6.464
 6115POPC   D2A77104  22.121  17.485   6.764
 6115POPC   C3A77105  22.199  17.467   7.064
 6115POPC   C4A77106  22.181  17.473   7.364
 6115POPC   C1B77107  21.980  17.316   6.464
 6115POPC   C2B77108  21.978  17.296   6.764
 6115POPC   C3B77109  21.986  17.294   7.064
 6115POPC   C4B77110  22.048  17.345   7.364
 6116POPC   NC377111  32.975  16.685   5.564
 6116POPC   PO477112  33.024  16.748   5.864
 6116POPC   GL177113  33.041  16.734   6.164
 6116POPC   GL277114  32.886  16.666   6.164
 6116POPC   C1A77115  33.025  16.689   6.464
 6116POPC   D2A77116  33.046  16.741   6.764
 6116POPC   C3A77117  33.074  16.745   7.064
 6116POPC   C4A77118  33.058  16.722   7.364
 6116POPC   C1B77119  32.833  16.637   6.464
 6116POPC   C2B77120  32.801  16.681   6.764
 6116POPC   C3B77121  32.819  16.657   7.064
 6116POPC   C4B77122  32.796  16.639   7.364
 6117POPC   NC377123   2.720  38.494   5.564
 6117POPC   PO477124   2.751  38.443   5.864
 6117POPC   GL177125   2.726  38.448   6.164
 6117POPC   GL277126   2.842  38.337   6.164
 6117POPC   C1A77127   2.776  38.446   6.464
 6117POPC   D2A77128   2.770  38.447   6.764
 6117POPC   C3A77129   2.791  38.406   7.064
 6117POPC   C4A77130   2.730  38.453   7.364
 6117POPC   C1B77131   2.808  38.242   6.464
 6117POPC   C2B77132   2.836  38.185   6.764
 6117POPC   C3B77133   2.868  38.236   7.064
 6117POPC   C4B77134   2.806  38.194   7.364
 6118POPC   NC377135  38.451  25.309   5.564
 6118POPC   PO477136  38.448  25.217   5.864
 6118POPC   GL177137  38.504  25.291   6.164
 6118POPC   GL277138  38.622  25.306   6.164
 6118POPC   C1A77139  38.462  25.263   6.464
 6118POPC   D2A77140  38.473  25.234   6.764
 6118POPC   C3A77141  38.435  25.283   7.064
 6118POPC   C4A77142  38.478  25.292   7.364
 6118POPC   C1B77143  38.688  25.274   6.464
 6118POPC   C2B77144  38.663  25.261   6.764
 6118POPC   C3B77145  38.665  25.298   7.064
 6118POPC   C4B77146  38.683  25.261   7.364
 6119POPC   NC377147  37.644  19.798   5.564
 6119POPC   PO477148  37.660  19.828   5.864
 6119POPC   GL177149  37.687  19.867   6.164
 6119POPC   GL277150  37.753  19.837   6.164
 6119POPC   C1A77151  37.687  19.791   6.464
 6119POPC   D2A77152  37.653  19.810   6.764
 6119POPC   C3A77153  37.675  19.808   7.064
 6119POPC   C4A77154  37.706  19.795   7.364
 6119POPC   C1B77155  37.880  19.834   6.464
 6119POPC   C2B77156  37.925  19.840   6.764
 6119POPC   C3B77157  37.908  19.763   7.064
 6119POPC   C4B77158  37.878  19.837   7.364
 6120POPC   NC377159  39.244  23.676   5.564
 6120POPC   PO477160  39.199  23.726   5.864
 6120POPC   GL177161  39.181  23.718   6.164
 6120POPC   GL277162  39.099  23.754   6.164
 6120POPC   C1A77163  39.211  23.701   6.464
 6120POPC   D2A77164  39.215  23.762   6.764
 6120POPC   C3A77165  39.215  23.717   7.064
 6120POPC   C4A77166  39.252  23.762   7.364
 6120POPC   C1B77167  38.976  23.864   6.464
 6120POPC   C2B77168  39.024  23.837   6.764
 6120POPC   C3B77169  39.006  23.864   7.064
 6120POPC   C4B77170  38.980  23.834   7.364
 6121POPC   NC377171   8.172  22.156   5.564
 6121POPC   PO477172   8.220  22.147   5.864
 6121POPC   GL177173   8.190  22.192   6.164
 6121POPC   GL277174   8.308  22.116   6.164
 6121POPC   C1A77175   8.159  22.155   6.464
 6121POPC   D2A77176   8.189  22.199   6.764
 6121POPC   C3A77177   8.191  22.151   7.064
 6121POPC   C4A77178   8.164  22.207   7.364
 6121POPC   C1B77179   8.447  22.094   6.464
 6121POPC   C2B77180   8.410  22.051   6.764
 6121POPC   C3B77181   8.398  22.119   7.064
 6121POPC   C4B77182   8.440  22.052   7.364
 6122POPC   NC377183  36.883   1.948   5.564
 6122POPC   PO477184  36.918   2.013   5.864
 6122POPC   GL177185  36.895   1.959   6.164
 6122POPC   GL277186  36.746   1.904   6.164
 6122POPC   C1A77187  36.913   1.998   6.464
 6122POPC   D2A77188  36.911   2.036   6.764
 6122POPC   C3A77189  36.881   2.002   7.064
 6122POPC   C4A77190  36.859   1.995   7.364
 6122POPC   C1B77191  36.703   1.878   6.464
 6122POPC   C2B77192  36.637   1.907   6.764
 6122POPC   C3B77193  36.667   1.844   7.064
 6122POPC   C4B77194  36.654   1.886   7.364
 6123POPC   NC377195   8.970  37.645   5.564
 6123POPC   PO477196   8.934  37.693   5.864
 6123POPC   GL177197   9.012  37.684   6.164
 6123POPC   GL277198   8.996  37.851   6.164
 6123POPC   C1A77199   8.999  37.729   6.464
 6123POPC   D2A77200   9.013  37.657   6.764
 6123POPC   C3A77201   8.957  37.641   7.064
 6123POPC   C4A77202   9.016  37.677   7.364
 6123POPC   C1B77203   8.962  37.923   6.464
 6123POPC   C2B77204   8.960  37.897   6.764
 6123POPC   C3B77205   9.007  37.906   7.064
 6123POPC   C4B77206   8.966  37.931   7.364
 6124POPC   NC377207  19.075  13.610   5.564
 6124POPC   PO477208  19.067  13.638   5.864
 6124POPC   GL177209  19.024  13.625   6.164
 6124POPC   GL277210  19.181  13.526   6.164
 6124POPC   C1A77211  19.035  13.669   6.464
 6124POPC   D2A77212  19.080  13.579   6.764
 6124POPC   C3A77213  19.045  13.664   7.064
 6124POPC   C4A77214  19.047  13.593   7.364
 6124POPC   C1B77215  19.272  13.499   6.464
 6124POPC   C2B77216  19.277  13.444   6.764
 6124POPC   C3B77217  19.254  13.442   7.064
 6124POPC   C4B77218  19.258  13.469   7.364
 6125POPC   NC377219  20.641  23.751   5.564
 6125POPC   PO477220  20.621  23.677   5.864
 6125POPC   GL177221  20.600  23.695   6.164
 6125POPC   GL277222  20.562  23.840   6.164
 6125POPC   C1A77223  20.640  23.667   6.464
 6125POPC   D2A77224  20.586  23.723   6.764
 6125POPC   C3A77225  20.567  23.752   7.064
 6125POPC   C4A77226  20.587  23.736   7.364
 6125POPC   C1B77227  20.412  23.963   6.464
 6125POPC   C2B77228  20.468  23.922   6.764
 6125POPC   C3B77229  20.446  23.957   7.064
 6125POPC   C4B77230  20.483  23.928   7.364
 6126POPC   NC377231  25.996  23.737   5.564
 6126POPC   PO477232  26.026  23.681   5.864
 6126POPC   GL177233  26.041  23.743   6.164
 6126POPC   GL277234  25.896  23.777   6.164
 6126POPC   C1A77235  26.082  23.735   6.464
 6126POPC   D2A77236  26.027  23.764   6.764
 6126POPC   C3A77237  26.044  23.676   7.064
 6126POPC   C4A77238  26.051  23.710   7.364
 6126POPC   C1B77239  25.830  23.776   6.464
 6126POPC   C2B77240  25.774  23.844   6.764
 6126POPC   C3B77241  25.784  23.787   7.064
 6126POPC   C4B77242  25.827  23.850   7.364
 6127POPC   NC377243  20.577   5.908   5.564
 6127POPC   PO477244  20.629   5.846   5.864
 6127POPC   GL177245  20.615   5.850   6.164
 6127POPC   GL277246  20.591   5.958   6.164
 6127POPC   C1A77247  20.618   5.901   6.464
 6127POPC   D2A77248  20.566   5.847   6.764
 6127POPC   C3A77249  20.621   5.908   7.064
 6127POPC   C4A77250  20.654   5.830   7.364
 6127POPC   C1B77251  20.639   6.161   6.464
 6127POPC   C2B77252  20.615   6.103   6.764
 6127POPC   C3B77253  20.676   6.102   7.064
 6127POPC   C4B77254  20.632   6.105   7.364
 6128POPC   NC377255   2.808  24.523   5.564
 6128POPC   PO477256   2.733  24.510   5.864
 6128POPC   GL177257   2.746  24.526   6.164
 6128POPC   GL277258   2.658  24.505   6.164
 6128POPC   C1A77259   2.808  24.494   6.464
 6128POPC   D2A77260   2.720  24.530   6.764
 6128POPC   C3A77261   2.764  24.443   7.064
 6128POPC   C4A77262   2.792  24.445   7.364
 6128POPC   C1B77263   2.554  24.472   6.464
 6128POPC   C2B77264   2.505  24.476   6.764
 6128POPC   C3B77265   2.559  24.427   7.064
 6128POPC   C4B77266   2.565  24.464   7.364
 6129POPC   NC377267  38.439   2.794   5.564
 6129POPC   PO477268  38.426   2.724   5.864
 6129POPC   GL177269  38.405   2.771   6.164
 6129POPC   GL277270  38.298   2.734   6.164
 6129POPC   C1A77271  38.414   2.773   6.464
 6129POPC   D2A77272  38.429   2.804   6.764
 6129POPC   C3A77273  38.419   2.784   7.064
 6129POPC   C4A77274  38.443   2.736   7.364
 6129POPC   C1B77275  38.209   2.783   6.464
 6129POPC   C2B77276  38.212   2.800   6.764
 6129POPC   C3B77277  38.173   2.786   7.064
 6129POPC   C4B77278  38.174   2.732   7.364
 6130POPC   NC377279  35.332  43.880   5.564
 6130POPC   PO477280  35.397  43.848   5.864
 6130POPC   GL177281  35.350  43.910   6.164
 6130POPC   GL277282  35.465  43.842   6.164
 6130POPC   C1A77283  35.321  43.901   6.464
 6130POPC   D2A77284  35.357  43.931   6.764
 6130POPC   C3A77285  35.390  43.846   7.064
 6130POPC   C4A77286  35.317  43.898   7.364
 6130POPC   C1B77287  35.558  43.865   6.464
 6130POPC   C2B77288  35.633  43.802   6.764
 6130POPC   C3B77289  35.565  43.870   7.064
 6130POPC   C4B77290  35.597  43.814   7.364
 6131POPC   NC377291   6.680  41.599   5.564
 6131POPC   PO477292   6.669  41.582   5.864
 6131POPC   GL177293   6.687  41.530   6.164
 6131POPC   GL277294   6.645  41.692   6.164
 6131POPC   C1A77295   6.611  41.562   6.464
 6131POPC   D2A77296   6.648  41.514   6.764
 6131POPC   C3A77297   6.651  41.570   7.064
 6131POPC   C4A77298   6.636  41.595   7.364
 6131POPC   C1B77299   6.737  41.792   6.464
 6131POPC   C2B77300   6.712  41.797   6.764
 6131POPC   C3B77301   6.736  41.751   7.064
 6131POPC   C4B77302   6.724  41.785   7.364
 6132POPC   NC377303  30.703   8.237   5.564
 6132POPC   PO477304  30.649   8.215   5.864
 6132POPC   GL177305  30.724   8.156   6.164
 6132POPC   GL277306  30.772   8.329   6.164
 6132POPC   C1A77307  30.747   8.172   6.464
 6132POPC   D2A77308  30.652   8.220   6.764
 6132POPC   C3A77309  30.688   8.151   7.064
 6132POPC   C4A77310  30.664   8.209   7.364
 6132POPC   C1B77311  30.868   8.419   6.464
 6132POPC   C2B77312  30.884   8.417   6.764
 6132POPC   C3B77313  30.893   8.383   7.064
 6132POPC   C4B77314  30.877   8.384   7.364
 6133POPC   NC377315  36.901  29.154   5.564
 6133POPC   PO477316  36.862  29.141   5.864
 6133POPC   GL177317  36.950  29.194   6.164
 6133POPC   GL277318  36.806  29.070   6.164
 6133POPC   C1A77319  36.868  29.141   6.464
 6133POPC   D2A77320  36.909  29.129   6.764
 6133POPC   C3A77321  36.915  29.123   7.064
 6133POPC   C4A77322  36.936  29.175   7.364
 6133POPC   C1B77323  36.653  28.990   6.464
 6133POPC   C2B77324  36.722  28.988   6.764
 6133POPC   C3B77325  36.728  28.967   7.064
 6133POPC   C4B77326  36.695  28.993   7.364
 6134POPC   NC377327  36.160  29.106   5.564
 6134POPC   PO477328  36.156  29.189   5.864
 6134POPC   GL177329  36.168  29.154   6.164
 6134POPC   GL277330  35.968  29.063   6.164
 6134POPC   C1A77331  36.122  29.176   6.464
 6134POPC   D2A77332  36.084  29.174   6.764
 6134POPC   C3A77333  36.149  29.169   7.064
 6134POPC   C4A77334  36.110  29.167   7.364
 6134POPC   C1B77335  35.860  29.062   6.464
 6134POPC   C2B77336  35.929  29.043   6.764
 6134POPC   C3B77337  35.886  29.038   7.064
 6134POPC   C4B77338  35.879  29.014   7.364
 6135POPC   NC377339  26.056   4.283   5.564
 6135POPC   PO477340  26.048   4.316   5.864
 6135POPC   GL177341  26.015   4.291   6.164
 6135POPC   GL277342  25.913   4.451   6.164
 6135POPC   C1A77343  26.018   4.289   6.464
 6135POPC   D2A77344  26.010   4.316   6.764
 6135POPC   C3A77345  26.088   4.312   7.064
 6135POPC   C4A77346  26.063   4.284   7.364
 6135POPC   C1B77347  25.927   4.525   6.464
 6135POPC   C2B77348  25.924   4.487   6.764
 6135POPC   C3B77349  25.917   4.531   7.064
 6135POPC   C4B77350  25.889   4.533   7.364
 6136POPC   NC377351  29.953  42.324   5.564
 6136POPC   PO477352  29.893  42.286   5.864
 6136POPC   GL177353  29.917  42.299   6.164
 6136POPC   GL277354  29.942  42.232   6.164
 6136POPC   C1A77355  29.963  42.288   6.464
 6136POPC   D2A77356  29.918  42.300   6.764
 6136POPC   C3A77357  29.898  42.302   7.064
 6136POPC   C4A77358  29.898  42.330   7.364
 6136POPC   C1B77359  30.023  42.096   6.464
 6136POPC   C2B77360  30.105  42.176   6.764
 6136POPC   C3B77361  30.030  42.174   7.064
 6136POPC   C4B77362  30.033  42.134   7.364
 6137POPC   NC377363  34.614  19.826   5.564
 6137POPC   PO477364  34.544  19.789   5.864
 6137POPC   GL177365  34.607  19.786   6.164
 6137POPC   GL277366  34.625  19.924   6.164
 6137POPC   C1A77367  34.568  19.800   6.464
 6137POPC   D2A77368  34.615  19.794   6.764
 6137POPC   C3A77369  34.582  19.880   7.064
 6137POPC   C4A77370  34.534  19.854   7.364
 6137POPC   C1B77371  34.683  20.109   6.464
 6137POPC   C2B77372  34.600  20.039   6.764
 6137POPC   C3B77373  34.601  20.034   7.064
 6137POPC   C4B77374  34.595  20.087   7.364
 6138POPC   NC377375  10.511  11.279   5.564
 6138POPC   PO477376  10.538  11.251   5.864
 6138POPC   GL177377  10.515  11.279   6.164
 6138POPC   GL277378  10.488  11.152   6.164
 6138POPC   C1A77379  10.478  11.327   6.464
 6138POPC   D2A77380  10.566  11.273   6.764
 6138POPC   C3A77381  10.573  11.304   7.064
 6138POPC   C4A77382  10.490  11.268   7.364
 6138POPC   C1B77383  10.529  11.059   6.464
 6138POPC   C2B77384  10.438  11.063   6.764
 6138POPC   C3B77385  10.453  11.015   7.064
 6138POPC   C4B77386  10.485  11.037   7.364
 6139POPC   NC377387  15.921  28.396   5.564
 6139POPC   PO477388  15.945  28.340   5.864
 6139POPC   GL177389  15.939  28.351   6.164
 6139POPC   GL277390  15.970  28.526   6.164
 6139POPC   C1A77391  15.923  28.414   6.464
 6139POPC   D2A77392  15.965  28.341   6.764
 6139POPC   C3A77393  15.958  28.374   7.064
 6139POPC   C4A77394  15.985  28.395   7.364
 6139POPC   C1B77395  15.964  28.646   6.464
 6139POPC   C2B77396  15.935  28.645   6.764
 6139POPC   C3B77397  16.022  28.650   7.064
 6139POPC   C4B77398  15.987  28.569   7.364
 6140POPC   NC377399  29.954  36.079   5.564
 6140POPC   PO477400  29.937  36.150   5.864
 6140POPC   GL177401  29.872  36.084   6.164
 6140POPC   GL277402  29.931  36.259   6.164
 6140POPC   C1A77403  29.920  36.124   6.464
 6140POPC   D2A77404  29.908  36.107   6.764
 6140POPC   C3A77405  29.947  36.093   7.064
 6140POPC   C4A77406  29.879  36.140   7.364
 6140POPC   C1B77407  29.924  36.408   6.464
 6140POPC   C2B77408  29.966  36.375   6.764
 6140POPC   C3B77409  29.921  36.396   7.064
 6140POPC   C4B77410  29.933  36.383   7.364
 6141POPC   NC377411  33.025  19.823   5.564
 6141POPC   PO477412  32.996  19.788   5.864
 6141POPC   GL177413  33.024  19.877   6.164
 6141POPC   GL277414  33.174  19.821   6.164
 6141POPC   C1A77415  33.064  19.869   6.464
 6141POPC   D2A77416  33.014  19.809   6.764
 6141POPC   C3A77417  33.035  19.856   7.064
 6141POPC   C4A77418  33.023  19.815   7.364
 6141POPC   C1B77419  33.236  19.894   6.464
 6141POPC   C2B77420  33.242  19.839   6.764
 6141POPC   C3B77421  33.228  19.847   7.064
 6141POPC   C4B77422  33.231  19.821   7.364
 6142POPC   NC377423   5.896   8.960   5.564
 6142POPC   PO477424   5.852   8.970   5.864
 6142POPC   GL177425   5.882   8.991   6.164
 6142POPC   GL277426   5.820   9.131   6.164
 6142POPC   C1A77427   5.912   8.932   6.464
 6142POPC   D2A77428   5.905   8.929   6.764
 6142POPC   C3A77429   5.912   8.999   7.064
 6142POPC   C4A77430   5.887   8.992   7.364
 6142POPC   C1B77431   5.710   9.237   6.464
 6142POPC   C2B77432   5.739   9.185   6.764
 6142POPC   C3B77433   5.785   9.223   7.064
 6142POPC   C4B77434   5.792   9.156   7.364
 6143POPC   NC377435  29.969  16.690   5.564
 6143POPC   PO477436  29.959  16.694   5.864
 6143POPC   GL177437  29.969  16.722   6.164
 6143POPC   GL277438  29.956  16.582   6.164
 6143POPC   C1A77439  29.927  16.758   6.464
 6143POPC   D2A77440  29.888  16.765   6.764
 6143POPC   C3A77441  29.896  16.764   7.064
 6143POPC   C4A77442  29.926  16.766   7.364
 6143POPC   C1B77443  29.990  16.476   6.464
 6143POPC   C2B77444  29.920  16.525   6.764
 6143POPC   C3B77445  29.972  16.481   7.064
 6143POPC   C4B77446  29.960  16.462   7.364
 6144POPC   NC377447   1.229  34.574   5.564
 6144POPC   PO477448   1.242  34.540   5.864
 6144POPC   GL177449   1.167  34.582   6.164
 6144POPC   GL277450   1.195  34.705   6.164
 6144POPC   C1A77451   1.170  34.589   6.464
 6144POPC   D2A77452   1.224  34.620   6.764
 6144POPC   C3A77453   1.168  34.570   7.064
 6144POPC   C4A77454   1.246  34.598   7.364
 6144POPC   C1B77455   1.105  34.844   6.464
 6144POPC   C2B77456   1.175  34.763   6.764
 6144POPC   C3B77457   1.120  34.792   7.064
 6144POPC   C4B77458   1.082  34.812   7.364
 6145POPC   NC377459   0.456  38.471   5.564
 6145POPC   PO477460   0.404  38.431   5.864
 6145POPC   GL177461   0.459  38.457   6.164
 6145POPC   GL277462   0.564  38.415   6.164
 6145POPC   C1A77463   0.401  38.472   6.464
 6145POPC   D2A77464   0.393  38.481   6.764
 6145POPC   C3A77465   0.461  38.438   7.064
 6145POPC   C4A77466   0.392  38.423   7.364
 6145POPC   C1B77467   0.683  38.405   6.464
 6145POPC   C2B77468   0.669  38.365   6.764
 6145POPC   C3B77469   0.675  38.375   7.064
 6145POPC   C4B77470   0.703  38.437   7.364
 6146POPC   NC377471  44.667  11.276   5.564
 6146POPC   PO477472  44.641  11.269   5.864
 6146POPC   GL177473  44.631  11.295   6.164
 6146POPC   GL277474  44.692  11.225   6.164
 6146POPC   C1A77475  44.707  11.335   6.464
 6146POPC   D2A77476  44.666  11.322   6.764
 6146POPC   C3A77477  44.648  11.270   7.064
 6146POPC   C4A77478  44.645  11.324   7.364
 6146POPC   C1B77479  44.706  11.102   6.464
 6146POPC   C2B77480  44.667  11.021   6.764
 6146POPC   C3B77481  44.699  11.009   7.064
 6146POPC   C4B77482  44.662  11.050   7.364
 6147POPC   NC377483  15.957  24.441   5.564
 6147POPC   PO477484  15.976  24.497   5.864
 6147POPC   GL177485  15.939  24.472   6.164
 6147POPC   GL277486  16.061  24.446   6.164
 6147POPC   C1A77487  15.926  24.507   6.464
 6147POPC   D2A77488  15.988  24.461   6.764
 6147POPC   C3A77489  15.986  24.513   7.064
 6147POPC   C4A77490  15.949  24.453   7.364
 6147POPC   C1B77491  16.235  24.402   6.464
 6147POPC   C2B77492  16.161  24.384   6.764
 6147POPC   C3B77493  16.152  24.415   7.064
 6147POPC   C4B77494  16.184  24.467   7.364
 6148POPC   NC377495  33.752  39.205   5.564
 6148POPC   PO477496  33.773  39.274   5.864
 6148POPC   GL177497  33.754  39.225   6.164
 6148POPC   GL277498  33.761  39.126   6.164
 6148POPC   C1A77499  33.780  39.274   6.464
 6148POPC   D2A77500  33.817  39.224   6.764
 6148POPC   C3A77501  33.787  39.218   7.064
 6148POPC   C4A77502  33.820  39.200   7.364
 6148POPC   C1B77503  33.750  38.958   6.464
 6148POPC   C2B77504  33.681  39.039   6.764
 6148POPC   C3B77505  33.679  38.955   7.064
 6148POPC   C4B77506  33.670  39.027   7.364
 6149POPC   NC377507  29.891  34.548   5.564
 6149POPC   PO477508  29.887  34.571   5.864
 6149POPC   GL177509  29.885  34.549   6.164
 6149POPC   GL277510  29.845  34.483   6.164
 6149POPC   C1A77511  29.907  34.544   6.464
 6149POPC   D2A77512  29.911  34.540   6.764
 6149POPC   C3A77513  29.876  34.540   7.064
 6149POPC   C4A77514  29.887  34.600   7.364
 6149POPC   C1B77515  29.879  34.299   6.464
 6149POPC   C2B77516  29.890  34.338   6.764
 6149POPC   C3B77517  29.874  34.287   7.064
 6149POPC   C4B77518  29.840  34.367   7.364
 6150POPC   NC377519  19.810  12.122   5.564
 6150POPC   PO477520  19.825  12.107   5.864
 6150POPC   GL177521  19.812  12.034   6.164
 6150POPC   GL277522  19.766  12.031   6.164
 6150POPC   C1A77523  19.863  12.082   6.464
 6150POPC   D2A77524  19.879  12.049   6.764
 6150POPC   C3A77525  19.862  12.096   7.064
 6150POPC   C4A77526  19.871  12.061   7.364
 6150POPC   C1B77527  19.663  11.903   6.464
 6150POPC   C2B77528  19.645  11.955   6.764
 6150POPC   C3B77529  19.623  11.911   7.064
 6150POPC   C4B77530  19.611  11.916   7.364
 6151POPC   NC377531   7.437  44.631   5.564
 6151POPC   PO477532   7.439  44.614   5.864
 6151POPC   GL177533   7.416  44.616   6.164
 6151POPC   GL277534   7.558  44.681   6.164
 6151POPC   C1A77535   7.448  44.641   6.464
 6151POPC   D2A77536   7.395  44.630   6.764
 6151POPC   C3A77537   7.378  44.650   7.064
 6151POPC   C4A77538   7.389  44.712   7.364
 6151POPC   C1B77539   7.696  44.725   6.464
 6151POPC   C2B77540   7.662  44.757   6.764
 6151POPC   C3B77541   7.646  44.749   7.064
 6151POPC   C4B77542   7.651  44.753   7.364
 6152POPC   NC377543  25.261  44.688   5.564
 6152POPC   PO477544  25.226  44.615   5.864
 6152POPC   GL177545  25.226  44.671   6.164
 6152POPC   GL277546  25.340  44.712   6.164
 6152POPC   C1A77547  25.286  44.625   6.464
 6152POPC   D2A77548  25.298  44.683   6.764
 6152POPC   C3A77549  25.300  44.630   7.064
 6152POPC   C4A77550  25.241  44.615   7.364
 6152POPC   C1B77551  25.462  44.785   6.464
 6152POPC   C2B77552  25.471  44.852   6.764
 6152POPC   C3B77553  25.428  44.868   7.064
 6152POPC   C4B77554  25.440  44.877   7.364
 6153POPC   NC377555  32.240   9.789   5.564
 6153POPC   PO477556  32.230   9.797   5.864
 6153POPC   GL177557  32.227   9.704   6.164
 6153POPC   GL277558  32.346   9.749   6.164
 6153POPC   C1A77559  32.243   9.766   6.464
 6153POPC   D2A77560  32.222   9.767   6.764
 6153POPC   C3A77561  32.234   9.760   7.064
 6153POPC   C4A77562  32.269   9.782   7.364
 6153POPC   C1B77563  32.461   9.699   6.464
 6153POPC   C2B77564  32.455   9.668   6.764
 6153POPC   C3B77565  32.519   9.647   7.064
 6153POPC   C4B77566  32.454   9.682   7.364
 6154POPC   NC377567   8.157  18.302   5.564
 6154POPC   PO477568   8.180  18.244   5.864
 6154POPC   GL177569   8.176  18.313   6.164
 6154POPC   GL277570   8.293  18.181   6.164
 6154POPC   C1A77571   8.188  18.272   6.464
 6154POPC   D2A77572   8.238  18.284   6.764
 6154POPC   C3A77573   8.224  18.271   7.064
 6154POPC   C4A77574   8.182  18.308   7.364
 6154POPC   C1B77575   8.298  18.049   6.464
 6154POPC   C2B77576   8.282  18.079   6.764
 6154POPC   C3B77577   8.302  18.058   7.064
 6154POPC   C4B77578   8.309  18.039   7.364
 6155POPC   NC377579  43.136  27.598   5.564
 6155POPC   PO477580  43.068  27.607   5.864
 6155POPC   GL177581  43.115  27.597   6.164
 6155POPC   GL277582  43.110  27.734   6.164
 6155POPC   C1A77583  43.148  27.599   6.464
 6155POPC   D2A77584  43.094  27.571   6.764
 6155POPC   C3A77585  43.091  27.600   7.064
 6155POPC   C4A77586  43.129  27.604   7.364
 6155POPC   C1B77587  43.155  27.837   6.464
 6155POPC   C2B77588  43.214  27.850   6.764
 6155POPC   C3B77589  43.200  27.829   7.064
 6155POPC   C4B77590  43.198  27.824   7.364
 6156POPC   NC377591   8.177   9.703   5.564
 6156POPC   PO477592   8.149   9.772   5.864
 6156POPC   GL177593   8.205   9.731   6.164
 6156POPC   GL277594   8.281   9.875   6.164
 6156POPC   C1A77595   8.210   9.729   6.464
 6156POPC   D2A77596   8.204   9.716   6.764
 6156POPC   C3A77597   8.242   9.771   7.064
 6156POPC   C4A77598   8.187   9.699   7.364
 6156POPC   C1B77599   8.396   9.922   6.464
 6156POPC   C2B77600   8.420   9.957   6.764
 6156POPC   C3B77601   8.360   9.906   7.064
 6156POPC   C4B77602   8.402   9.946   7.364
 6157POPC   NC377603  33.017  36.102   5.564
 6157POPC   PO477604  33.043  36.149   5.864
 6157POPC   GL177605  33.037  36.095   6.164
 6157POPC   GL277606  32.902  36.181   6.164
 6157POPC   C1A77607  33.020  36.123   6.464
 6157POPC   D2A77608  33.026  36.169   6.764
 6157POPC   C3A77609  33.003  36.138   7.064
 6157POPC   C4A77610  33.064  36.149   7.364
 6157POPC   C1B77611  32.763  36.204   6.464
 6157POPC   C2B77612  32.747  36.220   6.764
 6157POPC   C3B77613  32.762  36.186   7.064
 6157POPC   C4B77614  32.753  36.162   7.364
 6158POPC   NC377615  44.677  12.884   5.564
 6158POPC   PO477616  44.622  12.851   5.864
 6158POPC   GL177617  44.653  12.844   6.164
 6158POPC   GL277618  44.780  12.835   6.164
 6158POPC   C1A77619  44.683  12.823   6.464
 6158POPC   D2A77620  44.673  12.839   6.764
 6158POPC   C3A77621  44.636  12.885   7.064
 6158POPC   C4A77622  44.673  12.876   7.364
 6158POPC   C1B77623  44.868  12.819   6.464
 6158POPC   C2B77624  44.876  12.885   6.764
 6158POPC   C3B77625  44.940  12.868   7.064
 6158POPC   C4B77626  44.931  12.833   7.364
 6159POPC   NC377627  18.248   5.108   5.564
 6159POPC   PO477628  18.318   5.111   5.864
 6159POPC   GL177629  18.328   5.135   6.164
 6159POPC   GL277630  18.374   5.103   6.164
 6159POPC   C1A77631  18.262   5.117   6.464
 6159POPC   D2A77632  18.282   5.114   6.764
 6159POPC   C3A77633  18.283   5.111   7.064
 6159POPC   C4A77634  18.244   5.058   7.364
 6159POPC   C1B77635  18.499   5.181   6.464
 6159POPC   C2B77636  18.465   5.214   6.764
 6159POPC   C3B77637  18.542   5.196   7.064
 6159POPC   C4B77638  18.534   5.158   7.364
 6160POPC   NC377639   9.798  34.613   5.564
 6160POPC   PO477640   9.765  34.544   5.864
 6160POPC   GL177641   9.783  34.557   6.164
 6160POPC   GL277642   9.611  34.601   6.164
 6160POPC   C1A77643   9.719  34.596   6.464
 6160POPC   D2A77644   9.788  34.532   6.764
 6160POPC   C3A77645   9.751  34.526   7.064
 6160POPC   C4A77646   9.795  34.573   7.364
 6160POPC   C1B77647   9.502  34.598   6.464
 6160POPC   C2B77648   9.486  34.611   6.764
 6160POPC   C3B77649   9.457  34.580   7.064
 6160POPC   C4B77650   9.532  34.541   7.364
 6161POPC   NC377651  30.673   2.001   5.564
 6161POPC   PO477652  30.680   1.971   5.864
 6161POPC   GL177653  30.662   2.004   6.164
 6161POPC   GL277654  30.590   2.037   6.164
 6161POPC   C1A77655  30.708   2.031   6.464
 6161POPC   D2A77656  30.723   2.001   6.764
 6161POPC   C3A77657  30.698   1.978   7.064
 6161POPC   C4A77658  30.664   1.950   7.364
 6161POPC   C1B77659  30.402   2.027   6.464
 6161POPC   C2B77660  30.497   2.008   6.764
 6161POPC   C3B77661  30.418   2.074   7.064
 6161POPC   C4B77662  30.419   2.016   7.364
 6162POPC   NC377663  28.358  26.853   5.564
 6162POPC   PO477664  28.332  26.799   5.864
 6162POPC   GL177665  28.375  26.840   6.164
 6162POPC   GL277666  28.469  26.891   6.164
 6162POPC   C1A77667  28.372  26.850   6.464
 6162POPC   D2A77668  28.377  26.812   6.764
 6162POPC   C3A77669  28.385  26.777   7.064
 6162POPC   C4A77670  28.419  26.807   7.364
 6162POPC   C1B77671  28.600  27.007   6.464
 6162POPC   C2B77672  28.593  26.960   6.764
 6162POPC   C3B77673  28.532  27.025   7.064
 6162POPC   C4B77674  28.520  26.928   7.364
 6163POPC   NC377675  43.889   0.480   5.564
 6163POPC   PO477676  43.874   0.433   5.864
 6163POPC   GL177677  43.848   0.475   6.164
 6163POPC   GL277678  43.990   0.534   6.164
 6163POPC   C1A77679  43.902   0.446   6.464
 6163POPC   D2A77680  43.895   0.419   6.764
 6163POPC   C3A77681  43.923   0.403   7.064
 6163POPC   C4A77682  43.861   0.440   7.364
 6163POPC   C1B77683  44.108   0.642   6.464
 6163POPC   C2B77684  44.051   0.574   6.764
 6163POPC   C3B77685  44.038   0.564   7.064
 6163POPC   C4B77686  44.090   0.642   7.364
 6164POPC   NC377687   6.648  35.308   5.564
 6164POPC   PO477688   6.598  35.320   5.864
 6164POPC   GL177689   6.645  35.364   6.164
 6164POPC   GL277690   6.591  35.504   6.164
 6164POPC   C1A77691   6.655  35.309   6.464
 6164POPC   D2A77692   6.668  35.372   6.764
 6164POPC   C3A77693   6.646  35.348   7.064
 6164POPC   C4A77694   6.624  35.368   7.364
 6164POPC   C1B77695   6.516  35.546   6.464
 6164POPC   C2B77696   6.505  35.554   6.764
 6164POPC   C3B77697   6.483  35.534   7.064
 6164POPC   C4B77698   6.515  35.614   7.364
 6165POPC   NC377699  13.623  18.276   5.564
 6165POPC   PO477700  13.630  18.242   5.864
 6165POPC   GL177701  13.643  18.308   6.164
 6165POPC   GL277702  13.644  18.182   6.164
 6165POPC   C1A77703  13.649  18.289   6.464
 6165POPC   D2A77704  13.672  18.237   6.764
 6165POPC   C3A77705  13.672  18.285   7.064
 6165POPC   C4A77706  13.668  18.318   7.364
 6165POPC   C1B77707  13.757  18.018   6.464
 6165POPC   C2B77708  13.704  18.033   6.764
 6165POPC   C3B77709  13.727  18.086   7.064
 6165POPC   C4B77710  13.764  18.052   7.364
 6166POPC   NC377711   2.018  36.106   5.564
 6166POPC   PO477712   1.972  36.174   5.864
 6166POPC   GL177713   2.027  36.087   6.164
 6166POPC   GL277714   2.131  36.052   6.164
 6166POPC   C1A77715   1.985  36.091   6.464
 6166POPC   D2A77716   1.941  36.126   6.764
 6166POPC   C3A77717   1.995  36.166   7.064
 6166POPC   C4A77718   2.011  36.153   7.364
 6166POPC   C1B77719   2.235  36.025   6.464
 6166POPC   C2B77720   2.203  35.995   6.764
 6166POPC   C3B77721   2.204  36.031   7.064
 6166POPC   C4B77722   2.175  36.034   7.364
 6167POPC   NC377723  22.163   5.111   5.564
 6167POPC   PO477724  22.131   5.089   5.864
 6167POPC   GL177725  22.132   5.115   6.164
 6167POPC   GL277726  22.224   5.027   6.164
 6167POPC   C1A77727  22.159   5.091   6.464
 6167POPC   D2A77728  22.126   5.059   6.764
 6167POPC   C3A77729  22.155   5.123   7.064
 6167POPC   C4A77730  22.112   5.098   7.364
 6167POPC   C1B77731  22.342   4.928   6.464
 6167POPC   C2B77732  22.320   4.949   6.764
 6167POPC   C3B77733  22.371   4.914   7.064
 6167POPC   C4B77734  22.282   4.893   7.364
 6168POPC   NC377735   4.311  30.697   5.564
 6168POPC   PO477736   4.363  30.739   5.864
 6168POPC   GL177737   4.280  30.742   6.164
 6168POPC   GL277738   4.274  30.537   6.164
 6168POPC   C1A77739   4.304  30.679   6.464
 6168POPC   D2A77740   4.290  30.731   6.764
 6168POPC   C3A77741   4.276  30.739   7.064
 6168POPC   C4A77742   4.293  30.731   7.364
 6168POPC   C1B77743   4.287  30.492   6.464
 6168POPC   C2B77744   4.306  30.422   6.764
 6168POPC   C3B77745   4.316  30.455   7.064
 6168POPC   C4B77746   4.361  30.406   7.364
 6169POPC   NC377747  40.049  33.810   5.564
 6169POPC   PO477748  40.023  33.829   5.864
 6169POPC   GL177749  39.979  33.820   6.164
 6169POPC   GL277750  39.887  33.710   6.164
 6169POPC   C1A77751  40.014  33.792   6.464
 6169POPC   D2A77752  40.018  33.765   6.764
 6169POPC   C3A77753  40.043  33.751   7.064
 6169POPC   C4A77754  40.050  33.782   7.364
 6169POPC   C1B77755  39.777  33.667   6.464
 6169POPC   C2B77756  39.805  33.622   6.764
 6169POPC   C3B77757  39.811  33.634   7.064
 6169POPC   C4B77758  39.788  33.624   7.364
 6170POPC   NC377759  21.337  19.033   5.564
 6170POPC   PO477760  21.369  19.050   5.864
 6170POPC   GL177761  21.429  19.066   6.164
 6170POPC   GL277762  21.366  19.162   6.164
 6170POPC   C1A77763  21.415  19.027   6.464
 6170POPC   D2A77764  21.379  19.064   6.764
 6170POPC   C3A77765  21.409  19.019   7.064
 6170POPC   C4A77766  21.376  19.012   7.364
 6170POPC   C1B77767  21.319  19.350   6.464
 6170POPC   C2B77768  21.382  19.295   6.764
 6170POPC   C3B77769  21.371  19.297   7.064
 6170POPC   C4B77770  21.334  19.303   7.364
 6171POPC   NC377771   4.330   0.419   5.564
 6171POPC   PO477772   4.300   0.410   5.864
 6171POPC   GL177773   4.331   0.467   6.164
 6171POPC   GL277774   4.416   0.552   6.164
 6171POPC   C1A77775   4.306   0.442   6.464
 6171POPC   D2A77776   4.354   0.462   6.764
 6171POPC   C3A77777   4.345   0.465   7.064
 6171POPC   C4A77778   4.275   0.405   7.364
 6171POPC   C1B77779   4.525   0.573   6.464
 6171POPC   C2B77780   4.538   0.605   6.764
 6171POPC   C3B77781   4.542   0.598   7.064
 6171POPC   C4B77782   4.532   0.591   7.364
 6172POPC   NC377783  29.137  18.254   5.564
 6172POPC   PO477784  29.158  18.304   5.864
 6172POPC   GL177785  29.131  18.315   6.164
 6172POPC   GL277786  29.291  18.376   6.164
 6172POPC   C1A77787  29.172  18.264   6.464
 6172POPC   D2A77788  29.111  18.291   6.764
 6172POPC   C3A77789  29.123  18.264   7.064
 6172POPC   C4A77790  29.173  18.304   7.364
 6172POPC   C1B77791  29.384  18.419   6.464
 6172POPC   C2B77792  29.402  18.360   6.764
 6172POPC   C3B77793  29.389  18.348   7.064
 6172POPC   C4B77794  29.320  18.439   7.364
 6173POPC   NC377795  39.246   7.373   5.564
 6173POPC   PO477796  39.183   7.450   5.864
 6173POPC   GL177797  39.248   7.420   6.164
 6173POPC   GL277798  39.167   7.564   6.164
 6173POPC   C1A77799  39.249   7.378   6.464
 6173POPC   D2A77800  39.187   7.394   6.764
 6173POPC   C3A77801  39.267   7.431   7.064
 6173POPC   C4A77802  39.280   7.423   7.364
 6173POPC   C1B77803  39.158   7.598   6.464
 6173POPC   C2B77804  39.158   7.669   6.764
 6173POPC   C3B77805  39.128   7.601   7.064
 6173POPC   C4B77806  39.151   7.638   7.364
 6174POPC   NC377807  36.157   2.734   5.564
 6174POPC   PO477808  36.088   2.775   5.864
 6174POPC   GL177809  36.107   2.739   6.164
 6174POPC   GL277810  36.234   2.758   6.164
 6174POPC   C1A77811  36.114   2.806   6.464
 6174POPC   D2A77812  36.147   2.769   6.764
 6174POPC   C3A77813  36.105   2.744   7.064
 6174POPC   C4A77814  36.159   2.766   7.364
 6174POPC   C1B77815  36.376   2.746   6.464
 6174POPC   C2B77816  36.371   2.753   6.764
 6174POPC   C3B77817  36.403   2.783   7.064
 6174POPC   C4B77818  36.391   2.732   7.364
 6175POPC   NC377819  24.501  25.240   5.564
 6175POPC   PO477820  24.521  25.287   5.864
 6175POPC   GL177821  24.530  25.284   6.164
 6175POPC   GL277822  24.643  25.339   6.164
 6175POPC   C1A77823  24.466  25.221   6.464
 6175POPC   D2A77824  24.518  25.256   6.764
 6175POPC   C3A77825  24.513  25.290   7.064
 6175POPC   C4A77826  24.449  25.283   7.364
 6175POPC   C1B77827  24.698  25.370   6.464
 6175POPC   C2B77828  24.768  25.356   6.764
 6175POPC   C3B77829  24.719  25.333   7.064
 6175POPC   C4B77830  24.740  25.388   7.364
 6176POPC   NC377831  19.088  17.466   5.564
 6176POPC   PO477832  19.101  17.467   5.864
 6176POPC   GL177833  19.028  17.550   6.164
 6176POPC   GL277834  19.149  17.624   6.164
 6176POPC   C1A77835  19.034  17.469   6.464
 6176POPC   D2A77836  19.107  17.501   6.764
 6176POPC   C3A77837  19.055  17.522   7.064
 6176POPC   C4A77838  19.103  17.546   7.364
 6176POPC   C1B77839  19.214  17.686   6.464
 6176POPC   C2B77840  19.233  17.678   6.764
 6176POPC   C3B77841  19.147  17.703   7.064
 6176POPC   C4B77842  19.150  17.719   7.364
 6177POPC   NC377843  40.020  15.202   5.564
 6177POPC   PO477844  39.987  15.193   5.864
 6177POPC   GL177845  40.004  15.187   6.164
 6177POPC   GL277846  39.954  15.022   6.164
 6177POPC   C1A77847  39.958  15.175   6.464
 6177POPC   D2A77848  40.049  15.139   6.764
 6177POPC   C3A77849  39.972  15.148   7.064
 6177POPC   C4A77850  39.977  15.201   7.364
 6177POPC   C1B77851  39.980  14.904   6.464
 6177POPC   C2B77852  40.029  14.976   6.764
 6177POPC   C3B77853  39.933  14.907   7.064
 6177POPC   C4B77854  39.989  14.943   7.364
 6178POPC   NC377855  34.535   1.217   5.564
 6178POPC   PO477856  34.560   1.213   5.864
 6178POPC   GL177857  34.577   1.230   6.164
 6178POPC   GL277858  34.613   1.092   6.164
 6178POPC   C1A77859  34.558   1.169   6.464
 6178POPC   D2A77860  34.576   1.213   6.764
 6178POPC   C3A77861  34.604   1.256   7.064
 6178POPC   C4A77862  34.555   1.196   7.364
 6178POPC   C1B77863  34.651   0.994   6.464
 6178POPC   C2B77864  34.654   0.945   6.764
 6178POPC   C3B77865  34.623   1.015   7.064
 6178POPC   C4B77866  34.590   0.926   7.364
 6179POPC   NC377867  19.012  30.713   5.564
 6179POPC   PO477868  19.062  30.665   5.864
 6179POPC   GL177869  19.035  30.691   6.164
 6179POPC   GL277870  19.155  30.577   6.164
 6179POPC   C1A77871  19.035  30.728   6.464
 6179POPC   D2A77872  19.069  30.660   6.764
 6179POPC   C3A77873  19.066  30.710   7.064
 6179POPC   C4A77874  19.088  30.694   7.364
 6179POPC   C1B77875  19.283  30.528   6.464
 6179POPC   C2B77876  19.295  30.539   6.764
 6179POPC   C3B77877  19.231  30.516   7.064
 6179POPC   C4B77878  19.265  30.582   7.364
 6180POPC   NC377879  29.883  26.852   5.564
 6180POPC   PO477880  29.910  26.810   5.864
 6180POPC   GL177881  29.930  26.794   6.164
 6180POPC   GL277882  29.970  26.947   6.164
 6180POPC   C1A77883  29.949  26.788   6.464
 6180POPC   D2A77884  29.885  26.832   6.764
 6180POPC   C3A77885  29.935  26.844   7.064
 6180POPC   C4A77886  29.939  26.866   7.364
 6180POPC   C1B77887  29.941  27.030   6.464
 6180POPC   C2B77888  29.971  27.084   6.764
 6180POPC   C3B77889  29.997  27.077   7.064
 6180POPC   C4B77890  29.944  27.088   7.364
 6181POPC   NC377891  29.178  36.173   5.564
 6181POPC   PO477892  29.128  36.159   5.864
 6181POPC   GL177893  29.134  36.121   6.164
 6181POPC   GL277894  29.282  36.131   6.164
 6181POPC   C1A77895  29.134  36.173   6.464
 6181POPC   D2A77896  29.184  36.176   6.764
 6181POPC   C3A77897  29.178  36.175   7.064
 6181POPC   C4A77898  29.121  36.159   7.364
 6181POPC   C1B77899  29.418  36.235   6.464
 6181POPC   C2B77900  29.393  36.213   6.764
 6181POPC   C3B77901  29.355  36.234   7.064
 6181POPC   C4B77902  29.377  36.214   7.364
 6182POPC   NC377903   8.240   2.025   5.564
 6182POPC   PO477904   8.206   2.013   5.864
 6182POPC   GL177905   8.183   2.005   6.164
 6182POPC   GL277906   8.210   1.885   6.164
 6182POPC   C1A77907   8.201   1.969   6.464
 6182POPC   D2A77908   8.236   2.017   6.764
 6182POPC   C3A77909   8.167   1.990   7.064
 6182POPC   C4A77910   8.216   2.039   7.364
 6182POPC   C1B77911   8.145   1.703   6.464
 6182POPC   C2B77912   8.101   1.732   6.764
 6182POPC   C3B77913   8.154   1.740   7.064
 6182POPC   C4B77914   8.131   1.743   7.364
 6183POPC   NC377915  43.125   1.215   5.564
 6183POPC   PO477916  43.125   1.188   5.864
 6183POPC   GL177917  43.087   1.219   6.164
 6183POPC   GL277918  42.979   1.222   6.164
 6183POPC   C1A77919  43.082   1.198   6.464
 6183POPC   D2A77920  43.155   1.237   6.764
 6183POPC   C3A77921  43.099   1.205   7.064
 6183POPC   C4A77922  43.074   1.174   7.364
 6183POPC   C1B77923  42.907   1.203   6.464
 6183POPC   C2B77924  42.883   1.245   6.764
 6183POPC   C3B77925  42.866   1.235   7.064
 6183POPC   C4B77926  42.903   1.226   7.364
 6184POPC   NC377927  14.395  10.537   5.564
 6184POPC   PO477928  14.367  10.483   5.864
 6184POPC   GL177929  14.431  10.524   6.164
 6184POPC   GL277930  14.319  10.513   6.164
 6184POPC   C1A77931  14.444  10.563   6.464
 6184POPC   D2A77932  14.394  10.482   6.764
 6184POPC   C3A77933  14.407  10.499   7.064
 6184POPC   C4A77934  14.431  10.507   7.364
 6184POPC   C1B77935  14.192  10.537   6.464
 6184POPC   C2B77936  14.162  10.500   6.764
 6184POPC   C3B77937  14.187  10.512   7.064
 6184POPC   C4B77938  14.128  10.498   7.364
 6185POPC   NC377939   8.935   2.748   5.564
 6185POPC   PO477940   8.976   2.794   5.864
 6185POPC   GL177941   8.997   2.735   6.164
 6185POPC   GL277942   8.871   2.752   6.164
 6185POPC   C1A77943   9.005   2.758   6.464
 6185POPC   D2A77944   9.018   2.793   6.764
 6185POPC   C3A77945   8.944   2.764   7.064
 6185POPC   C4A77946   9.001   2.741   7.364
 6185POPC   C1B77947   8.754   2.791   6.464
 6185POPC   C2B77948   8.681   2.803   6.764
 6185POPC   C3B77949   8.730   2.790   7.064
 6185POPC   C4B77950   8.712   2.748   7.364
 6186POPC   NC377951  20.598  31.443   5.564
 6186POPC   PO477952  20.658  31.437   5.864
 6186POPC   GL177953  20.647  31.487   6.164
 6186POPC   GL277954  20.504  31.328   6.164
 6186POPC   C1A77955  20.577  31.424   6.464
 6186POPC   D2A77956  20.627  31.464   6.764
 6186POPC   C3A77957  20.643  31.485   7.064
 6186POPC   C4A77958  20.593  31.454   7.364
 6186POPC   C1B77959  20.433  31.277   6.464
 6186POPC   C2B77960  20.486  31.245   6.764
 6186POPC   C3B77961  20.510  31.245   7.064
 6186POPC   C4B77962  20.438  31.296   7.364
 6187POPC   NC377963  29.104  15.934   5.564
 6187POPC   PO477964  29.113  15.984   5.864
 6187POPC   GL177965  29.163  15.937   6.164
 6187POPC   GL277966  29.042  16.003   6.164
 6187POPC   C1A77967  29.104  15.941   6.464
 6187POPC   D2A77968  29.131  15.996   6.764
 6187POPC   C3A77969  29.134  15.989   7.064
 6187POPC   C4A77970  29.096  15.934   7.364
 6187POPC   C1B77971  28.859  15.948   6.464
 6187POPC   C2B77972  28.888  15.998   6.764
 6187POPC   C3B77973  28.858  16.017   7.064
 6187POPC   C4B77974  28.852  16.025   7.364
 6188POPC   NC377975  26.063   1.969   5.564
 6188POPC   PO477976  26.057   1.964   5.864
 6188POPC   GL177977  26.035   1.998   6.164
 6188POPC   GL277978  25.942   1.904   6.164
 6188POPC   C1A77979  26.002   1.976   6.464
 6188POPC   D2A77980  26.044   1.957   6.764
 6188POPC   C3A77981  26.013   1.970   7.064
 6188POPC   C4A77982  25.992   1.959   7.364
 6188POPC   C1B77983  25.877   1.789   6.464
 6188POPC   C2B77984  25.851   1.852   6.764
 6188POPC   C3B77985  25.815   1.769   7.064
 6188POPC   C4B77986  25.848   1.858   7.364
 6189POPC   NC377987   8.989  43.121   5.564
 6189POPC   PO477988   9.022  43.148   5.864
 6189POPC   GL177989   8.953  43.137   6.164
 6189POPC   GL277990   9.129  43.096   6.164
 6189POPC   C1A77991   8.946  43.151   6.464
 6189POPC   D2A77992   8.955  43.101   6.764
 6189POPC   C3A77993   9.022  43.093   7.064
 6189POPC   C4A77994   8.979  43.085   7.364
 6189POPC   C1B77995   9.175  43.041   6.464
 6189POPC   C2B77996   9.235  43.031   6.764
 6189POPC   C3B77997   9.256  43.008   7.064
 6189POPC   C4B77998   9.253  43.092   7.364
 6190POPC   NC377999  10.551  40.733   5.564
 6190POPC   PO478000  10.555  40.788   5.864
 6190POPC   GL178001  10.549  40.823   6.164
 6190POPC   GL278002  10.508  40.690   6.164
 6190POPC   C1A78003  10.503  40.805   6.464
 6190POPC   D2A78004  10.484  40.760   6.764
 6190POPC   C3A78005  10.560  40.748   7.064
 6190POPC   C4A78006  10.545  40.740   7.364
 6190POPC   C1B78007  10.504  40.564   6.464
 6190POPC   C2B78008  10.483  40.579   6.764
 6190POPC   C3B78009  10.471  40.545   7.064
 6190POPC   C4B78010  10.483  40.559   7.364
 6191POPC   NC378011  15.154   5.111   5.564
 6191POPC   PO478012  15.139   5.050   5.864
 6191POPC   GL178013  15.146   5.142   6.164
 6191POPC   GL278014  15.260   4.976   6.164
 6191POPC   C1A78015  15.218   5.066   6.464
 6191POPC   D2A78016  15.203   5.045   6.764
 6191POPC   C3A78017  15.210   5.083   7.064
 6191POPC   C4A78018  15.134   5.062   7.364
 6191POPC   C1B78019  15.394   4.966   6.464
 6191POPC   C2B78020  15.375   4.930   6.764
 6191POPC   C3B78021  15.344   4.931   7.064
 6191POPC   C4B78022  15.349   4.955   7.364
 6192POPC   NC378023  30.712  19.045   5.564
 6192POPC   PO478024  30.738  19.106   5.864
 6192POPC   GL178025  30.658  19.060   6.164
 6192POPC   GL278026  30.811  18.988   6.164
 6192POPC   C1A78027  30.689  19.028   6.464
 6192POPC   D2A78028  30.708  19.099   6.764
 6192POPC   C3A78029  30.736  19.082   7.064
 6192POPC   C4A78030  30.708  19.056   7.364
 6192POPC   C1B78031  30.886  18.912   6.464
 6192POPC   C2B78032  30.868  18.913   6.764
 6192POPC   C3B78033  30.869  18.960   7.064
 6192POPC   C4B78034  30.897  18.944   7.364
 6193POPC   NC378035  23.683  40.832   5.564
 6193POPC   PO478036  23.751  40.789   5.864
 6193POPC   GL178037  23.707  40.808   6.164
 6193POPC   GL278038  23.582  40.801   6.164
 6193POPC   C1A78039  23.666  40.796   6.464
 6193POPC   D2A78040  23.677  40.829   6.764
 6193POPC   C3A78041  23.707  40.828   7.064
 6193POPC   C4A78042  23.749  40.809   7.364
 6193POPC   C1B78043  23.502  40.839   6.464
 6193POPC   C2B78044  23.500  40.820   6.764
 6193POPC   C3B78045  23.505  40.853   7.064
 6193POPC   C4B78046  23.483  40.807   7.364
 6194POPC   NC378047  32.975   5.828   5.564
 6194POPC   PO478048  33.030   5.861   5.864
 6194POPC   GL178049  33.055   5.881   6.164
 6194POPC   GL278050  32.889   5.936   6.164
 6194POPC   C1A78051  33.002   5.884   6.464
 6194POPC   D2A78052  32.976   5.844   6.764
 6194POPC   C3A78053  33.028   5.904   7.064
 6194POPC   C4A78054  32.990   5.866   7.364
 6194POPC   C1B78055  32.840   6.067   6.464
 6194POPC   C2B78056  32.805   6.087   6.764
 6194POPC   C3B78057  32.825   6.084   7.064
 6194POPC   C4B78058  32.848   6.001   7.364
 6195POPC   NC378059  33.827   7.410   5.564
 6195POPC   PO478060  33.772   7.377   5.864
 6195POPC   GL178061  33.824   7.449   6.164
 6195POPC   GL278062  33.707   7.348   6.164
 6195POPC   C1A78063  33.774   7.441   6.464
 6195POPC   D2A78064  33.797   7.413   6.764
 6195POPC   C3A78065  33.845   7.393   7.064
 6195POPC   C4A78066  33.826   7.422   7.364
 6195POPC   C1B78067  33.688   7.175   6.464
 6195POPC   C2B78068  33.651   7.252   6.764
 6195POPC   C3B78069  33.625   7.186   7.064
 6195POPC   C4B78070  33.663   7.179   7.364
 6196POPC   NC378071  39.279  19.059   5.564
 6196POPC   PO478072  39.218  19.032   5.864
 6196POPC   GL178073  39.264  19.027   6.164
 6196POPC   GL278074  39.119  19.005   6.164
 6196POPC   C1A78075  39.188  19.078   6.464
 6196POPC   D2A78076  39.234  19.101   6.764
 6196POPC   C3A78077  39.244  19.074   7.064
 6196POPC   C4A78078  39.247  19.044   7.364
 6196POPC   C1B78079  39.062  18.829   6.464
 6196POPC   C2B78080  39.122  18.829   6.764
 6196POPC   C3B78081  39.058  18.838   7.064
 6196POPC   C4B78082  39.047  18.841   7.364
 6197POPC   NC378083  42.293   6.678   5.564
 6197POPC   PO478084  42.353   6.608   5.864
 6197POPC   GL178085  42.299   6.601   6.164
 6197POPC   GL278086  42.413   6.699   6.164
 6197POPC   C1A78087  42.327   6.625   6.464
 6197POPC   D2A78088  42.318   6.681   6.764
 6197POPC   C3A78089  42.342   6.602   7.064
 6197POPC   C4A78090  42.357   6.616   7.364
 6197POPC   C1B78091  42.549   6.759   6.464
 6197POPC   C2B78092  42.567   6.718   6.764
 6197POPC   C3B78093  42.603   6.730   7.064
 6197POPC   C4B78094  42.583   6.763   7.364
 6198POPC   NC378095  21.423  16.717   5.564
 6198POPC   PO478096  21.365  16.687   5.864
 6198POPC   GL178097  21.390  16.738   6.164
 6198POPC   GL278098  21.424  16.845   6.164
 6198POPC   C1A78099  21.347  16.739   6.464
 6198POPC   D2A78100  21.337  16.770   6.764
 6198POPC   C3A78101  21.382  16.763   7.064
 6198POPC   C4A78102  21.337  16.769   7.364
 6198POPC   C1B78103  21.499  17.012   6.464
 6198POPC   C2B78104  21.499  16.936   6.764
 6198POPC   C3B78105  21.458  16.946   7.064
 6198POPC   C4B78106  21.495  16.930   7.364
 6199POPC   NC378107  22.934  36.165   5.564
 6199POPC   PO478108  22.920  36.110   5.864
 6199POPC   GL178109  22.935  36.111   6.164
 6199POPC   GL278110  22.809  36.054   6.164
 6199POPC   C1A78111  22.900  36.142   6.464
 6199POPC   D2A78112  22.907  36.122   6.764
 6199POPC   C3A78113  22.961  36.109   7.064
 6199POPC   C4A78114  22.942  36.116   7.364
 6199POPC   C1B78115  22.702  35.952   6.464
 6199POPC   C2B78116  22.750  35.996   6.764
 6199POPC   C3B78117  22.709  35.961   7.064
 6199POPC   C4B78118  22.742  36.020   7.364
 6200POPC   NC378119  26.082  14.447   5.564
 6200POPC   PO478120  26.042  14.452   5.864
 6200POPC   GL178121  26.041  14.438   6.164
 6200POPC   GL278122  26.166  14.374   6.164
 6200POPC   C1A78123  25.998  14.427   6.464
 6200POPC   D2A78124  26.066  14.449   6.764
 6200POPC   C3A78125  26.065  14.412   7.064
 6200POPC   C4A78126  26.058  14.424   7.364
 6200POPC   C1B78127  26.217  14.307   6.464
 6200POPC   C2B78128  26.241  14.297   6.764
 6200POPC   C3B78129  26.233  14.278   7.064
 6200POPC   C4B78130  26.292  14.228   7.364
 6201POPC   NC378131  19.880   3.565   5.564
 6201POPC   PO478132  19.794   3.542   5.864
 6201POPC   GL178133  19.801   3.531   6.164
 6201POPC   GL278134  19.920   3.484   6.164
 6201POPC   C1A78135  19.789   3.537   6.464
 6201POPC   D2A78136  19.828   3.570   6.764
 6201POPC   C3A78137  19.785   3.509   7.064
 6201POPC   C4A78138  19.852   3.576   7.364
 6201POPC   C1B78139  20.037   3.433   6.464
 6201POPC   C2B78140  20.038   3.432   6.764
 6201POPC   C3B78141  20.036   3.449   7.064
 6201POPC   C4B78142  20.074   3.512   7.364
 6202POPC   NC378143  11.289  20.639   5.564
 6202POPC   PO478144  11.349  20.573   5.864
 6202POPC   GL178145  11.349  20.603   6.164
 6202POPC   GL278146  11.348  20.471   6.164
 6202POPC   C1A78147  11.342  20.580   6.464
 6202POPC   D2A78148  11.341  20.631   6.764
 6202POPC   C3A78149  11.326  20.645   7.064
 6202POPC   C4A78150  11.296  20.654   7.364
 6202POPC   C1B78151  11.352  20.394   6.464
 6202POPC   C2B78152  11.356  20.406   6.764
 6202POPC   C3B78153  11.409  20.388   7.064
 6202POPC   C4B78154  11.353  20.364   7.364
 6203POPC   NC378155  37.670  31.465   5.564
 6203POPC   PO478156  37.705  31.517   5.864
 6203POPC   GL178157  37.716  31.434   6.164
 6203POPC   GL278158  37.560  31.607   6.164
 6203POPC   C1A78159  37.706  31.423   6.464
 6203POPC   D2A78160  37.662  31.503   6.764
 6203POPC   C3A78161  37.694  31.495   7.064
 6203POPC   C4A78162  37.684  31.454   7.364
 6203POPC   C1B78163  37.518  31.712   6.464
 6203POPC   C2B78164  37.530  31.658   6.764
 6203POPC   C3B78165  37.533  31.661   7.064
 6203POPC   C4B78166  37.540  31.714   7.364
 6204POPC   NC378167  26.051  44.670   5.564
 6204POPC   PO478168  26.073  44.683   5.864
 6204POPC   GL178169  26.063  44.697   6.164
 6204POPC   GL278170  25.972  44.733   6.164
 6204POPC   C1A78171  26.007  44.693   6.464
 6204POPC   D2A78172  26.023  44.670   6.764
 6204POPC   C3A78173  26.054  44.680   7.064
 6204POPC   C4A78174  26.075  44.639   7.364
 6204POPC   C1B78175  25.879  44.842   6.464
 6204POPC   C2B78176  25.842  44.843   6.764
 6204POPC   C3B78177  25.861  44.759   7.064
 6204POPC   C4B78178  25.887  44.796   7.364
 6205POPC   NC378179   8.235   1.183   5.564
 6205POPC   PO478180   8.176   1.254   5.864
 6205POPC   GL178181   8.211   1.182   6.164
 6205POPC   GL278182   8.310   1.269   6.164
 6205POPC   C1A78183   8.214   1.227   6.464
 6205POPC   D2A78184   8.190   1.209   6.764
 6205POPC   C3A78185   8.160   1.257   7.064
 6205POPC   C4A78186   8.218   1.227   7.364
 6205POPC   C1B78187   8.409   1.292   6.464
 6205POPC   C2B78188   8.442   1.231   6.764
 6205POPC   C3B78189   8.438   1.326   7.064
 6205POPC   C4B78190   8.389   1.246   7.364
 6206POPC   NC378191   5.908  34.579   5.564
 6206POPC   PO478192   5.865  34.541   5.864
 6206POPC   GL178193   5.837  34.531   6.164
 6206POPC   GL278194   5.975  34.509   6.164
 6206POPC   C1A78195   5.893  34.568   6.464
 6206POPC   D2A78196   5.827  34.527   6.764
 6206POPC   C3A78197   5.899  34.578   7.064
 6206POPC   C4A78198   5.828  34.593   7.364
 6206POPC   C1B78199   6.003  34.395   6.464
 6206POPC   C2B78200   6.096  34.381   6.764
 6206POPC   C3B78201   6.047  34.392   7.064
 6206POPC   C4B78202   6.012  34.400   7.364
 6207POPC   NC378203  25.267  23.742   5.564
 6207POPC   PO478204  25.264  23.751   5.864
 6207POPC   GL178205  25.238  23.672   6.164
 6207POPC   GL278206  25.243  23.793   6.164
 6207POPC   C1A78207  25.259  23.684   6.464
 6207POPC   D2A78208  25.256  23.691   6.764
 6207POPC   C3A78209  25.267  23.681   7.064
 6207POPC   C4A78210  25.300  23.705   7.364
 6207POPC   C1B78211  25.246  23.965   6.464
 6207POPC   C2B78212  25.174  23.954   6.764
 6207POPC   C3B78213  25.174  23.994   7.064
 6207POPC   C4B78214  25.254  23.963   7.364
 6208POPC   NC378215  13.661  21.396   5.564
 6208POPC   PO478216  13.627  21.395   5.864
 6208POPC   GL178217  13.610  21.392   6.164
 6208POPC   GL278218  13.720  21.428   6.164
 6208POPC   C1A78219  13.618  21.424   6.464
 6208POPC   D2A78220  13.626  21.431   6.764
 6208POPC   C3A78221  13.612  21.421   7.064
 6208POPC   C4A78222  13.670  21.404   7.364
 6208POPC   C1B78223  13.827  21.494   6.464
 6208POPC   C2B78224  13.816  21.493   6.764
 6208POPC   C3B78225  13.818  21.512   7.064
 6208POPC   C4B78226  13.894  21.528   7.364
 6209POPC   NC378227  17.549  10.483   5.564
 6209POPC   PO478228  17.508  10.485   5.864
 6209POPC   GL178229  17.499  10.562   6.164
 6209POPC   GL278230  17.388  10.378   6.164
 6209POPC   C1A78231  17.519  10.527   6.464
 6209POPC   D2A78232  17.514  10.479   6.764
 6209POPC   C3A78233  17.485  10.495   7.064
 6209POPC   C4A78234  17.528  10.557   7.364
 6209POPC   C1B78235  17.392  10.303   6.464
 6209POPC   C2B78236  17.381  10.294   6.764
 6209POPC   C3B78237  17.386  10.350   7.064
 6209POPC   C4B78238  17.384  10.332   7.364
 6210POPC   NC378239   6.643  26.052   5.564
 6210POPC   PO478240   6.644  26.079   5.864
 6210POPC   GL178241   6.667  26.072   6.164
 6210POPC   GL278242   6.797  26.056   6.164
 6210POPC   C1A78243   6.674  26.035   6.464
 6210POPC   D2A78244   6.670  26.079   6.764
 6210POPC   C3A78245   6.652  26.062   7.064
 6210POPC   C4A78246   6.648  26.057   7.364
 6210POPC   C1B78247   6.855  26.146   6.464
 6210POPC   C2B78248   6.821  26.133   6.764
 6210POPC   C3B78249   6.885  26.119   7.064
 6210POPC   C4B78250   6.858  26.134   7.364
 6211POPC   NC378251  24.501  42.343   5.564
 6211POPC   PO478252  24.524  42.371   5.864
 6211POPC   GL178253  24.499  42.285   6.164
 6211POPC   GL278254  24.405  42.311   6.164
 6211POPC   C1A78255  24.527  42.343   6.464
 6211POPC   D2A78256  24.505  42.355   6.764
 6211POPC   C3A78257  24.454  42.285   7.064
 6211POPC   C4A78258  24.505  42.293   7.364
 6211POPC   C1B78259  24.299  42.213   6.464
 6211POPC   C2B78260  24.284  42.285   6.764
 6211POPC   C3B78261  24.211  42.211   7.064
 6211POPC   C4B78262  24.205  42.236   7.364
 6212POPC   NC378263   9.011  31.467   5.564
 6212POPC   PO478264   8.991  31.458   5.864
 6212POPC   GL178265   8.985  31.472   6.164
 6212POPC   GL278266   8.883  31.352   6.164
 6212POPC   C1A78267   8.949  31.507   6.464
 6212POPC   D2A78268   8.997  31.452   6.764
 6212POPC   C3A78269   8.958  31.508   7.064
 6212POPC   C4A78270   9.004  31.427   7.364
 6212POPC   C1B78271   8.852  31.319   6.464
 6212POPC   C2B78272   8.858  31.276   6.764
 6212POPC   C3B78273   8.766  31.319   7.064
 6212POPC   C4B78274   8.797  31.229   7.364
 6213POPC   NC378275  17.489  13.639   5.564
 6213POPC   PO478276  17.464  13.614   5.864
 6213POPC   GL178277  17.508  13.677   6.164
 6213POPC   GL278278  17.377  13.639   6.164
 6213POPC   C1A78279  17.549  13.615   6.464
 6213POPC   D2A78280  17.549  13.619   6.764
 6213POPC   C3A78281  17.473  13.669   7.064
 6213POPC   C4A78282  17.509  13.618   7.364
 6213POPC   C1B78283  17.220  13.730   6.464
 6213POPC   C2B78284  17.294  13.728   6.764
 6213POPC   C3B78285  17.249  13.677   7.064
 6213POPC   C4B78286  17.253  13.676   7.364
 6214POPC   NC378287   5.872   0.409   5.564
 6214POPC   PO478288   5.897   0.397   5.864
 6214POPC   GL178289   5.877   0.417   6.164
 6214POPC   GL278290   5.983   0.491   6.164
 6214POPC   C1A78291   5.845   0.453   6.464
 6214POPC   D2A78292   5.857   0.404   6.764
 6214POPC   C3A78293   5.910   0.455   7.064
 6214POPC   C4A78294   5.903   0.459   7.364
 6214POPC   C1B78295   6.082   0.443   6.464
 6214POPC   C2B78296   6.086   0.473   6.764
 6214POPC   C3B78297   6.086   0.498   7.064
 6214POPC   C4B78298   6.137   0.425   7.364
 6215POPC   NC378299  19.846   6.620   5.564
 6215POPC   PO478300  19.803   6.606   5.864
 6215POPC   GL178301  19.844   6.616   6.164
 6215POPC   GL278302  19.935   6.540   6.164
 6215POPC   C1A78303  19.842   6.635   6.464
 6215POPC   D2A78304  19.828   6.598   6.764
 6215POPC   C3A78305  19.815   6.657   7.064
 6215POPC   C4A78306  19.849   6.683   7.364
 6215POPC   C1B78307  19.974   6.499   6.464
 6215POPC   C2B78308  19.965   6.442   6.764
 6215POPC   C3B78309  20.019   6.435   7.064
 6215POPC   C4B78310  19.953   6.479   7.364
 6216POPC   NC378311  26.862  40.793   5.564
 6216POPC   PO478312  26.783  40.801   5.864
 6216POPC   GL178313  26.781  40.816   6.164
 6216POPC   GL278314  26.771  40.854   6.164
 6216POPC   C1A78315  26.806  40.742   6.464
 6216POPC   D2A78316  26.820  40.797   6.764
 6216POPC   C3A78317  26.800  40.787   7.064
 6216POPC   C4A78318  26.818  40.754   7.364
 6216POPC   C1B78319  26.728  41.040   6.464
 6216POPC   C2B78320  26.689  40.976   6.764
 6216POPC   C3B78321  26.700  41.051   7.064
 6216POPC   C4B78322  26.746  41.028   7.364
 6217POPC   NC378323   9.739  18.262   5.564
 6217POPC   PO478324   9.701  18.263   5.864
 6217POPC   GL178325   9.768  18.288   6.164
 6217POPC   GL278326   9.646  18.352   6.164
 6217POPC   C1A78327   9.776  18.261   6.464
 6217POPC   D2A78328   9.740  18.292   6.764
 6217POPC   C3A78329   9.771  18.330   7.064
 6217POPC   C4A78330   9.745  18.321   7.364
 6217POPC   C1B78331   9.481  18.431   6.464
 6217POPC   C2B78332   9.543  18.370   6.764
 6217POPC   C3B78333   9.537  18.333   7.064
 6217POPC   C4B78334   9.557  18.345   7.364
 6218POPC   NC378335   4.304  15.184   5.564
 6218POPC   PO478336   4.337  15.188   5.864
 6218POPC   GL178337   4.310  15.157   6.164
 6218POPC   GL278338   4.349  15.308   6.164
 6218POPC   C1A78339   4.274  15.179   6.464
 6218POPC   D2A78340   4.361  15.202   6.764
 6218POPC   C3A78341   4.275  15.132   7.064
 6218POPC   C4A78342   4.358  15.137   7.364
 6218POPC   C1B78343   4.401  15.423   6.464
 6218POPC   C2B78344   4.421  15.423   6.764
 6218POPC   C3B78345   4.492  15.360   7.064
 6218POPC   C4B78346   4.473  15.344   7.364
 6219POPC   NC378347  41.560  33.778   5.564
 6219POPC   PO478348  41.607  33.797   5.864
 6219POPC   GL178349  41.529  33.760   6.164
 6219POPC   GL278350  41.491  33.698   6.164
 6219POPC   C1A78351  41.590  33.751   6.464
 6219POPC   D2A78352  41.516  33.765   6.764
 6219POPC   C3A78353  41.549  33.843   7.064
 6219POPC   C4A78354  41.545  33.820   7.364
 6219POPC   C1B78355  41.475  33.577   6.464
 6219POPC   C2B78356  41.456  33.549   6.764
 6219POPC   C3B78357  41.434  33.545   7.064
 6219POPC   C4B78358  41.460  33.527   7.364
 6220POPC   NC378359  18.311  24.507   5.564
 6220POPC   PO478360  18.261  24.471   5.864
 6220POPC   GL178361  18.282  24.533   6.164
 6220POPC   GL278362  18.195  24.617   6.164
 6220POPC   C1A78363  18.270  24.488   6.464
 6220POPC   D2A78364  18.300  24.506   6.764
 6220POPC   C3A78365  18.244  24.509   7.064
 6220POPC   C4A78366  18.290  24.530   7.364
 6220POPC   C1B78367  18.144  24.666   6.464
 6220POPC   C2B78368  18.157  24.660   6.764
 6220POPC   C3B78369  18.150  24.675   7.064
 6220POPC   C4B78370  18.112  24.731   7.364
 6221POPC   NC378371   6.620  17.549   5.564
 6221POPC   PO478372   6.660  17.543   5.864
 6221POPC   GL178373   6.679  17.549   6.164
 6221POPC   GL278374   6.491  17.467   6.164
 6221POPC   C1A78375   6.667  17.471   6.464
 6221POPC   D2A78376   6.612  17.474   6.764
 6221POPC   C3A78377   6.633  17.556   7.064
 6221POPC   C4A78378   6.682  17.481   7.364
 6221POPC   C1B78379   6.420  17.389   6.464
 6221POPC   C2B78380   6.381  17.373   6.764
 6221POPC   C3B78381   6.426  17.426   7.064
 6221POPC   C4B78382   6.440  17.398   7.364
 6222POPC   NC378383   5.055  15.189   5.564
 6222POPC   PO478384   5.068  15.211   5.864
 6222POPC   GL178385   5.068  15.139   6.164
 6222POPC   GL278386   5.046  15.264   6.164
 6222POPC   C1A78387   5.062  15.176   6.464
 6222POPC   D2A78388   5.086  15.140   6.764
 6222POPC   C3A78389   5.135  15.172   7.064
 6222POPC   C4A78390   5.052  15.221   7.364
 6222POPC   C1B78391   4.969  15.415   6.464
 6222POPC   C2B78392   4.934  15.350   6.764
 6222POPC   C3B78393   4.933  15.351   7.064
 6222POPC   C4B78394   4.980  15.343   7.364
 6223POPC   NC378395  36.855  33.831   5.564
 6223POPC   PO478396  36.872  33.762   5.864
 6223POPC   GL178397  36.928  33.785   6.164
 6223POPC   GL278398  36.786  33.761   6.164
 6223POPC   C1A78399  36.907  33.846   6.464
 6223POPC   D2A78400  36.887  33.764   6.764
 6223POPC   C3A78401  36.873  33.771   7.064
 6223POPC   C4A78402  36.882  33.846   7.364
 6223POPC   C1B78403  36.731  33.682   6.464
 6223POPC   C2B78404  36.681  33.656   6.764
 6223POPC   C3B78405  36.652  33.680   7.064
 6223POPC   C4B78406  36.690  33.720   7.364
 6224POPC   NC378407  31.464   3.585   5.564
 6224POPC   PO478408  31.469   3.587   5.864
 6224POPC   GL178409  31.451   3.506   6.164
 6224POPC   GL278410  31.499   3.647   6.164
 6224POPC   C1A78411  31.486   3.523   6.464
 6224POPC   D2A78412  31.455   3.517   6.764
 6224POPC   C3A78413  31.425   3.508   7.064
 6224POPC   C4A78414  31.485   3.566   7.364
 6224POPC   C1B78415  31.494   3.778   6.464
 6224POPC   C2B78416  31.457   3.762   6.764
 6224POPC   C3B78417  31.516   3.838   7.064
 6224POPC   C4B78418  31.494   3.777   7.364
 6225POPC   NC378419  17.523  26.847   5.564
 6225POPC   PO478420  17.545  26.823   5.864
 6225POPC   GL178421  17.520  26.828   6.164
 6225POPC   GL278422  17.652  26.765   6.164
 6225POPC   C1A78423  17.465  26.803   6.464
 6225POPC   D2A78424  17.484  26.806   6.764
 6225POPC   C3A78425  17.541  26.816   7.064
 6225POPC   C4A78426  17.501  26.770   7.364
 6225POPC   C1B78427  17.744  26.767   6.464
 6225POPC   C2B78428  17.727  26.737   6.764
 6225POPC   C3B78429  17.722  26.754   7.064
 6225POPC   C4B78430  17.753  26.752   7.364
 6226POPC   NC378431  22.132  23.729   5.564
 6226POPC   PO478432  22.156  23.706   5.864
 6226POPC   GL178433  22.211  23.701   6.164
 6226POPC   GL278434  22.041  23.662   6.164
 6226POPC   C1A78435  22.136  23.683   6.464
 6226POPC   D2A78436  22.150  23.665   6.764
 6226POPC   C3A78437  22.197  23.687   7.064
 6226POPC   C4A78438  22.171  23.691   7.364
 6226POPC   C1B78439  21.940  23.545   6.464
 6226POPC   C2B78440  21.964  23.576   6.764
 6226POPC   C3B78441  21.979  23.572   7.064
 6226POPC   C4B78442  21.949  23.557   7.364
 6227POPC   NC378443  21.387  30.704   5.564
 6227POPC   PO478444  21.434  30.674   5.864
 6227POPC   GL178445  21.417  30.692   6.164
 6227POPC   GL278446  21.303  30.602   6.164
 6227POPC   C1A78447  21.426  30.654   6.464
 6227POPC   D2A78448  21.435  30.670   6.764
 6227POPC   C3A78449  21.414  30.730   7.064
 6227POPC   C4A78450  21.423  30.658   7.364
 6227POPC   C1B78451  21.270  30.485   6.464
 6227POPC   C2B78452  21.334  30.496   6.764
 6227POPC   C3B78453  21.337  30.417   7.064
 6227POPC   C4B78454  21.294  30.465   7.364
 6228POPC   NC378455  43.118   8.192   5.564
 6228POPC   PO478456  43.135   8.243   5.864
 6228POPC   GL178457  43.157   8.151   6.164
 6228POPC   GL278458  43.184   8.243   6.164
 6228POPC   C1A78459  43.138   8.232   6.464
 6228POPC   D2A78460  43.066   8.239   6.764
 6228POPC   C3A78461  43.105   8.158   7.064
 6228POPC   C4A78462  43.064   8.185   7.364
 6228POPC   C1B78463  43.302   8.313   6.464
 6228POPC   C2B78464  43.301   8.297   6.764
 6228POPC   C3B78465  43.395   8.269   7.064
 6228POPC   C4B78466  43.333   8.250   7.364
 6229POPC   NC378467  22.170  18.290   5.564
 6229POPC   PO478468  22.159  18.258   5.864
 6229POPC   GL178469  22.125  18.234   6.164
 6229POPC   GL278470  22.018  18.348   6.164
 6229POPC   C1A78471  22.161  18.296   6.464
 6229POPC   D2A78472  22.119  18.327   6.764
 6229POPC   C3A78473  22.177  18.268   7.064
 6229POPC   C4A78474  22.163  18.316   7.364
 6229POPC   C1B78475  21.890  18.424   6.464
 6229POPC   C2B78476  21.931  18.349   6.764
 6229POPC   C3B78477  21.983  18.359   7.064
 6229POPC   C4B78478  21.925  18.365   7.364
 6230POPC   NC378479   4.319  13.657   5.564
 6230POPC   PO478480   4.269  13.627   5.864
 6230POPC   GL178481   4.320  13.630   6.164
 6230POPC   GL278482   4.206  13.665   6.164
 6230POPC   C1A78483   4.353  13.583   6.464
 6230POPC   D2A78484   4.343  13.606   6.764
 6230POPC   C3A78485   4.331  13.606   7.064
 6230POPC   C4A78486   4.362  13.616   7.364
 6230POPC   C1B78487   4.129  13.795   6.464
 6230POPC   C2B78488   4.153  13.725   6.764
 6230POPC   C3B78489   4.119  13.734   7.064
 6230POPC   C4B78490   4.137  13.770   7.364
 6231POPC   NC378491  40.013  43.092   5.564
 6231POPC   PO478492  40.008  43.128   5.864
 6231POPC   GL178493  39.984  43.139   6.164
 6231POPC   GL278494  40.087  43.205   6.164
 6231POPC   C1A78495  40.033  43.064   6.464
 6231POPC   D2A78496  40.056  43.148   6.764
 6231POPC   C3A78497  40.020  43.104   7.064
 6231POPC   C4A78498  39.990  43.071   7.364
 6231POPC   C1B78499  40.149  43.329   6.464
 6231POPC   C2B78500  40.184  43.321   6.764
 6231POPC   C3B78501  40.127  43.318   7.064
 6231POPC   C4B78502  40.191  43.340   7.364
 6232POPC   NC378503  14.382  35.351   5.564
 6232POPC   PO478504  14.365  35.400   5.864
 6232POPC   GL178505  14.390  35.344   6.164
 6232POPC   GL278506  14.321  35.451   6.164
 6232POPC   C1A78507  14.363  35.379   6.464
 6232POPC   D2A78508  14.438  35.387   6.764
 6232POPC   C3A78509  14.447  35.376   7.064
 6232POPC   C4A78510  14.368  35.318   7.364
 6232POPC   C1B78511  14.287  35.531   6.464
 6232POPC   C2B78512  14.220  35.506   6.764
 6232POPC   C3B78513  14.276  35.595   7.064
 6232POPC   C4B78514  14.248  35.548   7.364
 6233POPC   NC378515  41.600  37.723   5.564
 6233POPC   PO478516  41.529  37.701   5.864
 6233POPC   GL178517  41.549  37.724   6.164
 6233POPC   GL278518  41.445  37.589   6.164
 6233POPC   C1A78519  41.602  37.691   6.464
 6233POPC   D2A78520  41.606  37.721   6.764
 6233POPC   C3A78521  41.595  37.663   7.064
 6233POPC   C4A78522  41.514  37.643   7.364
 6233POPC   C1B78523  41.349  37.584   6.464
 6233POPC   C2B78524  41.285  37.589   6.764
 6233POPC   C3B78525  41.315  37.553   7.064
 6233POPC   C4B78526  41.287  37.591   7.364
 6234POPC   NC378527  24.447  41.608   5.564
 6234POPC   PO478528  24.484  41.569   5.864
 6234POPC   GL178529  24.530  41.607   6.164
 6234POPC   GL278530  24.358  41.518   6.164
 6234POPC   C1A78531  24.506  41.606   6.464
 6234POPC   D2A78532  24.489  41.560   6.764
 6234POPC   C3A78533  24.478  41.583   7.064
 6234POPC   C4A78534  24.441  41.530   7.364
 6234POPC   C1B78535  24.306  41.477   6.464
 6234POPC   C2B78536  24.318  41.474   6.764
 6234POPC   C3B78537  24.260  41.443   7.064
 6234POPC   C4B78538  24.278  41.424   7.364
 6235POPC   NC378539  39.274  12.055   5.564
 6235POPC   PO478540  39.195  12.111   5.864
 6235POPC   GL178541  39.219  12.026   6.164
 6235POPC   GL278542  39.170  12.200   6.164
 6235POPC   C1A78543  39.235  12.116   6.464
 6235POPC   D2A78544  39.264  12.086   6.764
 6235POPC   C3A78545  39.214  12.090   7.064
 6235POPC   C4A78546  39.228  12.060   7.364
 6235POPC   C1B78547  39.085  12.287   6.464
 6235POPC   C2B78548  39.121  12.328   6.764
 6235POPC   C3B78549  39.152  12.257   7.064
 6235POPC   C4B78550  39.153  12.290   7.364
 6236POPC   NC378551  43.107  34.559   5.564
 6236POPC   PO478552  43.093  34.560   5.864
 6236POPC   GL178553  43.135  34.561   6.164
 6236POPC   GL278554  43.011  34.428   6.164
 6236POPC   C1A78555  43.105  34.596   6.464
 6236POPC   D2A78556  43.151  34.589   6.764
 6236POPC   C3A78557  43.096  34.558   7.064
 6236POPC   C4A78558  43.114  34.573   7.364
 6236POPC   C1B78559  42.979  34.356   6.464
 6236POPC   C2B78560  43.011  34.385   6.764
 6236POPC   C3B78561  43.021  34.314   7.064
 6236POPC   C4B78562  42.961  34.349   7.364
 6237POPC   NC378563   5.893   1.970   5.564
 6237POPC   PO478564   5.898   1.943   5.864
 6237POPC   GL178565   5.844   1.957   6.164
 6237POPC   GL278566   5.802   2.083   6.164
 6237POPC   C1A78567   5.899   1.987   6.464
 6237POPC   D2A78568   5.900   2.003   6.764
 6237POPC   C3A78569   5.874   1.977   7.064
 6237POPC   C4A78570   5.858   2.038   7.364
 6237POPC   C1B78571   5.814   2.256   6.464
 6237POPC   C2B78572   5.786   2.191   6.764
 6237POPC   C3B78573   5.840   2.219   7.064
 6237POPC   C4B78574   5.852   2.279   7.364
 6238POPC   NC378575  34.608  39.958   5.564
 6238POPC   PO478576  34.549  40.050   5.864
 6238POPC   GL178577  34.554  39.989   6.164
 6238POPC   GL278578  34.484  39.935   6.164
 6238POPC   C1A78579  34.552  39.991   6.464
 6238POPC   D2A78580  34.621  40.056   6.764
 6238POPC   C3A78581  34.557  40.019   7.064
 6238POPC   C4A78582  34.564  40.002   7.364
 6238POPC   C1B78583  34.328  39.934   6.464
 6238POPC   C2B78584  34.321  39.912   6.764
 6238POPC   C3B78585  34.305  39.865   7.064
 6238POPC   C4B78586  34.312  39.932   7.364
 6239POPC   NC378587  43.160  15.192   5.564
 6239POPC   PO478588  43.100  15.190   5.864
 6239POPC   GL178589  43.070  15.197   6.164
 6239POPC   GL278590  43.139  15.093   6.164
 6239POPC   C1A78591  43.153  15.215   6.464
 6239POPC   D2A78592  43.135  15.193   6.764
 6239POPC   C3A78593  43.123  15.184   7.064
 6239POPC   C4A78594  43.094  15.187   7.364
 6239POPC   C1B78595  43.236  14.959   6.464
 6239POPC   C2B78596  43.299  15.004   6.764
 6239POPC   C3B78597  43.258  14.971   7.064
 6239POPC   C4B78598  43.244  14.981   7.364
 6240POPC   NC378599  42.344   2.785   5.564
 6240POPC   PO478600  42.381   2.752   5.864
 6240POPC   GL178601  42.351   2.759   6.164
 6240POPC   GL278602  42.395   2.626   6.164
 6240POPC   C1A78603  42.334   2.730   6.464
 6240POPC   D2A78604  42.339   2.727   6.764
 6240POPC   C3A78605  42.358   2.771   7.064
 6240POPC   C4A78606  42.321   2.771   7.364
 6240POPC   C1B78607  42.459   2.502   6.464
 6240POPC   C2B78608  42.442   2.520   6.764
 6240POPC   C3B78609  42.438   2.479   7.064
 6240POPC   C4B78610  42.423   2.485   7.364
 6241POPC   NC378611  29.168  25.308   5.564
 6241POPC   PO478612  29.124  25.279   5.864
 6241POPC   GL178613  29.142  25.288   6.164
 6241POPC   GL278614  29.225  25.389   6.164
 6241POPC   C1A78615  29.191  25.310   6.464
 6241POPC   D2A78616  29.156  25.250   6.764
 6241POPC   C3A78617  29.124  25.272   7.064
 6241POPC   C4A78618  29.137  25.242   7.364
 6241POPC   C1B78619  29.247  25.466   6.464
 6241POPC   C2B78620  29.218  25.469   6.764
 6241POPC   C3B78621  29.270  25.491   7.064
 6241POPC   C4B78622  29.242  25.517   7.364
 6242POPC   NC378623  40.785  10.567   5.564
 6242POPC   PO478624  40.814  10.503   5.864
 6242POPC   GL178625  40.769  10.509   6.164
 6242POPC   GL278626  40.855  10.402   6.164
 6242POPC   C1A78627  40.767  10.567   6.464
 6242POPC   D2A78628  40.793  10.566   6.764
 6242POPC   C3A78629  40.779  10.519   7.064
 6242POPC   C4A78630  40.826  10.550   7.364
 6242POPC   C1B78631  40.928  10.321   6.464
 6242POPC   C2B78632  40.866  10.351   6.764
 6242POPC   C3B78633  40.857  10.259   7.064
 6242POPC   C4B78634  40.901  10.318   7.364
 6243POPC   NC378635   2.810  44.681   5.564
 6243POPC   PO478636   2.758  44.664   5.864
 6243POPC   GL178637   2.810  44.682   6.164
 6243POPC   GL278638   2.866  44.744   6.164
 6243POPC   C1A78639   2.781  44.625   6.464
 6243POPC   D2A78640   2.730  44.622   6.764
 6243POPC   C3A78641   2.766  44.675   7.064
 6243POPC   C4A78642   2.761  44.623   7.364
 6243POPC   C1B78643   2.977  44.720   6.464
 6243POPC   C2B78644   3.055  44.760   6.764
 6243POPC   C3B78645   2.957  44.739   7.064
 6243POPC   C4B78646   2.987  44.698   7.364
 6244POPC   NC378647  40.824  24.444   5.564
 6244POPC   PO478648  40.760  24.452   5.864
 6244POPC   GL178649  40.795  24.466   6.164
 6244POPC   GL278650  40.767  24.623   6.164
 6244POPC   C1A78651  40.831  24.440   6.464
 6244POPC   D2A78652  40.762  24.475   6.764
 6244POPC   C3A78653  40.766  24.491   7.064
 6244POPC   C4A78654  40.816  24.487   7.364
 6244POPC   C1B78655  40.690  24.705   6.464
 6244POPC   C2B78656  40.757  24.713   6.764
 6244POPC   C3B78657  40.781  24.709   7.064
 6244POPC   C4B78658  40.689  24.735   7.364
 6245POPC   NC378659  34.531  13.584   5.564
 6245POPC   PO478660  34.559  13.620   5.864
 6245POPC   GL178661  34.608  13.588   6.164
 6245POPC   GL278662  34.480  13.775   6.164
 6245POPC   C1A78663  34.610  13.624   6.464
 6245POPC   D2A78664  34.554  13.617   6.764
 6245POPC   C3A78665  34.574  13.584   7.064
 6245POPC   C4A78666  34.621  13.587   7.364
 6245POPC   C1B78667  34.474  13.893   6.464
 6245POPC   C2B78668  34.502  13.892   6.764
 6245POPC   C3B78669  34.425  13.809   7.064
 6245POPC   C4B78670  34.423  13.864   7.364
 6246W        W78671  38.880   0.271   0.730
 6247W        W78672   6.221  17.594  11.458
 6248W        W78673   5.233  28.956   4.662
 6249W        W78674  41.292  39.379  13.936
 6250W        W78675  19.217  18.158   4.709
 6251W        W78676  28.666  39.853  14.764
 6252W        W78677  38.369  36.014   1.696
 6253W        W78678  23.712  27.529   0.406
 6254W        W78679   4.746  30.966  13.331
 6255W        W78680  19.586  16.301  11.491
 6256W        W78681  34.416  13.662  13.354
 6257W        W78682  31.133  18.589  14.509
 6258W        W78683   4.379  33.565   2.843
 6259W        W78684  34.881  21.515   1.338
 6260W        W78685  11.143   4.360  11.964
 6261W        W78686  15.201   9.763  13.064
 6262W        W78687  36.511  41.023   3.646
 6263W        W78688  43.836  20.649  12.037
 6264W        W78689   5.912  32.401   2.692
 6265W        W78690   3.851  36.049   4.346
 6266W        W78691  28.009  15.651  11.462
 6267W        W78692   9.382  19.610   4.259
 6268W        W78693  22.507  12.179  11.434
 6269W        W78694  38.986  14.114  14.872
 6270W        W78695  24.198  27.537  13.833
 6271W        W78696  44.868   1.314  11.929
 6272W        W78697  18.234   9.797   2.792
 6273W        W78698  27.603  32.610   2.889
 6274W        W78699   4.341  40.016   3.300
 6275W        W78700  35.524  22.048  14.314
 6276W        W78701  25.126  42.825   2.740
 6277W        W78702   7.695   9.684   1.358
 6278W        W78703   3.939  42.527  10.979
 6279W        W78704  38.460  23.074   4.833
 6280W        W78705   8.379  13.764  12.956
 6281W        W78706  20.038  39.857   1.228
 6282W        W78707  35.435  24.224  13.393
 6283W        W78708   6.845  16.166  11.898
 6284W        W78709  41.932  14.808   1.303
 6285W        W78710  24.178  44.403   5.145
 6286W        W78711  34.913  31.413  11.485
 6287W        W78712   8.801   9.322  11.439
 6288W        W78713  34.592  23.229  11.016
 6289W        W78714   3.799  33.894  14.888
 6290W        W78715  35.057   7.705  10.596
 6291W        W78716   9.861  18.705   0.469
 6292W        W78717  32.981  32.431   1.796
 6293W        W78718  21.235  17.750  11.386
 6294W        W78719  32.403  33.427   2.333
 6295W        W78720  15.734  33.581   0.821
 6296W        W78721  12.740  31.518  13.798
 6297W        W78722  40.905  25.546   4.806
 6298W        W78723   0.308  31.070   2.279
 6299W        W78724  36.006   4.835   2.672
 6300W        W78725  21.658  12.318  10.964
 6301W        W78726  10.289  23.511  10.037
 6302W        W78727   1.311   8.363   1.449
 6303W        W78728  12.199   1.281   5.756
 6304W        W78729   2.801   0.431  14.275
 6305W        W78730  29.037  29.162   3.152
 6306W        W78731  24.693  10.273  11.039
 6307W        W78732  44.273  16.626   3.295
 6308W        W78733  26.476  18.181  14.825
 6309W        W78734   3.804  35.596  11.411
 6310W        W78735  27.950   5.791  14.892
 6311W        W78736  29.490  17.753  13.877
 6312W        W78737  44.415  30.523   4.264
 6313W        W78738  33.928  25.036  11.100
 6314W        W78739  23.704  17.672  14.394
 6315W        W78740   8.838  38.986  13.339
 6316W        W78741  44.850  36.973  11.372
 6317W        W78742  44.304  31.623   4.794
 6318W        W78743  43.446   8.789   1.447
 6319W        W78744  18.588  32.130   4.323
 6320W        W78745  22.216  19.135  10.518
 6321W        W78746  30.538  25.707   3.336
 6322W        W78747   0.276  35.061  10.144
 6323W        W78748  10.729  41.439   4.685
 6324W        W78749  43.316  10.846   0.332
 6325W        W78750  34.525  38.005   3.330
 6326W        W78751   9.273  42.976  12.878
 6327W        W78752  38.895  30.522  11.476
 6328W        W78753  19.650  25.707   2.846
 6329W        W78754  24.524  36.381  14.382
 6330W        W78755   6.767   8.894   2.701
 6331W        W78756  10.214  37.861  12.382
 6332W        W78757  15.616  33.966   1.325
 6333W        W78758  34.564  25.686   2.252
 6334W        W78759  29.137  29.988  14.433
 6335W        W78760  43.421  16.705  10.496
 6336W        W78761  38.347   6.766  12.579
 6337W        W78762   9.780  20.098  11.520
 6338W        W78763   6.743  32.440   4.645
 6339W        W78764   8.253  24.629   2.408
 6340W        W78765  16.741  26.679   1.907
 6341W        W78766  31.943  21.568  10.942
 6342W        W78767  33.944   8.358   2.717
 6343W        W78768  35.486  42.936   4.677
 6344W        W78769   5.373  39.437  10.430
 6345W        W78770  34.034  43.925   3.291
 6346W        W78771  40.026  21.201  13.463
 6347W        W78772   2.449  11.321  14.778
 6348W        W78773   2.886  31.456  11.881
 6349W        W78774  33.027  28.532   1.719
 6350W        W78775  23.153  44.417   2.312
 6351W        W78776  18.098  27.126  13.962
 6352W        W78777  42.961  36.548   4.188
 6353W        W78778  37.428  23.988  10.550
 6354W        W78779   6.867   4.261  14.507
 6355W        W78780   7.318  28.050  13.968
 6356W        W78781  23.549  41.016  11.076
 6357W        W78782  10.655  20.578  13.983
 6358W        W78783  16.745  37.424   2.680
 6359W        W78784  12.838  11.259  13.522
 6360W        W78785  34.372  34.071  11.105
 6361W        W78786  18.635  16.758   2.296
 6362W        W78787  20.129  31.983  11.966
 6363W        W78788  18.670   8.337   4.142
 6364W        W78789  21.520  41.883   4.762
 6365W        W78790  15.086   6.273  12.081
 6366W        W78791  20.762  30.422   2.273
 6367W        W78792  20.526  33.553   3.753
 6368W        W78793  23.130  14.257   2.715
 6369W        W78794  17.649  36.566  11.950
 6370W        W78795   1.923  26.510   1.233
 6371W        W78796  28.652  20.719  11.541
 6372W        W78797   3.268   7.782  10.632
 6373W        W78798  37.978  29.608  10.922
 6374W        W78799  11.699   0.880  10.578
 6375W        W78800   1.792  40.005  13.900
 6376W        W78801  17.067   9.287   9.943
 6377W        W78802  41.034   5.792  11.584
 6378W        W78803  16.289  30.582   3.861
 6379W        W78804   6.684  14.335   4.783
 6380W        W78805  44.364  37.846   4.221
 6381W        W78806   9.749   5.260   3.164
 6382W        W78807  39.534   6.210   2.826
 6383W        W78808  30.127  42.807  14.903
 6384W        W78809  10.758  37.371  10.997
 6385W        W78810  38.568  21.583  11.404
 6386W        W78811  33.976  30.944   4.728
 6387W        W78812   2.749  26.599  13.366
 6388W        W78813  43.915  28.645   3.156
 6389W        W78814  32.123  36.854  11.927
 6390W        W78815  34.086   3.767   2.263
 6391W        W78816   8.227  33.012   3.637
 6392W        W78817   1.898  29.575  11.018
 6393W        W78818  10.682  28.462   1.701
 6394W        W78819   9.889  40.885  13.894
 6395W        W78820  12.830   4.712   2.861
 6396W        W78821  34.015  34.076  11.585
 6397W        W78822  17.759   7.206  14.348
 6398W        W78823  16.758  36.006  12.830
 6399W        W78824  39.912   9.379   4.165
 6400W        W78825  29.458  20.703  12.079
 6401W        W78826  26.202  30.454  11.575
 6402W        W78827  26.466  22.701  10.480
 6403W        W78828   9.658  33.948  12.997
 6404W        W78829   9.875  40.911   0.917
 6405W        W78830  41.853   6.258  10.938
 6406W        W78831  17.800  30.421  12.027
 6407W        W78832   0.860  27.020   2.379
 6408W        W78833  16.731  21.181  12.865
 6409W        W78834   5.881   2.871   0.271
 6410W        W78835   1.966  24.536  12.418
 6411W        W78836   7.787  18.671  10.499
 6412W        W78837  43.808  13.786  13.807
 6413W        W78838   0.287   0.489   2.677
 6414W        W78839  28.451   0.770  13.915
 6415W        W78840  34.966  20.617   2.713
 6416W        W78841  11.328  16.293   4.262
 6417W        W78842   4.213  22.060   4.664
 6418W        W78843   6.212  43.290   4.635
 6419W        W78844   0.957  11.223  13.828
 6420W        W78845  28.080  19.712  12.379
 6421W        W78846  44.329  43.495   4.677
 6422W        W78847  20.561  35.864  13.975
 6423W        W78848  35.359   6.389   2.214
 6424W        W78849  14.672  20.196   4.664
 6425W        W78850  10.195  17.098   5.226
 6426W        W78851  35.949   9.860   3.313
 6427W        W78852  10.699  32.529  13.465
 6428W        W78853  38.018  26.547   4.671
 6429W        W78854  18.650  39.842   0.828
 6430W        W78855  16.782  40.474   4.143
 6431W        W78856  33.505  40.346  10.116
 6432W        W78857  41.804   3.952   4.176
 6433W        W78858   7.184  16.258   2.682
 6434W        W78859  17.741  17.604   2.287
 6435W        W78860  33.425  44.911  10.036
 6436W        W78861  36.063  38.907  12.095
 6437W        W78862   2.333  28.063  10.606
 6438W        W78863   0.988  27.137   0.315
 6439W        W78864  12.304   9.311   2.706
 6440W        W78865  37.839  41.412  13.529
 6441W        W78866  30.461  26.193  13.996
 6442W        W78867  37.475  19.160  13.468
 6443W        W78868  15.683  24.647   0.937
 6444W        W78869  43.364  25.076  11.424
 6445W        W78870  35.587  42.282   0.802
 6446W        W78871   4.879  29.653   0.461
 6447W        W78872   2.465   9.233   4.700
 6448W        W78873   9.207  15.135   0.350
 6449W        W78874   6.263   1.931   0.765
 6450W        W78875  42.984  12.361   3.779
 6451W        W78876   4.379  31.924  12.574
 6452W        W78877   6.329  38.074   3.350
 6453W        W78878   9.336   3.884   0.275
 6454W        W78879   8.160  41.841  12.388
 6455W        W78880   4.906  27.084   3.824
 6456W        W78881  41.894   1.842   3.253
 6457W        W78882  31.641  14.805   4.247
 6458W        W78883   2.961  18.743  13.796
 6459W        W78884  39.345   0.859   3.166
 6460W        W78885  17.132  22.700  12.518
 6461W        W78886  40.878  19.661   0.422
 6462W        W78887   7.218  31.094   4.324
 6463W        W78888  11.253  27.984   4.339
 6464W        W78889  23.712  28.984   4.307
 6465W        W78890  28.984  22.107  13.516
 6466W        W78891  38.898  14.311   2.240
 6467W        W78892  27.563  15.264  11.860
 6468W        W78893  20.679  24.662  11.600
 6469W        W78894  20.095   3.843  14.375
 6470W        W78895  20.173  15.779   4.247
 6471W        W78896  43.308   2.455  14.889
 6472W        W78897  43.480  30.018  14.956
 6473W        W78898   1.870  21.041   2.418
 6474W        W78899  30.018  33.582   0.346
 6475W        W78900   4.897   3.231  14.465
 6476W        W78901  26.173  32.007   3.676
 6477W        W78902  23.140  34.938   1.225
 6478W        W78903  33.425  36.470   1.340
 6479W        W78904  18.132  28.440  13.397
 6480W        W78905   4.733   3.836  10.464
 6481W        W78906  22.009  34.484   2.390
 6482W        W78907  13.164   8.288   0.427
 6483W        W78908   1.327  30.488   2.859
 6484W        W78909   6.767  12.683   3.764
 6485W        W78910  23.579  36.023   4.833
 6486W        W78911  43.283  37.982  14.984
 6487W        W78912  19.591   4.832   4.741
 6488W        W78913  30.602  28.090   4.292
 6489W        W78914  14.673  11.284   3.373
 6490W        W78915  15.762   1.774   4.634
 6491W        W78916  41.388  23.199  14.317
 6492W        W78917  26.981  10.828  11.476
 6493W        W78918  37.017   5.895  12.836
 6494W        W78919   6.694  41.949   4.321
 6495W        W78920   1.478   6.229   4.760
 6496W        W78921   5.199  44.350   1.726
 6497W        W78922  42.449   1.768  12.425
 6498W        W78923   8.208   9.720   4.747
 6499W        W78924  10.343   6.215  14.820
 6500W        W78925  23.104  37.400   1.215
 6501W        W78926  36.084  18.582   3.677
 6502W        W78927  29.634  39.457  14.801
 6503W        W78928  30.478  11.867   2.306
 6504W        W78929  11.663  37.948   4.162
 6505W        W78930  43.379  32.458   1.325
 6506W        W78931  11.146  13.678  13.812
 6507W        W78932  21.524  34.002  10.420
 6508W        W78933  38.974  29.466  11.084
 6509W        W78934   9.187   2.876   2.709
 6510W        W78935  11.147   7.176   3.771
 6511W        W78936   0.439  14.151   4.755
 6512W        W78937  26.043  21.162  14.335
 6513W        W78938  29.443   4.703  10.104
 6514W        W78939   5.846  35.481   2.347
 6515W        W78940  33.525  18.588   0.931
 6516W        W78941  43.429   2.954  11.534
 6517W        W78942  26.488  31.643  14.476
 6518W        W78943   5.310  11.812   4.691
 6519W        W78944   3.356  22.104   0.908
 6520W        W78945   2.265  40.473  14.006
 6521W        W78946  24.228  22.100   0.810
 6522W        W78947  33.074   0.971   0.477
 6523W        W78948  18.650  41.389  11.867
 6524W        W78949   9.757  42.976   1.335
 6525W        W78950  43.302  10.159   2.309
 6526W        W78951  41.018  12.713  14.287
 6527W        W78952  17.258  42.948   2.869
 6528W        W78953  37.400  42.405  10.590
 6529W        W78954  33.905   2.454   0.901
 6530W        W78955  34.544  27.132  10.462
 6531W        W78956  37.977   5.259   4.323
 6532W        W78957  39.029  17.262  14.853
 6533W        W78958   2.770   2.831   2.362
 6534W        W78959   4.831  33.986  13.328
 6535W        W78960  33.950  31.001   1.340
 6536W        W78961  17.206  38.356   1.903
 6537W        W78962  25.211  42.972   0.877
 6538W        W78963  21.063  21.678   0.259
 6539W        W78964  37.895  33.596  14.335
 6540W        W78965   3.742  38.384   4.770
 6541W        W78966  40.001  10.306  12.544
 6542W        W78967  13.610  18.619   1.290
 6543W        W78968   6.383   6.803  12.533
 6544W        W78969  10.778  31.595   1.323
 6545W        W78970  32.054  15.130  10.889
 6546W        W78971   7.805   6.326  11.583
 6547W        W78972  12.175   6.693  14.914
 6548W        W78973  22.098  24.026   0.757
 6549W        W78974  27.161  17.187   2.193
 6550W        W78975  41.483  14.200  11.907
 6551W        W78976   0.390  17.619   3.708
 6552W        W78977  30.005  21.611   1.779
 6553W        W78978  13.251  38.904  12.893
 6554W        W78979  24.512   8.160   4.656
 6555W        W78980   1.787   7.879  13.824
 6556W        W78981  13.221  16.301   4.124
 6557W        W78982  21.216   5.216  14.031
 6558W        W78983  13.665  43.775  14.288
 6559W        W78984  18.148  36.890  11.506
 6560W        W78985  42.904  38.062   4.686
 6561W        W78986  32.024  10.862   2.257
 6562W        W78987   5.335  14.162  12.890
 6563W        W78988  11.156  37.451  11.475
 6564W        W78989  24.674  21.252  11.937
 6565W        W78990  32.497   3.425  10.587
 6566W        W78991   5.306  44.335   3.163
 6567W        W78992   2.440  41.512   1.416
 6568W        W78993  19.191  15.641  11.999
 6569W        W78994  27.529  30.629  12.035
 6570W        W78995   5.714   7.386  13.431
 6571W        W78996  23.514   3.860  12.862
 6572W        W78997  37.338  34.575   3.689
 6573W        W78998   5.304  25.606  13.432
 6574W        W78999  30.118  24.706  10.972
 6575W        W79000  22.722   4.208  10.569
 6576W        W79001  23.654  14.755   1.918
 6577W        W79002   1.416  19.178  11.018
 6578W        W79003  17.090  20.182  11.430
 6579W        W79004  26.183  27.070  14.315
 6580W        W79005  35.563   7.843   0.411
 6581W        W79006  25.152  31.625  11.508
 6582W        W79007   7.743  30.975   2.720
 6583W        W79008  10.765  39.522   3.786
 6584W        W79009   0.910  18.791   2.201
 6585W        W79010  32.138  28.120   3.380
 6586W        W79011  31.581  10.801  12.077
 6587W        W79012  11.862  32.537   4.623
 6588W        W79013  15.135   1.406  14.967
 6589W        W79014  22.642  17.241  10.485
 6590W        W79015  32.937   3.358  10.979
 6591W        W79016  25.688  30.616  11.957
 6592W        W79017   0.977   0.937   1.272
 6593W        W79018   1.309  20.075  11.961
 6594W        W79019  17.247  16.673  11.924
 6595W        W79020  44.268  32.524   3.330
 6596W        W79021  38.516   2.419   4.640
 6597W        W79022  22.190  39.018   0.396
 6598W        W79023  31.985  36.558  11.094
 6599W        W79024  28.116  21.681   5.171
 6600W        W79025  22.113  30.567   0.385
 6601W        W79026   5.290  36.901   0.458
 6602W        W79027  32.588   7.290  12.904
 6603W        W79028  33.051   1.473   1.918
 6604W        W79029  19.276  38.458   0.384
 6605W        W79030  26.560  17.275   4.612
 6606W        W79031   3.232  17.077  14.872
 6607W        W79032  20.154  34.432  11.500
 6608W        W79033  22.110   9.224   5.661
 6609W        W79034  35.925   3.265   0.371
 6610W        W79035  26.698   8.756   4.148
 6611W        W79036  39.997  24.992   3.219
 6612W        W79037   1.317  22.628  14.382
 6613W        W79038  34.582   1.839  10.946
 6614W        W79039   1.753  42.805   1.710
 6615W        W79040  21.151  30.962  13.804
 6616W        W79041  35.384   7.669   2.197
 6617W        W79042  29.495  24.662   4.687
 6618W        W79043  23.524  37.908  13.894
 6619W        W79044  42.300  30.111  13.499
 6620W        W79045  36.063  33.625  10.899
 6621W        W79046  16.248  40.798   3.281
 6622W        W79047  15.292   5.305  11.039
 6623W        W79048  16.748  12.186   2.393
 6624W        W79049  17.153  22.570  13.984
 6625W        W79050  19.726  20.586   3.212
 6626W        W79051  43.018  38.548  12.539
 6627W        W79052  21.138  13.262  10.589
 6628W        W79053  43.003  33.081   2.198
 6629W        W79054   7.695   5.925  13.537
 6630W        W79055  19.141  25.034  13.808
 6631W        W79056  43.462  39.484  12.992
 6632W        W79057  32.914  31.645  12.490
 6633W        W79058  32.548  15.818  10.144
 6634W        W79059  20.224   6.917   2.364
 6635W        W79060  28.949  10.773  12.488
 6636W        W79061   5.898   6.197  12.374
 6637W        W79062   8.819  37.556  10.937
 6638W        W79063   2.281  29.087  14.355
 6639W        W79064  41.324  18.174  14.287
 6640W        W79065  17.170   8.656  13.358
 6641W        W79066  10.856  11.852  10.633
 6642W        W79067   2.918  19.159  14.421
 6643W        W79068  30.089  42.389  12.503
 6644W        W79069   5.357  42.908   3.756
 6645W        W79070   3.887  13.303  13.497
 6646W        W79071  34.576  10.699  12.981
 6647W        W79072  33.477  41.809   3.760
 6648W        W79073  27.175  26.084  12.029
 6649W        W79074  39.044  25.695  13.351
 6650W        W79075   2.802  43.889  14.406
 6651W        W79076  27.067  21.659   0.414
 6652W        W79077  34.077  36.545  14.793
 6653W        W79078  35.389  31.909  12.405
 6654W        W79079   4.713   2.965   0.414
 6655W        W79080  21.635  36.902  11.574
 6656W        W79081   5.721  25.109  10.953
 6657W        W79082  20.209  32.980   1.381
 6658W        W79083  22.621   4.761  13.956
 6659W        W79084  11.255  31.542   3.381
 6660W        W79085  20.738  44.000  12.986
 6661W        W79086  26.962  25.664   3.809
 6662W        W79087  44.377  43.973  12.846
 6663W        W79088  38.822  42.290  11.120
 6664W        W79089   0.866  35.883  11.392
 6665W        W79090   8.721  34.382   2.359
 6666W        W79091   5.332   6.274   0.309
 6667W        W79092  42.810  36.898   2.712
 6668W        W79093  18.238  39.541   2.841
 6669W        W79094  34.489   1.806   4.735
 6670W        W79095   1.750  17.763   3.691
 6671W        W79096  43.292  41.028   0.845
 6672W        W79097   6.844  39.895  11.961
 6673W        W79098   1.937  12.614   2.238
 6674W        W79099  36.580  44.352   4.680
 6675W        W79100  27.014  25.692  13.840
 6676W        W79101   5.763  18.113  12.357
 6677W        W79102  44.294   4.242   0.872
 6678W        W79103  31.433  11.327  13.059
 6679W        W79104  40.436  41.981  12.372
 6680W        W79105  26.628  17.657  11.576
 6681W        W79106   6.372  26.645  12.853
 6682W        W79107  23.055  18.289   3.766
 6683W        W79108  28.523  10.698   3.807
 6684W        W79109  35.527  26.493   4.641
 6685W        W79110  14.721  27.023   1.332
 6686W        W79111   6.744   9.848  13.020
 6687W        W79112   6.788   8.847   1.251
 6688W        W79113   4.885  44.907  10.593
 6689W        W79114  17.158  35.950   4.770
 6690W        W79115  40.965  44.930  11.404
 6691W        W79116  14.827  23.135   3.377
 6692W        W79117   9.339   6.235   0.772
 6693W        W79118  11.808   3.798  12.563
 6694W        W79119  28.470  41.927   2.263
 6695W        W79120  29.096   0.950  14.995
 6696W        W79121  21.098  44.305  11.979
 6697W        W79122  23.013  26.063  11.468
 6698W        W79123  18.196  40.473   0.932
 6699W        W79124  35.979  34.550   1.425
 6700W        W79125   2.782   2.792   3.792
 6701W        W79126  11.700  21.526   3.637
 6702W        W79127  30.453   2.739   3.162
 6703W        W79128  29.631  18.148  13.547
 6704W        W79129   8.206  43.843   2.272
 6705W        W79130  43.495  28.104  14.510
 6706W        W79131   0.766  26.179   4.133
 6707W        W79132  28.607  28.000   4.770
 6708W        W79133  41.437  39.459   0.249
 6709W        W79134  17.176  41.000  11.104
 6710W        W79135  11.306  36.052   2.183
 6711W        W79136   9.306  13.237  11.104
 6712W        W79137   1.928  22.034   4.695
 6713W        W79138  23.620  38.980   1.246
 6714W        W79139  25.966  32.968  14.008
 6715W        W79140  33.974  27.471   4.739
 6716W        W79141  10.272  35.885  14.290
 6717W        W79142  33.576  11.242  13.859
 6718W        W79143   9.382  21.716  10.546
 6719W        W79144  40.020  43.919  12.362
 6720W        W79145  35.364  21.578   3.195
 6721W        W79146  21.532  15.708   0.358
 6722W        W79147  22.513  11.648  14.431
 6723W        W79148   3.324  44.950   3.334
 6724W        W79149  41.014   4.777  10.455
 6725W        W79150  29.077  32.101  12.051
 6726W        W79151  30.589  17.695   1.395
 6727W        W79152  25.528  31.147  14.987
 6728W        W79153   3.308  32.601   1.402
 6729W        W79154  16.750  16.784  10.441
 6730W        W79155  26.494  16.098   2.277
 6731W        W79156  41.804  20.034  13.953
 6732W        W79157  40.471   4.916  14.356
 6733W        W79158  20.596  35.995  11.034
 6734W        W79159  35.360  12.170   3.808
 6735W        W79160   5.897  44.779  12.067
 6736W        W79161  44.434  33.991   1.333
 6737W        W79162  24.064  16.633   2.879
 6738W        W79163  30.037  19.196  10.611
 6739W        W79164  18.060  16.089   2.808
 6740W        W79165  10.844   1.353  12.093
 6741W        W79166  23.679  30.616   4.230
 6742W        W79167   1.458   9.647   2.237
 6743W        W79168  35.929  32.407   3.371
 6744W        W79169  37.573  17.619   2.371
 6745W        W79170   9.294  23.108  14.473
 6746W        W79171  10.241  10.679   2.377
 6747W        W79172  40.960   3.858  11.098
 6748W        W79173  13.714  39.882   3.730
 6749W        W79174  23.135  32.007   2.802
 6750W        W79175  15.784  24.493   4.153
 6751W        W79176  43.915  36.452   3.647
 6752W        W79177   0.319  24.216   3.685
 6753W        W79178   0.984   4.859   2.390
 6754W        W79179  17.254  36.049  11.566
 6755W        W79180  37.074  29.931   1.276
 6756W        W79181  30.969  35.586   2.295
 6757W        W79182   2.913  22.249  10.639
 6758W        W79183  27.565  18.058   4.742
 6759W        W79184  34.432  20.197   0.362
 6760W        W79185  11.183  41.808   4.317
 6761W        W79186  21.526  34.553   1.268
 6762W        W79187  26.039  32.451  14.479
 6763W        W79188   9.328  36.969   4.350
 6764W        W79189  18.700   7.759   1.270
 6765W        W79190  31.906  12.130   3.244
 6766W        W79191  33.012  23.660   2.764
 6767W        W79192  28.588   6.686  14.778
 6768W        W79193   9.778  24.616   2.310
 6769W        W79194   5.841  21.143  13.012
 6770W        W79195  31.068  19.731   5.089
 6771W        W79196  34.089  25.491  14.882
 6772W        W79197  11.356  42.304   2.868
 6773W        W79198  17.155  11.786   1.866
 6774W        W79199  28.169   4.365   1.390
 6775W        W79200  19.232   6.736  14.948
 6776W        W79201  24.503   9.322  11.970
 6777W        W79202  44.968  35.545   1.315
 6778W        W79203  10.311  34.472  10.096
 6779W        W79204   8.831  36.578  13.316
 6780W        W79205  26.534  35.873   4.210
 6781W        W79206  11.147  38.944   0.344
 6782W        W79207  13.610  37.965   0.794
 6783W        W79208  36.853  41.500   4.781
 6784W        W79209  16.792  17.633   3.718
 6785W        W79210  22.154  41.929  13.438
 6786W        W79211  25.095  42.396  13.908
 6787W        W79212  26.681  38.005  13.458
 6788W        W79213  42.503  43.461  14.772
 6789W        W79214  16.092  40.458  14.964
 6790W        W79215  10.864  39.870   0.941
 6791W        W79216  22.199   2.268  11.441
 6792W        W79217  34.934  34.380   4.788
 6793W        W79218  15.606  40.456   2.189
 6794W        W79219  15.728  16.719   0.477
 6795W        W79220  30.611  32.988   0.825
 6796W        W79221  12.803  43.802   0.957
 6797W        W79222   5.431  21.706  10.996
 6798W        W79223   4.705  12.172   0.944
 6799W        W79224  37.865  30.606  14.355
 6800W        W79225   5.369  35.476  11.123
 6801W        W79226  24.556  14.221   1.407
 6802W        W79227   1.303  41.997  13.484
 6803W        W79228  39.355  36.531  11.576
 6804W        W79229  15.132  33.625  12.541
 6805W        W79230   5.238  17.757   0.904
 6806W        W79231   0.960  32.887   1.833
 6807W        W79232  30.054  34.937   0.754
 6808W        W79233  19.673  32.049   1.777
 6809W        W79234   1.339  12.146   0.828
 6810W        W79235  38.958  19.143   4.239
 6811W        W79236  31.085  31.060  12.954
 6812W        W79237  15.295  32.393  14.997
 6813W        W79238  36.570   8.354  11.119
 6814W        W79239  14.772  44.866  12.344
 6815W        W79240  20.539  39.027  13.384
 6816W        W79241  31.646   3.793   4.311
 6817W        W79242   1.372  29.141   2.338
 6818W        W79243  44.792  18.163  11.870
 6819W        W79244  30.475   3.872  12.374
 6820W        W79245  26.109  44.378  14.414
 6821W        W79246  17.571   9.686  13.972
 6822W        W79247  21.199  14.822  10.497
 6823W        W79248   2.819  13.714  12.528
 6824W        W79249  16.616  42.386   1.342
 6825W        W79250  32.622  10.313   4.745
 6826W        W79251  31.088   2.920   0.253
 6827W        W79252  41.845  17.305  11.924
 6828W        W79253   6.884  27.984  12.547
 6829W        W79254  19.607   4.328   1.414
 6830W        W79255  31.992  43.977   3.775
 6831W        W79256  44.286  44.006  13.930
 6832W        W79257  21.731  23.499  14.986
 6833W        W79258  15.765  12.709  10.042
 6834W        W79259  12.768  30.148   4.678
 6835W        W79260  27.613  24.061  12.369
 6836W        W79261  36.365   9.810  10.644
 6837W        W79262   4.371   2.400  14.501
 6838W        W79263  40.402   0.288  13.344
 6839W        W79264  14.172  42.838  11.050
 6840W        W79265   9.294   6.872   2.787
 6841W        W79266  20.724  28.064   4.598
 6842W        W79267  33.016  37.868  11.100
 6843W        W79268  42.358  18.785  14.850
 6844W        W79269  39.558  12.264   3.317
 6845W        W79270  31.034   5.906   1.383
 6846W        W79271  43.372  28.090  13.348
 6847W        W79272   9.280   9.387   4.704
 6848W        W79273  11.127  16.313   0.881
 6849W        W79274  20.205   4.749  13.838
 6850W        W79275  25.018   0.847  10.610
 6851W        W79276  32.481   7.319   3.232
 6852W        W79277  11.791  42.476  14.763
 6853W        W79278  43.327  34.040  13.911
 6854W        W79279  38.542  28.125  13.045
 6855W        W79280  34.431  15.170   4.169
 6856W        W79281  28.587  11.856   3.196
 6857W        W79282  37.009  38.002  11.059
 6858W        W79283  40.919  28.525   4.327
 6859W        W79284  33.510  12.641   4.833
 6860W        W79285  15.749  31.933   2.328
 6861W        W79286  40.424  32.952   4.183
 6862W        W79287  12.781  37.026   4.307
 6863W        W79288  30.030  43.770   2.222
 6864W        W79289  14.187  30.096  13.971
 6865W        W79290  30.087  37.070   1.859
 6866W        W79291  38.352  15.778   0.906
 6867W        W79292  27.492   4.740   1.863
 6868W        W79293  37.906  39.873   4.720
 6869W        W79294   9.239   1.384  13.464
 6870W        W79295  37.032  29.143  10.454
 6871W        W79296  14.669   9.184   4.271
 6872W        W79297  35.984   6.329   2.183
 6873W        W79298  34.492  23.050   3.357
 6874W        W79299  42.418  13.825   4.267
 6875W        W79300  17.278  29.089  12.042
 6876W        W79301  16.135  30.423   3.271
 6877W        W79302  42.963  34.593   2.370
 6878W        W79303   9.865  39.500   3.697
 6879W        W79304   4.807   3.878   2.223
 6880W        W79305  29.574   4.775  12.061
 6881W        W79306   2.448  37.396   3.852
 6882W        W79307  43.291  17.093   3.222
 6883W        W79308  12.800   2.299   2.848
 6884W        W79309  23.000  29.436  12.446
 6885W        W79310   3.859  42.844  13.830
 6886W        W79311  33.500  14.095   0.409
 6887W        W79312   4.356  18.099  11.108
 6888W        W79313  40.856   7.239   3.638
 6889W        W79314  23.718  20.659  13.846
 6890W        W79315  43.846  16.620  14.792
 6891W        W79316  18.137  34.598  12.856
 6892W        W79317  34.982  20.160  13.366
 6893W        W79318  22.713  13.800  11.876
 6894W        W79319  24.126  29.954  11.125
 6895W        W79320  32.034  35.545   0.438
 6896W        W79321   9.653  34.872   3.362
 6897W        W79322  39.413  19.258  13.415
 6898W        W79323   5.752  29.667   4.818
 6899W        W79324  16.724   2.931   0.394
 6900W        W79325  26.128  16.574   4.702
 6901W        W79326  13.176  37.402   1.396
 6902W        W79327  24.213  18.665   2.330
 6903W        W79328  42.351  27.067  11.917
 6904W        W79329  19.716   1.413  12.014
 6905W        W79330  26.475  27.489   1.841
 6906W        W79331   2.907  12.229   1.760
 6907W        W79332  15.814  23.180   4.209
 6908W        W79333   2.920  22.031  11.425
 6909W        W79334  42.874  35.900  13.523
 6910W        W79335  23.138  34.492   0.797
 6911W        W79336  14.226  40.419  12.878
 6912W        W79337  42.295  41.951   1.866
 6913W        W79338  18.615  43.308   1.915
 6914W        W79339  20.220  31.470   3.341
 6915W        W79340  15.202  37.523  14.031
 6916W        W79341  25.541   4.409  14.498
 6917W        W79342   7.318  16.800   4.807
 6918W        W79343   8.674  20.058  14.826
 6919W        W79344  33.566  22.024  12.356
 6920W        W79345   5.719  17.299   0.466
 6921W        W79346   3.419   3.898   2.301
 6922W        W79347  33.034  27.146   2.189
 6923W        W79348   4.345  30.952   1.433
 6924W        W79349  44.271  17.635  14.856
 6925W        W79350  14.194  10.711   4.734
 6926W        W79351  31.087  25.042  10.977
 6927W        W79352  26.185  12.773  13.977
 6928W        W79353  21.053  31.510   4.294
 6929W        W79354  28.460  38.046   0.254
 6930W        W79355   5.731  20.688  13.899
 6931W        W79356   9.769  21.550  11.865
 6932W        W79357  17.144  13.846  12.554
 6933W        W79358   0.387  13.709  10.987
 6934W        W79359   5.334  15.256  13.523
 6935W        W79360  42.977  41.414  11.470
 6936W        W79361  33.008   0.447   4.686
 6937W        W79362  29.595  38.343   0.893
 6938W        W79363   2.932  26.962  12.502
 6939W        W79364  34.460  27.578   2.831
 6940W        W79365  35.537  13.329  14.462
 6941W        W79366  34.399  32.568  14.502
 6942W        W79367  12.191  26.094   1.795
 6943W        W79368  24.166  36.922  11.427
 6944W        W79369  38.033  44.898   4.813
 6945W        W79370  22.638  41.933   1.351
 6946W        W79371  38.953  20.155   0.427
 6947W        W79372   5.752  27.681   4.816
 6948W        W79373  22.534  36.569   4.158
 6949W        W79374  43.813   1.452  14.022
 6950W        W79375   0.928   5.929   1.779
 6951W        W79376  26.590   2.753   0.750
 6952W        W79377   8.872   3.222   0.960
 6953W        W79378  33.399  12.849  11.468
 6954W        W79379  25.089  20.526   4.252
 6955W        W79380  20.064   5.755   4.161
 6956W        W79381  31.568  10.238   0.896
 6957W        W79382   1.329  18.075   0.766
 6958W        W79383  30.984  38.914  10.593
 6959W        W79384  13.791   1.457  13.385
 6960W        W79385   5.333   1.273  13.041
 6961W        W79386  31.618  11.625   1.423
 6962W        W79387  44.326  17.573  10.953
 6963W        W79388  41.306  33.907  10.561
 6964W        W79389   0.856  42.317   2.726
 6965W        W79390  32.469  39.949  10.410
 6966W        W79391  43.867  12.127  13.064
 6967W        W79392  36.350  26.547   9.923
 6968W        W79393  38.014  23.607   4.206
 6969W        W79394  25.655   2.233  13.977
 6970W        W79395  24.633  27.134  11.971
 6971W        W79396  22.091  44.827  14.406
 6972W        W79397  35.429  37.381  10.424
 6973W        W79398   1.400  10.740   0.967
 6974W        W79399  11.368  35.452   1.422
 6975W        W79400  35.987   4.440   1.844
 6976W        W79401  18.248  35.101  13.943
 6977W        W79402  37.927  19.211   3.675
 6978W        W79403  15.139  21.204  14.344
 6979W        W79404  41.913  13.682  10.535
 6980W        W79405  22.623  12.322   4.633
 6981W        W79406   5.423  23.204  14.419
 6982W        W79407  30.580  37.426   2.711
 6983W        W79408  20.569  16.149  13.442
 6984W        W79409  11.759  17.745   2.376
 6985W        W79410  15.690   1.241  11.395
 6986W        W79411  16.651  13.706   3.813
 6987W        W79412  38.516  40.023  13.904
 6988W        W79413   7.666  30.615  13.968
 6989W        W79414  42.421  15.169  13.503
 6990W        W79415  12.693  14.242   3.339
 6991W        W79416   0.274  35.409  11.567
 6992W        W79417   1.342  21.611  11.084
 6993W        W79418  42.807  20.091  12.566
 6994W        W79419  38.452  13.349   1.881
 6995W        W79420  28.644  44.289  10.410
 6996W        W79421  37.497  18.609   3.824
 6997W        W79422  14.782  35.450  13.022
 6998W        W79423  22.008  40.055  13.989
 6999W        W79424  23.508  16.659   0.758
 7000W        W79425  32.608  43.867  14.910
 7001W        W79426  26.123  36.050   4.309
 7002W        W79427  41.898  17.262   3.833
 7003W        W79428  43.778  31.143   3.245
 7004W        W79429  39.809  44.793  10.903
 7005W        W79430   9.269  42.955   1.355
 7006W        W79431  21.101   1.343   4.258
 7007W        W79432  18.653  23.532   5.192
 7008W        W79433   3.374  29.451  13.035
 7009W        W79434  20.106   5.201   0.434
 7010W        W79435  18.226   8.322  14.407
 7011W        W79436   9.798   6.920  10.433
 7012W        W79437   7.763  41.509   3.363
 7013W        W79438  24.225  40.327  11.422
 7014W        W79439  43.843  34.454   2.770
 7015W        W79440  13.797  15.808  13.822
 7016W        W79441  22.107  12.853  13.474
 7017W        W79442  44.265  24.608   1.841
 7018W        W79443  11.182  40.495  13.531
 7019W        W79444  25.565  17.727   4.218
 7020W        W79445  14.734  16.173  11.470
 7021W        W79446  37.055   0.919  12.466
 7022W        W79447  44.765  15.148   0.264
 7023W        W79448  36.925  15.261  11.417
 7024W        W79449   0.460  42.489  11.576
 7025W        W79450  36.896  37.476  13.402
 7026W        W79451  32.069  24.070   1.407
 7027W        W79452  21.536   7.672   1.292
 7028W        W79453   5.929   7.851   4.246
 7029W        W79454  18.052   1.954   3.285
 7030W        W79455  30.939  32.043  14.762
 7031W        W79456  41.498  18.282   0.296
 7032W        W79457   8.728   1.929  12.499
 7033W        W79458   3.824   7.248  12.084
 7034W        W79459  16.233  29.144  14.778
 7035W        W79460  42.777  12.818   3.266
 7036W        W79461  12.746  31.921  10.435
 7037W        W79462  27.006  17.766   2.319
 7038W        W79463  44.847   3.382   1.385
 7039W        W79464  26.495  26.979   0.363
 7040W        W79465  35.451  34.873   1.409
 7041W        W79466  30.955  10.256  11.882
 7042W        W79467  35.989   9.715   4.795
 7043W        W79468   0.409   6.848  10.430
 7044W        W79469  19.281  24.088   2.326
 7045W        W79470  23.621  14.303   0.840
 7046W        W79471  20.226  35.454   0.445
 7047W        W79472  36.456   1.875   4.158
 7048W        W79473  44.465  29.114  13.444
 7049W        W79474   2.333  10.202  10.031
 7050W        W79475  44.272   6.877  14.440
 7051W        W79476  12.834  31.577   0.890
 7052W        W79477  11.361  19.773   3.735
 7053W        W79478   7.773  43.782   0.434
 7054W        W79479  15.646  39.518   4.830
 7055W        W79480  36.542  27.631   1.703
 7056W        W79481  19.212   8.311  10.999
 7057W        W79482  32.938  42.836   0.286
 7058W        W79483   7.675  32.465  13.793
 7059W        W79484  22.727  29.958   3.703
 7060W        W79485  44.937  16.200  14.361
 7061W        W79486   0.481  21.566  13.509
 7062W        W79487  18.215  44.434   1.229
 7063W        W79488  33.075  28.941   4.258
 7064W        W79489  29.574  32.133  10.008
 7065W        W79490  13.691  11.832  12.849
 7066W        W79491  41.530  33.067   4.141
 7067W        W79492  16.198   7.231  14.462
 7068W        W79493   6.373  12.240  12.573
 7069W        W79494   8.858  17.760   2.728
 7070W        W79495   7.874   3.896  11.033
 7071W        W79496  21.754  19.202   0.312
 7072W        W79497   4.399  19.134  12.498
 7073W        W79498  27.493  11.817  14.012
 7074W        W79499   6.246  23.045  12.941
 7075W        W79500  32.546  15.262  10.999
 7076W        W79501   6.380  24.033   1.812
 7077W        W79502   5.718  41.498  12.389
 7078W        W79503  37.454  26.584  13.863
 7079W        W79504  34.061  22.694   4.713
 7080W        W79505  21.580  11.785   4.656
 7081W        W79506   8.834  36.434   2.664
 7082W        W79507  21.563  30.658  14.818
 7083W        W79508  34.485   3.863   4.743
 7084W        W79509  43.497   8.868  12.543
 7085W        W79510  19.545  10.167  10.889
 7086W        W79511  44.932  26.150  12.526
 7087W        W79512  18.644  38.464  12.407
 7088W        W79513  32.008  43.825   2.280
 7089W        W79514  40.437  19.701   0.843
 7090W        W79515   4.816  34.410   4.701
 7091W        W79516  28.599  19.604   4.168
 7092W        W79517  21.730  23.680   2.278
 7093W        W79518  19.100  20.222   0.761
 7094W        W79519  34.610  17.224   0.919
 7095W        W79520  34.887  12.210  12.342
 7096W        W79521  14.287  19.168   3.716
 7097W        W79522   1.399  12.254   1.446
 7098W        W79523   9.180  15.768  14.493
 7099W        W79524   4.856  19.048  14.278
 7100W        W79525  28.960  15.620  13.826
 7101W        W79526   5.374  23.082   4.201
 7102W        W79527  16.155  42.836   0.948
 7103W        W79528  43.367   4.310   0.859
 7104W        W79529  21.043  22.707   4.697
 7105W        W79530  13.293  21.565   2.754
 7106W        W79531  33.125   0.341   2.861
 7107W        W79532  35.456  44.391  12.927
 7108W        W79533  17.631  16.093  13.999
 7109W        W79534  11.240  39.004  13.526
 7110W        W79535  37.461  12.771  13.412
 7111W        W79536  39.552  14.663   2.267
 7112W        W79537  14.809  21.620  13.826
 7113W        W79538   7.817  27.106  11.004
 7114W        W79539  16.292  22.630  12.938
 7115W        W79540   6.703  41.413  11.433
 7116W        W79541  31.620  12.856   1.302
 7117W        W79542   9.194  12.304  12.387
 7118W        W79543  31.938   5.353   1.447
 7119W        W79544  11.175  29.163  12.420
 7120W        W79545  41.486  44.931   1.929
 7121W        W79546   0.789  44.416   1.219
 7122W        W79547   5.841  37.568  13.904
 7123W        W79548   7.260  11.860  13.860
 7124W        W79549  13.662  21.103   9.997
 7125W        W79550  37.899  44.799   4.186
 7126W        W79551   9.838   6.901  11.441
 7127W        W79552   3.842   9.286  11.587
 7128W        W79553   9.253  11.767   1.348
 7129W        W79554  22.033  19.188  14.864
 7130W        W79555  10.720   4.914   3.661
 7131W        W79556  18.757  15.202  11.027
 7132W        W79557  29.077   7.893   3.843
 7133W        W79558  19.642  21.552   4.210
 7134W        W79559  22.568  11.784   1.296
 7135W        W79560  13.106  18.746   1.871
 7136W        W79561  31.024  22.019  11.527
 7137W        W79562  16.260   4.379  13.016
 7138W        W79563  33.892  15.777  13.520
 7139W        W79564  15.644   0.321  11.371
 7140W        W79565  14.654  25.118   1.388
 7141W        W79566  42.902  40.321   0.758
 7142W        W79567  11.227  20.745  12.977
 7143W        W79568  12.675  28.435  10.946
 7144W        W79569  18.144  36.067  10.926
 7145W        W79570  16.315  18.187   4.156
 7146W        W79571  34.392  21.161  11.058
 7147W        W79572  29.100  38.957   3.214
 7148W        W79573   7.790  29.097  13.493
 7149W        W79574  42.852   6.413  11.857
 7150W        W79575  27.589  31.495  11.098
 7151W        W79576  39.523  10.341  14.843
 7152W        W79577   7.747  17.717   0.337
 7153W        W79578  10.691  21.621  12.510
 7154W        W79579  21.518  21.621  14.297
 7155W        W79580  35.979   5.721   2.272
 7156W        W79581  14.143  16.122   2.328
 7157W        W79582  14.756  18.615   0.294
 7158W        W79583  33.467   5.326   3.857
 7159W        W79584  37.524  37.885  13.064
 7160W        W79585  31.066   0.485   0.372
 7161W        W79586  33.991   5.771  10.427
 7162W        W79587  19.068  26.689   5.151
 7163W        W79588  16.272  21.046   0.936
 7164W        W79589   3.349  15.105  11.371
 7165W        W79590  10.822  15.717  14.959
 7166W        W79591  23.543  33.598  13.407
 7167W        W79592  33.380   2.405   1.439
 7168W        W79593  20.228  15.720  14.907
 7169W        W79594   5.394  11.269  14.489
 7170W        W79595  26.522  31.072   3.226
 7171W        W79596  40.382   9.325  13.490
 7172W        W79597  11.661  15.665   2.368
 7173W        W79598   0.786  26.201  13.882
 7174W        W79599  16.271  30.599  13.383
 7175W        W79600   4.746  22.165   0.873
 7176W        W79601  19.193  31.090   4.780
 7177W        W79602   2.402  17.162   2.764
 7178W        W79603  16.169  26.064   4.759
 7179W        W79604  40.029  35.394  12.474
 7180W        W79605  27.984  36.095   3.708
 7181W        W79606   9.735  44.269   0.880
 7182W        W79607  14.337  35.498  11.567
 7183W        W79608  25.072  15.669   4.615
 7184W        W79609  26.635   1.458   3.798
 7185W        W79610  25.057  36.424   3.781
 7186W        W79611   3.757   4.223   4.684
 7187W        W79612  39.490  12.347  13.943
 7188W        W79613  37.436  36.928   3.704
 7189W        W79614   7.873   8.659  14.295
 7190W        W79615  14.794  30.543   1.347
 7191W        W79616  42.393  19.077   5.275
 7192W        W79617  43.306   9.338  12.400
 7193W        W79618  17.760  29.514   3.281
 7194W        W79619   8.896  36.380  12.955
 7195W        W79620   0.460  12.321  13.518
 7196W        W79621  43.480  12.288   4.179
 7197W        W79622  36.468  24.193   0.273
 7198W        W79623  14.803  12.279   4.651
 7199W        W79624  29.490  10.658   1.213
 7200W        W79625  44.840  25.637   2.894
 7201W        W79626   1.425  26.087   2.354
 7202W        W79627  40.385  15.306  12.934
 7203W        W79628   5.827  33.448  11.602
 7204W        W79629  15.198  34.032   4.159
 7205W        W79630  32.406  27.455   3.210
 7206W        W79631  18.098   3.894   3.858
 7207W        W79632  38.968   6.204  10.925
 7208W        W79633  10.383  31.526   2.348
 7209W        W79634   3.827  18.588   2.341
 7210W        W79635  29.924   0.766   1.852
 7211W        W79636  35.570  23.147  14.319
 7212W        W79637  17.268  21.745   3.319
 7213W        W79638  39.392  18.194   2.877
 7214W        W79639  33.976  19.164   4.273
 7215W        W79640  31.958  39.457   0.470
 7216W        W79641  42.449   9.156  13.542
 7217W        W79642  36.437  36.015  13.451
 7218W        W79643  12.708   8.200   3.177
 7219W        W79644  11.625  13.623  13.314
 7220W        W79645   0.811  12.791   0.879
 7221W        W79646  18.094  17.771   4.181
 7222W        W79647  12.198   4.765   5.230
 7223W        W79648  32.030  15.741   2.401
 7224W        W79649  18.597   2.237   1.735
 7225W        W79650   6.236  25.129   4.193
 7226W        W79651  21.727  42.526  13.324
 7227W        W79652   5.282  20.082   4.306
 7228W        W79653  20.566  26.031   1.275
 7229W        W79654  27.057  20.733   3.826
 7230W        W79655  15.799   4.936   4.645
 7231W        W79656  21.690  41.043   1.391
 7232W        W79657  15.696   5.744   1.841
 7233W        W79658  22.132  39.984   1.698
 7234W        W79659   6.319  28.165  12.519
 7235W        W79660  28.979  40.376  14.283
 7236W        W79661  40.396  43.957   4.300
 7237W        W79662   5.894   6.687   2.222
 7238W        W79663   0.829  14.280  10.494
 7239W        W79664   4.708  12.143   4.695
 7240W        W79665  30.524  34.043   2.783
 7241W        W79666  30.489   7.901   2.849
 7242W        W79667  18.242  18.760   1.425
 7243W        W79668  11.749  32.950   4.819
 7244W        W79669   5.861  36.487   3.759
 7245W        W79670  22.096  39.517  14.310
 7246W        W79671  32.139  21.120   1.715
 7247W        W79672  24.540  16.642   1.367
 7248W        W79673  37.423  39.870   0.829
 7249W        W79674   8.788  22.728  11.061
 7250W        W79675   9.213  43.444  14.993
 7251W        W79676  12.171   5.257  11.960
 7252W        W79677  31.619   7.326   2.712
 7253W        W79678  15.615  40.923   4.678
 7254W        W79679  43.393  40.488   1.913
 7255W        W79680  27.983   7.725  13.929
 7256W        W79681  15.761  35.881  12.441
 7257W        W79682  20.733  15.726  13.412
 7258W        W79683  28.090   5.809   0.468
 7259W        W79684  31.486   7.285   1.381
 7260W        W79685  29.456  13.310  11.534
 7261W        W79686   4.238   9.274   2.863
 7262W        W79687  44.783  36.483  11.984
 7263W        W79688  21.025  24.202   2.320
 7264W        W79689  42.367  19.056   3.212
 7265W        W79690  23.645   8.253  12.035
 7266W        W79691  27.546   2.444   0.469
 7267W        W79692  43.404  30.625   5.248
 7268W        W79693   2.911   6.686   0.389
 7269W        W79694  33.429  26.049   2.255
 7270W        W79695  26.520  20.046  12.823
 7271W        W79696  29.126  16.077   2.749
 7272W        W79697  20.068  39.829   3.858
 7273W        W79698  34.579   9.158   0.406
 7274W        W79699  11.366   5.759  13.796
 7275W        W79700  10.640   8.326   4.193
 7276W        W79701  43.828  11.133   3.241
 7277W        W79702  35.487  23.617   4.300
 7278W        W79703   9.870  29.436   1.811
 7279W        W79704  37.912   8.238  13.980
 7280W        W79705  19.573   6.746   2.390
 7281W        W79706   3.926  19.668   2.394
 7282W        W79707  38.869  28.184  12.071
 7283W        W79708  16.791  37.384   1.772
 7284W        W79709  13.730   0.852  11.607
 7285W        W79710  25.661   8.162  14.883
 7286W        W79711  37.376  21.536   4.690
 7287W        W79712  10.867  39.971   1.210
 7288W        W79713   2.803   9.721  10.984
 7289W        W79714  23.574  42.433   0.890
 7290W        W79715  28.117  36.557  11.919
 7291W        W79716   6.751  10.183   4.285
 7292W        W79717  19.552  27.623  14.478
 7293W        W79718  22.093  36.013  12.872
 7294W        W79719  27.668  10.810   1.237
 7295W        W79720  12.313  16.243  12.046
 7296W        W79721   7.689   4.338  12.914
 7297W        W79722  19.184  18.133  13.452
 7298W        W79723  15.808  39.940   2.841
 7299W        W79724  32.408   6.854  14.451
 7300W        W79725  33.904  23.022  13.899
 7301W        W79726  24.111   0.927   3.184
 7302W        W79727  33.544  21.178   4.194
 7303W        W79728  11.328  21.103  11.562
 7304W        W79729   5.226   9.371  10.938
 7305W        W79730  34.457  33.406   2.676
 7306W        W79731  21.748  37.477  11.885
 7307W        W79732   3.333   2.915   1.746
 7308W        W79733  11.239   5.321   2.382
 7309W        W79734   8.168  12.851  14.888
 7310W        W79735   4.787  20.631  10.596
 7311W        W79736  27.028  37.568   4.817
 7312W        W79737  20.145  12.741   5.187
 7313W        W79738   8.206  41.833  13.800
 7314W        W79739  30.640  28.025   1.385
 7315W        W79740   0.954  14.816   0.905
 7316W        W79741  24.598  22.251  11.934
 7317W        W79742  30.087   9.879   2.223
 7318W        W79743   2.764  42.014   2.272
 7319W        W79744  34.937  44.316   0.762
 7320W        W79745  35.602  37.418   3.665
 7321W        W79746  14.677  29.567  11.559
 7322W        W79747  25.091  18.676  14.805
 7323W        W79748   6.343  34.929   0.366
 7324W        W79749  34.597  19.185  13.062
 7325W        W79750  12.116   6.212   3.327
 7326W        W79751  27.027   8.777  14.923
 7327W        W79752  15.738  10.167  13.350
 7328W        W79753  18.207  36.398  14.855
 7329W        W79754  34.873  19.716  14.513
 7330W        W79755  42.300  36.028  12.373
 7331W        W79756  12.314  35.426   1.714
 7332W        W79757  39.961  40.998   3.196
 7333W        W79758  30.437  40.953  13.503
 7334W        W79759  44.413  22.533   3.737
 7335W        W79760  12.723  21.565  13.545
 7336W        W79761  21.667   4.937  14.423
 7337W        W79762   7.405  29.584   2.196
 7338W        W79763  41.338  44.413   4.728
 7339W        W79764  11.722  27.543  13.971
 7340W        W79765  35.929  14.110  12.428
 7341W        W79766  15.159  10.264   4.818
 7342W        W79767   4.239   8.815   2.753
 7343W        W79768  40.318  23.090   3.237
 7344W        W79769  36.395  16.299  10.439
 7345W        W79770  33.009  12.269  12.447
 7346W        W79771  24.056  19.152   1.732
 7347W        W79772   6.831   4.895  10.599
 7348W        W79773   2.940  13.150  13.827
 7349W        W79774   6.773  18.779   4.710
 7350W        W79775  11.637  22.201  10.958
 7351W        W79776  28.060   2.818   1.377
 7352W        W79777  42.847  19.244   3.259
 7353W        W79778  18.643  19.632   4.619
 7354W        W79779  17.689   5.712  11.475
 7355W        W79780  31.007  26.980   2.747
 7356W        W79781   2.351  15.237   2.813
 7357W        W79782  29.600   2.810  11.887
 7358W        W79783   7.899  28.578   0.938
 7359W        W79784   9.238  18.651  13.346
 7360W        W79785  13.139  42.875  12.901
 7361W        W79786  43.433  21.135  14.875
 7362W        W79787  23.578  18.752   4.189
 7363W        W79788  27.105  36.396   3.698
 7364W        W79789  19.752   3.818  13.880
 7365W        W79790   4.818  32.551   4.177
 7366W        W79791  14.665   1.375  13.909
 7367W        W79792  34.038  39.859   1.355
 7368W        W79793  43.506  41.819  13.461
 7369W        W79794  38.331   6.873   1.792
 7370W        W79795   6.720  44.400   1.232
 7371W        W79796  41.310   2.894   1.812
 7372W        W79797  18.626  25.644  11.929
 7373W        W79798  34.451  27.977  13.929
 7374W        W79799  28.620  35.034   2.315
 7375W        W79800  20.056  29.130  12.566
 7376W        W79801   9.828   4.854   4.343
 7377W        W79802  33.507  38.008  14.363
 7378W        W79803  27.529  44.455  10.560
 7379W        W79804  35.093   4.402   0.321
 7380W        W79805  12.295  34.385  12.538
 7381W        W79806  32.515  23.100  12.994
 7382W        W79807  39.330  17.709   0.772
 7383W        W79808  21.700  37.473  13.828
 7384W        W79809  21.534   2.231   3.639
 7385W        W79810  26.565  38.967   4.334
 7386W        W79811  34.967  17.769  12.380
 7387W        W79812  43.959  14.643   4.181
 7388W        W79813  26.079  38.035  11.589
 7389W        W79814  35.064  20.683  12.472
 7390W        W79815   2.295  23.000  14.958
 7391W        W79816  29.499  37.344  12.376
 7392W        W79817   6.750   7.388   2.191
 7393W        W79818  21.678  39.443   3.715
 7394W        W79819  11.284  24.596  11.385
 7395W        W79820  21.184  19.554  10.508
 7396W        W79821  15.729   2.779  13.987
 7397W        W79822  24.713  31.555  14.794
 7398W        W79823  12.233  17.061  12.855
 7399W        W79824  15.086  37.870  12.481
 7400W        W79825  31.476  13.189   4.341
 7401W        W79826  29.110  37.407  11.448
 7402W        W79827  20.089   0.313  12.483
 7403W        W79828   9.700  15.667  13.885
 7404W        W79829   8.801   3.451  13.407
 7405W        W79830  17.190  27.677   3.869
 7406W        W79831  40.404  42.830   2.710
 7407W        W79832  34.447  26.500   4.692
 7408W        W79833  44.339  36.454  12.506
 7409W        W79834   2.404  10.857  11.511
 7410W        W79835  29.460  22.027   0.273
 7411W        W79836  29.961  15.664   0.837
 7412W        W79837   7.366   6.361  13.360
 7413W        W79838   4.324  25.479   3.831
 7414W        W79839  37.916  15.321  13.449
 7415W        W79840  41.302  39.940   0.392
 7416W        W79841   2.821  11.351  13.327
 7417W        W79842  42.976  10.337   4.169
 7418W        W79843  18.160  19.202  10.492
 7419W        W79844  27.653  38.502   0.798
 7420W        W79845   2.912  24.514   3.749
 7421W        W79846  23.679   4.862  13.505
 7422W        W79847  14.727  13.318   2.405
 7423W        W79848  18.284   7.778   1.932
 7424W        W79849  38.858  30.575  11.112
 7425W        W79850  10.811   5.429   1.807
 7426W        W79851  19.675  19.055   4.351
 7427W        W79852  19.662  39.540   0.900
 7428W        W79853  13.736   8.267   0.426
 7429W        W79854  26.468  29.055  14.381
 7430W        W79855  28.986  18.787   3.721
 7431W        W79856  41.343  37.536  11.096
 7432W        W79857  40.487   4.292  14.349
 7433W        W79858  26.966  11.846   4.328
 7434W        W79859  32.043  12.223   1.919
 7435W        W79860  14.706  42.526  13.534
 7436W        W79861   1.478  32.069   4.761
 7437W        W79862   0.303  14.771   1.401
 7438W        W79863  12.640   3.789   5.301
 7439W        W79864  13.155  16.783   4.780
 7440W        W79865  18.061  39.964  10.537
 7441W        W79866  28.643  28.587   2.259
 7442W        W79867   1.893  14.338  11.457
 7443W        W79868  39.549   9.292   3.335
 7444W        W79869   6.274  29.528  12.053
 7445W        W79870  13.120  39.896  11.521
 7446W        W79871   7.268   3.867  10.932
 7447W        W79872  22.689   7.285  11.438
 7448W        W79873  43.983  27.130   1.241
 7449W        W79874  38.434  42.983   4.712
 7450W        W79875  30.519   3.315   3.222
 7451W        W79876  35.519   6.784   4.675
 7452W        W79877  44.448   4.277  13.791
 7453W        W79878   0.399   2.862  13.912
 7454W        W79879  43.006  23.058   4.129
 7455W        W79880  30.942   4.235   1.298
 7456W        W79881   7.862   3.789   1.906
 7457W        W79882  22.675  11.759  12.418
 7458W        W79883  31.128  40.470   0.792
 7459W        W79884   6.234  20.125   3.774
 7460W        W79885  35.104  29.652   3.302
 7461W        W79886  27.143   7.839   0.309
 7462W        W79887   2.270  43.005   3.153
 7463W        W79888  26.995  23.001   4.262
 7464W        W79889  27.970  17.123   3.162
 7465W        W79890   7.893  29.547   1.698
 7466W        W79891   1.268  36.529   3.661
 7467W        W79892  10.207  21.127   0.935
 7468W        W79893  39.928  43.977   4.207
 7469W        W79894  44.421  11.271   0.393
 7470W        W79895  12.630  27.681  10.631
 7471W        W79896  36.545   6.699   0.348
 7472W        W79897  36.904   8.764  13.836
 7473W        W79898   9.259  43.778   1.777
 7474W        W79899  17.240  35.472   0.424
 7475W        W79900  19.091  43.325   3.832
 7476W        W79901  43.994   0.930   3.747
 7477W        W79902  38.526  30.626  13.359
 7478W        W79903  42.387  21.094  11.586
 7479W        W79904  23.117  17.668   4.651
 7480W        W79905  37.390  30.065   4.836
 7481W        W79906  42.297  36.920  12.399
 7482W        W79907   0.261  26.069  14.964
 7483W        W79908  42.355  25.219  13.859
 7484W        W79909  36.907  44.854  12.435
 7485W        W79910  41.469  36.057  10.954
 7486W        W79911  24.191  21.644  13.446
 7487W        W79912  34.021  29.163   4.697
 7488W        W79913  35.042  32.926   4.291
 7489W        W79914  19.704  31.032   1.847
 7490W        W79915  21.166   9.232  10.892
 7491W        W79916  42.899  20.191  12.874
 7492W        W79917  17.732  31.457   3.333
 7493W        W79918  36.511  33.551   5.271
 7494W        W79919  27.031  41.365  11.490
 7495W        W79920  27.500   6.379  13.420
 7496W        W79921  16.576   7.414   4.772
 7497W        W79922   8.843  20.171   4.293
 7498W        W79923  22.687  37.534   3.818
 7499W        W79924  35.423   5.781  11.004
 7500W        W79925  12.131  18.697   3.644
 7501W        W79926  20.725  41.391   4.240
 7502W        W79927  23.995  36.438  14.368
 7503W        W79928   9.157  14.318  11.855
 7504W        W79929   6.819  15.153  11.978
 7505W        W79930  42.016  21.218   1.749
 7506W        W79931  44.310  16.252   0.449
 7507W        W79932   5.211  14.591   2.394
 7508W        W79933  15.648   9.387  13.009
 7509W        W79934   2.429  42.285  14.339
 7510W        W79935  14.273  16.690   1.706
 7511W        W79936  39.387  42.795   3.348
 7512W        W79937  40.510   6.698  11.031
 7513W        W79938  33.506  38.966  14.348
 7514W        W79939  38.007  34.412   1.415
 7515W        W79940  16.317   9.724   3.760
 7516W        W79941  40.929   8.189   1.793
 7517W        W79942  25.112  39.065   4.619
 7518W        W79943   0.305  40.454  13.792
 7519W        W79944  10.759  35.092  11.382
 7520W        W79945  32.104  34.401  13.538
 7521W        W79946   4.766   0.381  11.929
 7522W        W79947  35.416  35.055   0.268
 7523W        W79948  27.982  35.995   5.111
 7524W        W79949  42.026  41.377  13.507
 7525W        W79950  38.536  20.732   0.731
 7526W        W79951  28.460   8.183   3.244
 7527W        W79952  30.983  24.530  12.509
 7528W        W79953  40.923  10.284  11.408
 7529W        W79954   9.375  19.039  13.403
 7530W        W79955  13.156  32.631  11.958
 7531W        W79956   4.425  13.793  14.943
 7532W        W79957  36.446  43.497  13.989
 7533W        W79958  25.017   5.259  11.574
 7534W        W79959  28.034  20.612  10.469
 7535W        W79960  29.974  38.929   5.224
 7536W        W79961  15.695  38.408  14.805
 7537W        W79962  43.993  17.150   1.305
 7538W        W79963   5.831  12.856   2.264
 7539W        W79964   7.250  42.829   5.185
 7540W        W79965  19.065  17.793  11.560
 7541W        W79966  17.755  42.339   4.675
 7542W        W79967   7.804  34.375   3.240
 7543W        W79968  31.464  24.193  11.082
 7544W        W79969   8.332  44.308   4.355
 7545W        W79970   3.280  23.172  11.489
 7546W        W79971  10.770   6.754  13.039
 7547W        W79972   3.344  26.993  13.897
 7548W        W79973  43.996  15.624   0.824
 7549W        W79974  11.648   6.296  11.025
 7550W        W79975  26.551  33.894   4.826
 7551W        W79976  27.449   2.312  10.476
 7552W        W79977   2.857  14.703  12.973
 7553W        W79978  12.117  26.978   0.838
 7554W        W79979  28.635  39.426  14.437
 7555W        W79980  41.832  10.665  10.966
 7556W        W79981  20.732   8.303  11.071
 7557W        W79982   3.807  37.428   3.796
 7558W        W79983  25.505  35.925  12.941
 7559W        W79984  23.215  40.395   4.632
 7560W        W79985   7.745  34.596   2.216
 7561W        W79986   7.343  16.804   2.693
 7562W        W79987  42.784  43.986  10.615
 7563W        W79988  30.021  20.584   0.382
 7564W        W79989  32.042   7.810  13.947
 7565W        W79990  34.514  12.333   1.778
 7566W        W79991   7.888  34.096   0.447
 7567W        W79992   1.834  14.756   3.784
 7568W        W79993  35.412  24.632  12.921
 7569W        W79994  12.311   3.783   1.313
 7570W        W79995   5.914   5.828   0.456
 7571W        W79996   3.760   4.869   4.348
 7572W        W79997   4.702   9.194  11.912
 7573W        W79998  38.889   9.873   2.841
 7574W        W79999  11.733  43.891   1.243
 7575W        W80000  10.264  43.777   3.235
 7576W        W80001  25.150  30.082  11.523
 7577W        W80002   6.743   5.868  11.922
 7578W        W80003  24.224  19.773  10.625
 7579W        W80004  25.090   6.873  14.787
 7580W        W80005   2.899  35.857   2.840
 7581W        W80006  21.675  11.137  14.789
 7582W        W80007  14.236  13.261  11.907
 7583W        W80008  27.582  33.978  12.883
 7584W        W80009  39.475  13.722   1.753
 7585W        W80010  29.497  10.144  10.044
 7586W        W80011  20.114   9.298   3.706
 7587W        W80012   2.886  33.991  13.438
 7588W        W80013  13.276  16.673   2.881
 7589W        W80014  23.631   0.428   0.298
 7590W        W80015   7.771  30.025   1.726
 7591W        W80016   9.181  25.530  14.342
 7592W        W80017   8.885  20.634   4.213
 7593W        W80018  31.536  14.105   2.782
 7594W        W80019  10.229  19.199   1.890
 7595W        W80020  22.182  30.088  11.024
 7596W        W80021   4.377  40.877  10.642
 7597W        W80022   4.901  18.602   2.844
 7598W        W80023  34.519  18.203  13.524
 7599W        W80024  19.057  40.329  14.455
 7600W        W80025   3.900  13.643  13.450
 7601W        W80026  35.450  39.907   0.814
 7602W        W80027  21.077  40.832   1.790
 7603W        W80028  29.135  44.467   4.726
 7604W        W80029   1.953  10.675   1.223
 7605W        W80030  32.098  32.525  13.384
 7606W        W80031  29.115  23.003   4.835
 7607W        W80032   8.286  31.516  13.886
 7608W        W80033  29.521  38.872   5.603
 7609W        W80034   9.155  27.006  14.785
 7610W        W80035   9.163  12.242  11.916
 7611W        W80036  26.566  20.569  14.960
 7612W        W80037  18.297  26.533  13.490
 7613W        W80038   0.435  16.794  11.579
 7614W        W80039   3.291  15.152  11.094
 7615W        W80040  41.982   8.842  10.957
 7616W        W80041  34.564   1.306   2.303
 7617W        W80042   0.756  15.283   1.307
 7618W        W80043  34.988  35.083   0.787
 7619W        W80044  21.558  29.518   4.768
 7620W        W80045  24.693  15.640   4.774
 7621W        W80046  35.388  17.629   1.410
 7622W        W80047  38.367  44.368  11.484
 7623W        W80048  11.657   2.230   9.469
 7624W        W80049   9.160   1.947   0.279
 7625W        W80050  20.535  16.745  11.951
 7626W        W80051  37.552  14.266   0.438
 7627W        W80052  22.050   6.328  11.406
 7628W        W80053  32.018  30.469  13.900
 7629W        W80054  35.479  14.145  14.477
 7630W        W80055   1.274  12.172  11.397
 7631W        W80056  38.069  19.145   1.771
 7632W        W80057  23.153  37.933  13.462
 7633W        W80058  28.997  32.084   3.718
 7634W        W80059  12.817  29.018   1.302
 7635W        W80060   8.311  11.237  13.422
 7636W        W80061  37.897  24.498   1.243
 7637W        W80062  28.645   4.415  14.374
 7638W        W80063  36.507  29.126   2.361
 7639W        W80064   2.383  38.443  14.452
 7640W        W80065  40.434  43.789   4.626
 7641W        W80066  41.943  35.519   4.775
 7642W        W80067  36.877   6.231   4.626
 7643W        W80068  29.662  22.702   0.345
 7644W        W80069  33.477  11.336  12.427
 7645W        W80070  31.583  32.483   3.272
 7646W        W80071  41.395  44.459   0.850
 7647W        W80072  19.042  21.595  12.355
 7648W        W80073  36.367  21.055   1.812
 7649W        W80074  41.989   4.929   1.276
 7650W        W80075   7.679  14.709  14.316
 7651W        W80076  33.943   0.292   1.830
 7652W        W80077   1.431   6.805   4.625
 7653W        W80078  14.782   7.405   4.635
 7654W        W80079  30.424   6.716   3.345
 7655W        W80080  31.594  38.527  13.834
 7656W        W80081  27.598  44.778  13.495
 7657W        W80082   7.795  17.561   3.321
 7658W        W80083   0.492  24.982   0.353
 7659W        W80084  36.955  20.625  11.610
 7660W        W80085  23.021  35.568   0.953
 7661W        W80086  38.949  33.402  14.016
 7662W        W80087  23.501   8.382   2.669
 7663W        W80088  18.134   1.354   1.754
 7664W        W80089  41.920  15.290   0.402
 7665W        W80090   0.898  18.211   4.223
 7666W        W80091   9.846  34.075   3.632
 7667W        W80092   7.901  29.109   2.286
 7668W        W80093  41.935  29.974  11.460
 7669W        W80094   9.170  33.991  10.532
 7670W        W80095  35.530  39.048   2.216
 7671W        W80096  25.497  12.293   3.257
 7672W        W80097  28.624  41.923  11.500
 7673W        W80098  37.847  29.054   1.804
 7674W        W80099   1.325  36.060  12.395
 7675W        W80100  25.991  27.993   2.320
 7676W        W80101  13.641  37.497   3.261
 7677W        W80102  21.040  44.472  14.865
 7678W        W80103  32.597   6.286   4.203
 7679W        W80104   8.325  38.886  11.574
 7680W        W80105  23.688  24.000   4.809
 7681W        W80106  36.437  21.141  12.435
 7682W        W80107   6.869   4.294   3.842
 7683W        W80108   2.361  25.536  11.053
 7684W        W80109  14.723  16.219   4.718
 7685W        W80110  11.840  27.185   2.323
 7686W        W80111  12.817  32.115   1.294
 7687W        W80112   0.845  27.131   2.681
 7688W        W80113  15.139  34.895   2.246
 7689W        W80114  12.803   6.336  11.120
 7690W        W80115  34.964  15.593  11.561
 7691W        W80116  44.988  27.581   3.281
 7692W        W80117   2.228  23.034  10.526
 7693W        W80118  11.198  40.432   0.923
 7694W        W80119   0.327  29.541  11.411
 7695W        W80120  27.498  10.805   4.733
 7696W        W80121  23.514  10.665  11.005
 7697W        W80122  14.266  22.648   3.660
 7698W        W80123  40.854  23.652   2.806
 7699W        W80124   8.169  25.510   2.196
 7700W        W80125  10.801  25.556   1.722
 7701W        W80126  10.360   4.274   0.786
 7702W        W80127  15.606  35.389   1.843
 7703W        W80128   5.729  32.531   4.165
 7704W        W80129  42.414  41.433  13.947
 7705W        W80130  31.457   8.866   0.734
 7706W        W80131  39.384  35.919   1.316
 7707W        W80132  11.852  37.998  10.909
 7708W        W80133  24.182   7.200   2.890
 7709W        W80134  26.009  14.796   0.785
 7710W        W80135  20.626  32.011   2.190
 7711W        W80136  28.141  22.097  11.942
 7712W        W80137  13.726  14.793  12.049
 7713W        W80138  31.096  42.884   1.899
 7714W        W80139   3.242   8.792   1.711
 7715W        W80140   4.716  31.493   1.783
 7716W        W80141  27.089  11.762  13.056
 7717W        W80142  13.210  32.606  13.307
 7718W        W80143   6.779  38.046  10.429
 7719W        W80144  22.746  31.078   0.747
 7720W        W80145   9.870  21.581   1.269
 7721W        W80146  26.954   2.427  12.417
 7722W        W80147  43.283   8.394  14.936
 7723W        W80148  11.800   4.400   3.671
 7724W        W80149  15.720  16.239  11.580
 7725W        W80150   2.891  41.494  14.372
 7726W        W80151   5.930  26.100   0.335
 7727W        W80152  10.161   8.891   2.200
 7728W        W80153   1.871   0.253   2.366
 7729W        W80154  18.609   7.752  12.429
 7730W        W80155  10.181   0.826   5.234
 7731W        W80156   9.386  34.383   2.740
 7732W        W80157  38.066   5.933   0.865
 7733W        W80158  18.632  11.282  14.317
 7734W        W80159   8.717  10.379  10.598
 7735W        W80160  16.083  37.833   0.747
 7736W        W80161  12.296   7.338  11.604
 7737W        W80162  25.501  34.987   0.328
 7738W        W80163   2.755  18.623   0.375
 7739W        W80164  23.552  10.691   2.863
 7740W        W80165  18.295   8.198   3.654
 7741W        W80166  25.486  15.638  14.017
 7742W        W80167  36.089  22.649   4.777
 7743W        W80168   2.253   3.792   1.422
 7744W        W80169  27.105  13.317   2.302
 7745W        W80170  25.088  19.267  12.532
 7746W        W80171  16.762  13.105   0.861
 7747W        W80172  24.565   9.184   0.906
 7748W        W80173  31.527  34.369   2.869
 7749W        W80174   3.256  44.981   4.267
 7750W        W80175  20.677  18.670   2.794
 7751W        W80176   6.343  35.424  13.974
 7752W        W80177   3.787  34.114  10.572
 7753W        W80178   2.472  26.958   3.270
 7754W        W80179  38.405   9.697  12.563
 7755W        W80180   0.349  36.062  13.004
 7756W        W80181  35.419  30.924  13.861
 7757W        W80182  40.804  27.570  14.952
 7758W        W80183  25.126   2.886  14.494
 7759W        W80184  20.042  33.537  13.060
 7760W        W80185  34.552   3.891   3.185
 7761W        W80186  12.184  21.225   1.749
 7762W        W80187  23.504  36.045  10.563
 7763W        W80188  18.213  37.963  11.991
 7764W        W80189  12.137  30.000   1.733
 7765W        W80190  22.664  24.071   2.183
 7766W        W80191  40.001  32.521   0.805
 7767W        W80192  14.165   7.286  12.864
 7768W        W80193  13.761  29.033   1.710
 7769W        W80194  17.217  34.912   1.741
 7770W        W80195  41.876  33.022   2.725
 7771W        W80196   5.817  16.120  14.988
 7772W        W80197  15.769   0.284   9.975
 7773W        W80198  10.820  24.010  12.082
 7774W        W80199  38.061  15.822   0.834
 7775W        W80200  23.700  31.575  12.476
 7776W        W80201  30.551  13.285   5.301
 7777W        W80202   8.674  19.210  10.470
 7778W        W80203  30.549  39.946  14.514
 7779W        W80204  28.163  42.304  11.016
 7780W        W80205  17.135   0.781   2.292
 7781W        W80206  33.429  39.555  11.860
 7782W        W80207   4.745  12.661  11.393
 7783W        W80208  20.271  10.641   9.624
 7784W        W80209  16.274  42.977   4.781
 7785W        W80210  12.798   8.901   2.379
 7786W        W80211  23.562  37.525   2.250
 7787W        W80212   7.813  33.059   2.311
 7788W        W80213  12.621  19.256  12.532
 7789W        W80214  30.000  25.613   0.264
 7790W        W80215  37.994   8.735   5.090
 7791W        W80216  36.844   1.873   3.653
 7792W        W80217  31.004  21.644   5.788
 7793W        W80218  16.072   9.220  11.582
 7794W        W80219   6.410   0.277   4.784
 7795W        W80220  21.696  43.764  11.451
 7796W        W80221  16.572  21.099   2.183
 7797W        W80222   8.403  17.796  13.328
 7798W        W80223  16.318  32.016   0.941
 7799W        W80224  19.261   4.364  11.100
 7800W        W80225  34.613  39.849  11.389
 7801W        W80226  16.161  24.486  13.469
 7802W        W80227  13.255  25.051   0.776
 7803W        W80228  38.458  39.956  12.065
 7804W        W80229  25.999  43.382   0.849
 7805W        W80230  13.265  30.993   4.354
 7806W        W80231   5.802   4.399  11.592
 7807W        W80232  34.424  10.225  10.957
 7808W        W80233  30.996  26.163  12.894
 7809W        W80234  22.532  11.252  12.097
 7810W        W80235  13.720  21.203   3.680
 7811W        W80236  10.146   0.782   3.184
 7812W        W80237   0.442  15.273  12.447
 7813W        W80238  16.568   5.865  14.339
 7814W        W80239  25.177  15.583  13.437
 7815W        W80240   9.854   5.773  14.978
 7816W        W80241   2.857  30.038   0.853
 7817W        W80242  26.042  11.294  10.416
 7818W        W80243  29.954   0.865  14.486
 7819W        W80244  30.086  30.065  10.537
 7820W        W80245  40.876  18.227  12.067
 7821W        W80246   8.724   0.445   0.266
 7822W        W80247  44.394   8.834   2.868
 7823W        W80248  24.633   7.192   3.740
 7824W        W80249  38.380  16.183  14.806
 7825W        W80250  24.229  32.062   1.802
 7826W        W80251  37.481  28.467  12.841
 7827W        W80252  40.953  28.611   0.310
 7828W        W80253  21.255  35.530  13.037
 7829W        W80254  35.916  43.384  12.977
 7830W        W80255  33.560   3.765  14.959
 7831W        W80256  21.524  10.251   2.757
 7832W        W80257  22.195   8.762   1.318
 7833W        W80258  37.376  16.228   0.813
 7834W        W80259  28.681   5.842  10.900
 7835W        W80260   6.263  37.848  11.529
 7836W        W80261  24.565   3.939   4.832
 7837W        W80262  14.723  13.831   4.810
 7838W        W80263  25.713   0.946  11.126
 7839W        W80264  40.915  40.525   4.278
 7840W        W80265  17.066  28.461   2.784
 7841W        W80266  30.616  25.025   3.307
 7842W        W80267  10.352   6.786  12.980
 7843W        W80268  41.830  24.716   4.226
 7844W        W80269  23.609  13.144  11.986
 7845W        W80270  12.654  19.072   2.840
 7846W        W80271   4.768  32.108   3.711
 7847W        W80272  13.178   0.445   1.727
 7848W        W80273  33.536  21.572  14.016
 7849W        W80274  28.169  16.683  12.912
 7850W        W80275  32.538  36.857  14.852
 7851W        W80276  35.522  34.998  13.459
 7852W        W80277  21.690  22.513  14.914
 7853W        W80278  17.202  36.984  12.056
 7854W        W80279  14.322  18.274   1.836
 7855W        W80280  26.529  35.946  14.481
 7856W        W80281  21.599  36.573   3.213
 7857W        W80282  31.415  11.303  13.816
 7858W        W80283  37.482   4.419  10.531
 7859W        W80284  25.472   0.399  14.819
 7860W        W80285  35.985  26.696   2.336
 7861W        W80286  17.258  32.929  11.447
 7862W        W80287  39.017  23.127  12.046
 7863W        W80288  23.687   5.779   0.932
 7864W        W80289  11.287  24.229  10.433
 7865W        W80290  39.910  21.539   2.802
 7866W        W80291   2.356  29.145   4.638
 7867W        W80292   4.714  19.153   3.205
 7868W        W80293  31.571   8.788   1.222
 7869W        W80294  34.951  23.172   2.888
 7870W        W80295  11.621   3.790   3.701
 7871W        W80296  20.655  28.520  14.025
 7872W        W80297  14.253   7.234   1.831
 7873W        W80298  38.531  35.451   4.720
 7874W        W80299  22.542  10.686   2.240
 7875W        W80300   2.859  26.519  14.310
 7876W        W80301  17.144  39.494   0.818
 7877W        W80302  33.081  21.662   2.692
 7878W        W80303  12.620  34.518  12.997
 7879W        W80304  28.453  10.157  10.599
 7880W        W80305  14.313  35.882  14.927
 7881W        W80306  10.275  31.013  13.484
 7882W        W80307  25.003  25.139   3.335
 7883W        W80308   6.900   9.879   4.237
 7884W        W80309  21.540   4.839   4.231
 7885W        W80310  13.326  17.183   2.179
 7886W        W80311   6.328  16.568   2.867
 7887W        W80312  21.167  25.077   0.418
 7888W        W80313  18.731  24.222   1.285
 7889W        W80314   8.680  43.826   1.697
 7890W        W80315  16.706  44.821   3.761
 7891W        W80316  15.280   9.286  14.810
 7892W        W80317   4.406  43.290   3.300
 7893W        W80318  21.684  15.137  12.541
 7894W        W80319  21.204  19.053   0.883
 7895W        W80320  33.409  12.336   0.958
 7896W        W80321  27.540   6.357  11.471
 7897W        W80322  25.654  22.648  11.988
 7898W        W80323  31.019   7.836  13.466
 7899W        W80324  20.670  18.103  13.488
 7900W        W80325  15.577  10.806   2.765
 7901W        W80326  17.218   3.240   2.781
 7902W        W80327  17.304  16.215  12.488
 7903W        W80328  26.196  27.144   4.632
 7904W        W80329  23.133  28.929   3.680
 7905W        W80330  22.691  17.576  12.989
 7906W        W80331  13.695  18.063   1.783
 7907W        W80332  19.169  36.430   0.794
 7908W        W80333  30.615   0.801   2.269
 7909W        W80334  19.236  22.634  11.084
 7910W        W80335  32.462  32.544   1.286
 7911W        W80336   5.713  37.373  11.039
 7912W        W80337  14.153  27.069   4.758
 7913W        W80338  12.233   4.714   0.778
 7914W        W80339  27.506  18.760   1.700
 7915W        W80340  27.194  22.248   2.712
 7916W        W80341  33.959  12.785  14.011
 7917W        W80342   7.892   0.354  12.531
 7918W        W80343   3.892  18.784  13.307
 7919W        W80344  15.206   1.939  11.489
 7920W        W80345  33.408  33.117  13.362
 7921W        W80346   9.693  23.581   4.185
 7922W        W80347   8.325  37.572  11.457
 7923W        W80348  30.141  22.054  10.560
 7924W        W80349  42.322  38.949   2.410
 7925W        W80350  31.447  26.596   4.298
 7926W        W80351  29.646  16.126   0.482
 7927W        W80352   9.246  26.588  14.901
 7928W        W80353  32.612  36.897  11.903
 7929W        W80354   9.876  42.405  11.534
 7930W        W80355  43.961  15.768   3.256
 7931W        W80356  34.116  15.711  13.867
 7932W        W80357  34.501  39.439   4.278
 7933W        W80358   1.803  40.439  12.527
 7934W        W80359  21.214  27.507   4.311
 7935W        W80360  28.032   7.349   3.381
 7936W        W80361  41.475   9.655   1.787
 7937W        W80362  33.066  36.588  13.480
 7938W        W80363  14.115   2.255  12.514
 7939W        W80364  13.188  29.165   9.997
 7940W        W80365   0.259  36.516  14.833
 7941W        W80366  43.020  18.769  12.392
 7942W        W80367   2.357   6.332  10.441
 7943W        W80368  27.053  12.729  10.492
 7944W        W80369   1.241  10.175   1.212
 7945W        W80370   5.779  43.287  10.594
 7946W        W80371  32.094   8.868   2.267
 7947W        W80372  35.922   7.851   4.129
 7948W        W80373   9.649  30.435   4.632
 7949W        W80374  41.361  30.540  11.606
 7950W        W80375  22.250  38.420   0.900
 7951W        W80376  23.133  37.411   4.748
 7952W        W80377  25.105  29.091   1.925
 7953W        W80378  13.612  25.142   1.345
 7954W        W80379  41.897  41.362  10.451
 7955W        W80380  36.887  17.792  10.456
 7956W        W80381  14.826  18.133   2.884
 7957W        W80382  41.831  25.159   4.272
 7958W        W80383  25.483  26.035   1.383
 7959W        W80384  44.413  23.146   0.436
 7960W        W80385   0.377   3.713   4.214
 7961W        W80386   7.182  17.730   2.394
 7962W        W80387   2.423  20.690  13.320
 7963W        W80388  40.937   3.425   4.706
 7964W        W80389  17.276  16.658  10.608
 7965W        W80390  17.760  34.028   1.416
 7966W        W80391  27.514  31.627   1.698
 7967W        W80392  42.338   6.814  13.012
 7968W        W80393  37.465  25.572  11.090
 7969W        W80394   1.756  27.604   2.678
 7970W        W80395  38.969  20.534  12.416
 7971W        W80396  39.360  17.084   4.281
 7972W        W80397  35.574  25.965  13.351
 7973W        W80398  23.636  37.440   2.804
 7974W        W80399  12.805   7.280   0.846
 7975W        W80400  40.895  26.045   0.855
 7976W        W80401   2.923  43.991   0.389
 7977W        W80402  43.285  28.678   1.921
 7978W        W80403  23.540  39.942  14.767
 7979W        W80404  31.951  26.503  11.878
 7980W        W80405  18.084  14.811  10.551
 7981W        W80406   6.427   7.863  11.006
 7982W        W80407  34.056  14.159   1.294
 7983W        W80408  10.270  32.068   4.223
 7984W        W80409  19.626  28.121  13.900
 7985W        W80410   1.747  19.605   3.669
 7986W        W80411   8.750  22.133   3.242
 7987W        W80412  19.257   9.360  13.030
 7988W        W80413   4.376   8.762  12.459
 7989W        W80414  28.504  37.964   2.827
 7990W        W80415  30.938  32.402  14.852
 7991W        W80416  18.791   7.869   3.844
 7992W        W80417  13.172   1.871   5.264
 7993W        W80418   6.773  44.954  13.961
 7994W        W80419  32.401  41.995  14.991
 7995W        W80420  32.976  36.988  14.873
 7996W        W80421   3.217  41.492   2.709
 7997W        W80422  14.159   5.725  11.908
 7998W        W80423  14.136  25.524  12.561
 7999W        W80424  15.801  22.546   0.286
 8000W        W80425  34.998  43.311  11.116
 8001W        W80426  13.677  25.213   1.884
 8002W        W80427  28.103  32.098  13.319
 8003W        W80428  23.152  22.627  13.926
 8004W        W80429  19.747  31.019  11.509
 8005W        W80430  34.891   7.381   3.722
 8006W        W80431  25.190  24.652   1.230
 8007W        W80432  30.576  28.441  12.842
 8008W        W80433   5.901  16.618  13.042
 8009W        W80434   7.834   7.387   0.847
 8010W        W80435  41.305  43.355  10.922
 8011W        W80436  36.374   4.895  10.509
 8012W        W80437  20.620  11.372  11.005
 8013W        W80438  31.941   6.824   0.744
 8014W        W80439  27.962  19.074  12.928
 8015W        W80440  34.988  37.081  13.861
 8016W        W80441  10.148  31.134   1.796
 8017W        W80442  40.506  39.945  14.897
 8018W        W80443   5.793  37.935   1.822
 8019W        W80444  26.567  21.751  10.457
 8020W        W80445  31.592   3.218  10.491
 8021W        W80446   2.944  19.101  12.349
 8022W        W80447   9.285  24.536  12.077
 8023W        W80448  34.595  13.658   2.197
 8024W        W80449  17.258  33.881  11.421
 8025W        W80450  38.888  44.956  10.007
 8026W        W80451  43.473  40.524   1.232
 8027W        W80452  33.937  36.930   1.827
 8028W        W80453  17.702  35.934  12.973
 8029W        W80454  39.548  23.650   3.744
 8030W        W80455  27.539  29.930   0.764
 8031W        W80456  14.589  42.328  14.326
 8032W        W80457  39.545  38.496  14.800
 8033W        W80458  19.723  25.046   2.223
 8034W        W80459  36.375  41.420   2.688
 8035W        W80460  41.962  34.566   4.228
 8036W        W80461  14.207  27.510   4.658
 8037W        W80462   7.394  44.336  12.834
 8038W        W80463  12.793   7.858  11.888
 8039W        W80464  44.808  31.963  10.537
 8040W        W80465  27.975  42.968  11.441
 8041W        W80466   8.898  27.015  13.440
 8042W        W80467  38.936  39.456  11.935
 8043W        W80468  22.641  15.195  10.990
 8044W        W80469  33.409  21.667  12.410
 8045W        W80470  16.216  19.126   4.808
 8046W        W80471  11.661   9.364  14.913
 8047W        W80472   7.890  38.544  12.926
 8048W        W80473  32.618   6.700  11.477
 8049W        W80474  43.360  29.472   2.351
 8050W        W80475  25.586  30.142  14.880
 8051W        W80476  21.092  29.561  10.424
 8052W        W80477  40.425  37.522  12.871
 8053W        W80478  42.512   1.787  14.387
 8054W        W80479  33.964  27.596   3.755
 8055W        W80480  22.673  27.163  11.869
 8056W        W80481  15.134  39.354   0.932
 8057W        W80482  43.516   3.221  14.292
 8058W        W80483  14.599  30.583  11.003
 8059W        W80484  19.658  21.036   3.274
 8060W        W80485  37.998  41.834  13.350
 8061W        W80486   8.263  24.652  13.883
 8062W        W80487   4.900  29.133   0.840
 8063W        W80488  16.707  32.011   0.268
 8064W        W80489  32.963  26.073  11.969
 8065W        W80490   5.248  22.087   1.332
 8066W        W80491   7.372   9.283  11.958
 8067W        W80492   5.338  17.080  13.515
 8068W        W80493  39.971  37.437  13.011
 8069W        W80494  17.660   6.792   1.391
 8070W        W80495  15.789   1.942   1.837
 8071W        W80496  44.388  44.820   1.268
 8072W        W80497  12.148  16.306   1.789
 8073W        W80498  42.825  31.975  13.355
 8074W        W80499  22.573  21.161  11.866
 8075W        W80500   4.805  15.101  14.486
 8076W        W80501  36.495   1.442  11.504
 8077W        W80502  36.393  23.094   4.780
 8078W        W80503  33.591   2.915  14.813
 8079W        W80504  16.810   8.782   2.807
 8080W        W80505  16.130  30.934   0.332
 8081W        W80506   7.682  31.479   3.166
 8082W        W80507  25.076  12.229  14.841
 8083W        W80508  42.374   8.892   1.367
 8084W        W80509  23.998   9.756  12.937
 8085W        W80510  39.354  16.174   4.146
 8086W        W80511  25.995  31.569  10.023
 8087W        W80512  38.454  32.462   3.647
 8088W        W80513  37.480  21.167  12.504
 8089W        W80514  24.067  24.141   3.734
 8090W        W80515   0.471  27.173   4.261
 8091W        W80516  11.857  20.633  14.013
 8092W        W80517  15.812  37.578   4.279
 8093W        W80518  26.981  44.467  10.559
 8094W        W80519  39.339  12.134   3.813
 8095W        W80520  40.995  42.458   0.451
 8096W        W80521  16.083  43.282  13.062
 8097W        W80522  36.986  33.567   2.224
 8098W        W80523  33.580  20.274  12.944
 8099W        W80524   8.348  20.691   1.339
 8100W        W80525  19.713   4.826  14.372
 8101W        W80526   0.762  21.613   2.889
 8102W        W80527  16.722   1.885  12.395
 8103W        W80528  37.557  24.691   3.662
 8104W        W80529   4.837  23.191   4.197
 8105W        W80530  31.003  41.378   1.434
 8106W        W80531  38.037  22.566   4.245
 8107W        W80532  25.478  10.274   4.669
 8108W        W80533  22.215  33.401   2.209
 8109W        W80534  28.018  18.715   0.368
 8110W        W80535  25.996  37.472   4.625
 8111W        W80536   8.738  26.998  10.989
 8112W        W80537  14.648  14.601   2.768
 8113W        W80538  21.081  26.973   0.793
 8114W        W80539  31.024  34.502   1.304
 8115W        W80540   7.303  14.679  13.540
 8116W        W80541  11.727  19.609   5.313
 8117W        W80542  38.380   1.794   0.920
 8118W        W80543  31.449  31.912  11.551
 8119W        W80544  18.110   5.303  10.992
 8120W        W80545  23.230  11.206   3.744
 8121W        W80546  35.384  28.622  12.388
 8122W        W80547  31.928  11.751   3.324
 8123W        W80548  26.584  15.793  10.938
 8124W        W80549  21.584   9.719   1.894
 8125W        W80550  28.461  24.623  11.395
 8126W        W80551  20.699   4.794   3.670
 8127W        W80552   0.261  15.691  12.352
 8128W        W80553  12.301  25.503   3.746
 8129W        W80554  22.741  42.849  11.445
 8130W        W80555  14.192   9.834  14.282
 8131W        W80556   7.326  34.926   3.811
 8132W        W80557   6.917  26.587   4.652
 8133W        W80558   4.930  41.391  12.093
 8134W        W80559  44.479   5.317  12.561
 8135W        W80560  37.542  27.562   0.313
 8136W        W80561  22.182  42.953   2.298
 8137W        W80562   1.871  31.079   3.817
 8138W        W80563  41.400   3.450  14.008
 8139W        W80564  42.800  40.049  14.996
 8140W        W80565  31.106  11.372   1.904
 8141W        W80566   8.225  17.763  11.594
 8142W        W80567  32.394   8.231  13.965
 8143W        W80568  40.043  26.994   1.284
 8144W        W80569   3.309   8.314   4.340
 8145W        W80570  42.926  28.618   0.816
 8146W        W80571   0.311  27.482   0.388
 8147W        W80572  20.174   7.414  10.989
 8148W        W80573  41.323  11.173  13.022
 8149W        W80574  10.296   4.329  12.383
 8150W        W80575  32.079  36.098  13.021
 8151W        W80576   3.308   5.788  12.364
 8152W        W80577  25.473  40.377  12.516
 8153W        W80578  43.982  44.913  14.849
 8154W        W80579   4.449  25.073  13.357
 8155W        W80580   7.678  31.648  14.483
 8156W        W80581  26.591  32.090   2.241
 8157W        W80582   2.749   0.401  11.395
 8158W        W80583  10.380  31.061   4.132
 8159W        W80584  15.107  36.040  13.009
 8160W        W80585  28.528   9.276   4.782
 8161W        W80586  42.953  32.026   1.866
 8162W        W80587  17.223  30.610  10.093
 8163W        W80588  28.175  29.525  12.025
 8164W        W80589  24.109  26.537  10.089
 8165W        W80590  12.360  14.303  11.494
 8166W        W80591  10.788  16.074  11.129
 8167W        W80592  18.076  23.025   2.857
 8168W        W80593  27.973   7.368  13.911
 8169W        W80594  27.969  35.920   1.390
 8170W        W80595  40.919  32.989  13.031
 8171W        W80596  43.862  19.760   3.210
 8172W        W80597  18.546  27.612   1.291
 8173W        W80598  26.001  14.220   2.259
 8174W        W80599  32.407  11.177  13.968
 8175W        W80600  18.697  32.081  13.044
 8176W        W80601  35.078  11.165  12.013
 8177W        W80602   4.835  32.033   4.191
 8178W        W80603  31.130  39.373  11.412
 8179W        W80604   4.742   9.316   9.994
 8180W        W80605  40.995  13.127  11.030
 8181W        W80606  40.033   5.933  10.541
 8182W        W80607  22.527  40.544  14.762
 8183W        W80608  24.713  25.129   3.157
 8184W        W80609   9.288  41.837   2.184
 8185W        W80610   4.230   8.670  12.991
 8186W        W80611  44.841  17.195   1.891
 8187W        W80612  22.170   3.362   0.479
 8188W        W80613   1.870  12.661  10.522
 8189W        W80614   3.460  30.022  14.391
 8190W        W80615  16.301  16.295   0.356
 8191W        W80616  24.102   3.249  14.398
 8192W        W80617  13.661  11.626   3.146
 8193W        W80618   5.308   5.311   4.126
 8194W        W80619  12.724  40.880  13.848
 8195W        W80620   3.392  17.130   4.272
 8196W        W80621  12.739  41.978  10.445
 8197W        W80622  27.514   3.441  13.810
 8198W        W80623  14.326  21.717   0.351
 8199W        W80624  33.578  16.729   5.120
 8200W        W80625  16.741  38.048  11.961
 8201W        W80626   2.459  40.016   2.394
 8202W        W80627   8.240  23.205  11.891
 8203W        W80628  44.783  42.344   4.137
 8204W        W80629  39.489  29.075   1.730
 8205W        W80630  12.284  42.968   0.839
 8206W        W80631  39.325  13.134  14.847
 8207W        W80632  42.286  19.601   0.348
 8208W        W80633  21.701   0.775   3.659
 8209W        W80634  11.270  28.061   3.657
 8210W        W80635  25.534  29.969   9.561
 8211W        W80636   9.226   4.752   3.220
 8212W        W80637  13.671   5.237   2.370
 8213W        W80638  38.901  26.119   0.782
 8214W        W80639  43.991  13.710   2.343
 8215W        W80640  30.001   5.314   1.329
 8216W        W80641  38.391   9.212  14.890
 8217W        W80642  42.492   8.244   1.833
 8218W        W80643  28.929  44.967  11.386
 8219W        W80644  22.065  11.818   0.967
 8220W        W80645   5.856  40.801  14.001
 8221W        W80646  21.731  44.954  12.897
 8222W        W80647   6.734  29.119  13.037
 8223W        W80648  37.364  30.920   1.888
 8224W        W80649  18.585  22.673   4.626
 8225W        W80650  22.722  39.314  14.425
 8226W        W80651  22.534  14.251   5.303
 8227W        W80652  32.921   7.783  10.410
 8228W        W80653  17.568  41.788   2.740
 8229W        W80654  11.731   3.269  14.439
 8230W        W80655   7.369  11.337  11.992
 8231W        W80656  29.435  17.732  12.427
 8232W        W80657   7.699  43.450   3.652
 8233W        W80658  14.201  23.064  10.635
 8234W        W80659  33.590  36.473   0.440
 8235W        W80660   1.440  23.199   1.925
 8236W        W80661  36.573  34.010   2.754
 8237W        W80662   8.684  23.173  11.486
 8238W        W80663   3.293  14.264   0.911
 8239W        W80664  10.205  14.623  10.488
 8240W        W80665  11.779   3.785  11.041
 8241W        W80666  17.728   4.841  13.017
 8242W        W80667  14.808  35.535   3.816
 8243W        W80668  37.963  20.702  12.548
 8244W        W80669  24.711   8.670   1.417
 8245W        W80670  10.338  16.105   4.647
 8246W        W80671  28.006   6.764  12.358
 8247W        W80672  33.397  11.163   4.727
 8248W        W80673  20.545  15.771   4.681
 8249W        W80674  18.727  16.634   1.826
 8250W        W80675   1.443   2.313  12.903
 8251W        W80676   6.334  10.640   0.927
 8252W        W80677   9.716  24.196  13.049
 8253W        W80678  12.302   4.238  12.402
 8254W        W80679  31.142  10.262   0.824
 8255W        W80680   6.399   7.873  14.894
 8256W        W80681  41.372  12.708   4.665
 8257W        W80682  41.007  41.438   4.202
 8258W        W80683  42.454  17.700   2.800
 8259W        W80684  10.241  25.051   1.809
 8260W        W80685  12.317  40.305  13.976
 8261W        W80686  38.028  31.058  12.834
 8262W        W80687   6.804  35.079  12.340
 8263W        W80688  25.072  12.683  11.595
 8264W        W80689  19.186   5.854   4.667
 8265W        W80690   9.681  29.559  13.921
 8266W        W80691  29.117  18.722  14.441
 8267W        W80692  18.625  17.702  12.430
 8268W        W80693  11.160  40.428  14.940
 8269W        W80694  11.644   4.328   0.284
 8270W        W80695  25.702  39.389  12.825
 8271W        W80696  26.973  39.517  14.983
 8272W        W80697  18.653   1.734  10.483
 8273W        W80698  23.211  32.908   4.349
 8274W        W80699  28.152   2.372   3.770
 8275W        W80700   2.407  42.780  10.951
 8276W        W80701   1.863   3.916   0.818
 8277W        W80702  15.800  23.599  12.542
 8278W        W80703  29.600  37.362   4.126
 8279W        W80704  10.142   1.858   1.451
 8280W        W80705  23.612  22.677  11.951
 8281W        W80706  24.171   4.325   1.818
 8282W        W80707  43.891   5.278  10.528
 8283W        W80708  27.990  23.080   5.171
 8284W        W80709  21.139  43.366  10.494
 8285W        W80710  33.435  31.074  12.032
 8286W        W80711  23.685  42.987  11.037
 8287W        W80712  44.447  27.597  10.149
 8288W        W80713  36.020  44.500   4.218
 8289W        W80714  32.506  33.381  13.814
 8290W        W80715   3.796  34.529  13.471
 8291W        W80716  32.021  42.986  13.885
 8292W        W80717  23.695  17.172   2.738
 8293W        W80718  30.046  33.617  11.543
 8294W        W80719   0.985  15.799  14.377
 8295W        W80720  37.935  27.687   3.265
 8296W        W80721  23.580  39.558   1.432
 8297W        W80722  33.418  30.619   1.322
 8298W        W80723   1.754  34.906   4.608
 8299W        W80724  14.322   5.429  13.808
 8300W        W80725  26.675  32.540  12.982
 8301W        W80726  31.584  12.678   3.864
 8302W        W80727  36.027  41.821  11.567
 8303W        W80728  37.047  11.657   4.154
 8304W        W80729  41.423   3.927  13.058
 8305W        W80730  34.433  42.320  11.584
 8306W        W80731  32.080  14.792  10.954
 8307W        W80732  25.658  30.054  10.056
 8308W        W80733  38.538   3.899  13.835
 8309W        W80734  11.361  44.847   2.826
 8310W        W80735  40.955   9.734  10.973
 8311W        W80736  30.071  40.304  10.942
 8312W        W80737  39.959   3.876  13.981
 8313W        W80738  30.439  23.539  11.940
 8314W        W80739  44.960  14.818  13.932
 8315W        W80740  30.093   7.907   1.356
 8316W        W80741   3.768  17.217   3.744
 8317W        W80742  25.048  16.131   1.219
 8318W        W80743  30.030  41.474   3.366
 8319W        W80744  41.458  42.471   2.668
 8320W        W80745  21.619  18.090  13.376
 8321W        W80746   5.804   3.871  10.557
 8322W        W80747  20.713   8.318   4.625
 8323W        W80748   3.728  35.063  13.041
 8324W        W80749  30.081  13.330   3.665
 8325W        W80750  21.104  38.857  10.457
 8326W        W80751  42.458  24.093  10.538
 8327W        W80752   2.756  20.632  14.450
 8328W        W80753  13.204  24.551   5.660
 8329W        W80754   7.312  17.149   1.281
 8330W        W80755  41.004   2.365  14.444
 8331W        W80756  30.466   3.323  11.856
 8332W        W80757  26.011  24.230  12.530
 8333W        W80758  18.544  24.151  12.054
 8334W        W80759   4.414   1.239  10.936
 8335W        W80760  22.099  32.908   0.923
 8336W        W80761  11.760  25.608  14.509
 8337W        W80762  22.190   6.359  12.392
 8338W        W80763  42.401  36.017  11.901
 8339W        W80764  33.106   2.923  11.554
 8340W        W80765  13.658   8.750  13.528
 8341W        W80766  18.220  18.629   4.185
 8342W        W80767   5.287  10.219  11.071
 8343W        W80768  39.370  12.319  11.988
 8344W        W80769  25.670  13.662  13.357
 8345W        W80770  23.090  41.829  13.016
 8346W        W80771  16.810  17.152   4.344
 8347W        W80772  40.489  12.676   4.608
 8348W        W80773  16.294  21.062  13.318
 8349W        W80774  39.494  41.425  13.861
 8350W        W80775  18.080  44.894  11.064
 8351W        W80776  40.854  33.048   0.467
 8352W        W80777  38.951  18.720   9.985
 8353W        W80778  25.098  26.120   2.688
 8354W        W80779  10.660  21.537   4.607
 8355W        W80780  38.954  15.297  11.042
 8356W        W80781  21.166  29.082  10.062
 8357W        W80782  15.805   6.364   4.748
 8358W        W80783   4.309  22.682  12.533
 8359W        W80784   9.158  39.944  11.609
 8360W        W80785  37.892   0.407  12.971
 8361W        W80786  11.348   8.767  12.052
 8362W        W80787  13.195  22.718   0.353
 8363W        W80788   0.476  41.805   2.403
 8364W        W80789   8.235   4.424   0.767
 8365W        W80790  41.982  29.153  13.995
 8366W        W80791  23.644  12.352  10.592
 8367W        W80792   3.360  22.593  12.886
 8368W        W80793  43.361  22.050  13.041
 8369W        W80794  25.648   4.252  14.912
 8370W        W80795   8.669  44.453   3.270
 8371W        W80796  24.036   0.956  13.388
 8372W        W80797   9.370  35.502   1.780
 8373W        W80798  34.930   6.770   2.774
 8374W        W80799  25.496  38.356   3.147
 8375W        W80800   4.379   1.915   2.413
 8376W        W80801  43.440  43.932   2.390
 8377W        W80802  24.171  35.577   0.349
 8378W        W80803  20.577  25.583  12.558
 8379W        W80804  22.226  12.765  10.066
 8380W        W80805  37.980  24.571  14.383
 8381W        W80806  42.893  10.294  11.448
 8382W        W80807   0.378  42.886  12.367
 8383W        W80808  43.382  22.712  12.501
 8384W        W80809  33.956  25.969  12.424
 8385W        W80810  26.981  43.944   1.343
 8386W        W80811  40.874  19.744  10.136
 8387W        W80812  39.390  18.774  13.394
 8388W        W80813  17.675  10.373   4.168
 8389W        W80814  16.211   8.871   4.193
 8390W        W80815  14.815  29.043   3.841
 8391W        W80816  10.693  35.062  13.026
 8392W        W80817  19.665  33.035   3.179
 8393W        W80818   7.712  16.206   0.819
 8394W        W80819  26.146   5.433   4.676
 8395W        W80820   4.427  12.710   0.280
 8396W        W80821  21.560  28.059  11.424
 8397W        W80822  31.639  42.299   0.915
 8398W        W80823  32.925  33.612   3.858
 8399W        W80824  24.993   0.428  14.987
 8400W        W80825   8.389  30.560  13.518
 8401W        W80826  12.119   5.764  13.006
 8402W        W80827   4.284  22.139   1.873
 8403W        W80828   0.941   3.871  11.447
 8404W        W80829   2.300  33.961  10.919
 8405W        W80830   7.298  38.061  13.980
 8406W        W80831  20.086  42.472  11.403
 8407W        W80832  14.096  20.121  10.445
 8408W        W80833  11.760  32.633  11.452
 8409W        W80834  15.637  42.374  11.481
 8410W        W80835   9.693   9.855  11.425
 8411W        W80836   3.298  18.153   0.872
 8412W        W80837   4.292  27.960   1.816
 8413W        W80838  36.585  40.901   2.846
 8414W        W80839  37.476  17.157   4.781
 8415W        W80840  24.714   2.351  12.474
 8416W        W80841  11.333  33.995   2.274
 8417W        W80842   5.369  21.605   1.800
 8418W        W80843  39.927  26.070  14.434
 8419W        W80844  26.160  34.439  13.997
 8420W        W80845  14.210  21.531  12.537
 8421W        W80846  32.908  35.367  13.795
 8422W        W80847  40.941   6.918   2.697
 8423W        W80848  40.001   7.318  13.005
 8424W        W80849  21.019  24.012   3.262
 8425W        W80850  21.075  30.588  11.957
 8426W        W80851  20.550  42.370   0.368
 8427W        W80852  27.153  41.903   3.255
 8428W        W80853  24.618  39.921  14.886
 8429W        W80854  14.101  28.066   2.867
 8430W        W80855  41.914  44.814   4.814
 8431W        W80856  30.621  19.197   2.722
 8432W        W80857  18.086  43.389   3.324
 8433W        W80858  31.592  28.565   1.324
 8434W        W80859  26.972  31.918   1.296
 8435W        W80860   8.785  33.595  12.056
 8436W        W80861  39.810  13.149  10.492
 8437W        W80862  20.605  42.898   5.278
 8438W        W80863  11.301  39.542   3.384
 8439W        W80864   2.887   6.684  14.471
 8440W        W80865  19.683   7.760   4.799
 8441W        W80866  36.091  40.029   4.304
 8442W        W80867  36.987  12.168   2.891
 8443W        W80868  30.488  37.834  14.782
 8444W        W80869  43.770   3.735   4.794
 8445W        W80870   2.924  31.618   2.326
 8446W        W80871   3.334  30.425   0.769
 8447W        W80872  38.367  14.228   1.315
 8448W        W80873   3.298  27.969  11.403
 8449W        W80874  27.607   8.293  14.787
 8450W        W80875  40.472  17.098   1.821
 8451W        W80876  16.193  34.031  11.871
 8452W        W80877  43.822  43.868  14.514
 8453W        W80878  10.260   5.736  12.400
 8454W        W80879  28.596  38.444   0.444
 8455W        W80880  41.958  37.060   2.764
 8456W        W80881  27.523  16.753  14.874
 8457W        W80882   9.708  15.165   2.257
 8458W        W80883   6.279  21.229   0.955
 8459W        W80884  20.687  41.300   1.419
 8460W        W80885  33.527  32.026  10.637
 8461W        W80886   2.243   1.285  12.514
 8462W        W80887  16.754  12.344  12.563
 8463W        W80888  20.722  21.628  11.508
 8464W        W80889  22.565  34.470   3.760
 8465W        W80890  13.240  23.582   1.294
 8466W        W80891   1.737   3.897   1.237
 8467W        W80892  24.626  29.974   0.378
 8468W        W80893   4.320  24.973  12.463
 8469W        W80894   6.195   0.756   3.676
 8470W        W80895  10.172  29.955   3.297
 8471W        W80896  37.855  43.859  13.468
 8472W        W80897  20.227  39.010   0.328
 8473W        W80898  15.262  10.300   1.892
 8474W        W80899   9.206  21.652  14.017
 8475W        W80900  18.748  38.415   4.659
 8476W        W80901   2.795  32.496  14.428
 8477W        W80902  17.799  29.564   4.802
 8478W        W80903  44.957  29.996   3.825
 8479W        W80904  42.015  39.065   0.913
 8480W        W80905  27.127   6.835   1.870
 8481W        W80906  44.418  14.705  14.812
 8482W        W80907  20.148  15.616   2.801
 8483W        W80908  20.161  16.568  13.879
 8484W        W80909  16.805   7.339  13.541
 8485W        W80910  40.924  19.240  10.466
 8486W        W80911   3.457  33.090   2.793
 8487W        W80912   2.314  20.208  13.965
 8488W        W80913   5.398  37.375   0.415
 8489W        W80914   8.396  16.793   3.244
 8490W        W80915  24.591  18.564  14.977
 8491W        W80916  32.409  10.663  14.462
 8492W        W80917  32.562  36.508   0.454
 8493W        W80918   9.709   1.363   1.796
 8494W        W80919  28.516  18.667   0.960
 8495W        W80920  32.596  29.513  12.494
 8496W        W80921  34.919  29.610  11.127
 8497W        W80922   9.170   2.379   0.903
 8498W        W80923  29.919  15.795   3.636
 8499W        W80924  18.168  36.406   3.793
 8500W        W80925  25.524  18.277   0.742
 8501W        W80926  34.878  29.943   0.265
 8502W        W80927   8.836   5.702  13.500
 8503W        W80928  40.894   7.839   1.834
 8504W        W80929  35.570  23.197   3.295
 8505W        W80930  21.080  15.716   3.276
 8506W        W80931  31.529   4.437   1.278
 8507W        W80932  33.904  29.019  12.347
 8508W        W80933   0.324  34.109  11.997
 8509W        W80934   8.834   8.262   1.219
 8510W        W80935   1.928  41.331   0.901
 8511W        W80936  10.180  24.488  12.041
 8512W        W80937  10.252  26.592  14.975
 8513W        W80938  33.529   9.826  12.368
 8514W        W80939   9.692  32.596   2.699
 8515W        W80940  20.172  31.062   4.796
 8516W        W80941  34.415  27.999   0.457
 8517W        W80942  11.136  29.957  12.859
 8518W        W80943  30.024  31.547  12.522
 8519W        W80944  24.647   5.807   0.339
 8520W        W80945  27.480  14.113   0.947
 8521W        W80946  41.906  29.508   1.339
 8522W        W80947   5.819  10.802   1.930
 8523W        W80948   8.667  36.902  13.470
 8524W        W80949  36.051  33.389   1.763
 8525W        W80950   9.706   3.398  10.419
 8526W        W80951  26.155  27.951  12.471
 8527W        W80952   3.944   3.360   1.811
 8528W        W80953  40.805  16.278  10.492
 8529W        W80954   0.809  35.106   1.893
 8530W        W80955  18.291  40.911  14.802
 8531W        W80956   6.781  39.958   4.168
 8532W        W80957  17.763  26.559   0.811
 8533W        W80958  23.502   3.834  12.544
 8534W        W80959  34.517  25.470   4.170
 8535W        W80960  29.455  14.612  12.565
 8536W        W80961   5.412   7.871   0.407
 8537W        W80962   5.273  25.095   3.851
 8538W        W80963   6.204   6.300  10.467
 8539W        W80964  29.156  40.934  10.035
 8540W        W80965  41.417   9.816   0.948
 8541W        W80966  24.990  29.946   1.302
 8542W        W80967  26.562  23.635   1.915
 8543W        W80968   7.338  32.437  12.084
 8544W        W80969   4.894   2.860   1.694
 8545W        W80970   7.756  15.326   1.851
 8546W        W80971   0.478  21.100  12.488
 8547W        W80972  42.789  33.906   0.306
 8548W        W80973  14.288  31.442   2.789
 8549W        W80974   7.842  24.024  12.464
 8550W        W80975  14.722   1.870   4.769
 8551W        W80976  26.666  20.207   1.375
 8552W        W80977  44.429  30.006   3.752
 8553W        W80978  11.179   8.754  10.632
 8554W        W80979  28.053   3.262   0.419
 8555W        W80980  39.394  10.181  13.923
 8556W        W80981  43.357  31.997  13.979
 8557W        W80982   8.255  30.617  14.879
 8558W        W80983  12.624  44.368   2.372
 8559W        W80984  42.411  25.118  12.886
 8560W        W80985   0.433  21.574  11.457
 8561W        W80986  37.000  40.547  12.424
 8562W        W80987  19.050  22.238  10.973
 8563W        W80988  26.051  35.005  10.966
 8564W        W80989  31.127   1.414   1.437
 8565W        W80990  20.608  11.277   0.338
 8566W        W80991   7.375  12.645   2.318
 8567W        W80992  25.608   7.831   2.800
 8568W        W80993  23.654  44.342   0.450
 8569W        W80994  44.394  41.339  10.514
 8570W        W80995   4.748  38.899   0.861
 8571W        W80996  16.288   9.668   4.730
 8572W        W80997  17.646  33.468   4.286
 8573W        W80998  33.614  36.070   1.886
 8574W        W80999  27.564  29.566   4.244
 8575W        W81000  30.584  37.382   1.232
 8576W        W81001   7.214   6.902   2.288
 8577W        W81002  26.046   1.324  11.945
 8578W        W81003  39.438   8.213   2.293
 8579W        W81004  15.822  12.650  13.841
 8580W        W81005  22.712   2.377  13.011
 8581W        W81006  27.023   7.900  12.531
 8582W        W81007  44.264  31.042  10.519
 8583W        W81008  32.975  41.535  10.969
 8584W        W81009  22.080  41.447  12.933
 8585W        W81010   4.231   3.768   3.721
 8586W        W81011   9.652  25.203   1.750
 8587W        W81012  13.122   3.318   0.442
 8588W        W81013   9.862   9.357   3.364
 8589W        W81014  15.228  23.654  12.426
 8590W        W81015  20.649  40.797   1.740
 8591W        W81016  18.087  22.507   0.727
 8592W        W81017  41.527  21.675   1.930
 8593W        W81018  17.579  34.397  12.840
 8594W        W81019  29.944  44.349  11.600
 8595W        W81020  11.184  38.531  11.396
 8596W        W81021  25.498  12.288  13.469
 8597W        W81022  17.669  32.943  10.128
 8598W        W81023  27.476  15.163  12.554
 8599W        W81024  20.532   5.813   1.322
 8600W        W81025   2.311  34.592  11.035
 8601W        W81026  32.127  24.554  14.392
 8602W        W81027  20.703  18.108   4.154
 8603W        W81028  38.438  18.132   3.690
 8604W        W81029  32.515  24.644   0.292
 8605W        W81030  44.767   0.427  13.392
 8606W        W81031   7.829  24.525   0.286
 8607W        W81032   8.221  29.094  13.847
 8608W        W81033  20.252  16.699   0.748
 8609W        W81034  42.454  20.745  11.892
 8610W        W81035  19.166  28.113   4.291
 8611W        W81036   9.807  39.935  10.500
 8612W        W81037  19.111  25.592   3.764
 8613W        W81038   7.818  28.621  13.057
 8614W        W81039  44.276  21.081  11.958
 8615W        W81040  44.964  13.638   3.341
 8616W        W81041  16.312   1.477   2.357
 8617W        W81042  24.153   3.378   5.298
 8618W        W81043  42.480  41.352   4.246
 8619W        W81044  34.551  21.569   4.273
 8620W        W81045  26.527  41.880   2.273
 8621W        W81046  19.165  24.526  10.929
 8622W        W81047   1.973  44.789  10.575
 8623W        W81048  43.884  17.729  10.413
 8624W        W81049  36.026  22.152   3.766
 8625W        W81050   7.758  30.585   5.284
 8626W        W81051  12.784  27.523  13.994
 8627W        W81052   5.882  14.229   3.307
 8628W        W81053  15.177  25.704  13.536
 8629W        W81054  17.622   1.407  13.449
 8630W        W81055   8.816   1.257  14.446
 8631W        W81056  11.252  35.023  11.963
 8632W        W81057  16.315  14.244   4.673
 8633W        W81058   5.810  23.725  14.926
 8634W        W81059  38.856  17.675  13.950
 8635W        W81060  40.824  32.943  13.441
 8636W        W81061  18.070  11.742   2.809
 8637W        W81062  29.112  26.149   4.707
 8638W        W81063  25.572  14.788   0.346
 8639W        W81064  29.646  33.549   0.383
 8640W        W81065  27.125  43.872   2.367
 8641W        W81066  29.042   3.773   3.654
 8642W        W81067  17.292   0.822  14.406
 8643W        W81068  41.039  31.597  12.930
 8644W        W81069   3.775  15.785   3.723
 8645W        W81070  38.410   0.472   2.837
 8646W        W81071  16.571  28.935   1.213
 8647W        W81072  32.497  37.547   1.823
 8648W        W81073   0.275  11.694   4.188
 8649W        W81074  36.040   0.953   3.766
 8650W        W81075  32.987   4.762   0.243
 8651W        W81076  18.564  11.766  14.955
 8652W        W81077  22.696  12.279  11.960
 8653W        W81078  36.077   6.748  11.518
 8654W        W81079  10.379  44.360   3.738
 8655W        W81080  32.129  38.823   0.830
 8656W        W81081  43.478  24.977  12.555
 8657W        W81082  37.503  31.897   3.777
 8658W        W81083   4.324  41.930   3.147
 8659W        W81084  14.339  26.494  13.366
 8660W        W81085   4.319  26.968   3.832
 8661W        W81086  37.845  10.851   3.358
 8662W        W81087  41.971  37.455   1.708
 8663W        W81088  35.598  17.071   0.789
 8664W        W81089  29.108  43.793   2.703
 8665W        W81090  22.205  21.744   3.691
 8666W        W81091   9.652  31.518   1.694
 8667W        W81092  30.526  13.690   3.364
 8668W        W81093  28.438  13.737   4.224
 8669W        W81094   9.647  18.147   3.659
 8670W        W81095  12.256  29.501  13.359
 8671W        W81096   5.929  17.589   3.257
 8672W        W81097  25.681  35.553  14.413
 8673W        W81098  32.934   2.780   4.634
 8674W        W81099   1.468  13.302   2.308
 8675W        W81100  39.999  15.119   1.422
 8676W        W81101  30.605  41.028   1.758
 8677W        W81102  15.625  32.946   4.680
 8678W        W81103   8.708  19.262   3.783
 8679W        W81104  30.073  26.176  13.876
 8680W        W81105   2.341  11.251  14.500
 8681W        W81106  38.528  17.208   2.333
 8682W        W81107  37.987   3.728   1.708
 8683W        W81108   2.233  25.518   0.837
 8684W        W81109  34.915  26.963   1.322
 8685W        W81110  35.571  27.947  12.528
 8686W        W81111  34.070  44.379  13.017
 8687W        W81112  40.399   8.740  10.907
 8688W        W81113  39.543  23.141   0.906
 8689W        W81114   3.443  40.971  10.509
 8690W        W81115  31.984  22.702   0.350
 8691W        W81116  21.562   9.665   4.318
 8692W        W81117  27.647   8.787  11.419
 8693W        W81118  14.163  31.108   1.260
 8694W        W81119  39.467   4.909  12.009
 8695W        W81120  10.154  20.042   0.242
 8696W        W81121  29.979  27.947  13.033
 8697W        W81122   1.754  22.012  11.453
 8698W        W81123  34.888  13.166   3.657
 8699W        W81124  19.083   5.296   4.124
 8700W        W81125  37.992  31.107   3.631
 8701W        W81126  26.043   8.747   1.852
 8702W        W81127  36.442  29.604   2.742
 8703W        W81128  41.975  43.962   4.782
 8704W        W81129   2.757  34.954   0.868
 8705W        W81130  30.530  31.010   3.271
 8706W        W81131  13.633  30.576   4.815
 8707W        W81132  11.183  42.504  10.518
 8708W        W81133  41.994   5.329   4.231
 8709W        W81134  35.452   0.444   1.450
 8710W        W81135  43.453  30.496  11.050
 8711W        W81136  30.019  38.372  11.970
 8712W        W81137  21.544  23.173   1.934
 8713W        W81138  43.342  30.002  13.350
 8714W        W81139  35.008  17.583  11.968
 8715W        W81140  33.085  32.525  12.469
 8716W        W81141   3.897  16.303   3.242
 8717W        W81142  26.616  33.884  12.553
 8718W        W81143  16.139   9.672   1.885
 8719W        W81144   3.822  34.440  11.612
 8720W        W81145  27.123  12.805  14.017
 8721W        W81146  40.326  30.100  14.873
 8722W        W81147   2.419  27.122  11.857
 8723W        W81148  22.654  27.644   2.807
 8724W        W81149   5.264   7.266   4.639
 8725W        W81150   1.802   9.887  12.841
 8726W        W81151  33.567   8.333   1.410
 8727W        W81152  26.556  18.085   4.195
 8728W        W81153  11.364   0.346  14.357
 8729W        W81154  23.006  20.749  11.612
 8730W        W81155  20.239  13.843   2.276
 8731W        W81156  20.650   4.817   4.139
 8732W        W81157  19.598   3.441  14.905
 8733W        W81158  39.992  24.152  13.400
 8734W        W81159  10.850  14.661   1.848
 8735W        W81160  20.239  10.345  14.000
 8736W        W81161   8.177  15.123   3.852
 8737W        W81162  39.029  33.477   2.327
 8738W        W81163  41.018   1.429  13.964
 8739W        W81164   2.766  39.491   0.364
 8740W        W81165  25.026  10.671  14.474
 8741W        W81166  23.640   9.288  14.432
 8742W        W81167  29.968  36.499  13.394
 8743W        W81168  29.170  41.912   2.743
 8744W        W81169  28.084  33.976  10.969
 8745W        W81170  18.227  19.212   4.122
 8746W        W81171  33.017  43.767   4.714
 8747W        W81172  22.148  13.218  14.904
 8748W        W81173  25.181  32.109  10.148
 8749W        W81174  21.544  35.590  11.498
 8750W        W81175  26.052  43.345   1.389
 8751W        W81176  43.510  38.997  14.822
 8752W        W81177  35.507  35.089  11.395
 8753W        W81178  30.509  37.837   1.239
 8754W        W81179  20.610  15.626  12.838
 8755W        W81180   4.379  33.940  12.515
 8756W        W81181  29.529  19.672   1.228
 8757W        W81182  21.584  17.121   3.162
 8758W        W81183  27.637  20.157   1.697
 8759W        W81184  20.549   4.765  10.536
 8760W        W81185  25.554  32.559  12.430
 8761W        W81186  30.507  21.193  13.883
 8762W        W81187  28.640   3.759   4.194
 8763W        W81188  29.075  19.041  12.455
 8764W        W81189   4.751  26.006  12.903
 8765W        W81190   6.267   0.925   3.192
 8766W        W81191  30.615  38.458  12.356
 8767W        W81192  29.057  43.976  14.295
 8768W        W81193  40.994  44.891  12.359
 8769W        W81194  16.677  40.340  13.459
 8770W        W81195  44.812  17.115   3.810
 8771W        W81196  20.030  16.748   4.824
 8772W        W81197  36.953  41.492   0.786
 8773W        W81198  11.760   9.763  11.117
 8774W        W81199  28.124  16.303   2.891
 8775W        W81200  42.836  26.067   4.257
 8776W        W81201  23.547  15.725   1.376
 8777W        W81202  33.020  39.422   0.937
 8778W        W81203   2.409  19.540   4.316
 8779W        W81204  39.420  28.063   1.223
 8780W        W81205  11.821  13.178  12.461
 8781W        W81206   0.930  40.475   0.323
 8782W        W81207  29.638  28.500   3.771
 8783W        W81208  35.420  35.581   2.299
 8784W        W81209  18.227  39.431   0.465
 8785W        W81210  14.324   9.698  13.365
 8786W        W81211   9.355  23.668  10.959
 8787W        W81212  26.180   1.404  10.939
 8788W        W81213  39.854  28.183  10.630
 8789W        W81214  19.778  19.616  10.501
 8790W        W81215  32.067  35.080   1.756
 8791W        W81216   0.912  41.481   3.651
 8792W        W81217  44.446  35.431   2.331
 8793W        W81218  28.611  21.095   3.696
 8794W        W81219  44.406  30.592  11.510
 8795W        W81220  26.197  31.149   4.604
 8796W        W81221  22.636  40.337  11.882
 8797W        W81222  39.989  34.056  14.308
 8798W        W81223  31.530   7.179   3.815
 8799W        W81224  37.499   9.721  12.068
 8800W        W81225   6.381  23.540   1.855
 8801W        W81226   5.251  31.921  10.457
 8802W        W81227   6.869  42.515   0.358
 8803W        W81228  38.376   9.872  13.358
 8804W        W81229  37.421  28.449   1.926
 8805W        W81230  24.552   3.810  14.288
 8806W        W81231   1.289   8.730   4.313
 8807W        W81232  35.594  30.129   2.273
 8808W        W81233  38.517   2.324  14.962
 8809W        W81234  16.297  10.652   1.802
 8810W        W81235   1.870  39.980  13.538
 8811W        W81236   0.308   7.222   3.789
 8812W        W81237  34.526   6.376  14.448
 8813W        W81238   6.798  33.382   4.750
 8814W        W81239  18.224  26.489   1.361
 8815W        W81240   5.826  27.612  11.420
 8816W        W81241  22.689  27.114   1.405
 8817W        W81242  14.170   7.179   2.266
 8818W        W81243  34.382  43.409  10.944
 8819W        W81244  25.501  27.515  13.866
 8820W        W81245  41.369  25.121  10.519
 8821W        W81246  23.574   4.319  10.413
 8822W        W81247  19.218  30.968  13.964
 8823W        W81248   8.199  40.965  12.885
 8824W        W81249  18.243  40.887   1.893
 8825W        W81250   1.341  22.117   1.696
 8826W        W81251  12.680  20.191   0.964
 8827W        W81252  41.326   1.396   2.789
 8828W        W81253  31.983  35.458  12.849
 8829W        W81254  13.666  21.223  13.412
 8830W        W81255   7.889   2.400   2.231
 8831W        W81256  14.589  11.669   4.639
 8832W        W81257  37.918   3.712  12.985
 8833W        W81258   0.825  18.115  12.942
 8834W        W81259   7.297  35.917  10.994
 8835W        W81260  26.208  10.729   3.640
 8836W        W81261  22.169  41.855   0.405
 8837W        W81262  27.974  19.770   2.235
 8838W        W81263  19.721  29.439  13.968
 8839W        W81264  41.921  42.969  10.466
 8840W        W81265  10.267  44.947  14.371
 8841W        W81266  29.139  40.983   9.477
 8842W        W81267  36.073  19.228  10.602
 8843W        W81268  21.644  16.788  13.503
 8844W        W81269  13.615   8.807  12.550
 8845W        W81270  34.526  29.088  14.335
 8846W        W81271  39.377   4.293   4.290
 8847W        W81272   0.926  41.994  14.419
 8848W        W81273   2.381  40.995   0.397
 8849W        W81274  44.297   9.728  10.023
 8850W        W81275   9.806   8.308  14.759
 8851W        W81276  30.625  30.452  13.012
 8852W        W81277  24.996   5.851  14.871
 8853W        W81278   2.462  25.091   0.886
 8854W        W81279  22.053   9.237   0.387
 8855W        W81280  20.233  20.523  12.070
 8856W        W81281  27.975  41.900  13.394
 8857W        W81282  38.980  32.630  12.860
 8858W        W81283  19.760  24.157  10.412
 8859W        W81284  25.114  18.791  14.441
 8860W        W81285  40.498  40.448  12.858
 8861W        W81286  26.685  40.533  14.917
 8862W        W81287  17.172  18.605  13.316
 8863W        W81288  37.406   9.678  11.088
 8864W        W81289  17.700   5.890   0.827
 8865W        W81290  31.421  36.476   2.359
 8866W        W81291   8.224  10.383   4.752
 8867W        W81292   3.294   1.837   2.801
 8868W        W81293  23.047  20.069   1.448
 8869W        W81294  24.096  28.575  12.887
 8870W        W81295   7.689  40.985   3.235
 8871W        W81296  14.772  23.658  14.411
 8872W        W81297   6.193  27.011   0.327
 8873W        W81298  26.597  36.972   0.266
 8874W        W81299  32.477  44.300   9.987
 8875W        W81300   5.823  21.068   2.305
 8876W        W81301  28.519  20.182  11.874
 8877W        W81302   8.761  29.602   0.956
 8878W        W81303  13.245  25.605  13.443
 8879W        W81304   3.737  36.581  14.916
 8880W        W81305   1.876  14.103  12.483
 8881W        W81306  11.307  17.132  13.997
 8882W        W81307  33.384  15.126  11.476
 8883W        W81308  11.356  13.350  14.342
 8884W        W81309  15.179  40.467  12.040
 8885W        W81310  34.015  15.099   0.844
 8886W        W81311  42.308  25.152  10.903
 8887W        W81312   8.395  10.381  13.942
 8888W        W81313  24.634  39.925  10.522
 8889W        W81314  19.640  41.038  13.314
 8890W        W81315  41.537  32.590   2.845
 8891W        W81316  14.228  33.419   4.833
 8892W        W81317   4.889  24.209  11.448
 8893W        W81318  34.937  10.368  10.408
 8894W        W81319  16.770  27.071   0.275
 8895W        W81320  36.549   1.414   0.913
 8896W        W81321  14.202  10.790  10.422
 8897W        W81322  10.157  41.422  11.070
 8898W        W81323  27.182  34.384   0.310
 8899W        W81324  10.273  28.094   4.191
 8900W        W81325  22.146  18.679   3.211
 8901W        W81326   6.333  40.024  12.568
 8902W        W81327  28.678   8.387   0.345
 8903W        W81328  41.803  14.664  14.481
 8904W        W81329  20.070  21.226   5.130
 8905W        W81330   4.767  18.612  11.037
 8906W        W81331   4.841  26.042  11.517
 8907W        W81332  14.323  12.230  10.466
 8908W        W81333  19.143  43.401  12.536
 8909W        W81334  13.650  33.626   4.602
 8910W        W81335  22.627  31.020  10.569
 8911W        W81336  32.458  11.824   1.913
 8912W        W81337  24.202   6.822   3.737
 8913W        W81338  30.633  39.394  10.543
 8914W        W81339   1.955  27.137  12.873
 8915W        W81340  13.129   5.926  12.344
 8916W        W81341  18.749  28.051  12.374
 8917W        W81342  30.959  19.561   4.688
 8918W        W81343  38.034  23.611  12.926
 8919W        W81344  28.164  13.289  11.970
 8920W        W81345  22.632  37.506  14.345
 8921W        W81346  20.687  32.536  14.765
 8922W        W81347  22.728  12.655  11.426
 8923W        W81348  43.849   8.817  12.002
 8924W        W81349  21.215  33.579   5.105
 8925W        W81350  33.062   0.327  11.069
 8926W        W81351  31.579  15.191  14.766
 8927W        W81352  30.953  38.019  12.057
 8928W        W81353  32.964  31.963   3.804
 8929W        W81354  27.959  31.419   1.774
 8930W        W81355  27.449   3.738   1.735
 8931W        W81356  28.530   5.264  14.792
 8932W        W81357  18.063  31.545   3.707
 8933W        W81358  31.034   7.680   4.768
 8934W        W81359  10.179  34.579   0.762
 8935W        W81360   3.934   1.937  11.555
 8936W        W81361  26.981  24.688   2.384
 8937W        W81362  18.685   5.234   0.881
 8938W        W81363  34.874   0.400   0.797
 8939W        W81364  19.152   7.881   1.244
 8940W        W81365  23.018  10.694  11.957
 8941W        W81366  11.846  21.056   0.771
 8942W        W81367   6.798   3.288  13.976
 8943W        W81368  28.556  18.153  13.809
 8944W        W81369  42.832  25.679   1.267
 8945W        W81370  28.452  44.267   4.230
 8946W        W81371  24.017  13.318   4.779
 8947W        W81372  22.554   5.309   1.255
 8948W        W81373  29.009  25.709   4.116
 8949W        W81374  42.464  14.289  12.417
 8950W        W81375   4.747  13.195   1.300
 8951W        W81376   1.296  27.587   1.919
 8952W        W81377  18.236  16.276   4.330
 8953W        W81378  12.240  17.083  11.936
 8954W        W81379   1.932   1.437  11.001
 8955W        W81380   1.337  35.444  13.460
 8956W        W81381  44.292  18.751   0.244
 8957W        W81382  28.091  24.104  14.315
 8958W        W81383  35.537  34.578   2.248
 8959W        W81384  22.120  10.158  12.435
 8960W        W81385  20.765   8.857   3.734
 8961W        W81386   9.663  15.299  14.019
 8962W        W81387  14.779   8.765  11.922
 8963W        W81388  27.978  44.937  10.527
 8964W        W81389  16.802  28.958  14.370
 8965W        W81390  38.907   0.904  10.426
 8966W        W81391  22.695  21.034  11.512
 8967W        W81392  11.768  25.066   1.709
 8968W        W81393   5.914  14.175  12.361
 8969W        W81394  18.244   2.891  14.914
 8970W        W81395  36.066  12.809   2.752
 8971W        W81396   6.258  16.644  13.403
 8972W        W81397   4.215   1.249  13.397
 8973W        W81398  39.945  12.818   0.281
 8974W        W81399  17.677  42.931   0.874
 8975W        W81400  28.030   1.977   0.808
 8976W        W81401   1.853  41.388  10.894
 8977W        W81402  18.183   8.733   4.805
 8978W        W81403  11.654  30.460  12.984
 8979W        W81404  28.521  20.060   4.238
 8980W        W81405   9.789  22.096   4.635
 8981W        W81406  25.484  32.059  14.019
 8982W        W81407  10.155   9.301   1.309
 8983W        W81408  35.099  40.804   4.115
 8984W        W81409   2.252  43.853  13.991
 8985W        W81410  28.538  29.045   0.919
 8986W        W81411  41.315  23.491  10.437
 8987W        W81412   1.932  26.007  12.360
 8988W        W81413  26.992   2.958   3.193
 8989W        W81414  13.638   4.858  14.490
 8990W        W81415  40.991  21.642  13.343
 8991W        W81416  25.985  38.828   2.774
 8992W        W81417  30.934  30.548  11.387
 8993W        W81418  22.715   5.880  12.887
 8994W        W81419  30.974  40.327   3.782
 8995W        W81420  36.088  39.856  12.408
 8996W        W81421  23.679  24.163   0.441
 8997W        W81422  28.509  32.431   1.448
 8998W        W81423  24.594  27.595  12.948
 8999W        W81424  29.560  34.093  11.041
 9000W        W81425  37.393  27.046   0.854
 9001W        W81426  28.501  35.569  13.057
 9002W        W81427  40.854  39.559   4.806
 9003W        W81428  39.506  32.515  13.811
 9004W        W81429  14.256  28.665  13.876
 9005W        W81430  15.158  11.780   3.152
 9006W        W81431   8.338   4.284  13.425
 9007W        W81432  34.027  15.183  14.805
 9008W        W81433  36.882  10.714   4.794
 9009W        W81434  32.960   1.972  10.418
 9010W        W81435  31.509  12.160  10.952
 9011W        W81436  22.038  23.543   0.333
 9012W        W81437   0.331  11.631  13.450
 9013W        W81438  28.589  26.967  12.506
 9014W        W81439  17.106  16.127  13.472
 9015W        W81440  34.083  33.068  11.864
 9016W        W81441  35.018   1.913   5.316
 9017W        W81442  13.132  12.797   0.951
 9018W        W81443  39.431  16.156   0.870
 9019W        W81444  10.718  30.599   2.732
 9020W        W81445   9.750  44.312   3.758
 9021W        W81446  36.973  25.162  14.901
 9022W        W81447  32.439  26.116  14.429
 9023W        W81448  28.510  25.544   4.233
 9024W        W81449  38.910   8.729  12.423
 9025W        W81450   3.811   4.207   0.767
 9026W        W81451  13.114  38.996  14.349
 9027W        W81452  39.384  41.920  14.954
 9028W        W81453   9.313  19.759  13.939
 9029W        W81454  14.742   2.874  12.064
 9030W        W81455  26.635  19.121  11.428
 9031W        W81456   8.850  16.282   1.259
 9032W        W81457  10.826  16.761   3.790
 9033W        W81458   8.188  21.065  12.024
 9034W        W81459  31.050  33.556  11.436
 9035W        W81460  22.131  24.018   2.418
 9036W        W81461  16.296  43.992  14.994
 9037W        W81462   9.831  24.668  14.415
 9038W        W81463   5.793  23.592  13.468
 9039W        W81464  41.789  42.901   4.821
 9040W        W81465   5.368  17.213   0.872
 9041W        W81466  21.039  16.745  14.003
 9042W        W81467   1.385  32.958   4.166
 9043W        W81468  27.048   7.867  12.944
 9044W        W81469   8.182  20.206  11.016
 9045W        W81470  27.515  16.593   4.690
 9046W        W81471  24.610  41.318   4.292
 9047W        W81472  12.358   3.751   3.219
 9048W        W81473  33.927  31.135  10.632
 9049W        W81474  21.549  36.929  14.823
 9050W        W81475   3.245  10.191   1.248
 9051W        W81476  26.629  29.096  14.026
 9052W        W81477  31.150  41.876  10.593
 9053W        W81478   1.895  39.015   4.650
 9054W        W81479  10.812  44.324   4.633
 9055W        W81480  29.114   0.272   0.873
 9056W        W81481  14.753  24.979   9.938
 9057W        W81482   5.826  31.468  10.985
 9058W        W81483  25.140   8.816   3.153
 9059W        W81484   0.843  44.916  14.768
 9060W        W81485  26.001  28.631   1.925
 9061W        W81486  36.428   3.875  12.521
 9062W        W81487  24.191  30.993   4.288
 9063W        W81488  16.229  19.095  10.945
 9064W        W81489  29.031  42.295  14.493
 9065W        W81490  21.654  16.793   1.875
 9066W        W81491  29.568   4.438  12.015
 9067W        W81492  13.663   6.299  12.406
 9068W        W81493   1.329  33.991   4.818
 9069W        W81494  15.326   6.229  13.341
 9070W        W81495  19.280  17.611   0.901
 9071W        W81496  28.183  11.703   3.745
 9072W        W81497  37.508  37.457   0.444
 9073W        W81498  44.484   5.290   0.773
 9074W        W81499  31.956  15.109   3.308
 9075W        W81500  18.281  31.959   0.475
 9076W        W81501   4.760   1.805   0.790
 9077W        W81502   7.384  43.950   2.790
 9078W        W81503  28.181  11.334   1.824
 9079W        W81504  25.551  15.187  12.956
 9080W        W81505  25.591  14.730  14.996
 9081W        W81506   6.817  25.508   4.778
 9082W        W81507   3.732  30.145   0.266
 9083W        W81508   9.870  20.175   4.744
 9084W        W81509   6.758  29.636  14.826
 9085W        W81510  21.243  39.960  11.978
 9086W        W81511  34.537   9.155   3.635
 9087W        W81512   6.357  18.256  10.406
 9088W        W81513  33.506  44.325  10.633
 9089W        W81514  39.518  38.366   2.272
 9090W        W81515   3.854  19.092  14.468
 9091W        W81516  28.127  19.223  12.420
 9092W        W81517  30.120   8.301   3.713
 9093W        W81518  22.736   2.732  14.408
 9094W        W81519  43.977  14.219   0.937
 9095W        W81520  18.228  32.136  12.893
 9096W        W81521  42.928   4.915  10.435
 9097W        W81522  43.772  32.911   2.208
 9098W        W81523  19.123  31.426  11.878
 9099W        W81524  43.447   8.339   3.375
 9100W        W81525  21.742  40.944   0.343
 9101W        W81526  35.524  42.406   0.406
 9102W        W81527  41.309   7.205  11.549
 9103W        W81528  18.573  21.559  11.999
 9104W        W81529  42.497  24.584   1.804
 9105W        W81530  21.064  18.742   4.616
 9106W        W81531   7.236  16.647  13.917
 9107W        W81532  33.430  17.594   0.774
 9108W        W81533   4.230   1.301  14.791
 9109W        W81534  28.081   7.286  12.885
 9110W        W81535  18.554  37.482  12.348
 9111W        W81536  39.326  35.467  14.409
 9112W        W81537  24.651   7.849   2.814
 9113W        W81538  26.657  30.147   2.238
 9114W        W81539  14.833  28.087  10.424
 9115W        W81540   3.447  38.875   5.088
 9116W        W81541  29.942  32.534  13.313
 9117W        W81542  20.649  22.539   2.409
 9118W        W81543  37.995   7.676   2.393
 9119W        W81544   5.860  28.516  11.094
 9120W        W81545  20.188   3.840  12.431
 9121W        W81546   5.199   5.419  12.996
 9122W        W81547  41.323  12.766   1.748
 9123W        W81548  43.381  17.136   4.637
 9124W        W81549  36.969  15.097   3.857
 9125W        W81550  40.878  44.903   4.715
 9126W        W81551  31.095  22.181  12.895
 9127W        W81552  43.319  16.159   0.418
 9128W        W81553  23.154  23.500  13.814
 9129W        W81554  16.661  30.517  12.012
 9130W        W81555  38.857  36.483   2.870
 9131W        W81556   7.205   1.317  14.831
 9132W        W81557  39.851  37.987  14.971
 9133W        W81558  19.150   4.339   0.297
 9134W        W81559  38.048  26.028   3.299
 9135W        W81560  13.124  11.865   2.894
 9136W        W81561   1.253   4.400   3.689
 9137W        W81562  44.960  33.999   1.870
 9138W        W81563  25.514  10.774  11.487
 9139W        W81564   8.177   8.205   2.698
 9140W        W81565   7.898  17.223   0.448
 9141W        W81566  32.081  27.661  13.909
 9142W        W81567  37.936  12.830  11.887
 9143W        W81568  38.022  21.625  14.352
 9144W        W81569  36.902   8.821  12.491
 9145W        W81570  21.228  41.415  13.904
 9146W        W81571  29.569  43.339  11.517
 9147W        W81572   7.315   4.780   2.896
 9148W        W81573   4.719  13.276   4.298
 9149W        W81574  44.358  41.489   4.279
 9150W        W81575  32.021  28.463  11.393
 9151W        W81576  26.967  33.971   2.755
 9152W        W81577  15.271  33.947  12.339
 9153W        W81578  12.254  12.189  10.585
 9154W        W81579  27.608  27.460  13.007
 9155W        W81580  30.556  18.727   4.753
 9156W        W81581  26.538  12.149   2.383
 9157W        W81582  22.621  29.982   0.367
 9158W        W81583   7.905  35.488   2.293
 9159W        W81584  33.575  41.371   4.159
 9160W        W81585  42.018   6.875  13.945
 9161W        W81586  42.981   0.966   1.819
 9162W        W81587  22.582   4.443   9.932
 9163W        W81588  14.131  23.142  12.403
 9164W        W81589  20.146  30.936  12.025
 9165W        W81590  18.292  12.661  13.419
 9166W        W81591  22.102  11.858  10.486
 9167W        W81592  27.683  43.513   3.775
 9168W        W81593  18.096  35.412   2.685
 9169W        W81594  38.860  44.961   3.841
 9170W        W81595  32.892  10.367  11.124
 9171W        W81596   6.408  17.239  13.460
 9172W        W81597  28.053  28.055  12.423
 9173W        W81598  35.459   4.298  13.897
 9174W        W81599  36.378  38.045   3.232
 9175W        W81600  41.835  32.429  12.345
 9176W        W81601  20.763  14.595  11.552
 9177W        W81602   4.766  43.980   1.801
 9178W        W81603  35.576  24.665   0.356
 9179W        W81604  31.967  26.976  14.782
 9180W        W81605  25.038  16.760   4.258
 9181W        W81606  23.701  13.202   1.433
 9182W        W81607  21.660  40.862   3.158
 9183W        W81608  22.654  18.093  10.431
 9184W        W81609  22.684  24.491  11.563
 9185W        W81610   3.287  20.123  14.499
 9186W        W81611  11.813  26.161  12.476
 9187W        W81612  30.041  15.626  14.962
 9188W        W81613  37.020  25.074  11.386
 9189W        W81614   3.253  38.389   1.839
 9190W        W81615  42.836  40.857   3.345
 9191W        W81616  43.975   6.382   2.397
 9192W        W81617  42.515  31.548   4.770
 9193W        W81618  37.477  32.064   0.963
 9194W        W81619  23.154  13.835   2.802
 9195W        W81620  32.574   2.923   0.339
 9196W        W81621   4.940  29.620  10.505
 9197W        W81622   1.383  33.122  12.407
 9198W        W81623  39.537  33.884  13.420
 9199W        W81624  43.309  24.512  11.941
 9200W        W81625  31.647  20.698  12.579
 9201W        W81626  26.488   4.291   4.323
 9202W        W81627   4.272  33.961   2.282
 9203W        W81628   4.267  25.518  14.410
 9204W        W81629  20.241   2.940   4.731
 9205W        W81630  44.761  28.669   4.139
 9206W        W81631  14.336  34.031  12.839
 9207W        W81632   6.840  34.075   1.790
 9208W        W81633  15.161  43.352   0.951
 9209W        W81634   8.186  14.152   3.221
 9210W        W81635   6.695  20.039   0.771
 9211W        W81636  44.882   5.254  10.431
 9212W        W81637  30.138  12.797   4.322
 9213W        W81638  42.895   4.857   3.851
 9214W        W81639  17.264  29.649   0.929
 9215W        W81640   3.369  30.423   4.625
 9216W        W81641  10.802   1.939  11.987
 9217W        W81642  18.735  44.501   4.679
 9218W        W81643  41.815  13.634  12.564
 9219W        W81644   0.851  27.507  11.999
 9220W        W81645  21.576  32.926  12.363
 9221W        W81646  23.171  42.951  14.913
 9222W        W81647  32.904  26.565   1.931
 9223W        W81648  12.807  34.903   3.150
 9224W        W81649  39.837  20.163   4.755
 9225W        W81650  40.392   3.453  11.056
 9226W        W81651  43.866  19.726   1.821
 9227W        W81652   5.333  24.628  12.013
 9228W        W81653  28.449  13.181   3.329
 9229W        W81654  35.526  16.316   2.847
 9230W        W81655  30.129  25.156   4.190
 9231W        W81656   6.848  14.739  14.338
 9232W        W81657  33.942  18.181  14.904
 9233W        W81658  11.216  35.036   3.149
 9234W        W81659  41.519  20.646   3.342
 9235W        W81660  15.299  25.161  13.035
 9236W        W81661  43.904   1.237  11.931
 9237W        W81662   9.699  31.015   0.793
 9238W        W81663  43.775  18.715  12.929
 9239W        W81664   9.683  41.865   4.182
 9240W        W81665  20.090  29.511  12.389
 9241W        W81666   0.271   3.326   3.633
 9242W        W81667  32.451  22.737  11.111
 9243W        W81668  39.437  27.085   1.366
 9244W        W81669  21.227  42.357   2.180
 9245W        W81670   8.787  14.595  13.857
 9246W        W81671  30.482  12.640  11.957
 9247W        W81672  44.996   1.746   1.837
 9248W        W81673  10.272  31.911  14.303
 9249W        W81674  28.503   3.888  13.869
 9250W        W81675  18.293  15.786   0.458
 9251W        W81676   1.815  15.811   2.242
 9252W        W81677   6.825   2.314  14.859
 9253W        W81678   3.286  22.590  13.359
 9254W        W81679  13.142  40.930   2.405
 9255W        W81680   8.657   4.827   4.247
 9256W        W81681   9.203  28.179   0.355
 9257W        W81682  18.736   7.709   4.234
 9258W        W81683  10.639  31.536  11.026
 9259W        W81684  31.637  22.630   1.447
 9260W        W81685  41.377  41.331   1.715
 9261W        W81686  38.538   4.783   4.777
 9262W        W81687   2.401  43.299  14.371
 9263W        W81688  38.474  23.140  14.349
 9264W        W81689   7.185  12.295  10.641
 9265W        W81690  27.157  29.034  11.988
 9266W        W81691   7.347   8.677  10.520
 9267W        W81692  33.409  37.517  14.922
 9268W        W81693  36.374  33.493   1.712
 9269W        W81694  37.863  44.424   1.732
 9270W        W81695  25.121  33.072  12.894
 9271W        W81696  19.191  29.556   1.393
 9272W        W81697  41.797  34.498   0.746
 9273W        W81698  25.064   4.266  10.011
 9274W        W81699  30.479  21.155   4.336
 9275W        W81700  14.150  36.515  13.963
 9276W        W81701   0.331   3.341  14.478
 9277W        W81702  30.446  15.318   1.221
 9278W        W81703  41.031   2.788  12.925
 9279W        W81704  20.661   1.818   4.193
 9280W        W81705  14.268  20.681   3.754
 9281W        W81706  29.027  42.307   4.200
 9282W        W81707   4.718  26.182   3.823
 9283W        W81708  41.993  19.587   1.304
 9284W        W81709   2.258  32.133  13.985
 9285W        W81710  30.582  33.483  10.928
 9286W        W81711  28.665  34.121   0.445
 9287W        W81712   5.728   4.730   4.770
 9288W        W81713   9.306  32.132  10.497
 9289W        W81714  10.865  12.141  13.843
 9290W        W81715  21.037   9.714   1.243
 9291W        W81716  37.870  15.739   0.329
 9292W        W81717   3.751  44.901  11.953
 9293W        W81718  24.645   0.331  11.586
 9294W        W81719  10.337  38.526   5.154
 9295W        W81720   4.423  15.108   0.830
 9296W        W81721  18.208  20.224   3.315
 9297W        W81722  31.545  31.527   1.891
 9298W        W81723   9.743  37.417  12.562
 9299W        W81724  21.596  19.706  11.895
 9300W        W81725   7.759   4.212  10.465
 9301W        W81726   4.733  39.321  13.917
 9302W        W81727  25.672   3.898   1.916
 9303W        W81728  16.786  34.105  14.013
 9304W        W81729  20.687  20.155   4.646
 9305W        W81730  38.883   6.226   3.255
 9306W        W81731   5.338  10.642   4.206
 9307W        W81732   9.855   6.851  12.065
 9308W        W81733   8.667  19.679   2.902
 9309W        W81734   7.327  28.642  11.403
 9310W        W81735  17.687   6.760   4.811
 9311W        W81736  40.918   6.333  10.550
 9312W        W81737  33.935  10.193  14.363
 9313W        W81738  26.474  34.514  13.838
 9314W        W81739  44.766   9.681  12.980
 9315W        W81740  37.918  39.494   1.332
 9316W        W81741  24.038  30.069  10.067
 9317W        W81742  10.652  40.046  12.922
 9318W        W81743  34.615  31.034  13.001
 9319W        W81744  28.476  19.201  12.348
 9320W        W81745  16.086  34.036  13.481
 9321W        W81746  14.185   8.288   3.157
 9322W        W81747  33.493  25.034  12.509
 9323W        W81748   9.194  11.848  14.954
 9324W        W81749  18.761  37.881   3.811
 9325W        W81750  11.774  14.257   0.366
 9326W        W81751  40.019  19.192  11.915
 9327W        W81752  40.952  42.779   2.393
 9328W        W81753   8.893  36.509   4.202
 9329W        W81754  28.975  36.511   1.265
 9330W        W81755   0.888  32.958  14.488
 9331W        W81756  31.630  30.522   4.192
 9332W        W81757  38.401  20.588  12.550
 9333W        W81758  22.219  16.765  10.960
 9334W        W81759  40.938   4.771   3.708
 9335W        W81760   9.826  22.132  13.967
 9336W        W81761   8.740  10.640  14.425
 9337W        W81762  12.198  10.352   4.167
 9338W        W81763  34.419   6.876  13.010
 9339W        W81764  44.260  27.058   1.903
 9340W        W81765  27.042  40.933  13.811
 9341W        W81766  12.314  18.282  12.377
 9342W        W81767  20.092   4.298   1.718
 9343W        W81768  14.628  25.191   3.657
 9344W        W81769  19.182  28.007  10.458
 9345W        W81770  32.021  38.054  11.568
 9346W        W81771   4.762  31.590   4.663
 9347W        W81772  34.607  32.600  10.411
 9348W        W81773   8.250   7.180  13.882
 9349W        W81774  19.107  40.841  14.398
 9350W        W81775  23.075  17.283   4.832
 9351W        W81776  43.011  24.186  12.458
 9352W        W81777   6.765  13.601  12.433
 9353W        W81778  27.556  41.472   3.728
 9354W        W81779   5.781   4.893   4.167
 9355W        W81780  37.966   2.320   1.705
 9356W        W81781   5.292  23.538   2.670
 9357W        W81782  15.193  36.463   3.180
 9358W        W81783  26.953  31.495   1.807
 9359W        W81784  36.959  17.635   4.333
 9360W        W81785  15.299   2.450   0.835
 9361W        W81786  25.503  28.935  12.979
 9362W        W81787  39.349  16.771   0.332
 9363W        W81788  22.106  38.846   1.346
 9364W        W81789  18.714  15.231  11.861
 9365W        W81790  33.572  35.588  11.870
 9366W        W81791   4.738  34.490   0.346
 9367W        W81792   3.866  14.651  14.284
 9368W        W81793  22.536   7.402  11.901
 9369W        W81794  40.351  35.981   1.333
 9370W        W81795   1.320   9.782   3.727
 9371W        W81796  17.796  14.204   2.211
 9372W        W81797  12.739  38.352  13.964
 9373W        W81798  39.316  18.199   3.743
 9374W        W81799  24.721  15.199   4.235
 9375W        W81800  33.129  40.882  12.340
 9376W        W81801  28.122  44.772  13.881
 9377W        W81802   6.808   2.773   4.699
 9378W        W81803   9.697  34.505  12.872
 9379W        W81804  25.473  38.978   0.851
 9380W        W81805  41.025  38.039  11.572
 9381W        W81806  22.116   9.281   1.748
 9382W        W81807  40.382  13.307  10.490
 9383W        W81808  30.521  11.364  12.433
 9384W        W81809  31.494  19.721   0.757
 9385W        W81810  17.638  31.141  14.895
 9386W        W81811   3.430  17.199  13.498
 9387W        W81812  23.537  42.900  11.909
 9388W        W81813  15.263   2.264   1.372
 9389W        W81814  19.174   9.811   1.903
 9390W        W81815  10.808  11.234   2.296
 9391W        W81816  40.387  35.028   9.923
 9392W        W81817  32.411   1.967  12.456
 9393W        W81818  16.090   7.360  13.982
 9394W        W81819  17.184  25.995  13.981
 9395W        W81820  20.628  25.620  12.031
 9396W        W81821   7.308   5.397  11.531
 9397W        W81822  40.027  41.808  14.013
 9398W        W81823   3.234  16.279  13.378
 9399W        W81824  20.713   0.831   3.187
 9400W        W81825  36.855  13.127  12.955
 9401W        W81826   3.300  35.011  14.977
 9402W        W81827  41.972  40.004   3.174
 9403W        W81828  25.566  43.956   3.197
 9404W        W81829  15.253  16.241   4.771
 9405W        W81830   0.806   6.337  13.893
 9406W        W81831  18.700  14.745  14.442
 9407W        W81832  10.149   3.259   4.669
 9408W        W81833  21.571  43.867   3.250
 9409W        W81834   6.738  17.621   3.239
 9410W        W81835  42.328  38.329  11.384
 9411W        W81836  13.206  28.495   1.298
 9412W        W81837   9.203  39.355   3.183
 9413W        W81838   4.370  16.739  14.932
 9414W        W81839   5.801   5.327  14.435
 9415W        W81840  42.393  20.198   0.257
 9416W        W81841   9.669  18.195   3.285
 9417W        W81842  36.573  31.447  14.466
 9418W        W81843  22.723   5.705  10.153
 9419W        W81844  23.023  17.735  14.385
 9420W        W81845  15.275  10.277  11.425
 9421W        W81846  27.107  21.557   1.235
 9422W        W81847  14.649  17.787   0.769
 9423W        W81848  26.954  19.647   0.306
 9424W        W81849  14.631  33.625   2.194
 9425W        W81850  17.082  44.950  12.847
 9426W        W81851  32.430   1.760  11.538
 9427W        W81852  44.006  32.418   1.925
 9428W        W81853  19.238  41.350  13.351
 9429W        W81854  38.873  14.201  11.507
 9430W        W81855  41.900  44.442   3.660
 9431W        W81856   2.806  16.084  11.080
 9432W        W81857  12.153  15.194  13.517
 9433W        W81858  36.535  22.706   2.303
 9434W        W81859  17.085   8.719   4.657
 9435W        W81860  41.311  16.193   2.199
 9436W        W81861  27.460  42.786   4.700
 9437W        W81862   8.807  26.122   2.761
 9438W        W81863  41.421  19.637  14.484
 9439W        W81864  37.536   4.790   9.973
 9440W        W81865  33.430  11.143   0.769
 9441W        W81866  39.537  37.028   4.232
 9442W        W81867  43.826  29.637  10.597
 9443W        W81868  41.896  37.087   4.303
 9444W        W81869  32.983  28.996   3.236
 9445W        W81870  20.194  43.803   0.931
 9446W        W81871  41.468   4.249  11.104
 9447W        W81872  14.719  39.809   3.181
 9448W        W81873   6.325  20.713  12.343
 9449W        W81874  11.339  17.651   4.266
 9450W        W81875  33.108  30.949  13.419
 9451W        W81876  13.733   9.858  11.860
 9452W        W81877  18.756   2.359  14.885
 9453W        W81878   4.781  40.473   2.716
 9454W        W81879  30.107  23.189  12.442
 9455W        W81880   1.767  31.558  14.857
 9456W        W81881  33.497  25.129  14.896
 9457W        W81882  40.904  23.996  10.479
 9458W        W81883  28.560  21.597   3.258
 9459W        W81884  33.409   4.246   0.738
 9460W        W81885  29.132  14.708  14.966
 9461W        W81886   6.376  26.057   0.292
 9462W        W81887  14.152  27.498  11.459
 9463W        W81888  17.293  19.245  12.365
 9464W        W81889  22.164  12.715   1.267
 9465W        W81890  37.346  39.386   2.772
 9466W        W81891  42.967  18.261  11.537
 9467W        W81892  19.557   4.240  13.449
 9468W        W81893   5.295  20.530   2.349
 9469W        W81894  37.041  17.136   2.740
 9470W        W81895  31.424  26.480  10.606
 9471W        W81896  36.053   4.739   3.218
 9472W        W81897   3.345  17.650  10.575
 9473W        W81898  23.194  39.489   4.311
 9474W        W81899  36.419  18.600   3.703
 9475W        W81900  44.504  31.635   0.954
 9476W        W81901  17.113  11.266  11.055
 9477W        W81902  42.343  19.142   1.431
 9478W        W81903  43.953   3.438  14.388
 9479W        W81904  14.098  27.625   3.760
 9480W        W81905  24.187  38.492  12.531
 9481W        W81906  26.566  17.130   3.697
 9482W        W81907   7.350  26.624   3.332
 9483W        W81908   0.880  34.086  10.416
 9484W        W81909  31.962   4.902   3.345
 9485W        W81910   6.686  22.737  12.412
 9486W        W81911  14.659  12.183  14.388
 9487W        W81912  18.229  40.924  10.575
 9488W        W81913   4.784  36.381   3.299
 9489W        W81914  17.235  26.585   0.354
 9490W        W81915  21.615  40.966  10.503
 9491W        W81916  30.505  18.202   2.244
 9492W        W81917  12.274  17.716   4.192
 9493W        W81918  28.641  35.044  10.479
 9494W        W81919   7.728  10.198  14.932
 9495W        W81920  11.336  19.270   1.892
 9496W        W81921  31.405  33.601   3.771
 9497W        W81922  36.457  15.743  11.056
 9498W        W81923  29.425  26.630  13.443
 9499W        W81924   2.759  18.625   3.744
 9500W        W81925  27.538  44.868  13.999
 9501W        W81926  27.609  37.979  11.028
 9502W        W81927  11.289  13.208   3.868
 9503W        W81928  26.635   5.818   4.655
 9504W        W81929   6.812   4.863  13.382
 9505W        W81930   2.845  31.124  12.575
 9506W        W81931   0.424  33.128   2.359
 9507W        W81932  25.692  38.541  12.039
 9508W        W81933  23.018   9.173   1.903
 9509W        W81934   6.854   3.885  13.819
 9510W        W81935  36.091  15.179   0.783
 9511W        W81936   8.891  41.443  11.989
 9512W        W81937  26.148  31.475  14.373
 9513W        W81938  40.818  31.060  14.030
 9514W        W81939  27.077  17.289   1.324
 9515W        W81940   3.769  17.692  11.428
 9516W        W81941  37.558  22.069   4.312
 9517W        W81942   2.937   0.978  10.957
 9518W        W81943  24.599  17.682  14.801
 9519W        W81944  23.181   7.272   4.325
 9520W        W81945  37.972  35.999   0.314
 9521W        W81946  44.009  17.240   2.724
 9522W        W81947  13.656  39.457  12.377
 9523W        W81948  42.813   7.278   3.226
 9524W        W81949   3.255  31.977  12.829
 9525W        W81950  43.483  37.496  14.289
 9526W        W81951  11.759  23.123  13.845
 9527W        W81952  20.655  30.577  11.562
 9528W        W81953  31.626  10.285   2.254
 9529W        W81954  25.494  36.886   2.256
 9530W        W81955   3.938  38.959   2.668
 9531W        W81956  36.542  39.492  13.846
 9532W        W81957  14.765  39.464   3.743
 9533W        W81958   3.713  44.008  12.079
 9534W        W81959   2.923  19.069   4.700
 9535W        W81960  19.580  14.744  12.051
 9536W        W81961  13.634   9.809  10.924
 9537W        W81962  42.982   2.419  13.840
 9538W        W81963  12.737  44.957  14.411
 9539W        W81964  13.686  32.544   0.879
 9540W        W81965  38.567  17.262   0.373
 9541W        W81966  31.007  14.134   2.812
 9542W        W81967   5.733  38.969  14.481
 9543W        W81968  37.051  32.033   0.909
 9544W        W81969   4.431  35.569   0.375
 9545W        W81970  39.497  24.674   1.845
 9546W        W81971  17.068   1.772   2.346
 9547W        W81972  29.478  14.213   2.829
 9548W        W81973  31.935  22.592  13.470
 9549W        W81974  35.405  37.446   3.218
 9550W        W81975  41.416   8.668   0.294
 9551W        W81976  34.007  33.066   0.961
 9552W        W81977   0.945  12.671   2.342
 9553W        W81978   7.782  15.153   4.716
 9554W        W81979   9.731   6.700  12.968
 9555W        W81980  27.122  31.140   5.697
 9556W        W81981  18.583   6.256  10.411
 9557W        W81982  14.711  34.598   2.779
 9558W        W81983  14.224  32.142   2.407
 9559W        W81984  31.027  43.386   4.273
 9560W        W81985  12.200  17.085   1.846
 9561W        W81986  22.021   4.417  11.587
 9562W        W81987  33.409  44.977   0.267
 9563W        W81988   5.773  16.673  12.348
 9564W        W81989   2.456  36.967   4.282
 9565W        W81990  26.169  44.918  13.903
 9566W        W81991  21.245  35.943  11.015
 9567W        W81992  21.641  40.896   2.810
 9568W        W81993  44.921  41.031  12.404
 9569W        W81994  18.775  11.311  12.461
 9570W        W81995   3.352  19.551  12.435
 9571W        W81996  40.338  19.098  11.394
 9572W        W81997  30.036  40.880  13.491
 9573W        W81998  37.557  13.122   0.853
 9574W        W81999  38.569  17.071  14.276
 9575W        W82000  18.222  20.708  10.532
 9576W        W82001  11.632  29.666   4.678
 9577W        W82002  43.422  18.181  12.036
 9578W        W82003   3.284  42.966   0.908
 9579W        W82004  17.677  20.539   3.344
 9580W        W82005  41.832  39.857   3.635
 9581W        W82006  43.396   5.285  11.097
 9582W        W82007   9.313  30.431   4.151
 9583W        W82008  25.145  32.042   0.914
 9584W        W82009  21.048  29.507  14.895
 9585W        W82010   4.399  12.219  11.006
 9586W        W82011  31.092  37.837   4.190
 9587W        W82012  36.046  19.740   3.735
 9588W        W82013   2.262   5.354  13.013
 9589W        W82014  39.991   8.774   0.243
 9590W        W82015  33.419  15.637   1.808
 9591W        W82016  38.856  27.987  10.634
 9592W        W82017  43.985  42.843  13.850
 9593W        W82018  39.967  17.629   0.270
 9594W        W82019   7.798  32.415   2.718
 9595W        W82020  42.500  22.713  13.007
 9596W        W82021  40.345  42.337  14.309
 9597W        W82022  20.041   2.422  11.993
 9598W        W82023   3.355  12.287   1.306
 9599W        W82024  27.555  41.425  12.901
 9600W        W82025  12.359  23.177  10.044
 9601W        W82026  22.093  35.552   1.892
 9602W        W82027  26.594  42.959   4.770
 9603W        W82028  15.113  27.014   3.751
 9604W        W82029  31.972  17.093  11.558
 9605W        W82030  28.155  28.133  14.944
 9606W        W82031   6.778  42.513  12.432
 9607W        W82032  22.138   8.706  11.375
 9608W        W82033  34.094  32.504   0.324
 9609W        W82034  27.632  30.541  14.815
 9610W        W82035  36.843   3.861   2.809
 9611W        W82036  25.987  27.513  14.434
 9612W        W82037  38.487  39.954   1.331
 9613W        W82038  24.094  19.183   2.345
 9614W        W82039  23.166  12.825   2.687
 9615W        W82040   4.704  11.675   2.717
 9616W        W82041   4.428  40.491   0.458
 9617W        W82042  14.101  41.332  11.063
 9618W        W82043  24.202  19.658  12.018
 9619W        W82044  31.972  25.155  11.504
 9620W        W82045  24.589  38.968  10.915
 9621W        W82046  14.626  22.543  11.924
 9622W        W82047  13.637  39.431  10.933
 9623W        W82048  29.442   9.786  12.519
 9624W        W82049  10.807  29.990   0.841
 9625W        W82050  38.920   7.752   9.974
 9626W        W82051  39.437  17.121  10.482
 9627W        W82052   4.719  33.485  10.090
 9628W        W82053  36.973  17.210   1.347
 9629W        W82054   5.210  16.707  13.322
 9630W        W82055  10.748  10.815  14.004
 9631W        W82056  40.542  29.928  12.893
 9632W        W82057  21.193   6.417   4.817
 9633W        W82058  33.416  12.756  12.828
 9634W        W82059  41.382  38.989   2.211
 9635W        W82060  19.097  37.891   3.378
 9636W        W82061  20.135  39.849  11.584
 9637W        W82062  44.375  42.465   1.905
 9638W        W82063  29.507  28.452   2.720
 9639W        W82064  21.078  14.174   1.853
 9640W        W82065  10.878  21.575  13.517
 9641W        W82066  23.173  37.033   2.393
 9642W        W82067  24.126   0.924  10.951
 9643W        W82068   3.428  15.808  11.911
 9644W        W82069  16.650  40.032   2.816
 9645W        W82070  12.783  37.985   0.457
 9646W        W82071   7.822  18.585  10.098
 9647W        W82072  14.284   8.314   0.315
 9648W        W82073   5.214  40.372   1.283
 9649W        W82074  18.584  25.616  13.544
 9650W        W82075   3.890  32.606   1.360
 9651W        W82076  44.942  16.309   3.303
 9652W        W82077  35.386  27.571  11.462
 9653W        W82078   1.383   2.311  12.448
 9654W        W82079  16.695  16.240   1.769
 9655W        W82080  35.408  32.066   4.325
 9656W        W82081  13.644  18.690   2.745
 9657W        W82082  26.094   1.389   4.686
 9658W        W82083   2.410  14.693   1.864
 9659W        W82084  32.575  42.946   3.792
 9660W        W82085  38.048  11.780   2.725
 9661W        W82086  22.200  32.937   3.236
 9662W        W82087  34.907   0.282  13.990
 9663W        W82088  29.473  22.745   3.359
 9664W        W82089  29.593   9.315  13.364
 9665W        W82090  24.117  38.986   4.772
 9666W        W82091  39.321  24.998   2.328
 9667W        W82092  17.664  21.159  11.923
 9668W        W82093  37.443   1.420  10.575
 9669W        W82094  21.240  21.554   0.960
 9670W        W82095  12.717  39.344   1.918
 9671W        W82096  38.879  14.802  11.915
 9672W        W82097  41.009  30.000   3.338
 9673W        W82098  35.381  32.924   3.379
 9674W        W82099  29.110  30.068  14.998
 9675W        W82100  35.925   8.763  10.144
 9676W        W82101  37.904   3.907   4.821
 9677W        W82102  16.611  23.684   3.373
 9678W        W82103  30.513  34.064  10.977
 9679W        W82104  24.566  16.624  11.591
 9680W        W82105  12.706   5.377   4.831
 9681W        W82106  15.202  24.982  13.479
 9682W        W82107  37.552  14.682  11.607
 9683W        W82108  11.765  29.925   3.772
 9684W        W82109  26.009   2.471  12.431
 9685W        W82110  17.571  14.139  12.501
 9686W        W82111  44.763  15.268   1.871
 9687W        W82112  18.237  25.124   2.681
 9688W        W82113  36.895  22.640   0.388
 9689W        W82114  38.337  14.739  11.429
 9690W        W82115  28.046  17.715  10.541
 9691W        W82116   1.306  22.043  12.368
 9692W        W82117  26.034   1.810   3.157
 9693W        W82118  20.084   8.332   2.363
 9694W        W82119   8.374  41.813   2.378
 9695W        W82120  19.044  25.605   4.206
 9696W        W82121  37.835   6.192   2.312
 9697W        W82122  11.171  23.208   4.317
 9698W        W82123  28.965  21.207  11.863
 9699W        W82124  25.701  15.255   0.765
 9700W        W82125   5.704  33.021  11.554
 9701W        W82126  24.203  30.625   3.714
 9702W        W82127  24.209   7.739   3.254
 9703W        W82128  21.048  27.685   3.845
 9704W        W82129  16.226   9.270   2.770
 9705W        W82130   3.900  38.438   0.381
 9706W        W82131  32.607   6.360   0.833
 9707W        W82132  25.034  18.786   2.180
 9708W        W82133  32.922  26.564   3.848
 9709W        W82134  33.916  44.775  11.428
 9710W        W82135  33.085  42.378  13.414
 9711W        W82136   1.760   4.930   2.309
 9712W        W82137  44.371  34.381  13.424
 9713W        W82138  14.762  41.468  10.136
 9714W        W82139  38.384  41.870  13.375
 9715W        W82140  13.618  26.197  12.444
 9716W        W82141  28.112  31.026   9.959
 9717W        W82142  28.074  24.140   1.867
 9718W        W82143  23.518  31.592   5.227
 9719W        W82144   8.790   4.813  12.976
 9720W        W82145   9.363  34.390  13.510
 9721W        W82146  15.823  30.412   3.173
 9722W        W82147  28.052   5.320  11.959
 9723W        W82148  37.025  27.641   3.353
 9724W        W82149  18.158  41.036  13.364
 9725W        W82150  22.998  28.010   0.318
 9726W        W82151   7.666  19.773   2.392
 9727W        W82152   1.948  41.836  13.953
 9728W        W82153  40.508   0.360  12.871
 9729W        W82154  27.038  16.628   0.449
 9730W        W82155  12.702   4.935   1.753
 9731W        W82156  21.090  30.070  11.023
 9732W        W82157  39.033  42.896  10.092
 9733W        W82158  32.581   5.690  11.068
 9734W        W82159  18.634  35.033   1.866
 9735W        W82160  27.618  39.542   5.576
 9736W        W82161  20.714  18.761  14.433
 9737W        W82162  20.733  14.672  12.398
 9738W        W82163  33.979  18.083  11.084
 9739W        W82164  11.656  12.155   4.245
 9740W        W82165  12.259   7.851  11.460
 9741W        W82166  44.788  37.973  13.534
 9742W        W82167  20.123  39.420   1.737
 9743W        W82168  24.195   7.902   2.289
 9744W        W82169  39.331   3.372   2.895
 9745W        W82170  30.612   2.768   0.960
 9746W        W82171  34.574  37.986   1.767
 9747W        W82172  19.593  32.919  12.489
 9748W        W82173  39.891  36.571  13.490
 9749W        W82174  41.808   5.868   0.821
 9750W        W82175  12.836   3.823   1.761
 9751W        W82176  26.691  41.988  14.910
 9752W        W82177  30.029  29.159  12.927
 9753W        W82178   4.430   9.829  14.383
 9754W        W82179   6.823  30.069   3.798
 9755W        W82180   2.327  20.766   2.361
 9756W        W82181  13.154  39.431  10.910
 9757W        W82182   9.246  35.974  12.543
 9758W        W82183   6.415   2.363   4.727
 9759W        W82184   2.296  27.686  12.045
 9760W        W82185  39.018  31.136  12.412
 9761W        W82186  19.580  19.764   3.271
 9762W        W82187  27.127   8.164   0.932
 9763W        W82188  28.145  23.042  11.609
 9764W        W82189  13.651   4.372  12.508
 9765W        W82190  34.513  30.909  13.319
 9766W        W82191  29.481   8.854   1.892
 9767W        W82192  42.318   6.811   0.813
 9768W        W82193  13.676   0.909  13.546
 9769W        W82194  25.647  12.341   4.611
 9770W        W82195  15.233  41.797   4.607
 9771W        W82196  28.147   5.417  14.898
 9772W        W82197  13.307  27.197  12.889
 9773W        W82198  31.007   9.811   2.858
 9774W        W82199  13.621  44.505  14.513
 9775W        W82200  25.066  41.970   2.266
 9776W        W82201  31.435  32.617   1.394
 9777W        W82202  22.014  16.796   0.807
 9778W        W82203   7.364  31.055  14.927
 9779W        W82204  40.513  38.983   4.217
 9780W        W82205  36.487  30.061   2.864
 9781W        W82206  34.484  41.317   3.777
 9782W        W82207  44.306   0.325   2.206
 9783W        W82208   0.827   0.412  11.436
 9784W        W82209  44.853  34.563  12.520
 9785W        W82210  33.407  32.110  11.014
 9786W        W82211  15.797   1.259  13.999
 9787W        W82212  34.897   1.819  14.022
 9788W        W82213  19.560  29.454  14.420
 9789W        W82214  11.237  16.219   0.285
 9790W        W82215  34.957  18.196  11.558
 9791W        W82216  31.518   1.278   4.314
 9792W        W82217  32.584  24.705  11.948
 9793W        W82218  38.422  21.212   4.756
 9794W        W82219  25.109  14.729   4.208
 9795W        W82220  39.058  15.817   1.816
 9796W        W82221  37.939  30.998   4.646
 9797W        W82222  27.634  30.526   1.743
 9798W        W82223  12.220  32.130   2.712
 9799W        W82224   3.764  31.628   4.262
 9800W        W82225  37.414  35.067  13.421
 9801W        W82226   5.195  32.097  11.572
 9802W        W82227  11.324  20.055   4.667
 9803W        W82228  38.371   4.939  11.895
 9804W        W82229  29.020  16.628   4.326
 9805W        W82230  12.697  37.937   0.916
 9806W        W82231  28.990  17.587   4.196
 9807W        W82232  32.399  15.116   0.471
 9808W        W82233   4.833  42.029   4.781
 9809W        W82234  33.967  33.581  10.619
 9810W        W82235   7.248   0.936   1.920
 9811W        W82236  27.551  31.469  10.587
 9812W        W82237   5.745  24.204  13.352
 9813W        W82238   6.372   4.263   4.675
 9814W        W82239  13.327  20.528  13.013
 9815W        W82240  43.846  34.468  14.979
 9816W        W82241  28.984   9.885   1.881
 9817W        W82242  26.146  10.687   3.221
 9818W        W82243  16.696  16.094  13.480
 9819W        W82244  32.444  10.331   1.351
 9820W        W82245  35.028  27.036  10.504
 9821W        W82246  39.478  21.630   4.608
 9822W        W82247  17.206  25.126  12.429
 9823W        W82248  28.595   4.941   2.251
 9824W        W82249  41.434  32.515   1.404
 9825W        W82250   3.931   8.368  10.587
 9826W        W82251   1.388   7.284   0.447
 9827W        W82252  10.213  27.057  11.988
 9828W        W82253   8.397  28.531  12.492
 9829W        W82254  39.445   5.289  11.922
 9830W        W82255   0.883  27.042  10.426
 9831W        W82256   4.249  19.736   2.681
 9832W        W82257  14.235  42.377  10.963
 9833W        W82258  22.722  35.950  11.523
 9834W        W82259  42.298  34.453   2.811
 9835W        W82260  30.630  28.996   0.453
 9836W        W82261  25.134   0.282  13.862
 9837W        W82262  42.387  42.828   0.740
 9838W        W82263  11.247   4.836  13.799
 9839W        W82264  23.076  36.001   3.742
 9840W        W82265   4.819  34.505   3.695
 9841W        W82266  39.952  28.607  11.394
 9842W        W82267  30.069  40.961   2.343
 9843W        W82268  15.310  40.012   4.756
 9844W        W82269  39.866  41.525   2.788
 9845W        W82270  14.147  31.153  14.785
 9846W        W82271   7.863  11.219   9.928
 9847W        W82272  41.852  31.447  14.335
 9848W        W82273  13.724  33.104  12.482
 9849W        W82274  34.956  32.396   0.354
 9850W        W82275  20.059  14.224  11.374
 9851W        W82276   2.810   0.813   3.852
 9852W        W82277  18.098  36.381   3.263
 9853W        W82278  29.109  34.886   2.214
 9854W        W82279  20.731  43.403   0.453
 9855W        W82280   1.825  11.196   1.759
 9856W        W82281  39.399  27.980  12.438
 9857W        W82282  12.790  34.032  11.021
 9858W        W82283   7.258  27.949  11.862
 9859W        W82284  23.195  18.719  11.606
 9860W        W82285  17.288  37.958   4.303
 9861W        W82286  27.989  39.020  12.439
 9862W        W82287  37.839  20.230  11.600
 9863W        W82288  36.548  31.143   2.843
 9864W        W82289  43.450   5.375  12.900
 9865W        W82290  32.609  36.383  12.911
 9866W        W82291  27.107  11.319  11.455
 9867W        W82292  41.934  30.465  14.773
 9868W        W82293  15.225  19.203   0.948
 9869W        W82294  36.406  17.697  14.438
 9870W        W82295  26.016  35.013  14.758
 9871W        W82296  28.525  14.604   4.243
 9872W        W82297   0.745   3.318   0.312
 9873W        W82298   0.414  42.458  12.021
 9874W        W82299  37.457   1.338  13.548
 9875W        W82300  24.101  15.738   2.720
 9876W        W82301  28.572  14.118   4.749
 9877W        W82302  37.917   7.408  14.292
 9878W        W82303  13.165  23.227  12.580
 9879W        W82304  41.392  26.483   3.239
 9880W        W82305   5.921   2.261  13.799
 9881W        W82306  14.321  26.049  13.390
 9882W        W82307  24.065  32.105   4.230
 9883W        W82308  25.047  15.236  11.883
 9884W        W82309  12.834  23.220  12.398
 9885W        W82310  10.790   1.786   3.219
 9886W        W82311  38.946  10.144   2.295
 9887W        W82312  17.287   5.357  11.983
 9888W        W82313   2.341  17.698   3.739
 9889W        W82314   1.310   4.417  11.903
 9890W        W82315  11.347  38.343   3.647
 9891W        W82316  40.799  40.345  11.435
 9892W        W82317  31.984   2.293   2.271
 9893W        W82318  26.064  19.065  10.966
 9894W        W82319  24.976  31.982  14.761
 9895W        W82320  24.698  40.416  11.054
 9896W        W82321  20.554   0.824  13.493
 9897W        W82322   9.772  23.168   1.347
 9898W        W82323  26.145  42.451   2.217
 9899W        W82324  31.415   6.814  12.490
 9900W        W82325  15.703  26.085  12.473
 9901W        W82326  27.043   9.843  13.432
 9902W        W82327  14.669  33.468   5.218
 9903W        W82328  23.191  34.539   1.333
 9904W        W82329  44.498  35.936   2.705
 9905W        W82330   7.779  17.605   1.731
 9906W        W82331  30.549   3.236  14.807
 9907W        W82332   6.821  19.070  12.074
 9908W        W82333  16.197  17.565   1.401
 9909W        W82334  25.997  44.898  11.475
 9910W        W82335  12.320  17.598   0.800
 9911W        W82336  12.307   0.899   3.646
 9912W        W82337  38.408  27.949   4.614
 9913W        W82338  33.452  40.048  13.969
 9914W        W82339  35.552  42.512   3.214
 9915W        W82340   2.737  29.516  11.554
 9916W        W82341  15.625  25.702  10.534
 9917W        W82342   7.398  10.716  11.049
 9918W        W82343  21.532  31.968  10.937
 9919W        W82344  22.695  19.749   4.734
 9920W        W82345  40.799  11.860   0.481
 9921W        W82346  17.202   0.402  14.952
 9922W        W82347  35.471  43.812  12.973
 9923W        W82348  34.544  15.661  10.923
 9924W        W82349   6.729  43.909   0.384
 9925W        W82350   9.729  35.466   1.852
 9926W        W82351  33.406  42.825  11.492
 9927W        W82352   7.346  29.081   4.330
 9928W        W82353  15.221  42.306  12.488
 9929W        W82354   1.804  17.193  13.876
 9930W        W82355  30.532  42.847   4.201
 9931W        W82356   3.387  42.903  12.364
 9932W        W82357  35.942  13.120   0.925
 9933W        W82358  29.467  18.075  10.126
 9934W        W82359   9.276  15.731   4.174
 9935W        W82360  21.636   4.937   1.711
 9936W        W82361  31.411  13.742   0.322
 9937W        W82362  40.049   9.653   0.790
 9938W        W82363  32.024  11.839   0.877
 9939W        W82364  38.075  23.711   0.741
 9940W        W82365  44.310  30.917   4.634
 9941W        W82366   9.855  28.145   2.303
 9942W        W82367  33.117  10.150  14.971
 9943W        W82368  32.025  39.873   0.472
 9944W        W82369  15.180  15.151   3.267
 9945W        W82370  23.565   4.313  14.880
 9946W        W82371  30.607   6.729   2.827
 9947W        W82372  10.677  10.301   1.826
 9948W        W82373  15.592   6.256   3.673
 9949W        W82374  25.016  23.607   1.380
 9950W        W82375   3.734  22.521   4.697
 9951W        W82376  21.115  28.945   2.311
 9952W        W82377  25.480  16.649   3.185
 9953W        W82378  39.529  20.568  11.530
 9954W        W82379  12.283  16.164   4.118
 9955W        W82380   9.211  12.620  11.520
 9956W        W82381   2.916  31.548  12.355
 9957W        W82382  21.711   0.267   4.725
 9958W        W82383  22.586  24.112   1.429
 9959W        W82384  13.189  36.857   4.801
 9960W        W82385  21.688  42.009   2.793
 9961W        W82386   7.189   3.734  10.625
 9962W        W82387  37.955  15.724   3.352
 9963W        W82388   7.896  17.260   4.669
 9964W        W82389  43.900   9.217  12.839
 9965W        W82390  40.462  33.533  13.917
 9966W        W82391   1.920  18.598   3.269
 9967W        W82392  29.929  44.951  13.454
 9968W        W82393   3.770   2.903  13.858
 9969W        W82394  37.072   4.765  12.850
 9970W        W82395  19.699  36.421   1.265
 9971W        W82396  34.872  39.849  12.948
 9972W        W82397   0.307  33.444  11.599
 9973W        W82398  18.201  28.099   4.808
 9974W        W82399  36.986  30.472   4.312
 9975W        W82400  43.506  19.657   2.218
 9976W        W82401  12.724   0.800   3.372
 9977W        W82402  11.145   4.827  12.974
 9978W        W82403  39.053  33.111   2.690
 9979W        W82404  13.124  36.846   4.343
 9980W        W82405  25.030  28.651  13.855
 9981W        W82406  32.451  22.641   4.677
 9982W        W82407  26.144  19.596   4.349
 9983W        W82408  32.929  31.575  14.386
 9984W        W82409  31.423  37.050  12.983
 9985W        W82410   0.377  19.277   0.317
 9986W        W82411  25.475  29.034   1.285
 9987W        W82412  32.113  32.041   4.259
 9988W        W82413   2.889  12.261   4.315
 9989W        W82414  34.103  22.711  10.899
 9990W        W82415  30.045  25.472  13.008
 9991W        W82416  28.112  36.081   4.145
 9992W        W82417   6.251   5.735  14.882
 9993W        W82418  10.837  17.758   4.332
 9994W        W82419   9.704  21.043   0.961
 9995W        W82420  29.579  34.400   1.876
 9996W        W82421  37.523   1.474  14.395
 9997W        W82422   8.347  16.800  10.547
 9998W        W82423  25.971   2.362   3.740
 9999W        W82424   5.197  34.568   3.145
10000W        W82425  26.465  19.751  12.534
10001W        W82426  40.999  39.441  11.584
10002W        W82427  11.857   1.892  13.443
10003W        W82428  42.481  34.547   1.802
10004W        W82429  42.996   6.707   3.722
10005W        W82430  12.339  37.573  13.363
10006W        W82431  44.489  25.578   2.247
10007W        W82432  10.712  17.793  14.357
10008W        W82433   7.844  25.552  13.864
10009W        W82434  14.830   2.786  14.376
10010W        W82435  19.123  34.052  11.865
10011W        W82436  25.987   7.250  12.428
10012W        W82437  24.570   2.306  12.895
10013W        W82438  17.590   8.180  12.055
10014W        W82439   7.841  35.596   0.880
10015W        W82440   7.197  32.974  11.399
10016W        W82441  18.170  24.697  10.475
10017W        W82442  39.525  33.391  14.853
10018W        W82443  44.475  25.574   0.299
10019W        W82444  29.967  38.881   3.690
10020W        W82445  34.491  20.140  12.039
10021W        W82446  22.117   8.766  14.358
10022W        W82447   7.291  39.370  13.449
10023W        W82448  32.621   8.254   0.872
10024W        W82449  27.471  23.989  10.136
10025W        W82450  13.323  20.224  12.933
10026W        W82451  24.655  18.181   3.748
10027W        W82452  18.608  44.899  14.777
10028W        W82453  43.425   8.293   4.181
10029W        W82454  13.660  22.036  14.850
10030W        W82455  44.358   3.394  10.642
10031W        W82456  29.650  15.585  10.134
10032W        W82457  40.531   3.267   2.830
10033W        W82458  33.603  24.610   0.375
10034W        W82459   4.893  22.675   1.735
10035W        W82460  11.220  19.247   4.739
10036W        W82461  32.900  44.407  11.901
10037W        W82462  43.955   8.290  11.997
10038W        W82463  14.595   3.234  14.815
10039W        W82464  43.353  23.236   1.402
10040W        W82465   4.879   7.821  10.421
10041W        W82466  43.393  35.589   3.296
10042W        W82467  20.273  42.012   1.910
10043W        W82468  42.812  33.470   0.318
10044W        W82469  27.636  38.425  13.441
10045W        W82470  18.598  24.145  12.387
10046W        W82471   2.883  26.124  14.345
10047W        W82472  17.621  43.273  10.429
10048W        W82473   4.362  32.968  14.808
10049W        W82474  14.264   7.870  13.846
10050W        W82475  27.068  39.379   2.349
10051W        W82476  36.967  17.213  12.411
10052W        W82477   3.276  12.780   0.459
10053W        W82478  35.035  14.115   3.663
10054W        W82479  12.793  21.208  10.570
10055W        W82480  43.336  40.881  14.838
10056W        W82481  17.068  44.756  14.395
10057W        W82482   3.721  18.700  14.480
10058W        W82483   7.379  29.052   4.796
10059W        W82484  37.053  37.576   3.166
10060W        W82485  42.520   4.223   0.885
10061W        W82486  38.984  24.511   0.295
10062W        W82487   2.374  18.224  12.951
10063W        W82488  30.655  29.020  11.893
10064W        W82489  32.532  42.291   3.282
10065W        W82490  10.210  21.124   2.769
10066W        W82491  33.478  36.883   0.941
10067W        W82492   3.897  38.565  10.944
10068W        W82493   1.936  14.720   1.895
10069W        W82494  20.702  11.643   5.723
10070W        W82495  18.672   6.780  12.527
10071W        W82496   8.248  12.643  13.364
10072W        W82497  14.661  25.542  13.501
10073W        W82498  11.794  35.103   4.314
10074W        W82499   3.766  14.739   4.659
10075W        W82500  37.411  41.452   3.322
10076W        W82501  34.117  31.430  12.369
10077W        W82502  30.143  33.624  12.580
10078W        W82503  12.283  24.660  10.973
10079W        W82504   1.474  31.034  11.907
10080W        W82505  30.922  38.351  14.435
10081W        W82506  12.739  26.149  11.408
10082W        W82507   2.842   3.307  11.427
10083W        W82508  34.505   7.701  11.452
10084W        W82509  11.371  33.976  11.377
10085W        W82510  17.141   4.914   1.864
10086W        W82511   6.332  32.078  14.375
10087W        W82512  23.533  44.998   4.291
10088W        W82513  34.509  29.460   1.432
10089W        W82514  18.685  14.745  13.544
10090W        W82515  25.528  34.013  13.795
10091W        W82516  17.179  33.898   5.097
10092W        W82517  24.994  16.671   0.792
10093W        W82518  17.090  16.202  13.972
10094W        W82519  24.176  44.905  10.451
10095W        W82520  16.672  18.101  10.956
10096W        W82521   4.745  32.622  10.436
10097W        W82522  29.004  42.929  12.855
10098W        W82523   0.758  16.297  12.877
10099W        W82524  20.684  28.614  10.484
10100W        W82525   4.921  16.118   0.251
10101W        W82526   0.481  32.072   9.673
10102W        W82527   7.680  17.065   0.802
10103W        W82528   6.242  14.298  13.536
10104W        W82529  30.601  23.542   1.721
10105W        W82530  44.466   1.831   2.207
10106W        W82531  11.191   6.815  12.027
10107W        W82532  11.632   7.291  14.932
10108W        W82533  19.058  31.152  13.025
10109W        W82534  25.706  38.414   0.303
10110W        W82535  26.515  10.324   1.340
10111W        W82536  26.675  39.030  10.539
10112W        W82537  21.550  31.065  12.078
10113W        W82538  38.956  12.179   0.865
10114W        W82539  29.521  36.985  12.406
10115W        W82540  26.044  11.642   0.862
10116W        W82541  25.966   0.899   2.230
10117W        W82542   6.816  14.640  13.518
10118W        W82543  30.941  43.380  12.359
10119W        W82544  33.002  36.901  10.912
10120W        W82545  12.722  35.487  13.038
10121W        W82546  26.484  33.034   3.802
10122W        W82547   9.650   0.441   1.700
10123W        W82548   4.797  30.644  10.505
10124W        W82549   0.972   8.195  14.945
10125W        W82550  35.586  21.170   0.418
10126W        W82551   2.906  16.616  13.320
10127W        W82552  24.979  21.223  13.519
10128W        W82553  42.341   4.346  14.938
10129W        W82554  35.394  16.188  10.612
10130W        W82555   7.765  24.152   5.303
10131W        W82556   7.186  22.553   3.808
10132W        W82557  28.948  34.471  12.514
10133W        W82558  36.020  21.087   0.878
10134W        W82559  15.775  44.789  14.421
10135W        W82560   2.896  25.093  13.808
10136W        W82561   6.307  12.711  10.447
10137W        W82562  11.655  44.763  14.785
10138W        W82563  21.019  41.790   4.643
10139W        W82564  20.122   1.872  12.477
10140W        W82565  10.868  21.134   1.731
10141W        W82566  16.290  33.557  12.415
10142W        W82567  36.908  18.760   2.411
10143W        W82568  26.134   6.404  10.411
10144W        W82569   7.216  16.254  13.864
10145W        W82570  15.249  40.354   3.323
10146W        W82571   1.969  27.175  11.400
10147W        W82572   5.374  37.976  13.889
10148W        W82573  37.064  40.517   4.814
10149W        W82574  29.931  41.988   5.221
10150W        W82575  34.540  16.568  14.906
10151W        W82576  18.063  43.831  11.435
10152W        W82577  42.872   8.731  11.126
10153W        W82578   0.368  27.584  10.963
10154W        W82579  18.196   6.907   1.779
10155W        W82580  13.824   0.407   1.410
10156W        W82581  22.701  44.320   3.246
10157W        W82582   3.789  34.556   3.351
10158W        W82583  15.590  18.716  14.844
10159W        W82584  10.243  31.410  14.900
10160W        W82585  10.231   3.323  10.046
10161W        W82586  29.508  44.504   4.239
10162W        W82587  30.951  15.251  12.050
10163W        W82588   6.262  12.210   1.862
10164W        W82589  30.057  22.115   1.910
10165W        W82590  21.226  36.843  13.443
10166W        W82591  29.605  26.646   3.861
10167W        W82592  11.211  10.869  13.911
10168W        W82593  24.995  18.599   1.407
10169W        W82594  25.522  43.502  14.759
10170W        W82595   6.207  13.613   3.699
10171W        W82596  36.870   2.821  10.938
10172W        W82597   3.797  11.732   4.246
10173W        W82598  43.878  13.254  12.925
10174W        W82599  12.663   7.871   0.764
10175W        W82600  28.547  19.252  11.517
10176W        W82601  22.184  41.998   2.187
10177W        W82602  30.038  10.318   3.350
10178W        W82603  17.636   4.779   2.282
10179W        W82604  17.183  27.173  11.470
10180W        W82605  20.682  18.231   1.327
10181W        W82606  40.434   0.374   4.168
10182W        W82607  14.639  36.495   2.402
10183W        W82608  38.443  10.704   2.396
10184W        W82609   3.913   3.936   4.321
10185W        W82610  38.058   6.707   2.370
10186W        W82611  28.177   3.231   4.222
10187W        W82612  39.504  17.731  10.889
10188W        W82613  40.371  26.968  14.452
10189W        W82614  33.578  30.091   1.740
10190W        W82615  13.230  44.877  14.499
10191W        W82616  35.870  16.179  12.430
10192W        W82617  37.838  35.977   1.779
10193W        W82618  41.916  21.218   1.328
10194W        W82619  19.153   9.247   1.413
10195W        W82620  43.499  21.255   1.879
10196W        W82621  42.284  26.103  14.934
10197W        W82622  40.463  14.760  14.889
10198W        W82623   6.383  12.616  11.394
10199W        W82624  33.407  14.276  14.407
10200W        W82625  44.813  41.380  13.969
10201W        W82626  17.066  14.339  10.497
10202W        W82627  29.490   0.487  10.518
10203W        W82628   1.338  31.111   4.220
10204W        W82629  13.271  23.049   1.292
10205W        W82630  25.629  11.635  12.947
10206W        W82631  28.965  16.580  10.471
10207W        W82632  18.138  40.509  14.978
10208W        W82633  22.088  15.602   3.841
10209W        W82634  44.309  32.584  13.892
10210W        W82635  24.158  20.673   1.406
10211W        W82636   8.882  10.655   1.771
10212W        W82637  29.049  28.046   1.265
10213W        W82638  32.535  12.348  13.815
10214W        W82639  25.675   6.213   3.249
10215W        W82640  44.836  25.178  12.866
10216W        W82641  44.431  10.153  12.019
10217W        W82642  12.297  27.551   3.783
10218W        W82643  21.753   3.808  10.503
10219W        W82644  19.204  37.384   1.256
10220W        W82645   0.853  28.587   0.278
10221W        W82646  41.041   2.800  14.968
10222W        W82647  19.160  30.415  14.461
10223W        W82648  19.153  40.054   1.798
10224W        W82649  24.048  36.952  14.459
10225W        W82650  33.898  14.768   1.883
10226W        W82651   7.173  29.534   4.262
10227W        W82652  18.062  18.050   4.277
10228W        W82653  21.167  18.779  14.482
10229W        W82654  16.314  25.501   1.906
10230W        W82655  11.173   2.389  10.985
10231W        W82656  42.343  26.004   4.304
10232W        W82657  20.096  41.461  12.577
10233W        W82658  31.039   7.183   3.652
10234W        W82659   7.389  43.349  12.927
10235W        W82660  10.377   9.778  10.436
10236W        W82661  30.079  32.451   0.815
10237W        W82662  34.112  26.676  12.069
10238W        W82663  24.719  17.169  12.823
10239W        W82664   0.417  28.497  14.295
10240W        W82665  38.938  12.814  10.414
10241W        W82666   6.856  43.779   1.732
10242W        W82667  22.030  22.606  12.435
10243W        W82668  28.524  33.891  13.369
10244W        W82669  38.477  15.800   4.217
10245W        W82670  11.190   1.736   0.417
10246W        W82671  18.669  10.813  12.062
10247W        W82672  30.961  18.619   0.326
10248W        W82673  31.483   0.961   0.876
10249W        W82674  42.488  44.458   1.299
10250W        W82675   3.793  38.359  13.404
10251W        W82676  23.093   4.406   3.208
10252W        W82677  19.278  40.983   2.221
10253W        W82678  22.545  39.477  12.533
10254W        W82679  29.565  44.895   3.345
10255W        W82680   7.319  33.915  11.437
10256W        W82681  40.810  27.976   3.311
10257W        W82682  17.791   1.477  12.080
10258W        W82683  35.060  41.308  11.974
10259W        W82684  18.609   5.339  13.809
10260W        W82685  18.670  19.726  12.829
10261W        W82686  25.642   7.172   4.817
10262W        W82687  43.997  24.626  11.449
10263W        W82688  40.457  22.663  12.076
10264W        W82689  41.981  14.135  11.116
10265W        W82690  44.898  17.621   1.250
10266W        W82691  31.003  29.504  12.473
10267W        W82692  27.077  17.304  11.985
10268W        W82693  13.808   8.805  11.482
10269W        W82694  26.463  21.201   2.337
10270W        W82695  41.984  28.024  12.055
10271W        W82696  33.092  22.140  11.477
10272W        W82697  31.638  41.409  13.429
10273W        W82698  33.898   4.714   2.815
10274W        W82699   6.788  24.201  14.890
10275W        W82700  23.186  15.183  14.305
10276W        W82701   3.375  37.559   3.358
10277W        W82702  43.338  27.681   2.772
10278W        W82703  13.218  30.630   0.956
10279W        W82704  23.616   1.371  13.445
10280W        W82705   2.383   6.289  13.047
10281W        W82706  15.251   3.345  14.329
10282W        W82707   4.376  29.004  12.088
10283W        W82708  33.380  42.297  10.975
10284W        W82709  27.535  12.767   1.923
10285W        W82710  44.967   2.431   1.863
10286W        W82711  23.702  39.941   4.341
10287W        W82712  19.558   1.908   2.398
10288W        W82713  17.111  44.009   2.805
10289W        W82714  28.606  31.093   1.846
10290W        W82715   5.778  16.588   2.858
10291W        W82716  34.031  23.536   1.797
10292W        W82717  37.975  39.837  13.489
10293W        W82718  42.487  20.671   2.878
10294W        W82719  34.918  18.558  12.439
10295W        W82720  40.967  27.151   2.180
10296W        W82721  37.006  28.077  10.891
10297W        W82722   7.360  35.905  12.003
10298W        W82723  27.633  16.136   1.318
10299W        W82724  43.455  18.595  12.935
10300W        W82725  44.303   1.810  11.389
10301W        W82726  25.107   9.850   3.255
10302W        W82727   9.817   9.763   2.876
10303W        W82728  20.640  44.942   2.197
10304W        W82729  11.778  36.043  11.470
10305W        W82730  32.441  11.754  12.889
10306W        W82731   2.368  30.612   3.801
10307W        W82732   5.893  25.214  13.541
10308W        W82733   9.312   7.787   2.263
10309W        W82734  28.619  43.779  13.519
10310W        W82735  44.484  17.191  14.379
10311W        W82736  19.254   6.211  14.294
10312W        W82737  29.038  24.553   4.352
10313W        W82738  28.965   2.419  14.426
10314W        W82739  41.937  27.490   2.806
10315W        W82740   0.752  19.694   3.794
10316W        W82741   1.927  10.870  11.919
10317W        W82742  31.421  40.016   4.310
10318W        W82743  26.991  37.398  10.593
10319W        W82744   4.802  31.931   1.851
10320W        W82745   7.898   5.306   4.310
10321W        W82746  31.477  33.036  11.481
10322W        W82747  25.697  19.247  12.542
10323W        W82748  34.959  42.948   3.752
10324W        W82749   1.883   8.783   0.960
10325W        W82750  23.142  38.856  12.439
10326W        W82751  38.857  34.408   1.317
10327W        W82752  24.711   2.894  13.492
10328W        W82753   7.903  14.780   2.704
10329W        W82754  26.481  10.773  11.593
10330W        W82755  42.450   9.167  11.124
10331W        W82756   4.811   0.408  10.471
10332W        W82757  30.128  17.683  12.912
10333W        W82758  41.503  26.185  13.491
10334W        W82759  28.963  28.112   3.721
10335W        W82760   9.356  19.661  10.642
10336W        W82761  11.236  37.341  14.408
10337W        W82762  35.388  32.573   3.827
10338W        W82763  23.672  25.038   1.838
10339W        W82764  30.100  28.628   0.472
10340W        W82765  15.804  11.192   4.707
10341W        W82766  23.199  28.640   4.317
10342W        W82767  37.933  15.140  10.410
10343W        W82768   6.718  17.563  14.771
10344W        W82769   1.373  35.360   2.816
10345W        W82770  24.540   7.776  14.370
10346W        W82771  27.490  29.079  11.605
10347W        W82772  22.105  37.071  14.916
10348W        W82773  32.059  15.581  14.297
10349W        W82774   6.362  40.809  12.383
10350W        W82775  21.050   4.856   3.700
10351W        W82776  36.571  19.255   4.758
10352W        W82777  23.512  28.955   3.221
10353W        W82778  12.802  30.946   2.723
10354W        W82779   2.300  44.889  11.558
10355W        W82780  41.491   5.329  10.962
10356W        W82781   7.895  37.861  10.939
10357W        W82782  25.027  34.968   0.429
10358W        W82783  23.643  27.583   2.714
10359W        W82784  25.979  39.874  14.283
10360W        W82785  17.675  35.569  10.557
10361W        W82786  41.928  22.127  14.407
10362W        W82787  10.254  36.544  11.392
10363W        W82788   4.383  16.251  14.031
10364W        W82789  14.679  21.221   1.310
10365W        W82790  16.644  33.898   2.278
10366W        W82791  16.184  39.868   3.300
10367W        W82792  43.893  17.752   0.740
10368W        W82793  34.957  25.046   1.211
10369W        W82794  35.380   9.299  13.962
10370W        W82795   5.419  10.333   1.722
10371W        W82796  33.394  26.702   3.370
10372W        W82797  26.184  10.279  12.094
10373W        W82798   6.740  27.956  11.591
10374W        W82799  17.757  13.108  13.965
10375W        W82800  40.495  28.448   1.922
10376W        W82801  32.514  23.178   2.361
10377W        W82802  25.102  27.137   2.257
10378W        W82803   8.695  23.099   2.275
10379W        W82804  32.539   3.721   4.271
10380W        W82805   1.367  13.171  14.378
10381W        W82806  26.667  14.719   4.749
10382W        W82807  40.836  36.074   2.829
10383W        W82808  42.993  36.467   4.746
10384W        W82809  13.832  43.403   4.668
10385W        W82810   8.402   6.183   2.382
10386W        W82811  36.041  36.384   3.167
10387W        W82812  19.154   0.272  10.925
10388W        W82813   6.390  10.277   4.654
10389W        W82814  20.586  19.646  11.011
10390W        W82815  25.659   1.798   4.305
10391W        W82816  19.677  30.928   2.678
10392W        W82817   6.401  31.974  12.021
10393W        W82818   9.286  38.392  13.486
10394W        W82819  36.347  27.652  11.464
10395W        W82820   2.422  41.512   3.367
10396W        W82821  24.179  35.521  13.044
10397W        W82822  13.279   1.746   4.686
10398W        W82823  19.158  13.164  14.916
10399W        W82824  42.904  22.090  14.816
10400W        W82825  39.941   0.931  10.424
10401W        W82826  39.544  34.452   1.909
10402W        W82827  10.879  42.019   4.299
10403W        W82828  14.678  13.798   1.882
10404W        W82829  20.271  12.749  12.407
10405W        W82830  35.058  39.919   3.332
10406W        W82831   1.269  22.519  13.908
10407W        W82832  12.150  17.104   2.386
10408W        W82833  21.693   3.454  11.462
10409W        W82834   1.863   5.406  10.888
10410W        W82835  22.699  20.074  12.570
10411W        W82836   7.310  38.998  14.301
10412W        W82837  38.057  21.246  13.063
10413W        W82838  30.927   1.299  10.553
10414W        W82839  26.609   1.248   3.152
10415W        W82840  39.975  26.078   4.208
10416W        W82841   4.708  37.394  13.494
10417W        W82842   5.208  19.274   2.254
10418W        W82843   2.871  40.032  13.808
10419W        W82844  43.430  23.654  10.418
10420W        W82845  14.721  15.285  13.006
10421W        W82846  31.603  24.519  11.926
10422W        W82847  15.820  30.083  14.355
10423W        W82848  11.258  39.550   0.383
10424W        W82849   2.851  11.795   2.889
10425W        W82850  28.997   8.717   4.694
10426W        W82851   2.281  32.601  13.035
10427W        W82852  11.156  38.377   0.752
10428W        W82853  33.615  21.240  12.957
10429W        W82854  15.301  31.034  13.403
10430W        W82855  17.626  34.382  11.982
10431W        W82856  32.561  21.601   3.860
10432W        W82857  15.674   2.798   1.894
10433W        W82858  38.425  42.363   3.805
10434W        W82859  29.072   1.946  11.572
10435W        W82860   4.342  15.290  10.900
10436W        W82861   6.746  37.532   0.333
10437W        W82862  30.039  12.258  11.392
10438W        W82863  23.662  31.005   3.170
10439W        W82864  16.194  43.440  14.008
10440W        W82865  10.211  29.431   3.221
10441W        W82866  43.320  16.127  12.490
10442W        W82867   1.906  21.663   0.813
10443W        W82868  39.923  37.516  14.444
10444W        W82869   0.278  31.616   0.899
10445W        W82870  26.095  28.500   1.315
10446W        W82871  42.853  39.000  14.027
10447W        W82872   8.287  23.717  11.018
10448W        W82873  28.653  30.412  13.827
10449W        W82874  10.203   9.800  11.098
10450W        W82875  38.863  38.830   0.457
10451W        W82876  31.555   6.355  10.473
10452W        W82877  44.504   2.814   1.448
10453W        W82878  27.131  21.187   1.290
10454W        W82879  37.851  39.482   0.243
10455W        W82880   3.869  38.015   3.339
10456W        W82881  38.559  33.946  11.452
10457W        W82882  21.049  10.253   1.734
10458W        W82883  39.977  42.373   2.216
10459W        W82884  14.701  41.816  13.498
10460W        W82885  10.657   0.862   0.331
10461W        W82886  24.574  33.974  12.986
10462W        W82887  13.697   9.203   2.815
10463W        W82888   4.228   6.799  12.435
10464W        W82889   6.798   7.238   3.865
10465W        W82890  33.614  12.713   1.298
10466W        W82891  13.325  14.270  10.418
10467W        W82892  38.327  16.121  12.041
10468W        W82893   0.366  24.722   3.185
10469W        W82894  32.939   0.461   3.765
10470W        W82895   4.804  22.709  13.997
10471W        W82896  15.581  12.164   4.678
10472W        W82897  17.232  14.160   3.190
10473W        W82898  29.561  16.209   4.252
10474W        W82899  37.548  40.466  11.999
10475W        W82900  42.968  17.215   3.759
10476W        W82901  35.934  12.733   4.709
10477W        W82902  33.476  27.555   1.917
10478W        W82903  15.680  43.980  13.822
10479W        W82904   7.183  42.999   0.740
10480W        W82905  21.518  21.046  12.481
10481W        W82906   0.450  33.916  11.464
10482W        W82907  43.483  21.055  13.407
10483W        W82908  30.517  21.660  13.316
10484W        W82909  15.269  32.895   5.110
10485W        W82910  22.228  31.982   1.769
10486W        W82911  30.118  28.981  10.485
10487W        W82912  20.708  13.845  12.578
10488W        W82913  10.365  20.624  12.414
10489W        W82914  32.570   9.336  12.572
10490W        W82915   6.380  39.531   0.925
10491W        W82916  17.787  12.642  12.404
10492W        W82917  32.537  21.160   1.704
10493W        W82918  21.125  16.712  13.504
10494W        W82919   4.328  27.109  11.581
10495W        W82920  38.989   3.732  10.942
10496W        W82921   5.329  28.005   3.246
10497W        W82922   6.331   5.839  12.963
10498W        W82923  28.462  25.007  13.993
10499W        W82924  22.015  38.937  12.531
10500W        W82925  30.524  17.580  10.616
10501W        W82926   4.210  35.409  14.778
10502W        W82927   3.228  42.501  12.354
10503W        W82928  40.014  32.446  11.993
10504W        W82929  26.574  24.113  14.855
10505W        W82930  16.156  32.457  11.469
10506W        W82931  27.168  22.104  13.861
10507W        W82932  36.068  26.672  13.310
10508W        W82933   4.295   7.298  14.824
10509W        W82934   3.813  19.095  13.525
10510W        W82935   1.417  20.575   1.402
10511W        W82936  24.524  16.184   3.275
10512W        W82937  33.469  14.252  14.954
10513W        W82938   6.354   5.692   2.190
10514W        W82939  18.268  36.889  14.492
10515W        W82940  33.501  23.705   2.785
10516W        W82941  44.309   3.228   0.430
10517W        W82942  31.933   4.406  10.468
10518W        W82943  32.890  24.159  13.992
10519W        W82944  25.478  40.397   1.263
10520W        W82945  14.807  24.496  14.301
10521W        W82946  16.310  17.748  12.081
10522W        W82947  10.773  24.681  11.942
10523W        W82948  40.013  41.799  11.413
10524W        W82949  24.709  12.738   1.361
10525W        W82950  15.621  12.257   2.712
10526W        W82951  13.309  39.476   3.259
10527W        W82952  23.180  40.048  13.050
10528W        W82953  25.999  44.947   0.318
10529W        W82954   2.721  15.169   4.692
10530W        W82955   5.849  35.870  14.278
10531W        W82956  44.348  22.633   4.148
10532W        W82957   7.699  36.496  14.474
10533W        W82958  18.604  14.296   3.676
10534W        W82959   4.757  17.235   1.407
10535W        W82960  13.347  10.766  13.342
10536W        W82961   1.783  15.282  10.912
10537W        W82962  19.687  28.615  12.070
10538W        W82963  12.161  27.054  12.051
10539W        W82964   1.875  33.062  13.533
10540W        W82965   2.235  16.166   4.680
10541W        W82966  43.450  44.402   2.747
10542W        W82967  26.073  12.847  11.581
10543W        W82968  18.173  12.309   1.392
10544W        W82969   2.271  43.423   2.262
10545W        W82970   0.835   9.767  13.924
10546W        W82971  32.893   5.853   1.225
10547W        W82972  11.251  43.850   0.341
10548W        W82973  24.681  36.943   2.404
10549W        W82974  18.594  32.471  11.576
10550W        W82975  27.080  30.505   5.248
10551W        W82976   5.287  35.068  10.017
10552W        W82977  18.056  17.620  10.932
10553W        W82978  18.188  42.816   4.659
10554W        W82979   8.817  20.593  14.279
10555W        W82980  15.610  15.607  13.440
10556W        W82981   6.707  10.758  11.512
10557W        W82982  29.172   3.909   2.248
10558W        W82983  32.568  32.972  14.320
10559W        W82984  19.629  32.545   1.434
10560W        W82985  21.658   0.764   3.163
10561W        W82986   6.872  32.516  13.957
10562W        W82987  19.198   9.257  14.004
10563W        W82988  37.969  41.017   4.114
10564W        W82989  16.792  44.297  12.523
10565W        W82990  35.410   1.341   0.379
10566W        W82991  28.094  16.681  13.897
10567W        W82992  42.001  33.878  10.904
10568W        W82993  26.489   5.764   2.747
10569W        W82994   7.883  38.400  11.089
10570W        W82995   5.327  25.189   0.342
10571W        W82996  10.699  13.725  11.541
10572W        W82997  26.172  34.431  11.084
10573W        W82998  18.128  21.255   2.200
10574W        W82999   8.325  15.143  14.460
10575W        W83000  33.591   4.861  11.067
10576W        W83001  43.473  39.319   0.800
10577W        W83002  44.398  17.129   4.260
10578W        W83003  13.182  18.581   2.312
10579W        W83004  27.589   3.713   1.382
10580W        W83005  11.649  11.838   0.377
10581W        W83006  36.059  20.077   3.789
10582W        W83007  36.044  11.777   3.195
10583W        W83008  25.525  31.591  13.453
10584W        W83009  21.078  19.074   3.643
10585W        W83010   4.397   5.265  11.451
10586W        W83011  43.802  20.696  13.429
10587W        W83012  20.112  28.482  14.497
10588W        W83013  10.299  29.586   1.921
10589W        W83014   9.802  24.088  10.508
10590W        W83015  36.363  30.998   4.815
10591W        W83016   2.306  22.651  13.506
10592W        W83017  42.814  19.663   2.839
10593W        W83018  34.048  39.340   4.300
10594W        W83019  32.476   6.787   3.304
10595W        W83020  15.246  21.594  12.506
10596W        W83021  26.623  23.181   1.847
10597W        W83022  38.919  26.680  11.894
10598W        W83023  15.250  44.753  12.574
10599W        W83024   6.878  34.024  14.774
10600W        W83025  34.938  41.787   2.787
10601W        W83026  35.560  41.003   0.924
10602W        W83027  29.618  39.009  14.427
10603W        W83028  27.570  17.275   3.828
10604W        W83029  29.936  11.734   1.272
10605W        W83030  43.001  21.539   2.783
10606W        W83031  41.020  38.986  12.957
10607W        W83032   0.270  39.888   0.246
10608W        W83033  16.603  19.606  13.792
10609W        W83034   2.795  14.677   2.727
10610W        W83035  44.355   6.848   4.306
10611W        W83036   6.920  18.694   0.847
10612W        W83037  33.102  28.055   2.340
10613W        W83038  41.935   1.825   1.316
10614W        W83039  18.287  41.294  12.826
10615W        W83040  12.824   8.892   0.886
10616W        W83041  14.106  35.388   3.303
10617W        W83042   0.925  38.501   4.198
10618W        W83043  28.933  33.984  13.004
10619W        W83044  20.097  29.971   0.812
10620W        W83045  20.130  38.855  12.040
10621W        W83046  16.155  32.922  14.458
10622W        W83047  25.116   4.875   2.314
10623W        W83048  25.604  21.576  14.433
10624W        W83049  16.265  12.337  14.933
10625W        W83050  41.323  29.601   1.290
10626W        W83051  29.621   4.733  10.948
10627W        W83052   5.221  26.680  13.505
10628W        W83053  11.310   7.309   3.279
10629W        W83054  40.840  35.956   1.846
10630W        W83055  22.031  11.743  13.413
10631W        W83056  32.013  28.126  12.520
10632W        W83057  42.800   8.807   5.138
10633W        W83058  27.633  23.118   1.772
10634W        W83059  19.722  31.926   4.293
10635W        W83060  18.668  15.246  11.592
10636W        W83061  16.208  13.343   4.799
10637W        W83062  26.580  14.234   9.994
10638W        W83063  25.065   9.776  12.575
10639W        W83064  15.804  23.220  11.960
10640W        W83065  12.695  23.126   4.826
10641W        W83066  12.282   5.347   2.733
10642W        W83067   8.798  27.620   3.742
10643W        W83068  10.258  40.909   1.752
10644W        W83069  39.985  26.193  13.999
10645W        W83070  17.192  42.903  14.465
10646W        W83071  10.730  39.393  13.332
10647W        W83072  33.943   0.318  11.954
10648W        W83073  20.042  27.007  12.455
10649W        W83074  42.990  29.940   2.379
10650W        W83075  15.757  29.047   1.795
10651W        W83076  27.673  42.469  10.633
10652W        W83077   3.852  31.018  11.609
10653W        W83078  40.920  44.814   1.838
10654W        W83079  11.817  43.301   0.265
10655W        W83080  25.205   4.409  12.043
10656W        W83081  42.869  27.969  14.952
10657W        W83082   1.252  32.524   1.711
10658W        W83083  24.052   6.725  11.903
10659W        W83084   3.422  34.021  10.487
10660W        W83085  35.976  34.497  11.922
10661W        W83086   1.886   3.369   1.883
10662W        W83087  14.778  13.708   2.671
10663W        W83088  27.487  33.094   4.196
10664W        W83089  22.705  33.879   0.401
10665W        W83090   5.923   7.345  14.899
10666W        W83091   3.309   5.705   0.400
10667W        W83092   4.219  39.940   0.342
10668W        W83093  40.413   8.294  14.493
10669W        W83094  24.158  15.621  13.047
10670W        W83095  23.588  21.044  13.798
10671W        W83096  31.562  34.949   2.366
10672W        W83097  12.278  10.177   4.783
10673W        W83098  20.600   7.840   3.738
10674W        W83099   5.702  13.133  12.838
10675W        W83100  18.708  32.995  12.567
10676W        W83101  13.694   6.195  14.339
10677W        W83102   0.432  41.787  11.915
10678W        W83103  19.088  11.340  14.293
10679W        W83104  41.348   0.892  11.526
10680W        W83105  37.507  44.982  13.359
10681W        W83106  26.092  37.443  14.437
10682W        W83107  39.526   1.386   1.770
10683W        W83108  39.404  29.024   0.875
10684W        W83109  40.951  16.658   0.957
10685W        W83110   1.889  36.366  13.804
10686W        W83111  38.864  33.067  14.315
10687W        W83112  41.952  23.186  13.015
10688W        W83113  36.936  30.922   4.185
10689W        W83114  27.945  41.891   9.967
10690W        W83115  40.868  11.848   3.257
10691W        W83116  22.668   7.813  10.968
10692W        W83117   1.795  25.495  13.526
10693W        W83118  26.620   6.190   0.881
10694W        W83119  18.635   1.350  10.461
10695W        W83120  27.942  11.838  11.918
10696W        W83121  32.523   2.946  11.921
10697W        W83122  23.197   2.397  13.877
10698W        W83123  37.873  43.952   2.733
10699W        W83124  10.698  14.717  14.354
10700W        W83125  16.285  34.101   4.346
10701W        W83126   2.389   2.287  10.923
10702W        W83127  17.581  44.294   4.786
10703W        W83128  41.372  30.518   4.698
10704W        W83129   0.433  40.007  11.066
10705W        W83130  39.984  23.158   2.898
10706W        W83131  16.075   5.902   1.834
10707W        W83132  17.677  26.516  13.543
10708W        W83133  35.402  26.050   0.421
10709W        W83134  22.191  28.594   4.288
10710W        W83135  41.476   6.203  12.392
10711W        W83136  31.055  21.547   2.775
10712W        W83137  12.224  18.729  14.305
10713W        W83138  40.802  29.143  10.419
10714W        W83139  26.054  28.025   1.809
10715W        W83140  14.332  41.359  13.050
10716W        W83141  32.462  18.556   1.791
10717W        W83142   0.366  39.531   4.692
10718W        W83143  16.110  32.914   2.191
10719W        W83144  18.087  32.914   5.260
10720W        W83145  27.566  40.393   1.786
10721W        W83146  24.573  40.507  10.596
10722W        W83147   2.782  44.325   3.309
10723W        W83148  36.574  37.356  13.932
10724W        W83149   6.358   2.299  14.027
10725W        W83150  13.155  34.445  12.912
10726W        W83151  23.726  25.470  11.096
10727W        W83152  29.115   1.883   2.252
10728W        W83153  13.785   6.880   4.121
10729W        W83154  10.879  15.127  12.026
10730W        W83155  14.824  10.339   3.341
10731W        W83156  17.771   9.373   0.935
10732W        W83157  15.688   3.270   0.305
10733W        W83158  19.734  12.342   3.276
10734W        W83159  15.094   0.419  11.116
10735W        W83160   0.270   7.702   2.337
10736W        W83161  10.634   0.401   3.758
10737W        W83162  26.035  44.807   0.747
10738W        W83163  21.569  30.539  10.630
10739W        W83164  11.840   6.762  11.521
10740W        W83165  37.859  17.141  12.918
10741W        W83166   8.717  40.508   3.253
10742W        W83167  22.144  15.643  14.285
10743W        W83168  24.065  21.594  12.062
10744W        W83169  14.287  35.425   0.406
10745W        W83170  19.148  12.750  14.997
10746W        W83171   0.261   5.766   0.949
10747W        W83172  32.612  34.605   4.801
10748W        W83173  10.759  32.966   4.757
10749W        W83174  34.538  44.980  10.512
10750W        W83175  30.032  38.822   5.645
10751W        W83176  24.578  34.553  12.526
10752W        W83177  24.163  42.805   2.371
10753W        W83178  15.162  21.061  11.973
10754W        W83179  40.345  35.965  12.020
10755W        W83180  20.769  11.703  13.945
10756W        W83181  44.761  31.638  10.145
10757W        W83182  29.046  12.736   1.714
10758W        W83183  34.113   2.388  14.903
10759W        W83184   5.372  23.057   3.792
10760W        W83185  23.532  27.973  14.766
10761W        W83186  41.012  40.907   2.831
10762W        W83187   3.290  44.394  10.535
10763W        W83188   5.346  28.094   2.329
10764W        W83189  26.016   5.890   3.708
10765W        W83190  18.211  19.046   3.294
10766W        W83191  38.974  24.137   4.216
10767W        W83192  28.042   7.692   1.841
10768W        W83193  31.072  44.418   5.255
10769W        W83194  42.962  24.530  12.894
10770W        W83195  30.159  35.077  12.971
10771W        W83196  36.910  34.007  11.891
10772W        W83197  15.639  22.657  11.960
10773W        W83198  15.126  17.303   0.332
10774W        W83199  31.424   7.792  10.545
10775W        W83200  42.288  31.941   4.800
10776W        W83201  17.083   3.854   2.271
10777W        W83202  43.413  22.517  11.016
10778W        W83203  28.066  20.582   4.269
10779W        W83204  41.537  30.143   0.809
10780W        W83205   8.343  16.712   3.725
10781W        W83206  14.199  14.320   2.293
10782W        W83207   9.697   4.210   0.910
10783W        W83208  44.363  18.564  12.863
10784W        W83209  33.955  31.521  13.884
10785W        W83210  30.086  13.808   2.357
10786W        W83211  22.146  17.092   2.310
10787W        W83212  43.967  31.498   1.869
10788W        W83213  27.039  28.010  14.466
10789W        W83214   6.857   9.733   1.226
10790W        W83215  20.544   2.958  14.926
10791W        W83216  33.953  29.980   1.882
10792W        W83217  35.548  16.628   2.417
10793W        W83218  38.904  16.751   2.816
10794W        W83219  15.672   8.885  12.851
10795W        W83220   7.292  15.722  13.358
10796W        W83221  18.646  38.030   0.278
10797W        W83222  26.471  21.540   4.334
10798W        W83223  37.069  18.570   0.470
10799W        W83224   3.293  39.414   4.712
10800W        W83225  36.040  28.632   0.255
10801W        W83226   5.769  15.250  14.380
10802W        W83227   2.743   9.698  14.426
10803W        W83228   3.804  27.603   0.839
10804W        W83229  20.739  10.842  14.943
10805W        W83230  19.554   7.298   1.387
10806W        W83231  13.840  27.954  10.932
10807W        W83232  37.379  15.113   1.804
10808W        W83233  29.043  24.079   4.814
10809W        W83234   5.912  25.971  14.324
10810W        W83235   0.892  14.183  13.800
10811W        W83236  18.199   9.225   4.685
10812W        W83237   8.760   9.654  14.961
10813W        W83238  38.922   4.936   4.256
10814W        W83239  13.672  13.661   1.395
10815W        W83240  43.272   0.794   0.870
10816W        W83241  15.814  27.517  10.424
10817W        W83242  27.061  42.410   1.399
10818W        W83243  11.629  12.698   4.733
10819W        W83244   2.773  22.181   3.774
10820W        W83245  33.416   2.814   4.325
10821W        W83246  11.771  35.931  10.559
10822W        W83247  33.035   9.872   0.407
10823W        W83248   3.273  14.601  11.549
10824W        W83249  24.494  42.300   4.755
10825W        W83250  42.977  11.790  11.965
10826W        W83251  28.656  23.713  10.009
10827W        W83252  26.551  16.715   4.782
10828W        W83253  20.613  35.532   0.919
10829W        W83254  11.773  26.611  12.392
10830W        W83255   0.934  10.255  13.423
10831W        W83256  11.149   9.185  14.871
10832W        W83257  18.142  34.562   3.847
10833W        W83258  37.862  25.015  11.404
10834W        W83259  12.210  41.335  12.076
10835W        W83260  15.237  17.202   3.857
10836W        W83261  12.623  15.219   2.798
10837W        W83262  44.754  20.659  14.817
10838W        W83263  28.066  14.637   4.690
10839W        W83264  44.963  13.837  14.423
10840W        W83265   9.831  16.701   0.755
10841W        W83266  21.730  11.283  11.054
10842W        W83267  38.828   7.892   4.300
10843W        W83268  34.093  12.715  12.477
10844W        W83269  15.738  42.854  13.004
10845W        W83270  43.993  11.181  11.411
10846W        W83271  26.479  36.548   2.823
10847W        W83272  32.119  16.144  14.343
10848W        W83273  40.864  38.005  10.434
10849W        W83274  32.957  29.446  11.485
10850W        W83275   2.906   8.886  12.830
10851W        W83276   3.314  30.622  12.471
10852W        W83277  15.247  37.081  14.013
10853W        W83278  31.101  34.902  13.805
10854W        W83279  27.536  35.363  11.020
10855W        W83280   8.261  44.835   2.280
10856W        W83281  22.617  15.699  13.382
10857W        W83282  22.676  43.481   0.476
10858W        W83283  14.664  20.696  13.832
10859W        W83284  42.316  17.780   3.712
10860W        W83285  20.036  35.451  12.857
10861W        W83286  35.005   6.823   5.642
10862W        W83287  24.181  13.279  14.981
10863W        W83288   5.926  35.453   4.129
10864W        W83289  25.669  20.527  10.967
10865W        W83290   5.829   8.161   0.876
10866W        W83291  41.021  23.237   0.303
10867W        W83292  11.240  26.026  13.800
10868W        W83293   6.288   9.363   0.830
10869W        W83294  24.540   5.790   4.641
10870W        W83295  28.988   0.784  14.451
10871W        W83296  18.688   3.883  10.479
10872W        W83297  30.118  39.375   3.713
10873W        W83298  33.080  39.851   1.434
10874W        W83299  39.879  23.015   3.794
10875W        W83300   7.796   6.868   2.364
10876W        W83301  22.061  15.693   1.861
10877W        W83302   4.915  35.474  12.905
10878W        W83303  37.087  17.556  13.985
10879W        W83304   0.819   8.282   0.869
10880W        W83305  10.825  41.823  13.411
10881W        W83306  17.723  40.895   2.210
10882W        W83307  10.672  21.740   2.222
10883W        W83308  14.728  11.195   2.744
10884W        W83309  14.626  22.013  13.916
10885W        W83310   8.748  34.070   4.833
10886W        W83311  31.028   2.306   4.745
10887W        W83312  21.114  32.394   1.374
10888W        W83313  12.150   5.868  12.464
10889W        W83314   4.393   5.222  14.804
10890W        W83315  32.532   9.166  11.491
10891W        W83316  25.624  16.101  10.631
10892W        W83317   7.822  27.146   4.767
10893W        W83318  38.006  36.535  13.436
10894W        W83319   3.355  15.204   1.230
10895W        W83320  37.517  41.947   0.418
10896W        W83321  34.074   8.822   0.363
10897W        W83322  28.079  40.354  13.997
10898W        W83323  15.656  22.656   2.347
10899W        W83324  25.053   9.384  11.981
10900W        W83325   2.298   1.770  13.046
10901W        W83326  43.340  38.367  10.495
10902W        W83327  43.359  12.197   0.824
10903W        W83328  30.987  32.123   3.862
10904W        W83329  16.257  44.406   4.745
10905W        W83330  15.217  31.535   1.823
10906W        W83331  14.702  30.539   0.817
10907W        W83332  11.781  39.454  12.453
10908W        W83333  26.617   3.242  14.759
10909W        W83334  24.629  16.215  10.948
10910W        W83335  16.733  23.023   4.805
10911W        W83336  16.100  28.029  11.964
10912W        W83337  33.509  21.071   4.715
10913W        W83338   6.307  14.779   0.407
10914W        W83339   1.900  27.556   3.241
10915W        W83340  35.092   5.266   3.303
10916W        W83341  38.370  37.952  12.368
10917W        W83342  13.235  18.226  11.586
10918W        W83343  17.077   4.852   2.195
10919W        W83344  30.010  29.602   2.786
10920W        W83345   5.792  30.061  13.452
10921W        W83346  19.670  11.182  10.405
10922W        W83347  37.467  10.671  11.564
10923W        W83348  44.460   9.229  11.065
10924W        W83349  34.532  37.369   3.781
10925W        W83350   3.230  11.778   1.418
10926W        W83351  40.378  20.186   3.630
10927W        W83352   3.848  23.658  11.375
10928W        W83353  28.936   1.781  12.396
10929W        W83354  33.431  27.556   0.891
10930W        W83355   1.459  14.800   0.937
10931W        W83356   6.703  41.807  11.488
10932W        W83357   5.223  35.463  14.774
10933W        W83358  34.894  13.351  10.623
10934W        W83359  16.218   9.148  14.337
10935W        W83360   3.721  39.325   0.930
10936W        W83361   6.185  25.673   2.883
10937W        W83362  25.183  29.934  10.902
10938W        W83363  35.025  39.513  11.983
10939W        W83364  14.217  21.719   3.205
10940W        W83365   8.678  25.125   0.353
10941W        W83366  42.963  11.197   0.330
10942W        W83367  38.459  41.035   2.318
10943W        W83368  35.027  31.000  13.886
10944W        W83369  21.236  13.741   4.771
10945W        W83370  34.416  17.272  11.863
10946W        W83371  30.534  31.062  14.282
10947W        W83372   5.387   6.349  14.947
10948W        W83373  30.434   8.340   1.223
10949W        W83374   5.301  42.024   1.322
10950W        W83375  20.531  24.067   0.787
10951W        W83376  39.927  11.277   4.697
10952W        W83377  41.477  28.649  13.928
10953W        W83378  27.643  17.235  10.578
10954W        W83379   5.707  44.754   2.271
10955W        W83380  42.840  13.774  13.320
10956W        W83381   0.940  19.599  12.937
10957W        W83382  42.973  17.605  13.539
10958W        W83383  18.071  16.167  10.439
10959W        W83384  36.552  15.229   3.739
10960W        W83385  34.406   0.256  11.933
10961W        W83386   2.393  21.522  11.931
10962W        W83387  32.141   9.703  12.343
10963W        W83388  38.336  42.953  11.424
10964W        W83389  43.470   7.691  12.010
10965W        W83390   5.432  34.963  14.837
10966W        W83391  16.133   0.821   0.258
10967W        W83392  27.557  34.405  12.857
10968W        W83393  27.176  15.824   1.307
10969W        W83394   1.845   7.756  14.816
10970W        W83395  27.514  26.133   4.236
10971W        W83396   2.763  44.784  11.057
10972W        W83397  12.635  44.919   4.183
10973W        W83398   2.795   2.928   4.773
10974W        W83399  15.179   7.867   4.605
10975W        W83400  28.676  41.406   9.475
10976W        W83401   3.727  28.952   2.784
10977W        W83402  35.923  11.829   2.298
10978W        W83403   2.425   4.866   2.346
10979W        W83404  19.103  13.116   1.860
10980W        W83405  17.700  24.220  11.962
10981W        W83406  34.426  13.156   1.235
10982W        W83407   4.343  42.457   3.351
10983W        W83408  26.698  42.444   2.802
10984W        W83409   8.779  18.788   2.285
10985W        W83410   1.423  23.702   0.276
10986W        W83411  40.974   3.754  12.074
10987W        W83412  38.457  13.188  14.798
10988W        W83413  37.556  11.753  10.913
10989W        W83414  32.008  38.329  12.035
10990W        W83415  10.654  25.112  13.429
10991W        W83416  25.518   7.301  10.491
10992W        W83417  19.548   9.888  13.359
10993W        W83418  26.608  19.545   4.656
10994W        W83419  23.237   2.907   0.289
10995W        W83420  35.052  43.980   2.303
10996W        W83421  37.493  23.623   1.888
10997W        W83422  43.464  43.370  13.795
10998W        W83423  11.210  29.631   1.210
10999W        W83424  33.909  11.820  13.006
11000W        W83425  17.148  33.567   3.377
11001W        W83426  25.111  14.705  12.911
11002W        W83427  14.267   3.797  13.409
11003W        W83428  26.984  19.590   3.700
11004W        W83429   7.210  27.627  12.559
11005W        W83430  11.859  20.670  14.486
11006W        W83431  42.436  24.127   3.855
11007W        W83432  29.608  15.681  14.335
11008W        W83433  20.543  32.078  11.566
11009W        W83434   6.801  14.293   1.725
11010W        W83435  13.274  39.938  14.282
11011W        W83436  20.187   7.271   3.758
11012W        W83437  35.473  43.918  10.903
11013W        W83438  44.350   8.272   1.239
11014W        W83439  27.196   4.348   1.800
11015W        W83440  28.660  39.464  11.007
11016W        W83441  43.854  37.081   0.408
11017W        W83442  36.094  32.467   2.409
11018W        W83443   4.388  44.002  12.518
11019W        W83444  42.347  15.184   0.258
11020W        W83445   7.377  25.978   4.325
11021W        W83446  16.293  26.071  10.575
11022W        W83447  40.332  12.800   3.839
11023W        W83448  18.544  13.664  14.838
11024W        W83449  20.047   4.914  12.472
11025W        W83450  32.914  11.219   2.846
11026W        W83451  38.382  36.369   4.313
11027W        W83452  35.438   0.379  11.417
11028W        W83453  44.837  26.463  10.455
11029W        W83454   4.721  11.170  11.119
11030W        W83455  36.891  36.988   2.375
11031W        W83456  14.784   2.362   4.253
11032W        W83457  38.506  37.839   0.745
11033W        W83458  42.812  10.324   1.214
11034W        W83459   5.320  12.778   1.229
11035W        W83460  18.270  38.327   1.253
11036W        W83461   2.363   0.422  11.962
11037W        W83462  29.166  41.963  14.335
11038W        W83463  11.221  25.141  11.567
11039W        W83464  29.161  28.634  13.322
11040W        W83465  28.024  37.950   4.823
11041W        W83466  44.773  34.909   0.875
11042W        W83467   9.693  38.386  11.051
11043W        W83468  19.601  36.035   1.243
11044W        W83469   3.320  22.617   1.281
11045W        W83470  30.985   4.262  11.088
11046W        W83471  40.996  24.999   4.125
11047W        W83472  25.528  42.378  12.530
11048W        W83473  38.820  13.730  10.891
11049W        W83474  12.200   3.257  10.001
11050W        W83475  38.995  21.588  12.565
11051W        W83476  14.324  19.283   0.277
11052W        W83477  13.844   2.307  12.529
11053W        W83478  41.439  18.276  12.095
11054W        W83479  18.657   4.242  14.947
11055W        W83480   4.350  12.175   4.347
11056W        W83481  12.723   3.869   5.778
11057W        W83482  33.597   9.314   2.255
11058W        W83483  26.636  10.681   2.765
11059W        W83484  20.062  36.561   4.769
11060W        W83485  33.561  12.136   1.733
11061W        W83486  23.731  35.569  11.595
11062W        W83487  16.143  16.665  10.489
11063W        W83488  15.662  20.204  12.857
11064W        W83489  18.134  30.454  10.560
11065W        W83490  30.023  31.995  13.437
11066W        W83491   3.855  15.801  14.882
11067W        W83492  44.478   8.303   3.379
11068W        W83493  16.175   4.363  14.365
11069W        W83494   2.418   5.406  14.445
11070W        W83495  28.655  40.465  11.940
11071W        W83496  35.979   7.868   1.315
11072W        W83497  25.085  41.388  13.425
11073W        W83498  13.704   1.241  14.980
11074W        W83499  13.290  33.466   0.919
11075W        W83500   3.229  15.585  12.345
11076W        W83501  20.673  29.996   2.775
11077W        W83502  29.600  41.388   4.160
11078W        W83503  16.255  10.239  10.635
11079W        W83504  10.172  11.335  14.834
11080W        W83505  33.025  13.790  12.488
11081W        W83506  39.950  34.904  12.846
11082W        W83507  42.282  38.891  11.120
11083W        W83508  28.095  20.122  12.458
11084W        W83509   1.752  23.199  13.334
11085W        W83510  38.882  44.289  13.450
11086W        W83511  33.486  14.339  13.799
11087W        W83512  38.065  22.606   1.750
11088W        W83513  15.815  39.939   0.878
11089W        W83514  23.712  12.772  13.971
11090W        W83515  19.588  40.339  13.813
11091W        W83516  41.476  12.808  14.921
11092W        W83517  13.298   7.292  11.881
11093W        W83518  32.103  26.041  13.849
11094W        W83519  14.170  15.720  12.899
11095W        W83520  42.945  13.688   4.322
11096W        W83521  19.721  34.086  10.467
11097W        W83522   4.850  30.954   3.265
11098W        W83523  18.748  17.194   4.788
11099W        W83524  42.359  21.057  14.938
11100W        W83525   2.442  42.958  14.020
11101W        W83526  31.560   4.262   3.684
11102W        W83527  16.184   7.764  14.475
11103W        W83528   1.349  19.638   2.380
11104W        W83529  26.635  20.231  10.595
11105W        W83530   2.306   2.386   3.154
11106W        W83531  35.103   0.884   5.227
11107W        W83532  33.443   7.414  13.951
11108W        W83533   3.379  35.980  13.325
11109W        W83534  22.735  44.459  13.396
11110W        W83535  32.597   0.472   1.432
11111W        W83536  43.843  33.615   1.829
11112W        W83537   3.762   4.379   1.743
11113W        W83538  13.749  25.544   3.647
11114W        W83539  22.238  16.276  12.525
11115W        W83540   7.682   6.818   1.245
11116W        W83541  25.080  25.194  12.007
11117W        W83542  16.732  11.701   3.868
11118W        W83543  25.978  10.680   4.196
11119W        W83544  42.032  17.259   2.371
11120W        W83545  31.511  33.875   2.771
11121W        W83546  41.026   9.728   0.471
11122W        W83547  32.593   0.766   1.906
11123W        W83548  24.690  33.952   3.771
11124W        W83549  11.816  17.790   4.747
11125W        W83550   2.439  14.742  12.491
11126W        W83551   2.844  21.716  13.961
11127W        W83552  36.091  11.671   4.603
11128W        W83553   6.795  32.496   1.766
11129W        W83554  32.066  38.903  10.896
11130W        W83555  12.792   9.198  10.583
11131W        W83556  29.570  42.445   2.252
11132W        W83557  32.892  15.679   1.382
11133W        W83558  39.469  18.229   0.245
11134W        W83559  43.385  24.711  14.277
11135W        W83560  40.040  23.173   4.126
11136W        W83561  37.928   9.389  11.006
11137W        W83562  42.830  33.937  13.506
11138W        W83563   4.944  10.206  12.557
11139W        W83564   4.364  33.028  10.429
11140W        W83565  20.108  10.740   1.211
11141W        W83566   1.877   5.371   2.751
11142W        W83567  14.603  41.017   4.704
11143W        W83568  27.121  22.721  12.863
11144W        W83569  41.964  30.106  11.880
11145W        W83570  22.208  33.946  13.817
11146W        W83571  40.825  35.061   0.749
11147W        W83572  42.888  28.045  14.438
11148W        W83573  42.360  38.034   3.345
11149W        W83574  14.187  17.671  10.618
11150W        W83575  36.419   4.708  11.010
11151W        W83576  10.244  43.272  14.439
11152W        W83577  16.310  43.925  13.832
11153W        W83578  34.963  24.627  13.512
11154W        W83579   4.831  29.164   3.262
11155W        W83580   3.824  43.493   1.932
11156W        W83581  31.071  31.620  11.388
11157W        W83582  13.176   1.927   2.316
11158W        W83583  41.859  29.144   4.172
11159W        W83584  16.739  11.320  11.536
11160W        W83585   1.264   4.418   2.314
11161W        W83586  25.121  37.364  14.288
11162W        W83587   3.224  41.417   4.677
11163W        W83588  40.810  20.173   9.542
11164W        W83589  13.320  21.680  11.073
11165W        W83590  33.459   5.302   2.247
11166W        W83591  33.494   1.878   2.402
11167W        W83592  23.573   0.262  13.997
11168W        W83593  37.513  15.096   4.331
11169W        W83594  13.209  25.687  10.618
11170W        W83595  33.398  25.099   3.683
11171W        W83596  44.330   5.205  12.833
11172W        W83597  44.380  35.875  10.418
11173W        W83598   9.211  32.962  10.620
11174W        W83599  38.931  28.488   0.767
11175W        W83600  36.519  35.010  14.320
11176W        W83601  41.300  44.847   4.617
11177W        W83602  27.517  39.059  12.079
11178W        W83603   3.362  10.151  11.107
11179W        W83604  24.218  16.272   3.147
11180W        W83605  27.504  44.790   0.727
11181W        W83606   3.734   1.923  13.953
11182W        W83607  44.364  40.905   1.884
11183W        W83608  13.633  38.036  11.595
11184W        W83609  19.182  19.202  13.311
11185W        W83610  20.171   3.717   3.638
11186W        W83611  44.937  40.885   1.805
11187W        W83612  29.132  39.866  10.915
11188W        W83613   0.408   0.387   0.736
11189W        W83614  25.505  13.118   3.828
11190W        W83615  39.408  25.154   2.895
11191W        W83616  25.507  40.337  10.427
11192W        W83617  20.056  41.903   3.866
11193W        W83618  15.244  21.170  12.926
11194W        W83619  12.703   1.352   1.381
11195W        W83620  37.850  35.544  14.417
11196W        W83621  44.468  18.614   0.829
11197W        W83622  25.067   6.822  11.894
11198W        W83623  11.760  35.507   2.400
11199W        W83624   7.854  38.868   4.739
11200W        W83625   2.734  42.484  14.987
11201W        W83626  30.426   4.271  12.982
11202W        W83627  35.036  32.609  10.901
11203W        W83628   0.946   9.306  10.921
11204W        W83629  28.990  32.042   3.274
11205W        W83630   2.445  33.468  10.628
11206W        W83631  34.593  44.922  13.500
11207W        W83632  31.546  25.523   3.637
11208W        W83633  22.181  32.473   0.734
11209W        W83634  37.008  30.094  10.508
11210W        W83635  33.998  24.711  12.567
11211W        W83636  39.888  20.552   5.651
11212W        W83637  36.928  31.598   2.356
11213W        W83638   8.173  13.839  11.529
11214W        W83639  42.837  26.149  12.857
11215W        W83640   9.793  16.096   2.676
11216W        W83641  24.982  40.962  11.391
11217W        W83642  23.636   1.869   0.463
11218W        W83643  39.445  43.361  12.919
11219W        W83644  28.102  34.434  10.024
11220W        W83645  16.202  32.555   9.972
11221W        W83646  30.022   7.185  13.534
11222W        W83647   6.736  11.350   2.240
11223W        W83648  25.013  28.665   1.331
11224W        W83649  27.077   4.205  13.324
11225W        W83650  29.094  25.668   2.397
11226W        W83651  16.286  22.510   3.384
11227W        W83652  10.717  32.995   2.317
11228W        W83653  43.277  34.899  12.846
11229W        W83654   5.329  42.434  13.409
11230W        W83655   5.288   7.292  13.346
11231W        W83656  23.701  24.621   3.630
11232W        W83657  28.093  19.667   0.857
11233W        W83658   9.349  19.069   2.732
11234W        W83659  35.598  21.034  13.497
11235W        W83660  26.583  41.842   0.334
11236W        W83661  20.236  44.001   2.269
11237W        W83662  36.362  14.321  13.810
11238W        W83663  13.625  29.591   0.849
11239W        W83664  35.446  27.194  12.976
11240W        W83665  34.598  39.442   3.759
11241W        W83666  40.950  41.429  10.409
11242W        W83667  30.075  11.165  14.957
11243W        W83668  37.083  23.516  14.295
11244W        W83669   8.676  30.060  12.019
11245W        W83670  10.253  42.304   0.892
11246W        W83671   2.881  23.591  11.120
11247W        W83672  24.674  37.833  14.970
11248W        W83673  29.087   3.906   4.128
11249W        W83674  14.229  38.054  12.477
11250W        W83675  15.643   9.335   4.774
11251W        W83676   5.753  10.724   4.731
11252W        W83677  41.894  25.008   9.953
11253W        W83678   3.902  10.336   2.393
11254W        W83679   7.754  22.581  13.360
11255W        W83680  17.767  13.150  10.960
11256W        W83681  38.388  25.160  12.395
11257W        W83682  29.627  30.509  11.567
11258W        W83683  10.265  32.502   3.820
11259W        W83684  28.088  11.314   3.672
11260W        W83685  23.491  13.240   0.351
11261W        W83686   8.304   3.406   4.743
11262W        W83687  19.255  27.097   2.668
11263W        W83688  34.999  25.972   4.287
11264W        W83689  30.058  20.747   0.795
11265W        W83690  25.965  12.711  13.032
11266W        W83691  31.603  39.553  11.430
11267W        W83692  22.644  42.947   1.294
11268W        W83693  18.620  22.644   0.740
11269W        W83694  10.313  23.066   1.244
11270W        W83695  36.472  19.264  11.898
11271W        W83696  36.843  29.951   2.178
11272W        W83697  16.074  21.196   5.178
11273W        W83698  13.138   1.953   3.747
11274W        W83699  37.924  42.983  11.492
11275W        W83700  11.740  22.606  10.622
11276W        W83701  31.637  30.549  10.425
11277W        W83702  28.125  23.703  12.888
11278W        W83703  40.416  15.653   5.275
11279W        W83704  29.062   0.417  10.976
11280W        W83705  21.559  22.732  10.123
11281W        W83706  35.375   6.790   0.432
11282W        W83707  13.690  19.723   0.453
11283W        W83708   3.355   2.841   3.263
11284W        W83709  10.685  31.601   4.825
11285W        W83710  29.473  29.160  10.079
11286W        W83711  12.232  13.199  10.421
11287W        W83712  41.999  20.547   4.812
11288W        W83713  25.988  12.722   2.235
11289W        W83714  20.644  36.510  14.323
11290W        W83715  39.001   1.762  14.424
11291W        W83716  26.635  24.645  13.901
11292W        W83717  13.305  11.174  14.955
11293W        W83718   1.825  30.546  12.868
11294W        W83719  17.217  31.569  13.374
11295W        W83720  28.570  24.033  10.066
11296W        W83721  43.769  27.484   0.927
11297W        W83722  40.314   2.277   3.829
11298W        W83723  29.066   7.762  11.878
11299W        W83724  22.138  17.194   4.626
11300W        W83725  31.425  23.169   0.931
11301W        W83726  34.043  38.856  13.523
11302W        W83727   9.260  24.029  13.846
11303W        W83728  22.729  34.078  11.560
11304W        W83729   4.752  33.527  14.886
11305W        W83730   0.435   8.841  11.868
11306W        W83731  24.196  11.180  10.497
11307W        W83732  36.376  27.063   1.273
11308W        W83733   0.840  28.588  13.438
11309W        W83734   3.236   2.243  11.917
11310W        W83735  41.488  11.145   2.190
11311W        W83736  11.334  30.633   2.801
11312W        W83737  18.581  37.043  13.064
11313W        W83738  44.324  38.470  14.976
11314W        W83739  43.282  20.576   2.258
11315W        W83740  17.265  29.576  12.903
11316W        W83741  44.428  28.497   3.778
11317W        W83742  24.191  34.392  11.492
11318W        W83743  29.511  43.804  12.411
11319W        W83744  18.240  18.106  14.895
11320W        W83745  34.550  14.815  14.356
11321W        W83746  37.020  22.669  11.913
11322W        W83747   3.888  17.107  14.381
11323W        W83748  28.627  42.823  12.426
11324W        W83749  18.761  41.384  13.846
11325W        W83750  10.877   1.383  11.446
11326W        W83751   2.295  10.789   4.263
11327W        W83752  13.832  28.672   3.633
11328W        W83753   8.715   3.782  12.075
11329W        W83754  16.631  37.382  14.774
11330W        W83755  38.996  23.069   4.639
11331W        W83756  10.785  21.133   3.329
11332W        W83757  37.521  42.385  12.833
11333W        W83758  13.776  43.867   0.410
11334W        W83759   8.900  23.728  13.395
11335W        W83760  10.219  33.609  14.792
11336W        W83761  20.701   5.370   0.910
11337W        W83762  44.344  14.157   3.216
11338W        W83763   3.458  28.640  11.484
11339W        W83764  15.099  37.985   2.417
11340W        W83765  16.656  39.454   4.832
11341W        W83766  30.947  12.778   2.287
11342W        W83767  21.647  14.247   3.717
11343W        W83768   1.282  38.840  13.314
11344W        W83769  25.030  16.705  13.806
11345W        W83770  34.925  15.136   3.156
11346W        W83771  42.005  42.030   3.827
11347W        W83772  22.637  26.155  13.054
11348W        W83773  25.479  13.250  10.914
11349W        W83774  24.192  11.170  12.942
11350W        W83775   7.417  32.052   3.729
11351W        W83776  17.168  17.162   3.385
11352W        W83777  20.572  39.887   0.860
11353W        W83778  36.979  39.488  12.444
11354W        W83779   4.396  37.876  12.484
11355W        W83780  29.577  31.931  12.414
11356W        W83781  26.503  26.031   3.290
11357W        W83782  26.082  41.984   4.739
11358W        W83783  17.761  42.346  10.964
11359W        W83784  38.418  17.789   2.713
11360W        W83785  44.263   0.263   2.670
11361W        W83786  11.283  44.766  12.005
11362W        W83787   1.929  10.767   3.784
11363W        W83788  21.663   0.307   3.638
11364W        W83789  29.471  17.223  11.575
11365W        W83790   4.776  29.650  14.917
11366W        W83791   4.703  13.232  10.408
11367W        W83792  24.981  32.932  14.479
11368W        W83793  11.842  41.328  10.407
11369W        W83794  25.680   5.863   3.316
11370W        W83795  26.083  27.534   3.784
11371W        W83796  41.347  11.704   0.437
11372W        W83797  10.744  15.744   4.702
11373W        W83798  24.626  22.019  12.893
11374W        W83799   4.250  17.127  14.292
11375W        W83800  39.989  22.178  13.810
11376W        W83801  19.041   4.782   2.759
11377W        W83802  36.397  15.815   3.330
11378W        W83803  23.172  13.693  13.417
11379W        W83804   8.709  21.169  12.952
11380W        W83805  21.152  34.568   2.668
11381W        W83806  18.686  41.401  11.003
11382W        W83807   2.339   1.807   1.750
11383W        W83808  42.289  43.432  12.911
11384W        W83809  14.166  21.072   2.402
11385W        W83810  34.473   9.224   1.806
11386W        W83811  25.544  27.588  10.606
11387W        W83812  42.406   8.340   2.782
11388W        W83813  32.481  43.820  14.465
11389W        W83814   2.744  13.317   0.403
11390W        W83815  40.972  15.300   4.814
11391W        W83816  23.530  44.887   2.396
11392W        W83817  23.020  39.327  14.960
11393W        W83818   6.374  16.715   0.909
11394W        W83819   0.927  35.377   3.364
11395W        W83820  23.146  44.985  12.934
11396W        W83821  11.364   0.300  11.099
11397W        W83822   9.703  33.592  12.021
11398W        W83823  27.065  10.745   4.626
11399W        W83824  19.657  43.836  13.802
11400W        W83825  34.467  34.963   1.849
11401W        W83826  20.079  35.552   1.313
11402W        W83827  11.853  28.066  11.426
11403W        W83828  23.211   3.838  10.475
11404W        W83829  42.779   4.850  14.851
11405W        W83830  26.690   8.313   4.207
11406W        W83831  15.158  29.994   3.653
11407W        W83832   3.827  19.077   3.226
11408W        W83833  10.688  13.773  11.003
11409W        W83834   4.888  30.647   4.827
11410W        W83835  43.814  27.982  12.951
11411W        W83836  32.060   7.311   4.665
11412W        W83837  23.239  28.501  11.480
11413W        W83838  11.145   4.780   4.630
11414W        W83839  22.586  12.842  13.041
11415W        W83840   3.446  44.774  13.965
11416W        W83841   2.957   8.294   0.351
11417W        W83842  44.781  43.502  12.946
11418W        W83843  30.518  10.658   1.333
11419W        W83844  25.040  20.249  10.511
11420W        W83845  30.426  41.489  14.416
11421W        W83846  23.140  29.966   3.830
11422W        W83847  11.298  22.085  11.924
11423W        W83848  14.635   6.838   2.885
11424W        W83849   6.683  20.604  14.777
11425W        W83850  18.630  38.374   3.285
11426W        W83851  39.971  35.987   0.331
11427W        W83852  30.555   3.356   4.776
11428W        W83853  27.958  24.501  13.331
11429W        W83854  17.573   5.296  12.004
11430W        W83855  35.976   9.720  13.996
11431W        W83856  36.425  30.510   3.846
11432W        W83857  22.586  40.015  11.890
11433W        W83858  30.974  18.605  13.848
11434W        W83859  34.095   9.750   2.308
11435W        W83860  43.826  34.027  13.395
11436W        W83861  29.574  29.043   2.897
11437W        W83862   4.807  21.676   0.443
11438W        W83863  20.765   2.951   1.695
11439W        W83864  35.857  28.633   2.760
11440W        W83865  25.585   1.910  10.587
11441W        W83866   8.899   3.358  12.949
11442W        W83867  28.662  27.594  12.450
11443W        W83868  26.077   8.747   3.285
11444W        W83869   3.905  28.090   4.810
11445W        W83870  25.081  43.962   2.767
11446W        W83871  25.178  17.743   3.182
11447W        W83872   8.861  31.464   4.286
11448W        W83873  31.477  29.502  13.425
11449W        W83874  38.832  37.543  14.770
11450W        W83875  19.741   7.362  14.797
11451W        W83876  19.075  17.716  13.845
11452W        W83877  22.587   9.374  13.462
11453W        W83878  25.178  15.632   3.827
11454W        W83879  40.939  24.638  10.552
11455W        W83880  12.731  18.106  14.969
11456W        W83881  25.583  28.591   3.256
11457W        W83882  25.064  34.003   4.348
11458W        W83883   5.797   2.349   3.697
11459W        W83884  18.756  10.250   0.746
11460W        W83885  37.987   1.382   0.350
11461W        W83886  26.702  14.735   0.262
11462W        W83887  13.214  30.018  12.451
11463W        W83888   9.698  11.209   3.207
11464W        W83889  18.611  16.107   4.344
11465W        W83890  41.509  39.911  13.817
11466W        W83891  27.982  29.493  13.000
11467W        W83892   3.837  16.117   2.844
11468W        W83893  36.960  18.761  11.490
11469W        W83894  12.362  19.626  11.010
11470W        W83895  33.904   2.404   1.725
11471W        W83896  44.002   1.853   2.334
11472W        W83897  16.574   1.928   2.709
11473W        W83898  18.085  34.553   0.274
11474W        W83899  26.613  44.381  12.096
11475W        W83900   9.381  27.673  12.902
11476W        W83901  12.786  24.016  12.845
11477W        W83902  39.810  27.505  14.029
11478W        W83903   3.808  22.012   4.743
11479W        W83904   5.698  12.140  12.570
11480W        W83905  25.123  29.929  12.980
11481W        W83906  37.582  31.021   2.769
11482W        W83907  22.722  30.413   0.329
11483W        W83908  32.970  25.090  14.488
11484W        W83909  30.113  15.754   2.207
11485W        W83910   6.369  20.173  10.637
11486W        W83911  37.873  25.637   2.773
11487W        W83912   3.456  36.589   2.870
11488W        W83913  26.066  19.196  11.856
11489W        W83914  10.693   2.904  12.990
11490W        W83915   3.321   9.818  10.460
11491W        W83916  10.689  27.679   4.236
11492W        W83917  17.617  16.161   2.260
11493W        W83918   4.793   4.700   0.406
11494W        W83919   6.343  22.745  12.918
11495W        W83920  40.920  34.390  11.026
11496W        W83921  33.417  21.228   5.298
11497W        W83922   4.723  33.599   3.659
11498W        W83923  43.425   4.450  13.456
11499W        W83924  17.767  10.814   3.266
11500W        W83925  25.639  26.503   2.395
11501W        W83926  44.455  38.059   1.227
11502W        W83927  33.091  40.310   4.153
11503W        W83928   2.741  34.558  10.622
11504W        W83929   4.316  41.531  11.890
11505W        W83930  30.909  35.862  12.410
11506W        W83931  11.623  38.988   0.888
11507W        W83932  33.064  21.619  12.467
11508W        W83933  29.570   1.301   2.205
11509W        W83934  41.474   0.355  12.470
11510W        W83935   0.754  33.410   3.853
11511W        W83936  43.379  26.496   0.747
11512W        W83937  37.368  26.065  13.015
11513W        W83938  33.895   0.904   1.357
11514W        W83939  35.405  23.502   2.198
11515W        W83940  41.906   6.300  12.927
11516W        W83941  20.674  42.386   2.219
11517W        W83942  33.561  27.604  14.399
11518W        W83943  43.884  16.164   3.294
11519W        W83944  41.027   7.834   3.696
11520W        W83945  20.581  17.111   0.432
11521W        W83946  19.184  16.571   2.662
11522W        W83947  20.566   9.702   1.935
11523W        W83948  33.523  25.050  11.414
11524W        W83949  38.891  28.461  13.803
11525W        W83950  30.547   4.834  12.357
11526W        W83951   1.346  44.805  11.561
11527W        W83952  17.622  35.078  10.911
11528W        W83953   5.699   0.783   1.775
11529W        W83954  13.154  20.635  11.985
11530W        W83955  10.253  10.201  11.461
11531W        W83956   6.198  21.200   2.363
11532W        W83957  17.573  34.603   5.632
11533W        W83958   7.675   6.713   4.727
11534W        W83959  32.091  40.468   4.327
11535W        W83960  12.282   6.723   4.676
11536W        W83961  31.090   9.294  12.884
11537W        W83962  44.471   6.739   4.661
11538W        W83963  25.995  42.976   2.256
11539W        W83964  29.927   6.826  10.469
11540W        W83965  17.564   0.839   0.901
11541W        W83966  41.298   5.904  10.485
11542W        W83967  41.897  20.640   0.456
11543W        W83968  22.586  20.739   1.875
11544W        W83969  33.419  38.867   5.219
11545W        W83970  40.342   3.852  12.379
11546W        W83971  19.201   1.409   0.320
11547W        W83972  25.614  27.181  14.790
11548W        W83973  31.635  16.579   3.379
11549W        W83974  40.835   4.311  11.927
11550W        W83975   7.809   3.383   2.204
11551W        W83976  28.000  29.111  12.993
11552W        W83977  35.976   5.230   3.838
11553W        W83978  44.297  11.185  14.293
11554W        W83979  23.735   5.812  13.807
11555W        W83980  43.418  31.626   2.336
11556W        W83981   8.708  34.065   0.752
11557W        W83982  20.242  26.032   3.790
11558W        W83983   4.258  14.600   1.818
11559W        W83984  18.153   4.443  13.400
11560W        W83985  34.100  35.537   3.796
11561W        W83986   6.887   3.846   1.749
11562W        W83987  16.659  20.746   3.658
11563W        W83988  34.603  16.774  14.450
11564W        W83989   3.840  14.330  14.947
11565W        W83990  23.034  20.639   1.385
11566W        W83991  25.594   8.375  14.471
11567W        W83992   0.954  25.071   2.756
11568W        W83993  15.762  42.886   2.265
11569W        W83994  17.243  31.939  13.334
11570W        W83995  29.570  39.443   3.180
11571W        W83996  11.159   6.264   0.801
11572W        W83997  32.425  10.746  13.347
11573W        W83998  33.512  42.303   1.791
11574W        W83999  32.024  19.663   4.148
11575W        W84000  12.289  25.062  12.998
11576W        W84001  15.189  29.920  12.553
11577W        W84002  14.326  21.735   2.792
11578W        W84003   1.305   6.323  12.917
11579W        W84004   0.389   4.713   4.226
11580W        W84005  25.146  21.111   5.282
11581W        W84006  41.915   8.231   2.729
11582W        W84007   5.254  17.272  14.319
11583W        W84008  31.573  24.134  13.392
11584W        W84009  12.305   4.439   5.296
11585W        W84010  22.159  36.935   0.965
11586W        W84011  30.150   4.894  14.320
11587W        W84012  15.087  33.119   1.381
11588W        W84013   5.895  43.399   2.386
11589W        W84014   5.758  40.846  14.770
11590W        W84015  42.818  24.591   4.160
11591W        W84016  14.330  16.681  12.475
11592W        W84017  34.903  16.089   4.789
11593W        W84018   1.750  22.115  14.789
11594W        W84019  21.736  29.997   1.726
11595W        W84020  34.091  13.778   0.332
11596W        W84021   9.253  17.775   0.755
11597W        W84022  14.589  23.164   0.402
11598W        W84023   1.895  40.513  14.867
11599W        W84024  30.615   1.812   4.610
11600W        W84025  12.705  33.384  11.547
11601W        W84026  15.638  39.398   2.792
11602W        W84027  24.055   6.406   2.330
11603W        W84028  39.451   4.864  13.059
11604W        W84029  16.121  32.979   4.736
11605W        W84030   9.767   0.456  11.860
11606W        W84031  40.496  21.582   4.602
11607W        W84032  20.201  43.868   4.823
11608W        W84033  17.669  32.410   0.935
11609W        W84034   2.407  43.510  10.626
11610W        W84035  18.780  10.324  12.951
11611W        W84036  12.832  25.584   4.282
11612W        W84037   1.762   8.287  14.873
11613W        W84038   9.260  38.441  11.462
11614W        W84039  24.125  40.885   3.734
11615W        W84040  27.501  40.004   2.685
11616W        W84041  27.099   9.851   0.418
11617W        W84042  43.779  41.970  12.516
11618W        W84043  26.662  35.941  13.322
11619W        W84044  41.025   5.370  11.003
11620W        W84045  30.599  28.094  13.018
11621W        W84046  18.717  12.257  12.090
11622W        W84047  22.101  37.371  10.993
11623W        W84048   3.803  25.513  13.365
11624W        W84049  16.710  11.176   3.647
11625W        W84050   6.737  15.604  10.424
11626W        W84051  39.365  20.105  10.973
11627W        W84052  26.582   2.377   4.797
11628W        W84053   2.895  36.852  12.518
11629W        W84054  41.998  16.123  13.820
11630W        W84055  44.950  37.378  13.378
11631W        W84056  34.479  20.639  10.530
11632W        W84057  30.141  12.802  11.573
11633W        W84058  30.575  19.118   3.703
11634W        W84059  21.535  17.070   2.208
11635W        W84060  36.437  13.766  13.905
11636W        W84061  17.579  11.347   4.142
11637W        W84062  18.755  28.136  11.392
11638W        W84063  35.551  18.715  12.505
11639W        W84064  31.152  29.970  14.017
11640W        W84065  25.570  27.481   0.742
11641W        W84066  30.043  12.282   4.332
11642W        W84067  19.099  22.728  12.904
11643W        W84068  19.104  27.641  11.101
11644W        W84069  38.925  23.624   1.320
11645W        W84070  29.559  36.377  13.934
11646W        W84071  37.496  14.667  11.975
11647W        W84072  24.161  40.415  12.535
11648W        W84073  30.087   4.344  13.034
11649W        W84074  42.983  33.388  10.452
11650W        W84075   9.199   0.350  14.317
11651W        W84076  27.514  36.066  10.515
11652W        W84077  39.422  31.611  14.997
11653W        W84078   3.226  15.817   5.118
11654W        W84079   2.419  18.578   0.362
11655W        W84080   9.392  14.814   0.405
11656W        W84081  23.563  34.457   1.758
11657W        W84082  35.086  11.851   2.223
11658W        W84083  41.392  34.543   2.819
11659W        W84084   7.252  15.786  10.633
11660W        W84085   0.932  22.553   2.293
11661W        W84086  38.529  32.056   1.259
11662W        W84087  39.037   0.307  11.422
11663W        W84088  36.582  37.898  11.859
11664W        W84089  13.280  13.772  13.841
11665W        W84090   2.750  13.816   0.845
11666W        W84091  26.056  19.210  10.574
11667W        W84092  39.854  31.648  11.891
11668W        W84093  13.627  28.580  11.914
11669W        W84094  42.943  23.580  14.872
11670W        W84095  21.596   4.331   0.792
11671W        W84096   5.788  33.895  14.899
11672W        W84097  43.886  35.518  12.398
11673W        W84098   8.264  12.824  14.437
11674W        W84099   3.916  22.537  11.874
11675W        W84100   9.719  35.490  13.952
11676W        W84101  33.095  23.062  12.962
11677W        W84102  15.198  16.139   3.727
11678W        W84103  28.449  40.901  12.949
11679W        W84104   7.794   5.278  11.477
11680W        W84105  25.493  24.530   1.352
11681W        W84106   5.428  24.047   2.687
11682W        W84107  17.594  32.550  14.941
11683W        W84108  28.070  36.972  11.524
11684W        W84109  18.222  33.935   4.142
11685W        W84110  20.569  40.824   3.380
11686W        W84111   1.837  37.048   0.836
11687W        W84112  17.680  14.305   4.274
11688W        W84113  11.193   8.713   3.787
11689W        W84114  30.445  33.018   4.294
11690W        W84115   6.766  39.560  13.985
11691W        W84116  26.637  39.360  12.004
11692W        W84117   2.740  29.980   0.454
11693W        W84118  21.745  16.795  11.938
11694W        W84119   3.875  24.180  10.539
11695W        W84120  40.925  36.372   1.390
11696W        W84121  30.958  15.619  14.882
11697W        W84122  20.260   4.273  12.887
11698W        W84123  34.467   0.810   4.730
11699W        W84124  38.973  28.444  13.048
11700W        W84125  10.642  13.288   2.289
11701W        W84126   5.240  11.292  10.516
11702W        W84127  43.453  15.782  13.544
11703W        W84128   6.210   2.305  10.985
11704W        W84129   7.289  41.952  10.482
11705W        W84130  10.822   4.221  12.083
11706W        W84131  19.125  41.800   0.338
11707W        W84132  42.976   1.789   3.208
11708W        W84133  38.340  33.963   3.379
11709W        W84134  42.777  27.570  10.083
11710W        W84135  31.968  35.037  12.055
11711W        W84136  11.359  40.886   4.235
11712W        W84137  31.445  31.503  10.961
11713W        W84138  17.681  41.343  11.109
11714W        W84139   3.952   3.877   1.867
11715W        W84140  20.230   2.227  13.387
11716W        W84141   1.907  13.622  14.950
11717W        W84142   0.981  27.029  14.959
11718W        W84143   2.941  42.527  11.870
11719W        W84144  31.900  39.840  14.764
11720W        W84145  15.587   6.191   0.927
11721W        W84146  28.097  41.909  10.606
11722W        W84147  10.352  39.914  10.139
11723W        W84148  20.178   8.274   1.804
11724W        W84149   2.721  41.956  10.920
11725W        W84150  40.470  17.748   2.333
11726W        W84151  36.044  38.476  12.386
11727W        W84152  14.713  37.004  11.577
11728W        W84153   4.852  11.370  13.336
11729W        W84154  31.540  39.501   2.307
11730W        W84155  12.853  10.667  13.847
11731W        W84156   3.943  40.903   3.258
11732W        W84157   6.301  43.413  13.484
11733W        W84158  33.570  16.791   3.220
11734W        W84159  38.335   4.301   4.165
11735W        W84160  41.915  41.937   4.283
11736W        W84161  12.317  30.075   0.260
11737W        W84162  11.797   9.749  12.412
11738W        W84163  18.702  23.716   2.677
11739W        W84164  20.654  31.417  12.998
11740W        W84165  37.909   5.741  10.553
11741W        W84166  39.034   9.285  14.445
11742W        W84167  16.217  10.368   3.209
11743W        W84168  30.055  39.448   3.152
11744W        W84169  44.771  22.028   4.281
11745W        W84170  36.347  13.635  12.372
11746W        W84171  31.448  26.019   0.272
11747W        W84172   0.251  36.540  11.097
11748W        W84173   4.229  30.617   2.732
11749W        W84174  33.431   6.880  10.577
11750W        W84175   5.292  35.484  13.846
11751W        W84176  38.889   8.289  10.460
11752W        W84177  35.453   3.948   1.887
11753W        W84178  23.000  27.087   0.842
11754W        W84179  29.057  25.107  11.432
11755W        W84180  43.945   5.703   2.384
11756W        W84181  30.609  33.009  11.061
11757W        W84182  18.162   3.228  12.464
11758W        W84183   2.725  22.691  12.363
11759W        W84184  43.430  33.494   5.263
11760W        W84185  25.102  35.478   0.957
11761W        W84186  33.960  32.487  12.405
11762W        W84187   0.483  27.062  10.564
11763W        W84188  22.597   4.791  14.879
11764W        W84189  38.420  43.488   0.801
11765W        W84190  14.599   0.392  10.628
11766W        W84191   7.182  20.730   4.756
11767W        W84192   8.290  38.901   0.371
11768W        W84193   0.361  42.382  13.957
11769W        W84194   1.901  27.525  13.471
11770W        W84195   2.809  42.026   4.725
11771W        W84196  21.043   6.315  13.050
11772W        W84197  44.474  41.962   4.750
11773W        W84198  14.702  35.985   5.113
11774W        W84199  31.407  17.564  14.848
11775W        W84200  15.305  27.522   1.792
11776W        W84201   7.865  26.966   3.794
11777W        W84202   9.222   0.988   1.402
11778W        W84203  20.171  31.519   2.199
11779W        W84204  26.672  33.502  14.809
11780W        W84205  25.703  30.090   0.327
11781W        W84206  41.460  12.699  13.387
11782W        W84207  25.131   8.879   2.791
11783W        W84208  18.555  19.039  12.349
11784W        W84209  26.543  23.504   3.327
11785W        W84210  14.634   6.357  14.304
11786W        W84211  29.642   8.268   4.269
11787W        W84212  35.436  14.767   3.266
11788W        W84213   3.316  35.060  12.400
11789W        W84214  15.142   6.738  14.476
11790W        W84215  30.426   7.814   4.799
11791W        W84216  27.128   1.792   0.427
11792W        W84217  12.240  36.885  13.795
11793W        W84218  28.541  38.038   3.817
11794W        W84219   9.285  28.658   2.682
11795W        W84220  33.973  36.566   4.203
11796W        W84221  21.035  34.906  11.002
11797W        W84222  43.507  16.684   4.305
11798W        W84223  24.596  37.460  13.390
11799W        W84224  21.253  25.062   2.703
11800W        W84225   9.711   0.928   1.809
11801W        W84226  36.539   9.293   5.315
11802W        W84227  11.282  21.037   2.731
11803W        W84228  12.681  38.421   4.622
11804W        W84229  13.724  28.062   0.960
11805W        W84230  34.491  40.467  11.122
11806W        W84231  37.888  40.922   2.288
11807W        W84232   8.194   9.862  10.604
11808W        W84233   5.748  29.140  14.990
11809W        W84234  14.833  28.946   0.423
11810W        W84235  30.017  21.738  14.781
11811W        W84236  28.650  18.676   4.639
11812W        W84237  10.851  32.483  14.372
11813W        W84238   4.855   7.347  12.430
11814W        W84239  36.493  17.292   1.739
11815W        W84240  39.890  19.705  11.474
11816W        W84241  44.470  11.754   4.205
11817W        W84242  41.528  14.712   5.253
11818W        W84243  32.928  19.078   0.467
11819W        W84244  39.449  29.173  10.613
11820W        W84245  22.031  34.964  12.996
11821W        W84246   2.774   3.437   0.362
11822W        W84247  41.807  11.190   3.638
11823W        W84248  42.891   4.314  12.344
11824W        W84249  31.902  32.513  11.051
11825W        W84250  24.100   5.921  12.380
11826W        W84251  39.418  35.975   2.830
11827W        W84252  24.013  38.834  10.556
11828W        W84253   6.907  33.446   4.130
11829W        W84254   3.773  36.476   3.254
11830W        W84255   2.906  22.526  11.085
11831W        W84256  18.688  11.214   1.397
11832W        W84257  10.836   2.462  13.400
11833W        W84258   9.844  36.983   0.781
11834W        W84259   3.358  31.993   0.968
11835W        W84260  18.250   8.861  10.564
11836W        W84261  27.023  16.121  11.022
11837W        W84262  38.987   7.665   4.758
11838W        W84263  23.669  24.978  12.352
11839W        W84264  41.470  11.360   3.733
11840W        W84265  21.593   4.867   1.290
11841W        W84266  16.203  42.872   3.732
11842W        W84267  25.581  32.107   9.664
11843W        W84268  39.355   6.201  14.787
11844W        W84269  34.936  24.498   1.393
11845W        W84270  39.529  20.701   1.772
11846W        W84271  32.408  10.293  14.023
11847W        W84272  37.883  44.409  14.887
11848W        W84273  23.064  16.623   0.288
11849W        W84274  20.175  40.959   1.318
11850W        W84275  10.238  19.614   2.302
11851W        W84276  18.782  10.875  12.866
11852W        W84277   5.431   8.736  11.390
11853W        W84278  18.596  43.802   4.223
11854W        W84279  25.972  29.167  12.071
11855W        W84280  33.599  42.011  13.811
11856W        W84281  26.670   6.225  14.473
11857W        W84282  42.833  27.536  14.789
11858W        W84283  23.017   2.304   1.698
11859W        W84284  39.972   9.234  13.883
11860W        W84285  42.317  24.538   0.858
11861W        W84286  25.493   5.273   1.412
11862W        W84287  35.893   5.432  12.473
11863W        W84288  40.868  26.205   2.813
11864W        W84289  30.939   0.883  11.030
11865W        W84290  44.805  14.237  14.956
11866W        W84291   0.975   7.273   0.458
11867W        W84292   0.919  21.604  12.005
11868W        W84293  35.544  25.054   1.702
11869W        W84294   7.756  26.583  13.064
11870W        W84295  42.928  30.576  12.349
11871W        W84296  37.539  11.165   2.834
11872W        W84297  12.687   9.841  13.826
11873W        W84298  34.587  16.103  11.453
11874W        W84299   6.214  25.483  13.963
11875W        W84300  35.432  15.654   2.337
11876W        W84301  13.787  13.233  13.028
11877W        W84302  38.973  29.105   4.688
11878W        W84303  41.431  40.422  10.408
11879W        W84304  37.428  19.251   2.661
11880W        W84305  37.013   8.851   0.782
11881W        W84306  19.757  29.167  10.633
11882W        W84307  44.350  23.598  11.989
11883W        W84308  36.424  21.567   4.216
11884W        W84309  24.158  11.719  13.926
11885W        W84310   0.264   0.975  14.798
11886W        W84311  41.457  17.566   4.267
11887W        W84312  32.916  15.633   4.304
11888W        W84313  17.655  23.996  11.600
11889W        W84314  28.048   8.195   3.735
11890W        W84315  26.668   5.803   2.237
11891W        W84316  27.002  31.999   1.843
11892W        W84317  44.979  16.192   1.431
11893W        W84318   9.700  30.476   1.366
11894W        W84319  11.289  43.511  12.933
11895W        W84320   7.858  15.192  12.072
11896W        W84321  37.874  17.586  12.083
11897W        W84322   9.314  40.414   0.735
11898W        W84323  22.054  44.333   4.778
11899W        W84324  42.909   2.368  10.917
11900W        W84325  28.030  33.103   4.238
11901W        W84326  40.037  18.213   2.293
11902W        W84327  23.697  21.656   1.791
11903W        W84328  28.988  14.195   4.352
11904W        W84329  22.615  42.907   2.194
11905W        W84330  23.732  39.817   2.351
11906W        W84331  24.658  35.414   1.866
11907W        W84332  21.650  26.628   2.321
11908W        W84333  12.800  18.578  14.884
11909W        W84334  20.742  25.074  11.610
11910W        W84335  19.707  14.258  10.494
11911W        W84336  31.415  27.072  10.905
11912W        W84337   3.308  12.726   0.810
11913W        W84338  28.030  36.979   4.748
11914W        W84339  21.700  35.003   1.921
11915W        W84340  30.491  24.668   3.776
11916W        W84341  39.475  19.559   0.467
11917W        W84342  33.604  43.845   1.398
11918W        W84343  43.438   3.936  10.540
11919W        W84344   5.896  33.079  14.894
11920W        W84345  13.338  32.122   3.723
11921W        W84346  40.993  17.116   3.692
11922W        W84347  35.552  44.977   3.647
11923W        W84348  31.500  33.475  12.061
11924W        W84349  22.542  34.523   2.743
11925W        W84350  14.095  37.426  11.984
11926W        W84351  36.094  21.056  12.355
11927W        W84352  31.598   6.791  11.912
11928W        W84353  40.930   1.364  11.418
11929W        W84354  15.198  42.458  12.880
11930W        W84355  42.345  27.985   1.362
11931W        W84356  26.614  40.871   1.785
11932W        W84357  15.756   8.747   4.289
11933W        W84358  24.616  37.908  11.114
11934W        W84359  42.395  40.478  11.455
11935W        W84360  21.680  40.386  12.827
11936W        W84361  41.028  10.764  14.504
11937W        W84362   5.219  14.634  11.377
11938W        W84363  15.653  35.571  10.508
11939W        W84364   9.666  27.517  11.909
11940W        W84365  15.317  17.572  11.569
11941W        W84366  19.238  36.567   2.723
11942W        W84367   5.311  28.465   4.164
11943W        W84368  19.718  40.047   0.332
11944W        W84369  30.017  16.631  11.593
11945W        W84370  19.779  38.563  14.351
11946W        W84371   6.735  31.522  11.927
11947W        W84372   5.768  39.362   0.890
11948W        W84373   2.273  14.332   2.729
11949W        W84374  17.636   7.380  13.512
11950W        W84375   5.890  27.952   3.815
11951W        W84376  20.595  31.919   2.860
11952W        W84377  29.508  12.828   2.183
11953W        W84378  43.370  35.084   3.381
11954W        W84379  39.321  32.056   0.406
11955W        W84380  37.538   5.705  13.406
11956W        W84381  16.311  11.664  11.028
11957W        W84382   4.830  18.054   2.244
11958W        W84383   9.194  19.191  11.059
11959W        W84384   6.731  31.549   2.202
11960W        W84385   7.885  20.543  11.569
11961W        W84386  43.841   5.417   1.217
11962W        W84387   7.397  25.002   4.193
11963W        W84388   7.250  31.556  10.551
11964W        W84389  10.197  10.643  10.146
11965W        W84390  10.268   4.251   9.925
11966W        W84391  25.485  20.194   2.759
11967W        W84392  30.107  29.468  10.953
11968W        W84393   7.823  22.501  11.931
11969W        W84394   5.723   2.840  14.784
11970W        W84395   1.370  25.543   0.412
11971W        W84396  13.631  10.330   2.222
11972W        W84397  40.364  19.589   2.398
11973W        W84398  37.404  33.924  11.500
11974W        W84399   5.434  10.700  11.054
11975W        W84400   5.771  38.412   2.272
11976W        W84401  33.419  20.625   3.241
11977W        W84402  43.983  22.210   0.355
11978W        W84403  12.750  23.005   4.346
11979W        W84404  39.435   6.684  14.813
11980W        W84405  28.940  25.214  12.526
11981W        W84406  33.909   4.885   2.389
11982W        W84407   4.770  26.536   4.308
11983W        W84408  13.304   4.327   4.646
11984W        W84409   0.824  38.942   2.358
11985W        W84410  29.436  22.710   4.153
11986W        W84411  17.708  38.513  10.412
11987W        W84412   1.359  17.149  12.491
11988W        W84413  44.497  15.210   5.231
11989W        W84414  17.618  15.312  10.571
11990W        W84415  26.573  22.154   5.176
11991W        W84416  18.770  27.145   3.643
11992W        W84417  29.647  15.274   4.141
11993W        W84418   8.820  34.923   2.357
11994W        W84419  30.117  11.185  13.804
11995W        W84420  38.907  37.573   5.141
11996W        W84421  24.017  21.182  14.890
11997W        W84422  17.671   9.831  12.020
11998W        W84423   7.215  28.612   0.877
11999W        W84424  36.920  10.177  13.880
12000W        W84425  41.817  39.814  12.085
12001W        W84426  23.020  20.157  12.469
12002W        W84427  18.085  25.134   4.795
12003W        W84428   7.200  18.247   0.436
12004W        W84429  24.574   5.314  11.084
12005W        W84430   9.233   0.793  12.362
12006W        W84431  35.006  43.385  14.841
12007W        W84432  28.153  16.736  11.105
12008W        W84433  42.031  28.091   3.297
12009W        W84434  32.494  43.292   0.340
12010W        W84435   7.907  23.095  12.032
12011W        W84436  12.226  16.099   3.674
12012W        W84437  27.671  36.566  10.927
12013W        W84438  15.676  11.270   3.375
12014W        W84439   6.340  34.971   2.699
12015W        W84440  16.088  25.161   3.678
12016W        W84441  12.353  26.546  12.940
12017W        W84442  12.837   8.770  13.791
12018W        W84443  12.833  37.577  11.393
12019W        W84444  44.929   8.875   2.224
12020W        W84445  41.799   4.337   3.257
12021W        W84446  22.150  41.008   4.716
12022W        W84447   2.777  12.770   1.768
12023W        W84448  13.192   6.752   1.228
12024W        W84449  23.641  13.213  10.567
12025W        W84450  12.617  39.363   3.199
12026W        W84451   7.905  41.401  12.342
12027W        W84452  23.592  38.932   3.383
12028W        W84453  44.910  40.854   4.689
12029W        W84454  18.567  21.530  13.833
12030W        W84455  44.926   0.262  14.929
12031W        W84456   5.313  29.478   0.962
12032W        W84457  12.612  34.927   0.275
12033W        W84458  35.380  13.619  14.764
12034W        W84459  12.809   2.954   0.447
12035W        W84460   1.367  33.091  13.021
12036W        W84461  43.431  13.665  12.042
12037W        W84462  23.212  33.608  10.923
12038W        W84463  23.163   4.810  13.951
12039W        W84464  38.383   6.425  11.865
12040W        W84465  23.995  43.932  13.344
12041W        W84466  20.172  15.673  10.124
12042W        W84467  43.765  39.352   1.351
12043W        W84468  21.749   7.680  14.970
12044W        W84469  32.899  15.721  13.441
12045W        W84470  12.153  18.182   0.391
12046W        W84471   2.874   4.908   0.947
12047W        W84472  21.063  29.042   0.868
12048W        W84473  39.865   3.866   1.713
12049W        W84474   8.223  37.954   2.339
12050W        W84475   4.300   3.752  11.510
12051W        W84476  13.110  43.807  10.981
12052W        W84477   5.363  21.691   2.887
12053W        W84478  14.676  36.968   3.310
12054W        W84479   0.289  29.118   0.287
12055W        W84480   1.934  30.907   1.803
12056W        W84481   6.918  38.423  14.470
12057W        W84482  42.913   7.340   4.216
12058W        W84483   6.792  17.077  14.904
12059W        W84484  27.645  28.936   4.661
12060W        W84485  30.614  20.224   4.245
12061W        W84486  37.559  40.974   4.125
12062W        W84487  43.810  36.994  13.528
12063W        W84488   9.251  25.139   2.702
12064W        W84489   4.848  38.562   4.703
12065W        W84490  42.382  30.110   1.444
12066W        W84491  28.002  20.727  11.381
12067W        W84492  39.471  23.602   2.398
12068W        W84493   0.366  29.627  13.535
12069W        W84494   8.900  26.660   2.798
12070W        W84495  28.454  10.251   0.440
12071W        W84496  40.435   4.392   4.603
12072W        W84497  26.114  14.723   2.262
12073W        W84498  26.477  39.860  13.804
12074W        W84499  28.516  38.956  11.387
12075W        W84500  29.592  25.178   3.684
12076W        W84501  29.087  12.255  14.312
12077W        W84502   0.763  19.592  13.344
12078W        W84503  27.612   1.805   4.296
12079W        W84504   0.935  34.463   4.202
12080W        W84505   8.874  11.155   4.248
12081W        W84506  15.166  43.424   4.761
12082W        W84507  18.212  31.958  14.766
12083W        W84508  25.478  27.003   2.251
12084W        W84509  23.525  22.035  14.357
12085W        W84510  26.468  34.956   0.388
12086W        W84511  30.445  11.305   1.750
12087W        W84512   1.381   4.801  11.088
12088W        W84513  29.071  17.303  10.528
12089W        W84514  39.973  26.650  14.915
12090W        W84515  18.201  43.823   2.886
12091W        W84516  23.195  15.157  12.068
12092W        W84517  32.887  26.053   1.312
12093W        W84518  25.602  41.787   1.862
12094W        W84519  16.650  42.504  12.453
12095W        W84520  31.432  44.455  14.764
12096W        W84521  42.880   5.353   1.317
12097W        W84522  32.588  25.694   3.693
12098W        W84523  25.219  19.129  14.819
12099W        W84524  21.590  24.669  13.359
12100W        W84525  41.903  39.811  11.556
12101W        W84526  15.159  28.121   2.758
12102W        W84527  29.630  40.466  11.970
12103W        W84528  10.668  44.899   1.253
12104W        W84529  17.195  10.161   3.154
12105W        W84530  34.923   0.862  14.904
12106W        W84531  20.151   5.914  11.401
12107W        W84532  31.628  17.676   0.760
12108W        W84533  29.589  36.406  13.428
12109W        W84534  38.562  24.002  13.309
12110W        W84535  11.702   3.880   2.900
12111W        W84536  30.015  24.156  14.380
12112W        W84537   3.862  32.965   0.447
12113W        W84538  11.134  21.144  13.385
12114W        W84539   3.853  42.502  13.915
12115W        W84540  42.815  19.219   1.340
12116W        W84541   8.691  18.147  13.886
12117W        W84542  35.049  27.466   2.340
12118W        W84543  22.161  43.324  10.911
12119W        W84544  21.247  10.759  14.305
12120W        W84545  28.119  21.513   9.650
12121W        W84546  38.539   2.279  11.875
12122W        W84547  27.973  24.152   2.330
12123W        W84548  30.607  34.433   2.350
12124W        W84549  26.543  19.617   2.886
12125W        W84550  11.270  42.856   4.644
12126W        W84551   7.884  14.249   5.094
12127W        W84552  15.728   3.850   5.250
12128W        W84553  24.097  24.484   1.756
12129W        W84554  32.092  33.120  12.558
12130W        W84555   1.860   0.920  12.551
12131W        W84556   0.403  17.143  12.988
12132W        W84557  25.981  29.148   2.855
12133W        W84558  39.530  31.147   1.428
12134W        W84559  30.137  41.479   0.957
12135W        W84560  13.284   7.766  13.049
12136W        W84561  31.944  15.312   0.917
12137W        W84562   7.824  18.195  14.513
12138W        W84563  16.802   4.393  10.522
12139W        W84564  13.775  24.007   0.855
12140W        W84565   5.438  44.791  13.056
12141W        W84566  19.043  20.245  13.974
12142W        W84567  10.767  14.251  13.412
12143W        W84568   8.793  44.297   2.412
12144W        W84569  32.605  41.421  14.335
12145W        W84570  37.891  31.426   4.169
12146W        W84571  32.617   3.224   4.661
12147W        W84572  36.478  19.628   0.744
12148W        W84573  44.314  40.489  14.012
12149W        W84574   9.253   7.351   3.147
12150W        W84575  42.329   2.723   2.216
12151W        W84576  17.284  30.935  13.379
12152W        W84577  29.992  24.567   1.712
12153W        W84578   4.930  35.093  14.856
12154W        W84579  39.972  40.340  11.904
12155W        W84580  38.950  30.061  11.438
12156W        W84581  44.872  32.947  12.861
12157W        W84582  25.540  38.018   1.377
12158W        W84583  42.910  14.608   4.703
12159W        W84584   3.307  13.831   2.724
12160W        W84585   6.337  18.050  12.346
12161W        W84586  22.554  35.107   2.229
12162W        W84587  33.880  39.847  13.493
12163W        W84588   4.230  35.883   3.362
12164W        W84589  36.419  25.000   3.660
12165W        W84590  18.289  20.106  11.962
12166W        W84591   4.751  14.177  13.373
12167W        W84592  10.153  33.497   3.823
12168W        W84593  38.835  17.636  11.094
12169W        W84594  43.879  17.684  12.999
12170W        W84595  35.879  43.382  11.011
12171W        W84596  42.811  25.039   0.809
12172W        W84597  29.609  27.655  12.885
12173W        W84598  11.822  21.256   1.718
12174W        W84599  35.911  14.830  10.483
12175W        W84600  19.646  40.344  13.027
12176W        W84601  42.777   1.819  13.909
12177W        W84602  20.083  23.594   4.212
12178W        W84603  27.175   1.403  14.359
12179W        W84604  11.368  43.465   1.359
12180W        W84605  12.222  11.289   3.662
12181W        W84606  17.162   6.706  10.922
12182W        W84607  16.679  31.493   0.436
12183W        W84608  23.088  37.877  11.563
12184W        W84609  17.789  14.748  13.460
12185W        W84610   1.278   8.873   2.879
12186W        W84611  35.449  14.255  11.918
12187W        W84612  40.380  24.666   3.200
12188W        W84613  40.933   2.234   1.796
12189W        W84614  28.179  41.971   2.378
12190W        W84615  13.263  19.739  11.612
12191W        W84616  18.622   8.335   3.351
12192W        W84617  32.067  26.457  10.558
12193W        W84618   8.670  15.162  12.051
12194W        W84619  11.662   6.378  12.465
12195W        W84620  12.668  38.827   4.149
12196W        W84621  35.379  33.118  13.329
12197W        W84622  17.246  13.250   4.348
12198W        W84623   5.919  27.133   3.831
12199W        W84624  42.903  40.950   0.481
12200W        W84625   0.282  43.896   4.646
12201W        W84626  31.585  31.641  11.867
12202W        W84627  27.169   4.343  11.091
12203W        W84628  21.170  23.190  10.605
12204W        W84629  38.448  38.402  13.906
12205W        W84630   1.784  36.092  11.601
12206W        W84631  43.013  14.163   3.176
12207W        W84632  26.061  32.941   4.219
12208W        W84633  40.957  35.507  12.833
12209W        W84634  17.242  21.057  13.846
12210W        W84635  26.537  10.141  10.150
12211W        W84636  10.353   0.935  12.016
12212W        W84637  20.629  36.511  11.862
12213W        W84638   0.372  40.922   3.824
12214W        W84639  44.996  29.032   2.368
12215W        W84640   6.890  30.475   2.792
12216W        W84641  34.421  41.391   4.326
12217W        W84642  32.550   5.295   2.226
12218W        W84643  44.767  14.094   4.336
12219W        W84644   0.927   8.289  10.538
12220W        W84645  33.414   9.674  11.395
12221W        W84646  44.753  15.124  12.834
12222W        W84647   3.880   0.985   3.225
12223W        W84648  35.887  38.922   3.308
12224W        W84649   0.445  41.484  13.313
12225W        W84650  16.763  13.766   4.665
12226W        W84651  34.937  31.137   4.344
12227W        W84652  13.268   0.323   3.353
12228W        W84653  17.702  35.042   0.395
12229W        W84654  30.133  38.503  11.520
12230W        W84655  40.935  42.932  11.059
12231W        W84656  35.981  30.031  10.985
12232W        W84657  26.589  44.299  12.886
12233W        W84658  43.314  40.872  10.444
12234W        W84659  41.967  34.039   3.725
12235W        W84660  44.462   7.825  11.857
12236W        W84661  35.369  14.324  13.418
12237W        W84662   7.722   1.456   4.729
12238W        W84663  17.259  37.836  11.076
12239W        W84664  21.723  14.183  14.317
12240W        W84665   0.880  36.092   5.173
12241W        W84666  23.645   2.721  10.492
12242W        W84667  40.397   2.904   1.702
12243W        W84668  23.213  23.508   1.739
12244W        W84669  29.970   5.741   2.323
12245W        W84670  27.580   4.802   1.367
12246W        W84671  18.095  13.687   0.369
12247W        W84672  21.093  22.675   1.717
12248W        W84673  16.184  22.169  11.896
12249W        W84674   1.272   8.712   2.195
12250W        W84675  22.558  31.109  12.413
12251W        W84676   1.902  29.610   4.139
12252W        W84677   4.313  17.188  13.390
12253W        W84678   9.708  24.106   0.848
12254W        W84679   4.918  20.081   4.673
12255W        W84680   6.263   8.387  11.456
12256W        W84681  30.152   0.254  13.856
12257W        W84682   3.814  20.223   3.148
12258W        W84683  21.532  29.164  13.937
12259W        W84684   8.399  40.417   0.922
12260W        W84685  27.586   6.238  12.366
12261W        W84686  36.880  22.133   4.612
12262W        W84687  24.615  16.634  10.617
12263W        W84688   1.899   3.915  14.485
12264W        W84689  14.734  25.685   3.813
12265W        W84690  11.817  33.529   5.228
12266W        W84691  13.343  24.202   1.251
12267W        W84692  25.477  30.106   1.756
12268W        W84693  17.783  44.424  13.918
12269W        W84694  16.772  18.724  14.393
12270W        W84695  17.693  26.087  10.410
12271W        W84696  10.870  35.479  14.001
12272W        W84697   9.884   7.893   1.889
12273W        W84698   9.301   7.784   2.700
12274W        W84699  44.941   7.259  10.404
12275W        W84700  12.246   3.229   4.663
12276W        W84701  36.562  10.253   0.770
12277W        W84702   6.403  31.416  13.891
12278W        W84703  42.865  38.423  11.060
12279W        W84704  19.651   8.322  12.865
12280W        W84705  41.528  28.119   2.734
12281W        W84706  35.419  20.739  14.332
12282W        W84707  35.591  38.975  12.573
12283W        W84708  43.897  21.555  13.518
12284W        W84709  32.611   5.710   1.292
12285W        W84710  41.361  23.060   0.301
12286W        W84711  32.446  41.381   3.255
12287W        W84712  31.418  37.369   1.281
12288W        W84713  18.173  41.309   0.809
12289W        W84714  36.438   5.821   5.316
12290W        W84715  24.647  28.124   2.368
12291W        W84716  21.730  37.469  10.923
12292W        W84717  19.119  16.102   3.292
12293W        W84718  44.305   8.199   2.834
12294W        W84719  17.566  40.436   1.237
12295W        W84720  42.866  21.691   0.867
12296W        W84721  35.000  35.525   2.259
12297W        W84722  42.497  11.625   4.828
12298W        W84723  44.822  27.583  10.469
12299W        W84724  30.999  15.097  14.030
12300W        W84725  32.990  29.474   1.903
12301W        W84726  22.622  21.253  10.894
12302W        W84727  30.913  25.493  13.349
12303W        W84728  24.153  36.564   4.259
12304W        W84729  27.174  36.587  14.437
12305W        W84730  32.977  14.155   2.888
12306W        W84731  35.013  37.948   4.232
12307W        W84732  42.385  11.674   0.428
12308W        W84733   6.812  29.458   1.877
12309W        W84734   9.358  10.688  14.955
12310W        W84735   3.953  31.594  14.935
12311W        W84736  43.275   0.309  14.836
12312W        W84737  23.716   9.226   2.195
12313W        W84738   2.330  10.771  14.949
12314W        W84739  24.609  40.909  12.374
12315W        W84740  26.134  18.272  12.490
12316W        W84741  44.422  27.541  11.878
12317W        W84742  21.519   2.399   2.738
12318W        W84743  32.045   3.337  10.604
12319W        W84744  39.522  35.525  12.972
12320W        W84745  19.745  32.595   1.715
12321W        W84746  41.522  40.901   3.654
12322W        W84747  32.534  29.610  12.923
12323W        W84748   2.836  15.253  11.109
12324W        W84749  25.025  23.206  12.005
12325W        W84750   4.786   0.857   2.341
12326W        W84751  30.547  40.421   5.224
12327W        W84752  38.388  21.553  13.888
12328W        W84753   8.320  17.105   1.401
12329W        W84754  21.638  24.196   0.465
12330W        W84755  12.825  35.077  14.313
12331W        W84756   9.177  12.200   4.749
12332W        W84757  44.299  30.501   5.112
12333W        W84758  13.337  16.687  14.490
12334W        W84759  20.670  26.187  11.513
12335W        W84760  22.184  28.507   0.890
12336W        W84761  18.667  23.653   4.820
12337W        W84762  42.408  41.391  10.905
12338W        W84763   4.923  10.837  12.946
12339W        W84764   4.260  26.978  12.842
12340W        W84765  33.599  36.379   4.212
12341W        W84766  30.544  42.818   4.605
12342W        W84767  41.389   6.337  11.072
12343W        W84768  22.008  13.328   1.251
12344W        W84769   8.332  35.389  13.806
12345W        W84770   3.424  44.958   2.775
12346W        W84771   2.949  44.955   4.790
12347W        W84772  28.132   0.814   4.348
12348W        W84773   9.651  44.265   1.382
12349W        W84774  35.523  26.201  14.341
12350W        W84775  20.185  38.000  14.287
12351W        W84776  10.710   9.271  10.460
12352W        W84777   6.302  37.928   4.761
12353W        W84778  41.825  28.607  11.919
12354W        W84779  36.057   1.313   0.369
12355W        W84780  44.868  36.372   4.159
12356W        W84781  42.779  27.664  11.968
12357W        W84782  29.659  24.071  11.012
12358W        W84783   1.479   4.253  14.925
12359W        W84784  18.231   3.913   1.309
12360W        W84785  42.900  11.698   0.813
12361W        W84786  28.590   3.746  10.961
12362W        W84787  37.064   9.770   0.317
12363W        W84788   7.232  12.322  12.934
12364W        W84789   3.302  43.514  12.922
12365W        W84790  26.188   7.404   4.282
12366W        W84791   4.345  43.450   2.415
12367W        W84792  15.242  16.126  13.371
12368W        W84793  27.546  20.735  14.395
12369W        W84794  31.074  26.611  12.021
12370W        W84795   3.351  20.588  10.984
12371W        W84796  17.227  26.963  12.929
12372W        W84797  10.219   9.847   2.762
12373W        W84798   3.790   1.253   2.388
12374W        W84799  19.604  34.579   4.726
12375W        W84800   4.381  11.258   3.852
12376W        W84801  22.548  15.806   1.716
12377W        W84802   3.251   9.374  14.931
12378W        W84803  36.410  14.216   4.677
12379W        W84804  17.652  40.403  13.795
12380W        W84805  33.450  19.738   0.958
12381W        W84806  42.904  28.083   4.265
12382W        W84807   6.820  37.995   4.289
12383W        W84808  32.538  32.099  10.971
12384W        W84809  20.627  34.923  12.551
12385W        W84810  42.000  28.629  14.913
12386W        W84811  20.086   8.302  12.484
12387W        W84812   8.368  21.139  12.564
12388W        W84813  13.741  21.027  10.503
12389W        W84814   3.269   5.319   4.311
12390W        W84815   7.837  41.314   4.190
12391W        W84816  30.154   9.678   1.383
12392W        W84817  25.216  16.316  12.571
12393W        W84818   2.959  21.679   0.898
12394W        W84819  12.723  21.020  13.431
12395W        W84820   7.781  22.164   1.865
12396W        W84821  17.656  16.720   0.250
12397W        W84822  25.606  17.120   2.838
12398W        W84823  19.622  14.645   3.336
12399W        W84824  29.993  13.126  12.453
12400W        W84825   3.817  27.050  14.014
12401W        W84826  44.277   0.987  11.930
12402W        W84827  19.574  44.771  12.029
12403W        W84828   8.362  27.154   3.229
12404W        W84829  20.538  13.189  13.795
12405W        W84830  21.102  10.738   1.427
12406W        W84831  35.859  28.511   4.649
12407W        W84832  22.134  15.189  12.432
12408W        W84833  17.596  10.662   2.729
12409W        W84834   9.196  13.743   4.342
12410W        W84835  11.622   1.312   1.844
12411W        W84836  22.562  22.571  13.018
12412W        W84837  16.125  26.020  12.509
12413W        W84838  18.548  43.430  11.909
12414W        W84839  43.833   4.360   0.407
12415W        W84840  14.194  24.164  10.030
12416W        W84841  43.870  22.613   4.755
12417W        W84842   2.437  36.552  11.865
12418W        W84843  22.066  27.515  14.830
12419W        W84844  41.473  10.359  11.000
12420W        W84845  12.214  44.913  13.954
12421W        W84846  28.474  20.214  14.029
12422W        W84847  22.050  31.917  10.634
12423W        W84848  38.041  31.633  11.916
12424W        W84849  33.462  31.932  14.779
12425W        W84850   7.780  39.912  12.857
12426W        W84851  13.239  26.627  13.913
12427W        W84852   1.413  27.447  12.950
12428W        W84853   3.858   6.212   3.366
12429W        W84854  12.725  42.906   4.157
12430W        W84855  40.836   3.461  13.842
12431W        W84856  30.145  14.678   1.849
12432W        W84857  32.623  40.406  14.938
12433W        W84858   2.873  21.679  12.839
12434W        W84859   8.687  25.045   4.599
12435W        W84860  15.621  16.631  10.458
12436W        W84861  19.166  40.885   4.155
12437W        W84862   7.742  16.606   0.260
12438W        W84863   1.289  36.080   4.162
12439W        W84864  21.668  19.620  13.008
12440W        W84865  39.865   8.290  12.911
12441W        W84866  30.516  21.020  11.466
12442W        W84867  16.207  13.258   0.482
12443W        W84868  42.817  17.283  13.466
12444W        W84869  39.029  19.140  13.444
12445W        W84870  20.182   3.275   0.249
12446W        W84871  40.522  23.709   5.234
12447W        W84872   2.868  24.027   4.652
12448W        W84873  31.485   7.686   3.808
12449W        W84874  21.078  36.990   3.633
12450W        W84875  27.020  38.388   3.379
12451W        W84876  22.086  32.068  13.978
12452W        W84877  40.541  41.843  13.476
12453W        W84878  32.492  22.225  10.621
12454W        W84879   9.391  15.304  11.507
12455W        W84880  10.257  22.569   4.115
12456W        W84881   3.799  32.546  14.476
12457W        W84882  37.404  40.304  13.928
12458W        W84883  19.771  31.520   1.804
12459W        W84884  21.252   6.712   1.808
12460W        W84885  23.600  40.423   2.777
12461W        W84886  29.145   7.399  13.930
12462W        W84887  29.534   5.431  13.804
12463W        W84888  29.544  18.111   1.934
12464W        W84889   3.353   5.802   2.308
12465W        W84890  43.859  23.490  13.454
12466W        W84891  15.631  43.374   1.225
12467W        W84892  13.816  14.184   2.733
12468W        W84893  30.605  36.523  11.975
12469W        W84894  11.684  34.517   1.861
12470W        W84895  42.029   8.176  13.456
12471W        W84896  37.040  32.501   0.747
12472W        W84897  14.168  19.742   2.341
12473W        W84898  42.845  32.635   4.629
12474W        W84899   4.299   8.893   0.278
12475W        W84900  30.551  44.841  12.957
12476W        W84901  23.046  20.219  11.887
12477W        W84902  24.977  28.010   0.804
12478W        W84903  16.740   2.331  14.490
12479W        W84904  16.639  32.614   0.328
12480W        W84905  19.255   7.763  12.370
12481W        W84906   8.377  26.473  12.040
12482W        W84907   6.210  15.697  14.995
12483W        W84908  38.470  12.783  12.864
12484W        W84909  31.480  20.528  13.326
12485W        W84910  35.461   4.396  12.578
12486W        W84911  23.023   6.223  12.446
12487W        W84912  36.399  19.700  14.316
12488W        W84913  41.407  27.556   4.597
12489W        W84914  19.048  42.899  14.995
12490W        W84915  14.270  25.469  13.852
12491W        W84916  11.134  28.046  14.419
12492W        W84917   9.347  27.523   2.299
12493W        W84918   7.262   7.782  12.078
12494W        W84919  31.060  25.513   3.795
12495W        W84920  18.180  12.214   4.814
12496W        W84921  12.162  25.003   5.241
12497W        W84922  43.364  28.604   3.687
12498W        W84923  44.896  11.191   3.806
12499W        W84924  44.852   2.902   1.424
12500W        W84925   5.439   5.408  13.792
12501W        W84926  41.979  18.681  13.856
12502W        W84927  33.948  21.025   3.313
12503W        W84928  28.039  38.899   5.309
12504W        W84929   7.790  44.487   0.250
12505W        W84930   2.769  15.268  14.902
12506W        W84931   9.340  37.489  11.439
12507W        W84932  22.064  16.226   3.693
12508W        W84933  11.664  38.395  12.088
12509W        W84934  33.936  27.127   0.847
12510W        W84935   8.861  11.868   3.824
12511W        W84936  33.999  22.696  14.794
12512W        W84937  14.137  39.975   1.741
12513W        W84938  11.831   4.797  11.536
12514W        W84939  24.535  30.125   4.611
12515W        W84940  11.372  22.581   2.276
12516W        W84941   4.429  20.602   2.243
12517W        W84942   7.718  12.776  12.015
12518W        W84943  42.397  26.099   1.262
12519W        W84944  16.696  14.326   4.664
12520W        W84945  25.117   5.727   2.688
12521W        W84946  36.370  35.093   1.915
12522W        W84947  27.972  35.984  13.064
12523W        W84948  37.877  28.461   3.711
12524W        W84949  16.074   2.255  12.885
12525W        W84950  28.660  28.941  11.496
12526W        W84951  10.710  17.230  14.930
12527W        W84952  10.144  20.101  12.545
12528W        W84953  15.283  15.244   1.290
12529W        W84954  27.055  27.674   3.294
12530W        W84955  29.003  24.599   2.412
12531W        W84956  16.711  10.147  13.855
12532W        W84957   6.683  40.871  13.943
12533W        W84958  13.160   3.388  13.428
12534W        W84959  18.204  28.462  10.557
12535W        W84960  36.449  42.481   1.351
12536W        W84961  16.580  25.200   4.706
12537W        W84962  36.485  24.151   3.378
12538W        W84963  27.168  21.535  13.860
12539W        W84964  19.605  10.689  13.035
12540W        W84965  20.641   2.831  11.881
12541W        W84966  34.401  20.745   4.732
12542W        W84967  11.358  10.142   4.348
12543W        W84968  41.902  30.935  11.933
12544W        W84969  22.027  19.659  11.460
12545W        W84970   7.252  19.277   1.210
12546W        W84971  16.197   8.879   3.682
12547W        W84972  26.669  12.153  11.420
12548W        W84973   9.809  23.117   1.801
12549W        W84974  13.232  28.117   2.274
12550W        W84975  16.695   5.297   1.913
12551W        W84976  36.039  44.417   4.788
12552W        W84977  28.124  25.131   3.720
12553W        W84978  39.968  38.983   4.649
12554W        W84979  43.402   4.321   1.932
12555W        W84980  11.327  39.480  12.965
12556W        W84981  27.469  33.908  14.915
12557W        W84982  34.517  32.021  12.490
12558W        W84983  38.892  23.102   4.186
12559W        W84984  27.011  13.722   3.285
12560W        W84985  38.539  39.420   4.684
12561W        W84986  11.664  38.455   4.712
12562W        W84987   5.390   5.237   2.288
12563W        W84988  31.076  28.947  14.278
12564W        W84989  25.132  42.026  13.991
12565W        W84990  35.988   7.234  10.962
12566W        W84991   6.706  29.163   2.305
12567W        W84992   4.398  20.119  12.000
12568W        W84993  33.877  21.568  11.856
12569W        W84994   5.222  11.623  14.837
12570W        W84995  40.398  18.772  10.568
12571W        W84996  19.145  13.624   1.825
12572W        W84997   2.327  23.015   1.328
12573W        W84998  25.198  23.610   3.321
12574W        W84999  35.074  36.017   2.239
12575W        W85000   3.829  32.079  14.402
12576W        W85001  41.514  22.605   4.665
12577W        W85002  17.598  19.273  10.584
12578W        W85003  39.468  26.200  14.021
12579W        W85004  21.528  15.770   9.965
12580W        W85005  31.430  13.284  13.950
12581W        W85006  29.161  21.696   4.683
12582W        W85007  35.896  41.484   3.350
12583W        W85008  34.441  19.712  12.057
12584W        W85009  29.668  14.681   4.237
12585W        W85010  28.543   4.908   3.674
12586W        W85011  10.324  27.553  12.913
12587W        W85012  26.590  35.378  14.002
12588W        W85013  44.963  22.740  10.571
12589W        W85014  19.548  14.710   1.292
12590W        W85015   7.908  24.498  14.826
12591W        W85016  31.899  41.373   3.276
12592W        W85017   7.408   3.757   4.705
12593W        W85018  35.072  23.136  14.819
12594W        W85019  13.163  26.982   2.867
12595W        W85020   4.870  17.667   3.662
12596W        W85021  22.029  24.656  13.811
12597W        W85022   1.798   7.379  12.094
12598W        W85023  40.997  27.691  12.450
12599W        W85024   2.420  16.231  13.005
12600W        W85025  31.146  11.198  10.623
12601W        W85026  11.706  39.893  11.393
12602W        W85027  43.441  19.121  12.422
12603W        W85028  25.491  39.046  10.157
12604W        W85029  39.338  29.531   3.792
12605W        W85030   1.269  15.232   2.233
12606W        W85031  19.695  39.357   3.151
12607W        W85032  30.098  39.357  14.808
12608W        W85033  42.862  21.560  12.385
12609W        W85034  34.118  27.005   4.663
12610W        W85035  39.035   2.249  14.910
12611W        W85036   9.882  29.920  12.435
12612W        W85037  20.144  19.623  12.577
12613W        W85038   8.807  24.568   2.822
12614W        W85039  18.296  36.437   4.197
12615W        W85040   2.796   6.903   1.797
12616W        W85041  18.200   0.804  13.852
12617W        W85042  26.617  11.657  12.918
12618W        W85043  17.098   0.835  10.537
12619W        W85044  12.294  31.480   2.347
12620W        W85045  27.470   3.282  10.596
12621W        W85046   4.446  27.591  11.568
12622W        W85047  27.166  24.632   3.274
12623W        W85048  18.145  10.868  12.890
12624W        W85049  12.626  25.168   2.340
12625W        W85050   3.265   1.815  13.049
12626W        W85051  16.240  14.197   3.285
12627W        W85052  42.952   7.718   3.379
12628W        W85053  28.954  38.369   0.369
12629W        W85054  11.235   7.300   2.333
12630W        W85055   9.285  39.050  12.493
12631W        W85056   1.321  29.424   4.256
12632W        W85057  27.468   7.374  12.546
12633W        W85058   7.335  42.878  14.468
12634W        W85059  26.502  38.048  10.451
12635W        W85060  39.004  29.064  12.442
12636W        W85061   3.729  34.484  14.012
12637W        W85062  40.960   2.840  10.519
12638W        W85063  18.254  13.187  13.997
12639W        W85064  42.306  25.649   0.745
12640W        W85065  25.001   5.887  13.868
12641W        W85066  19.643  41.486   3.213
12642W        W85067   4.303   9.206   2.263
12643W        W85068  37.349  11.789  14.769
12644W        W85069  26.136  30.441   1.284
12645W        W85070  17.660  14.641  14.335
12646W        W85071  14.619   7.209   2.401
12647W        W85072  36.082  38.431  14.351
12648W        W85073  44.814  37.477   1.366
12649W        W85074  37.558   1.764  10.448
12650W        W85075  27.641   1.277  12.935
12651W        W85076  22.501  31.060   3.792
12652W        W85077   7.186  11.303  13.497
12653W        W85078  13.600   9.221  10.487
12654W        W85079   3.458  17.604   3.659
12655W        W85080   1.915  29.022  14.828
12656W        W85081  32.556  22.050   2.813
12657W        W85082  36.350  32.042   4.625
12658W        W85083   7.337  44.840  14.866
12659W        W85084  11.653  25.487   4.657
12660W        W85085  34.032  10.693  12.578
12661W        W85086   4.813  24.578   3.810
12662W        W85087  18.221  36.448  13.340
12663W        W85088  24.989  15.731  14.013
12664W        W85089  34.492   0.967  12.377
12665W        W85090  16.276  22.525   2.745
12666W        W85091  18.074   2.753  13.870
12667W        W85092  28.489  13.174  13.965
12668W        W85093  14.114   1.840  13.881
12669W        W85094   3.404   9.699   3.652
12670W        W85095  24.189   2.798  11.371
12671W        W85096  38.503   8.243   2.396
12672W        W85097  32.566  37.001   4.765
12673W        W85098  35.468  27.038   0.807
12674W        W85099  23.673  39.401  13.493
12675W        W85100  34.999  27.146   1.862
12676W        W85101  38.517  30.020  10.951
12677W        W85102  23.041   8.682  12.482
12678W        W85103  17.740  14.594   4.666
12679W        W85104   9.212  23.561  12.885
12680W        W85105   2.428  29.020   0.766
12681W        W85106  27.446  20.218  12.828
12682W        W85107  14.685  41.433  11.999
12683W        W85108  19.595  23.030  11.435
12684W        W85109  27.508  19.103  13.007
12685W        W85110  20.557  10.819  12.910
12686W        W85111   4.414   7.768  12.939
12687W        W85112   8.754   9.828  13.545
12688W        W85113   1.478  14.242  10.546
12689W        W85114  22.647  13.767  13.437
12690W        W85115   1.263  24.011  10.638
12691W        W85116  25.119  29.161   4.130
12692W        W85117   5.389   0.406  12.089
12693W        W85118   9.695  13.628   2.249
12694W        W85119  23.604   0.288  11.972
12695W        W85120  26.170   8.165  13.480
12696W        W85121  12.182   2.393  10.615
12697W        W85122  32.409  28.550   4.774
12698W        W85123  41.503  40.529  11.581
12699W        W85124   8.699   4.323   2.328
12700W        W85125  25.614  32.630   2.397
12701W        W85126  21.718  14.802   1.756
12702W        W85127  39.840   5.236  12.356
12703W        W85128   8.395  37.579   4.126
12704W        W85129  21.134  29.083   1.820
12705W        W85130  34.511  31.515  11.126
12706W        W85131  23.133  19.172  10.405
12707W        W85132  27.581  23.017   9.609
12708W        W85133  37.050  39.032  14.340
12709W        W85134   4.799  44.871  13.897
12710W        W85135   6.726  37.364   0.773
12711W        W85136  15.174  36.468   2.302
12712W        W85137  17.564  32.456  12.021
12713W        W85138  40.335  28.161  13.336
12714W        W85139  32.410  10.314   0.953
12715W        W85140  33.452   1.422   0.741
12716W        W85141  35.426  21.151   2.386
12717W        W85142  37.561  23.159   4.694
12718W        W85143  34.381  17.303  14.874
12719W        W85144  14.699   1.953   5.721
12720W        W85145  15.165   9.187   1.751
12721W        W85146  10.667  44.288  11.534
12722W        W85147  22.738  15.196   2.393
12723W        W85148   4.232  26.625   3.282
12724W        W85149  12.757  20.732   0.962
12725W        W85150  30.636  33.380  11.989
12726W        W85151   2.450  34.886  11.046
12727W        W85152  13.762  18.273  12.013
12728W        W85153  43.810  16.207   0.733
12729W        W85154  32.053  20.206  12.973
12730W        W85155  20.091   4.334  10.955
12731W        W85156   9.649  22.658   1.297
12732W        W85157  43.301  12.681  10.048
12733W        W85158  43.951  43.919   3.645
12734W        W85159   4.426   2.907  11.403
12735W        W85160  10.760   9.840  14.407
12736W        W85161  29.433   1.364   3.790
12737W        W85162   0.853  36.948   4.127
12738W        W85163  24.076  33.394   0.812
12739W        W85164  12.210  30.160  13.507
12740W        W85165  38.836   1.901  12.865
12741W        W85166  34.415  12.193  13.887
12742W        W85167  34.067  16.809   1.374
12743W        W85168  33.521  41.959  13.405
12744W        W85169   3.753  43.294  10.644
12745W        W85170  12.819   2.357  13.332
12746W        W85171   6.816   5.926  12.364
12747W        W85172  27.995  17.665  14.970
12748W        W85173  19.230   0.252   0.334
12749W        W85174  32.972  37.972   4.786
12750W        W85175  41.910  37.061  12.477
12751W        W85176   0.455  43.394   3.741
12752W        W85177  23.112  18.154   2.208
12753W        W85178  44.487   6.826  11.106
12754W        W85179  26.700  32.501  14.766
12755W        W85180  27.953  18.223  11.950
12756W        W85181  28.978  22.997  11.877
12757W        W85182  28.183  14.781  10.135
12758W        W85183  28.638  27.151  14.898
12759W        W85184  25.987  39.437  13.957
12760W        W85185   0.362  32.404  13.045
12761W        W85186  28.163  18.296  13.794
12762W        W85187  21.023  16.145   4.331
12763W        W85188  23.500  44.455   1.236
12764W        W85189   1.370  10.159  13.543
12765W        W85190  22.521  21.257   1.778
12766W        W85191   7.772  14.241   1.443
12767W        W85192  15.730  19.545   1.806
12768W        W85193  39.816   2.232  14.930
12769W        W85194  30.645  41.411   0.770
12770W        W85195   1.968  14.195  11.027
12771W        W85196  42.017   4.917   4.196
12772W        W85197  15.116  38.028   4.206
12773W        W85198  35.980  19.640   3.385
12774W        W85199  31.923   3.727  10.960
12775W        W85200  17.607  11.679   2.847
12776W        W85201  11.266  15.240  14.401
12777W        W85202  33.064  20.736   3.316
12778W        W85203  24.110   4.329  12.937
12779W        W85204  12.701  14.136   4.225
12780W        W85205   9.254  32.140  14.810
12781W        W85206  43.829  31.455  10.976
12782W        W85207   7.236  22.240   1.367
12783W        W85208  27.073  39.513   1.229
12784W        W85209  19.200  43.393  14.421
12785W        W85210  10.700  44.481   2.814
12786W        W85211  26.973  39.879  11.892
12787W        W85212  35.862  32.401  13.493
12788W        W85213  31.408  19.749  12.554
12789W        W85214  18.220   8.349   2.408
12790W        W85215  23.099  21.211  10.632
12791W        W85216  20.693  44.303   0.833
12792W        W85217  21.115  37.050  11.536
12793W        W85218  21.530  23.560   4.125
12794W        W85219  30.056  28.171   2.767
12795W        W85220  31.521  24.478   1.448
12796W        W85221  37.856  22.206  14.867
12797W        W85222   3.922  23.000  11.454
12798W        W85223  44.489  32.521   4.732
12799W        W85224  10.240  23.021  11.994
12800W        W85225  31.979   8.797  12.353
12801W        W85226  33.932   7.248  10.587
12802W        W85227  32.466   1.334   2.209
12803W        W85228  29.556  42.996   3.690
12804W        W85229  34.612  33.593  13.977
12805W        W85230   4.738   9.245  11.493
12806W        W85231  24.109  20.546  11.937
12807W        W85232  13.248  34.500  11.452
12808W        W85233  34.053  17.592  14.461
12809W        W85234  33.989   6.229   1.824
12810W        W85235   6.908  38.518   4.185
12811W        W85236  38.980  25.006   0.260
12812W        W85237   9.690  41.889   2.833
12813W        W85238   2.412  42.826   3.647
12814W        W85239   8.202  18.242   1.277
12815W        W85240  27.648  33.060  14.015
12816W        W85241  20.172  44.479  12.458
12817W        W85242  32.119   8.196   4.723
12818W        W85243  29.657  24.642   1.922
12819W        W85244  27.629  23.711   0.765
12820W        W85245   3.361  18.215   3.689
12821W        W85246  26.173   6.363   1.922
12822W        W85247  11.159  14.598   2.339
12823W        W85248   8.837  32.475   2.695
12824W        W85249  37.836   9.266   2.727
12825W        W85250   7.716   1.450   3.703
12826W        W85251  24.048  27.994   1.333
12827W        W85252  37.546  36.943  14.477
12828W        W85253  15.132  30.911  10.964
12829W        W85254  25.165  35.943  11.874
12830W        W85255   0.353  37.867   2.815
12831W        W85256  41.000   5.894   4.612
12832W        W85257  14.215  41.446   3.781
12833W        W85258   4.812  23.702  14.396
12834W        W85259   7.352  20.236   3.848
12835W        W85260  43.348   5.296   4.756
12836W        W85261   9.781  40.802   2.669
12837W        W85262  19.176  34.048  10.588
12838W        W85263  23.184  33.486  12.976
12839W        W85264   2.801  16.691  12.902
12840W        W85265  21.580  31.905   1.844
12841W        W85266  41.309  28.936   0.887
12842W        W85267  32.624   4.375  14.286
12843W        W85268  25.493  28.171  11.477
12844W        W85269   4.753  18.709   5.142
12845W        W85270   4.331  28.522   2.395
12846W        W85271  23.491  26.039  11.995
12847W        W85272  41.938  40.945   1.781
12848W        W85273  32.085  29.107  14.425
12849W        W85274  10.143  21.051  13.546
12850W        W85275   0.893  12.763   4.678
12851W        W85276  12.287   1.975  10.062
12852W        W85277   0.272  27.072  14.334
12853W        W85278  15.759   9.661  13.005
12854W        W85279  44.878  19.085  13.340
12855W        W85280  22.639  14.297  14.375
12856W        W85281  38.507  34.916   0.430
12857W        W85282  33.464   9.713   0.357
12858W        W85283   2.442  35.094  11.410
12859W        W85284   9.787  34.544   1.920
12860W        W85285  10.217  30.492  10.006
12861W        W85286   2.769  19.157   1.714
12862W        W85287  22.615  25.215   0.472
12863W        W85288  34.982  31.614  10.580
12864W        W85289  14.161  35.529   4.806
12865W        W85290  43.885  38.393   0.411
12866W        W85291  25.068  12.778   0.803
12867W        W85292  27.448  28.515   2.871
12868W        W85293   9.885  25.002   0.828
12869W        W85294  39.912  34.387  13.308
12870W        W85295  21.540  39.449   1.415
12871W        W85296  26.494  13.660   4.654
12872W        W85297   4.718  34.947   4.619
12873W        W85298   6.421   6.337  11.974
12874W        W85299  42.490  12.663   3.195
12875W        W85300  40.852  41.984  13.819
12876W        W85301  44.283  30.991   1.271
12877W        W85302  11.205   7.882   2.768
12878W        W85303  36.512  14.321  14.986
12879W        W85304   5.779  40.512  13.935
12880W        W85305  27.083   2.287  11.451
12881W        W85306  30.607  25.670   3.814
12882W        W85307   3.744  40.996   2.725
12883W        W85308  20.222  21.052  14.966
12884W        W85309  44.463  39.330   2.213
12885W        W85310   1.298  30.594  14.493
12886W        W85311  11.243   0.415  12.938
12887W        W85312  14.190  12.270  14.796
12888W        W85313  39.434  32.930   0.443
12889W        W85314   9.787  23.198   0.476
12890W        W85315   7.802   5.725   3.199
12891W        W85316  17.629  14.185   3.157
12892W        W85317   7.772   7.376  14.914
12893W        W85318  24.979  43.941  13.887
12894W        W85319  22.539  16.270   1.835
12895W        W85320  13.819  11.680   1.870
12896W        W85321  21.214  31.408   2.807
12897W        W85322  12.164  10.855   1.245
12898W        W85323  24.638   3.416   3.366
12899W        W85324   8.279  32.609   3.350
12900W        W85325  19.711  18.059   0.277
12901W        W85326  27.552  35.439  13.426
12902W        W85327  30.534  21.736   3.346
12903W        W85328  31.049   5.408   0.800
12904W        W85329  34.423  34.029   3.787
12905W        W85330  29.089  38.343   4.713
12906W        W85331  25.525   7.803   1.243
12907W        W85332  20.263   2.826  14.421
12908W        W85333  32.556  23.707  12.503
12909W        W85334  33.567  38.444   4.124
12910W        W85335  38.931   4.340  14.779
12911W        W85336  12.822  27.114   1.292
12912W        W85337  42.005  23.106  14.320
12913W        W85338  35.432  41.946   0.283
12914W        W85339  25.543  37.869  13.045
12915W        W85340  34.369  11.364  13.036
12916W        W85341  16.266  27.990  14.015
12917W        W85342  24.584  21.198  14.833
12918W        W85343  40.926  41.394   0.842
12919W        W85344   2.427  21.699   4.635
12920W        W85345  20.657  11.677   4.151
12921W        W85346   4.833  38.564   2.347
12922W        W85347  25.661  10.723   4.178
12923W        W85348  15.636   5.370  12.070
12924W        W85349  12.835  11.767  14.422
12925W        W85350  12.773  35.393  10.632
12926W        W85351  31.115  40.523   2.706
12927W        W85352  28.012  18.257   1.421
12928W        W85353   1.368  37.412   4.124
12929W        W85354  37.874  32.604  14.516
12930W        W85355  25.202  16.615  13.342
12931W        W85356   1.390   8.741  13.828
12932W        W85357   7.841  16.597  11.010
12933W        W85358  43.512  35.469  10.949
12934W        W85359   0.350  15.740  14.864
12935W        W85360  24.064  29.490  11.612
12936W        W85361  37.335  39.379  10.959
12937W        W85362  14.179   4.269  14.999
12938W        W85363  41.499  29.658   4.776
12939W        W85364  34.443   8.832  14.871
12940W        W85365  14.824  37.010  13.891
12941W        W85366  18.692   2.358   3.207
12942W        W85367  28.438  38.836  14.316
12943W        W85368  26.993   4.291   1.325
12944W        W85369  18.124   2.740  12.519
12945W        W85370  43.499  34.497   1.863
12946W        W85371  19.681  10.780   5.140
12947W        W85372  28.018   1.949  12.569
12948W        W85373  29.049  14.273   1.724
12949W        W85374  34.472  26.685   1.330
12950W        W85375  27.461  32.482   0.936
12951W        W85376  40.452  34.898  13.931
12952W        W85377  21.151  24.036   3.734
12953W        W85378   8.260  23.126  11.114
12954W        W85379  44.330  18.700   1.424
12955W        W85380   9.800  31.403   3.857
12956W        W85381  21.745  29.561   3.186
12957W        W85382   6.380   5.697   3.256
12958W        W85383  21.666  22.060  13.054
12959W        W85384  12.248  18.191   2.756
12960W        W85385  23.058  33.547  14.458
12961W        W85386  11.354  11.659  13.875
12962W        W85387  33.938  29.565  10.576
12963W        W85388  19.111  22.250   4.778
12964W        W85389  38.933  39.839   2.298
12965W        W85390   1.323  18.262   4.305
12966W        W85391  36.580   9.230  13.057
12967W        W85392  25.626  22.512   1.294
12968W        W85393  32.544  17.723   0.261
12969W        W85394   6.775  38.417  10.441
12970W        W85395   9.751  41.973  10.431
12971W        W85396  41.512   5.230  14.451
12972W        W85397  41.382  22.007  12.370
12973W        W85398   5.348  24.119  11.879
12974W        W85399  21.719  42.409   0.329
12975W        W85400  36.575  32.938   3.768
12976W        W85401   0.410  12.123  14.984
12977W        W85402  27.989  17.285   0.383
12978W        W85403   6.703  39.370   4.628
12979W        W85404  38.051   2.778   3.683
12980W        W85405   9.652  11.822  13.972
12981W        W85406  13.701  12.117   2.393
12982W        W85407   4.443  40.357   4.304
12983W        W85408  42.460  12.234  14.883
12984W        W85409  20.678  34.104  10.511
12985W        W85410   0.848  15.114   0.312
12986W        W85411   2.926  13.125   3.226
12987W        W85412   5.202  37.443  13.981
12988W        W85413   6.882  39.880  10.560
12989W        W85414   8.832  13.176  13.798
12990W        W85415   3.391  17.181  12.940
12991W        W85416  35.948  44.454  10.456
12992W        W85417  19.106  16.783   4.272
12993W        W85418  17.691  20.063   0.906
12994W        W85419   2.847   4.419  14.489
12995W        W85420  32.006  30.462   3.237
12996W        W85421  11.281   0.268   3.252
12997W        W85422  17.748   2.909  11.050
12998W        W85423   8.822  32.601   0.962
12999W        W85424   2.761  32.572   4.137
13000W        W85425  39.033  19.122   3.804
13001W        W85426  36.871  34.098   4.127
13002W        W85427  40.817  24.036   2.882
13003W        W85428  26.029  17.621   4.818
13004W        W85429  20.238  26.567   3.785
13005W        W85430  39.015  29.643   4.120
13006W        W85431   4.930  38.440  11.871
13007W        W85432   5.420   7.849  13.436
13008W        W85433  28.628  36.428  12.983
13009W        W85434  38.928  16.270   2.238
13010W        W85435  14.731  17.214  13.484
13011W        W85436  22.242  27.070   1.786
13012W        W85437  28.171  39.338  11.096
13013W        W85438  11.260  33.590  14.432
13014W        W85439  19.551   9.277  13.358
13015W        W85440  17.199  34.033   3.229
13016W        W85441  25.055  37.403  14.801
13017W        W85442  18.250  42.486  13.408
13018W        W85443  12.342  23.618   1.874
13019W        W85444  10.172  42.476   1.428
13020W        W85445   1.377  30.916  13.329
13021W        W85446  18.167   4.883  10.549
13022W        W85447   7.221  13.212   1.379
13023W        W85448  23.687  41.358   3.335
13024W        W85449  24.563  43.303  12.497
13025W        W85450  41.363  10.843  13.020
13026W        W85451  11.850  36.500  11.451
13027W        W85452  21.129  22.149  10.624
13028W        W85453  10.372  41.466  14.300
13029W        W85454  21.551  44.908  10.553
13030W        W85455  42.524  21.567   1.281
13031W        W85456  39.402  25.698  11.514
13032W        W85457   5.791  32.133  13.021
13033W        W85458  37.077  15.186   0.279
13034W        W85459  12.757  29.624  12.079
13035W        W85460  30.600   8.272   3.750
13036W        W85461   2.329  10.375  13.049
13037W        W85462  42.326  20.225  10.442
13038W        W85463  13.153  44.484  13.991
13039W        W85464  14.239  24.142   4.612
13040W        W85465   1.310  29.926   1.233
13041W        W85466  36.876  18.107   3.675
13042W        W85467  44.389  37.355   0.400
13043W        W85468   7.872  21.534  14.876
13044W        W85469  12.204  14.637  13.521
13045W        W85470  25.551  11.206  13.354
13046W        W85471  10.257   8.683  12.895
13047W        W85472   8.357  43.925   0.828
13048W        W85473  39.476  13.155   0.366
13049W        W85474  36.846  42.491  12.381
13050W        W85475  41.387  25.467  10.546
13051W        W85476  34.407  13.765  12.997
13052W        W85477  10.782  29.112  13.856
13053W        W85478  15.110   1.934   2.289
13054W        W85479   3.263  28.526   2.665
13055W        W85480   9.811  13.790  14.340
13056W        W85481  33.909  30.647  12.464
13057W        W85482  25.478   5.224   2.397
13058W        W85483  13.614  44.900  13.520
13059W        W85484  22.559  12.743  10.493
13060W        W85485  30.621  20.665   2.885
13061W        W85486  27.491  26.644  14.981
13062W        W85487  26.505   0.758  11.076
13063W        W85488  11.249  24.611  14.371
13064W        W85489  31.144  38.555  14.984
13065W        W85490  21.146  17.758  11.971
13066W        W85491  44.473  25.144   4.668
13067W        W85492  28.605  21.598   3.772
13068W        W85493  34.584  22.527  12.412
13069W        W85494  26.575  32.130  10.552
13070W        W85495  36.523  39.547  11.023
13071W        W85496  30.162  24.617   1.369
13072W        W85497  18.180  38.040   3.851
13073W        W85498  34.971  21.130   2.899
13074W        W85499  34.371  31.121  11.492
13075W        W85500  25.009  36.444   4.800
13076W        W85501  44.362  22.206  12.991
13077W        W85502   4.892  10.232   3.154
13078W        W85503  12.612   5.880  14.987
13079W        W85504  21.644  26.017   0.903
13080W        W85505   8.699  23.029  13.947
13081W        W85506  11.628  34.371   0.450
13082W        W85507  30.042  39.925  12.081
13083W        W85508  44.492  40.820  14.347
13084W        W85509  40.930  14.140  13.876
13085W        W85510  19.105  10.297   3.262
13086W        W85511  35.916  28.087   2.233
13087W        W85512  11.306  21.176   1.702
13088W        W85513  20.765  29.495   4.264
13089W        W85514  26.008   8.313   4.717
13090W        W85515  36.027  25.216   2.865
13091W        W85516  32.462  40.913  11.978
13092W        W85517  17.559  27.591  13.401
13093W        W85518  25.545  33.567   2.305
13094W        W85519  40.534  42.796  11.397
13095W        W85520   6.844  27.540  11.502
13096W        W85521  28.569  10.171   4.291
13097W        W85522   2.796  16.213  13.449
13098W        W85523  29.958  43.307  11.080
13099W        W85524  30.651  16.185  11.055
13100W        W85525  27.184  37.572  11.917
13101W        W85526  16.229  44.010   2.388
13102W        W85527   6.848  17.230   0.967
13103W        W85528  41.384  36.019  14.388
13104W        W85529   4.937  25.522   0.254
13105W        W85530  42.029  14.835   1.773
13106W        W85531   3.345  42.418   0.365
13107W        W85532  13.337  24.002   3.834
13108W        W85533  31.473  16.687  10.577
13109W        W85534   3.775   5.726   3.313
13110W        W85535  14.291  44.501   0.907
13111W        W85536  40.981   9.356  10.551
13112W        W85537   1.828  12.742   3.183
13113W        W85538  21.645  14.143   4.828
13114W        W85539  24.124  41.848  11.069
13115W        W85540  20.673  39.808  14.768
13116W        W85541  42.380  38.837  11.603
13117W        W85542  19.204   2.248  10.576
13118W        W85543  39.481  26.060  12.434
13119W        W85544  28.580   9.680   3.293
13120W        W85545  23.029  11.328  12.581
13121W        W85546  21.194  15.198   0.741
13122W        W85547  27.947  40.364   1.367
13123W        W85548  28.146  13.621   1.413
13124W        W85549  38.954  37.878  10.899
13125W        W85550  44.293  34.444  10.570
13126W        W85551  21.194  30.461  14.022
13127W        W85552   2.327  39.337   1.340
13128W        W85553  29.627  40.486  12.464
13129W        W85554   0.261  34.551  10.412
13130W        W85555   3.454   0.871   4.704
13131W        W85556  15.684  22.168  13.885
13132W        W85557  11.667  18.194  11.879
13133W        W85558   3.889  35.563  14.284
13134W        W85559  18.126  21.564   3.695
13135W        W85560  29.062  25.039   1.220
13136W        W85561  36.492   8.320   2.686
13137W        W85562  39.324  18.175   4.762
13138W        W85563  38.872   9.227  13.379
13139W        W85564  23.061   2.426   2.791
13140W        W85565  21.710  14.116  12.910
13141W        W85566  38.543  23.140   2.823
13142W        W85567   0.936  26.126  11.979
13143W        W85568  37.006  23.491  12.576
13144W        W85569   9.251   2.906  12.073
13145W        W85570  26.625   6.922   1.330
13146W        W85571  16.813  32.440   4.180
13147W        W85572   7.245   8.719  12.346
13148W        W85573   7.372  20.223   0.249
13149W        W85574   8.893  41.006  13.362
13150W        W85575  27.636  13.199   3.748
13151W        W85576  16.194  11.649   4.782
13152W        W85577   2.384  25.484  14.426
13153W        W85578  21.230   6.883  14.492
13154W        W85579  44.926   4.297  14.354
13155W        W85580  35.091  28.570   0.459
13156W        W85581  10.180   5.218   0.276
13157W        W85582  11.161  18.712   2.765
13158W        W85583   0.426  23.049  13.900
13159W        W85584  21.228  21.724  12.454
13160W        W85585  22.646  34.929   0.270
13161W        W85586  30.613  11.333   3.712
13162W        W85587   0.458  23.055  10.951
13163W        W85588  38.056  18.595  11.900
13164W        W85589  38.834  18.683  12.095
13165W        W85590  21.573   2.245  11.895
13166W        W85591  44.915  21.625   3.252
13167W        W85592  33.065  30.924   2.717
13168W        W85593  34.572  38.914  11.012
13169W        W85594  38.909  18.279  12.055
13170W        W85595   1.744   3.217   3.355
13171W        W85596  44.437  40.484   4.150
13172W        W85597   2.228  40.500  14.824
13173W        W85598  20.588  30.058   2.373
13174W        W85599  31.486  23.735   4.835
13175W        W85600  18.660  12.323  14.805
13176W        W85601  16.125  15.199   3.677
13177W        W85602  20.269   6.332   5.110
13178W        W85603  38.398  40.483   2.822
13179W        W85604  29.001   2.319   2.211
13180W        W85605  19.247  14.652   1.726
13181W        W85606  42.282  33.989   0.269
13182W        W85607  31.988  22.687  12.490
13183W        W85608  17.262  31.948  12.017
13184W        W85609  31.050  15.770  10.149
13185W        W85610  42.469  30.934  14.826
13186W        W85611  13.792  41.878   4.184
13187W        W85612  17.680  19.176  12.363
13188W        W85613  22.720  39.896   2.706
13189W        W85614  23.235  29.628  13.402
13190W        W85615  17.752   6.248   3.305
13191W        W85616  34.900  28.593  14.276
13192W        W85617   6.922  37.948   4.712
13193W        W85618   1.300  16.680   4.613
13194W        W85619  32.076  44.831  11.600
13195W        W85620  31.983  43.323  12.448
13196W        W85621  16.084  21.754  13.021
13197W        W85622  19.741  16.785   4.623
13198W        W85623  31.508  12.301   4.732
13199W        W85624  10.160  37.022   2.776
13200W        W85625  32.922  10.689  11.891
13201W        W85626   0.391  42.367   1.367
13202W        W85627  17.765  12.292   0.404
13203W        W85628   0.754  26.532   1.278
13204W        W85629  39.849   5.802   4.734
13205W        W85630  13.303  13.712   2.706
13206W        W85631   1.906  42.435  11.460
13207W        W85632  26.476  25.669  13.864
13208W        W85633   9.368  37.537   3.826
13209W        W85634   3.426  11.737   2.213
13210W        W85635  41.372  38.462  10.941
13211W        W85636  13.114  13.787   0.888
13212W        W85637  29.473  37.409  13.382
13213W        W85638  36.419  12.835   0.363
13214W        W85639   8.689   6.714  12.849
13215W        W85640  12.635  19.242  13.826
13216W        W85641   8.830  32.986   1.369
13217W        W85642  13.832  24.640  14.287
13218W        W85643   4.932  20.083  14.977
13219W        W85644  29.075   1.305   4.816
13220W        W85645  23.698  21.131  14.387
13221W        W85646   7.351  14.619   1.246
13222W        W85647  16.104   3.279   1.257
13223W        W85648   9.361  26.503  10.091
13224W        W85649  33.038  42.400   0.835
13225W        W85650  13.654  35.544  14.851
13226W        W85651  10.194  39.528  14.026
13227W        W85652  10.725  19.768  14.782
13228W        W85653  12.174  34.976   1.351
13229W        W85654   9.257  31.608  14.425
13230W        W85655  14.309  21.153   0.836
13231W        W85656   5.287  43.961   2.856
13232W        W85657   1.278  35.995  13.850
13233W        W85658  29.060   3.381  10.518
13234W        W85659  24.605  26.101  11.092
13235W        W85660  44.909  38.498   2.822
13236W        W85661  11.287   6.396   3.868
13237W        W85662  28.994  30.155   0.802
13238W        W85663  32.474  38.995   2.371
13239W        W85664  43.285  37.566  14.904
13240W        W85665  18.270  33.482  13.310
13241W        W85666  37.899   6.793  10.096
13242W        W85667   6.840   0.785   1.788
13243W        W85668  25.977  32.935  10.407
13244W        W85669  11.752  39.352  13.361
13245W        W85670   9.335   6.229  13.530
13246W        W85671   6.825  17.276   1.930
13247W        W85672  29.634  35.366   0.743
13248W        W85673  25.474  22.070   0.860
13249W        W85674  17.299  11.674  10.461
13250W        W85675  34.541  36.571  14.843
13251W        W85676  41.389  11.751  14.913
13252W        W85677  19.662   0.371   1.819
13253W        W85678  38.355  21.661  12.901
13254W        W85679  37.983   3.439  12.867
13255W        W85680   4.935  25.054   4.221
13256W        W85681  34.117  16.638  12.881
13257W        W85682  28.134   2.749  12.541
13258W        W85683  20.113   4.769   4.777
13259W        W85684  38.044   7.674   5.735
13260W        W85685  21.068   7.755  11.429
13261W        W85686  30.598  17.723  12.897
13262W        W85687   5.879  14.097   3.847
13263W        W85688  42.347  30.909  14.313
13264W        W85689  17.212  28.165   1.269
13265W        W85690  32.546  12.350   1.723
13266W        W85691  31.966  33.499  13.006
13267W        W85692  40.802  23.638  12.933
13268W        W85693  18.289  28.981   4.249
13269W        W85694  33.010  18.728  14.809
13270W        W85695  42.831  33.506   1.754
13271W        W85696  32.444  44.011   2.871
13272W        W85697  16.248  31.476   3.662
13273W        W85698   3.373  38.953  12.482
13274W        W85699  42.501  32.490   3.296
13275W        W85700  39.928  15.152  13.431
13276W        W85701   2.417   7.749   0.841
13277W        W85702  38.921   8.396  14.002
13278W        W85703   7.333  22.061  10.509
13279W        W85704   1.849  14.180  14.836
13280W        W85705   2.227  31.543   4.179
13281W        W85706  33.485  19.199  11.093
13282W        W85707  11.632  32.634   2.336
13283W        W85708  16.287  27.536  14.025
13284W        W85709  40.451  30.006   2.375
13285W        W85710  33.538   8.678  14.911
13286W        W85711   8.666  37.462  13.858
13287W        W85712  18.136  29.928  12.079
13288W        W85713  13.786  39.028   4.292
13289W        W85714  13.700  30.125   0.891
13290W        W85715   4.825   3.800   1.759
13291W        W85716  38.918  10.774   2.340
13292W        W85717  36.363   9.330   9.949
13293W        W85718  20.571  10.363   2.838
13294W        W85719   9.683   8.379  13.961
13295W        W85720  32.592  31.953  10.632
13296W        W85721  19.625   4.415   3.673
13297W        W85722  25.643  20.555  13.032
13298W        W85723  41.387  27.550  13.832
13299W        W85724   1.869  12.133   3.829
13300W        W85725  33.102  23.684   2.417
13301W        W85726  21.640  35.499   0.882
13302W        W85727   5.883  42.994  11.525
13303W        W85728   7.776  13.713   1.341
13304W        W85729   2.837  11.216   0.824
13305W        W85730  15.138  10.877   4.153
13306W        W85731  40.382  10.216  12.451
13307W        W85732  15.670  25.519   5.221
13308W        W85733  39.852   7.813  12.061
13309W        W85734  44.853   0.973  13.993
13310W        W85735  41.475  44.457  11.103
13311W        W85736  37.046   0.330  14.026
13312W        W85737  22.700  13.349   5.307
13313W        W85738  18.092  20.754   3.648
13314W        W85739  29.574  22.025  13.852
13315W        W85740  12.714   8.764  11.427
13316W        W85741   1.317  30.648   3.269
13317W        W85742  16.158  15.309  10.942
13318W        W85743  28.494  40.964  10.054
13319W        W85744  30.979  28.672  13.539
13320W        W85745  24.143  21.117  10.559
13321W        W85746  16.582  18.247   2.297
13322W        W85747  25.140  43.992   4.142
13323W        W85748   9.745  29.123   0.958
13324W        W85749  27.676  22.587   4.832
13325W        W85750  33.099  31.111   1.877
13326W        W85751  12.780  27.562  11.435
13327W        W85752  19.252  26.522   2.818
13328W        W85753  37.511  26.463   1.798
13329W        W85754  39.826  42.903  14.416
13330W        W85755  39.351  29.075   3.837
13331W        W85756  42.500   5.874  14.896
13332W        W85757  32.491  13.700   2.787
13333W        W85758  35.393   8.318  14.849
13334W        W85759  32.030  43.835   0.771
13335W        W85760   6.696  14.304  11.128
13336W        W85761  27.045  15.611   4.139
13337W        W85762  10.782  20.220  14.354
13338W        W85763  31.408  17.200   3.753
13339W        W85764   3.403  44.804  12.061
13340W        W85765  26.125  35.526  14.403
13341W        W85766   0.456  36.376   4.249
13342W        W85767  23.077   0.322   3.320
13343W        W85768  42.342  36.878  12.847
13344W        W85769  15.176  43.861   1.360
13345W        W85770  41.372  20.224   2.344
13346W        W85771   4.225   6.751   2.730
13347W        W85772  16.222   5.848   0.403
13348W        W85773   2.836   6.744   3.647
13349W        W85774  21.149   9.307   1.440
13350W        W85775  18.233  16.216  13.880
13351W        W85776  35.504  13.832   3.688
13352W        W85777  32.941  13.344  14.399
13353W        W85778   9.751  16.773   0.471
13354W        W85779  21.248   5.873   0.387
13355W        W85780  34.408  33.574  14.481
13356W        W85781  28.650  19.729   0.872
13357W        W85782  26.668  27.033   4.191
13358W        W85783  13.263  15.101  11.596
13359W        W85784  20.769  18.183   3.362
13360W        W85785  12.198   1.341   1.243
13361W        W85786  27.149  17.283  10.489
13362W        W85787  41.020  27.993  13.831
13363W        W85788  10.676  22.712   3.312
13364W        W85789  19.539  19.696   4.701
13365W        W85790  26.087   8.720  14.338
13366W        W85791  44.381   7.340   3.167
13367W        W85792  40.943  31.540   2.862
13368W        W85793  36.484  38.515   1.905
13369W        W85794  21.726  15.702   2.852
13370W        W85795   7.776  29.102   0.345
13371W        W85796  27.493   8.296   3.258
13372W        W85797  23.689  41.027   2.279
13373W        W85798  22.548  43.487  12.070
13374W        W85799  23.181  41.798  12.521
13375W        W85800  20.548  37.454  12.843
13376W        W85801  22.621  26.483  13.808
13377W        W85802  21.158   0.412  11.557
13378W        W85803   0.832  38.896  11.502
13379W        W85804  27.543  13.663  13.841
13380W        W85805  37.995   8.316   3.645
13381W        W85806   1.920  44.969  14.780
13382W        W85807  42.449   3.282  10.521
13383W        W85808  18.107   3.245  14.277
13384W        W85809   7.675  23.042   2.721
13385W        W85810  38.068  26.508  14.412
13386W        W85811   8.730  34.482   2.858
13387W        W85812  33.004   3.405   2.292
13388W        W85813  23.223   8.801   3.384
13389W        W85814  37.882  24.998   1.901
13390W        W85815  21.071  13.321   2.697
13391W        W85816  35.895   1.427  14.018
13392W        W85817  11.743  26.567   4.266
13393W        W85818  43.423  19.763   1.700
13394W        W85819  32.482  27.048   1.316
13395W        W85820  22.698  20.033  13.989
13396W        W85821  22.139  32.461   3.748
13397W        W85822   8.891   0.975   2.848
13398W        W85823  37.077   6.325  13.821
13399W        W85824  28.048  19.578  13.309
13400W        W85825   6.287  14.244  12.471
13401W        W85826  30.984  23.696   2.199
13402W        W85827  35.425  12.777  13.349
13403W        W85828  32.113   2.788  13.794
13404W        W85829  20.072   9.157   1.882
13405W        W85830   9.698  27.601  12.892
13406W        W85831  18.064  36.444  11.375
13407W        W85832  25.492  32.899  11.495
13408W        W85833  24.619  10.658   1.245
13409W        W85834   1.238   8.864   4.722
13410W        W85835  40.952  40.347   0.271
13411W        W85836  13.341   5.714  14.493
13412W        W85837  40.889  25.048  10.596
13413W        W85838  29.619  44.384  10.600
13414W        W85839   5.324  34.050  13.833
13415W        W85840  10.819  43.463   2.866
13416W        W85841   7.809  34.490  11.514
13417W        W85842  39.520   3.255  10.414
13418W        W85843  32.468   6.299   0.472
13419W        W85844   8.782  28.117  10.900
13420W        W85845  14.765  38.499   4.686
13421W        W85846   3.838  12.744   3.241
13422W        W85847  35.958  12.776   4.222
13423W        W85848  27.191   6.752  10.604
13424W        W85849  18.654   1.263   4.766
13425W        W85850  44.450  16.608  14.902
13426W        W85851  37.906  31.512  12.870
13427W        W85852  30.568  24.027  13.378
13428W        W85853  18.703   6.785  12.884
13429W        W85854  24.040   5.295  14.295
13430W        W85855  14.167  37.900  11.417
13431W        W85856   2.879  30.963   4.175
13432W        W85857  34.894  22.723   2.236
13433W        W85858  29.166  43.850  13.899
13434W        W85859  42.848  12.216  13.838
13435W        W85860  30.569  41.829  14.016
13436W        W85861  26.604  15.242  13.060
13437W        W85862  23.097  25.610  12.510
13438W        W85863  35.025  10.718   2.902
13439W        W85864  17.224  16.656   4.315
13440W        W85865  23.526  12.773  10.500
13441W        W85866  20.601  33.066   1.826
13442W        W85867  19.233  32.113  12.510
13443W        W85868  34.945   8.266  11.485
13444W        W85869   0.280   3.779   0.441
13445W        W85870  10.158  30.001   4.638
13446W        W85871  25.122  44.005   3.228
13447W        W85872   2.283  36.532   3.355
13448W        W85873  12.289  28.611  12.442
13449W        W85874   2.799  14.672  12.091
13450W        W85875   9.693  37.384  11.989
13451W        W85876  24.613  18.219  12.387
13452W        W85877  21.570  30.989   1.228
13453W        W85878   0.788  17.071  11.587
13454W        W85879  32.012   4.372  13.007
13455W        W85880  17.789  21.665  11.441
13456W        W85881  25.640  18.632   1.434
13457W        W85882  14.736  32.525   2.870
13458W        W85883  14.133  20.562   2.665
13459W        W85884   5.831  23.186   2.810
13460W        W85885  13.169   9.238  11.934
13461W        W85886   6.765  20.680   2.378
13462W        W85887  33.469  33.074   0.290
13463W        W85888  19.577  34.894   3.381
13464W        W85889  17.253  10.655   4.780
13465W        W85890  28.595  15.791  12.004
13466W        W85891  43.930  12.850  10.600
13467W        W85892  11.361   3.243   1.702
13468W        W85893  20.678  30.583   1.865
13469W        W85894   4.710  25.059  12.067
13470W        W85895  24.068  44.397   0.947
13471W        W85896   0.960   1.402  12.515
13472W        W85897  24.521  21.560   2.708
13473W        W85898  11.194   4.944  12.511
13474W        W85899  29.166  16.634  11.576
13475W        W85900  11.743  30.424   3.190
13476W        W85901  43.492  23.168   2.797
13477W        W85902  23.676  12.711  11.048
13478W        W85903  24.999  35.044   3.384
13479W        W85904  20.175  38.065   0.388
13480W        W85905  10.696   8.689   0.479
13481W        W85906  37.498  27.054   2.662
13482W        W85907  18.776   1.387   2.370
13483W        W85908  31.035  18.231  11.453
13484W        W85909  18.578   0.825   4.617
13485W        W85910  14.777   8.285  14.426
13486W        W85911   3.827  12.852  14.400
13487W        W85912  38.357  14.656  13.421
13488W        W85913  15.715  43.506  14.324
13489W        W85914  35.065  20.072   1.379
13490W        W85915  13.782  35.010   4.348
13491W        W85916  38.829   5.864   3.277
13492W        W85917  22.665  23.240  13.488
13493W        W85918  42.282  44.876   2.865
13494W        W85919  14.645   9.748   4.198
13495W        W85920  16.278  26.676  10.470
13496W        W85921   9.774  31.482  11.560
13497W        W85922   1.941  19.123   1.769
13498W        W85923   9.381   2.239   1.745
13499W        W85924   3.322   8.231  13.343
13500W        W85925   2.246  15.095   1.323
13501W        W85926  22.638  43.903  10.520
13502W        W85927  35.521  27.112   1.884
13503W        W85928  20.048   4.219   0.929
13504W        W85929   3.749  29.069  14.346
13505W        W85930  30.146   4.900  13.960
13506W        W85931  43.983  11.299   4.788
13507W        W85932  10.305  38.328   3.215
13508W        W85933  38.537   9.883   0.770
13509W        W85934  13.336  35.479   2.743
13510W        W85935   6.728   9.688  11.454
13511W        W85936  36.030   0.849   1.303
13512W        W85937  27.195  37.986   3.756
13513W        W85938   7.854  36.973  13.997
13514W        W85939   6.300  16.183  14.378
13515W        W85940   3.328  18.595   3.641
13516W        W85941  14.225   8.321  14.463
13517W        W85942  23.530  30.033  11.076
13518W        W85943   3.716  26.521  10.596
13519W        W85944  31.124  25.544   0.947
13520W        W85945  42.512  44.786   0.321
13521W        W85946  21.212  35.900  10.444
13522W        W85947  28.177  27.560  12.984
13523W        W85948  39.344  16.759   0.879
13524W        W85949  18.788  24.579   3.153
13525W        W85950  41.913  15.130  14.322
13526W        W85951  44.928  36.366   4.674
13527W        W85952  36.093  22.664   0.435
13528W        W85953  13.342  32.556   1.916
13529W        W85954  12.321  25.993   4.812
13530W        W85955  21.678   7.371  11.911
13531W        W85956  20.538  36.998  10.975
13532W        W85957  33.582   8.362  11.869
13533W        W85958  15.177  34.394   9.546
13534W        W85959  17.620  33.924   5.697
13535W        W85960  22.746  25.098   1.700
13536W        W85961   7.322  17.666   1.280
13537W        W85962  33.875  16.608   1.717
13538W        W85963  33.899  41.300  11.406
13539W        W85964   1.328  38.516  10.521
13540W        W85965  43.930  31.960  12.056
13541W        W85966   6.906  34.611   1.428
13542W        W85967  32.980  38.867  14.839
13543W        W85968  44.797   6.895   0.875
13544W        W85969  27.036  11.779   0.394
13545W        W85970   8.732  25.495  14.854
13546W        W85971  32.487   0.308  11.980
13547W        W85972  24.169  41.360   1.815
13548W        W85973   9.816  17.653  13.531
13549W        W85974  10.757  14.186  13.013
13550W        W85975  23.731   8.340  14.476
13551W        W85976  27.634  36.452   4.750
13552W        W85977  36.484   2.356   2.280
13553W        W85978   9.214   2.814  11.050
13554W        W85979  42.013  23.124   2.200
13555W        W85980  22.527  31.523   2.399
13556W        W85981  36.884  34.873  11.129
13557W        W85982  35.538  40.482   3.221
13558W        W85983  19.630  21.239   4.687
13559W        W85984  44.945   5.434  14.434
13560W        W85985  28.482   7.684   4.216
13561W        W85986  30.107  21.666  10.897
13562W        W85987   8.301  14.198  10.523
13563W        W85988  31.508  31.587   2.253
13564W        W85989  38.519  15.593   1.781
13565W        W85990  14.745  17.198  14.013
13566W        W85991   7.675   2.323   3.686
13567W        W85992  19.244  15.814   1.302
13568W        W85993   8.655  31.578  12.420
13569W        W85994   8.882   0.444  13.884
13570W        W85995   6.746  44.466  13.817
13571W        W85996  19.579  30.053  12.079
13572W        W85997  37.446   0.438   1.743
13573W        W85998  33.483  19.685   2.197
13574W        W85999  34.110  16.726  10.939
13575W        W86000  18.689   0.341  13.867
13576W        W86001   3.345   9.387  11.603
13577W        W86002  32.084  13.174  13.930
13578W        W86003  14.182  28.131  11.970
13579W        W86004  33.892  35.357  14.818
13580W        W86005  41.897  44.993   1.291
13581W        W86006  16.642  39.487   0.366
13582W        W86007  34.917   4.207  11.539
13583W        W86008  10.836   8.244  11.024
13584W        W86009  39.921  33.597   2.858
13585W        W86010  26.966  23.614  12.577
13586W        W86011  27.494  34.986  14.009
13587W        W86012  24.489  42.350  14.833
13588W        W86013  12.845  23.988  12.356
13589W        W86014  20.205  10.318   1.265
13590W        W86015  33.886   1.368  12.012
13591W        W86016  19.189  13.839   4.209
13592W        W86017  15.185   9.824   0.825
13593W        W86018  19.539  21.112   2.759
13594W        W86019  13.777  24.516   1.855
13595W        W86020  32.400  21.178   0.310
13596W        W86021  19.140  20.082  12.862
13597W        W86022   2.923   3.333  13.888
13598W        W86023  11.239  44.326   1.257
13599W        W86024  28.482  17.798   4.792
13600W        W86025  21.546  12.710  14.016
13601W        W86026  37.532  39.874   1.350
13602W        W86027  13.776  26.115  11.942
13603W        W86028  38.435  16.132  13.868
13604W        W86029  43.868   8.787  12.918
13605W        W86030  16.761   5.894   4.168
13606W        W86031   7.261   3.713   0.798
13607W        W86032  34.412  29.531  14.479
13608W        W86033  10.657  37.036   0.778
13609W        W86034  44.870  42.351   0.897
13610W        W86035  43.483  14.312   1.731
13611W        W86036  40.501  19.747   4.321
13612W        W86037  43.432  15.147   2.186
13613W        W86038  21.082  25.054  12.858
13614W        W86039  11.253  31.602  14.902
13615W        W86040   3.728  12.176   0.288
13616W        W86041   1.307  14.806   2.844
13617W        W86042  29.583  30.928  12.420
13618W        W86043  19.267  18.610  14.883
13619W        W86044  31.035   4.905  13.415
13620W        W86045  29.474  25.637  14.972
13621W        W86046  10.170  19.603  13.839
13622W        W86047  19.634   0.321  14.788
13623W        W86048  18.580  15.794  14.504
13624W        W86049  18.598  24.546  14.401
13625W        W86050   9.720  36.440  13.838
13626W        W86051  19.744  38.889  13.049
13627W        W86052   0.321  44.444  10.406
13628W        W86053  25.144  29.164   0.802
13629W        W86054  13.689  12.178   4.275
13630W        W86055   0.816  33.505  14.416
13631W        W86056   8.799  37.528   0.872
13632W        W86057  30.110  32.497  10.437
13633W        W86058  39.889  29.492  14.995
13634W        W86059  20.191  24.175  11.410
13635W        W86060  19.042   0.255  11.920
13636W        W86061  11.664   7.362  11.907
13637W        W86062  27.010  30.447   9.676
13638W        W86063  16.791  42.873  14.882
13639W        W86064  28.980  30.936  11.893
13640W        W86065   0.989  30.503  10.068
13641W        W86066  24.083  41.939  11.856
13642W        W86067  28.572   7.757  14.015
13643W        W86068  18.071  37.580   0.941
13644W        W86069  37.998  32.966   4.599
13645W        W86070  31.550   5.719   1.862
13646W        W86071   1.796  30.051   1.344
13647W        W86072  22.621  26.975   3.708
13648W        W86073  13.329  25.637  12.838
13649W        W86074  19.776  36.483  10.598
13650W        W86075  28.442  38.886  10.415
13651W        W86076   1.408  35.577   4.780
13652W        W86077  12.262  23.071   4.737
13653W        W86078   8.694  18.746   2.694
13654W        W86079  38.076   5.339   3.692
13655W        W86080  36.460   7.871  13.407
13656W        W86081  36.029  30.042  14.818
13657W        W86082  27.110  24.224   2.780
13658W        W86083  27.102  37.882  10.468
13659W        W86084  12.175  35.017   2.409
13660W        W86085  11.765  25.663   1.866
13661W        W86086  43.516  14.175   4.207
13662W        W86087  29.582   6.330  14.284
13663W        W86088   8.347   8.689   3.637
13664W        W86089  29.072  42.368   2.192
13665W        W86090  33.501  34.918  12.030
13666W        W86091  30.552  16.148  10.423
13667W        W86092   8.686  18.610   4.130
13668W        W86093  19.707   9.827  11.471
13669W        W86094  27.553  17.684  11.024
13670W        W86095   7.288  34.381   2.394
13671W        W86096  10.636  38.036   2.790
13672W        W86097  25.628  18.729  14.826
13673W        W86098  28.472  16.714   3.653
13674W        W86099  29.078  27.661  14.502
13675W        W86100  36.425   5.382   4.166
13676W        W86101  42.320  43.908   1.215
13677W        W86102  23.134  24.667  14.881
13678W        W86103  33.593   5.909   2.797
13679W        W86104   7.298  43.846  11.959
13680W        W86105  23.137  11.128   1.363
13681W        W86106  24.585  40.389  14.422
13682W        W86107  18.663  44.318  10.554
13683W        W86108  37.914  16.263  12.499
13684W        W86109   6.197  24.688  14.467
13685W        W86110  19.199   6.369  11.555
13686W        W86111  37.858   6.401   3.818
13687W        W86112  30.585  33.113   4.788
13688W        W86113  26.171  18.084   1.451
13689W        W86114  36.554  17.711  14.823
13690W        W86115  24.050   4.726  12.552
13691W        W86116  30.076  26.133  14.988
13692W        W86117  43.366  37.353   0.277
13693W        W86118  17.222  10.735  11.586
13694W        W86119  10.867  16.767  12.898
13695W        W86120  15.324  18.146   2.804
13696W        W86121   1.275   9.153   4.799
13697W        W86122  17.227   7.729  12.883
13698W        W86123  40.503  10.773  13.413
13699W        W86124  20.043   9.268   2.206
13700W        W86125   7.823  18.180   4.723
13701W        W86126   3.280  21.584  10.963
13702W        W86127  23.080  19.768   3.265
13703W        W86128  37.919  38.905   3.792
13704W        W86129   9.324  10.636   3.783
13705W        W86130   1.400   3.863  12.992
13706W        W86131  39.327   1.961  14.861
13707W        W86132  41.529  11.193   0.817
13708W        W86133  37.035  41.427  12.020
13709W        W86134  42.503  13.196  11.489
13710W        W86135  40.978  10.318   0.837
13711W        W86136  15.247  27.152  13.396
13712W        W86137  32.570  34.576   0.803
13713W        W86138   5.417  21.055  10.474
13714W        W86139  32.924   9.186  11.936
13715W        W86140  35.433  23.580  14.787
13716W        W86141   3.319   3.953   1.918
13717W        W86142  11.139  22.746  13.313
13718W        W86143  12.812  42.826   5.101
13719W        W86144  29.919  27.478   0.372
13720W        W86145  14.281  20.125  12.982
13721W        W86146   9.261  24.193  11.919
13722W        W86147   7.730  22.097  10.127
13723W        W86148   3.813  15.130   1.894
13724W        W86149  13.604  15.817  13.048
13725W        W86150  13.601  43.470  13.845
13726W        W86151  26.997  35.465   0.886
13727W        W86152  42.872  40.524   0.413
13728W        W86153  38.824   9.671  11.084
13729W        W86154   5.809  12.652  10.998
13730W        W86155  40.502  38.566   4.778
13731W        W86156  21.021   8.163  10.490
13732W        W86157  10.321  16.735  10.989
13733W        W86158  20.038  40.394   9.963
13734W        W86159   7.743   9.785   0.909
13735W        W86160  27.971  26.652  12.960
13736W        W86161  26.593   5.325   1.840
13737W        W86162  17.652   7.216  11.863
13738W        W86163  32.584  36.984   0.259
13739W        W86164  19.598  41.939  11.005
13740W        W86165  14.113  19.613  14.996
13741W        W86166  42.288  38.028   0.405
13742W        W86167  21.751  23.582   3.720
13743W        W86168  28.651  17.771   1.798
13744W        W86169  33.069  27.182  14.334
13745W        W86170   7.807  13.251   4.734
13746W        W86171  28.534  10.702   1.270
13747W        W86172  13.758  38.559  12.034
13748W        W86173   8.775   5.273   0.894
13749W        W86174  32.983   5.784   3.333
13750W        W86175   1.884  34.897   3.774
13751W        W86176   2.763  28.938  13.391
13752W        W86177  38.901  24.515  11.119
13753W        W86178   1.462  36.940   0.962
13754W        W86179  44.781   4.390  11.483
13755W        W86180  40.381  40.912   4.731
13756W        W86181   1.867  13.759   3.840
13757W        W86182  15.274  20.674  11.001
13758W        W86183  31.974  19.548   3.804
13759W        W86184  41.463  23.729  11.085
13760W        W86185  35.384  37.462   0.406
13761W        W86186  20.686   4.862  14.468
13762W        W86187  40.336  15.598   4.777
13763W        W86188   4.390  31.121  14.937
13764W        W86189  38.570  30.620   4.780
13765W        W86190   1.280  30.463  14.973
13766W        W86191  27.066  36.910  13.955
13767W        W86192  39.976   6.779   2.738
13768W        W86193   4.236  31.514   1.701
13769W        W86194   8.766  21.180   1.810
13770W        W86195   4.246   0.807  10.913
13771W        W86196   4.207  29.451   1.380
13772W        W86197  38.557  19.625  13.002
13773W        W86198  42.362   4.754   1.433
13774W        W86199  28.988  26.029   4.121
13775W        W86200   1.284  17.713   2.233
13776W        W86201  30.449   6.729   4.821
13777W        W86202  13.296  37.066  13.444
13778W        W86203  11.346  35.074   2.828
13779W        W86204   0.271  38.067   4.116
13780W        W86205  31.015  44.318  12.028
13781W        W86206   5.909  28.437  14.342
13782W        W86207  41.528   6.754   3.865
13783W        W86208  13.203  14.660  14.431
13784W        W86209  24.163  27.103  10.493
13785W        W86210  25.087  37.843  14.485
13786W        W86211  28.521  23.680  11.607
13787W        W86212  17.162  32.603   9.547
13788W        W86213  34.510  12.720  13.997
13789W        W86214  30.907  34.375   0.401
13790W        W86215  24.576  24.115  11.391
13791W        W86216  32.096  14.595  13.795
13792W        W86217  17.093   7.811  14.303
13793W        W86218  37.936   1.293   4.760
13794W        W86219  31.433  29.006  12.568
13795W        W86220  34.079  39.908   3.157
13796W        W86221   2.898  27.116  14.359
13797W        W86222  34.947  11.140  13.929
13798W        W86223   1.377  34.924   1.753
13799W        W86224  31.944   0.294   4.704
13800W        W86225  18.772  40.914   2.823
13801W        W86226  11.627   3.864  13.319
13802W        W86227  42.802  36.441  11.074
13803W        W86228  28.610  35.968   2.365
13804W        W86229  31.099   1.795  11.904
13805W        W86230  10.751  44.278   1.423
13806W        W86231  17.068  22.524  11.537
13807W        W86232  38.076  17.273  14.909
13808W        W86233   9.363  37.424   4.259
13809W        W86234  17.736  29.654   0.797
13810W        W86235   0.304   7.815  13.318
13811W        W86236  31.132  28.464  13.805
13812W        W86237  38.517  41.934   3.272
13813W        W86238  20.666  10.767   2.203
13814W        W86239  22.579  12.739   1.696
13815W        W86240  43.994  22.091   2.695
13816W        W86241  37.513  29.523   2.362
13817W        W86242  28.060  33.911  14.333
13818W        W86243  34.060  24.486  13.443
13819W        W86244  18.646  13.617   0.419
13820W        W86245   9.683   9.845  10.988
13821W        W86246  15.141  33.120  11.597
13822W        W86247  19.046  15.659   4.347
13823W        W86248   5.736  33.567   0.288
13824W        W86249  30.495  17.656   3.257
13825W        W86250  39.524  25.600   2.377
13826W        W86251  13.779  13.735   0.826
13827W        W86252  42.949   7.693  13.832
13828W        W86253  35.502  26.617  12.049
13829W        W86254  19.275  40.521  10.596
13830W        W86255  37.026   4.767  12.021
13831W        W86256  44.408  13.826   0.308
13832W        W86257  22.052   8.854   9.953
13833W        W86258  28.141  44.927  14.511
13834W        W86259  17.564  11.154  11.530
13835W        W86260   6.246  40.467  10.569
13836W        W86261   0.970  18.670   0.292
13837W        W86262  38.461   8.254  13.795
13838W        W86263  25.537  31.480   1.749
13839W        W86264   4.892  24.060  12.833
13840W        W86265  27.485  22.191  13.333
13841W        W86266  31.010  24.616   2.281
13842W        W86267  29.542  26.162  14.406
13843W        W86268  36.028  20.533  13.540
13844W        W86269  31.486  10.792  12.422
13845W        W86270   6.220  32.997   4.302
13846W        W86271  13.841  23.691   3.811
13847W        W86272  35.377   9.848   1.395
13848W        W86273  28.932   7.809  10.413
13849W        W86274  29.592  18.278   4.260
13850W        W86275   2.314   7.409  14.805
13851W        W86276  44.762  21.624  14.347
13852W        W86277  40.497  31.029  11.425
13853W        W86278  29.155  33.047  14.339
13854W        W86279  36.362  41.372  12.823
13855W        W86280   9.820   5.854  12.912
13856W        W86281  42.450   5.794   1.225
13857W        W86282  32.126  39.968   3.816
13858W        W86283  20.661  10.277   4.338
13859W        W86284  42.883   7.370   0.281
13860W        W86285  44.485  37.434  13.868
13861W        W86286   3.858   2.754   2.709
13862W        W86287  25.689  23.097  12.069
13863W        W86288  23.007  25.193   4.198
13864W        W86289  39.443  29.454   4.812
13865W        W86290  18.247   6.187   4.329
13866W        W86291   3.892  35.101  12.012
13867W        W86292   3.283  30.984  14.800
13868W        W86293  12.851   7.358  11.503
13869W        W86294  10.774  19.164  12.970
13870W        W86295  11.688   6.410  13.808
13871W        W86296  16.571  25.620   2.788
13872W        W86297  29.163   6.381  12.858
13873W        W86298  28.532   9.270   1.411
13874W        W86299  29.021  28.631  12.037
13875W        W86300  32.092  27.533   9.953
13876W        W86301  19.633  23.206  12.470
13877W        W86302  25.536  15.614   1.285
13878W        W86303  26.191  10.797  12.492
13879W        W86304  12.772   7.748  10.451
13880W        W86305   2.793  23.020  10.555
13881W        W86306  27.067  20.686   0.932
13882W        W86307   5.194   4.820  12.565
13883W        W86308  10.211  37.427  12.890
13884W        W86309  16.261   2.241   4.691
13885W        W86310  23.151  39.816  14.764
13886W        W86311   4.800   8.861  13.808
13887W        W86312  29.485   4.302  13.431
13888W        W86313   3.926   5.933  11.401
13889W        W86314  11.222  11.698  13.418
13890W        W86315  26.191  25.699  11.461
13891W        W86316  44.412  29.168   2.293
13892W        W86317  39.442  28.141   2.356
13893W        W86318  11.753   1.746   4.123
13894W        W86319  32.452  34.108  14.496
13895W        W86320  12.301   3.265  12.028
13896W        W86321   8.841  26.030   1.228
13897W        W86322  36.483  38.004   3.793
13898W        W86323  17.797  40.413  14.361
13899W        W86324   7.696   1.754   4.752
13900W        W86325   5.392  27.484  12.866
13901W        W86326  11.810  35.473  12.840
13902W        W86327  41.994  36.951  10.584
13903W        W86328  41.008  30.525   2.690
13904W        W86329  21.257  44.291  13.819
13905W        W86330   0.749  42.395   2.315
13906W        W86331  11.337  13.644  14.308
13907W        W86332  43.273   8.345  12.932
13908W        W86333   8.207  39.372   3.212
13909W        W86334  29.621   8.888  12.918
13910W        W86335  19.644  32.927   3.856
13911W        W86336   3.408  27.179  11.575
13912W        W86337  20.214  20.667  14.516
13913W        W86338  16.231  19.623  10.481
13914W        W86339  31.087  32.030   1.418
13915W        W86340  40.391  37.905  10.528
13916W        W86341  34.867  25.117  11.917
13917W        W86342  42.815   4.211   1.416
13918W        W86343  38.353  36.400  14.434
13919W        W86344  22.132  30.907   4.274
13920W        W86345  39.555  22.701   1.868
13921W        W86346  32.531  42.788  11.970
13922W        W86347   1.959  13.604  12.472
13923W        W86348   8.307  18.159  12.566
13924W        W86349   2.285  13.185  14.956
13925W        W86350  16.657   3.821   3.265
13926W        W86351  22.672  14.755  11.901
13927W        W86352  39.474  21.669  10.596
13928W        W86353  37.043  34.517  11.410
13929W        W86354  27.074  43.338   4.604
13930W        W86355  16.246   5.342   1.362
13931W        W86356  31.090  31.978  11.022
13932W        W86357  28.101   1.924   1.875
13933W        W86358  27.984  32.013  13.880
13934W        W86359  40.812  18.645   2.682
13935W        W86360   7.773  40.038  14.962
13936W        W86361  20.260  34.000   3.629
13937W        W86362  11.622  10.152  11.965
13938W        W86363  24.649  40.434   4.685
13939W        W86364  23.181  18.081   0.762
13940W        W86365   6.919  25.593  11.485
13941W        W86366  19.229  19.058   4.122
13942W        W86367   5.861   3.231  12.457
13943W        W86368  36.066  41.907  13.802
13944W        W86369  27.154  11.703  10.632
13945W        W86370   8.246   0.942   2.356
13946W        W86371  42.455  41.331   1.300
13947W        W86372  40.971  32.525  14.014
13948W        W86373   7.864  28.958   4.297
13949W        W86374  38.010  36.936  14.861
13950W        W86375  40.308   4.433   1.750
13951W        W86376  28.495  36.459   0.772
13952W        W86377   4.818  39.469   0.403
13953W        W86378   8.686  19.100   3.273
13954W        W86379   4.369  10.287   1.297
13955W        W86380  13.696  10.156  12.879
13956W        W86381   6.738  29.994  14.468
13957W        W86382  25.150   1.429  14.386
13958W        W86383  11.715  31.429  11.588
13959W        W86384  11.650  33.946   2.366
13960W        W86385   1.369  36.089  11.534
13961W        W86386  22.734  27.570   4.241
13962W        W86387  16.158  35.933   4.173
13963W        W86388  27.155   1.441  10.557
13964W        W86389  24.127  11.776   2.311
13965W        W86390  41.011  18.274   3.209
13966W        W86391  25.147  29.561   1.232
13967W        W86392  21.247  15.269  11.057
13968W        W86393  33.985  15.132   4.280
13969W        W86394   5.387  13.698  14.877
13970W        W86395  37.456   7.702  13.895
13971W        W86396  21.679  12.302   0.454
13972W        W86397  21.150  19.084   4.809
13973W        W86398  33.557   9.669  14.763
13974W        W86399  35.495   9.226  12.006
13975W        W86400  25.183  38.927  14.369
13976W        W86401  12.122  21.047   2.384
13977W        W86402  19.067  33.064  12.854
13978W        W86403  30.475   2.394   2.349
13979W        W86404  28.985  31.032   0.472
13980W        W86405  42.808  15.789   4.180
13981W        W86406  25.710  35.512  13.431
13982W        W86407  40.990  15.675   4.254
13983W        W86408   5.815  22.072  11.981
13984W        W86409  42.032  42.811  13.865
13985W        W86410   0.907  40.538   3.847
13986W        W86411  23.736  22.546  11.389
13987W        W86412  41.969   2.260   1.216
13988W        W86413  44.337  14.762   1.392
13989W        W86414  21.638  10.316   3.157
13990W        W86415   1.953   2.255  13.950
13991W        W86416  24.595  19.212   4.216
13992W        W86417  12.148  25.116  10.060
13993W        W86418  43.413   4.832  14.334
13994W        W86419  20.619  43.282  14.486
13995W        W86420  22.643  40.441  14.305
13996W        W86421   2.274  31.603   2.765
13997W        W86422   1.471  33.491   4.692
13998W        W86423  20.747  31.521   1.354
13999W        W86424  33.995  40.515  12.039
14000W        W86425   2.341  31.593   1.918
14001W        W86426  13.167  17.561   2.822
14002W        W86427  41.805  21.619   9.468
14003W        W86428  15.707  20.100  13.458
14004W        W86429  18.609  32.502   2.347
14005W        W86430  23.084   3.913  13.869
14006W        W86431  26.602  35.449  10.964
14007W        W86432  21.150  35.434  12.519
14008W        W86433  31.551   3.381   4.825
14009W        W86434  20.098  30.547   3.327
14010W        W86435  23.709  19.663   0.882
14011W        W86436  29.151   6.184  14.287
14012W        W86437   0.802  12.831   3.305
14013W        W86438   6.822   1.791   2.266
14014W        W86439  33.879  33.571  11.945
14015W        W86440  31.413  21.115  12.352
14016W        W86441  26.057   3.230  13.337
14017W        W86442  20.586  39.475  11.443
14018W        W86443  42.920  34.979   4.236
14019W        W86444  41.901   3.848  14.416
14020W        W86445  36.552  22.706   0.819
14021W        W86446  36.569  41.518   3.371
14022W        W86447  20.657  14.603   2.884
14023W        W86448  20.049   5.885   3.218
14024W        W86449  18.665  20.102   0.919
14025W        W86450  11.299   5.363   1.263
14026W        W86451  27.047  42.927  11.422
14027W        W86452  37.404  20.153   4.150
14028W        W86453   3.458  17.689   1.784
14029W        W86454  39.487  34.088   4.693
14030W        W86455  17.762  14.303  12.995
14031W        W86456   7.865   1.841  11.458
14032W        W86457  26.593  37.441  12.487
14033W        W86458  24.519  36.088  11.439
14034W        W86459  42.019  43.928  13.864
14035W        W86460  11.223   7.822   0.926
14036W        W86461  38.968  32.921  12.063
14037W        W86462  40.534  18.777   2.807
14038W        W86463  43.340  27.451  14.812
14039W        W86464   7.401  29.655   0.444
14040W        W86465  30.062  13.737  14.287
14041W        W86466  17.153  43.306  13.954
14042W        W86467  11.844   9.192   0.912
14043W        W86468  33.009  19.653  12.068
14044W        W86469   5.401  14.673   1.425
14045W        W86470   6.203   8.815  14.779
14046W        W86471  24.718   7.891   2.215
14047W        W86472   1.474  36.479  14.311
14048W        W86473  23.067  31.977   4.344
14049W        W86474  19.181  40.994   1.799
14050W        W86475   5.314  43.365  14.773
14051W        W86476  32.065  35.049   4.609
14052W        W86477  28.106  37.841   0.799
14053W        W86478  26.987  17.135  14.348
14054W        W86479   3.741  32.043  10.001
14055W        W86480   0.897  42.942  12.903
14056W        W86481  23.991   8.690  11.037
14057W        W86482  18.177  25.176   4.204
14058W        W86483  10.765  37.445  13.375
14059W        W86484   3.252   8.256   4.835
14060W        W86485  28.031  43.971  12.852
14061W        W86486  35.099  36.982   3.786
14062W        W86487   3.893  26.060  12.463
14063W        W86488  29.037   3.916  14.427
14064W        W86489  15.612  31.431  13.541
14065W        W86490  44.334  31.564   9.962
14066W        W86491   1.929  23.228   2.895
14067W        W86492  21.566  16.707  10.601
14068W        W86493   2.237   1.836   0.316
14069W        W86494  28.035  35.541  13.538
14070W        W86495  14.589  24.088   0.955
14071W        W86496  31.119   7.393   0.378
14072W        W86497  36.905   8.859  11.483
14073W        W86498  35.884  12.822  13.026
14074W        W86499   8.791  23.031  13.003
14075W        W86500  22.100   8.840  10.928
14076W        W86501  31.646   9.209   4.228
14077W        W86502  15.621   6.216  14.875
14078W        W86503  29.013  29.081  14.332
14079W        W86504  25.215   0.869   2.377
14080W        W86505  29.005   7.388  11.960
14081W        W86506   4.389  20.743   4.827
14082W        W86507  25.570  32.508  13.808
14083W        W86508   6.363  21.078  10.092
14084W        W86509  33.509  16.122   3.678
14085W        W86510  29.642  20.148   1.873
14086W        W86511  40.344  38.874  12.854
14087W        W86512  37.454  32.508   2.733
14088W        W86513  39.317   7.367   2.740
14089W        W86514   6.745  12.821   0.854
14090W        W86515  39.493   8.392   4.305
14091W        W86516  19.083  13.279   3.172
14092W        W86517  31.414   7.776   1.885
14093W        W86518  14.316  18.686  12.456
14094W        W86519  39.423  11.739  10.980
14095W        W86520  16.294  20.746   2.811
14096W        W86521  24.649   8.806  14.983
14097W        W86522  23.066  42.381  14.285
14098W        W86523  40.486  28.103   5.200
14099W        W86524  22.656  23.077  11.024
14100W        W86525  19.247  36.505   3.185
14101W        W86526  18.219  15.586   2.896
14102W        W86527  38.478  20.245   1.774
14103W        W86528  32.899  14.264  12.503
14104W        W86529  25.996   4.289  12.375
14105W        W86530  38.862   6.270   2.352
14106W        W86531  19.722  10.632   2.278
14107W        W86532  12.756   6.887   4.169
14108W        W86533  31.630  13.260   4.655
14109W        W86534  38.393  36.411  11.078
14110W        W86535  10.862  41.039  10.510
14111W        W86536  11.353  26.164   1.781
14112W        W86537  11.164  41.420   2.367
14113W        W86538  34.883   8.721  12.566
14114W        W86539  27.457  15.669  12.436
14115W        W86540  13.332   9.174   1.913
14116W        W86541   4.904  43.278  13.547
14117W        W86542  43.980   2.899   1.412
14118W        W86543  22.116   8.664   4.124
14119W        W86544   6.803  15.093  10.435
14120W        W86545  24.026  18.771  10.540
14121W        W86546  40.363  41.503  10.540
14122W        W86547  35.987  12.712  11.968
14123W        W86548   0.929   6.834  14.843
14124W        W86549  19.599  43.362   2.238
14125W        W86550  30.026  24.671   4.169
14126W        W86551  25.540   0.749  13.399
14127W        W86552  26.202  12.328  11.953
14128W        W86553  41.360  41.969   4.243
14129W        W86554  10.876  37.381   4.665
14130W        W86555  37.430  37.985   3.332
14131W        W86556  22.088   4.729   4.638
14132W        W86557   8.863   0.327   2.228
14133W        W86558  25.558  10.260  11.112
14134W        W86559   4.357  27.161   1.428
14135W        W86560  43.412  25.112  10.530
14136W        W86561  41.292  20.244  10.133
14137W        W86562  16.711  20.140  12.521
14138W        W86563   0.970  36.031  10.414
14139W        W86564  14.750  10.729   0.816
14140W        W86565   2.921   2.431   3.227
14141W        W86566  41.033  21.145   2.891
14142W        W86567  41.404  34.939  13.901
14143W        W86568  19.199  17.240   0.347
14144W        W86569  19.202  21.221   4.113
14145W        W86570   9.713  15.586   0.821
14146W        W86571   3.752  31.442   0.330
14147W        W86572  26.589   8.696   3.367
14148W        W86573   6.752  26.987   3.819
14149W        W86574  27.173  38.344   2.839
14150W        W86575  35.901  32.959   4.682
14151W        W86576  30.034  22.639   2.351
14152W        W86577   1.783   5.747   4.708
14153W        W86578   3.710  18.097   2.220
14154W        W86579   1.430  12.713  14.766
14155W        W86580  33.485  38.958   1.416
14156W        W86581  26.957   7.383   4.684
14157W        W86582   2.379   1.749   1.367
14158W        W86583  18.666   2.928  10.983
14159W        W86584   8.697  11.649   0.422
14160W        W86585  27.485   2.296  14.483
14161W        W86586  14.736  28.468   1.370
14162W        W86587  12.225  15.113  13.043
14163W        W86588  26.003  30.490  13.503
14164W        W86589  27.646  41.297   1.860
14165W        W86590  16.646   7.249  11.527
14166W        W86591  20.522  40.525  11.419
14167W        W86592  16.242  15.636  12.971
14168W        W86593  20.613  40.437   1.416
14169W        W86594  18.286  43.432   1.311
14170W        W86595   7.766   3.429  11.543
14171W        W86596  18.229  18.201  13.057
14172W        W86597   9.887  28.088  14.921
14173W        W86598  23.567  43.958  12.976
14174W        W86599  29.497  35.868   4.791
14175W        W86600  13.124   6.780  12.887
14176W        W86601  35.479  34.590  13.937
14177W        W86602   2.342  25.129   5.261
14178W        W86603  19.779  38.510  13.503
14179W        W86604   5.394  10.749  14.435
14180W        W86605  14.249  15.597   9.970
14181W        W86606   7.690  12.177   1.306
14182W        W86607   5.349  19.076   0.817
14183W        W86608  22.116   0.398   3.838
14184W        W86609  20.055   3.439   3.742
14185W        W86610   1.771  37.031   3.192
14186W        W86611   3.447  42.370  11.967
14187W        W86612   2.860  11.824  14.360
14188W        W86613  17.109  35.377  12.535
14189W        W86614  38.031   8.260  13.546
14190W        W86615  17.157  21.585   1.287
14191W        W86616  41.396  16.308  13.914
14192W        W86617   0.432  29.563   0.395
14193W        W86618  25.641   8.690   0.906
14194W        W86619  18.223   6.797  14.455
14195W        W86620   6.919  27.503  14.409
14196W        W86621  11.194  22.210  14.437
14197W        W86622  41.946  19.747   3.699
14198W        W86623  37.869  44.469  12.468
14199W        W86624  34.874  42.934   1.785
14200W        W86625  39.517  38.048   0.932
14201W        W86626  30.035   4.833  12.489
14202W        W86627   3.898  34.917   3.155
14203W        W86628  40.852  37.018  11.611
14204W        W86629  16.115  12.821   1.258
14205W        W86630  43.348  15.811   2.823
14206W        W86631  14.259  10.818  14.474
14207W        W86632  42.024  40.986   3.740
14208W        W86633  19.751   2.357  14.387
14209W        W86634  26.481  37.527   0.811
14210W        W86635  28.171  39.334   3.289
14211W        W86636  39.058  34.986  12.420
14212W        W86637  26.024  42.452  14.513
14213W        W86638   0.920  13.271  13.830
14214W        W86639  33.036   2.756   1.259
14215W        W86640  37.988  13.222   0.342
14216W        W86641  17.618  18.070  12.831
14217W        W86642  23.568  16.168  13.010
14218W        W86643  36.848  20.707   2.381
14219W        W86644  20.577  22.058   2.891
14220W        W86645   7.704  19.101  14.496
14221W        W86646   4.252   1.289   3.277
14222W        W86647  42.894   7.814   2.394
14223W        W86648  43.462  25.685   0.480
14224W        W86649  32.408   6.205   1.699
14225W        W86650  16.278  27.053  10.570
14226W        W86651   2.381  33.028  12.429
14227W        W86652  41.832  10.321   4.709
14228W        W86653   2.263  18.165  12.086
14229W        W86654  35.010   4.936   5.317
14230W        W86655  39.995  13.617   1.319
14231W        W86656  40.537   9.858   4.696
14232W        W86657  38.849   9.840   3.854
14233W        W86658  22.231  15.155   2.212
14234W        W86659  17.307  40.391   1.259
14235W        W86660  12.351  23.019   3.387
14236W        W86661  33.097  20.137   1.451
14237W        W86662  24.069  18.098   4.698
14238W        W86663  33.118   5.239  11.048
14239W        W86664   0.411  16.170   2.239
14240W        W86665  14.699  19.770  13.994
14241W        W86666  39.344   3.904   0.450
14242W        W86667  11.797   0.987  12.550
14243W        W86668  38.349   1.280   2.712
14244W        W86669   6.904  15.268  11.065
14245W        W86670  34.942  42.378  11.109
14246W        W86671  12.214   0.908   0.738
14247W        W86672  30.481  36.354  13.494
14248W        W86673  27.972  40.034  14.429
14249W        W86674  20.084  40.532   2.191
14250W        W86675  32.392  31.464   1.759
14251W        W86676   1.932  40.356  10.539
14252W        W86677  35.484  36.462   3.260
14253W        W86678  29.142  22.584  13.510
14254W        W86679  13.713   5.373   3.717
14255W        W86680  42.883  21.060  13.902
14256W        W86681   2.298  36.966  11.900
14257W        W86682   4.873   5.847   5.283
14258W        W86683  37.374  11.826  12.547
14259W        W86684  21.047  14.308  11.466
14260W        W86685   9.371  43.794  12.498
14261W        W86686   9.210  40.950  13.489
14262W        W86687  41.936  37.552  12.077
14263W        W86688  34.546  32.616   1.227
14264W        W86689  41.014  14.634  11.434
14265W        W86690  43.275  38.977  10.112
14266W        W86691  34.462  20.564   1.212
14267W        W86692  21.684  15.238  13.544
14268W        W86693  13.608  16.792   0.893
14269W        W86694  12.154  14.662  10.610
14270W        W86695  18.619  14.320  13.055
14271W        W86696  28.504  40.429   3.751
14272W        W86697  29.564  17.194   4.244
14273W        W86698  39.387  44.318   4.659
14274W        W86699   5.323  15.603  10.608
14275W        W86700  28.943  41.535  13.400
14276W        W86701  30.132  42.329  10.608
14277W        W86702  31.092  29.575  12.859
14278W        W86703  26.655   9.149  13.019
14279W        W86704  24.202  40.952   0.770
14280W        W86705  39.422   1.345  10.473
14281W        W86706  34.430  15.605  14.843
14282W        W86707   5.312  13.788   2.704
14283W        W86708  41.327  23.623   2.821
14284W        W86709  42.450  32.025  12.394
14285W        W86710  30.414   5.933  14.474
14286W        W86711  25.003  23.164   1.718
14287W        W86712  24.080  32.625  11.905
14288W        W86713  14.722   6.315   3.274
14289W        W86714  27.536   4.732  11.922
14290W        W86715  24.682  43.933   1.765
14291W        W86716  29.536   1.973   4.246
14292W        W86717  31.458  25.043  11.462
14293W        W86718  21.621   4.253   4.299
14294W        W86719  39.056  41.912  11.990
14295W        W86720  21.229   1.962   2.251
14296W        W86721  38.533   8.328  14.761
14297W        W86722  20.560  12.774   2.407
14298W        W86723  26.197  40.030   0.747
14299W        W86724  34.019   0.880   2.400
14300W        W86725  10.362  24.117  10.948
14301W        W86726   9.838  38.521   2.179
14302W        W86727  16.076  41.927  10.633
14303W        W86728  40.438  37.469   2.269
14304W        W86729  39.811  22.131  13.342
14305W        W86730  39.868  25.585   0.727
14306W        W86731  36.399  40.958  13.401
14307W        W86732  30.627  17.647   4.231
14308W        W86733  21.702  41.299   1.418
14309W        W86734   4.431   3.791   3.362
14310W        W86735  38.382  37.524  10.523
14311W        W86736  16.733  10.244  13.317
14312W        W86737  41.989  20.575  10.456
14313W        W86738  24.631  41.835   3.776
14314W        W86739   8.778  28.468   1.286
14315W        W86740  19.668   9.185  14.349
14316W        W86741  25.544  20.180  12.534
14317W        W86742  43.383   0.408  12.502
14318W        W86743   3.948  13.291  11.489
14319W        W86744  41.429   4.906   0.925
14320W        W86745  15.609  15.685   1.251
14321W        W86746  23.016  22.546  14.507
14322W        W86747   4.804   0.451  11.407
14323W        W86748  44.354  29.936  14.481
14324W        W86749  37.479   3.454  12.522
14325W        W86750  43.484  10.201   9.943
14326W        W86751   5.713  43.996   1.928
14327W        W86752  36.449  26.024   4.121
14328W        W86753  42.780  10.383  13.917
14329W        W86754  14.325   6.893  14.358
14330W        W86755   2.435  10.730  11.018
14331W        W86756  27.980  19.091   4.763
14332W        W86757   6.253  39.997   4.770
14333W        W86758  10.303  21.732  11.902
14334W        W86759  43.989   2.227   3.297
14335W        W86760  14.238  34.580   4.809
14336W        W86761   9.810   4.855  10.629
14337W        W86762  11.761   2.784   4.332
14338W        W86763  43.915  35.996  13.312
14339W        W86764  35.389  42.791  10.968
14340W        W86765  29.508  24.034   0.775
14341W        W86766   2.258  15.291   0.878
14342W        W86767  15.782  31.020  11.583
14343W        W86768   0.978  41.415   2.242
14344W        W86769   2.913  11.207   1.904
14345W        W86770  31.594  18.556  13.507
14346W        W86771  39.937  35.534   2.750
14347W        W86772  41.947  31.144   0.780
14348W        W86773  10.289  21.588   2.262
14349W        W86774  32.548   9.366  11.865
14350W        W86775   9.382   3.247  12.937
14351W        W86776  39.381  23.177   0.258
14352W        W86777  23.997  30.475  10.415
14353W        W86778   9.194  36.933   2.877
14354W        W86779  11.758  13.108  13.310
14355W        W86780   0.978   0.301  12.342
14356W        W86781  43.974  44.975   2.234
14357W        W86782   1.478  10.354   2.831
14358W        W86783   6.358  29.479   3.743
14359W        W86784  39.062  35.455   0.732
14360W        W86785  17.611   8.282   1.722
14361W        W86786  23.679  19.775   2.220
14362W        W86787  18.723   6.835   4.691
14363W        W86788   2.822  15.203   2.227
14364W        W86789  15.227  27.942   4.671
14365W        W86790   8.312  19.706   0.297
14366W        W86791  32.068  14.233  11.444
14367W        W86792  19.604  22.024  13.333
14368W        W86793  14.279   9.666   0.312
14369W        W86794  10.166  16.208  13.464
14370W        W86795  44.351   6.318  10.140
14371W        W86796  27.130  26.033   1.851
14372W        W86797  20.217   3.383   0.731
14373W        W86798  31.628  24.479  13.333
14374W        W86799   1.371   9.688  12.864
14375W        W86800   8.797  18.263  12.394
14376W        W86801  43.889  22.027  14.031
14377W        W86802  30.108  14.170  13.330
14378W        W86803  15.129   0.765  12.086
14379W        W86804  17.088  42.935   0.876
14380W        W86805  28.073  32.092   1.226
14381W        W86806   3.246   2.807   2.852
14382W        W86807  15.754  40.435  13.401
14383W        W86808  19.750  32.097  14.492
14384W        W86809  39.448  19.771   1.358
14385W        W86810   9.240  38.440   2.199
14386W        W86811  27.536  23.604  12.922
14387W        W86812  34.940  22.233  14.315
14388W        W86813  13.619  35.529   1.329
14389W        W86814   7.412  19.167   3.332
14390W        W86815   5.332  28.581   3.147
14391W        W86816  37.890  17.611  13.002
14392W        W86817  16.658   1.754   4.344
14393W        W86818   6.246   9.360   1.273
14394W        W86819  19.051  12.360   4.114
14395W        W86820  14.194   2.281   2.757
14396W        W86821  15.131   9.220  13.818
14397W        W86822  22.708  22.128   0.761
14398W        W86823  39.362  42.955  14.304
14399W        W86824   0.386  10.846  12.534
14400W        W86825  32.611  15.252  13.503
14401W        W86826  21.707  25.962   2.405
14402W        W86827  36.580  32.044  14.818
14403W        W86828  10.717  44.763   0.339
14404W        W86829  15.155  21.153   3.260
14405W        W86830  24.186  41.336  12.477
14406W        W86831   8.694  26.578  12.884
14407W        W86832   3.843  11.270   0.902
14408W        W86833  34.529  34.370   4.350
14409W        W86834  25.573   5.286   3.153
14410W        W86835  34.109  11.138   4.765
14411W        W86836  30.096  14.177   3.355
14412W        W86837  12.264  44.863  12.349
14413W        W86838  40.458  26.195  11.462
14414W        W86839  22.504   3.376  11.071
14415W        W86840  42.429  43.832  13.375
14416W        W86841  27.486  17.207   0.458
14417W        W86842   8.290  24.103   1.840
14418W        W86843  39.918   0.955   1.329
14419W        W86844  36.906  27.608   0.303
14420W        W86845  43.489  11.715  12.431
14421W        W86846  26.025  33.043   1.916
14422W        W86847  24.678  10.759   2.281
14423W        W86848  27.474  21.176   1.719
14424W        W86849  35.867  43.007   2.183
14425W        W86850  31.110  35.864   3.725
14426W        W86851  37.548  16.647  12.963
14427W        W86852  28.004  17.223   1.416
14428W        W86853  12.772  16.140  13.015
14429W        W86854  26.123   9.765   1.382
14430W        W86855   6.341   1.841   4.184
14431W        W86856  14.748   8.831   1.846
14432W        W86857  39.060   5.858  12.010
14433W        W86858   7.809  13.637   4.696
14434W        W86859   6.228  22.185   2.380
14435W        W86860  30.462  33.539  13.792
14436W        W86861   6.896  42.290   4.708
14437W        W86862  19.707  44.340  14.446
14438W        W86863  27.985  37.915  11.400
14439W        W86864  25.125  39.466  12.018
14440W        W86865  13.629   5.387  14.326
14441W        W86866  33.927  16.771  11.873
14442W        W86867  43.428  33.111   1.391
14443W        W86868  36.401  39.985  11.934
14444W        W86869  17.663   4.404  14.980
14445W        W86870  14.340  40.910  12.445
14446W        W86871   2.301   1.268  10.506
14447W        W86872  20.094  16.270  10.463
14448W        W86873   3.380  30.096  14.028
14449W        W86874  35.416   7.279   0.443
14450W        W86875  38.462  36.934   1.415
14451W        W86876   8.891  17.128   5.312
14452W        W86877   2.898  35.986   1.896
14453W        W86878  22.724  40.544  10.905
14454W        W86879  26.195   5.418   2.233
14455W        W86880  44.811   3.384   2.309
14456W        W86881  32.100  16.138   4.138
14457W        W86882   7.211  16.739   1.723
14458W        W86883  27.650  31.120   4.669
14459W        W86884   8.373   0.919   3.757
14460W        W86885  41.828  11.141   1.311
14461W        W86886   0.894  13.179   1.394
14462W        W86887  17.105  26.465  13.051
14463W        W86888  38.493  11.629   2.252
14464W        W86889  28.146  38.439   4.283
14465W        W86890  15.807  35.008  12.034
14466W        W86891   3.781  14.613  10.523
14467W        W86892  33.404  28.934   0.296
14468W        W86893  38.890  13.696  14.911
14469W        W86894   3.927  15.132   0.403
14470W        W86895  22.206   4.400  14.277
14471W        W86896  15.168  16.811  13.901
14472W        W86897  11.294   2.394   9.971
14473W        W86898  14.201  11.327  10.900
14474W        W86899   8.807  14.249   1.919
14475W        W86900  16.726  32.632   2.353
14476W        W86901  29.958  22.082   2.774
14477W        W86902  18.680  37.995   4.218
14478W        W86903  11.777  41.509  11.492
14479W        W86904  27.646   9.743  13.823
14480W        W86905  10.268  41.356   2.735
14481W        W86906  26.168  19.773   0.245
14482W        W86907   3.917  21.672  13.352
14483W        W86908  39.413   9.789  14.935
14484W        W86909  13.762  38.490   4.700
14485W        W86910  44.817  33.970  14.798
14486W        W86911  27.471  37.019  12.561
14487W        W86912   2.938  29.426   2.665
14488W        W86913  43.318  15.089  12.464
14489W        W86914  21.221  33.449  14.791
14490W        W86915  10.754  39.040  13.933
14491W        W86916  41.960   4.911  14.845
14492W        W86917  38.886  28.084  12.429
14493W        W86918  35.095  21.676   3.251
14494W        W86919  44.901  41.322  13.475
14495W        W86920  43.435  40.986   1.381
14496W        W86921  22.699  14.116   3.344
14497W        W86922  28.069  13.725   0.406
14498W        W86923   1.384  28.929  14.461
14499W        W86924  13.133  34.020   2.353
14500W        W86925  14.598   7.238  13.995
14501W        W86926  19.543  24.672   4.832
14502W        W86927  24.143  19.270  10.453
14503W        W86928   6.678   8.897   4.698
14504W        W86929  13.794  26.656   1.245
14505W        W86930  18.667  27.068   2.403
14506W        W86931  14.628   0.283  13.792
14507W        W86932  12.753  41.001  14.965
14508W        W86933  31.474   1.757   4.833
14509W        W86934  40.348  35.058  11.380
14510W        W86935  16.633  33.093   3.213
14511W        W86936  19.209  24.215   4.270
14512W        W86937  42.783   2.384  11.534
14513W        W86938   9.836   6.784   3.330
14514W        W86939  31.148  13.308  14.506
14515W        W86940  29.463  19.720  11.516
14516W        W86941   0.761  19.204  11.531
14517W        W86942   9.866  40.348  14.769
14518W        W86943   5.359   6.351   3.642
14519W        W86944  11.336   4.889   4.246
14520W        W86945  14.784  10.322   1.878
14521W        W86946  37.381  24.120   2.882
14522W        W86947  44.762   4.403   2.253
14523W        W86948  27.064  12.710   4.737
14524W        W86949   0.258  27.179   2.206
14525W        W86950  19.639  29.625   0.426
14526W        W86951   8.808  44.321  11.091
14527W        W86952  33.119  39.474  13.436
14528W        W86953   7.874   9.689   0.272
14529W        W86954   2.938   5.428   3.761
14530W        W86955  30.033  38.565  11.079
14531W        W86956  31.955  31.914  14.408
14532W        W86957   7.239   4.805   1.379
14533W        W86958  23.027  40.543  10.939
14534W        W86959   6.416  26.562   3.786
14535W        W86960  37.520   8.405   2.294
14536W        W86961  21.214  13.239   3.363
14537W        W86962  12.788   6.893  12.971
14538W        W86963  21.615   2.891  10.498
14539W        W86964  14.195  19.157  13.979
14540W        W86965   5.433  33.046   3.348
14541W        W86966  31.532   4.849  12.036
14542W        W86967  20.680   2.237   2.718
14543W        W86968  31.918  14.202   1.295
14544W        W86969  30.135   3.944   1.838
14545W        W86970  26.506  22.109  14.316
14546W        W86971  10.699   6.323   2.753
14547W        W86972  32.564  39.328  11.981
14548W        W86973  11.153  26.468   0.817
14549W        W86974  19.674  24.609  10.949
14550W        W86975   6.676  10.381  10.458
14551W        W86976  36.036  33.974  13.035
14552W        W86977  43.930  33.117   3.727
14553W        W86978  20.607  44.757   3.265
14554W        W86979  39.444   6.411   0.365
14555W        W86980  22.103  38.856  14.490
14556W        W86981  32.909  41.335  14.353
14557W        W86982  34.555  37.437   3.244
14558W        W86983  14.822   7.734  10.544
14559W        W86984  32.528  39.493  13.885
14560W        W86985  22.573  33.452   1.387
14561W        W86986  20.733  28.073   2.885
14562W        W86987  22.996   8.351   1.278
14563W        W86988  18.745  25.024   4.116
14564W        W86989   5.347  38.983  13.871
14565W        W86990  36.554   0.848   3.739
14566W        W86991  25.112  19.163  12.849
14567W        W86992   2.295   8.382  10.425
14568W        W86993  36.587  17.071  14.912
14569W        W86994  23.024  44.909   4.254
14570W        W86995   5.910  19.065  10.520
14571W        W86996  16.318  12.671  12.478
14572W        W86997  30.624   3.744  12.052
14573W        W86998  21.234  35.042  12.969
14574W        W86999  42.410  19.143   4.655
14575W        W87000  26.148  34.507   3.848
14576W        W87001  44.772  15.133  10.588
14577W        W87002  11.203  41.880  14.831
14578W        W87003   8.769  14.625   2.678
14579W        W87004  23.601   6.385  13.004
14580W        W87005  17.754   9.253  13.940
14581W        W87006  36.395  39.411   1.699
14582W        W87007  28.953  20.266  11.892
14583W        W87008   5.221  27.680   2.233
14584W        W87009  15.649  37.831  13.389
14585W        W87010  33.087  43.864   2.391
14586W        W87011  13.122  20.081   0.936
14587W        W87012  32.621   3.376  11.588
14588W        W87013   4.284  42.435   3.651
14589W        W87014  11.319  31.915  14.863
14590W        W87015   0.307  31.144   9.984
14591W        W87016  32.596  19.617   0.778
14592W        W87017   5.330  14.186   3.377
14593W        W87018  26.041  40.316   4.640
14594W        W87019  13.322  35.982   2.878
14595W        W87020   3.800  32.013  13.497
14596W        W87021   4.919  32.990  12.947
14597W        W87022  42.909   6.744   1.334
14598W        W87023  40.425  16.567  11.987
14599W        W87024  44.785  18.123  14.933
14600W        W87025   5.259  27.172  10.995
14601W        W87026  10.834  29.044  11.979
14602W        W87027  36.357   4.810   4.184
14603W        W87028  28.620   2.308   0.273
14604W        W87029  36.055   9.197  10.092
14605W        W87030  16.654  26.650  11.535
14606W        W87031  29.426  39.430  10.623
14607W        W87032  12.819  14.737  11.547
14608W        W87033  30.992  41.361   9.509
14609W        W87034  34.501   1.918  10.476
14610W        W87035  34.405  24.082   1.278
14611W        W87036  13.699  14.697   3.724
14612W        W87037  29.161  16.767   1.814
14613W        W87038  40.340  15.638  13.352
14614W        W87039   5.199  41.345  13.533
14615W        W87040  15.708  14.178  12.916
14616W        W87041   3.743   4.340  10.536
14617W        W87042  42.890  18.141  13.915
14618W        W87043  21.191  30.559   3.347
14619W        W87044  28.565  41.358   4.346
14620W        W87045   5.296  28.528  11.856
14621W        W87046   6.354  23.077   0.298
14622W        W87047  42.936  35.949  12.044
14623W        W87048   8.838  35.863   3.275
14624W        W87049  23.013  41.861  11.410
14625W        W87050  23.080  30.150   2.723
14626W        W87051  42.519  13.211  14.276
14627W        W87052  34.952   3.847   1.867
14628W        W87053  32.014   1.306  11.393
14629W        W87054  42.898   7.882  10.594
14630W        W87055   3.402  44.474   1.351
14631W        W87056  25.137  29.504   3.858
14632W        W87057  13.754  20.266   0.247
14633W        W87058  17.120  21.653  11.600
14634W        W87059   6.235  37.437   4.834
14635W        W87060  26.631  33.439  10.534
14636W        W87061  19.169  36.464   3.748
14637W        W87062  43.016  14.696  14.328
14638W        W87063  42.978   8.231   4.712
14639W        W87064  30.624  16.161  13.049
14640W        W87065  27.499  30.455  11.074
14641W        W87066  11.203  41.432   4.702
14642W        W87067  38.392  33.579   0.898
14643W        W87068  34.112   9.860  13.894
14644W        W87069  17.137  23.222   9.931
14645W        W87070  11.230  25.008  14.029
14646W        W87071  26.638  44.814   3.733
14647W        W87072   9.807  38.949  12.446
14648W        W87073  21.645  32.557  10.944
14649W        W87074  29.100   9.676   2.281
14650W        W87075   2.248  18.614   4.190
14651W        W87076   3.785  26.487   3.766
14652W        W87077  40.856  19.768  11.077
14653W        W87078   9.347  31.533   0.300
14654W        W87079   7.901  13.792  12.882
14655W        W87080  13.766  26.674  11.396
14656W        W87081  22.704   7.776  13.002
14657W        W87082  27.683  27.533   0.769
14658W        W87083   8.742  19.082  14.354
14659W        W87084  43.778   0.392  10.904
14660W        W87085  16.760   2.286   2.724
14661W        W87086  27.046   5.219   1.238
14662W        W87087  27.670  22.045   2.789
14663W        W87088  20.251  35.990  12.066
14664W        W87089  28.101  42.918  14.330
14665W        W87090  30.962  28.001  10.149
14666W        W87091  19.198  18.279  10.633
14667W        W87092   7.235  33.522   3.794
14668W        W87093  19.133   0.887   2.743
14669W        W87094  44.934  24.716   0.771
14670W        W87095   2.311  37.567  11.395
14671W        W87096  34.120   7.268   4.737
14672W        W87097   9.853   4.721  11.035
14673W        W87098  19.139   3.428  13.481
14674W        W87099  44.866  22.568  12.055
14675W        W87100  27.089  21.172   2.379
14676W        W87101  21.228   7.382   1.788
14677W        W87102  20.257  35.465   3.802
14678W        W87103  43.925  30.635  11.568
14679W        W87104   0.250  10.177  12.040
14680W        W87105  32.596   8.820  14.441
14681W        W87106  11.676  38.391  10.033
14682W        W87107  15.197  26.648   0.966
14683W        W87108   3.748  17.796  12.545
14684W        W87109   3.764  39.859  13.459
14685W        W87110   3.294  25.154   1.855
14686W        W87111  35.033  30.917  11.884
14687W        W87112  42.967  28.164  13.375
14688W        W87113  31.978   7.369  14.998
14689W        W87114  13.242  29.047  10.410
14690W        W87115  17.139   7.283   4.265
14691W        W87116  31.973  24.148  14.410
14692W        W87117   1.293   7.802  10.414
14693W        W87118  35.967   1.255   3.373
14694W        W87119  40.828  19.172  13.981
14695W        W87120  35.360  30.572  13.857
14696W        W87121  36.362  30.985  12.990
14697W        W87122  37.856  33.922   4.647
14698W        W87123  17.571  10.851   0.268
14699W        W87124  11.712  34.939  11.864
14700W        W87125  26.105  15.324   0.776
14701W        W87126  28.078  34.492  14.010
14702W        W87127   7.310  27.090  14.277
14703W        W87128  31.483  24.078  14.442
14704W        W87129  34.464   3.378   4.213
14705W        W87130  39.946   0.282  12.530
14706W        W87131  11.129   7.379   0.352
14707W        W87132  31.434  22.502   1.839
14708W        W87133  18.566   5.421  14.432
14709W        W87134  12.340  17.760  11.891
14710W        W87135   8.888  24.148  10.535
14711W        W87136  15.212   2.235   5.195
14712W        W87137  32.624   2.921   4.710
14713W        W87138  36.380  40.973  10.558
14714W        W87139  13.166  33.483   1.741
14715W        W87140  24.529  10.646  10.613
14716W        W87141  32.492  18.071   2.378
14717W        W87142  44.909   5.869  12.014
14718W        W87143  19.573  38.501   2.306
14719W        W87144  19.040  15.705   0.773
14720W        W87145  40.538  10.690   1.245
14721W        W87146  39.427  17.712   3.186
14722W        W87147  15.653  43.917  11.392
14723W        W87148  22.145   4.314  13.365
14724W        W87149   7.902  29.933  10.946
14725W        W87150  25.597  25.577   2.708
14726W        W87151  32.112  35.543   2.800
14727W        W87152  26.065  42.280  10.963
14728W        W87153  29.562   3.351   1.276
14729W        W87154  39.426  32.095  10.143
14730W        W87155  36.862   9.748  13.409
14731W        W87156   2.275  24.680   0.479
14732W        W87157  15.805  15.795  11.611
14733W        W87158  16.788   8.745  10.406
14734W        W87159   7.293  15.578   2.902
14735W        W87160  26.152   4.787  10.641
14736W        W87161  28.656  16.212   1.229
14737W        W87162  18.685  23.217   0.301
14738W        W87163  30.650  34.037   4.699
14739W        W87164   9.253  44.265   2.358
14740W        W87165  13.276  26.591  10.454
14741W        W87166  21.519  19.758  10.585
14742W        W87167  25.616   6.319   2.784
14743W        W87168  36.987   9.267   5.087
14744W        W87169   5.330  26.114  10.457
14745W        W87170  22.620  25.205   3.676
14746W        W87171  20.705  11.622  14.800
14747W        W87172   8.375  38.956   1.272
14748W        W87173  35.942  43.498  12.501
14749W        W87174  40.436   8.371   2.266
14750W        W87175   5.225  30.075  12.889
14751W        W87176  32.574  14.195  14.450
14752W        W87177  27.992  44.791  11.121
14753W        W87178  39.937  21.614  12.480
14754W        W87179  15.776   7.243   3.382
14755W        W87180   2.471  25.565   3.852
14756W        W87181  36.080  21.169   5.294
14757W        W87182  31.609   1.868   0.278
14758W        W87183  17.767   0.792  14.901
14759W        W87184   2.230   2.357   2.371
14760W        W87185  16.750  38.887  10.908
14761W        W87186  18.080  19.065  13.937
14762W        W87187  18.279  16.806   0.370
14763W        W87188  40.539   3.447   3.194
14764W        W87189   4.263  44.299  14.901
14765W        W87190  38.002  13.186  13.023
14766W        W87191  14.621  16.656  11.380
14767W        W87192  30.607  34.010   1.708
14768W        W87193  29.078  19.057  12.003
14769W        W87194  22.617  33.042  13.006
14770W        W87195  40.834  25.697  10.463
14771W        W87196  32.008  32.527  12.850
14772W        W87197  22.097  11.657   5.278
14773W        W87198  21.659  10.225  12.853
14774W        W87199   2.931   9.348  14.502
14775W        W87200  16.762  40.353  11.071
14776W        W87201   4.390   1.740   0.744
14777W        W87202  42.316  15.773   0.792
14778W        W87203  28.501  28.496  11.031
14779W        W87204  29.980  43.357  14.307
14780W        W87205  28.942   0.879  11.437
14781W        W87206   3.218  31.445  10.622
14782W        W87207  22.678  42.332   4.795
14783W        W87208  41.843  41.817  13.546
14784W        W87209  33.123   2.352  14.878
14785W        W87210  25.511  12.333  14.013
14786W        W87211  35.030  29.067   1.394
14787W        W87212  28.463  37.925   4.675
14788W        W87213  16.111  37.002  13.352
14789W        W87214   4.945  39.905  14.465
14790W        W87215  22.237  29.059   4.642
14791W        W87216  18.202   7.804   4.322
14792W        W87217  26.181  24.553  14.769
14793W        W87218  43.505  27.559   0.778
14794W        W87219  12.156  25.579  10.888
14795W        W87220  43.342   6.351   0.394
14796W        W87221  22.093   4.891   4.155
14797W        W87222  30.619  17.656   0.333
14798W        W87223  36.024  33.043  12.408
14799W        W87224   3.724   0.379   3.841
14800W        W87225   6.373  19.043  14.012
14801W        W87226  12.253  11.747   3.826
14802W        W87227  44.996  16.193  11.978
14803W        W87228  17.274   9.855  11.038
14804W        W87229   0.867  12.687   3.750
14805W        W87230  21.170  11.311   1.842
14806W        W87231  15.802  36.461   1.820
14807W        W87232  16.249  28.065   2.666
14808W        W87233  28.158  39.388   3.774
14809W        W87234  27.509  25.120  11.046
14810W        W87235  23.229  12.263   3.823
14811W        W87236  22.019  42.777  12.915
14812W        W87237  32.932  24.552   2.704
14813W        W87238  18.278  28.653   2.815
14814W        W87239  27.672  38.921  10.504
14815W        W87240   1.905  21.172   4.675
14816W        W87241  44.472  26.577  12.979
14817W        W87242  32.594  38.372   1.292
14818W        W87243  11.777  26.513   4.700
14819W        W87244   9.743  41.792  13.951
14820W        W87245  11.837  13.228   2.366
14821W        W87246  30.651  20.715   4.124
14822W        W87247  29.530  15.104  11.123
14823W        W87248  43.970  41.384   2.897
14824W        W87249  12.730  15.764  12.061
14825W        W87250  40.409  34.558  11.100
14826W        W87251   4.792  23.671  10.108
14827W        W87252  43.337   3.349  10.484
14828W        W87253  20.272  19.110  10.982
14829W        W87254  21.201   3.858  14.395
14830W        W87255  37.989  13.325   4.716
14831W        W87256  39.474   6.184   1.806
14832W        W87257  28.136  34.914   4.116
14833W        W87258   7.262   3.338  11.495
14834W        W87259  23.626  25.580  13.871
14835W        W87260  21.017  37.374   5.299
14836W        W87261  36.049  27.011   0.957
14837W        W87262   7.280  39.502   4.212
14838W        W87263  35.881  37.964   1.266
14839W        W87264  24.135  28.462  13.544
14840W        W87265  40.416  15.109  14.425
14841W        W87266  42.419  19.733   1.292
14842W        W87267   3.324   3.399   1.383
14843W        W87268  35.362   1.379  11.517
14844W        W87269  37.056  29.175  13.475
14845W        W87270  34.469   4.864   0.455
14846W        W87271  30.520  43.359   0.302
14847W        W87272   6.845   9.730   1.922
14848W        W87273  37.427  31.588   0.294
14849W        W87274  19.543  13.828  14.379
14850W        W87275  33.591  33.034  14.449
14851W        W87276  19.149  27.148  10.529
14852W        W87277  11.175  24.538  14.773
14853W        W87278  20.677   2.439   2.359
14854W        W87279   4.903  31.621  13.793
14855W        W87280  11.838  37.010   2.345
14856W        W87281  39.333  12.663   4.716
14857W        W87282  39.426  20.158  11.554
14858W        W87283  28.549  11.335   3.223
14859W        W87284  20.543   3.906   1.301
14860W        W87285  20.133  19.265   2.351
14861W        W87286  27.006  23.532   1.228
14862W        W87287  27.018  19.643   5.096
14863W        W87288  29.943  37.488  13.356
14864W        W87289  23.009   4.806  12.531
14865W        W87290  10.345  26.550   4.675
14866W        W87291  18.216  31.024   3.737
14867W        W87292   6.851  31.439   2.816
14868W        W87293  20.693   0.446  14.009
14869W        W87294   3.429  15.324  10.464
14870W        W87295  17.167  44.361   5.120
14871W        W87296  37.514  38.370  11.076
14872W        W87297  37.950  11.695   3.648
14873W        W87298  40.549   5.408  12.892
14874W        W87299  42.947  11.166   3.296
14875W        W87300  26.558  20.529   3.176
14876W        W87301  33.949   0.490   2.703
14877W        W87302  25.108  44.755   2.217
14878W        W87303   1.314  35.018  12.425
14879W        W87304  40.994  21.204   1.246
14880W        W87305  20.259   1.329  14.302
14881W        W87306  28.087   2.801  11.575
14882W        W87307  41.321  37.077   3.764
14883W        W87308  43.951  25.179   1.745
14884W        W87309  30.435  27.446   4.174
14885W        W87310  38.441  29.134   0.350
14886W        W87311  42.424  41.907  13.839
14887W        W87312  22.715  42.850   1.818
14888W        W87313   0.948   3.871   4.788
14889W        W87314  23.567  29.172  12.905
14890W        W87315   0.268  16.793  13.915
14891W        W87316   4.342  24.619  11.008
14892W        W87317  33.906  19.677  12.366
14893W        W87318  29.973   1.328   3.371
14894W        W87319  15.600  38.038  12.041
14895W        W87320   1.788   3.316  13.017
14896W        W87321   8.399  19.267  12.468
14897W        W87322  36.593  41.391  10.893
14898W        W87323  26.138  25.048  14.832
14899W        W87324   2.238  39.451   2.412
14900W        W87325  17.274  28.163   2.771
14901W        W87326  36.024  19.699  10.467
14902W        W87327  19.739  41.830  10.504
14903W        W87328  12.344  23.643   5.136
14904W        W87329  11.239  21.047   3.238
14905W        W87330  16.129  21.184   3.791
14906W        W87331  40.371  28.043   1.932
14907W        W87332  38.537  21.082  12.833
14908W        W87333   1.919   1.332   1.706
14909W        W87334  10.805   4.233   2.892
14910W        W87335  28.123   8.868  14.860
14911W        W87336  20.056   4.815   0.849
14912W        W87337   0.851   3.445   3.372
14913W        W87338  26.181   5.747   2.308
14914W        W87339  33.461  30.923   1.405
14915W        W87340  37.337  12.344   1.241
14916W        W87341  44.000  22.024  13.381
14917W        W87342  25.596  23.556   1.341
14918W        W87343  15.117   7.767   3.202
14919W        W87344  11.857   8.397  11.523
14920W        W87345  16.289  16.732  14.923
14921W        W87346  33.559  10.802   1.412
14922W        W87347   9.161  34.912  13.852
14923W        W87348  23.550   7.755   2.402
14924W        W87349  14.106   6.711   4.709
14925W        W87350  40.385  15.100   1.256
14926W        W87351  33.895  43.410  13.842
14927W        W87352  22.099  37.913   0.449
14928W        W87353  37.085  21.729  11.066
14929W        W87354  36.030  20.603  12.412
14930W        W87355  37.960  13.788  13.886
14931W        W87356   6.212  18.138   2.298
14932W        W87357   5.407   9.321   1.256
14933W        W87358  36.406   8.662  12.930
14934W        W87359  18.102   2.886  10.987
14935W        W87360  10.358  42.788   4.771
14936W        W87361   5.693  30.908  14.500
14937W        W87362  16.074  12.302  13.536
14938W        W87363  42.520  42.986   4.160
14939W        W87364   8.701  26.048  13.993
14940W        W87365  41.340  18.544   1.767
14941W        W87366  11.777  21.523   4.686
14942W        W87367   0.371  37.970   0.308
14943W        W87368  38.345  38.339  13.489
14944W        W87369  21.753  43.330  14.809
14945W        W87370  24.562  26.047  12.404
14946W        W87371  31.506  15.291  13.495
14947W        W87372  40.501  40.048   1.223
14948W        W87373  12.324  10.323  11.435
14949W        W87374  43.448  33.575   3.294
14950W        W87375   9.821  44.383  14.025
14951W        W87376  38.551  12.667   3.720
14952W        W87377  22.670  21.033   5.140
14953W        W87378  24.152  16.187  11.565
14954W        W87379   2.345  23.180  12.529
14955W        W87380  36.871  15.578  13.026
14956W        W87381  11.199  25.578  14.997
14957W        W87382  28.949  43.377   2.726
14958W        W87383   4.756  22.129  11.970
14959W        W87384  34.004  18.288  11.456
14960W        W87385   5.927  10.720  14.968
14961W        W87386  29.132   6.747   1.853
14962W        W87387  17.067  16.214  14.850
14963W        W87388  37.376  34.444  11.965
14964W        W87389  21.604   9.259   0.756
14965W        W87390  41.525  38.471  13.323
14966W        W87391  43.902  18.722  14.398
14967W        W87392  39.048  37.415  10.027
14968W        W87393  30.508   6.685   0.321
14969W        W87394  15.200  44.000   3.156
14970W        W87395  30.459   0.751   3.160
14971W        W87396   5.707  11.239  12.392
14972W        W87397   0.827  18.743   4.803
14973W        W87398   0.769   4.741   0.785
14974W        W87399   3.828  36.089  10.557
14975W        W87400   7.793   8.346  14.402
14976W        W87401  14.592  43.957  14.313
14977W        W87402   1.762  22.659  12.422
14978W        W87403   5.802  37.547   2.352
14979W        W87404   3.317  42.463   0.843
14980W        W87405   1.402  21.692   0.389
14981W        W87406  10.302  44.860  13.057
14982W        W87407   9.759  21.540  13.515
14983W        W87408  24.560  17.591   3.371
14984W        W87409  25.095  42.998  13.954
14985W        W87410  14.594  23.674   4.624
14986W        W87411   6.324  12.244  10.043
14987W        W87412   2.872  34.882  12.505
14988W        W87413  34.483  41.396  14.808
14989W        W87414   5.783  39.477   0.250
14990W        W87415   3.898  44.781   2.789
14991W        W87416  19.633  43.003  11.384
14992W        W87417   6.814  31.969  12.486
14993W        W87418   7.247  42.849   4.755
14994W        W87419  44.479  32.542  12.845
14995W        W87420  29.561  36.855  14.916
14996W        W87421  15.777  19.562   2.672
14997W        W87422  11.787  10.856  13.996
14998W        W87423  19.538   3.858   2.296
14999W        W87424  28.964  28.127  14.325
15000W        W87425  36.587  14.604  13.430
15001W        W87426  41.424   8.774   1.808
15002W        W87427  40.907  20.653   2.367
15003W        W87428   8.715   5.760  14.332
15004W        W87429   6.196  36.866   3.814
15005W        W87430   4.870  13.350  14.362
15006W        W87431  22.091  32.072   9.971
15007W        W87432   5.246  39.890   3.348
15008W        W87433  21.052   3.227  10.063
15009W        W87434  38.943  19.766   0.380
15010W        W87435   5.437  16.120  13.357
15011W        W87436  27.182  14.312   3.178
15012W        W87437  39.018  22.058  13.811
15013W        W87438  30.141  11.710   0.482
15014W        W87439  18.056   4.230   0.912
15015W        W87440  36.979  36.449   4.664
15016W        W87441   7.810  28.021  11.079
15017W        W87442  16.202  39.484  10.644
15018W        W87443  21.171  39.380  14.819
15019W        W87444  13.286  28.627   1.926
15020W        W87445  40.935  23.130  12.947
15021W        W87446  28.525  25.062  14.875
15022W        W87447  35.868  16.162   2.763
15023W        W87448  34.069  25.121   0.420
15024W        W87449  26.199  40.825  10.997
15025W        W87450   4.832  36.962   0.465
15026W        W87451  33.567  16.671   9.997
15027W        W87452   9.251  18.607  10.561
15028W        W87453   1.877  32.079   3.163
15029W        W87454  17.750  10.155   2.755
15030W        W87455  12.251  29.614  11.392
15031W        W87456  16.238  44.317  12.462
15032W        W87457   1.453   1.900  12.530
15033W        W87458  32.508   8.865   5.243
15034W        W87459  32.089   8.404  11.950
15035W        W87460  34.548   5.345   1.302
15036W        W87461   6.883  35.467   2.882
15037W        W87462  39.904  10.232  10.435
15038W        W87463  10.862  22.121  13.952
15039W        W87464  27.160  10.736  14.443
15040W        W87465  22.640  34.035   4.613
15041W        W87466  31.070  38.396  13.877
15042W        W87467   7.290  41.507  14.966
15043W        W87468  19.680   8.239   1.705
15044W        W87469  14.309  40.978   4.756
15045W        W87470   6.336  13.240  13.472
15046W        W87471   6.423  25.125   0.326
15047W        W87472  23.576   3.305   0.963
15048W        W87473   3.425  18.255   4.123
15049W        W87474  44.905   9.278   3.248
15050W        W87475  10.825   8.829   2.842
15051W        W87476  18.677   0.753  10.022
15052W        W87477  24.178  27.594  12.999
15053W        W87478  26.981  44.998  12.539
15054W        W87479  24.630  20.129  10.637
15055W        W87480  26.672  32.991   4.125
15056W        W87481   8.268  30.008   3.638
15057W        W87482  23.222  22.130  10.896
15058W        W87483  12.236  34.937   1.734
15059W        W87484  24.048  20.112  14.469
15060W        W87485  31.506  28.950   0.757
15061W        W87486  15.164  44.420  11.912
15062W        W87487  22.596  11.770  11.527
15063W        W87488  20.635  35.897   0.347
15064W        W87489  30.634  28.024  10.523
15065W        W87490  39.408  33.606   4.637
15066W        W87491  33.532  40.424   3.857
15067W        W87492  10.834  18.224  12.026
15068W        W87493   3.877  37.483   0.332
15069W        W87494  43.912   4.729  13.511
15070W        W87495  40.958   5.407  13.339
15071W        W87496  36.359  33.434   4.198
15072W        W87497  21.726  14.194   5.084
15073W        W87498  24.659  37.992   2.760
15074W        W87499  25.052   1.286  11.484
15075W        W87500  13.726  44.760  11.509
15076W        W87501  30.641  36.873  11.080
15077W        W87502   7.245  19.638  12.460
15078W        W87503  23.068  39.985   3.855
15079W        W87504  17.076   2.356   3.163
15080W        W87505  11.684  42.818   1.246
15081W        W87506  13.838  11.243   1.274
15082W        W87507  12.253  12.855  11.892
15083W        W87508  16.666  36.392   0.746
15084W        W87509   6.784  22.505  13.886
15085W        W87510  28.513  21.571   9.947
15086W        W87511   8.867  23.210  10.633
15087W        W87512  16.801  36.444   3.702
15088W        W87513  41.926   5.281   0.927
15089W        W87514  26.174   6.770   2.255
15090W        W87515  14.728  30.471   3.200
15091W        W87516  28.010  12.850   4.238
15092W        W87517  17.249  26.043   4.199
15093W        W87518  44.318  23.104   4.115
15094W        W87519  15.709  24.081   4.225
15095W        W87520  16.584   5.309  11.373
15096W        W87521  42.289  18.636  14.439
15097W        W87522  17.082   7.837   0.465
15098W        W87523  25.071  28.507  14.886
15099W        W87524   2.746  42.511  12.515
15100W        W87525  14.654  18.172  12.533
15101W        W87526  41.792  25.535  14.398
15102W        W87527  35.953  14.268   0.481
15103W        W87528   4.733  35.922   3.841
15104W        W87529  31.102  10.726   0.756
15105W        W87530  21.072  34.023  14.506
15106W        W87531  41.918  17.236   1.385
15107W        W87532   0.924  43.940   3.223
15108W        W87533  38.488  38.493   4.766
15109W        W87534  30.030  43.272  14.852
15110W        W87535  19.592  44.862   0.339
15111W        W87536  27.677   4.320   4.332
15112W        W87537   3.300  22.204   4.235
15113W        W87538   7.281  13.315  14.931
15114W        W87539  40.439  34.100   4.135
15115W        W87540  19.607  30.973  12.451
15116W        W87541  21.067  14.643   0.879
15117W        W87542  43.891   1.839  14.386
15118W        W87543  28.450  36.462   3.249
15119W        W87544  30.099  34.503  14.299
15120W        W87545  11.267  24.994  11.124
15121W        W87546  16.223  25.580   4.294
15122W        W87547  24.602  20.549   4.746
15123W        W87548  35.427  34.455   1.875
15124W        W87549  44.824  35.501  10.643
15125W        W87550  21.167  20.768  11.892
15126W        W87551  23.648  42.360  14.365
15127W        W87552  12.211   2.302   5.236
15128W        W87553   3.809  32.961  12.054
15129W        W87554  25.649  18.134  14.861
15130W        W87555  18.746  38.056  11.586
15131W        W87556  42.948   3.932  10.593
15132W        W87557  44.346  34.481  11.014
15133W        W87558  27.965  35.452  10.430
15134W        W87559  35.479  24.533   0.796
15135W        W87560  34.994  40.845  12.007
15136W        W87561  40.460   3.399  11.459
15137W        W87562  26.592  43.808   2.381
15138W        W87563  23.567  25.662  14.325
15139W        W87564  12.672  23.634   4.614
15140W        W87565   4.831  41.351   2.184
15141W        W87566   2.846  35.008   1.302
15142W        W87567  20.110  29.117  12.855
15143W        W87568  44.300  22.643  10.629
15144W        W87569   0.870  27.966   0.432
15145W        W87570  34.396  22.512   0.738
15146W        W87571  25.966  27.558  13.512
15147W        W87572   5.761  21.758   1.306
15148W        W87573  17.266   9.332  10.413
15149W        W87574  40.845   8.378   0.408
15150W        W87575   3.893  13.146  12.079
15151W        W87576  31.466  37.881   2.416
15152W        W87577   3.749  43.809  11.557
15153W        W87578  37.538   2.462  12.511
15154W        W87579  28.459  43.775   3.168
15155W        W87580  35.923  13.602  12.394
15156W        W87581  40.350  11.272   4.778
15157W        W87582  42.420  41.411   0.302
15158W        W87583  38.374  14.318  12.006
15159W        W87584  23.733  44.348   1.856
15160W        W87585   4.772  22.634  10.158
15161W        W87586   0.358  13.710   4.279
15162W        W87587  22.630  27.476   0.434
15163W        W87588  32.570  31.113  14.800
15164W        W87589  28.492  29.488   3.268
15165W        W87590  31.140  39.932   2.282
15166W        W87591   7.904  17.572  13.320
15167W        W87592  16.124  27.588   3.640
15168W        W87593   7.731  38.838   5.245
15169W        W87594   6.887  13.264   0.940
15170W        W87595  20.119   5.197   3.795
15171W        W87596  30.066   0.923  14.955
15172W        W87597  40.392  35.567   0.874
15173W        W87598   2.352  31.117   2.178
15174W        W87599  11.138  35.938   4.657
15175W        W87600  40.015  19.237  12.525
15176W        W87601  27.461   0.784   0.769
15177W        W87602  35.090   1.369  12.922
15178W        W87603   8.338  33.115  14.446
15179W        W87604  11.803  18.764  12.042
15180W        W87605  37.552  14.239   4.812
15181W        W87606  34.059  18.586  10.464
15182W        W87607  10.634  21.557   3.639
15183W        W87608  33.392   8.220   2.811
15184W        W87609   4.338  22.503   3.688
15185W        W87610   0.820   7.841  11.032
15186W        W87611  16.166  19.711   5.285
15187W        W87612   0.858  35.960  12.375
15188W        W87613   4.334   2.773   0.733
15189W        W87614  35.511   9.713  11.542
15190W        W87615  18.637  28.521  14.488
15191W        W87616  24.718   4.334   3.364
15192W        W87617   9.329  17.711  14.465
15193W        W87618  15.150  44.007  14.283
15194W        W87619  31.917  28.146   1.317
15195W        W87620  41.821  18.251  14.282
15196W        W87621   9.671  39.471  11.569
15197W        W87622  19.680  44.373   3.770
15198W        W87623   6.863  37.415   4.614
15199W        W87624  10.200  23.672   5.158
15200W        W87625  27.652  38.956  14.768
15201W        W87626  19.619  28.127   2.729
15202W        W87627  43.455  24.218  12.937
15203W        W87628  25.134  29.066  11.378
15204W        W87629   5.714  19.697  11.052
15205W        W87630  43.301  18.762  14.506
15206W        W87631  11.293  22.728   0.903
15207W        W87632  33.384   4.763  14.455
15208W        W87633  26.183  18.101   0.370
15209W        W87634  40.348  25.032  10.630
15210W        W87635  10.382  35.891  13.018
15211W        W87636  41.938  27.584  11.125
15212W        W87637  31.970   9.354   0.246
15213W        W87638  22.194   3.373  10.438
15214W        W87639  19.533  36.503   3.331
15215W        W87640   2.721  42.476  10.470
15216W        W87641  15.593   5.197   4.270
15217W        W87642   0.396  17.269  10.493
15218W        W87643   2.301   6.270   1.910
15219W        W87644  10.834  41.369  14.013
15220W        W87645   3.844  14.794   0.873
15221W        W87646   7.794   5.758   3.828
15222W        W87647  33.097   4.449  14.398
15223W        W87648  13.146  40.039   0.960
15224W        W87649  24.129  27.526   0.276
15225W        W87650  35.433  13.775   4.303
15226W        W87651  41.002  36.940  10.619
15227W        W87652  41.483   3.438   0.731
15228W        W87653  32.424  14.651  14.421
15229W        W87654  20.234  12.263  14.008
15230W        W87655  12.631   3.312  11.494
15231W        W87656  43.315  18.564  10.020
15232W        W87657  10.368  17.686   1.214
15233W        W87658   6.318  40.310   1.279
15234W        W87659  29.171  12.710   2.237
15235W        W87660   4.727  15.092   1.443
15236W        W87661  44.840  40.041  14.019
15237W        W87662  15.192  11.147  12.849
15238W        W87663  25.987   3.283   4.608
15239W        W87664  34.866  23.578  12.495
15240W        W87665   3.322   7.801   2.372
15241W        W87666  39.809  42.394   1.397
15242W        W87667  32.592  38.830   2.840
15243W        W87668   3.239  20.263  11.042
15244W        W87669  34.473  32.552  13.869
15245W        W87670  29.637  30.951  11.046
15246W        W87671  33.111   0.849  14.331
15247W        W87672  36.541  31.896   5.124
15248W        W87673   6.342  37.452  13.347
15249W        W87674  41.422  17.280  10.990
15250W        W87675  30.129  28.001  13.412
15251W        W87676  35.894  30.962   4.633
15252W        W87677  20.543  23.512  10.490
15253W        W87678  25.096  31.600  13.828
15254W        W87679  18.284  42.380  12.072
15255W        W87680  20.533   5.873  10.896
15256W        W87681  12.303  32.509   2.415
15257W        W87682   9.709  12.189   0.357
15258W        W87683  29.978  22.199  14.937
15259W        W87684  28.114   5.900  11.943
15260W        W87685  28.623  11.845   4.822
15261W        W87686  13.741  14.605  10.959
15262W        W87687  15.255  44.996   0.758
15263W        W87688  36.466  33.416   0.314
15264W        W87689  21.066  13.730   4.204
15265W        W87690  44.265  31.623  14.329
15266W        W87691   8.890  41.869  10.631
15267W        W87692  29.020  17.214  14.366
15268W        W87693  24.207   7.875  13.792
15269W        W87694  13.762   3.413  12.969
15270W        W87695  22.048   0.480  14.907
15271W        W87696   4.874  21.051  13.808
15272W        W87697  44.862   8.338  13.904
15273W        W87698  31.595  34.975   2.899
15274W        W87699  31.548  35.101   0.401
15275W        W87700   6.849  43.372  13.033
15276W        W87701  18.565  38.375   1.212
15277W        W87702   3.726   6.896  14.323
15278W        W87703  28.087  25.497   0.735
15279W        W87704   6.261  19.727  13.843
15280W        W87705  32.913   7.211   3.704
15281W        W87706   1.928  22.034   4.150
15282W        W87707  24.098  35.551   2.228
15283W        W87708  14.652   6.365   0.893
15284W        W87709  25.142  41.992  14.367
15285W        W87710  35.081  38.862  13.057
15286W        W87711  27.664  24.047  10.456
15287W        W87712  15.578  24.070  11.989
15288W        W87713  28.050   6.681   3.348
15289W        W87714   5.299  27.001  10.557
15290W        W87715  24.155  21.245   0.359
15291W        W87716  22.557  19.648  13.390
15292W        W87717  32.035  20.045  11.869
15293W        W87718  18.198   5.925  10.617
15294W        W87719  22.035  37.476   0.337
15295W        W87720  32.959  23.498  14.410
15296W        W87721  35.082  39.936  12.576
15297W        W87722  17.752   6.683  11.893
15298W        W87723  25.185  40.955   2.876
15299W        W87724  10.652  40.929   2.344
15300W        W87725  29.021  29.538  11.559
15301W        W87726  27.183  23.003   4.715
15302W        W87727  13.681  20.251  14.428
15303W        W87728  31.933  29.044   4.120
15304W        W87729  11.163  32.972   3.284
15305W        W87730   5.713  40.463   0.828
15306W        W87731   0.459   7.382  13.052
15307W        W87732  33.553  24.509  14.500
15308W        W87733  21.177   8.824   2.878
15309W        W87734  19.728  20.142   2.229
15310W        W87735  21.649  23.577  11.987
15311W        W87736   3.322  28.171  11.977
15312W        W87737  35.920   7.845   1.849
15313W        W87738   7.374  31.643   3.315
15314W        W87739  12.746  20.267  11.499
15315W        W87740  38.491  38.027  14.419
15316W        W87741  38.535  11.800   2.789
15317W        W87742  14.618  44.829   3.366
15318W        W87743   3.764   4.409  13.948
15319W        W87744  29.604  23.067   2.347
15320W        W87745  28.041  17.602   2.899
15321W        W87746   9.206   2.886  11.434
15322W        W87747  39.831   9.757  14.340
15323W        W87748  28.118  22.043  12.565
15324W        W87749  17.757  43.452   4.622
15325W        W87750  16.241  28.935  13.425
15326W        W87751   2.786  38.472  12.983
15327W        W87752  25.547  36.382   1.919
15328W        W87753  17.109   2.343   4.680
15329W        W87754  28.990  31.981   4.271
15330W        W87755  14.169   4.314   0.282
15331W        W87756  19.190  11.300  12.080
15332W        W87757  43.314   0.383  13.369
15333W        W87758  29.424  20.209   3.815
15334W        W87759  13.174  25.002   4.344
15335W        W87760  29.175  43.466   3.858
15336W        W87761  42.328  29.131  14.365
15337W        W87762  28.970   6.221  13.877
15338W        W87763  26.165  26.050   4.626
15339W        W87764  39.829  43.432   4.652
15340W        W87765  17.655  40.990  10.583
15341W        W87766  18.287  29.469  12.518
15342W        W87767  14.814  41.995   0.382
15343W        W87768   0.921  18.754  14.291
15344W        W87769  23.491  18.241   3.147
15345W        W87770  40.529  17.741   2.881
15346W        W87771  40.844  44.966   0.847
15347W        W87772   2.722  28.596  14.957
15348W        W87773  44.465  33.068   9.520
15349W        W87774  27.072   5.227  11.886
15350W        W87775  34.491  14.600   2.417
15351W        W87776  39.447  37.438  12.494
15352W        W87777  37.958  29.577   0.912
15353W        W87778  27.163   4.316  11.955
15354W        W87779   2.362  31.126  14.915
15355W        W87780  17.727  29.924   1.402
15356W        W87781  27.538  23.115  12.050
15357W        W87782  36.076  37.341   1.236
15358W        W87783  22.029  27.688   3.710
15359W        W87784  13.245  23.212   1.864
15360W        W87785  21.243  43.015   3.853
15361W        W87786  15.753  25.024  13.546
15362W        W87787  12.857  27.997   1.828
15363W        W87788   3.392  33.118   4.742
15364W        W87789  33.063  34.398  11.389
15365W        W87790   3.864  23.689  12.533
15366W        W87791   8.695  28.605  13.398
15367W        W87792   8.737  19.715   1.725
15368W        W87793  31.406  36.562   1.322
15369W        W87794  38.407  22.656  13.309
15370W        W87795  22.018   8.317   4.118
15371W        W87796   6.861   2.839   4.175
15372W        W87797  11.273  33.537   2.181
15373W        W87798   5.908  42.886   4.339
15374W        W87799  26.498   1.907  10.980
15375W        W87800  38.396  30.475  10.461
15376W        W87801  32.137  40.478  13.986
15377W        W87802  44.890  27.153   2.818
15378W        W87803  10.653  12.308   1.933
15379W        W87804  16.222  36.048   2.728
15380W        W87805  32.423  25.645  12.832
15381W        W87806  24.128  24.589  13.492
15382W        W87807  40.883  15.676   2.266
15383W        W87808  28.962  43.817  10.915
15384W        W87809  18.284  20.138  14.443
15385W        W87810   1.773   0.898   1.436
15386W        W87811  33.581  42.959  11.859
15387W        W87812  23.175  26.693  12.502
15388W        W87813  31.147   2.386   1.426
15389W        W87814  32.043  22.176   2.822
15390W        W87815  32.609  12.273   3.271
15391W        W87816   4.755  42.314  10.529
15392W        W87817  22.582  11.863  13.966
15393W        W87818  17.598  34.006  11.482
15394W        W87819  26.023  11.353  12.414
15395W        W87820  33.043  34.932   0.800
15396W        W87821  30.962  33.498  14.349
15397W        W87822   4.916   2.853   3.794
15398W        W87823  19.775  18.759   2.185
15399W        W87824  10.162  37.931   4.207
15400W        W87825  31.493  31.110   2.710
15401W        W87826  37.953  35.391  11.457
15402W        W87827   3.803  19.707  12.413
15403W        W87828  18.168  10.314  14.298
15404W        W87829  20.150   9.680  14.001
15405W        W87830  24.691  23.676  13.485
15406W        W87831  37.507  22.525  13.521
15407W        W87832  42.956  37.518  10.529
15408W        W87833  35.578  35.481  12.460
15409W        W87834  43.810  14.653   1.731
15410W        W87835  14.711   1.406  13.480
15411W        W87836  30.103  23.590   4.629
15412W        W87837  10.708  42.926  11.449
15413W        W87838  25.628  14.098   9.996
15414W        W87839  32.029  22.604   5.154
15415W        W87840   4.269  32.110  11.995
15416W        W87841  34.548  32.021   1.227
15417W        W87842  27.138  18.276  13.335
15418W        W87843  23.144  24.097  10.957
15419W        W87844  15.234  43.970   0.262
15420W        W87845   8.220  38.866  14.780
15421W        W87846  24.106  43.817   4.742
15422W        W87847  34.416  14.162   3.656
15423W        W87848  37.068   2.359   4.635
15424W        W87849   2.250   8.195  13.471
15425W        W87850  31.963  16.635  11.594
15426W        W87851  16.605  30.951  11.471
15427W        W87852  43.959   5.380   2.342
15428W        W87853  30.943  18.060  13.813
15429W        W87854  20.732   5.249   3.229
15430W        W87855  33.132  30.129  11.576
15431W        W87856  33.120  39.808  14.404
15432W        W87857  17.120  25.966   4.798
15433W        W87858  28.180  37.987  10.950
15434W        W87859  41.970  20.674   3.217
15435W        W87860  25.217  17.236   4.801
15436W        W87861  14.121   4.765   0.863
15437W        W87862  43.362   3.363   4.649
15438W        W87863  10.781  27.521   1.856
15439W        W87864   4.237   5.344   3.630
15440W        W87865  37.854  34.445   3.235
15441W        W87866  24.181  23.651  10.567
15442W        W87867  36.081   8.872  10.475
15443W        W87868  31.435  44.890  12.361
15444W        W87869  19.165  31.635  14.941
15445W        W87870  15.268  40.535   4.685
15446W        W87871   5.748   9.798   3.739
15447W        W87872  26.578   3.829  12.977
15448W        W87873   0.342  22.106   0.851
15449W        W87874  42.833  13.691  11.855
15450W        W87875   2.325  34.906   0.305
15451W        W87876  37.986  32.590   1.320
15452W        W87877  40.348  21.583   3.775
15453W        W87878  25.122  21.116   2.309
15454W        W87879   3.758   0.356  14.432
15455W        W87880  28.665  14.712   1.445
15456W        W87881  21.656  39.020  14.511
15457W        W87882  27.648  11.761  11.424
15458W        W87883  26.504  39.554   1.841
15459W        W87884  21.588  32.465  12.477
15460W        W87885  21.605  32.079  10.104
15461W        W87886  27.164   4.233  14.509
15462W        W87887  43.362  18.127  11.129
15463W        W87888  26.088   3.240  11.024
15464W        W87889   2.896  38.330  12.469
15465W        W87890  27.475  42.881   1.447
15466W        W87891  27.665  44.395   2.374
15467W        W87892  34.029  30.130  11.574
15468W        W87893  39.363  40.843  14.503
15469W        W87894  24.998  13.836  14.364
15470W        W87895  33.394  39.336  12.375
15471W        W87896  29.141  39.897  11.888
15472W        W87897  34.371   7.395  10.504
15473W        W87898  41.435  27.958  11.592
15474W        W87899  39.883  35.924  12.575
15475W        W87900  37.569  24.178   0.447
15476W        W87901  29.035  30.974   0.874
15477W        W87902  22.718  41.857  11.394
15478W        W87903  32.061  26.198   2.191
15479W        W87904   5.728   5.715   0.864
15480W        W87905  42.344  37.437  11.413
15481W        W87906   2.907  31.991   4.677
15482W        W87907   5.801   6.705  11.608
15483W        W87908  34.034  34.557   3.825
15484W        W87909  29.610  44.769   2.236
15485W        W87910   4.944  14.222  12.020
15486W        W87911   3.346  38.904  11.477
15487W        W87912   0.912  30.618   2.882
15488W        W87913  10.175   6.695   4.338
15489W        W87914   5.804  13.128  11.003
15490W        W87915  39.965  31.984  13.000
15491W        W87916  11.155  36.947   2.785
15492W        W87917  32.408  13.264   3.348
15493W        W87918   8.237  31.116   1.416
15494W        W87919  41.418  27.182   1.335
15495W        W87920  29.648  35.105  11.885
15496W        W87921  44.457  44.932   4.688
15497W        W87922  29.070   8.771  14.492
15498W        W87923  29.433  10.138  13.926
15499W        W87924  25.622  33.936  14.279
15500W        W87925  35.074  33.009  10.589
15501W        W87926   5.246   0.303   0.459
15502W        W87927  16.613  30.569   3.204
15503W        W87928   8.329  12.283   0.350
15504W        W87929  23.143   3.880   0.356
15505W        W87930   9.701  34.368   3.740
15506W        W87931  22.591  17.149  12.497
15507W        W87932  25.652  13.708   2.361
15508W        W87933  16.145  36.497   2.695
15509W        W87934  42.460  32.114   3.654
15510W        W87935  32.943  19.184  14.842
15511W        W87936  39.316  34.487   2.739
15512W        W87937  32.481   3.863  12.909
15513W        W87938  39.887  43.291   4.223
15514W        W87939  34.935  25.999  14.882
15515W        W87940  20.616  36.575   3.383
15516W        W87941  33.535  40.357   2.700
15517W        W87942  36.007  37.897  13.458
15518W        W87943  43.337  25.671  13.943
15519W        W87944  32.598  25.022  14.788
15520W        W87945   1.310  44.277  12.835
15521W        W87946  15.619  31.901   9.991
15522W        W87947  25.055  22.721  12.070
15523W        W87948  34.615   0.348   3.720
15524W        W87949  41.847  37.937   4.297
15525W        W87950   6.913  20.183  12.432
15526W        W87951  14.679   7.416  12.544
15527W        W87952  22.102  34.911  12.487
15528W        W87953  36.426  36.081   0.911
15529W        W87954  36.377  43.313  12.368
15530W        W87955  38.049   4.812   1.292
15531W        W87956  24.083  34.995   2.218
15532W        W87957   1.280  33.585  14.991
15533W        W87958  26.954  37.529  12.411
15534W        W87959  44.987  35.921   2.902
15535W        W87960  32.902  39.333  14.436
15536W        W87961   1.826  10.837   2.902
15537W        W87962  22.507  39.406  14.015
15538W        W87963  11.340  27.513  14.922
15539W        W87964   1.973  44.378   1.253
15540W        W87965  12.210  41.332   2.739
15541W        W87966  32.079  11.319  14.369
15542W        W87967  12.742   8.231  12.029
15543W        W87968  10.220  30.470  11.019
15544W        W87969  44.302   4.355   4.306
15545W        W87970  17.273  33.974  14.512
15546W        W87971  19.228   9.295  11.516
15547W        W87972  43.491  41.520   2.352
15548W        W87973  21.249  17.122  13.981
15549W        W87974   6.893   1.345  10.927
15550W        W87975  26.696  28.165  10.590
15551W        W87976  10.688  34.892  10.003
15552W        W87977  14.769  43.865   3.148
15553W        W87978  41.826  33.574  13.811
15554W        W87979  24.001  16.125  10.590
15555W        W87980  34.571  12.812   1.758
15556W        W87981  30.425  44.447   4.139
15557W        W87982   7.175  16.307   3.283
15558W        W87983  27.660  22.630   5.126
15559W        W87984  39.515  31.580   2.178
15560W        W87985  35.091  43.392   3.637
15561W        W87986  23.236  38.924   2.786
15562W        W87987  41.467  15.124  12.987
15563W        W87988  21.184   5.427   4.816
15564W        W87989  36.426  21.243  14.328
15565W        W87990   1.756  31.482  14.402
15566W        W87991  43.359  15.276  14.426
15567W        W87992  36.020  22.744  13.536
15568W        W87993   2.310  18.748  14.390
15569W        W87994  22.058  14.334  11.956
15570W        W87995  10.845  11.686  11.984
15571W        W87996   7.211  31.614  10.976
15572W        W87997  41.038  20.273   5.806
15573W        W87998  41.404  30.649  12.078
15574W        W87999  12.177  14.158   2.367
15575W        W88000  31.585  29.509   0.324
15576W        W88001  20.107  20.156   3.800
15577W        W88002  27.974  29.074   4.272
15578W        W88003  15.699  16.155   3.159
15579W        W88004  19.548  27.177   1.276
15580W        W88005   0.343  42.001   1.926
15581W        W88006  18.597  32.490   3.208
15582W        W88007  15.126   7.343  13.451
15583W        W88008  24.224  41.356  13.873
15584W        W88009  16.260  13.759  13.408
15585W        W88010  37.512  25.657   5.139
15586W        W88011  37.548  43.397   0.257
15587W        W88012   3.944  39.869   0.443
15588W        W88013  36.366  20.601   0.901
15589W        W88014  31.474  24.601  14.882
15590W        W88015  21.036  29.629   2.279
15591W        W88016  11.240  38.986  10.620
15592W        W88017   7.667  23.667  13.945
15593W        W88018  21.165  16.121  14.002
15594W        W88019  31.029  35.985   0.334
15595W        W88020  43.948  28.129  13.874
15596W        W88021  38.947  44.386   3.210
15597W        W88022  10.280  28.028  13.988
15598W        W88023  29.655   0.398   3.335
15599W        W88024  12.672   0.350  11.570
15600W        W88025  17.794  29.018   3.739
15601W        W88026  44.410  43.932   1.313
15602W        W88027  18.568  44.314   3.337
15603W        W88028   7.883  12.220  13.799
15604W        W88029   8.855  28.115   0.799
15605W        W88030  35.885  39.326  12.871
15606W        W88031   5.241  14.177   4.749
15607W        W88032   3.882  44.939   3.158
15608W        W88033   4.730  28.560  14.776
15609W        W88034   4.788  38.399   0.266
15610W        W88035  29.051   7.854   1.747
15611W        W88036  39.485  14.140  14.954
15612W        W88037   0.753   1.976  10.147
15613W        W88038  33.974  39.854   3.804
15614W        W88039  21.526   6.303  13.040
15615W        W88040  24.147  35.517  14.497
15616W        W88041  26.589  34.567  11.917
15617W        W88042  11.259  29.170  11.381
15618W        W88043   6.376  16.112   2.675
15619W        W88044  13.284   0.385   3.857
15620W        W88045  24.137  22.566  14.005
15621W        W88046  31.474   2.467   2.284
15622W        W88047  15.695  37.035  13.437
15623W        W88048   1.353  44.008  11.028
15624W        W88049  23.190   9.383   5.639
15625W        W88050  31.532  15.271  11.595
15626W        W88051  22.032  28.961   0.948
15627W        W88052  15.215  28.451  11.558
15628W        W88053  30.025  25.670   4.325
15629W        W88054   7.692  44.935   2.764
15630W        W88055  22.040  18.628   4.210
15631W        W88056   4.346  42.881   4.159
15632W        W88057  33.503  24.978   1.404
15633W        W88058  27.603  14.143   2.749
15634W        W88059  18.254  24.695  11.937
15635W        W88060   5.333  31.087  12.060
15636W        W88061  37.453  43.450  11.128
15637W        W88062   5.401   9.663  13.938
15638W        W88063  36.093  24.513   3.197
15639W        W88064  18.209  31.044   4.148
15640W        W88065  21.173   4.742  12.409
15641W        W88066  26.589  10.272   0.439
15642W        W88067   2.880  16.303  14.452
15643W        W88068  40.898  41.874   4.130
15644W        W88069  41.821  20.742  12.871
15645W        W88070  16.183  16.206   1.918
15646W        W88071  34.510   7.287   3.724
15647W        W88072  23.697   5.393  12.447
15648W        W88073  42.498   6.855  10.965
15649W        W88074   8.232  35.377   2.223
15650W        W88075  19.600  29.633  13.453
15651W        W88076  34.561  35.430   4.288
15652W        W88077  18.565  16.247   4.668
15653W        W88078   6.839  22.529   2.677
15654W        W88079  32.467  42.297   2.356
15655W        W88080  19.706  22.558  11.610
15656W        W88081  30.484  17.192   4.140
15657W        W88082  44.796   6.818   2.414
15658W        W88083  41.832   7.268  10.632
15659W        W88084  29.110   9.310  12.523
15660W        W88085  16.106  20.055   2.335
15661W        W88086   8.670  35.902   3.651
15662W        W88087  29.477  21.128   4.679
15663W        W88088   5.723   2.783   3.663
15664W        W88089  38.929   7.724  11.611
15665W        W88090  39.974  38.944   0.776
15666W        W88091  26.632   3.424  11.524
15667W        W88092  38.560  22.608   1.708
15668W        W88093  33.381   5.332   1.859
15669W        W88094  27.579   5.789  10.984
15670W        W88095  10.364  16.215   1.892
15671W        W88096  36.072  24.028  10.450
15672W        W88097   4.732   1.907  12.377
15673W        W88098  20.612  38.009   2.235
15674W        W88099  20.626  12.198  12.839
15675W        W88100  11.270  31.545  14.337
15676W        W88101  13.630  40.031   1.437
15677W        W88102  12.148  20.551   2.412
15678W        W88103  27.947  25.140  13.374
15679W        W88104  44.304  21.120   0.282
15680W        W88105  30.976   9.851   1.377
15681W        W88106  42.813  34.069   2.286
15682W        W88107  29.425  41.909  14.374
15683W        W88108  35.862  30.995  11.381
15684W        W88109  23.033  42.338  14.808
15685W        W88110  35.562   8.733   4.319
15686W        W88111  33.421  28.104   4.221
15687W        W88112  20.618  11.302   5.594
15688W        W88113  39.059  23.634  10.994
15689W        W88114  38.475  34.092   3.835
15690W        W88115  32.028   1.367   2.264
15691W        W88116  15.210  38.905  12.970
15692W        W88117  39.331   7.208   1.446
15693W        W88118  26.106   1.773   0.245
15694W        W88119  17.249  23.174  13.373
15695W        W88120  40.835  21.080  10.599
15696W        W88121  16.679  36.886  14.371
15697W        W88122  17.562  37.495  12.867
15698W        W88123   8.713  40.962  12.487
15699W        W88124  29.605  33.903   0.351
15700W        W88125  21.723  44.446  14.278
15701W        W88126  12.673   8.241  11.601
15702W        W88127   2.274  28.459   0.850
15703W        W88128  41.990  15.658   4.728
15704W        W88129   6.409  38.845   2.727
15705W        W88130  16.149   6.334  12.953
15706W        W88131  27.655  32.495   3.178
15707W        W88132  23.998  12.648  11.024
15708W        W88133  31.027   7.224   2.829
15709W        W88134  13.833   7.873   3.185
15710W        W88135  39.329   6.688   2.757
15711W        W88136   4.724   8.347  14.867
15712W        W88137   9.692  37.373   2.340
15713W        W88138  23.710  25.526   3.686
15714W        W88139  10.228  43.305   2.378
15715W        W88140  44.287  28.484  14.317
15716W        W88141  32.580   6.399  14.777
15717W        W88142  35.014  35.488  13.327
15718W        W88143  31.538  15.299  10.437
15719W        W88144   1.748  40.976  12.052
15720W        W88145  42.347  13.202   4.622
15721W        W88146  44.400  33.956   4.702
15722W        W88147  33.986  10.220   4.789
15723W        W88148  10.868   2.723   4.740
15724W        W88149  18.558  26.505   5.251
15725W        W88150  28.506  35.407  11.553
15726W        W88151  30.954  34.075   1.411
15727W        W88152  29.088  25.161   0.301
15728W        W88153  17.725  32.633  13.530
15729W        W88154  27.022   7.313  11.952
15730W        W88155  22.188   6.842   3.202
15731W        W88156  29.942   0.892   4.174
15732W        W88157  30.597   8.847   1.719
15733W        W88158  33.899  14.661   2.816
15734W        W88159  26.582  25.074   4.602
15735W        W88160   7.393  36.449  13.317
15736W        W88161   8.240  11.743  12.010
15737W        W88162  37.067  31.074  14.491
15738W        W88163  42.797   7.875  14.795
15739W        W88164  24.705  10.206   1.216
15740W        W88165  22.182  18.147   0.897
15741W        W88166   2.880  26.458  12.994
15742W        W88167   5.203  39.962  12.398
15743W        W88168  42.357  21.550  14.354
15744W        W88169  23.192  38.010   3.269
15745W        W88170  32.946  30.052  10.553
15746W        W88171   0.785   7.801  11.388
15747W        W88172   0.932   9.852   4.612
15748W        W88173  15.229  14.653   1.443
15749W        W88174  42.408  44.487   4.151
15750W        W88175  37.854  22.219   2.749
15751W        W88176   1.957  28.104   4.156
15752W        W88177  37.476   3.883  14.915
15753W        W88178  24.599  42.028   0.917
15754W        W88179  44.891  26.078   4.345
15755W        W88180  39.881   4.840   1.911
15756W        W88181   2.441  34.045  13.037
15757W        W88182   2.465  43.339   4.226
15758W        W88183  26.668  12.257  14.302
15759W        W88184   9.720   5.771  11.881
15760W        W88185  41.859  25.087  13.951
15761W        W88186  39.366  35.071   4.793
15762W        W88187  31.049  15.175  14.398
15763W        W88188  35.449  30.502   1.846
15764W        W88189  10.766  44.836  10.995
15765W        W88190  25.110  39.974   1.379
15766W        W88191   2.801  17.249   2.704
15767W        W88192   4.863  30.540  10.993
15768W        W88193  31.954  24.628   4.285
15769W        W88194  22.673  30.608   3.221
15770W        W88195  18.050  26.598  11.090
15771W        W88196  35.458  24.120   4.200
15772W        W88197  20.124  43.446  10.409
15773W        W88198  20.658  33.935   1.902
15774W        W88199   2.277  44.273  12.552
15775W        W88200  14.292  32.066   1.435
15776W        W88201  24.223  14.286   5.310
15777W        W88202  31.487  41.864   3.851
15778W        W88203   8.898  11.324   2.357
15779W        W88204  28.585  14.184   3.190
15780W        W88205  16.175  43.384   4.747
15781W        W88206  32.126  42.405  14.947
15782W        W88207  30.937  19.719   3.846
15783W        W88208  17.637   7.852  12.001
15784W        W88209  40.816  12.697   0.301
15785W        W88210  33.049  43.864   1.867
15786W        W88211   6.677  13.156   2.204
15787W        W88212  10.838  13.797  13.358
15788W        W88213   1.368  31.505  11.913
15789W        W88214  36.484   8.736  14.382
15790W        W88215  10.844  29.531  10.480
15791W        W88216   1.252  27.687   0.956
15792W        W88217   9.801  28.975  12.861
15793W        W88218  31.536  40.424   2.673
15794W        W88219  28.974   1.768  10.637
15795W        W88220   4.908  41.315   3.664
15796W        W88221   5.311  38.422   3.684
15797W        W88222  22.125  18.171   3.371
15798W        W88223  18.713  24.579  12.519
15799W        W88224  42.999  15.643  13.029
15800W        W88225  21.556  16.232  11.523
15801W        W88226  11.348  43.361   2.682
15802W        W88227   8.400  27.952   1.900
15803W        W88228  13.165   7.775   3.799
15804W        W88229  29.016  15.731  13.028
15805W        W88230  27.525  44.999  10.954
15806W        W88231  12.710  34.581  10.428
15807W        W88232  41.313   5.297  10.634
15808W        W88233  15.772  29.477   2.731
15809W        W88234  23.165  40.412  10.481
15810W        W88235  36.423  35.886  12.475
15811W        W88236   6.845  13.304  12.409
15812W        W88237  12.339  32.993   3.325
15813W        W88238  15.127  25.189   1.353
15814W        W88239  25.160  26.533  11.538
15815W        W88240  38.060   7.350   1.914
15816W        W88241  18.733  42.291   4.667
15817W        W88242  13.176  43.889   4.622
15818W        W88243  28.665  24.207   0.366
15819W        W88244  15.761  14.207   0.324
15820W        W88245  26.997   4.421   4.775
15821W        W88246  27.091   7.172  10.974
15822W        W88247   4.338  13.149   0.305
15823W        W88248  43.989  22.598   3.856
15824W        W88249  44.966  21.666   2.833
15825W        W88250  21.104  17.595   1.246
15826W        W88251  40.047  12.342   2.321
15827W        W88252  36.586  13.672   1.292
15828W        W88253   9.808  42.840   2.872
15829W        W88254  23.666   3.883   3.297
15830W        W88255  12.748  15.247  11.593
15831W        W88256  34.408   9.874   2.349
15832W        W88257   9.765  30.021   0.918
15833W        W88258  32.006  43.909   4.146
15834W        W88259  14.332  32.520   0.468
15835W        W88260  21.569   6.834   0.880
15836W        W88261  18.605  23.699   1.713
15837W        W88262  15.583  36.049  11.933
15838W        W88263   3.903  20.619   0.832
15839W        W88264  12.210   6.409   2.302
15840W        W88265  29.961  12.337  11.867
15841W        W88266  13.707  15.159   4.623
15842W        W88267  26.544  19.533  10.501
15843W        W88268  39.910  17.563   1.933
15844W        W88269  44.805  28.974  14.867
15845W        W88270  39.051   0.861   9.920
15846W        W88271  11.749  37.467  13.929
15847W        W88272  35.560  38.551  13.383
15848W        W88273  35.038  32.989   2.721
15849W        W88274   6.327   7.284  11.956
15850W        W88275  36.424  18.065  10.634
15851W        W88276  16.080  35.482  13.004
15852W        W88277  31.928   4.269  11.419
15853W        W88278  13.155  36.492   0.871
15854W        W88279  41.019  40.397   4.687
15855W        W88280  25.557   1.279  10.935
15856W        W88281  23.195   0.390   0.329
15857W        W88282   2.721   1.469   4.818
15858W        W88283   4.865  29.535  10.922
15859W        W88284   3.309  12.844  13.348
15860W        W88285  12.744  12.636  13.546
15861W        W88286  33.461   1.868  11.381
15862W        W88287  41.360  33.453  12.514
15863W        W88288   4.786  15.635   4.653
15864W        W88289   0.293  18.644   1.708
15865W        W88290   0.305  40.802  13.924
15866W        W88291  37.837  31.456   1.846
15867W        W88292   2.393  36.573   0.759
15868W        W88293   7.723  16.177   1.714
15869W        W88294  42.780  15.721  10.431
15870W        W88295   2.340  40.038  10.946
15871W        W88296   8.695  14.114   0.377
15872W        W88297   2.344  34.430  14.002
15873W        W88298   7.179  23.490  11.880
15874W        W88299  32.460  32.625  14.794
15875W        W88300  36.536  28.492  10.558
15876W        W88301  16.650  38.496  12.569
15877W        W88302  24.119   5.396   4.784
15878W        W88303  30.035  15.153  13.873
15879W        W88304  43.774  10.367   0.903
15880W        W88305   2.365  17.765  11.960
15881W        W88306  41.953  16.313  12.379
15882W        W88307   5.247  28.577   3.720
15883W        W88308  23.638  31.055   1.820
15884W        W88309  35.359  36.395   2.681
15885W        W88310  23.636  44.757   0.431
15886W        W88311  33.912  41.471  11.881
15887W        W88312   6.680  22.226   0.739
15888W        W88313  24.197  20.086  11.419
15889W        W88314   5.781  19.646  10.563
15890W        W88315  28.131   5.762  12.358
15891W        W88316  25.103   1.278  11.999
15892W        W88317  27.597  14.810   3.386
15893W        W88318  37.428  43.852  12.462
15894W        W88319  21.674  13.268  11.552
15895W        W88320  40.506  29.491  11.422
15896W        W88321  41.338  18.627  11.938
15897W        W88322  25.122   0.454  14.405
15898W        W88323  14.700  40.885  14.758
15899W        W88324   9.881  42.873   0.868
15900W        W88325  30.566   0.838   1.286
15901W        W88326  15.213   9.851   1.278
15902W        W88327  24.189   9.170  10.490
15903W        W88328   0.284   6.319  12.006
15904W        W88329  23.736  26.037  14.471
15905W        W88330  16.670   4.827   0.899
15906W        W88331  31.083   6.823  13.804
15907W        W88332  38.944  29.931  12.946
15908W        W88333   6.348  35.982  12.526
15909W        W88334  30.008  26.006   4.665
15910W        W88335   6.857  16.309  12.838
15911W        W88336  36.409   8.301   0.397
15912W        W88337  30.659  12.781   1.399
15913W        W88338  32.001  31.639  13.889
15914W        W88339  18.218  27.470   0.805
15915W        W88340  35.470  23.168  10.451
15916W        W88341  28.452  38.845   0.966
15917W        W88342  43.350  23.619  11.397
15918W        W88343   6.205  13.617  12.363
15919W        W88344  29.582  18.573   0.473
15920W        W88345   4.243  44.455   1.278
15921W        W88346  33.933   6.356  10.523
15922W        W88347  29.664  28.475  12.928
15923W        W88348  18.757   1.790  11.869
15924W        W88349  15.094   8.846   4.829
15925W        W88350  42.967  20.105   2.677
15926W        W88351  21.233  26.622  11.896
15927W        W88352  26.166  42.399   0.396
15928W        W88353  32.601  29.941  11.424
15929W        W88354   5.298  20.699  13.335
15930W        W88355   9.260  41.334  14.283
15931W        W88356  10.272   2.336   0.274
15932W        W88357  10.149  16.654   2.284
15933W        W88358  27.520   8.361  11.083
15934W        W88359  17.097   4.892  14.932
15935W        W88360   5.291  41.790   2.251
15936W        W88361  24.594  10.179  13.309
15937W        W88362  33.401  12.177  12.939
15938W        W88363  25.561  36.407  12.399
15939W        W88364  36.009   2.900  14.511
15940W        W88365  24.026  12.731  13.020
15941W        W88366  32.618   7.828  12.045
15942W        W88367  44.952  15.596  13.527
15943W        W88368  12.723  25.167  13.874
15944W        W88369  31.067  11.863   3.186
15945W        W88370  26.010  28.002  14.777
15946W        W88371  44.916  25.543   4.171
15947W        W88372  14.726  16.124  13.936
15948W        W88373  35.080  25.524  12.355
15949W        W88374  16.811  21.248   1.764
15950W        W88375   8.161  30.473   2.662
15951W        W88376  28.609  38.960  12.976
15952W        W88377   4.310  12.736  13.527
15953W        W88378  17.631   1.423   2.886
15954W        W88379   3.933   6.777  14.758
15955W        W88380  42.780   4.384   0.362
15956W        W88381  12.752  17.078  11.066
15957W        W88382  32.487  17.108  12.473
15958W        W88383  24.152   8.231  14.897
15959W        W88384   7.881  16.295  10.618
15960W        W88385  16.161   2.247   1.902
15961W        W88386  25.079   5.259  11.007
15962W        W88387  18.229  40.880   3.236
15963W        W88388  11.309  35.035   4.638
15964W        W88389  28.448  27.142   2.216
15965W        W88390   4.843  27.575  12.833
15966W        W88391  27.569   7.754   0.373
15967W        W88392  18.571  10.814   4.121
15968W        W88393  17.612  21.183   3.740
15969W        W88394  19.242  29.464   3.774
15970W        W88395  12.643  11.145   0.808
15971W        W88396  30.651  37.920  13.331
15972W        W88397  14.215  22.236   3.810
15973W        W88398  24.153  24.215   4.239
15974W        W88399  11.167  39.473   0.901
15975W        W88400  26.493  18.167   3.750
15976W        W88401   9.276  11.838  10.609
15977W        W88402   9.766  13.309   4.668
15978W        W88403  19.747   1.397   4.153
15979W        W88404  30.625  14.292   3.815
15980W        W88405  19.219  44.942   2.726
15981W        W88406  23.632   2.804  10.905
15982W        W88407  23.132  27.013   2.784
15983W        W88408   2.447  14.728   4.333
15984W        W88409  34.988  25.704  12.980
15985W        W88410  21.692  18.053   1.383
15986W        W88411  33.877   4.309  14.431
15987W        W88412  25.111  34.099  11.087
15988W        W88413  26.101  16.801   0.848
15989W        W88414  22.019  14.162  12.997
15990W        W88415  10.823  41.896   2.833
15991W        W88416  13.193  35.409  14.871
15992W        W88417  15.661  28.444   2.810
15993W        W88418  12.849  13.161   4.760
15994W        W88419  40.395  39.399   3.851
15995W        W88420  32.078  36.413  10.547
15996W        W88421   6.372  42.326  12.881
15997W        W88422  36.375  34.985   5.204
15998W        W88423   7.250  22.649  14.441
15999W        W88424  22.063  14.313   2.198
16000W        W88425  13.141  18.078  14.481
16001W        W88426   6.386   5.803  12.048
16002W        W88427  25.113  26.044   1.328
16003W        W88428  11.154  18.560  14.427
16004W        W88429  31.918  25.169  12.916
16005W        W88430  12.133  32.401  10.586
16006W        W88431  25.692  37.529  10.434
16007W        W88432  12.343   1.800   4.273
16008W        W88433  18.556  15.813   2.224
16009W        W88434  10.799   5.194  11.430
16010W        W88435  35.988   3.875   0.362
16011W        W88436  16.093  22.599   0.730
16012W        W88437  17.634  10.178   0.730
16013W        W88438  23.136  44.386   4.744
16014W        W88439  26.176  35.916  14.454
16015W        W88440  32.572   2.468  13.925
16016W        W88441  13.607   5.428   4.311
16017W        W88442   1.388   3.241   2.882
16018W        W88443  33.566  34.053   0.418
16019W        W88444  17.109  37.838  11.876
16020W        W88445  32.009   3.822   3.182
16021W        W88446   5.234  43.856  14.846
16022W        W88447  23.632  29.588   4.191
16023W        W88448  40.317  11.231  14.382
16024W        W88449  35.856  31.960   3.362
16025W        W88450   5.867  36.450   3.209
16026W        W88451  37.504   2.877   0.733
16027W        W88452  44.426  30.158   4.294
16028W        W88453  11.752  11.210   2.343
16029W        W88454  20.207  29.925  11.876
16030W        W88455  44.817  22.024   1.327
16031W        W88456   3.743  12.177  13.350
16032W        W88457  37.853  37.528   1.311
16033W        W88458  17.095  17.712   1.860
16034W        W88459  31.091   8.778  14.890
16035W        W88460  15.085  19.645  11.061
16036W        W88461  10.643  44.854   4.711
16037W        W88462  35.451  28.976  11.465
16038W        W88463  14.598  27.140  12.835
16039W        W88464   0.952  12.180   0.397
16040W        W88465  19.736  23.087  14.511
16041W        W88466   9.193  28.021  10.408
16042W        W88467   1.889  21.745  11.479
16043W        W88468  26.192   0.347  12.417
16044W        W88469  38.028  17.101   0.855
16045W        W88470  35.908  42.976  14.872
16046W        W88471  11.667   8.700   4.635
16047W        W88472  17.258  11.631   3.146
16048W        W88473  42.295  44.303  12.457
16049W        W88474  44.368   0.278   1.314
16050W        W88475  17.732   3.808  14.323
16051W        W88476  32.123  16.632  12.935
16052W        W88477  38.565  34.913  12.996
16053W        W88478   5.805  16.737   3.740
16054W        W88479  13.150  37.365   0.472
16055W        W88480  20.123  30.559   1.302
16056W        W88481  34.047  17.082   3.768
16057W        W88482   7.380  40.509   1.228
16058W        W88483  19.191  27.118  11.434
16059W        W88484  20.632   2.320  11.445
16060W        W88485  19.172  33.486  13.040
16061W        W88486   5.307  18.667  13.449
16062W        W88487  25.604  26.028  11.399
16063W        W88488  10.237   2.800   1.319
16064W        W88489  32.903  29.995   4.269
16065W        W88490  38.831   6.780   4.113
16066W        W88491  35.560  25.705   2.840
16067W        W88492  42.998   3.888   1.763
16068W        W88493  25.175  28.637   3.766
16069W        W88494  16.749  23.717   0.482
16070W        W88495   7.885  41.024   4.698
16071W        W88496  35.583  28.493   0.303
16072W        W88497  16.223  18.101   3.743
16073W        W88498  43.774  15.135  10.478
16074W        W88499   9.787  44.279  11.486
16075W        W88500  29.955  17.752  12.497
16076W        W88501  17.234  35.105   5.263
16077W        W88502  36.441  39.411   3.330
16078W        W88503  19.213   6.410   1.893
16079W        W88504  12.851  20.136  13.911
16080W        W88505  12.772   0.445   2.754
16081W        W88506  26.515  23.556   4.710
16082W        W88507  28.138   6.269  11.920
16083W        W88508   7.884  17.307  11.904
16084W        W88509  17.133  39.930   3.858
16085W        W88510  41.295  22.239  12.868
16086W        W88511  17.222  23.103   1.270
16087W        W88512  17.186  21.030   0.249
16088W        W88513  23.214  37.902  10.579
16089W        W88514   1.358  13.217   1.258
16090W        W88515  44.368  35.056   9.987
16091W        W88516  13.324   8.182  14.304
16092W        W88517   0.470   1.363  10.954
16093W        W88518  38.950  36.895  12.557
16094W        W88519  40.804  13.242  13.047
16095W        W88520  34.555  18.671  12.015
16096W        W88521  27.478  14.715   1.895
16097W        W88522  32.572   9.792  13.525
16098W        W88523   2.905   5.301   2.721
16099W        W88524  41.805  36.088  14.822
16100W        W88525  38.975   5.817  12.350
16101W        W88526  39.422  38.377  14.512
16102W        W88527  37.894  33.880   2.715
16103W        W88528  23.086  11.770  11.521
16104W        W88529   9.860  33.380  14.372
16105W        W88530  43.455  10.633  14.458
16106W        W88531  11.169  25.682   0.928
16107W        W88532  16.200   2.884   3.824
16108W        W88533  12.820  20.168   4.789
16109W        W88534  37.459   7.682   4.641
16110W        W88535  23.592  27.565  14.762
16111W        W88536  42.893  12.664  13.378
16112W        W88537   1.895  10.754  12.990
16113W        W88538  34.569  23.557   1.329
16114W        W88539  39.962  16.618  11.124
16115W        W88540  30.969  15.727   4.238
16116W        W88541  41.313  13.266  12.959
16117W        W88542  32.016   4.840   2.700
16118W        W88543  22.542  26.189   1.412
16119W        W88544  15.626  18.245   4.124
16120W        W88545  18.775  17.131   0.401
16121W        W88546  16.629  37.936   0.383
16122W        W88547  19.133   2.890   4.630
16123W        W88548  31.607   6.848  10.462
16124W        W88549  26.657   3.833   0.780
16125W        W88550  44.851   0.375   1.384
16126W        W88551  23.153  26.487  11.540
16127W        W88552  38.511  28.464   3.305
16128W        W88553  22.599  34.375  12.481
16129W        W88554  25.537   6.213   0.945
16130W        W88555  12.351  11.809  12.014
16131W        W88556  21.522   9.654  13.925
16132W        W88557  27.120  27.058  10.448
16133W        W88558  21.755  35.021  14.416
16134W        W88559  30.972  21.044  14.839
16135W        W88560   4.752  39.450  11.077
16136W        W88561  19.159   3.885  12.825
16137W        W88562  22.636  33.973  13.880
16138W        W88563   3.419   4.362  14.958
16139W        W88564   1.931  13.297  11.969
16140W        W88565  33.468  25.494  10.587
16141W        W88566  21.585   1.733  13.520
16142W        W88567  40.005  16.075  11.006
16143W        W88568  40.894  43.774  10.508
16144W        W88569  40.348  17.578  12.084
16145W        W88570  27.005   3.726   1.826
16146W        W88571  20.049  40.468   3.840
16147W        W88572  42.890  33.563  11.372
16148W        W88573  14.278  17.068   1.418
16149W        W88574  14.167  26.467   1.909
16150W        W88575  12.818  39.031   0.783
16151W        W88576  13.312  11.679  11.462
16152W        W88577  42.289  20.170   2.251
16153W        W88578  35.358   2.952   4.130
16154W        W88579   3.362  21.549   1.448
16155W        W88580  23.549  23.195   4.794
16156W        W88581  24.187  13.843   4.136
16157W        W88582   4.930  38.951   2.304
16158W        W88583  40.990  33.405   0.443
16159W        W88584  10.253   9.330  12.869
16160W        W88585  16.111  37.362   2.709
16161W        W88586  18.116  15.796  11.463
16162W        W88587  15.268  32.031  10.089
16163W        W88588  20.183  14.188  13.005
16164W        W88589  22.244   0.424   4.163
16165W        W88590  12.633   4.376   3.349
16166W        W88591  21.038  31.135  12.365
16167W        W88592  39.342  15.770  12.916
16168W        W88593  14.709   7.304  12.920
16169W        W88594  10.729  29.171  14.816
16170W        W88595   9.330  20.099  12.409
16171W        W88596  34.990  33.956   2.790
16172W        W88597   2.803  44.408  12.884
16173W        W88598  28.476  40.481   3.257
16174W        W88599  38.928  27.604   2.817
16175W        W88600   7.672   1.914  11.114
16176W        W88601  44.761  39.923   3.804
16177W        W88602   4.325  36.925   1.230
16178W        W88603   9.272  44.336  11.087
16179W        W88604  22.018  39.993   2.894
16180W        W88605   6.392  37.422   2.857
16181W        W88606  34.985  29.155   0.392
16182W        W88607   4.903  27.133  10.969
16183W        W88608  42.783  25.108  13.486
16184W        W88609  16.695  17.557  12.432
16185W        W88610  20.635  32.914   3.335
16186W        W88611   2.449  44.331   0.819
16187W        W88612  27.050  25.158  13.859
16188W        W88613   0.889  11.183   2.853
16189W        W88614  29.549  28.444  11.384
16190W        W88615  44.985   5.858   0.897
16191W        W88616  13.814  21.756  12.830
16192W        W88617  38.900  27.624   3.810
16193W        W88618   0.743  16.259  10.581
16194W        W88619  10.678  21.117   2.843
16195W        W88620  28.662  31.623  12.018
16196W        W88621  36.946  13.178   1.401
16197W        W88622  25.538  44.966  12.538
16198W        W88623   0.482   5.276  11.973
16199W        W88624  30.435  18.281  11.565
16200W        W88625   6.842  33.530  11.597
16201W        W88626  40.530  24.019   3.215
16202W        W88627  44.259  41.860   0.354
16203W        W88628  40.900   8.320   2.337
16204W        W88629   0.458  27.155   3.276
16205W        W88630  11.851  32.038  10.599
16206W        W88631  29.072   6.907   3.161
16207W        W88632  34.575  34.048   3.277
16208W        W88633   3.910  35.455  12.556
16209W        W88634  36.935  26.675  13.022
16210W        W88635  21.620   4.832  11.593
16211W        W88636   6.730  10.700   0.481
16212W        W88637  26.036  27.095   1.898
16213W        W88638   6.826  21.651   2.825
16214W        W88639   0.337  16.225   3.279
16215W        W88640  26.529  22.685  11.068
16216W        W88641  14.120   5.835   0.916
16217W        W88642   0.850  29.574  12.524
16218W        W88643  37.990   2.749  10.447
16219W        W88644  11.179  22.588  10.425
16220W        W88645  32.984  33.876   4.174
16221W        W88646  37.034  15.656   3.300
16222W        W88647  39.329  14.807   3.753
16223W        W88648  42.932   6.795  14.817
16224W        W88649  36.916  25.103   3.716
16225W        W88650  35.418  30.549   4.296
16226W        W88651  26.198  32.526   3.279
16227W        W88652  41.861  33.042  11.122
16228W        W88653  34.467   3.720   1.712
16229W        W88654  19.611  14.617  10.535
16230W        W88655  22.103  30.047   2.336
16231W        W88656   8.755   6.371  12.905
16232W        W88657  36.533  33.874  13.805
16233W        W88658   1.281  14.708  12.972
16234W        W88659  10.684   5.859  14.351
16235W        W88660   9.746  43.969   3.162
16236W        W88661  13.332  15.271   3.259
16237W        W88662  11.330  27.160   4.126
16238W        W88663   2.953  38.042   2.806
16239W        W88664  33.067  16.084  12.576
16240W        W88665  39.877  14.823  10.906
16241W        W88666  16.164  28.098   3.651
16242W        W88667  17.744  30.635  11.397
16243W        W88668  21.726  40.443  13.890
16244W        W88669  33.122  17.067  14.376
16245W        W88670   8.188  17.080  13.451
16246W        W88671  42.941   6.896   1.747
16247W        W88672   1.861   0.486  12.438
16248W        W88673   5.762  36.915   2.196
16249W        W88674  33.516  31.429   3.331
16250W        W88675  36.029  10.636  14.861
16251W        W88676  37.445   9.856   3.352
16252W        W88677   2.429   3.736  13.904
16253W        W88678   0.279  14.289  14.408
16254W        W88679  28.001  25.471   1.927
16255W        W88680   6.799  38.344  12.071
16256W        W88681  15.796  41.023  12.958
16257W        W88682   6.217  19.257  11.470
16258W        W88683  25.187  20.686   9.993
16259W        W88684  24.038  15.229   4.619
16260W        W88685  22.736   3.448  12.543
16261W        W88686  29.509  42.869   9.944
16262W        W88687   3.940  31.993  11.490
16263W        W88688  41.042  35.467  14.288
16264W        W88689  26.584  28.041  14.003
16265W        W88690  34.492  37.858   2.744
16266W        W88691  34.515  34.487  13.887
16267W        W88692  16.267  15.221  11.383
16268W        W88693  36.964  25.657   0.866
16269W        W88694  39.916   5.323  14.303
16270W        W88695   1.798   7.277  11.471
16271W        W88696  38.868  16.238   4.258
16272W        W88697  37.948  30.935   2.351
16273W        W88698  11.812  19.199   4.174
16274W        W88699  24.026  15.173   3.318
16275W        W88700  28.662   1.276  13.505
16276W        W88701   3.729  32.597   2.830
16277W        W88702   4.332  36.388   4.738
16278W        W88703  33.997  12.622   3.825
16279W        W88704  15.671  44.385   2.669
16280W        W88705  28.508   1.305   3.273
16281W        W88706  13.164  12.738   3.803
16282W        W88707  15.654  20.058   3.277
16283W        W88708   6.756  41.459   1.865
16284W        W88709  38.050  11.328   3.826
16285W        W88710  11.269   2.960  14.793
16286W        W88711  40.395  37.480   4.740
16287W        W88712   8.209   1.363  11.537
16288W        W88713  39.015  42.307   3.799
16289W        W88714  33.012   1.410  11.408
16290W        W88715  13.769  23.143   5.655
16291W        W88716   6.905   3.880   3.825
16292W        W88717  44.943  30.994  12.354
16293W        W88718   6.768  21.199  12.545
16294W        W88719   2.921  18.204   1.891
16295W        W88720  10.145  14.698   3.711
16296W        W88721   8.866   6.380   1.852
16297W        W88722  19.614  15.258   0.458
16298W        W88723  10.337  33.483   2.776
16299W        W88724  40.458  20.743   0.938
16300W        W88725  15.206  21.142  13.489
16301W        W88726  11.361  42.318  11.557
16302W        W88727  30.927  13.638  13.823
16303W        W88728  24.640  17.271   4.623
16304W        W88729  38.545  37.968  13.329
16305W        W88730   5.702  13.812   2.866
16306W        W88731  30.017  38.069  13.470
16307W        W88732   9.681  36.966   1.348
16308W        W88733  33.050  34.099  12.878
16309W        W88734  10.349  38.898   3.250
16310W        W88735  11.313   0.299  14.831
16311W        W88736  11.820   2.442  13.461
16312W        W88737  13.841   1.382   0.462
16313W        W88738  43.350   5.346   1.369
16314W        W88739  10.871  29.478  12.481
16315W        W88740  16.813  26.652  14.333
16316W        W88741  18.114  22.568   1.877
16317W        W88742   9.201   2.773   1.727
16318W        W88743  26.563   0.374   2.347
16319W        W88744  29.465  44.407  11.921
16320W        W88745  43.402  20.556  12.990
16321W        W88746   8.389   4.400  14.850
16322W        W88747  12.724  44.010  13.946
16323W        W88748  17.703  18.753  13.995
16324W        W88749   1.387  20.142  13.044
16325W        W88750   8.366  31.113   4.815
16326W        W88751   5.868  29.993  12.024
16327W        W88752  26.502   6.845  11.569
16328W        W88753  17.130  21.103   4.685
16329W        W88754  29.155  26.190   0.730
16330W        W88755  21.513  22.110   0.807
16331W        W88756  40.532  31.053  12.931
16332W        W88757  11.760  19.161  11.062
16333W        W88758  40.804  12.153  13.902
16334W        W88759  10.635   0.298  13.823
16335W        W88760  44.810   9.668   4.187
16336W        W88761  27.044  23.729   4.758
16337W        W88762  39.007  17.292  13.961
16338W        W88763  44.493  31.409   3.211
16339W        W88764  43.355  18.599   2.322
16340W        W88765   1.816   5.745  11.585
16341W        W88766  26.205   7.755   4.273
16342W        W88767  15.619  37.558  12.900
16343W        W88768  20.051  11.173  12.363
16344W        W88769   7.335   7.244   2.333
16345W        W88770  20.214  26.615  14.907
16346W        W88771  24.658  12.309   4.327
16347W        W88772  20.076  44.319   0.361
16348W        W88773  35.032   3.838   0.429
16349W        W88774  40.317  43.436   2.369
16350W        W88775  22.729  10.268  10.479
16351W        W88776   8.242  23.044  13.433
16352W        W88777   2.759  39.015   4.172
16353W        W88778  30.474  43.369   3.663
16354W        W88779  22.251  30.085  13.380
16355W        W88780  12.713   8.868  12.064
16356W        W88781  12.198  22.072   0.789
16357W        W88782  33.982  32.398  11.390
16358W        W88783   4.717  35.055   0.897
16359W        W88784  14.160  41.934  14.818
16360W        W88785  44.898  33.600   4.300
16361W        W88786  44.834  11.327   0.411
16362W        W88787  43.320   5.193  10.411
16363W        W88788   7.327  40.875   1.287
16364W        W88789  38.825   4.872  13.004
16365W        W88790   7.863   5.764  13.941
16366W        W88791  10.663  32.456  12.351
16367W        W88792  31.073  33.419   3.708
16368W        W88793  32.452   1.939   0.844
16369W        W88794  10.726  15.684  13.357
16370W        W88795   0.381  27.992  14.373
16371W        W88796  40.013  10.804   1.803
16372W        W88797  25.577  29.545  14.764
16373W        W88798  33.509  13.626   0.295
16374W        W88799  39.539  23.679  11.451
16375W        W88800  44.763   2.727  11.577
16376W        W88801  34.869   4.745  12.451
16377W        W88802  22.202  37.866  10.954
16378W        W88803  42.977   4.416   2.227
16379W        W88804  15.310  30.024  14.286
16380W        W88805  33.588  10.357  13.835
16381W        W88806  19.688  15.083   2.337
16382W        W88807  33.455  34.880   4.763
16383W        W88808   4.250  35.390  14.455
16384W        W88809  17.091  33.424   0.787
16385W        W88810  43.505  43.876   4.195
16386W        W88811   4.819  11.644  12.505
16387W        W88812   1.267  39.358  14.510
16388W        W88813  12.319   3.398   3.298
16389W        W88814  16.614  18.132   4.614
16390W        W88815  20.201  20.173  11.548
16391W        W88816  42.004  15.204   4.298
16392W        W88817  38.988  10.192   4.769
16393W        W88818  30.956   8.308   0.766
16394W        W88819  20.043  25.067  12.416
16395W        W88820  15.624  43.516  11.487
16396W        W88821  38.327  43.308  10.997
16397W        W88822  41.956  35.929   3.724
16398W        W88823  24.192   7.285   3.331
16399W        W88824  37.973  22.697  11.441
16400W        W88825  33.382  43.327   3.187
16401W        W88826   0.318   2.772   3.819
16402W        W88827  31.948  30.629   3.693
16403W        W88828  25.587  40.930   0.739
16404W        W88829  42.785   9.669  14.848
16405W        W88830  43.365  23.575   1.749
16406W        W88831  30.609  15.697   2.820
16407W        W88832  25.693   8.830  12.483
16408W        W88833  36.396  37.569   2.885
16409W        W88834  10.281  41.815  13.353
16410W        W88835  42.923  23.036   1.264
16411W        W88836  44.463  20.563  14.885
16412W        W88837  23.722   5.826  10.526
16413W        W88838  35.363  22.570  10.474
16414W        W88839  36.853  32.599   4.705
16415W        W88840   8.355   5.691  10.898
16416W        W88841  25.046  43.954  12.838
16417W        W88842  35.874  25.025  13.887
16418W        W88843  28.078   2.351   1.783
16419W        W88844  13.747  11.837  11.033
16420W        W88845  19.716   1.352  10.564
16421W        W88846  41.849   9.226  11.894
16422W        W88847   4.429  23.118   3.651
16423W        W88848  21.622  13.281   0.423
16424W        W88849   5.327   9.337   2.877
16425W        W88850  32.489  27.528  14.298
16426W        W88851  26.957  11.169  11.018
16427W        W88852   3.868  16.783  12.340
16428W        W88853  42.444  32.934  12.885
16429W        W88854   4.779  25.527   1.761
16430W        W88855   3.806  33.454   3.816
16431W        W88856   8.278   4.768  10.938
16432W        W88857  15.293   8.323  13.844
16433W        W88858  16.197   2.451   3.326
16434W        W88859  36.966   4.310  10.551
16435W        W88860  24.589   6.359   4.733
16436W        W88861   0.909  44.473  10.553
16437W        W88862   9.872  15.790   4.309
16438W        W88863  33.425   7.255   9.932
16439W        W88864  44.779  41.824  13.998
16440W        W88865  23.657  30.042  14.307
16441W        W88866  40.306  24.035  10.503
16442W        W88867  13.260  28.603  12.981
16443W        W88868   2.375   5.368   1.213
16444W        W88869  31.115  15.168   1.881
16445W        W88870  28.035  20.158   1.293
16446W        W88871  36.347  44.760  14.303
16447W        W88872  35.569   2.797  10.452
16448W        W88873  17.066  42.397  11.489
16449W        W88874  24.725   5.265  12.990
16450W        W88875  43.371  28.149  10.548
16451W        W88876   1.796   2.750   3.292
16452W        W88877  31.057   6.281  11.990
16453W        W88878   7.312   6.772  11.547
16454W        W88879  13.681   4.920   5.106
16455W        W88880  40.032  14.260   4.729
16456W        W88881  30.927  16.274   0.803
16457W        W88882  38.907  30.922   4.141
16458W        W88883  35.417  43.977  12.473
16459W        W88884   9.834  13.206  12.555
16460W        W88885   7.240  22.243  11.583
16461W        W88886  20.524  21.611   0.730
16462W        W88887  14.113  32.457  11.407
16463W        W88888  43.437   8.800  11.498
16464W        W88889  23.987   3.225  12.931
16465W        W88890  33.125  41.945  14.328
16466W        W88891  17.189  37.568   1.263
16467W        W88892  36.045   7.887   0.398
16468W        W88893  15.327   1.911  14.416
16469W        W88894  24.558  31.947  10.555
16470W        W88895   4.351  10.301  13.380
16471W        W88896  35.379  13.793   3.322
16472W        W88897  41.459  13.679  12.532
16473W        W88898  13.627  11.174   4.238
16474W        W88899  12.678   7.241  11.003
16475W        W88900  20.662  26.191  13.961
16476W        W88901  27.063  40.384   2.797
16477W        W88902  28.633  16.647   3.348
16478W        W88903  29.454   1.286  12.561
16479W        W88904  29.585  33.008  13.509
16480W        W88905  29.496  13.292  13.930
16481W        W88906   3.814  10.843  12.410
16482W        W88907  42.013  17.117  12.533
16483W        W88908  39.000   3.338   5.148
16484W        W88909  21.183   7.275  10.098
16485W        W88910  16.599  26.519   1.235
16486W        W88911  20.216  20.243   3.255
16487W        W88912   9.872   4.699   0.941
16488W        W88913   2.232  41.506   4.326
16489W        W88914  16.747   8.851  13.974
16490W        W88915  14.775  27.964   3.228
16491W        W88916  12.733  11.280  12.456
16492W        W88917  43.977  18.709  12.563
16493W        W88918   0.485  26.973  12.018
16494W        W88919  35.600  16.087   0.940
16495W        W88920  37.901   3.843  10.992
16496W        W88921   4.331  26.983  11.002
16497W        W88922  31.129  36.849  13.315
16498W        W88923  33.511  18.703   4.816
16499W        W88924  34.604   4.708   3.804
16500W        W88925  29.945  40.980   1.847
16501W        W88926   6.301  26.659  14.787
16502W        W88927  29.050  35.083   1.353
16503W        W88928   4.258  15.610   3.705
16504W        W88929  12.759   0.415   4.229
16505W        W88930   5.779  44.969   0.926
16506W        W88931  32.067  11.327   4.300
16507W        W88932  14.100   2.336   0.297
16508W        W88933  20.039  29.596  10.101
16509W        W88934  42.488  28.496  12.833
16510W        W88935  14.689  35.044  11.496
16511W        W88936  41.002  42.000   1.381
16512W        W88937  30.930  35.076  14.290
16513W        W88938  34.876  15.749   4.808
16514W        W88939  18.201   4.234  11.910
16515W        W88940  30.517  35.865   0.739
16516W        W88941   3.250  19.188   4.811
16517W        W88942  44.765  19.210  11.858
16518W        W88943  37.857  20.155  13.877
16519W        W88944  36.547  35.593   0.465
16520W        W88945  11.727   0.907   2.231
16521W        W88946   8.845  16.074  13.825
16522W        W88947  36.389  26.551  12.412
16523W        W88948  15.326  42.282   0.951
16524W        W88949  39.425  20.044  14.475
16525W        W88950   7.825  18.215   2.329
16526W        W88951   4.764  40.036   0.404
16527W        W88952   8.738  13.117  10.581
16528W        W88953  11.147   9.866  13.859
16529W        W88954  40.410  35.862   5.092
16530W        W88955   4.204  39.814   4.235
16531W        W88956  28.047   8.683   1.921
16532W        W88957  31.933  25.489  14.451
16533W        W88958  40.485  12.715  13.426
16534W        W88959  43.355  12.728   1.382
16535W        W88960   9.653  32.397   0.479
16536W        W88961  35.028  25.675   2.860
16537W        W88962  19.039  27.510   4.298
16538W        W88963  43.335  30.164   0.260
16539W        W88964   9.727  11.272  10.551
16540W        W88965   1.917  26.162  13.945
16541W        W88966   2.453  19.563  14.888
16542W        W88967   9.355  37.558   0.762
16543W        W88968  23.612  26.522  11.010
16544W        W88969  20.220  25.116  14.830
16545W        W88970  41.969   0.372  10.640
16546W        W88971  32.969  39.048   0.440
16547W        W88972  43.018   6.240   4.629
16548W        W88973  29.148  33.947   2.726
16549W        W88974   4.281  15.704   1.887
16550W        W88975   2.461  26.072   4.786
16551W        W88976   8.294  25.481   3.723
16552W        W88977   3.440  16.799  13.927
16553W        W88978   1.473  25.213   3.749
16554W        W88979   5.757   8.221  13.418
16555W        W88980  10.672   0.919  11.020
16556W        W88981  13.809  37.045   4.209
16557W        W88982   8.832  38.825  12.061
16558W        W88983  38.822  42.430  10.526
16559W        W88984  19.054  20.183  11.991
16560W        W88985  34.892  18.577   3.630
16561W        W88986  24.663  18.204  13.918
16562W        W88987   9.767  39.862   2.392
16563W        W88988  32.989   3.837  14.947
16564W        W88989  20.608  41.319  13.460
16565W        W88990  13.763   3.307   4.827
16566W        W88991  28.944  11.681   0.422
16567W        W88992  30.612   6.898   2.239
16568W        W88993  41.418   6.883  13.492
16569W        W88994  18.120  30.142   0.904
16570W        W88995  14.220   7.354  11.588
16571W        W88996   1.866  35.869  14.761
16572W        W88997   9.874  28.985   1.829
16573W        W88998   0.969  42.430   3.328
16574W        W88999  12.277  38.051   0.947
16575W        W89000  11.779  40.833  12.045
16576W        W89001  30.918   2.911  12.471
16577W        W89002  41.907  34.402  11.973
16578W        W89003  33.387  43.926  14.873
16579W        W89004   8.232   6.288   2.821
16580W        W89005  44.847  28.539  11.897
16581W        W89006  43.419  28.459   0.406
16582W        W89007  28.135   0.458  10.571
16583W        W89008  42.905  11.302  11.560
16584W        W89009   2.256   5.256   0.334
16585W        W89010  14.771  31.506   4.718
16586W        W89011  18.147  19.550  11.866
16587W        W89012  10.753  33.073   0.811
16588W        W89013  22.633  40.486  12.361
16589W        W89014  24.067  34.557  10.983
16590W        W89015  10.166  42.355  14.375
16591W        W89016  18.060  33.045   3.651
16592W        W89017  32.614   9.884   1.448
16593W        W89018  42.360  13.765  14.388
16594W        W89019  32.119  32.619  12.489
16595W        W89020  26.674  32.443   4.187
16596W        W89021  37.959   6.397  13.381
16597W        W89022  30.078   5.695  13.946
16598W        W89023  18.736   2.829   1.762
16599W        W89024  14.672  12.169  12.532
16600W        W89025  22.534  17.094   2.687
16601W        W89026  44.840  43.353   3.254
16602W        W89027   2.858  44.434   0.837
16603W        W89028   4.402  36.850  13.435
16604W        W89029  42.990  36.973  11.934
16605W        W89030   2.908  23.541  10.575
16606W        W89031  29.507  43.019   2.321
16607W        W89032  28.083  15.707  12.989
16608W        W89033  27.078  35.918   3.321
16609W        W89034  33.544  26.029  12.875
16610W        W89035  42.442  23.611   3.780
16611W        W89036  26.520  13.123   1.766
16612W        W89037  20.187  18.571  13.994
16613W        W89038   4.751  30.039  13.344
16614W        W89039  29.590  32.414   1.707
16615W        W89040  35.932  31.096   4.171
16616W        W89041   0.928  42.861  14.484
16617W        W89042  32.426  39.986  14.379
16618W        W89043  28.651  18.632   1.301
16619W        W89044  43.401  26.572  11.557
16620W        W89045  17.185  14.671   4.334
16621W        W89046  37.870  27.162  13.321
16622W        W89047  26.554   2.264   2.343
16623W        W89048  44.841  22.019  12.999
16624W        W89049  40.319  36.864   0.413
16625W        W89050  40.521   4.362  12.905
16626W        W89051  23.070  16.098  12.846
16627W        W89052   4.787  43.950   0.311
16628W        W89053  25.193  22.099  11.535
16629W        W89054  22.740   7.183   3.301
16630W        W89055   3.454   9.338   3.270
16631W        W89056   0.286  37.018   3.654
16632W        W89057  27.007  30.649   2.841
16633W        W89058  36.885  28.042   4.738
16634W        W89059  29.032  20.544   0.363
16635W        W89060  34.964  20.540   4.288
16636W        W89061  41.978  14.693   3.176
16637W        W89062  41.929   3.352   4.636
16638W        W89063  13.109  24.198   5.798
16639W        W89064  12.647   5.386  13.446
16640W        W89065   4.378  35.582   1.308
16641W        W89066  34.865  24.053   3.835
16642W        W89067  14.733   0.911   3.189
16643W        W89068  29.028  41.491  10.469
16644W        W89069  37.956  23.155  11.397
16645W        W89070  42.430  31.563   2.707
16646W        W89071  33.972   3.279  11.860
16647W        W89072  43.398  20.056   1.823
16648W        W89073   5.921  13.758  11.942
16649W        W89074   8.323  33.028   0.431
16650W        W89075  33.486  40.814   1.371
16651W        W89076  36.865  35.359  14.350
16652W        W89077  28.471  14.722   2.874
16653W        W89078  39.832  36.958   0.310
16654W        W89079  21.660   3.422  11.129
16655W        W89080  17.628  32.123   1.776
16656W        W89081   5.420  26.170  12.043
16657W        W89082  38.563  42.781  13.858
16658W        W89083   4.910  21.625   0.852
16659W        W89084  42.805  14.209   4.787
16660W        W89085  26.555  42.388   3.657
16661W        W89086  26.976   0.850  12.420
16662W        W89087  38.834   2.362   0.369
16663W        W89088  44.882   0.931   0.424
16664W        W89089  40.418  36.391   4.314
16665W        W89090  31.088  20.619  11.883
16666W        W89091  16.115   7.909   3.643
16667W        W89092  19.080  25.111   0.929
16668W        W89093  17.596  12.797   0.333
16669W        W89094   6.812  23.984  12.827
16670W        W89095  37.428   2.248   0.314
16671W        W89096  30.063  44.757  11.393
16672W        W89097  22.676  16.106  12.489
16673W        W89098   8.346  23.178   2.355
16674W        W89099  14.261   8.303  13.968
16675W        W89100   4.258  16.757  13.484
16676W        W89101  41.888   8.212  14.013
16677W        W89102  31.074  31.018   0.848
16678W        W89103  44.278  37.462  10.897
16679W        W89104  44.006  14.315  11.436
16680W        W89105   4.699  23.662   4.205
16681W        W89106  42.343  19.761  12.903
16682W        W89107  37.457  11.857  12.915
16683W        W89108  20.141  24.035  12.547
16684W        W89109  35.050   3.858  11.606
16685W        W89110   3.857  28.487   1.271
16686W        W89111  20.691  33.621  13.822
16687W        W89112  10.772  39.533  11.502
16688W        W89113  14.235  40.413  13.474
16689W        W89114  33.026  25.176   4.139
16690W        W89115   9.272  24.104  11.434
16691W        W89116  33.011  22.701  11.042
16692W        W89117  13.227  29.551   2.308
16693W        W89118   3.430  38.467   3.291
16694W        W89119  18.623  10.138  11.080
16695W        W89120  32.529  27.958  13.007
16696W        W89121   1.863   4.341   3.667
16697W        W89122  34.472  44.838   0.399
16698W        W89123  11.283  41.501   3.698
16699W        W89124  26.018   9.779  10.925
16700W        W89125  19.727  30.044  10.925
16701W        W89126  13.668  26.696  13.997
16702W        W89127  15.736   8.731   2.213
16703W        W89128  39.365  39.019   0.334
16704W        W89129  22.680  11.842   1.918
16705W        W89130  32.433   9.343  14.921
16706W        W89131   7.257   7.682  14.467
16707W        W89132   0.462  35.527  12.995
16708W        W89133   0.743  29.025   0.285
16709W        W89134   8.184   0.932  14.439
16710W        W89135  43.455  11.664  11.536
16711W        W89136  40.911   4.418  13.502
16712W        W89137   1.755  37.933  12.041
16713W        W89138  23.133  19.706   4.325
16714W        W89139   5.329  44.890   2.806
16715W        W89140  39.545  11.127  12.449
16716W        W89141  34.485  13.830   1.361
16717W        W89142  38.333  44.293   3.353
16718W        W89143  39.534  31.587  11.522
16719W        W89144   2.451  25.155   4.644
16720W        W89145  11.373  25.000  10.491
16721W        W89146  25.967   9.352   3.324
16722W        W89147  32.917   0.846   1.704
16723W        W89148  14.755  17.713  13.485
16724W        W89149  27.504  22.669   3.181
16725W        W89150  11.338  21.547   1.247
16726W        W89151   9.819  34.999   4.809
16727W        W89152  42.359  16.284  14.871
16728W        W89153  15.623   0.256   1.793
16729W        W89154   1.944  17.083  10.488
16730W        W89155  32.117  30.916  13.013
16731W        W89156  10.142  10.855  12.093
16732W        W89157  24.153   0.473   2.391
16733W        W89158  20.536  24.626  12.052
16734W        W89159   0.480  40.053  13.521
16735W        W89160  32.975  40.921   4.125
16736W        W89161   8.769  18.627   5.208
16737W        W89162   3.841  20.085   2.730
16738W        W89163  22.012  10.289   4.216
16739W        W89164  31.918   8.287  14.770
16740W        W89165   7.194   0.313   4.156
16741W        W89166   8.194   4.375  10.588
16742W        W89167  34.897  23.071   3.382
16743W        W89168  18.070   3.430   4.805
16744W        W89169  42.990  43.380  13.021
16745W        W89170  41.916  18.060  13.334
16746W        W89171  19.085   9.318   4.342
16747W        W89172  41.295  38.500   1.933
16748W        W89173  27.447  14.228  13.036
16749W        W89174   1.806  37.371   4.681
16750W        W89175  30.485  34.576   0.931
16751W        W89176  10.381   9.736   3.150
16752W        W89177  19.650  18.580  14.873
16753W        W89178  18.741  31.550  14.967
16754W        W89179  33.538   5.392   2.865
16755W        W89180  37.064   3.401   5.238
16756W        W89181   6.315  42.991   4.139
16757W        W89182  28.574  14.325  14.008
16758W        W89183  11.675   7.200   4.255
16759W        W89184  12.713  21.705  14.781
16760W        W89185  18.072  23.159   1.322
16761W        W89186  29.559  25.062  12.516
16762W        W89187  19.117   7.213  13.454
16763W        W89188   5.698  19.778   3.304
16764W        W89189   8.722  40.488  14.914
16765W        W89190  10.658   8.774  14.923
16766W        W89191  11.335   4.764  13.336
16767W        W89192   4.905  15.749   1.291
16768W        W89193  16.133  16.701  12.833
16769W        W89194   5.247  35.951  11.429
16770W        W89195  33.598   8.333  13.034
16771W        W89196  22.745  37.361  13.371
16772W        W89197   7.325  32.423  11.079
16773W        W89198  39.931  38.523   4.762
16774W        W89199  42.887   8.728  11.912
16775W        W89200  24.574  26.693   2.378
16776W        W89201  42.903  32.442   3.648
16777W        W89202  11.743   5.312  14.944
16778W        W89203  34.556  13.750   2.848
16779W        W89204  26.569  34.465   0.380
16780W        W89205  22.668  12.360   2.229
16781W        W89206  12.159  22.120   5.233
16782W        W89207  25.658   2.764  14.830
16783W        W89208  36.020  12.210  14.368
16784W        W89209  26.535  40.399  14.378
16785W        W89210  23.577   2.241  12.483
16786W        W89211  22.730  28.638  13.486
16787W        W89212  31.897   6.913  14.475
16788W        W89213  43.398   9.812   3.279
16789W        W89214  20.238  18.162   3.652
16790W        W89215   2.406  13.615  13.342
16791W        W89216  42.404  22.143   5.669
16792W        W89217  31.557  14.648   2.338
16793W        W89218   8.389  16.711  11.467
16794W        W89219   0.408  41.816   0.408
16795W        W89220  14.602   5.911   2.708
16796W        W89221  29.445  40.384   1.341
16797W        W89222  26.564   5.853  10.923
16798W        W89223  36.438   9.772  14.476
16799W        W89224  32.451  22.629   2.198
16800W        W89225   3.952  28.593   1.702
16801W        W89226  15.649  37.077   1.246
16802W        W89227  17.633  12.821  11.888
16803W        W89228  28.460  39.490   4.700
16804W        W89229   4.933  40.800   2.290
16805W        W89230  15.296   6.801   4.134
16806W        W89231   3.234  41.942  13.053
16807W        W89232  39.967  24.178   1.878
16808W        W89233   4.428   5.305   4.661
16809W        W89234  42.484  30.935   1.846
16810W        W89235   4.933  37.951   2.717
16811W        W89236  17.595  25.630  13.519
16812W        W89237  36.940  27.179  10.942
16813W        W89238  27.581  23.519  12.456
16814W        W89239  13.815  33.452  13.829
16815W        W89240   1.421  15.681  13.531
16816W        W89241  17.602  30.993  11.996
16817W        W89242  21.252   2.805   0.743
16818W        W89243  18.661  21.668  12.998
16819W        W89244   9.701   9.151   2.304
16820W        W89245   8.863  12.130   2.767
16821W        W89246  35.095  15.204   4.253
16822W        W89247  18.272   4.379   4.656
16823W        W89248  14.327   9.644   1.385
16824W        W89249   4.872  20.541  11.106
16825W        W89250   1.973  27.562   0.967
16826W        W89251  21.026  36.916   0.901
16827W        W89252  42.986  34.592  12.502
16828W        W89253  25.599  22.184   2.374
16829W        W89254  13.199  38.532  13.337
16830W        W89255  36.431  42.995   0.830
16831W        W89256  25.210  17.630   2.798
16832W        W89257  36.479  25.966   2.861
16833W        W89258  13.287  30.574   9.931
16834W        W89259  20.713   7.766   4.254
16835W        W89260   2.350  13.792   2.252
16836W        W89261  32.590  17.728  13.987
16837W        W89262  25.494  12.679   5.133
16838W        W89263   1.852  18.640   3.661
16839W        W89264   7.395   1.741   2.767
16840W        W89265  16.744  23.640   4.277
16841W        W89266  13.125  19.612   5.114
16842W        W89267  33.875  30.591   2.707
16843W        W89268  27.056  36.013  14.779
16844W        W89269   3.346  30.485   3.267
16845W        W89270   5.719   5.830   2.759
16846W        W89271  11.208   6.897   2.314
16847W        W89272  21.149  41.953  13.321
16848W        W89273  38.393  40.861   0.297
16849W        W89274  15.689  38.528   1.393
16850W        W89275  11.634  34.576  11.095
16851W        W89276  41.321   5.710   0.944
16852W        W89277   7.369  10.644   4.797
16853W        W89278  18.168  15.796  10.913
16854W        W89279  34.919  14.753  12.052
16855W        W89280  12.307  20.143   1.253
16856W        W89281  35.589  29.667   1.424
16857W        W89282  27.664   2.464  14.019
16858W        W89283  21.662  12.331  10.040
16859W        W89284  30.990  22.674  12.929
16860W        W89285   1.396  31.617   0.388
16861W        W89286  44.498  28.948  11.003
16862W        W89287  25.654  20.088   3.832
16863W        W89288  25.686  42.392  14.392
16864W        W89289  38.974   9.751  13.485
16865W        W89290  39.359   3.273  12.856
16866W        W89291  30.588  23.116   2.755
16867W        W89292  30.157  40.020   2.790
16868W        W89293  40.964  33.412  14.992
16869W        W89294   4.364  29.932  14.011
16870W        W89295   9.730  33.092   2.220
16871W        W89296  19.209  40.497   1.879
16872W        W89297  44.438   9.714   2.684
16873W        W89298   1.841  39.042  14.452
16874W        W89299  39.891   4.701  10.505
16875W        W89300  39.534  44.342  13.826
16876W        W89301  23.103  22.588  14.840
16877W        W89302  34.540  17.172   3.353
16878W        W89303   8.856  21.041  13.393
16879W        W89304  21.677  27.066   0.764
16880W        W89305  40.982   1.305   1.452
16881W        W89306  32.103  10.304   5.147
16882W        W89307  11.362  30.916  13.849
16883W        W89308   9.155  11.804   0.472
16884W        W89309   8.806  39.943   0.922
16885W        W89310  18.646   8.726  14.278
16886W        W89311   9.194  23.033  11.606
16887W        W89312  25.568   3.720  12.900
16888W        W89313  28.436  36.924   0.794
16889W        W89314  28.009   8.308   4.626
16890W        W89315  11.191   4.357   3.164
16891W        W89316  23.152  15.112   3.655
16892W        W89317  19.620   6.340   4.286
16893W        W89318  16.109  28.508  10.537
16894W        W89319  24.003  24.643   3.816
16895W        W89320  36.555  39.939   4.279
16896W        W89321  36.955  30.979   3.665
16897W        W89322  22.662   0.774   0.886
16898W        W89323  11.651  30.586   9.992
16899W        W89324  40.353  20.610  13.933
16900W        W89325  18.246  10.263   5.278
16901W        W89326  15.084  31.932   2.670
16902W        W89327  20.050   3.323  11.910
16903W        W89328  36.940   3.946  14.826
16904W        W89329  28.632  22.731   0.450
16905W        W89330  27.056  19.274  11.566
16906W        W89331   4.752  10.750   0.780
16907W        W89332  38.509   9.733   4.648
16908W        W89333   6.881  42.795  12.088
16909W        W89334  40.826  18.207  14.919
16910W        W89335  26.621  41.518   0.278
16911W        W89336  13.630  33.398  10.435
16912W        W89337  13.328  30.429  13.427
16913W        W89338  36.454   5.403   2.417
16914W        W89339  35.422  37.376  14.459
16915W        W89340   7.215  19.553   3.673
16916W        W89341  15.758  36.461  10.547
16917W        W89342  32.515  24.570  12.498
16918W        W89343  10.346  31.452  11.609
16919W        W89344  14.327   1.853   1.830
16920W        W89345  37.071   4.823  11.446
16921W        W89346  44.980  29.600   0.384
16922W        W89347  26.133   2.325   2.347
16923W        W89348   8.828  42.360   0.464
16924W        W89349  44.380  28.141  13.973
16925W        W89350   4.307  23.538   1.342
16926W        W89351   8.784  35.897  10.506
16927W        W89352  34.864  40.529   0.294
16928W        W89353  15.752  31.133  12.899
16929W        W89354   9.792  16.288  13.031
16930W        W89355  18.227  14.792   2.848
16931W        W89356  12.649  15.183   3.259
16932W        W89357   1.389  39.811   0.332
16933W        W89358  44.308  11.647   4.734
16934W        W89359  40.958  21.142   4.164
16935W        W89360   1.925  25.661  11.983
16936W        W89361  40.851  36.489   2.825
16937W        W89362   3.433  27.011  12.983
16938W        W89363  10.235   6.253   3.218
16939W        W89364  26.525  36.863  10.956
16940W        W89365  34.521   6.426   4.149
16941W        W89366   7.788  39.342   3.870
16942W        W89367  24.102  44.775  11.394
16943W        W89368  18.695  35.865   3.386
16944W        W89369  31.437  32.096   2.699
16945W        W89370  35.063  35.536   1.878
16946W        W89371  32.094  37.448  11.914
16947W        W89372   6.256  39.058   3.737
16948W        W89373   9.786  33.089   3.675
16949W        W89374  29.471  16.591   1.749
16950W        W89375  18.675   4.761   4.336
16951W        W89376  43.479  36.517  10.440
16952W        W89377   7.331  27.604   1.735
16953W        W89378  28.536  26.633   3.385
16954W        W89379  14.829  33.101  11.514
16955W        W89380  28.130   1.310   0.895
16956W        W89381  42.308   3.339   2.401
16957W        W89382  36.497  18.549   1.876
16958W        W89383  31.470  13.693   2.356
16959W        W89384  11.312  22.599   0.269
16960W        W89385  20.645  40.989  13.837
16961W        W89386  26.534   1.831   0.469
16962W        W89387  25.121  35.100  12.365
16963W        W89388  40.377  32.100   4.836
16964W        W89389  18.254  29.465   0.394
16965W        W89390   4.708  37.341   4.649
16966W        W89391  37.560  33.050  13.359
16967W        W89392  29.006  43.361   4.191
16968W        W89393  32.136  29.495  12.835
16969W        W89394  21.070  44.756  12.959
16970W        W89395  35.450  27.560   2.296
16971W        W89396  12.638   8.835   3.212
16972W        W89397  19.535  14.264  12.875
16973W        W89398  14.711  14.243  14.275
16974W        W89399  35.878  34.454   4.759
16975W        W89400   4.757  17.217  10.937
16976W        W89401  40.867  38.500   0.728
16977W        W89402  26.981  25.962   4.627
16978W        W89403  16.110  22.139   1.766
16979W        W89404  11.743  32.920  11.027
16980W        W89405   1.404  30.908   1.843
16981W        W89406  26.504  39.469   3.317
16982W        W89407  28.478   2.834   2.876
16983W        W89408  30.518  28.645   3.722
16984W        W89409  19.105  35.943   2.710
16985W        W89410  20.231  38.385   1.318
16986W        W89411  18.206  29.008  12.050
16987W        W89412  31.041   4.795   2.875
16988W        W89413  13.278  12.239   3.799
16989W        W89414  41.875  38.939  10.051
16990W        W89415  20.684  31.935   1.448
16991W        W89416  24.697  19.703   3.690
16992W        W89417  22.029   9.791  14.354
16993W        W89418  35.470   1.918  11.476
16994W        W89419  16.297  18.762   2.723
16995W        W89420  17.245   4.841   2.698
16996W        W89421  16.160  31.950  13.408
16997W        W89422   4.754  35.037   2.707
16998W        W89423  14.116  34.553  13.413
16999W        W89424  18.556  37.050  10.906
17000W        W89425  30.454  33.877  12.873
17001W        W89426  16.190   2.359  12.056
17002W        W89427  18.783   7.220   2.705
17003W        W89428  26.517   6.690  14.293
17004W        W89429  35.421   9.778  11.014
17005W        W89430  27.999  39.372  11.417
17006W        W89431  15.124  14.714  13.013
17007W        W89432  33.109   5.729  11.004
17008W        W89433  32.072  11.342   0.736
17009W        W89434  14.107  19.179  12.354
17010W        W89435  12.197   1.881   3.633
17011W        W89436  16.742  10.875  14.506
17012W        W89437  26.703  22.706  13.052
17013W        W89438  24.987  10.642  13.943
17014W        W89439  14.281  10.210  10.623
17015W        W89440  33.078  37.398  11.006
17016W        W89441  32.555  36.995  12.493
17017W        W89442  23.120  15.624  13.353
17018W        W89443   9.194  13.842   2.778
17019W        W89444  12.319  27.122   2.306
17020W        W89445  39.949   4.898  14.460
17021W        W89446   4.335   8.390  12.834
17022W        W89447   1.344   2.951  14.910
17023W        W89448   0.952  42.432  14.894
17024W        W89449  37.894  26.148  12.011
17025W        W89450  16.189  23.520   1.907
17026W        W89451  25.641  39.331   0.466
17027W        W89452  27.983   4.263   4.737
17028W        W89453  34.974  18.180   0.911
17029W        W89454  37.994  37.946   0.813
17030W        W89455   4.445  28.981  14.828
17031W        W89456  36.569  34.915   1.210
17032W        W89457  28.645  26.576  10.622
17033W        W89458  22.079  12.337   9.657
17034W        W89459  30.917  41.862   1.378
17035W        W89460  36.410   4.716  10.066
17036W        W89461  13.716  15.666  14.451
17037W        W89462   1.254  15.682  10.006
17038W        W89463   1.407  30.058  10.512
17039W        W89464  19.068  25.063   3.779
17040W        W89465  43.951  24.099   4.706
17041W        W89466   1.804  31.009  11.453
17042W        W89467  44.335  43.775   1.772
17043W        W89468  38.387   2.877   2.703
17044W        W89469  29.018  24.676  11.982
17045W        W89470  19.103  17.287  13.502
17046W        W89471   9.280  14.703   1.743
17047W        W89472  37.853  30.937  11.926
17048W        W89473  29.569  11.838  12.444
17049W        W89474   8.353  17.290  11.533
17050W        W89475   7.181  25.062  13.024
17051W        W89476   4.422   9.819  12.071
17052W        W89477  30.129  35.864   4.278
17053W        W89478  10.801  13.721  14.464
17054W        W89479   4.890  30.588   2.300
17055W        W89480   3.849  10.191   0.924
17056W        W89481  23.511  26.569  14.821
17057W        W89482   0.347  10.294   0.907
17058W        W89483   1.841   0.405   3.725
17059W        W89484  10.855  11.854   1.373
17060W        W89485   9.255   5.853   4.165
17061W        W89486  33.946  13.221  12.373
17062W        W89487  12.134   3.308  13.822
17063W        W89488  27.470   3.906   2.382
17064W        W89489  16.110  39.419   1.854
17065W        W89490  16.252  42.324  14.849
17066W        W89491  43.379   8.333  12.497
17067W        W89492  18.203  40.010   0.835
17068W        W89493   8.700  41.340   3.779
17069W        W89494  26.665   1.928  14.331
17070W        W89495  27.562   9.708   0.304
17071W        W89496  17.585   9.377  14.303
17072W        W89497   2.849  44.286   4.630
17073W        W89498  42.853  38.538  14.954
17074W        W89499  40.391   1.319   4.621
17075W        W89500  40.447  29.622  12.829
17076W        W89501  29.957  14.631  10.503
17077W        W89502  37.373   3.374   0.266
17078W        W89503  22.546  43.465   1.356
17079W        W89504  18.661  18.769  13.937
17080W        W89505  35.874  36.844  12.010
17081W        W89506   5.855  12.854  13.517
17082W        W89507  37.337  21.238  10.632
17083W        W89508  12.267   6.783   1.382
17084W        W89509   4.832   4.334  11.499
17085W        W89510  36.378  28.510   0.439
17086W        W89511  29.064   8.321   0.273
17087W        W89512  34.909  33.419  10.410
17088W        W89513  25.584  33.015   5.141
17089W        W89514  33.570  37.893  11.004
17090W        W89515  35.859  36.396   4.784
17091W        W89516  34.407  17.291  13.356
17092W        W89517  35.981  32.913  14.299
17093W        W89518   2.786   8.673  13.828
17094W        W89519  23.640  39.560  11.371
17095W        W89520   2.392   2.723   2.899
17096W        W89521  12.765  22.128  13.396
17097W        W89522  22.589  38.945   4.238
17098W        W89523   4.764   6.331   4.648
17099W        W89524  30.581  39.445  11.457
17100W        W89525  17.769  23.589  10.477
17101W        W89526  41.326  31.562   4.599
17102W        W89527   2.957  32.095  13.948
17103W        W89528  29.629  19.748   4.682
17104W        W89529  22.053  13.290   1.872
17105W        W89530  37.028  27.467   0.910
17106W        W89531  27.526  15.147   1.404
17107W        W89532  16.293  27.988  12.490
17108W        W89533   6.279  40.934  10.925
17109W        W89534  26.016  22.721   4.600
17110W        W89535  38.485  40.461   0.381
17111W        W89536  35.410  30.082   2.723
17112W        W89537  14.142  30.527  11.007
17113W        W89538  32.135  11.258   2.726
17114W        W89539   5.707  35.018  14.880
17115W        W89540  27.484  41.439   4.284
17116W        W89541  44.417  41.398   4.733
17117W        W89542   0.744  38.349  13.892
17118W        W89543  29.528  14.144  10.890
17119W        W89544  30.069  40.826   1.345
17120W        W89545  28.443  36.585  13.309
17121W        W89546   7.782   9.847  10.591
17122W        W89547  18.105  14.197   1.316
17123W        W89548  44.358   3.288  12.382
17124W        W89549  42.888   9.264   2.346
17125W        W89550  16.135   5.425  11.583
17126W        W89551   9.333  24.112   2.678
17127W        W89552  18.284  13.216   4.713
17128W        W89553   8.704  27.044   1.296
17129W        W89554  34.945  37.447   0.730
17130W        W89555  26.033  33.899   0.287
17131W        W89556  37.936  26.700   3.781
17132W        W89557   8.840   2.874   2.215
17133W        W89558  41.416   1.414  13.900
17134W        W89559  18.774  18.278  10.471
17135W        W89560  25.046  32.120  11.901
17136W        W89561  24.712  32.890  12.500
17137W        W89562  19.648  29.487   4.804
17138W        W89563  13.840  42.326  12.055
17139W        W89564  28.516  39.027   9.660
17140W        W89565   6.228  18.272  11.554
17141W        W89566  36.921  10.306   3.194
17142W        W89567  39.828  42.816  10.473
17143W        W89568  16.725  11.680   4.312
17144W        W89569  33.011  38.417  14.788
17145W        W89570  25.682  10.336   4.121
17146W        W89571  30.517  28.539  11.118
17147W        W89572  13.348  43.400  14.292
17148W        W89573   6.306  31.440  11.426
17149W        W89574  36.391   9.875  11.497
17150W        W89575   3.459  39.389  10.571
17151W        W89576  12.188  13.732  11.062
17152W        W89577  33.988  34.969   4.654
17153W        W89578  19.159  40.496   3.167
17154W        W89579  18.605   2.811   2.870
17155W        W89580   7.262  27.195  12.446
17156W        W89581  41.837  16.743   3.676
17157W        W89582  34.913   3.451  13.507
17158W        W89583  12.215  21.225   4.621
17159W        W89584  16.088  10.264   9.952
17160W        W89585  20.535  33.479  12.489
17161W        W89586  22.712   1.431  11.022
17162W        W89587   0.263  21.124  13.421
17163W        W89588  38.364   5.431   1.413
17164W        W89589  11.734   4.737   3.183
17165W        W89590  44.889  18.724  14.401
17166W        W89591   7.845  32.634  10.531
17167W        W89592   5.321  19.090  12.340
17168W        W89593  44.475   9.793  10.564
17169W        W89594  38.942  14.196  13.973
17170W        W89595  14.758  18.179  13.963
17171W        W89596   3.421   1.359  14.902
17172W        W89597  41.532  25.711   0.789
17173W        W89598  34.383  20.728  13.971
17174W        W89599  22.096  15.637  12.056
17175W        W89600  21.616   8.225  14.484
17176W        W89601  39.047  39.514  11.587
17177W        W89602  18.751  22.135  11.488
17178W        W89603  33.930  16.251  14.446
17179W        W89604   6.305  23.209  11.410
17180W        W89605  21.579  17.756  13.001
17181W        W89606  36.504  13.292  13.002
17182W        W89607  42.386  11.702  11.099
17183W        W89608  23.207  13.635  14.300
17184W        W89609  38.026  31.968  14.783
17185W        W89610   2.283  15.803  13.347
17186W        W89611  37.466  43.766  13.904
17187W        W89612  26.020  36.418  10.607
17188W        W89613  10.204   6.739   3.196
17189W        W89614  11.800  39.544   1.366
17190W        W89615  37.899   6.227  10.512
17191W        W89616  11.669  19.719   3.682
17192W        W89617  24.020  24.178   0.249
17193W        W89618   6.735  28.480  14.791
17194W        W89619   4.442  38.003  11.497
17195W        W89620  31.407  14.646  11.084
17196W        W89621  13.836  13.789  13.361
17197W        W89622   4.740  31.476  12.512
17198W        W89623  34.599  29.667   3.302
17199W        W89624   0.950  36.545   2.686
17200W        W89625  25.023  27.117   1.808
17201W        W89626   9.211   5.315  11.070
17202W        W89627   1.306   1.900  14.866
17203W        W89628   9.343  28.563   3.205
17204W        W89629  41.839  28.468   2.767
17205W        W89630  17.126   3.266  14.440
17206W        W89631  15.737  17.068   4.326
17207W        W89632  25.158  43.420   4.598
17208W        W89633  30.617  24.998  13.993
17209W        W89634  10.827  42.316  13.036
17210W        W89635   0.316   4.712  10.574
17211W        W89636  41.981  28.170  13.504
17212W        W89637  31.935  14.687   1.408
17213W        W89638  16.636   5.308  14.029
17214W        W89639  24.112  20.119   3.244
17215W        W89640  31.921  27.090  13.359
17216W        W89641  30.948  27.146  12.095
17217W        W89642   0.820  44.813  11.423
17218W        W89643  43.981   4.432  11.078
17219W        W89644  36.450  19.188  14.001
17220W        W89645  30.140   6.411  12.046
17221W        W89646  24.117  19.246   4.194
17222W        W89647  33.486  38.385  11.920
17223W        W89648   2.360  11.254  10.505
17224W        W89649  24.557   2.444   1.449
17225W        W89650  36.566  31.474   0.265
17226W        W89651  23.144   6.330   3.666
17227W        W89652   2.384  28.959  14.907
17228W        W89653  17.792   6.698   0.884
17229W        W89654   2.861  34.962  14.769
17230W        W89655  21.583  31.421   1.381
17231W        W89656   6.287  25.012  12.018
17232W        W89657  30.078  12.264   4.787
17233W        W89658  40.029   2.829   2.787
17234W        W89659  44.324  16.172  11.903
17235W        W89660  16.773  20.095   3.768
17236W        W89661   5.362  14.241  12.478
17237W        W89662  24.162  39.863   4.271
17238W        W89663  35.049  22.226  11.079
17239W        W89664  34.892  32.943   3.761
17240W        W89665  32.486  35.878   3.243
17241W        W89666   8.217   7.219  11.870
17242W        W89667  12.234   8.391   1.369
17243W        W89668  40.002   7.699  14.988
17244W        W89669   0.480  15.682  14.439
17245W        W89670  29.462   5.777   1.241
17246W        W89671   3.237  35.005  11.954
17247W        W89672  19.125   2.890   3.246
17248W        W89673  11.301  23.145   2.818
17249W        W89674  23.625  10.347  11.503
17250W        W89675   5.817  25.617  12.382
17251W        W89676  13.732  41.464  13.473
17252W        W89677  32.392   5.265   0.379
17253W        W89678   8.197  16.601   1.792
17254W        W89679  20.063  29.487   3.240
17255W        W89680  17.655   5.397  10.969
17256W        W89681  16.717  27.031  14.399
17257W        W89682  23.556  28.643  10.502
17258W        W89683  42.376  21.107  12.523
17259W        W89684  33.981   1.362  12.436
17260W        W89685  42.990  27.978  12.578
17261W        W89686   7.740   9.317   3.346
17262W        W89687   6.390   9.376   3.757
17263W        W89688  28.481  28.044   0.952
17264W        W89689  10.774  40.483  13.418
17265W        W89690  16.129  30.577   2.359
17266W        W89691  38.557   8.316  12.468
17267W        W89692  42.885  20.646  11.877
17268W        W89693   1.963  34.998   2.379
17269W        W89694  17.242  29.653   4.719
17270W        W89695  25.011  37.005  11.121
17271W        W89696  28.647   4.741  13.944
17272W        W89697  20.641  38.920  10.591
17273W        W89698  38.865  11.145  14.025
17274W        W89699   4.748  34.088   2.863
17275W        W89700  17.187  28.435  11.544
17276W        W89701  33.990  17.248  14.372
17277W        W89702  42.956  21.255   2.805
17278W        W89703  32.554   0.316   0.391
17279W        W89704  10.196  24.658  14.324
17280W        W89705   8.311  34.961   4.839
17281W        W89706  11.637  14.658  14.830
17282W        W89707   7.333  22.656  12.917
17283W        W89708  22.180  39.325  10.420
17284W        W89709  17.249  17.579  14.312
17285W        W89710   3.751  43.303   0.436
17286W        W89711  21.747  31.492  13.004
17287W        W89712   8.831  19.593   1.242
17288W        W89713  27.026  39.834  11.407
17289W        W89714  27.607  28.631  14.500
17290W        W89715  23.193   0.798   2.789
17291W        W89716  38.386   8.363   3.236
17292W        W89717  36.549  36.449   0.848
17293W        W89718  14.106  17.592  14.511
17294W        W89719  22.020   2.777   2.369
17295W        W89720   2.361  27.940   2.761
17296W        W89721   3.927  22.211   1.706
17297W        W89722   9.851  20.539  12.927
17298W        W89723   2.841  44.969  14.938
17299W        W89724  39.549  42.933   4.753
17300W        W89725  28.174  27.640   1.338
17301W        W89726  40.036   6.275   2.257
17302W        W89727   4.871  34.489   3.252
17303W        W89728  26.034  43.778  10.624
17304W        W89729  35.990  41.523  12.459
17305W        W89730  34.369  40.347   3.715
17306W        W89731  28.600   2.296   4.243
17307W        W89732  37.014  44.321  13.803
17308W        W89733  11.209   6.791  13.400
17309W        W89734  27.967  29.426  14.304
17310W        W89735   1.820  43.277   4.779
17311W        W89736  43.858   2.375   2.876
17312W        W89737  16.711   0.750  13.915
17313W        W89738  42.828   2.360   4.673
17314W        W89739  17.111  29.961  11.073
17315W        W89740   0.259  13.256   0.442
17316W        W89741  42.857  37.998   2.264
17317W        W89742  41.510  44.421   2.897
17318W        W89743  41.968   1.428  14.382
17319W        W89744  34.500   5.796  10.984
17320W        W89745  27.527  40.498   4.183
17321W        W89746  19.062  16.150  13.921
17322W        W89747  29.142  24.150   5.311
17323W        W89748   8.390  25.068  11.407
17324W        W89749  12.683  38.996   2.259
17325W        W89750  31.998  36.994   0.841
17326W        W89751  30.142  43.963   3.387
17327W        W89752  41.809  19.261  14.017
17328W        W89753  19.688  27.177   4.819
17329W        W89754  39.899   4.871  10.912
17330W        W89755   4.914   3.711   4.128
17331W        W89756  26.658  32.975   1.699
17332W        W89757   3.387  40.499  11.456
17333W        W89758   2.919  20.154  14.512
17334W        W89759   4.416  30.527   2.377
17335W        W89760  23.059  36.415   1.832
17336W        W89761   4.242  12.846   4.598
17337W        W89762  16.799  43.816   1.824
17338W        W89763  22.117  35.556   2.380
17339W        W89764  14.805   4.769  10.029
17340W        W89765  24.154  11.137   2.290
17341W        W89766  14.736  21.734   0.247
17342W        W89767  14.673   4.408  11.381
17343W        W89768  11.763  36.510   1.296
17344W        W89769   2.357  20.230   3.359
17345W        W89770  22.515  19.722   2.756
17346W        W89771  42.526  23.504  14.808
17347W        W89772   5.409   2.757  12.510
17348W        W89773  26.498  39.482   0.464
17349W        W89774  17.148  22.069   4.649
17350W        W89775  35.401  21.528   4.165
17351W        W89776   1.876  34.403   4.704
17352W        W89777   7.227   3.907   2.714
17353W        W89778  22.162  23.089  12.361
17354W        W89779  20.093  37.521  12.909
17355W        W89780   5.891  34.593   4.770
17356W        W89781  38.950  29.017  11.935
17357W        W89782  12.283  32.498   3.668
17358W        W89783  35.929   1.299  10.984
17359W        W89784  27.459  11.214   1.704
17360W        W89785  13.654  37.937  12.901
17361W        W89786  37.461  44.307  11.989
17362W        W89787  12.354  39.975  11.522
17363W        W89788   9.870  32.393  13.860
17364W        W89789  32.942  25.644   3.750
17365W        W89790  41.821  15.682   2.860
17366W        W89791  16.225  15.596  10.490
17367W        W89792  14.150  11.273   1.348
17368W        W89793  13.809  29.107   1.403
17369W        W89794  31.952  40.996  14.467
17370W        W89795   6.293   9.183  14.977
17371W        W89796  34.900  22.127   4.783
17372W        W89797  18.731  42.394   3.286
17373W        W89798   1.393  35.965  11.874
17374W        W89799   3.903  30.066   2.699
17375W        W89800  42.830  31.948   0.383
17376W        W89801  25.128  44.324   2.340
17377W        W89802  16.194  19.188  12.519
17378W        W89803  26.161  34.451   2.215
17379W        W89804  23.992  27.578  11.580
17380W        W89805  39.555   9.849   2.323
17381W        W89806  15.674  31.134   5.123
17382W        W89807  15.113  13.608   4.319
17383W        W89808  26.051  12.620  13.384
17384W        W89809  11.751  25.219   0.932
17385W        W89810  33.955  19.667   4.805
17386W        W89811   0.428  20.145   2.797
17387W        W89812  27.669   2.793   4.817
17388W        W89813  34.601  33.026   3.734
17389W        W89814  25.600  20.226   2.253
17390W        W89815  24.712  39.442  11.505
17391W        W89816  23.181  35.869  11.480
17392W        W89817  10.191  18.643   3.195
17393W        W89818  42.994  28.588   1.736
17394W        W89819   1.429   5.340   0.811
17395W        W89820  21.194   0.746   1.251
17396W        W89821  13.204  28.543   3.858
17397W        W89822  38.415  41.484  14.428
17398W        W89823  35.388  10.313  14.763
17399W        W89824  43.333  17.604  14.801
17400W        W89825  36.530  14.796  12.357
17401W        W89826  32.983  21.568   0.834
17402W        W89827  31.154  16.716  11.004
17403W        W89828  13.655  36.931   2.415
17404W        W89829  30.114  19.757  11.976
17405W        W89830  18.127  23.572   0.269
17406W        W89831  27.114  33.610  11.919
17407W        W89832  21.516   1.255   4.601
17408W        W89833  31.059  30.520   0.397
17409W        W89834   2.353   6.261  13.965
17410W        W89835  32.934   4.241   1.275
17411W        W89836  43.848  32.017   5.713
17412W        W89837  20.144  32.571  14.927
17413W        W89838  16.192  39.042   0.437
17414W        W89839  16.712  16.784   1.303
17415W        W89840  33.523  20.162   1.850
17416W        W89841  13.274  21.137   3.363
17417W        W89842  44.979  25.553  11.013
17418W        W89843  42.463  32.919  10.461
17419W        W89844  44.321  42.488   3.859
17420W        W89845  31.067  36.566  14.492
17421W        W89846  36.360   0.467   4.662
17422W        W89847  16.107  18.065   2.750
17423W        W89848  23.214  23.068   1.346
17424W        W89849  23.015  12.272   2.776
17425W        W89850  39.374  29.581  13.331
17426W        W89851  11.337  22.683   4.262
17427W        W89852  20.105  23.217   3.350
17428W        W89853  21.710  21.159  12.859
17429W        W89854  26.079  22.674   1.794
17430W        W89855  29.523  33.126  12.856
17431W        W89856  25.614   2.889   0.481
17432W        W89857  43.473   2.835   4.322
17433W        W89858  26.175  35.465   2.826
17434W        W89859  13.313  25.143   4.606
17435W        W89860  34.900   7.223   2.868
17436W        W89861   8.292  39.549  14.848
17437W        W89862  34.551  39.042  14.031
17438W        W89863  32.472  26.204   2.901
17439W        W89864  25.156  14.833  11.983
17440W        W89865  42.805   5.764  11.964
17441W        W89866  26.972  23.676  10.630
17442W        W89867   7.701   9.307  12.884
17443W        W89868  42.033  38.955  11.546
17444W        W89869   3.388  33.922   2.307
17445W        W89870  13.125  41.403   1.914
17446W        W89871   0.394  11.301  14.921
17447W        W89872  18.079  15.130   2.236
17448W        W89873  29.545  41.532  14.903
17449W        W89874  31.938  13.620   2.769
17450W        W89875  11.816   6.791   3.777
17451W        W89876  26.041   1.864   0.847
17452W        W89877  17.693   8.360   3.746
17453W        W89878  17.152  17.255   1.409
17454W        W89879  36.845  10.695   3.685
17455W        W89880   6.918  10.809   2.772
17456W        W89881   2.948  11.155   3.350
17457W        W89882  23.522   9.855   4.666
17458W        W89883   3.410  12.691  12.911
17459W        W89884  37.463  40.867   0.247
17460W        W89885  21.189  36.992  11.101
17461W        W89886  18.582  44.459  11.377
17462W        W89887  21.181  43.933  13.818
17463W        W89888  21.236   1.791   1.895
17464W        W89889  16.296   2.814   2.302
17465W        W89890   8.252  29.008   3.818
17466W        W89891   8.661  41.448  12.932
17467W        W89892   7.898  14.683  13.499
17468W        W89893  36.047  26.484  11.944
17469W        W89894   0.357  28.040  10.599
17470W        W89895  33.551  22.537   3.861
17471W        W89896   2.384   0.259  12.564
17472W        W89897  25.002  34.429  13.012
17473W        W89898  38.359  28.543   0.268
17474W        W89899  11.832  28.972  13.025
17475W        W89900  13.259  20.263  11.094
17476W        W89901  12.612  42.318   1.437
17477W        W89902   0.795  22.544   3.259
17478W        W89903  30.131  15.113   0.302
17479W        W89904   5.314   0.913   1.706
17480W        W89905  18.123  34.107   3.693
17481W        W89906  16.304  30.049  14.475
17482W        W89907  11.646  40.037  14.507
17483W        W89908  34.017   8.659   1.849
17484W        W89909  27.009  18.764  11.374
17485W        W89910  25.677  23.646   4.284
17486W        W89911  16.202  24.223   2.726
17487W        W89912  32.916  23.163  14.982
17488W        W89913   4.851  35.060  12.507
17489W        W89914  25.537  25.991   1.750
17490W        W89915  37.061   7.220  14.338
17491W        W89916  11.754  33.610  11.014
17492W        W89917   6.892  18.194  11.897
17493W        W89918  38.348  35.018   1.808
17494W        W89919  20.255  32.620  10.533
17495W        W89920  44.404  37.367   1.790
17496W        W89921  14.691  23.638   9.512
17497W        W89922  16.153  39.997   1.913
17498W        W89923  38.384  38.435  11.034
17499W        W89924  27.482   4.816  12.555
17500W        W89925  16.585  21.634   4.654
17501W        W89926  26.165  27.185   4.190
17502W        W89927  38.404  33.119  14.928
17503W        W89928  19.098   5.923  11.404
17504W        W89929  31.621  17.181   0.943
17505W        W89930   9.776  10.144   4.176
17506W        W89931   2.797  22.636  12.086
17507W        W89932  21.611  42.477  12.449
17508W        W89933  42.458  38.565   4.226
17509W        W89934  37.490  40.357  10.454
17510W        W89935  21.239  36.411   4.187
17511W        W89936  35.892  16.225  12.970
17512W        W89937  11.716  38.009   3.845
17513W        W89938  22.197   4.275   1.906
17514W        W89939  14.812   1.379  10.566
17515W        W89940   2.927  14.247  14.490
17516W        W89941  31.426   4.726  12.956
17517W        W89942  40.015  27.166   0.326
17518W        W89943  15.154  10.681  10.644
17519W        W89944  28.065  32.967   3.384
17520W        W89945  34.565   8.722  11.397
17521W        W89946  39.919  21.054   2.303
17522W        W89947  14.623  12.151  12.878
17523W        W89948  29.442   2.824  13.865
17524W        W89949  39.468  43.419  14.413
17525W        W89950  32.578  35.453  14.027
17526W        W89951  13.720   5.277  13.494
17527W        W89952   2.269  32.954  14.506
17528W        W89953  21.083  30.033   0.922
17529W        W89954  35.418  30.929   0.804
17530W        W89955  32.959  44.272   1.274
17531W        W89956  26.135  24.662  13.794
17532W        W89957  40.874  30.090   3.821
17533W        W89958  24.498  21.071   2.839
17534W        W89959   4.811   5.883  14.392
17535W        W89960   6.728   5.318   3.255
17536W        W89961  39.403   0.908  11.486
17537W        W89962  29.151  27.191   2.812
17538W        W89963  15.311  29.651  13.907
17539W        W89964  41.424   0.340   3.832
17540W        W89965   2.788  30.034   2.869
17541W        W89966   8.215  12.146  12.408
17542W        W89967  41.976  33.615   2.682
17543W        W89968  13.129  27.531   1.702
17544W        W89969  41.946  10.146  12.365
17545W        W89970  43.386  23.047  14.469
17546W        W89971  27.011  11.187  13.975
17547W        W89972  34.433  28.023   2.246
17548W        W89973  42.930  14.226  11.976
17549W        W89974  11.270  12.684   1.428
17550W        W89975   0.387  35.046  14.413
17551W        W89976  42.794  17.266  14.891
17552W        W89977  10.686  20.672   0.742
17553W        W89978  15.598  32.562  10.567
17554W        W89979  26.612  28.969   9.931
17555W        W89980  25.161  44.503  13.475
17556W        W89981  42.841  17.609  14.293
17557W        W89982   4.354  34.563  10.981
17558W        W89983  19.539  40.019  10.415
17559W        W89984   0.329   8.257   3.289
17560W        W89985  34.474  40.961   1.830
17561W        W89986  26.472   3.735  11.047
17562W        W89987  22.564  19.112   1.771
17563W        W89988  39.813  33.473   4.647
17564W        W89989  43.831  25.529   2.824
17565W        W89990  28.001  10.701  13.533
17566W        W89991  28.072  40.823  12.950
17567W        W89992  11.340  31.449  12.888
17568W        W89993  27.689  35.083  12.059
17569W        W89994  14.761  31.027   2.792
17570W        W89995  10.160  14.103   1.346
17571W        W89996  21.581  15.199  13.002
17572W        W89997  32.524  31.425   2.363
17573W        W89998   5.234   2.746   3.817
17574W        W89999  42.969   3.891   4.225
17575W        W90000   2.399  21.561   4.196
17576W        W90001   9.671  20.244   0.402
17577W        W90002  43.417  31.044  13.874
17578W        W90003   4.394  21.512   0.420
17579W        W90004  30.612   7.222  10.514
17580W        W90005  33.400  22.636   3.152
17581W        W90006  12.620  41.303   0.769
17582W        W90007   0.340  39.453   0.305
17583W        W90008  18.751  44.483   1.335
17584W        W90009  40.935  39.470  14.916
17585W        W90010  10.836   5.883  12.456
17586W        W90011   5.206  30.973  12.387
17587W        W90012  10.666  19.147   4.718
17588W        W90013  30.084  21.082   5.149
17589W        W90014  20.551  40.846   3.853
17590W        W90015  22.502   1.748  11.034
17591W        W90016  19.070   0.958   4.781
17592W        W90017  20.045  11.136  13.943
17593W        W90018  35.097  34.965  14.950
17594W        W90019  24.000  10.365   5.121
17595W        W90020  40.511   9.777  10.459
17596W        W90021  28.554  26.687   2.231
17597W        W90022  14.306  23.213  14.440
17598W        W90023  10.788   4.362   2.306
17599W        W90024  14.296  29.040  13.054
17600W        W90025  32.067  11.809  11.387
17601W        W90026  43.286  12.119   2.834
17602W        W90027  25.579  41.423   2.842
17603W        W90028  23.104   1.453   0.429
17604W        W90029  33.052   9.334   3.654
17605W        W90030  26.566  15.671   2.739
17606W        W90031  34.065   7.782  13.540
17607W        W90032  14.243  14.217   0.473
17608W        W90033  38.492  24.650  13.027
17609W        W90034   8.323  39.435  11.540
17610W        W90035   3.804  28.658  11.859
17611W        W90036  43.888  10.144   3.233
17612W        W90037   9.710  41.414   1.903
17613W        W90038  37.929   4.231  14.963
17614W        W90039  10.842  27.058   4.185
17615W        W90040   4.297  36.400  11.507
17616W        W90041  35.919   1.435  13.507
17617W        W90042   8.332  11.830   2.840
17618W        W90043  36.875   5.331   1.348
17619W        W90044  15.742  23.148   3.276
17620W        W90045  38.445  24.655   2.852
17621W        W90046   5.787   0.436   3.745
17622W        W90047   6.313  20.745   4.328
17623W        W90048  27.616  31.454   4.692
17624W        W90049   1.830  15.143   1.905
17625W        W90050  12.797  27.058   4.314
17626W        W90051  31.112   1.245   2.185
17627W        W90052  42.392  43.906  11.072
17628W        W90053  13.146   5.830  14.926
17629W        W90054  21.067  12.270   1.327
17630W        W90055  35.520  22.503  14.809
17631W        W90056  18.733   6.368  14.935
17632W        W90057  15.579   3.224  10.035
17633W        W90058  27.546  10.140   3.359
17634W        W90059   1.455  21.019   3.666
17635W        W90060   4.845  29.069  14.400
17636W        W90061   7.312  44.349   0.385
17637W        W90062  14.303  17.751   0.358
17638W        W90063  28.660  25.674  11.021
17639W        W90064  36.447  27.573  13.020
17640W        W90065  25.643  38.561  12.963
17641W        W90066  34.994  42.853   1.237
17642W        W90067   3.295   0.252   4.341
17643W        W90068  19.712  37.341  14.342
17644W        W90069  15.683  16.784   2.894
17645W        W90070  21.640  30.516   1.779
17646W        W90071  15.258   7.912   3.784
17647W        W90072   2.915  17.672   1.301
17648W        W90073  32.463  39.993   1.223
17649W        W90074   9.804   5.320  14.920
17650W        W90075  25.487  14.776  13.534
17651W        W90076  12.311  42.500   1.740
17652W        W90077  27.471  21.576  11.394
17653W        W90078   7.739  33.884   4.710
17654W        W90079   4.296  18.088  14.873
17655W        W90080  11.284  30.076   1.735
17656W        W90081  27.092  16.610   3.858
17657W        W90082  44.413  13.732   1.768
17658W        W90083  31.039  11.336  11.507
17659W        W90084  41.805  23.064  10.497
17660W        W90085   4.759  31.918  13.518
17661W        W90086  29.062  26.484   3.301
17662W        W90087   2.893  31.506   1.831
17663W        W90088   8.324  21.570  14.026
17664W        W90089  18.604  36.088   1.293
17665W        W90090  42.996  43.480   4.754
17666W        W90091  41.981  38.908   2.732
17667W        W90092   1.433   2.955  13.894
17668W        W90093  29.950   6.765   1.825
17669W        W90094  15.143  15.128   1.790
17670W        W90095  15.670  22.088  12.950
17671W        W90096  29.509  24.577  11.968
17672W        W90097   5.784   8.770   0.948
17673W        W90098  12.717   0.941  14.428
17674W        W90099  28.112  35.455   3.245
17675W        W90100  33.012  11.200   4.227
17676W        W90101  35.395   9.753   3.783
17677W        W90102  18.747  13.808   2.832
17678W        W90103   6.266  25.666  12.382
17679W        W90104  32.472  25.577  12.427
17680W        W90105  15.273  41.888   4.297
17681W        W90106  22.139  16.241   1.722
17682W        W90107  35.873  39.960  12.943
17683W        W90108  15.256  16.118  14.822
17684W        W90109  27.498  22.520  10.152
17685W        W90110   8.248  31.627   2.702
17686W        W90111   6.736  36.976   1.839
17687W        W90112  19.722   5.711  10.466
17688W        W90113  12.852  32.969   2.341
17689W        W90114  41.393  18.554   0.367
17690W        W90115  19.688  13.680   4.140
17691W        W90116  33.418  20.667  12.037
17692W        W90117  42.394  36.849   3.243
17693W        W90118  29.992  31.459   1.773
17694W        W90119  26.644   6.866  12.929
17695W        W90120   3.231  30.925  13.352
17696W        W90121   1.337  27.469   0.360
17697W        W90122  38.020  41.330   0.768
17698W        W90123  39.810  40.806   2.222
17699W        W90124  32.040   8.322  10.986
17700W        W90125  34.502   8.882   2.413
17701W        W90126  37.896  30.466   0.379
17702W        W90127  21.667  11.837   1.698
17703W        W90128  18.661  34.369  12.361
17704W        W90129   7.715  25.690  13.502
17705W        W90130  39.039  42.338  14.429
17706W        W90131  28.969  28.977  13.516
17707W        W90132  13.271  15.618  12.346
17708W        W90133   3.243  44.365  13.402
17709W        W90134  35.082  24.600   2.379
17710W        W90135  27.558  43.382  11.583
17711W        W90136  44.806  34.062  10.531
17712W        W90137  12.839  14.232  14.776
17713W        W90138  15.739  33.595   4.796
17714W        W90139   9.368  34.429  11.492
17715W        W90140  29.175  33.988   0.264
17716W        W90141  14.823   2.235   0.753
17717W        W90142  10.675  25.646   4.196
17718W        W90143  20.223  41.885   0.826
17719W        W90144  26.000  16.725   2.399
17720W        W90145   0.422  16.215   4.649
17721W        W90146  29.573  36.497   2.196
17722W        W90147  21.526  33.104   1.397
17723W        W90148  30.960  27.073   1.737
17724W        W90149  11.249  29.551   4.619
17725W        W90150  44.424  10.712  11.605
17726W        W90151  28.662   6.214  12.497
17727W        W90152   3.433  43.386  11.381
17728W        W90153  27.597  29.670   0.257
17729W        W90154   5.221  23.615  11.554
17730W        W90155  26.622  21.212   1.251
17731W        W90156  24.694  23.126  11.605
17732W        W90157   8.176  15.781   1.247
17733W        W90158  16.788  20.765  11.002
17734W        W90159  25.635  44.486  14.978
17735W        W90160   5.920  16.074   2.327
17736W        W90161  22.712   4.248  13.883
17737W        W90162  25.993  20.546   2.748
17738W        W90163   5.839  23.605  12.421
17739W        W90164  17.769  39.532   2.780
17740W        W90165  11.759  18.655   2.826
17741W        W90166  43.900   6.836   4.671
17742W        W90167  11.771  23.121  11.917
17743W        W90168  35.972  17.573  10.405
17744W        W90169   9.650  21.020  11.085
17745W        W90170  34.506  22.671   1.912
17746W        W90171  20.268   3.311   4.604
17747W        W90172  31.067  28.645  14.802
17748W        W90173  26.205  24.206  13.439
17749W        W90174  11.848  30.465  12.531
17750W        W90175  35.438  36.987   1.319
17751W        W90176  22.235  30.596   4.336
17752W        W90177  35.001  11.341   1.291
17753W        W90178  16.252  42.433  11.857
17754W        W90179  39.868  13.107   0.303
17755W        W90180  32.126  43.477   4.152
17756W        W90181  41.970   8.179   4.245
17757W        W90182  42.905  22.159   1.880
17758W        W90183  22.010  27.058  12.378
17759W        W90184  25.195  28.018  11.955
17760W        W90185  26.194  21.250  10.916
17761W        W90186  38.454  18.183  11.016
17762W        W90187  28.525  13.167  11.592
17763W        W90188  27.584  16.671   0.397
17764W        W90189   4.824  21.679  12.998
17765W        W90190  42.523  20.522   3.262
17766W        W90191  41.368  42.527  11.127
17767W        W90192   5.267  29.558  12.467
17768W        W90193  41.364  33.502  11.429
17769W        W90194   3.361  11.711   4.755
17770W        W90195  35.436   4.834  14.904
17771W        W90196  42.338  35.415   2.236
17772W        W90197   4.864   3.868   3.698
17773W        W90198  26.100  18.056   2.722
17774W        W90199  22.107   0.275  10.916
17775W        W90200  28.552   0.958  13.026
17776W        W90201  27.189  13.626   0.768
17777W        W90202  16.187  19.216   1.793
17778W        W90203  32.427  28.153  14.310
17779W        W90204  40.053   5.905   0.830
17780W        W90205   8.827  38.016   0.805
17781W        W90206  36.423   0.973   2.877
17782W        W90207  43.355  29.645  14.863
17783W        W90208   2.427  30.921   4.348
17784W        W90209  11.638  33.460  10.473
17785W        W90210  21.167  40.048  14.440
17786W        W90211  28.477  22.244  12.875
17787W        W90212   7.885  28.177   2.735
17788W        W90213  21.123  10.249  13.382
17789W        W90214  40.544  31.063   2.731
17790W        W90215  43.983  31.061   4.335
17791W        W90216  31.592  16.146   4.235
17792W        W90217  15.715  38.557  10.923
17793W        W90218  25.055  11.221  12.512
17794W        W90219  41.499  30.593   1.244
17795W        W90220  40.839  13.823  10.645
17796W        W90221  15.184  35.484   1.259
17797W        W90222  22.686  18.570  12.073
17798W        W90223   8.657   1.793  12.843
17799W        W90224   9.328  14.602   4.768
17800W        W90225  11.851  15.265  10.619
17801W        W90226  17.614  27.626   2.204
17802W        W90227   8.880  16.590   2.741
17803W        W90228  21.690  44.380   1.873
17804W        W90229  41.959  22.020  10.497
17805W        W90230  44.826  15.746   3.839
17806W        W90231  44.844  37.529  12.866
17807W        W90232   8.788  23.711  11.405
17808W        W90233  14.127  15.666  12.490
17809W        W90234   1.910   9.198   0.374
17810W        W90235   9.738   2.826  10.600
17811W        W90236  43.868  21.647   4.742
17812W        W90237   3.905  12.732   1.835
17813W        W90238  21.166  12.232  11.497
17814W        W90239  15.282   2.271  10.436
17815W        W90240  24.590  39.046   0.795
17816W        W90241   5.692  15.722   2.190
17817W        W90242   6.398  34.559   4.318
17818W        W90243  15.730  21.654   0.396
17819W        W90244   1.866  39.846  14.890
17820W        W90245  30.059  17.192  13.010
17821W        W90246   3.359  38.326   3.754
17822W        W90247  41.358  32.048  10.510
17823W        W90248  11.811   6.256   2.751
17824W        W90249   5.259  22.619   4.713
17825W        W90250  29.539  37.480  14.451
17826W        W90251  19.180  15.687  12.825
17827W        W90252  23.651  30.603   1.753
17828W        W90253  30.567  22.070  13.514
17829W        W90254  44.492  17.090  13.521
17830W        W90255  27.464  40.801   1.799
17831W        W90256   9.655   4.891  12.008
17832W        W90257  15.750  14.647  11.862
17833W        W90258  39.324   7.733   2.190
17834W        W90259  40.898  14.687   1.857
17835W        W90260  34.377   2.384  14.895
17836W        W90261  20.633  37.036  14.945
17837W        W90262  22.156  38.449  14.948
17838W        W90263  35.030   6.845  12.980
17839W        W90264  22.661  33.496  10.572
17840W        W90265  32.624   3.249   1.236
17841W        W90266  39.855  37.422  14.964
17842W        W90267   7.294  18.241  14.785
17843W        W90268  31.496  31.136  12.424
17844W        W90269  15.632  24.660   2.310
17845W        W90270  44.859  29.663  10.641
17846W        W90271  35.428  19.061  14.894
17847W        W90272   3.792  40.325  12.849
17848W        W90273   7.416  26.459   1.280
17849W        W90274  41.801   5.297  12.954
17850W        W90275  37.560  13.710  13.974
17851W        W90276  21.554  39.905  14.369
17852W        W90277  14.114  35.866   1.925
17853W        W90278  11.360  13.845  10.422
17854W        W90279  31.937  11.819   2.333
17855W        W90280  15.246   3.804  12.413
17856W        W90281  44.970  22.599  12.873
17857W        W90282  39.879  42.970   4.122
17858W        W90283  38.514   2.369  14.509
17859W        W90284  10.298  27.591  12.357
17860W        W90285   0.928  31.521  14.020
17861W        W90286  33.523  38.038   2.354
17862W        W90287   3.369  12.680   2.298
17863W        W90288  20.270  24.994  11.393
17864W        W90289  29.557  38.872  14.807
17865W        W90290   1.316  18.246   2.389
17866W        W90291  27.184  23.154  13.837
17867W        W90292  38.977   4.298  10.550
17868W        W90293   4.317  18.079   4.775
17869W        W90294  17.647  25.558   0.764
17870W        W90295  24.573  38.478   2.711
17871W        W90296  35.374  25.083  10.417
17872W        W90297   4.779  25.607  12.065
17873W        W90298  24.620  14.796  11.386
17874W        W90299  36.856  29.000  14.453
17875W        W90300   8.716  16.162  10.547
17876W        W90301  34.999  19.625   4.660
17877W        W90302  44.819   2.461   3.848
17878W        W90303  44.363  24.120  10.421
17879W        W90304  35.099  29.923   3.234
17880W        W90305  33.090   5.803  12.500
17881W        W90306   4.224  13.711   2.412
17882W        W90307  32.521  18.148   4.162
17883W        W90308  33.521  36.025   3.789
17884W        W90309  43.463  17.707  12.852
17885W        W90310  13.666  19.564  10.580
17886W        W90311  29.029  33.570   4.656
17887W        W90312  10.842  26.197   2.729
17888W        W90313  31.095  33.906  11.071
17889W        W90314  16.281  28.018   3.261
17890W        W90315   4.815   7.775  13.448
17891W        W90316  34.470   4.736  10.538
17892W        W90317  35.417  23.013  13.526
17893W        W90318  21.056  37.920   4.837
17894W        W90319  40.963  13.660  12.927
17895W        W90320  40.862   5.701   3.314
17896W        W90321  20.102  10.139   2.318
17897W        W90322  37.516  31.528   1.225
17898W        W90323  30.633  42.883   0.908
17899W        W90324   3.322  37.842   1.928
17900W        W90325  28.618  22.006   3.188
17901W        W90326   5.275  44.764  13.338
17902W        W90327  19.636   4.841   2.816
17903W        W90328   3.956  10.842  11.089
17904W        W90329  31.427  41.932   1.348
17905W        W90330  12.788  38.975   3.230
17906W        W90331  17.111  11.791   3.843
17907W        W90332  15.677   0.936  14.346
17908W        W90333  22.546  35.387   1.798
17909W        W90334   7.264  25.596   2.337
17910W        W90335  21.112  30.018  10.563
17911W        W90336  33.887  37.842  11.403
17912W        W90337  38.952  11.226  14.839
17913W        W90338  18.164   5.724  13.937
17914W        W90339  18.555  11.832  13.369
17915W        W90340  42.500  32.969   0.805
17916W        W90341  19.070   6.874   3.772
17917W        W90342  26.185  22.179  11.861
17918W        W90343   1.824  16.706  12.984
17919W        W90344  18.608  43.964  12.838
17920W        W90345  29.565  12.723  11.608
17921W        W90346  44.432  10.683  12.049
17922W        W90347  13.601  44.842   0.871
17923W        W90348   2.374  38.057   1.382
17924W        W90349  31.087  24.156  12.467
17925W        W90350  23.570  38.537  13.409
17926W        W90351  28.584  27.998  14.804
17927W        W90352  44.922  15.160  13.362
17928W        W90353   8.661  14.242   1.267
17929W        W90354   2.465  37.004   3.337
17930W        W90355   1.404  21.058   2.710
17931W        W90356   0.770   8.405  11.380
17932W        W90357   4.440  25.626  13.868
17933W        W90358  14.832  40.344  12.054
17934W        W90359  17.673  28.142   4.671
17935W        W90360  42.344  40.412  11.928
17936W        W90361  15.257  14.206   2.209
17937W        W90362  17.285   3.229   3.670
17938W        W90363  16.175   4.443  12.370
17939W        W90364  32.943   5.706  14.440
17940W        W90365  42.519   1.899  11.473
17941W        W90366  14.145  18.766  13.013
17942W        W90367  19.096   7.670  10.561
17943W        W90368  18.750  19.075   3.677
17944W        W90369  23.609  40.012  13.370
17945W        W90370   2.348   4.737  10.471
17946W        W90371  38.977   3.843  10.070
17947W        W90372  15.215  13.672  14.453
17948W        W90373   1.845  27.953   0.872
17949W        W90374  14.255   8.684  13.024
17950W        W90375  16.200  34.606  14.464
17951W        W90376  37.905   1.966   2.240
17952W        W90377  44.985  35.450   3.752
17953W        W90378  36.023  38.434  13.366
17954W        W90379  14.707  22.218   4.768
17955W        W90380  43.298   3.736   3.274
17956W        W90381  25.169  26.972  13.867
17957W        W90382  10.266  18.264  14.385
17958W        W90383   9.203  34.957  11.920
17959W        W90384  42.025  42.496  12.516
17960W        W90385   9.885   7.791  13.455
17961W        W90386  10.281  15.221   3.667
17962W        W90387  14.156  38.031  12.039
17963W        W90388  33.616   3.393   0.897
17964W        W90389  41.492  38.347  14.376
17965W        W90390  39.372  13.223   4.751
17966W        W90391  29.036  30.567  11.025
17967W        W90392  25.136  44.849  12.973
17968W        W90393  41.902  15.308   3.728
17969W        W90394  41.381  40.800  13.438
17970W        W90395  34.891  13.226  14.493
17971W        W90396   4.333  38.882  13.799
17972W        W90397  41.353  12.776   3.184
17973W        W90398   5.871  40.350   4.748
17974W        W90399  24.486  16.732   2.368
17975W        W90400   8.896  34.475  13.485
17976W        W90401  37.831  15.280   0.323
17977W        W90402  42.287  27.149  12.978
17978W        W90403  29.571  11.755  10.041
17979W        W90404  43.904   1.451  11.424
17980W        W90405  11.274  39.907   4.249
17981W        W90406   0.404  33.384   5.753
17982W        W90407  19.160  21.619  11.454
17983W        W90408  44.433   3.870   0.963
17984W        W90409   1.870  39.822  11.026
17985W        W90410   9.304  23.117   0.799
17986W        W90411  17.682   1.936  13.504
17987W        W90412  31.065  26.640  10.595
17988W        W90413  26.497  34.537  12.569
17989W        W90414  35.924  34.497  12.869
17990W        W90415  44.875  43.949  11.100
17991W        W90416  27.184  21.643   1.857
17992W        W90417  30.916  10.328   5.239
17993W        W90418  16.202  29.532   4.290
17994W        W90419   0.795   4.780   2.800
17995W        W90420  27.634   1.895  12.011
17996W        W90421  44.466   1.927   5.139
17997W        W90422   0.825  12.615  12.873
17998W        W90423   3.881   2.722   4.263
17999W        W90424  33.502  23.067  13.012
18000W        W90425  27.954  23.113  12.535
18001W        W90426   9.744  42.873   0.470
18002W        W90427  14.104  21.027  11.977
18003W        W90428  41.957  40.955   1.237
18004W        W90429   2.245  13.257   4.647
18005W        W90430   5.860  41.922   0.749
18006W        W90431  31.001  43.809   2.902
18007W        W90432  43.396  25.000   5.288
18008W        W90433  42.453  10.281  13.983
18009W        W90434  22.501   5.277   2.747
18010W        W90435  17.195  12.731   4.347
18011W        W90436  43.837  43.912   3.318
18012W        W90437   4.747  26.118  12.548
18013W        W90438  21.692  43.506  12.407
18014W        W90439  13.313  27.017   0.770
18015W        W90440   2.440  24.714  11.962
18016W        W90441  41.484  13.198   0.750
18017W        W90442  10.678   7.306   0.767
18018W        W90443   5.334  34.041   1.883
18019W        W90444  39.959  37.410   4.224
18020W        W90445  34.577  37.916  10.634
18021W        W90446   7.326  11.758   1.257
18022W        W90447   8.282  37.059  13.483
18023W        W90448  11.330  11.726   0.373
18024W        W90449  11.829  20.657   1.256
18025W        W90450  36.515   9.286  13.386
18026W        W90451  15.674  33.988   1.930
18027W        W90452  20.669  31.601   2.210
18028W        W90453   7.880  30.945   2.242
18029W        W90454  10.714  26.520   0.814
18030W        W90455  35.489   7.778  14.503
18031W        W90456  20.135   6.426  10.466
18032W        W90457  37.066  21.537   3.855
18033W        W90458   7.808   7.410   1.420
18034W        W90459  23.185  29.666   1.916
18035W        W90460  15.650  21.607   1.440
18036W        W90461  27.040  19.630  10.520
18037W        W90462  33.924   7.226   2.726
18038W        W90463  29.573  31.066  13.513
18039W        W90464  15.634  20.541   3.658
18040W        W90465  23.156   5.349  11.529
18041W        W90466   0.917  41.821  10.563
18042W        W90467  36.357   7.901  11.977
18043W        W90468   6.809  34.388  14.870
18044W        W90469  43.819  33.098   3.325
18045W        W90470   7.182  34.580   0.296
18046W        W90471   9.251  31.470  10.923
18047W        W90472   4.942   3.432  12.418
18048W        W90473  18.575  25.133  12.344
18049W        W90474  43.830  31.070   4.620
18050W        W90475  29.042  29.461  14.005
18051W        W90476  33.929  21.116   1.361
18052W        W90477   5.426  40.539   4.266
18053W        W90478  10.678   1.397  11.031
18054W        W90479   6.315   0.777   4.256
18055W        W90480   5.347  27.095  13.931
18056W        W90481  11.165  10.747   2.336
18057W        W90482  14.319  21.070   4.611
18058W        W90483  13.829  22.025   3.670
18059W        W90484  38.999  35.897   4.768
18060W        W90485  39.979   9.782   4.695
18061W        W90486   8.685  22.726   0.355
18062W        W90487   3.415   5.733  11.951
18063W        W90488  39.512   1.249   4.140
18064W        W90489  11.803  13.289  14.462
18065W        W90490  29.453  21.736   0.795
18066W        W90491  10.156  21.620   1.401
18067W        W90492  16.780  40.436   1.776
18068W        W90493  27.615  29.934  10.509
18069W        W90494  34.924  21.708   2.400
18070W        W90495  36.024  23.059  14.369
18071W        W90496  10.318  18.082  11.418
18072W        W90497  20.169  34.081   4.148
18073W        W90498  37.834  41.936  12.880
18074W        W90499  40.337  44.946   2.799
18075W        W90500  27.158  26.008   2.841
18076W        W90501   8.294  43.310   2.395
18077W        W90502  22.133   5.243   1.274
18078W        W90503  44.310  11.864  10.124
18079W        W90504  14.183   6.370   3.347
18080W        W90505   3.891  12.116  13.847
18081W        W90506   0.877  27.184   0.760
18082W        W90507  26.061  40.395  13.368
18083W        W90508   2.293  44.770   2.353
18084W        W90509  36.008  26.986  11.499
18085W        W90510   2.425  19.267   1.222
18086W        W90511  13.637  20.040   2.837
18087W        W90512  27.168  26.610  10.614
18088W        W90513  32.635   6.221   3.310
18089W        W90514  13.302  42.391   2.776
18090W        W90515  33.884  17.591  10.606
18091W        W90516   6.194   7.780   3.148
18092W        W90517   4.818  11.367  13.947
18093W        W90518  35.871  32.454  14.415
18094W        W90519  26.114  18.671   1.882
18095W        W90520  15.153   9.230   4.335
18096W        W90521  44.383   6.894   3.179
18097W        W90522  25.064  20.230   0.441
18098W        W90523   0.273   9.202  11.071
18099W        W90524  43.782  20.673   4.324
18100W        W90525  11.622  22.123   1.819
18101W        W90526  34.089   2.283  10.444
18102W        W90527  17.662  28.529  12.921
18103W        W90528  40.455  23.189   1.756
18104W        W90529  25.579   6.283  14.879
18105W        W90530   0.918   3.836  13.973
18106W        W90531  36.452  16.269   0.939
18107W        W90532   3.718   0.459  14.765
18108W        W90533  21.116  29.059  14.395
18109W        W90534  38.470  30.008  13.499
18110W        W90535  12.693  36.852   0.244
18111W        W90536   4.735  31.148  13.931
18112W        W90537  27.585  30.961   0.396
18113W        W90538  37.475  31.146   4.155
18114W        W90539  29.020  40.525  13.414
18115W        W90540  33.108  31.959  12.975
18116W        W90541  38.028  36.912   3.158
18117W        W90542  12.284  31.020  14.300
18118W        W90543  25.644  43.335  14.344
18119W        W90544  22.057  22.635  11.392
18120W        W90545  23.034  21.260   4.692
18121W        W90546  44.359  44.789   3.640
18122W        W90547  37.344  26.675  13.007
18123W        W90548  12.744  42.863   2.719
18124W        W90549  44.435   0.299  12.824
18125W        W90550  18.749  40.421   0.243
18126W        W90551   1.426  28.938   1.247
18127W        W90552  11.309   9.813  11.095
18128W        W90553  19.691  42.287   1.289
18129W        W90554  23.211  25.026   0.343
18130W        W90555  32.939  11.833   4.145
18131W        W90556   3.894  41.855  10.434
18132W        W90557   7.709   9.676  13.330
18133W        W90558   0.829  26.473  12.527
18134W        W90559   1.347  18.775   1.357
18135W        W90560   3.454   8.667  13.881
18136W        W90561  23.061  21.665  12.414
18137W        W90562  44.260  24.529   4.819
18138W        W90563  24.612  11.194  14.485
18139W        W90564  28.662  41.511  10.976
18140W        W90565  22.140  44.994   0.309
18141W        W90566  41.038  12.359  11.989
18142W        W90567  12.749  18.590  13.366
18143W        W90568  21.635  20.157  10.992
18144W        W90569   7.727  27.568   0.759
18145W        W90570   6.389   0.288   0.258
18146W        W90571  36.852  14.149  12.537
18147W        W90572  19.603  33.095   0.326
18148W        W90573  24.182   5.693  14.475
18149W        W90574  38.559  41.028  11.439
18150W        W90575   8.292  34.599   1.308
18151W        W90576  18.766   4.895  13.865
18152W        W90577   1.903  12.234  12.991
18153W        W90578   2.943  34.517   4.156
18154W        W90579  30.630  41.956  14.479
18155W        W90580   6.731  28.540  13.876
18156W        W90581  36.380   9.296  10.945
18157W        W90582   4.374  11.213   0.919
18158W        W90583   6.193  25.569  14.287
18159W        W90584  11.367  10.822   0.293
18160W        W90585   9.223  43.938  11.121
18161W        W90586  36.517  38.471   4.667
18162W        W90587  12.684   6.185  12.419
18163W        W90588  32.963  11.230  13.486
18164W        W90589   8.794  30.657  12.003
18165W        W90590   2.796  27.026  14.002
18166W        W90591  31.582   7.869  14.849
18167W        W90592  29.023  32.031  10.612
18168W        W90593  10.171  19.736  13.003
18169W        W90594  26.577  16.647   0.904
18170W        W90595  12.155  30.448  11.523
18171W        W90596  22.172   6.415  10.416
18172W        W90597  18.663  43.514   2.263
18173W        W90598  35.500  20.683   0.296
18174W        W90599   9.660  13.141   2.781
18175W        W90600   2.254   4.937   9.965
18176W        W90601  28.571  36.440  11.472
18177W        W90602   2.726   8.886   2.394
18178W        W90603   3.273  15.814  11.073
18179W        W90604  21.119   1.797   3.300
18180W        W90605  34.118  16.759   0.328
18181W        W90606   2.885  44.888   2.359
18182W        W90607  27.675  29.032  10.466
18183W        W90608  17.710  16.809   2.395
18184W        W90609  20.227  44.991  12.499
18185W        W90610  23.189  38.372  14.510
18186W        W90611  10.279  40.485   3.310
18187W        W90612  38.958  13.721   2.815
18188W        W90613  42.525  23.493   0.883
18189W        W90614  31.555  34.434   1.431
18190W        W90615  32.615   3.732  10.909
18191W        W90616  34.035  21.641  12.547
18192W        W90617  39.024  31.584   4.290
18193W        W90618  34.989  35.097   1.890
18194W        W90619   8.238   8.801  11.890
18195W        W90620  44.957  30.105  14.012
18196W        W90621  37.341  36.567  12.433
18197W        W90622  13.312  39.417   0.742
18198W        W90623  37.880  37.933  12.558
18199W        W90624   5.785  33.572  14.028
18200W        W90625   7.863  19.266   4.292
18201W        W90626  38.009  14.115  12.531
18202W        W90627   3.729  32.586  12.475
18203W        W90628   9.777   1.322  10.552
18204W        W90629  43.934  39.492   2.414
18205W        W90630  34.544  31.522  14.359
18206W        W90631   5.296   8.319   2.305
18207W        W90632  26.001  43.931  12.346
18208W        W90633  33.938  11.130  13.428
18209W        W90634  26.154  25.530  12.443
18210W        W90635  23.142  38.029   3.712
18211W        W90636  39.861  32.535  10.502
18212W        W90637  19.189   1.483  12.536
18213W        W90638  30.656  20.263   0.482
18214W        W90639  41.870  26.998  11.434
18215W        W90640  21.239   3.821   1.902
18216W        W90641  24.072  33.084  10.582
18217W        W90642  28.610  41.926  12.480
18218W        W90643  20.065  25.964   2.269
18219W        W90644  21.528  17.123   2.813
18220W        W90645   9.826  32.892   3.268
18221W        W90646  26.486  10.300   2.712
18222W        W90647  14.197   8.855  12.436
18223W        W90648  37.835   2.396   3.642
18224W        W90649  18.691  38.861   1.775
18225W        W90650   7.412  28.600  13.408
18226W        W90651  34.458  25.645   0.781
18227W        W90652  19.249  11.254   1.735
18228W        W90653  14.625  31.146  12.896
18229W        W90654  39.841   9.711   3.753
18230W        W90655  29.433  21.219   0.854
18231W        W90656   9.715  22.508  11.000
18232W        W90657   1.431  21.155   3.163
18233W        W90658  31.457  20.140  14.275
18234W        W90659  42.965  35.492  11.498
18235W        W90660  16.569  32.921  11.532
18236W        W90661  28.088  41.523   3.826
18237W        W90662  29.436  24.053   5.109
18238W        W90663  38.969  27.082  10.953
18239W        W90664   8.343  22.036  12.512
18240W        W90665  41.816  16.795   0.744
18241W        W90666  28.474  24.706   1.788
18242W        W90667  33.929  11.821  10.983
18243W        W90668  40.445  27.662   0.866
18244W        W90669  17.658  27.529  10.887
18245W        W90670  25.143  31.630   4.260
18246W        W90671   3.746   3.224   3.348
18247W        W90672  15.115  41.943   0.835
18248W        W90673  24.062   4.768   0.425
18249W        W90674  38.870  18.727   0.769
18250W        W90675   9.303  24.633   4.120
18251W        W90676  18.687   2.351  13.047
18252W        W90677  21.737   5.690  13.411
18253W        W90678   0.458  15.646  11.872
18254W        W90679   5.861  22.528   1.385
18255W        W90680  32.050  37.357  12.970
18256W        W90681  30.991  19.175  11.933
18257W        W90682  31.955   4.367   3.174
18258W        W90683  12.162  20.238   1.762
18259W        W90684  17.659   9.701   4.259
18260W        W90685  13.744  23.991   2.237
18261W        W90686  30.532  20.082   3.763
18262W        W90687  34.454  20.187   0.735
18263W        W90688  39.435  37.974  11.964
18264W        W90689   1.882  37.409  13.408
18265W        W90690  32.067  23.986   3.302
18266W        W90691  43.880   3.928   1.237
18267W        W90692  38.513  38.917   2.196
18268W        W90693   0.478   6.887   4.345
18269W        W90694  42.356   5.319  14.786
18270W        W90695   3.935  26.517   2.730
18271W        W90696  30.939  31.530  14.984
18272W        W90697  11.351   0.877  14.782
18273W        W90698  40.498   9.777   1.890
18274W        W90699  22.173  22.224   2.400
18275W        W90700   5.843  42.890  14.784
18276W        W90701  26.660  11.701   1.250
18277W        W90702  43.500  13.246   4.257
18278W        W90703  24.535  24.139   1.842
18279W        W90704  43.897  42.827  11.099
18280W        W90705   5.785  21.177   0.419
18281W        W90706  39.819   7.221  13.871
18282W        W90707  25.709   4.807   4.319
18283W        W90708  32.537   5.826  10.461
18284W        W90709  30.054  33.079  10.407
18285W        W90710  44.355  14.206  14.905
18286W        W90711  31.419  26.620   4.633
18287W        W90712  16.239  39.018  11.122
18288W        W90713   5.196   8.690   3.324
18289W        W90714   3.400  42.969   0.332
18290W        W90715  11.211   9.286  13.404
18291W        W90716  17.106   8.744  14.942
18292W        W90717  30.464   2.730  14.843
18293W        W90718  37.877   8.162  14.829
18294W        W90719  13.624  10.809  14.766
18295W        W90720  24.009  21.593   0.443
18296W        W90721  35.000  28.178   4.285
18297W        W90722   2.469   6.717   2.350
18298W        W90723   1.275  39.990   4.193
18299W        W90724   6.332  27.575  12.414
18300W        W90725  25.054  34.495  11.588
18301W        W90726   9.837  27.682   2.400
18302W        W90727  12.214  35.936   3.644
18303W        W90728  34.394  20.677  11.950
18304W        W90729  15.718  11.760   0.828
18305W        W90730  38.862  38.556   4.644
18306W        W90731   4.392  38.830   1.809
18307W        W90732  42.457  14.283  13.365
18308W        W90733  31.139  15.583  11.491
18309W        W90734   0.952  28.946   5.121
18310W        W90735  30.519  23.502   2.677
18311W        W90736  18.555  24.493  13.465
18312W        W90737   1.921  11.322  11.013
18313W        W90738   3.397  37.478   3.782
18314W        W90739  16.271   5.882  14.305
18315W        W90740  24.656   2.419  14.954
18316W        W90741   5.366  29.462  13.531
18317W        W90742  16.194  32.430  14.788
18318W        W90743  33.594  10.724  12.850
18319W        W90744  36.500  37.930  13.534
18320W        W90745  12.693   8.722   4.171
18321W        W90746   6.764  12.778   0.262
18322W        W90747  31.477   1.395  11.970
18323W        W90748  36.858  38.970   2.885
18324W        W90749  18.549   1.900   2.365
18325W        W90750  13.758   3.445   3.147
18326W        W90751  39.381  37.450   1.728
18327W        W90752  11.705  37.038   0.325
18328W        W90753   6.847  22.617  13.048
18329W        W90754  24.199  29.432   0.457
18330W        W90755  20.764  15.206   4.224
18331W        W90756  11.864  42.807   0.777
18332W        W90757  44.500  40.935  14.860
18333W        W90758  10.372  41.457   1.370
18334W        W90759  13.329  20.699  14.006
18335W        W90760  24.139  20.104  10.989
18336W        W90761   5.691  38.003  11.089
18337W        W90762  32.986  25.042   3.203
18338W        W90763   0.481  39.961   2.833
18339W        W90764  31.958  12.358  12.480
18340W        W90765   8.817  29.923  13.394
18341W        W90766  25.094  29.143  12.870
18342W        W90767   0.964  31.442   0.835
18343W        W90768  17.144  37.572   1.841
18344W        W90769  28.978  18.129  14.798
18345W        W90770   9.353  17.712   2.316
18346W        W90771  14.298  20.108   3.159
18347W        W90772  16.233  34.998  13.008
18348W        W90773  29.090  21.691   2.221
18349W        W90774   2.731  38.965  11.052
18350W        W90775   8.897   6.691  12.434
18351W        W90776  12.258  41.909  13.951
18352W        W90777  17.594   1.448   3.640
18353W        W90778  13.792  39.496   2.859
18354W        W90779  16.759  21.527  13.507
18355W        W90780  34.470  44.760  11.957
18356W        W90781  21.080  40.045   3.203
18357W        W90782  24.606  31.623  11.587
18358W        W90783   0.891   7.192  12.881
18359W        W90784  33.103  43.918  10.940
18360W        W90785  26.203   0.885  13.545
18361W        W90786  27.484  15.084   3.179
18362W        W90787  22.535  37.419   1.734
18363W        W90788  33.540   4.427   2.895
18364W        W90789  11.130  25.017   1.753
18365W        W90790  17.272  32.502   9.997
18366W        W90791  12.257   4.240  14.781
18367W        W90792   0.263  22.168  14.315
18368W        W90793  11.746   8.891   3.692
18369W        W90794  15.198  33.004  13.925
18370W        W90795   9.368  32.062   2.743
18371W        W90796  22.061  27.507   0.889
18372W        W90797  43.314  23.724   4.766
18373W        W90798   2.267  11.769   5.252
18374W        W90799   8.815  12.334   3.378
18375W        W90800  29.577  27.651  13.337
18376W        W90801   7.381  12.624   1.857
18377W        W90802  25.655  39.848   3.240
18378W        W90803  15.642  39.980   0.371
18379W        W90804  36.573  43.973  14.436
18380W        W90805   9.208  39.395   1.912
18381W        W90806  11.307  42.495  12.027
18382W        W90807  21.075   0.962   3.737
18383W        W90808  10.794  16.131  11.405
18384W        W90809  43.971   3.257   3.383
18385W        W90810  43.990  42.286  12.561
18386W        W90811  16.108  28.161  12.943
18387W        W90812   4.332  23.702   3.812
18388W        W90813  11.836  39.427  13.819
18389W        W90814  23.023   9.200  11.967
18390W        W90815  15.727  12.141  14.994
18391W        W90816   4.241  17.602   3.712
18392W        W90817  27.086  20.579  13.875
18393W        W90818  43.974  39.949   4.209
18394W        W90819   7.210  14.188   3.366
18395W        W90820  34.396  19.638   0.876
18396W        W90821  35.058   7.386  13.469
18397W        W90822  32.599  43.445  14.281
18398W        W90823   0.751  26.019   4.603
18399W        W90824  36.968  16.692  11.388
18400W        W90825  38.068  38.876  10.936
18401W        W90826  20.231   0.931  14.999
18402W        W90827  16.635  36.040   0.347
18403W        W90828  19.275  44.812  10.510
18404W        W90829  23.594  40.328  14.908
18405W        W90830  40.496  19.116  13.489
18406W        W90831  11.833  43.457  11.048
18407W        W90832  29.135  19.112   4.212
18408W        W90833  13.747  11.810   1.438
18409W        W90834  17.654  15.731   2.333
18410W        W90835   2.325  38.460   4.790
18411W        W90836  21.670   3.869  14.962
18412W        W90837   5.931   1.374   1.903
18413W        W90838  26.680  30.514   1.358
18414W        W90839  12.336  18.764   2.664
18415W        W90840  44.944  26.112  13.893
18416W        W90841  15.658   3.721  13.861
18417W        W90842   8.189  26.981   1.702
18418W        W90843  18.066  33.604  13.971
18419W        W90844  40.410   1.775  13.805
18420W        W90845  33.606  21.747  12.996
18421W        W90846  38.986  44.259   5.150
18422W        W90847  44.901  42.414  11.858
18423W        W90848  34.863  30.590   1.804
18424W        W90849   5.770  29.040   2.381
18425W        W90850  40.031   7.332   1.856
18426W        W90851  21.147   0.260  10.080
18427W        W90852   6.351  33.098  12.911
18428W        W90853  15.264   8.298   1.355
18429W        W90854  38.926  34.483  10.540
18430W        W90855  17.590  41.883  10.525
18431W        W90856  29.121  19.055   1.291
18432W        W90857  33.411  22.183   4.612
18433W        W90858  18.118  40.451  12.858
18434W        W90859  13.143  30.986  13.474
18435W        W90860  29.448   3.303  10.423
18436W        W90861  40.416  10.635   3.343
18437W        W90862  42.330  25.587  13.347
18438W        W90863   7.203  10.718   1.836
18439W        W90864  33.098  10.350   1.338
18440W        W90865  38.000  34.378  13.854
18441W        W90866  18.225  15.664   1.898
18442W        W90867  33.507  40.904  12.860
18443W        W90868  25.003  44.425  13.965
18444W        W90869  11.724   6.904  13.792
18445W        W90870  17.579   7.259  13.039
18446W        W90871  44.816   9.169  14.347
18447W        W90872   6.418  35.358   0.357
18448W        W90873  16.244  41.374   4.175
18449W        W90874  14.332  10.317   3.789
18450W        W90875  18.293  44.002  14.395
18451W        W90876  41.340  11.351  11.067
18452W        W90877  40.853  43.347  12.558
18453W        W90878  37.449   2.920  12.038
18454W        W90879  13.281  20.035   0.281
18455W        W90880  41.818  19.104   3.762
18456W        W90881  30.492  29.934  14.452
18457W        W90882  12.338  11.225  13.919
18458W        W90883  18.258  24.698  11.506
18459W        W90884  19.624   7.844  14.442
18460W        W90885  29.169   2.312  10.443
18461W        W90886   9.353  20.045   3.692
18462W        W90887  24.558   6.417   0.284
18463W        W90888  13.313  15.706  13.453
18464W        W90889   6.867   5.692  13.000
18465W        W90890   0.282  12.276   2.305
18466W        W90891  42.392  36.005   3.166
18467W        W90892   2.885  35.593  13.884
18468W        W90893  44.947  34.893  13.539
18469W        W90894  28.154  19.275   2.268
18470W        W90895  12.855   0.805   1.431
18471W        W90896  23.002   4.346  14.982
18472W        W90897  20.182  22.157   2.228
18473W        W90898  40.520   8.845   2.255
18474W        W90899  30.528  44.270  12.405
18475W        W90900  17.684  16.246  11.058
18476W        W90901  37.845   0.962  10.428
18477W        W90902  38.384  13.158   3.687
18478W        W90903   7.329  33.084  14.489
18479W        W90904  30.965  38.909  12.535
18480W        W90905   2.332  23.680  12.918
18481W        W90906  36.902  18.578  13.515
18482W        W90907   4.802   8.860  10.918
18483W        W90908   2.249  39.054   0.937
18484W        W90909   7.202   7.739  11.120
18485W        W90910   9.839  38.930  14.363
18486W        W90911  12.229  22.173   0.350
18487W        W90912  26.653  41.485   3.648
18488W        W90913  19.575  12.765  12.875
18489W        W90914  38.336  38.564  10.484
18490W        W90915  15.211  15.135  11.894
18491W        W90916  18.193  10.723   3.376
18492W        W90917  26.523  44.988   0.765
18493W        W90918  25.602   2.951   4.767
18494W        W90919  22.592  25.642  14.491
18495W        W90920  20.665  29.486  14.507
18496W        W90921   7.378  31.587  12.873
18497W        W90922  22.535  16.184   1.250
18498W        W90923  37.012  32.029  12.958
18499W        W90924  11.272  38.471   1.255
18500W        W90925  20.173  24.121   0.818
18501W        W90926  31.126  10.222  11.066
18502W        W90927   8.729  14.272   3.662
18503W        W90928  33.906  13.283  10.554
18504W        W90929   4.877  12.231   0.391
18505W        W90930   4.281   6.331  11.032
18506W        W90931  36.056  26.562  14.983
18507W        W90932  15.679  42.027  11.086
18508W        W90933  41.427   1.261   1.290
18509W        W90934  19.685   5.272  14.370
18510W        W90935  10.211  29.443  11.098
18511W        W90936  35.581  15.329   2.219
18512W        W90937   0.276  17.783  11.124
18513W        W90938  24.222  38.977  12.877
18514W        W90939  43.949  32.072   1.781
18515W        W90940  27.456  22.039   2.252
18516W        W90941   5.222  41.919   4.119
18517W        W90942  39.972  20.216  10.458
18518W        W90943  22.168  36.924  14.476
18519W        W90944  40.804   3.444   2.185
18520W        W90945  21.130  37.513  13.508
18521W        W90946  12.208  24.600  12.845
18522W        W90947  31.524  14.105  11.984
18523W        W90948  15.758  30.448  13.491
18524W        W90949  13.123  11.129   0.369
18525W        W90950  31.504  32.923  12.456
18526W        W90951   2.921  15.287  13.870
18527W        W90952  41.438  43.472   0.766
18528W        W90953  41.293   9.827   4.250
18529W        W90954  40.829   9.222  13.830
18530W        W90955  31.111  15.702  12.960
18531W        W90956   8.329  41.881  13.419
18532W        W90957  26.981  19.055  12.009
18533W        W90958  30.131  17.557  10.559
18534W        W90959   0.930  18.625  13.923
18535W        W90960  24.561   8.757   4.174
18536W        W90961  16.657  23.136   1.255
18537W        W90962   2.901  24.637  14.783
18538W        W90963  17.651   5.689   1.729
18539W        W90964  44.450  22.006  14.876
18540W        W90965  25.077   2.349   1.253
18541W        W90966  34.506  36.535   3.159
18542W        W90967   3.319  41.965   5.176
18543W        W90968   3.397  42.024  11.546
18544W        W90969  36.922  29.054   3.699
18545W        W90970  13.348   7.318   2.744
18546W        W90971  12.618  23.592   0.412
18547W        W90972  17.595  32.555   1.870
18548W        W90973  10.188   4.233   0.418
18549W        W90974  37.084  15.681   1.931
18550W        W90975  30.634   3.785  11.508
18551W        W90976  15.688  23.628   1.356
18552W        W90977  25.150   5.757  10.992
18553W        W90978  31.956  44.873   3.195
18554W        W90979  21.603  40.388   3.153
18555W        W90980  43.407  21.571  12.035
18556W        W90981   0.983  20.115   4.661
18557W        W90982  36.865  11.625  11.123
18558W        W90983  33.985  25.153   3.277
18559W        W90984  12.681  10.718  12.512
18560W        W90985  27.521  25.104   1.730
18561W        W90986  11.724  43.460   2.752
18562W        W90987  18.130   3.216  11.103
18563W        W90988   4.214  23.994   3.704
18564W        W90989  11.133  44.949   2.188
18565W        W90990   8.350  36.533  14.283
18566W        W90991   7.828  18.117  13.461
18567W        W90992   2.943   8.333  11.402
18568W        W90993  21.181  35.596   0.474
18569W        W90994  11.789  10.862   3.719
18570W        W90995  29.024  26.996  12.079
18571W        W90996  27.492  21.103   3.718
18572W        W90997  15.135  32.453   5.584
18573W        W90998   6.803  35.366  14.867
18574W        W90999   5.746  42.304  13.058
18575W        W91000  13.619   5.887  13.039
18576W        W91001  18.080  17.283   2.220
18577W        W91002  29.524  28.060  13.028
18578W        W91003   7.354  40.922  10.569
18579W        W91004  33.429  16.627  12.433
18580W        W91005  14.156   2.811  14.475
18581W        W91006  35.098  30.958   1.711
18582W        W91007  35.420   9.657  13.924
18583W        W91008  27.179  20.719  12.431
18584W        W91009  44.847  29.991  10.891
18585W        W91010  26.677  38.834  13.887
18586W        W91011   5.921  13.288  10.600
18587W        W91012   8.665  38.880   1.430
18588W        W91013  28.552  25.663  13.454
18589W        W91014   5.703  36.044  10.415
18590W        W91015  27.538  43.854   1.407
18591W        W91016  31.148  20.272  10.934
18592W        W91017   3.760  37.915   4.681
18593W        W91018   4.888  24.657   4.766
18594W        W91019  26.579  36.502   3.346
18595W        W91020  43.372  33.474   4.187
18596W        W91021  44.278   2.797   4.763
18597W        W91022  34.888  42.977   5.277
18598W        W91023   9.734  13.295  12.881
18599W        W91024  24.593  13.635  10.983
18600W        W91025  33.000  24.051   0.870
18601W        W91026  14.689  34.007   3.197
18602W        W91027  38.824  37.929  11.540
18603W        W91028  18.756  26.594   4.785
18604W        W91029   1.825  30.157  12.493
18605W        W91030  16.269  12.320   4.116
18606W        W91031  21.174   8.758   1.919
18607W        W91032   8.338  40.871  14.334
18608W        W91033  13.140  22.133   5.798
18609W        W91034  25.490  41.481   1.872
18610W        W91035   5.764  39.355   3.176
18611W        W91036  36.970   5.759  14.397
18612W        W91037  27.647  33.535  14.984
18613W        W91038   6.261  39.323   3.696
18614W        W91039   5.309  41.380   2.223
18615W        W91040  30.996   4.281   1.819
18616W        W91041  43.280  19.777  13.063
18617W        W91042  28.080  34.893   5.239
18618W        W91043  24.703  26.988   3.337
18619W        W91044   1.317  42.349   2.344
18620W        W91045  27.092  40.373   4.152
18621W        W91046  37.434   4.362  14.910
18622W        W91047  10.192  11.214  14.340
18623W        W91048  21.167  37.940  11.000
18624W        W91049  33.008   7.364  12.853
18625W        W91050  34.012  39.869   2.247
18626W        W91051  23.558  13.759  13.791
18627W        W91052  14.227  23.690   4.742
18628W        W91053  14.286  43.351   4.677
18629W        W91054  15.671  18.685  12.942
18630W        W91055   6.261   6.915  11.611
18631W        W91056  11.194  31.613   2.779
18632W        W91057  14.232  31.453  14.296
18633W        W91058  40.998  25.187   1.859
18634W        W91059  10.837  41.807  13.827
18635W        W91060   3.394  42.515   2.877
18636W        W91061  31.537  44.981   1.345
18637W        W91062   2.406  39.014  14.481
18638W        W91063   0.943   4.400   3.758
18639W        W91064  14.105   1.312   3.815
18640W        W91065  40.414   5.931   2.385
18641W        W91066  35.593  30.053  11.014
18642W        W91067  15.776  29.644   0.475
18643W        W91068   8.233  25.628   1.354
18644W        W91069  21.681  18.753  14.917
18645W        W91070   8.205  30.524   0.965
18646W        W91071  35.013  44.875  12.002
18647W        W91072  44.331  38.463   3.705
18648W        W91073  34.382   0.908  10.642
18649W        W91074  33.553   4.936   0.738
18650W        W91075  32.041  19.711   1.306
18651W        W91076   6.863  26.180   2.707
18652W        W91077  21.754  44.325  11.390
18653W        W91078  43.946  15.805  12.544
18654W        W91079   1.388  22.656   2.769
18655W        W91080  29.664   2.316  13.463
18656W        W91081  38.025   5.323  13.847
18657W        W91082  43.342   2.924   1.895
18658W        W91083  19.283   7.691   1.921
18659W        W91084  18.199   3.338   4.117
18660W        W91085   2.358   1.888  11.022
18661W        W91086  42.976  11.235   1.934
18662W        W91087   4.414  10.703   1.842
18663W        W91088   1.809  26.978   3.635
18664W        W91089  31.618  23.023   3.164
18665W        W91090  26.534   4.304  12.370
18666W        W91091  14.245  14.603  11.049
18667W        W91092   1.453  24.492  12.451
18668W        W91093  20.106  20.223   4.801
18669W        W91094  20.633  40.341   0.307
18670W        W91095  19.769  12.291   3.861
18671W        W91096   9.815  25.645   4.154
18672W        W91097  17.796  43.783   0.303
18673W        W91098   4.801  14.281  12.841
18674W        W91099  20.535  24.087  11.058
18675W        W91100  16.804  19.715  12.058
18676W        W91101   7.279  43.429   0.394
18677W        W91102  27.617  14.658   0.441
18678W        W91103  10.244  12.779  10.457
18679W        W91104  25.098  41.498   1.880
18680W        W91105  30.986  12.203   2.340
18681W        W91106   6.358   8.325  12.479
18682W        W91107   7.205  34.417  14.472
18683W        W91108  12.157  16.122   1.222
18684W        W91109  19.633  26.639  10.108
18685W        W91110  22.058  39.006  10.404
18686W        W91111  19.102  10.368  11.515
18687W        W91112   3.358  26.009  12.420
18688W        W91113  36.418  11.291   0.267
18689W        W91114  41.371  21.691   0.816
18690W        W91115  35.492  19.764   2.693
18691W        W91116  11.193  27.560   0.322
18692W        W91117  42.517  34.391  14.355
18693W        W91118   8.832  17.199   4.192
18694W        W91119  44.941  32.438  10.451
18695W        W91120   3.299  42.027  13.977
18696W        W91121  14.142   6.844  13.004
18697W        W91122  34.584  12.124   4.138
18698W        W91123  33.461  16.720   4.238
18699W        W91124  30.577  19.263   1.894
18700W        W91125  36.880  22.714  11.554
18701W        W91126  17.100  15.312  13.013
18702W        W91127   3.937   3.942  12.073
18703W        W91128  29.975  39.866  11.515
18704W        W91129  21.114  18.664  11.956
18705W        W91130  39.058  27.450  13.923
18706W        W91131  39.533  35.444   3.155
18707W        W91132  28.558  32.893  11.105
18708W        W91133   3.301  33.092  14.918
18709W        W91134  11.736  23.028  12.831
18710W        W91135  27.575  14.219  12.384
18711W        W91136   2.339  42.497   0.419
18712W        W91137  31.524  19.757   3.191
18713W        W91138  32.911  43.300   0.838
18714W        W91139  42.845  29.527  13.423
18715W        W91140   6.185  35.955   4.770
18716W        W91141   8.332  20.228   0.250
18717W        W91142   6.316  36.007   5.313
18718W        W91143  33.878  15.157   4.674
18719W        W91144  17.221  20.179   1.816
18720W        W91145  14.796  15.230  12.043
18721W        W91146  43.328  15.611  14.506
18722W        W91147  44.938  23.599   2.316
18723W        W91148  40.938  21.202  11.580
18724W        W91149  34.450  25.688  13.847
18725W        W91150  18.105  22.652   2.775
18726W        W91151   6.864  20.081   3.643
18727W        W91152  10.690  17.105   2.758
18728W        W91153  19.719  22.033   0.922
18729W        W91154   2.361  11.247   3.640
18730W        W91155  27.476  21.175  11.929
18731W        W91156  31.121  21.561   1.230
18732W        W91157  36.404   1.353  13.520
18733W        W91158  24.540  35.913   4.300
18734W        W91159   1.738   1.779   4.115
18735W        W91160  31.576  33.888   0.845
18736W        W91161  39.500   2.377  14.944
18737W        W91162  17.175  41.517   9.920
18738W        W91163  21.217  37.970   1.247
18739W        W91164  20.203  16.074  12.378
18740W        W91165  16.588  22.566   1.755
18741W        W91166  18.717  13.131   4.713
18742W        W91167  32.544  40.824  14.846
18743W        W91168  23.558  28.146   2.299
18744W        W91169  41.533  39.363  10.994
18745W        W91170   9.337   1.260   3.265
18746W        W91171  26.523   1.371   1.924
18747W        W91172   4.439  15.752   2.683
18748W        W91173   2.888  16.682   1.395
18749W        W91174  13.125  20.133   2.833
18750W        W91175   1.855  17.643  14.282
18751W        W91176  37.868  30.431   2.893
18752W        W91177  24.685  15.730  14.309
18753W        W91178  37.562   7.819  14.997
18754W        W91179  29.459  37.453  10.897
18755W        W91180  28.042   0.465  11.950
18756W        W91181  35.895   9.171   5.135
18757W        W91182  38.344  14.212   3.655
18758W        W91183   7.891  31.600  13.430
18759W        W91184  39.332   1.777  13.429
18760W        W91185   3.828  14.109  13.353
18761W        W91186  34.048   2.263   3.318
18762W        W91187  11.733   1.926  13.860
18763W        W91188  27.975   6.400   5.236
18764W        W91189  22.018  31.149   1.895
18765W        W91190   3.240  27.984   3.307
18766W        W91191   3.442  28.966   1.432
18767W        W91192  41.496   0.371  13.541
18768W        W91193  35.409   7.829   1.354
18769W        W91194  32.141  35.441  14.991
18770W        W91195  18.702  35.094   3.782
18771W        W91196  38.400   8.670   3.753
18772W        W91197   3.869   6.227   4.706
18773W        W91198  17.796  12.844   3.300
18774W        W91199  13.201  37.441   3.704
18775W        W91200  33.930  31.080   0.766
18776W        W91201  42.343  12.313   1.744
18777W        W91202   3.765  18.103  10.560
18778W        W91203  35.049   4.779  10.132
18779W        W91204   7.371   2.280   2.787
18780W        W91205  25.488  20.759  14.030
18781W        W91206   2.262  41.431   0.464
18782W        W91207   3.307  37.400  14.986
18783W        W91208  39.916  44.759  14.779
18784W        W91209  12.128  20.100  12.887
18785W        W91210  18.621  37.905  11.034
18786W        W91211  11.310   0.494  11.871
18787W        W91212  43.272  31.973  10.120
18788W        W91213  12.728  25.071   1.813
18789W        W91214   6.700  23.711  14.883
18790W        W91215   9.783  10.853   4.310
18791W        W91216  27.108  26.612  11.080
18792W        W91217  28.970  27.566  11.109
18793W        W91218  36.361  40.848   3.236
18794W        W91219  35.086  33.618  13.383
18795W        W91220  28.152   6.257   2.293
18796W        W91221  10.247  29.433   5.318
18797W        W91222   4.385  33.544   0.919
18798W        W91223   1.327   4.789  14.001
18799W        W91224  30.581   4.823  12.865
18800W        W91225  21.198  42.780   9.954
18801W        W91226  41.827  23.144  11.390
18802W        W91227   5.216  36.361  14.343
18803W        W91228  24.153   0.284  12.529
18804W        W91229  19.088  39.334  11.999
18805W        W91230  26.500   0.285   1.873
18806W        W91231  35.942  40.504   4.655
18807W        W91232  43.962  44.754  13.919
18808W        W91233  35.421  25.048  12.094
18809W        W91234  44.778   7.809  12.957
18810W        W91235  37.955  14.145   1.245
18811W        W91236   6.733  30.911  14.815
18812W        W91237  37.496  13.261  12.004
18813W        W91238  16.293  41.969   4.201
18814W        W91239   6.305  29.658  13.988
18815W        W91240  17.705  23.501  13.843
18816W        W91241   5.388  16.204  11.101
18817W        W91242  15.153  27.068   2.301
18818W        W91243   2.949  38.416  14.510
18819W        W91244  30.945  24.017  12.045
18820W        W91245  28.029  36.491  11.091
18821W        W91246   9.358  41.435  13.474
18822W        W91247  44.424  40.967   2.754
18823W        W91248  11.306   9.244   1.713
18824W        W91249  25.024  33.468   4.663
18825W        W91250  23.198  16.728   2.854
18826W        W91251  11.363  29.091  10.898
18827W        W91252  10.285  32.962  10.526
18828W        W91253  15.252   1.453   3.244
18829W        W91254  27.557   6.194   4.768
18830W        W91255  14.122   4.928   1.719
18831W        W91256   5.710  36.588  14.277
18832W        W91257  34.422   3.768  13.811
18833W        W91258  27.192  26.208   1.304
18834W        W91259  22.020  30.947   0.324
18835W        W91260  41.984  43.950  11.948
18836W        W91261   4.359   6.196  13.482
18837W        W91262  37.512   8.295  14.491
18838W        W91263  21.718  20.759   1.928
18839W        W91264  11.762  35.974  12.400
18840W        W91265  42.423   3.357   1.826
18841W        W91266  14.136  18.682   4.153
18842W        W91267  38.072  16.699  12.825
18843W        W91268  43.809  35.876  11.095
18844W        W91269  22.201   6.694  10.444
18845W        W91270  22.522   4.818   3.210
18846W        W91271   1.871  32.424   3.214
18847W        W91272  21.236  13.177   4.253
18848W        W91273  10.249  24.123  14.759
18849W        W91274   7.863   3.429   1.867
18850W        W91275  19.246  28.001  14.961
18851W        W91276  19.154  35.533   4.281
18852W        W91277  32.549  33.544   1.748
18853W        W91278  15.225  30.929   1.826
18854W        W91279  10.804  16.742   0.417
18855W        W91280  19.738   8.780  11.958
18856W        W91281  26.051   1.422   4.349
18857W        W91282   9.257  40.473   3.164
18858W        W91283  23.576   9.800   4.214
18859W        W91284  10.209  14.142  11.380
18860W        W91285  43.896  22.563  12.849
18861W        W91286   7.820  30.656   4.624
18862W        W91287  32.103   8.379   1.393
18863W        W91288   8.296  19.684  14.502
18864W        W91289  15.105   6.289   1.312
18865W        W91290  44.500  14.803  10.582
18866W        W91291   3.752  34.428  12.911
18867W        W91292  24.598  37.962   1.363
18868W        W91293  16.230  20.135  13.901
18869W        W91294  39.813  27.600  10.961
18870W        W91295  12.636  19.094   2.241
18871W        W91296  30.079   1.888  10.475
18872W        W91297  21.748  24.117  11.951
18873W        W91298  22.188  28.016  10.635
18874W        W91299  17.277  10.866  10.580
18875W        W91300  10.190   7.706  14.295
18876W        W91301  38.332  10.289   1.221
18877W        W91302  30.491  26.201  12.357
18878W        W91303  31.956  38.531  10.942
18879W        W91304   6.201  44.339   0.367
18880W        W91305  29.114  43.361  13.817
18881W        W91306  12.281   0.406  11.581
18882W        W91307   7.307  23.569   2.721
18883W        W91308  11.793  35.080   3.273
18884W        W91309  14.665  26.185  13.880
18885W        W91310  19.611  17.084   4.269
18886W        W91311  27.143  29.118  10.963
18887W        W91312  12.135  37.344   0.403
18888W        W91313  19.780  37.865   3.785
18889W        W91314  14.233  26.957  13.827
18890W        W91315  36.530  18.237   3.721
18891W        W91316  20.766  36.096   4.702
18892W        W91317   2.828  44.008  11.037
18893W        W91318   2.863  40.380  12.015
18894W        W91319  28.631   3.419  13.489
18895W        W91320  15.249  10.208   2.392
18896W        W91321   8.669  29.070   3.649
18897W        W91322  10.234  42.859   1.408
18898W        W91323  20.255  15.270  10.488
18899W        W91324  32.894  26.610   1.428
18900W        W91325  33.911  20.215  11.565
18901W        W91326   3.368  17.562   0.953
18902W        W91327  39.846  32.410   1.714
18903W        W91328  38.882  14.741   3.248
18904W        W91329   4.250  43.421   1.308
18905W        W91330  40.007  17.199   0.778
18906W        W91331  34.907  44.295   1.785
18907W        W91332  31.901  15.794  11.931
18908W        W91333  19.620  24.068   5.220
18909W        W91334  35.956  12.223  10.423
18910W        W91335  24.161  23.177  12.562
18911W        W91336  39.417  20.610  12.536
18912W        W91337  20.215   8.683   9.924
18913W        W91338  17.216  33.009   5.131
18914W        W91339   3.801  29.561   0.360
18915W        W91340  19.689   2.866   4.136
18916W        W91341  18.231  20.567   1.233
18917W        W91342  44.813  36.004   0.374
18918W        W91343  19.050  35.034  13.425
18919W        W91344  13.216  26.574  11.029
18920W        W91345   9.697  23.024  12.966
18921W        W91346  16.655  11.162   4.688
18922W        W91347  10.301  14.259   3.221
18923W        W91348  31.022  20.663   0.352
18924W        W91349  33.070  19.704   4.656
18925W        W91350  34.534   9.869   3.755
18926W        W91351  27.448   3.242   1.382
18927W        W91352  22.590   3.955   4.310
18928W        W91353  42.442  24.119  12.981
18929W        W91354  35.060  31.636  14.324
18930W        W91355  10.788  44.445  10.526
18931W        W91356  38.350  41.843  10.635
18932W        W91357  37.973  33.429  10.413
18933W        W91358  41.421   4.279  14.475
18934W        W91359  24.980  16.712   1.704
18935W        W91360  39.557  12.642  11.979
18936W        W91361  43.927  22.025  10.476
18937W        W91362  15.710  35.003   9.931
18938W        W91363   2.388  25.179   1.211
18939W        W91364  26.008  33.479   1.430
18940W        W91365  25.713  25.580   3.823
18941W        W91366  31.056   8.212   4.339
18942W        W91367  11.334  13.642  14.887
18943W        W91368  19.273  18.217   3.674
18944W        W91369  20.766  29.453  13.807
18945W        W91370  22.159  28.605   3.382
18946W        W91371   4.732   9.702   2.789
18947W        W91372   0.787  26.576  13.388
18948W        W91373  40.332  14.256   2.353
18949W        W91374   4.381  17.257   0.757
18950W        W91375  42.415  38.410  12.028
18951W        W91376  32.929  21.735   3.714
18952W        W91377  38.857  19.587  14.325
18953W        W91378  10.182  41.464   9.923
18954W        W91379  40.846   1.745  12.019
18955W        W91380  41.353  17.794  11.457
18956W        W91381  39.056  41.524   5.198
18957W        W91382  29.600  20.738   0.367
18958W        W91383   4.737  30.074   1.865
18959W        W91384  33.447   4.907   5.150
18960W        W91385  39.402   7.217  14.437
18961W        W91386  31.539  26.126  11.610
18962W        W91387   8.164  27.996  12.886
18963W        W91388   1.808   7.792   4.166
18964W        W91389  44.392   0.257   4.117
18965W        W91390  38.452  38.934  12.996
18966W        W91391  43.415   7.815   0.754
18967W        W91392   7.824  33.031  13.037
18968W        W91393  32.975  33.947   0.451
18969W        W91394  39.336  28.532   0.411
18970W        W91395   4.207   5.435  13.957
18971W        W91396   9.196  43.499   2.361
18972W        W91397  29.115  42.289   1.750
18973W        W91398  33.583   7.691  13.394
18974W        W91399   0.397  38.911   1.739
18975W        W91400  19.258   0.906   0.963
18976W        W91401  14.750  10.369  10.907
18977W        W91402   8.288   3.309  11.380
18978W        W91403  12.223  16.191  12.864
18979W        W91404  40.326  13.741  12.923
18980W        W91405  35.590   4.415   1.244
18981W        W91406  19.618   3.373  11.945
18982W        W91407  14.588  19.549  12.835
18983W        W91408  13.634   6.254   3.362
18984W        W91409   0.765  37.546  10.430
18985W        W91410  14.691  17.123  12.009
18986W        W91411  20.655  42.804  13.886
18987W        W91412  24.048  15.283  10.419
18988W        W91413  42.935  32.999   4.166
18989W        W91414  44.416  10.383  13.423
18990W        W91415  22.634  30.053   1.903
18991W        W91416  30.464   4.392  11.080
18992W        W91417   3.302  43.329   1.763
18993W        W91418  19.562  25.489  12.432
18994W        W91419  30.479  18.772  13.465
18995W        W91420  21.689   9.233  11.424
18996W        W91421  36.928  43.919   2.310
18997W        W91422  26.010  17.228  14.906
18998W        W91423  10.159  18.077  12.369
18999W        W91424   2.742  38.997  14.981
19000W        W91425  31.011   1.887  10.624
19001W        W91426  12.167  24.710   4.808
19002W        W91427   1.391  14.252  13.425
19003W        W91428  40.013  14.135   2.405
19004W        W91429  38.997  24.656  12.841
19005W        W91430  13.249  10.716   1.344
19006W        W91431   6.393  21.700  11.574
19007W        W91432  25.488  26.175  10.635
19008W        W91433  43.932  18.723  13.412
19009W        W91434  39.062   8.382  14.285
19010W        W91435  10.767  12.283  12.014
19011W        W91436   6.918   0.968   4.749
19012W        W91437  41.957   3.917   3.376
19013W        W91438  17.641  34.021   4.805
19014W        W91439  16.659  34.962  12.553
19015W        W91440  19.647  40.350  11.867
19016W        W91441   5.757  12.350   1.729
19017W        W91442  41.528  10.383   0.860
19018W        W91443   5.298   1.965   3.168
19019W        W91444  34.113  26.068   0.795
19020W        W91445  39.332  39.410   1.360
19021W        W91446  40.999   6.421  14.457
19022W        W91447  33.452  23.115  14.346
19023W        W91448  19.620  15.279  13.487
19024W        W91449   7.359  28.529   2.819
19025W        W91450  11.257   3.251  10.589
19026W        W91451  41.377  37.992   0.955
19027W        W91452  43.844  36.446  11.982
19028W        W91453  21.101  12.162   2.744
19029W        W91454  33.946   2.936  13.505
19030W        W91455  33.001  18.057  14.857
19031W        W91456  23.022  29.494   4.818
19032W        W91457  26.630  29.636   1.885
19033W        W91458   3.302  29.974  13.040
19034W        W91459  23.592  25.159   0.885
19035W        W91460  34.574   6.758   1.376
19036W        W91461  25.139  37.982   0.936
19037W        W91462  22.238   6.697  13.995
19038W        W91463  37.040   4.725   2.398
19039W        W91464  10.370  43.794  14.977
19040W        W91465  13.136   4.430  13.308
19041W        W91466  38.487   2.465   3.738
19042W        W91467  30.047  39.919   4.788
19043W        W91468   0.857  28.504   3.652
19044W        W91469  25.018  24.485   4.697
19045W        W91470  35.981   5.193   1.882
19046W        W91471  31.599  44.450   4.349
19047W        W91472   2.393  17.134  12.442
19048W        W91473  11.734  12.801   2.763
19049W        W91474   8.383  20.590  11.485
19050W        W91475  10.291   4.726   3.776
19051W        W91476  30.107  37.425   4.318
19052W        W91477  10.763  12.802  13.495
19053W        W91478  37.881  26.998  12.051
19054W        W91479   8.355  11.367  14.922
19055W        W91480  41.843  26.128  14.900
19056W        W91481  38.015  14.200   0.283
19057W        W91482  11.703  29.075   1.752
19058W        W91483   1.313  29.002   3.380
19059W        W91484  11.165  34.535  12.052
19060W        W91485   3.387  24.661   1.222
19061W        W91486   2.949  24.974  11.125
19062W        W91487  25.034   8.670   1.220
19063W        W91488  12.269  28.144   1.866
19064W        W91489  14.221  23.540  10.922
19065W        W91490  15.636   4.910  11.024
19066W        W91491  11.280  22.071   9.485
19067W        W91492   9.689  42.475  10.979
19068W        W91493   0.380   7.812   3.296
19069W        W91494  27.673  35.887  13.997
19070W        W91495   3.910  25.126   2.353
19071W        W91496  10.639   2.456   0.385
19072W        W91497  26.952  22.559  13.383
19073W        W91498  22.077   9.300  13.824
19074W        W91499  34.898  35.932  11.015
19075W        W91500   2.256  16.111   2.180
19076W        W91501  42.896  44.969   3.274
19077W        W91502   1.481  43.320  13.818
19078W        W91503   4.347  34.110   4.307
19079W        W91504  11.844   9.888   3.371
19080W        W91505  37.455   9.318  11.373
19081W        W91506  16.165  42.990   2.179
19082W        W91507  34.429  24.542  11.372
19083W        W91508  26.514  37.974   3.166
19084W        W91509  35.994  11.357  14.422
19085W        W91510  30.928  38.020  11.007
19086W        W91511  33.976  38.879   3.687
19087W        W91512  20.761  37.995  14.915
19088W        W91513  10.167  18.573  13.408
19089W        W91514  28.993   4.273  10.481
19090W        W91515  30.613  43.472  10.540
19091W        W91516  39.540   6.294  11.966
19092W        W91517  17.144  24.578   3.803
19093W        W91518   5.803  15.221   0.964
19094W        W91519   1.823  14.233   4.138
19095W        W91520  36.850  41.480   3.707
19096W        W91521  22.183   2.949  10.643
19097W        W91522   2.953  44.368  13.502
19098W        W91523  30.092  37.080  11.475
19099W        W91524   9.682  42.002   1.904
19100W        W91525  39.034  15.600  10.424
19101W        W91526  22.576  33.416  11.588
19102W        W91527  36.939  24.052   2.730
19103W        W91528  40.496  25.661  12.365
19104W        W91529  43.272  30.450  14.824
19105W        W91530  22.244  36.854   1.380
19106W        W91531  32.436  20.661  14.411
19107W        W91532  14.258  39.869  11.048
19108W        W91533  14.688  32.546   0.853
19109W        W91534  18.287  36.092   3.672
19110W        W91535  10.313  44.754   3.307
19111W        W91536  24.985   5.844   0.864
19112W        W91537  16.757  29.091   1.907
19113W        W91538  18.199  20.639  11.508
19114W        W91539  30.450  36.087   2.789
19115W        W91540  32.897   5.289   1.449
19116W        W91541  15.158   1.425  11.568
19117W        W91542  10.178  34.371   3.731
19118W        W91543   7.415  33.057  12.348
19119W        W91544  11.626  30.442   1.910
19120W        W91545   0.749  37.935  12.887
19121W        W91546   7.324  32.108   2.237
19122W        W91547  41.413  10.729  14.360
19123W        W91548  44.436  32.914  11.556
19124W        W91549   2.442  34.978   2.318
19125W        W91550  28.447  27.177   0.810
19126W        W91551  23.679  40.997  13.418
19127W        W91552  20.256   1.260  13.407
19128W        W91553  20.204  43.856   3.700
19129W        W91554  36.418   1.243  14.935
19130W        W91555   6.243  14.201  10.614
19131W        W91556  17.148   2.360   1.422
19132W        W91557  43.868  35.533   4.246
19133W        W91558  23.507   0.878   1.739
19134W        W91559  33.113  12.199  14.815
19135W        W91560  43.281  16.806  12.083
19136W        W91561  17.596  11.825  11.583
19137W        W91562  44.966  13.269  11.572
19138W        W91563  14.221  41.878   2.417
19139W        W91564  13.177   8.781   2.728
19140W        W91565  36.425  17.130  11.862
19141W        W91566   3.904   0.869   3.855
19142W        W91567  19.208   9.807  10.563
19143W        W91568  32.052  29.137   3.155
19144W        W91569  26.107  33.118  14.462
19145W        W91570   7.208  38.405   0.849
19146W        W91571   1.835   8.305  14.452
19147W        W91572  33.543  15.262   1.824
19148W        W91573  43.817  33.523  12.517
19149W        W91574  37.432  12.283  10.408
19150W        W91575  21.161   5.880  10.131
19151W        W91576   2.759  27.653   2.285
19152W        W91577  33.453  41.351  11.892
19153W        W91578  33.541  29.047  12.428
19154W        W91579  22.542  30.511  10.536
19155W        W91580  38.903  23.217   0.831
19156W        W91581  11.283  42.975   1.740
19157W        W91582  34.383  17.291  14.374
19158W        W91583  39.942  14.218  14.401
19159W        W91584  29.053  16.267   3.191
19160W        W91585   3.729   0.982  13.472
19161W        W91586   1.937  32.130  14.914
19162W        W91587  40.396  40.401  11.096
19163W        W91588  44.777  11.771   3.827
19164W        W91589  33.509  15.656  10.963
19165W        W91590   4.422  41.510  12.470
19166W        W91591  19.716  23.097   1.851
19167W        W91592  19.597  39.521   0.386
19168W        W91593  12.360  26.202  11.891
19169W        W91594  19.709  13.212   1.321
19170W        W91595  12.824  13.257  12.548
19171W        W91596  40.404  31.143   3.267
19172W        W91597   5.368   7.290  11.378
19173W        W91598   9.744  12.224  10.938
19174W        W91599  39.487  27.963   2.669
19175W        W91600  24.061   5.841   3.198
19176W        W91601  34.995  31.569  13.504
19177W        W91602   7.672  11.169  12.507
19178W        W91603  41.435  41.359   0.751
19179W        W91604   9.181  43.316  13.794
19180W        W91605  11.206  40.477   2.299
19181W        W91606   3.365  38.953   4.715
19182W        W91607  44.357  20.193   5.321
19183W        W91608  42.982   5.834   1.449
19184W        W91609   6.280  26.701  14.475
19185W        W91610   9.180   0.450   0.286
19186W        W91611  31.898   0.407  11.423
19187W        W91612  20.108  10.326   3.284
19188W        W91613   6.835  20.607   4.143
19189W        W91614  28.177  29.460  14.956
19190W        W91615  42.448  35.448  10.951
19191W        W91616  11.841  33.399   0.349
19192W        W91617  30.430   4.315  11.856
19193W        W91618   7.269  40.910  14.326
19194W        W91619  27.649  18.733   0.764
19195W        W91620   8.221  40.389   3.655
19196W        W91621  25.068   8.766  14.865
19197W        W91622  33.940   4.927   4.634
19198W        W91623  16.602  44.983   1.784
19199W        W91624  15.752  32.586   5.279
19200W        W91625  27.980   0.969  10.952
19201W        W91626  26.993  18.588   4.151
19202W        W91627  20.762  24.128  13.939
19203W        W91628  21.566  13.793   4.612
19204W        W91629  27.487  13.620  14.499
19205W        W91630   0.268  35.473   4.811
19206W        W91631  33.430  43.316  13.383
19207W        W91632  12.262  15.822  11.885
19208W        W91633  35.547  24.997   3.354
19209W        W91634  34.930  11.171  11.422
19210W        W91635   9.394  34.488   2.263
19211W        W91636  25.965  11.821   3.772
19212W        W91637  23.517  12.728  11.492
19213W        W91638  21.039  23.646  14.365
19214W        W91639  20.577   6.814   2.321
19215W        W91640   3.835  23.096   1.863
19216W        W91641  16.804   0.468   1.770
19217W        W91642  34.414  38.046  12.927
19218W        W91643  10.308  19.107   2.234
19219W        W91644  32.459  38.394   4.177
19220W        W91645  43.406  22.655  12.094
19221W        W91646  14.284   3.819   2.223
19222W        W91647  17.169  39.048   2.416
19223W        W91648   3.432  33.932   0.384
19224W        W91649  27.529  26.647   3.296
19225W        W91650  17.792  43.929  10.560
19226W        W91651  29.136   8.198   4.151
19227W        W91652  21.630  42.440   4.135
19228W        W91653  30.938  32.587  10.585
19229W        W91654   5.406  16.259   2.250
19230W        W91655  42.033  32.430  14.971
19231W        W91656   7.306  14.194   3.845
19232W        W91657   9.328  23.021  10.502
19233W        W91658  12.273  43.856  14.794
19234W        W91659  22.605  14.813  14.478
19235W        W91660   2.394   8.655   1.899
19236W        W91661  25.080   7.273  10.576
19237W        W91662  11.162  21.028   0.449
19238W        W91663  12.302  41.329   1.448
19239W        W91664  28.171  26.497   4.224
19240W        W91665   1.961  40.938   2.367
19241W        W91666  28.655  25.703   1.720
19242W        W91667  25.203   2.275   0.248
19243W        W91668  34.441  42.844   0.965
19244W        W91669  11.223  44.780  11.499
19245W        W91670  35.036  29.558   4.779
19246W        W91671  26.192  11.661   4.178
19247W        W91672  19.231  22.657   3.785
19248W        W91673  21.069  36.573   4.791
19249W        W91674  28.065  38.331  14.483
19250W        W91675   5.807  14.692  14.423
19251W        W91676  44.492  23.129   0.921
19252W        W91677  22.524   1.754   0.463
19253W        W91678  12.313   6.901   2.735
19254W        W91679  37.913   6.702   1.874
19255W        W91680  40.055  34.865   4.627
19256W        W91681  18.643   7.864  10.481
19257W        W91682  13.346  42.369  11.525
19258W        W91683  16.147   3.934   5.195
19259W        W91684  38.451  37.519  11.474
19260W        W91685  34.405  19.246  10.626
19261W        W91686  33.463  12.216   4.697
19262W        W91687   7.855  15.612   3.817
19263W        W91688   2.380   1.896   0.945
19264W        W91689   1.390   8.167  12.404
19265W        W91690   6.739   1.814  14.002
19266W        W91691   9.257  42.494  13.543
19267W        W91692  30.163  31.642   2.226
19268W        W91693  33.452   5.375   0.413
19269W        W91694  12.819  26.630  14.381
19270W        W91695  19.728  43.858  12.468
19271W        W91696  20.100  27.952   3.171
19272W        W91697  39.512   0.441  13.842
19273W        W91698  12.155  16.577   4.119
19274W        W91699  27.590   1.336   0.327
19275W        W91700  34.037  41.792  12.831
19276W        W91701  25.626  10.738   2.266
19277W        W91702  12.761  17.087  11.493
19278W        W91703  28.460  32.012  10.916
19279W        W91704  31.511   6.253   4.219
19280W        W91705  37.555  26.148  11.934
19281W        W91706  41.458  31.952  11.086
19282W        W91707  11.287  33.902   2.689
19283W        W91708  31.944  13.641  12.524
19284W        W91709   7.183  10.677   0.269
19285W        W91710  14.819  12.260   4.260
19286W        W91711  20.240  24.599  13.948
19287W        W91712  29.108  44.435  10.537
19288W        W91713  20.232   6.856   1.344
19289W        W91714   4.935  39.414  12.889
19290W        W91715   1.844  30.036   3.244
19291W        W91716   0.491   5.336  10.478
19292W        W91717  30.471  26.129   1.887
19293W        W91718   5.912   4.885   1.805
19294W        W91719  12.118  39.334   4.157
19295W        W91720  17.091  17.244  14.306
19296W        W91721  12.687  12.167  12.569
19297W        W91722   0.817   1.817   0.881
19298W        W91723   6.713   5.408  10.561
19299W        W91724   6.422  18.601  14.488
19300W        W91725   4.422  13.826   4.230
19301W        W91726  30.007  24.151   2.672
19302W        W91727  23.998   9.648   3.746
19303W        W91728  19.667  26.064  11.881
19304W        W91729   4.230  39.439  11.451
19305W        W91730  25.624  26.959  11.450
19306W        W91731   0.766   3.787  12.361
19307W        W91732  27.623   1.831   2.358
19308W        W91733  36.017  12.279  13.379
19309W        W91734  38.325   7.887  13.341
19310W        W91735  33.110   7.358   4.772
19311W        W91736   7.316  29.935  12.082
19312W        W91737  28.574  21.629  12.045
19313W        W91738  16.182  15.169  12.391
19314W        W91739  38.408  28.072   2.665
19315W        W91740  26.969  30.102  10.016
19316W        W91741  40.045  27.668  12.397
19317W        W91742  22.565  15.309  11.534
19318W        W91743  18.722  29.950  12.483
19319W        W91744   4.258  23.092   4.281
19320W        W91745  20.056  30.604  14.486
19321W        W91746  41.349  44.828  13.366
19322W        W91747  15.170   8.775  10.425
19323W        W91748  43.957  43.383   3.286
19324W        W91749  39.984  34.951  12.078
19325W        W91750  28.972   1.786   4.304
19326W        W91751  38.454   6.878   3.222
19327W        W91752   2.351  24.039   2.719
19328W        W91753  35.503  11.207   3.687
19329W        W91754   6.748   8.371   3.351
19330W        W91755  40.516  23.991  13.034
19331W        W91756  29.042  15.745   0.342
19332W        W91757  15.630  32.504  11.942
19333W        W91758  13.238  33.465   2.824
19334W        W91759  36.434  32.593   2.335
19335W        W91760  29.138  42.915  12.545
19336W        W91761  23.011  27.075   3.669
19337W        W91762   6.319  10.286  12.823
19338W        W91763  27.487  14.820   1.293
19339W        W91764  24.687  42.898  12.827
19340W        W91765  10.271  43.275   3.322
19341W        W91766  34.507   2.929   0.431
19342W        W91767  31.078  33.570  12.489
19343W        W91768  39.385  43.424  12.034
19344W        W91769  24.169  10.254   4.182
19345W        W91770  33.546  29.546   4.811
19346W        W91771  10.150  28.490  11.481
19347W        W91772  33.536  40.453  11.948
19348W        W91773  36.077   0.912   4.332
19349W        W91774  30.593  41.421   1.715
19350W        W91775  33.896  11.238   1.301
19351W        W91776   2.769  33.111  11.424
19352W        W91777  31.617   4.935   1.215
19353W        W91778  21.651  17.755  10.419
19354W        W91779  11.860   3.241   4.276
19355W        W91780   2.443  40.472  11.373
19356W        W91781  15.692   5.250  13.404
19357W        W91782   4.429  11.310   2.901
19358W        W91783  16.787  31.937  14.469
19359W        W91784  21.046  32.569  11.123
19360W        W91785   2.256  22.536   0.348
19361W        W91786  40.995   8.282   3.281
19362W        W91787   5.733  30.568   4.686
19363W        W91788  43.977  15.094   2.402
19364W        W91789   5.422   2.413   3.726
19365W        W91790  25.001  43.793  12.068
19366W        W91791  21.683   5.703   1.416
19367W        W91792  29.172  27.594   2.214
19368W        W91793  37.372  21.148   3.323
19369W        W91794   7.379  36.857  11.548
19370W        W91795  41.019   2.304  13.984
19371W        W91796  36.464   2.230   0.395
19372W        W91797  14.186   4.941  11.557
19373W        W91798   4.273   2.458  11.042
19374W        W91799  29.965  23.095  10.434
19375W        W91800  21.739  29.443  11.439
19376W        W91801  15.721  35.532  10.068
19377W        W91802  18.737   4.206   3.714
19378W        W91803  38.878  29.512  11.436
19379W        W91804   0.811  20.080   0.415
19380W        W91805   5.862  16.668   4.758
19381W        W91806  27.008  44.488   4.673
19382W        W91807  44.758   9.781   0.462
19383W        W91808  32.472   0.401  13.466
19384W        W91809   8.761  18.223   2.811
19385W        W91810   3.924  25.674   0.785
19386W        W91811  40.891  36.098  11.996
19387W        W91812  43.773  33.535  11.512
19388W        W91813  35.042  38.944   1.218
19389W        W91814  27.942  16.701   1.315
19390W        W91815  14.182   6.676  13.435
19391W        W91816  12.263  22.217   3.223
19392W        W91817  25.154   3.872  13.055
19393W        W91818   9.700  23.023  11.483
19394W        W91819  42.289  15.670  11.949
19395W        W91820  19.749  39.963  14.864
19396W        W91821  38.363  37.462   3.291
19397W        W91822  23.139  15.096  14.901
19398W        W91823  44.841   7.742  14.460
19399W        W91824  21.195  37.544   1.399
19400W        W91825   9.657  31.070  10.481
19401W        W91826  11.137  19.163  11.867
19402W        W91827  40.860  33.071  11.563
19403W        W91828  29.106  32.398   2.890
19404W        W91829  18.292  29.501   4.308
19405W        W91830   4.852  35.422   2.273
19406W        W91831  17.694   0.431  14.956
19407W        W91832   6.333   8.239  13.418
19408W        W91833   2.807  31.433  13.913
19409W        W91834  34.943  16.091  11.551
19410W        W91835   5.737  16.657  10.451
19411W        W91836  23.591  16.228  14.772
19412W        W91837  16.784   6.362   3.841
19413W        W91838  36.551   9.840  12.836
19414W        W91839  20.249  44.325   4.120
19415W        W91840  15.809   9.846  12.575
19416W        W91841   4.219  26.170  11.483
19417W        W91842  11.785  38.411   1.342
19418W        W91843   9.357   4.419   1.897
19419W        W91844  23.192  19.189  13.828
19420W        W91845  21.034   8.398   1.796
19421W        W91846   2.391  38.466  13.429
19422W        W91847  35.424  36.967   3.192
19423W        W91848   2.231   0.883  13.391
19424W        W91849   4.447  12.233  14.928
19425W        W91850   9.337   7.252   2.365
19426W        W91851  15.620  21.628   3.157
19427W        W91852  31.507  44.901   3.281
19428W        W91853  10.177  15.113  13.857
19429W        W91854  25.161  32.932  13.510
19430W        W91855  37.926  33.519  13.823
19431W        W91856  27.625   2.771  12.519
19432W        W91857  21.248   0.372   4.797
19433W        W91858  21.247   5.291   2.305
19434W        W91859  32.570  38.072   3.766
19435W        W91860  16.082  15.743   0.855
19436W        W91861  21.705  29.112  11.053
19437W        W91862   8.289  22.009  11.514
19438W        W91863   7.353  12.700  13.515
19439W        W91864  13.797  21.178  12.999
19440W        W91865  23.076  34.096  11.896
19441W        W91866  15.253  25.499  12.415
19442W        W91867   4.423  35.860   0.423
19443W        W91868  26.006  40.352  13.974
19444W        W91869  10.233   7.801   5.299
19445W        W91870  13.313  17.111   9.928
19446W        W91871  28.125  11.841  11.422
19447W        W91872  34.079  19.067   0.967
19448W        W91873  15.735  35.417  13.315
19449W        W91874  39.932  10.652   0.455
19450W        W91875  14.298  16.127   3.862
19451W        W91876  13.754  18.266   2.861
19452W        W91877  44.503   3.392   2.360
19453W        W91878  31.552   0.412  11.491
19454W        W91879  18.100  42.494  13.008
19455W        W91880  37.468   2.302   0.923
19456W        W91881  44.869  42.930  12.566
19457W        W91882  17.252  27.130  12.473
19458W        W91883   3.710  35.867  12.552
19459W        W91884  34.586  19.140  14.969
19460W        W91885  31.580  21.070  14.025
19461W        W91886  25.559  43.317  10.606
19462W        W91887  39.559  16.295  11.600
19463W        W91888   3.954  33.080   2.210
19464W        W91889   6.871   2.276  11.989
19465W        W91890  42.908  39.546   2.816
19466W        W91891  18.657  42.416  11.979
19467W        W91892  37.581  34.466  10.602
19468W        W91893  44.381  13.605  11.040
19469W        W91894  10.751  18.787   0.447
19470W        W91895  34.020   6.916   1.388
19471W        W91896   2.316   1.439  13.539
19472W        W91897  31.898  29.052  12.041
19473W        W91898   9.387  14.285   1.710
19474W        W91899  25.677  12.342   0.364
19475W        W91900  11.291  23.639   0.752
19476W        W91901  28.014  13.801   3.158
19477W        W91902  16.787   2.303   3.163
19478W        W91903   8.175  42.525   0.354
19479W        W91904  36.484  18.145   1.288
19480W        W91905  38.564  38.972  13.952
19481W        W91906   6.339  17.210   1.876
19482W        W91907  39.556  19.723   3.150
19483W        W91908  31.016  38.496   3.164
19484W        W91909  11.248  17.149   2.861
19485W        W91910  31.029   7.693   2.220
19486W        W91911  31.914  38.421   4.220
19487W        W91912  42.817  12.679  10.454
19488W        W91913   8.200   6.685  13.432
19489W        W91914   1.367  34.490  10.521
19490W        W91915   2.809  32.901   4.228
19491W        W91916  17.110   5.856  10.547
19492W        W91917  16.152   0.840   3.847
19493W        W91918  11.832   6.350   5.148
19494W        W91919  21.633  35.484  13.868
19495W        W91920   0.776  40.018   2.895
19496W        W91921  18.117   3.762  11.983
19497W        W91922  23.581   2.439  10.415
19498W        W91923  44.333  29.169  11.391
19499W        W91924  26.987  43.297  14.020
19500W        W91925  37.979  31.515   4.650
19501W        W91926  38.550  16.683  10.890
19502W        W91927  20.172  42.894  10.131
19503W        W91928  13.166   0.265  11.020
19504W        W91929  37.082   5.762  12.028
19505W        W91930   2.786  39.985  10.557
19506W        W91931  20.628   7.262  13.913
19507W        W91932  31.967  30.066   2.350
19508W        W91933  14.714   0.957  10.993
19509W        W91934  38.888  23.508   2.316
19510W        W91935  37.943   8.755   1.329
19511W        W91936  33.470   7.302  11.112
19512W        W91937  35.387  36.016   4.282
19513W        W91938  15.166  40.940  14.847
19514W        W91939   4.716  14.096   0.286
19515W        W91940   7.884   8.244  13.015
19516W        W91941  26.952  32.074  10.438
19517W        W91942   1.264  20.537   4.752
19518W        W91943  32.494  44.341   1.714
19519W        W91944  24.693  41.796   1.366
19520W        W91945  13.664  40.851  12.350
19521W        W91946  25.124   1.464   4.696
19522W        W91947  35.872  44.825  11.974
19523W        W91948  42.934  17.113  14.439
19524W        W91949  24.118  44.463  10.548
19525W        W91950   0.832  23.123   4.619
19526W        W91951   2.727  28.450  13.528
19527W        W91952  15.127  38.528  10.405
19528W        W91953  35.943  23.008  12.436
19529W        W91954  10.192  19.755   2.703
19530W        W91955  28.464  17.738  14.299
19531W        W91956   7.824  13.668  14.430
19532W        W91957  16.094  30.464  12.935
19533W        W91958  28.939  36.918   0.875
19534W        W91959   0.883  24.600   0.900
19535W        W91960  27.592  17.303  13.956
19536W        W91961  29.538  25.538  14.289
19537W        W91962  28.525  42.328  11.382
19538W        W91963  14.124  42.815   3.165
19539W        W91964  17.089  39.353  11.959
19540W        W91965  25.159   3.219  14.915
19541W        W91966   8.374  28.606  14.927
19542W        W91967  31.629  42.341  14.912
19543W        W91968   2.880  17.135   4.748
19544W        W91969   6.819  30.923  10.940
19545W        W91970   6.278  25.092  12.918
19546W        W91971   6.849   5.736  14.415
19547W        W91972  41.413  25.974  11.106
19548W        W91973  24.608  29.922   4.155
19549W        W91974  34.595   8.161  14.996
19550W        W91975  10.717  21.633   2.742
19551W        W91976   3.761  42.984  11.485
19552W        W91977   9.268   5.868   0.312
19553W        W91978   9.832   7.911   0.286
19554W        W91979  34.410  38.047   4.771
19555W        W91980  32.054   6.828  13.325
19556W        W91981  30.963  44.387  10.573
19557W        W91982  39.328  39.948   0.246
19558W        W91983   6.850  44.377   4.238
19559W        W91984  20.119  19.231  14.410
19560W        W91985  39.547  15.754  10.517
19561W        W91986  25.517  34.909   1.768
19562W        W91987  31.971  41.813  11.046
19563W        W91988  22.504  20.183   2.341
19564W        W91989  43.994   3.444   0.360
19565W        W91990  35.890  37.355   4.722
19566W        W91991  14.701  23.203   2.683
19567W        W91992  23.091  14.180   3.310
19568W        W91993  35.385   9.652  14.397
19569W        W91994  40.388  41.796  13.020
19570W        W91995  17.270   1.815  11.864
19571W        W91996  37.441   0.488   1.378
19572W        W91997  19.061  11.147  14.917
19573W        W91998  26.560  44.304  13.444
19574W        W91999  31.942  18.129  13.430
19575W        W92000  30.428   7.261  14.817
19576W        W92001  18.098  41.851  11.978
19577W        W92002  41.950  12.362  10.928
19578W        W92003   0.892  14.804   3.213
19579W        W92004  24.538  24.505   1.894
19580W        W92005   0.494   6.231  12.411
19581W        W92006   1.933   4.940  10.934
19582W        W92007  26.016  43.016   4.690
19583W        W92008  24.106  17.118   1.241
19584W        W92009  20.196  19.079   3.366
19585W        W92010  43.995  11.624  14.404
19586W        W92011  34.995  26.616   3.169
19587W        W92012   5.840   4.747  10.938
19588W        W92013  16.760  32.511  12.370
19589W        W92014  14.691  33.102   0.726
19590W        W92015  10.150  44.006  11.439
19591W        W92016  13.686  35.437  11.961
19592W        W92017  34.489  30.598  11.525
19593W        W92018   6.913  11.832  13.033
19594W        W92019   4.816  30.093  12.968
19595W        W92020  21.179  11.208  11.585
19596W        W92021   5.811   4.853  10.081
19597W        W92022  15.138  39.830  14.961
19598W        W92023  13.188  11.648   1.434
19599W        W92024   3.750  44.007   0.319
19600W        W92025  32.950  11.663  13.392
19601W        W92026   4.312  31.150   0.897
19602W        W92027   7.782  18.295  11.957
19603W        W92028   0.422  37.555  12.397
19604W        W92029  10.369  16.232   1.241
19605W        W92030  21.516   8.284  11.107
19606W        W92031  44.409  34.963   4.637
19607W        W92032  27.627   0.761  10.938
19608W        W92033  22.087  29.553  14.404
19609W        W92034  12.708  41.347   4.758
19610W        W92035  19.198  40.506   2.415
19611W        W92036  31.056  19.697  11.121
19612W        W92037  39.930  13.158  11.111
19613W        W92038  36.911  25.562   2.249
19614W        W92039   4.230  36.555  12.872
19615W        W92040  35.360  39.425  13.799
19616W        W92041  14.637  18.163  12.052
19617W        W92042   8.894  10.638   3.376
19618W        W92043   8.183  29.584  11.917
19619W        W92044  17.230   8.216  11.380
19620W        W92045  12.218  22.115   9.652
19621W        W92046  37.020  14.628  14.399
19622W        W92047  39.905   7.245  14.300
19623W        W92048  33.391  36.933  13.803
19624W        W92049   1.283  40.908  13.338
19625W        W92050  37.426  21.233  13.497
19626W        W92051  38.513  27.616   0.820
19627W        W92052  42.801   7.259   1.435
19628W        W92053  34.542   4.369  11.904
19629W        W92054  42.013  33.444   1.841
19630W        W92055  42.292   3.807  13.447
19631W        W92056   3.426  34.584   3.815
19632W        W92057  41.482   8.281  12.867
19633W        W92058   1.811  33.491  14.875
19634W        W92059  11.318   4.409  10.965
19635W        W92060  43.838  28.161  12.535
19636W        W92061  32.410  20.538  13.948
19637W        W92062  38.402   0.264   1.398
19638W        W92063   5.277   3.418   1.871
19639W        W92064  12.152  18.268   1.920
19640W        W92065   1.942   2.780  10.555
19641W        W92066  22.669   7.787  12.022
19642W        W92067  42.883  23.080   1.932
19643W        W92068  41.842  25.681  11.014
19644W        W92069  11.173   9.819   3.312
19645W        W92070  35.016  34.515   2.373
19646W        W92071  25.205  35.986  14.382
19647W        W92072  29.467  41.036  11.442
19648W        W92073  17.639  32.958  12.998
19649W        W92074  18.716   5.737  13.348
19650W        W92075  33.509   0.426   3.269
19651W        W92076  32.940  15.618   2.720
19652W        W92077  31.006   3.281  14.957
19653W        W92078  25.642  42.822   4.720
19654W        W92079  13.174   4.839   5.222
19655W        W92080  34.999  44.000   1.215
19656W        W92081  24.656  28.659  12.960
19657W        W92082  15.633  11.260  11.490
19658W        W92083  34.404  24.103  12.424
19659W        W92084  35.035  32.900  12.388
19660W        W92085  13.201  24.021  10.039
19661W        W92086  39.554  42.397  12.067
19662W        W92087  12.146  23.721  10.496
19663W        W92088  26.174  26.078  14.824
19664W        W92089  14.272  31.642  13.972
19665W        W92090  34.540   1.916   1.903
19666W        W92091  15.655   6.822   1.238
19667W        W92092  41.507  32.959   1.837
19668W        W92093  44.298  36.087   4.289
19669W        W92094  12.670  39.401  14.508
19670W        W92095   9.301  22.227  14.497
19671W        W92096   5.695  12.339  13.059
19672W        W92097   2.230   6.758   4.789
19673W        W92098  11.251   1.358  14.296
19674W        W92099  20.595  16.673   3.693
19675W        W92100   0.430   3.934  12.374
19676W        W92101  42.473  28.106  11.016
19677W        W92102  31.899   3.367  11.428
19678W        W92103  36.579  20.581   2.230
19679W        W92104   8.291  33.891   4.605
19680W        W92105  27.637  22.596   1.845
19681W        W92106  30.432  34.504   0.299
19682W        W92107  29.607  24.637   0.287
19683W        W92108   4.820  12.852   0.931
19684W        W92109  37.369  26.057   0.383
19685W        W92110  14.786  15.702  13.968
19686W        W92111  13.642  26.651  13.018
19687W        W92112  42.312  36.362   3.345
19688W        W92113  21.177   2.384  12.384
19689W        W92114  15.131  25.969  14.514
19690W        W92115  13.637  32.608  11.951
19691W        W92116  35.405  23.995   1.769
19692W        W92117  17.612  20.261   2.803
19693W        W92118  13.815  15.262  11.893
19694W        W92119   8.191   7.342   2.232
19695W        W92120  36.526  16.770  11.111
19696W        W92121  41.983   0.936  10.999
19697W        W92122  14.606  21.178   3.251
19698W        W92123  27.009  26.107   0.424
19699W        W92124   4.819  28.629  11.576
19700W        W92125  30.481   3.711  13.372
19701W        W92126  32.430  24.685  10.498
19702W        W92127   1.450  12.806  13.054
19703W        W92128   9.734  30.913   4.607
19704W        W92129  41.027   6.197   0.801
19705W        W92130   7.192  10.384   3.173
19706W        W92131  41.805  25.637  13.371
19707W        W92132  39.956  17.694   3.661
19708W        W92133  18.664  17.120   5.121
19709W        W92134   4.711  36.486   4.138
19710W        W92135  19.284  37.025  11.886
19711W        W92136  24.560  10.649  14.973
19712W        W92137   1.439  39.343  10.458
19713W        W92138  13.247  35.596  13.453
19714W        W92139   1.831  24.214   3.323
19715W        W92140  20.196  24.154  13.940
19716W        W92141  18.776  10.270   1.341
19717W        W92142  35.555  31.482   4.292
19718W        W92143  44.894  26.961  12.490
19719W        W92144   7.227   6.365  12.897
19720W        W92145  40.018  26.570  12.905
19721W        W92146  41.490   8.838   0.910
19722W        W92147  26.100  23.198   2.299
19723W        W92148  14.181  31.006   1.833
19724W        W92149  27.612  20.187  11.071
19725W        W92150   4.307  43.402   0.403
19726W        W92151   9.285  42.815  11.941
19727W        W92152  33.977  18.261  13.918
19728W        W92153  20.667   8.210   0.371
19729W        W92154  13.676  12.205  13.013
19730W        W92155  10.227   8.824   0.862
19731W        W92156  28.458  30.962  11.509
19732W        W92157   8.185  36.018  12.499
19733W        W92158  37.562  30.652  13.531
19734W        W92159   9.300   0.788  14.446
19735W        W92160  39.362  30.004   4.652
19736W        W92161  40.959  40.310   0.770
19737W        W92162  28.042   2.938  13.432
19738W        W92163  44.850   2.744   3.668
19739W        W92164  19.733   7.414  10.510
19740W        W92165   5.715  11.152  14.837
19741W        W92166  39.414  25.008  14.972
19742W        W92167  42.909  31.122   3.313
19743W        W92168  16.771  14.744  10.939
19744W        W92169  35.877  27.670   0.446
19745W        W92170  25.556  13.764   0.354
19746W        W92171  39.933  31.021  12.490
19747W        W92172  39.925  41.497  14.294
19748W        W92173  29.568  24.021  11.412
19749W        W92174  43.003   6.729   2.848
19750W        W92175  22.017  26.164  11.410
19751W        W92176  37.490  13.159   5.255
19752W        W92177  21.168   5.890  14.485
19753W        W92178  38.504  25.997  11.484
19754W        W92179  14.293   6.818   1.695
19755W        W92180  34.579  20.079   4.652
19756W        W92181  19.132  13.743   1.407
19757W        W92182  17.746  34.942   1.898
19758W        W92183  31.024  28.517  11.486
19759W        W92184  41.525   7.702   2.758
19760W        W92185  10.365  12.680   3.666
19761W        W92186  24.681  16.743  12.033
19762W        W92187  42.330   0.380   3.685
19763W        W92188   9.395  37.380   3.287
19764W        W92189  17.584  11.816   4.755
19765W        W92190   1.747   6.776   4.310
19766W        W92191  20.218  43.319  12.432
19767W        W92192  18.156  38.328  14.834
19768W        W92193  26.052   2.835   2.369
19769W        W92194  28.509  24.993   1.879
19770W        W92195   0.251  38.992  11.558
19771W        W92196  44.942  28.496   2.350
19772W        W92197  16.169  10.753  10.485
19773W        W92198  21.140  14.709  13.980
19774W        W92199  44.341   9.704   1.402
19775W        W92200  21.612  14.715   4.310
19776W        W92201   3.275  11.350  11.375
19777W        W92202  37.484   9.831   4.792
19778W        W92203  43.392  31.938   1.237
19779W        W92204   8.377  42.420  12.095
19780W        W92205  28.523  36.926  13.956
19781W        W92206  34.466   9.375   4.759
19782W        W92207  13.113   3.861   3.329
19783W        W92208  33.083  23.063  11.998
19784W        W92209   9.175  34.976   0.933
19785W        W92210   8.740  17.230  12.093
19786W        W92211  38.507  18.165  14.275
19787W        W92212  16.594   8.793   0.459
19788W        W92213  27.467   3.267   3.860
19789W        W92214   3.230  36.058   0.406
19790W        W92215  16.633  23.224   3.187
19791W        W92216  36.084   8.166   2.412
19792W        W92217  17.587  21.145  13.916
19793W        W92218   3.396  24.190   3.725
19794W        W92219  17.177  36.582  12.387
19795W        W92220  30.505  30.947  11.594
19796W        W92221   7.362  39.426   2.886
19797W        W92222   0.926  28.080   2.766
19798W        W92223  44.994  39.342  11.556
19799W        W92224   3.287  34.562   0.368
19800W        W92225  37.880  31.915   0.958
19801W        W92226   6.831   3.285   4.630
19802W        W92227  39.502   9.720  11.574
19803W        W92228  40.547  15.150  13.466
19804W        W92229  26.690   4.295   2.255
19805W        W92230  30.939   0.380   1.862
19806W        W92231  11.651  15.663  12.430
19807W        W92232  21.657  25.661   2.255
19808W        W92233  26.050  23.207   4.195
19809W        W92234   1.426  30.079  11.516
19810W        W92235  36.510  10.188  13.340
19811W        W92236  35.008  13.270   0.438
19812W        W92237  30.546  12.283  10.418
19813W        W92238  35.920   4.380   4.622
19814W        W92239  35.898  13.774  10.888
19815W        W92240  36.932  21.568  11.935
19816W        W92241  22.554   9.231  13.899
19817W        W92242  44.348  29.482   0.835
19818W        W92243  44.943  27.476   2.186
19819W        W92244  29.957   8.736   3.167
19820W        W92245  13.336  27.126  10.541
19821W        W92246   4.426  28.049  12.580
19822W        W92247   7.665  31.916  14.908
19823W        W92248  33.434  11.818   3.853
19824W        W92249   3.318  16.305   1.365
19825W        W92250   8.786   4.373   0.960
19826W        W92251  12.838  40.414  14.884
19827W        W92252  23.524  33.513   1.227
19828W        W92253  12.851  28.625   0.391
19829W        W92254  41.803  38.935   1.330
19830W        W92255   0.805   8.768   0.764
19831W        W92256  16.306  44.300   4.229
19832W        W92257  16.211  23.643  12.522
19833W        W92258  14.811  23.509   0.322
19834W        W92259  39.500  18.644   4.166
19835W        W92260  30.584   3.820  10.550
19836W        W92261   8.207  11.767  10.440
19837W        W92262  21.070  26.607   5.216
19838W        W92263   2.349  38.911   5.282
19839W        W92264  23.079  13.640   3.760
19840W        W92265  36.535  27.490  12.418
19841W        W92266  38.017   1.811   0.747
19842W        W92267  13.150   2.826  11.894
19843W        W92268  11.241  44.958   4.352
19844W        W92269   7.243  24.201   0.398
19845W        W92270  29.503  22.651   3.714
19846W        W92271  33.009   3.398  11.506
19847W        W92272  40.513  32.437  13.509
19848W        W92273  25.701  12.754   0.448
19849W        W92274  32.555  38.481   0.801
19850W        W92275  42.498  26.608  10.592
19851W        W92276   6.400  29.129  14.003
19852W        W92277  27.534  22.086   1.716
19853W        W92278  29.163  43.897  11.945
19854W        W92279  17.231  27.658   0.398
19855W        W92280   5.306  24.173   1.876
19856W        W92281  38.512  35.457   1.221
19857W        W92282   0.473  15.747  10.561
19858W        W92283  40.484  17.604  13.795
19859W        W92284  24.685   6.689  10.629
19860W        W92285  10.799  21.605  14.807
19861W        W92286   5.304  19.547  14.868
19862W        W92287  37.417  37.016  13.813
19863W        W92288  14.240  42.336  14.467
19864W        W92289  16.195   1.773   1.271
19865W        W92290   1.285  35.594   1.927
19866W        W92291  25.620  24.170  10.511
19867W        W92292  27.046  38.011  10.891
19868W        W92293  44.003  20.685   0.791
19869W        W92294   1.821  44.358   2.181
19870W        W92295  34.891   6.728   0.326
19871W        W92296   9.200  13.184  10.554
19872W        W92297  16.624  19.270   4.705
19873W        W92298   7.389  30.922   0.342
19874W        W92299   8.233  20.564   0.318
19875W        W92300   6.335   5.911  12.536
19876W        W92301   2.396   2.257  11.517
19877W        W92302  20.700   8.670  14.767
19878W        W92303  43.921  13.261   4.813
19879W        W92304   5.283  41.027  13.873
19880W        W92305  28.968   2.310  12.003
19881W        W92306  12.807   4.936   4.260
19882W        W92307   9.366  34.082  12.551
19883W        W92308  32.949   3.955   0.813
19884W        W92309  11.754  16.641  14.891
19885W        W92310  41.025   7.269  11.489
19886W        W92311   7.860  26.570   0.924
19887W        W92312  41.388  30.637  10.458
19888W        W92313  24.189  11.685   1.327
19889W        W92314  14.253  30.492  13.903
19890W        W92315  17.678  33.395  11.526
19891W        W92316  44.834  12.201   2.379
19892W        W92317  29.613  26.961  10.610
19893W        W92318  20.600  41.371   2.401
19894W        W92319  43.388  28.586   2.901
19895W        W92320  33.532  31.644  13.373
19896W        W92321  29.153  15.148  13.794
19897W        W92322  42.346  43.825   4.333
19898W        W92323   1.407  38.456   1.743
19899W        W92324  10.271  31.530  10.492
19900W        W92325  26.175  16.813  12.023
19901W        W92326  42.848  23.549  11.524
19902W        W92327   6.310  35.102  10.059
19903W        W92328  32.119   2.948  13.426
19904W        W92329  43.767   9.821   3.846
19905W        W92330   1.348  40.905   4.295
19906W        W92331   0.404  16.737   4.277
19907W        W92332  24.100   1.836   5.099
19908W        W92333  19.273  38.017   1.317
19909W        W92334  40.498  25.130   3.787
19910W        W92335  25.046  29.570  14.293
19911W        W92336   0.911  12.294  14.396
19912W        W92337  38.459   6.265  13.000
19913W        W92338  23.038  22.720   4.271
19914W        W92339  21.021  12.351  10.506
19915W        W92340  44.352  15.695  11.025
19916W        W92341  27.121  12.656   4.342
19917W        W92342  19.049  32.514   2.723
19918W        W92343  34.010  33.909   1.900
19919W        W92344  24.721  13.276   3.311
19920W        W92345  26.091  30.624   1.697
19921W        W92346   4.339   1.453   3.654
19922W        W92347  23.039   9.699   2.316
19923W        W92348  19.098  22.641  10.519
19924W        W92349  26.516   9.359  10.462
19925W        W92350  11.211  14.310   4.684
19926W        W92351  38.514  13.731  12.039
19927W        W92352  35.945  37.413  11.478
19928W        W92353  17.143  33.988  13.475
19929W        W92354   9.851   6.711   3.845
19930W        W92355  43.460  40.837   0.248
19931W        W92356   7.179  26.024   2.823
19932W        W92357  44.832   4.805   2.694
19933W        W92358  43.375  13.185  10.610
19934W        W92359   1.407   8.400  10.448
19935W        W92360   9.790   3.946   0.361
19936W        W92361  26.041  44.882  14.304
19937W        W92362  26.166  28.494   2.803
19938W        W92363  34.437  43.471  12.046
19939W        W92364   4.877  23.074  13.029
19940W        W92365  29.000  19.631  14.502
19941W        W92366  20.750   1.895   3.386
19942W        W92367  34.032  28.154   0.378
19943W        W92368  34.416  36.847  14.454
19944W        W92369  40.494  44.278   9.985
19945W        W92370  19.572  24.051  13.482
19946W        W92371  43.781   7.827  13.381
19947W        W92372  12.314  26.634  14.880
19948W        W92373  17.133  25.604  11.470
19949W        W92374  38.911  29.471  14.515
19950W        W92375  41.929  11.227  10.408
19951W        W92376  17.668  17.605   0.881
19952W        W92377  19.203  16.311   2.722
19953W        W92378  20.581  24.488   1.849
19954W        W92379  33.078  28.668   4.253
19955W        W92380  31.061  38.888  10.041
19956W        W92381  26.474  14.153   0.334
19957W        W92382  22.686  29.648   0.735
19958W        W92383  26.168  23.175  10.473
19959W        W92384  19.102  14.681  10.933
19960W        W92385  32.505  28.547   0.811
19961W        W92386  39.883   9.154   3.299
19962W        W92387  26.207   9.355   4.156
19963W        W92388  41.448   0.453   0.728
19964W        W92389   5.887  37.548  11.564
19965W        W92390  41.397  29.618  14.452
19966W        W92391  38.414  17.589  12.494
19967W        W92392  26.513  31.551   1.315
19968W        W92393   9.362  43.800   2.871
19969W        W92394   9.286  22.504   3.735
19970W        W92395  16.775  19.702   3.801
19971W        W92396  41.903  25.087   2.332
19972W        W92397   4.815  19.754  13.886
19973W        W92398  37.904  39.316   4.801
19974W        W92399   4.248  38.495  10.616
19975W        W92400   9.866  39.881  13.977
19976W        W92401  24.230  16.156  13.345
19977W        W92402  43.886   4.347  12.461
19978W        W92403  32.603  36.501   4.249
19979W        W92404  31.626  11.274  11.489
19980W        W92405  25.010  29.046   2.271
19981W        W92406  19.271  37.355   2.849
19982W        W92407  20.244   7.344  11.928
19983W        W92408  20.242  28.965   0.400
19984W        W92409  21.222  25.156   3.314
19985W        W92410  12.281  13.615   4.747
19986W        W92411  33.520  41.974   2.405
19987W        W92412  22.620  44.316   2.867
19988W        W92413  43.964  32.075  13.045
19989W        W92414  21.573  22.071  13.953
19990W        W92415  26.616  43.002  11.580
19991W        W92416  17.637   0.260  10.434
19992W        W92417  35.425   3.386  12.075
19993W        W92418  40.886  36.929   2.214
19994W        W92419   9.355  34.005  14.795
19995W        W92420   1.898   6.905  11.483
19996W        W92421  34.867  30.491   3.697
19997W        W92422  24.603  26.154   2.303
19998W        W92423  14.323  23.523  11.383
19999W        W92424  25.499  32.059  12.876
20000W        W92425  10.308  29.651  14.897
20001W        W92426   2.779   7.245   2.733
20002W        W92427   9.759  12.210  13.508
20003W        W92428  37.457  21.576   1.418
20004W        W92429  37.936  23.628  10.980
20005W        W92430  11.644  16.618  11.112
20006W        W92431  33.082  38.878   2.698
20007W        W92432  40.538   8.339  10.528
20008W        W92433  28.601  22.183   1.252
20009W        W92434  13.803  35.048  11.446
20010W        W92435  11.338  35.360  12.427
20011W        W92436  20.585  16.078   3.678
20012W        W92437  16.787   8.252  10.896
20013W        W92438  15.787   3.260  13.319
20014W        W92439   3.439  33.934  12.018
20015W        W92440  38.965  18.108  13.893
20016W        W92441   0.427  13.623  14.969
20017W        W92442  10.202  30.982  14.289
20018W        W92443  13.207  39.943   1.376
20019W        W92444  27.134  17.750  12.091
20020W        W92445   7.701  32.033  12.385
20021W        W92446   6.407   8.263  13.063
20022W        W92447   2.804  25.627   1.808
20023W        W92448   0.751   5.274   2.663
20024W        W92449  34.867  44.484  12.999
20025W        W92450  40.813  12.769  12.566
20026W        W92451  10.635  38.396   4.828
20027W        W92452  26.561  34.993  11.904
20028W        W92453  30.923  22.582   0.784
20029W        W92454  21.070   7.839  10.896
20030W        W92455  44.378  32.491  14.934
20031W        W92456  37.497  31.486  10.526
20032W        W92457  28.931  19.713  13.350
20033W        W92458  16.151  37.932  14.477
20034W        W92459  42.316  22.024  14.012
20035W        W92460   4.730   7.355   0.855
20036W        W92461  22.088  19.091  12.857
20037W        W92462   1.832  20.226   4.798
20038W        W92463  11.185  32.983   3.717
20039W        W92464  34.051  19.598   1.233
20040W        W92465  19.279  22.084   1.819
20041W        W92466  33.587  19.641   0.347
20042W        W92467   5.689  10.312  11.417
20043W        W92468  15.737  24.157   1.888
20044W        W92469  20.071  30.002  11.114
20045W        W92470  12.838  15.655   0.894
20046W        W92471  24.983   9.243  13.047
20047W        W92472  27.464   5.335   0.830
20048W        W92473   1.382   8.711   0.439
20049W        W92474   7.776  18.156   5.284
20050W        W92475  44.471  21.213  13.954
20051W        W92476  15.614  43.015  10.084
20052W        W92477  20.156  39.000  11.422
20053W        W92478  34.908   8.185   2.272
20054W        W92479  10.267  23.040  12.345
20055W        W92480  32.450   2.760   2.385
20056W        W92481  12.721  36.078   2.741
20057W        W92482  21.073  24.136  14.909
20058W        W92483  37.056  19.542  13.041
20059W        W92484  19.764  14.813   2.757
20060W        W92485  19.087   4.871  12.532
20061W        W92486   1.849   9.835  12.051
20062W        W92487  30.964  42.824  12.478
20063W        W92488  11.713  40.338   0.348
20064W        W92489  25.094  28.668   3.179
20065W        W92490  33.102  38.500   4.281
20066W        W92491  12.189  23.655  13.406
20067W        W92492  30.510   8.770  14.028
20068W        W92493  20.760   0.909   4.716
20069W        W92494  17.565  39.363  14.932
20070W        W92495  26.956  43.870   4.336
20071W        W92496  22.034  23.707  12.464
20072W        W92497  16.265  28.576   3.781
20073W        W92498  10.688  27.117  11.391
20074W        W92499  37.887  18.264  12.850
20075W        W92500  40.395  36.870  11.975
20076W        W92501  24.698  34.036  11.065
20077W        W92502  24.200  25.550   0.789
20078W        W92503  38.421  37.555  10.983
20079W        W92504  41.805  32.466  12.963
20080W        W92505   5.332  16.795   0.729
20081W        W92506  28.546  35.561   3.844
20082W        W92507  38.970   2.252  13.970
20083W        W92508  11.176  41.022   2.352
20084W        W92509  30.157  11.821   1.826
20085W        W92510  11.319  24.118   9.940
20086W        W92511   9.349  29.554  14.372
20087W        W92512  37.916  21.035   9.964
20088W        W92513  30.548  20.218   0.899
20089W        W92514  37.439   9.804  12.858
20090W        W92515  27.631   8.212   0.927
20091W        W92516  18.123  26.015  11.935
20092W        W92517  35.913   2.349   1.773
20093W        W92518  42.816  43.498   2.310
20094W        W92519  11.225  43.305  14.324
20095W        W92520  43.484  12.710   3.364
20096W        W92521  10.143  25.136  12.470
20097W        W92522  15.629  40.855  10.436
20098W        W92523  38.957  15.815  10.898
20099W        W92524   3.916  35.109   1.240
20100W        W92525  10.761  42.868  11.948
20101W        W92526  17.601  23.681   1.263
20102W        W92527  41.979   1.275   3.850
20103W        W92528  13.200  31.040   1.821
20104W        W92529  20.635  15.129   3.236
20105W        W92530  41.453  42.816  12.899
20106W        W92531  13.106   3.828   9.981
20107W        W92532  17.610  17.295   3.279
20108W        W92533  21.043   8.818   4.658
20109W        W92534  26.589  36.391  10.611
20110W        W92535  23.192   3.367   2.786
20111W        W92536  43.997  41.419   3.326
20112W        W92537  40.953  28.506   1.253
20113W        W92538   3.854  39.316  11.603
20114W        W92539   5.876  40.014  14.295
20115W        W92540   9.655  36.514   0.878
20116W        W92541  34.523  34.411   3.692
20117W        W92542  31.002  23.204  10.926
20118W        W92543   1.830  20.228   0.372
20119W        W92544  23.690   0.961   0.468
20120W        W92545   5.819  32.414  12.052
20121W        W92546  40.966  29.539  11.043
20122W        W92547  14.337  34.907   0.924
20123W        W92548  44.987   5.759   4.666
20124W        W92549   3.240   3.358  12.056
20125W        W92550  15.748   0.793   0.751
20126W        W92551  36.547  15.183  10.571
20127W        W92552  11.162  41.922  12.001
20128W        W92553  44.490  23.163  12.371
20129W        W92554  39.877  11.224   4.125
20130W        W92555   7.325  25.498   3.344
20131W        W92556  26.122  41.862  10.896
20132W        W92557  43.781  27.513   0.353
20133W        W92558   7.682  41.817   4.744
20134W        W92559  19.111  29.046  13.899
20135W        W92560  42.361   6.811   3.707
20136W        W92561  10.672   6.743  14.868
20137W        W92562  34.443  11.162  14.413
20138W        W92563  33.929  23.187   3.257
20139W        W92564   4.699   6.899   4.144
20140W        W92565  35.578  37.352  12.448
20141W        W92566  21.142  32.909  11.928
20142W        W92567  23.610  21.617   3.798
20143W        W92568   5.697  26.481  14.805
20144W        W92569  20.725  25.633   1.378
20145W        W92570  21.188  30.029   2.330
20146W        W92571   8.244  21.039   4.809
20147W        W92572  27.568  30.522  11.517
20148W        W92573   3.332  37.084  12.526
20149W        W92574   2.891  30.613  10.600
20150W        W92575  28.459  42.312  10.416
20151W        W92576  26.578  32.622  12.518
20152W        W92577   7.710  25.606   0.809
20153W        W92578  43.933  41.351  12.005
20154W        W92579  37.909  43.274   2.289
20155W        W92580  33.114   2.856  11.936
20156W        W92581  16.214  16.088  11.594
20157W        W92582   2.771  12.800  11.446
20158W        W92583  23.602   0.833   3.240
20159W        W92584  16.625  25.091   3.303
20160W        W92585  34.497   6.406   2.262
20161W        W92586  39.999  15.106  10.408
20162W        W92587  28.637   1.880  10.961
20163W        W92588  35.050  30.426   4.791
20164W        W92589  32.893  32.048   3.276
20165W        W92590  14.167  13.823   4.215
20166W        W92591  13.119  40.505   4.615
20167W        W92592  30.912  44.457   1.279
20168W        W92593  26.465   1.801  12.002
20169W        W92594  30.030   0.294   3.362
20170W        W92595  33.117  21.586  11.053
20171W        W92596  30.962  22.999   3.809
20172W        W92597  37.075   1.360   2.249
20173W        W92598  32.951  27.653  10.986
20174W        W92599  13.684  20.197   0.788
20175W        W92600  14.816  16.131  11.954
20176W        W92601  44.333   4.730  13.417
20177W        W92602   5.373  16.662   2.860
20178W        W92603  33.592  34.088  13.318
20179W        W92604  34.533  42.468  13.336
20180W        W92605  36.871  10.685   3.158
20181W        W92606  11.346  19.628  14.431
20182W        W92607   4.425  10.308   0.799
20183W        W92608  13.110  37.949   2.188
20184W        W92609  13.780   3.798  14.276
20185W        W92610  41.963  23.588  12.940
20186W        W92611  35.057   9.694   1.756
20187W        W92612   6.712  22.014   4.726
20188W        W92613   1.938  34.060   2.778
20189W        W92614  29.139  11.267   2.783
20190W        W92615  18.613  32.980  10.933
20191W        W92616  37.916  38.952   2.340
20192W        W92617  28.076  18.092   4.121
20193W        W92618  31.941   7.408  10.048
20194W        W92619  18.694  20.610   3.642
20195W        W92620  22.560  36.872   4.818
20196W        W92621  25.213  14.734   0.768
20197W        W92622  36.908   2.864   3.724
20198W        W92623  41.004  21.551   3.227
20199W        W92624  21.522  14.703   3.642
20200W        W92625   5.805  34.880  11.578
20201W        W92626  25.612   2.744  12.356
20202W        W92627  41.401  10.233   1.924
20203W        W92628  42.884   5.203   4.126
20204W        W92629  27.097  37.042  14.971
20205W        W92630  36.495  36.461   1.319
20206W        W92631   8.897  43.807  13.431
20207W        W92632  12.286  25.217   5.764
20208W        W92633  20.186  12.142  11.389
20209W        W92634  30.142  12.856   3.632
20210W        W92635  22.676  29.164   4.159
20211W        W92636  15.131   9.264  12.475
20212W        W92637  31.133  15.218  11.094
20213W        W92638  25.021   2.355   4.279
20214W        W92639  10.727  24.623   1.389
20215W        W92640  24.595  31.640   2.715
20216W        W92641  33.954  20.711   1.292
20217W        W92642  37.444  15.152   2.253
20218W        W92643   8.348  40.303   3.235
20219W        W92644   4.830  39.866  10.474
20220W        W92645  23.624  11.135   5.142
20221W        W92646   8.202  20.539   4.680
20222W        W92647  19.045   1.331  10.963
20223W        W92648  21.060  42.308  11.484
20224W        W92649  11.131   6.355   4.229
20225W        W92650  36.372  32.904   1.346
20226W        W92651  20.556  23.228   4.677
20227W        W92652  11.366  13.787   2.901
20228W        W92653  20.097  19.282  13.495
20229W        W92654  20.182  26.468  10.573
20230W        W92655  20.037  41.919  12.025
20231W        W92656  33.121  24.700  11.102
20232W        W92657  41.841  41.336  12.942
20233W        W92658  22.657  22.085  10.042
20234W        W92659   4.831  18.677  12.853
20235W        W92660  40.010  32.055   0.881
20236W        W92661   3.850  31.965   4.121
20237W        W92662   1.322   1.902   2.336
20238W        W92663  10.265  23.030   4.341
20239W        W92664  37.875   3.880  12.532
20240W        W92665  25.982  29.478   4.118
20241W        W92666  38.830  12.119  10.896
20242W        W92667  26.119  15.194   3.709
20243W        W92668   4.431  33.933   0.299
20244W        W92669  32.905  37.891  14.377
20245W        W92670   2.923  29.648  12.471
20246W        W92671  25.631  38.888   3.834
20247W        W92672  12.661  28.532  10.421
20248W        W92673  16.800  44.860  14.779
20249W        W92674   6.242  17.187   0.443
20250W        W92675  24.019   3.302   4.220
20251W        W92676  39.027  34.530  10.061
20252W        W92677   0.384  20.667  10.644
20253W        W92678  25.974   6.786  11.470
20254W        W92679  44.760  37.510   2.864
20255W        W92680  11.206  18.661   0.398
20256W        W92681  38.951  36.972   1.730
20257W        W92682  29.920  31.410   4.180
20258W        W92683   6.285  26.969  14.453
20259W        W92684   6.856   5.838   1.224
20260W        W92685  42.398  40.812   2.302
20261W        W92686   0.962  33.441   5.116
20262W        W92687  39.488  29.006   3.363
20263W        W92688  32.589  16.573  14.908
20264W        W92689  44.773  14.159  14.351
20265W        W92690  30.509  43.435   3.181
20266W        W92691  25.700  22.086  13.060
20267W        W92692  29.098  34.897   4.262
20268W        W92693   0.485   6.851  11.532
20269W        W92694  17.285  28.486   3.258
20270W        W92695  44.947  33.520   1.269
20271W        W92696   6.891  29.102   3.329
20272W        W92697   0.482  12.146  12.576
20273W        W92698  37.081  29.105   1.304
20274W        W92699   1.471  26.501  14.294
20275W        W92700  38.433   2.730   2.411
20276W        W92701   3.378  31.569   1.784
20277W        W92702  22.584  12.825   5.196
20278W        W92703  23.227  42.882  12.418
20279W        W92704  38.542  27.549  14.316
20280W        W92705  15.118  15.106  14.298
20281W        W92706  15.674   3.749   0.907
20282W        W92707  38.833  20.184  13.516
20283W        W92708  25.098  28.077  13.023
20284W        W92709   8.278  31.941   2.315
20285W        W92710  40.968  27.614   0.829
20286W        W92711  39.939   1.751  12.574
20287W        W92712  41.301  12.763  12.436
20288W        W92713  33.092   9.367  10.600
20289W        W92714  18.161  42.375   4.161
20290W        W92715  16.664  21.648  11.598
20291W        W92716   5.202  16.216  13.846
20292W        W92717  36.853  23.644   1.308
20293W        W92718   5.415  38.400  14.343
20294W        W92719  37.038   5.794  14.969
20295W        W92720  12.132  13.146  13.315
20296W        W92721  38.839   4.335  10.070
20297W        W92722  15.683  26.962  13.367
20298W        W92723  19.073  43.913   4.345
20299W        W92724  21.063  20.603   3.289
20300W        W92725  32.051   0.957  10.912
20301W        W92726  24.544  22.153  10.420
20302W        W92727  25.136  36.037  13.431
20303W        W92728  14.259   7.809   3.736
20304W        W92729  22.088   3.217   3.382
20305W        W92730   6.333  24.186  15.000
20306W        W92731  17.233  42.463   4.785
20307W        W92732  34.104  12.767  14.892
20308W        W92733  41.389  30.071   4.336
20309W        W92734  38.396  26.651  14.436
20310W        W92735  22.187  23.574   4.660
20311W        W92736   6.188  19.132   2.712
20312W        W92737   7.315  36.936  14.020
20313W        W92738  42.522   3.338   0.446
20314W        W92739   7.750  14.820   3.644
20315W        W92740  28.041  44.968  12.011
20316W        W92741   0.471  34.017   1.445
20317W        W92742  24.106  39.977   2.833
20318W        W92743  20.615  14.268  14.767
20319W        W92744   2.807  34.443  12.380
20320W        W92745  29.483  15.754   4.808
20321W        W92746  27.946   6.744   2.797
20322W        W92747   4.222  13.188   2.201
20323W        W92748  22.637  39.018  10.046
20324W        W92749  11.633  19.636  11.479
20325W        W92750  31.991  10.685   1.780
20326W        W92751  21.216  35.476   3.660
20327W        W92752  19.242  22.581   3.181
20328W        W92753  33.505   8.658  10.118
20329W        W92754  44.435  44.956  11.066
20330W        W92755   5.246  23.595   1.932
20331W        W92756  40.380  23.514   1.409
20332W        W92757  43.953  21.743   5.748
20333W        W92758  13.138  35.866  14.403
20334W        W92759   0.266  41.536   1.842
20335W        W92760  44.852  15.741  13.857
20336W        W92761  35.910  38.876   1.276
20337W        W92762  26.676  36.489   0.762
20338W        W92763  26.547  16.807   2.758
20339W        W92764  37.054   0.338  12.932
20340W        W92765  20.063   4.757   2.796
20341W        W92766  39.957  15.249  14.802
20342W        W92767  38.518   6.415   2.677
20343W        W92768  13.132  38.354  12.996
20344W        W92769  28.508  11.805  13.320
20345W        W92770   2.959  26.074   1.773
20346W        W92771  36.570  39.886  10.528
20347W        W92772  13.226  34.991  13.855
20348W        W92773  26.181  13.187  14.277
20349W        W92774  39.354  38.396  13.348
20350W        W92775  24.180  28.529   2.662
20351W        W92776  12.291  32.437  11.524
20352W        W92777   5.826  13.687  11.034
20353W        W92778  38.887  10.230   1.394
20354W        W92779   0.249  22.181   0.417
20355W        W92780   1.852  29.164   1.260
20356W        W92781  15.119  14.189   0.338
20357W        W92782  14.637  32.596  13.512
20358W        W92783  30.106  29.967   1.863
20359W        W92784  14.116   8.851   3.633
20360W        W92785  36.542   1.911  10.040
20361W        W92786   9.345  24.105   0.252
20362W        W92787  16.235   8.347  12.515
20363W        W92788  18.253  10.870  10.405
20364W        W92789  14.766  38.364   3.181
20365W        W92790  26.617  23.984   4.161
20366W        W92791  29.941  16.224   1.835
20367W        W92792   4.919  36.413  12.448
20368W        W92793  11.202   5.816   0.311
20369W        W92794   7.873  22.109   2.297
20370W        W92795   6.197   2.304  10.449
20371W        W92796  15.107  37.507   4.194
20372W        W92797  12.810  19.710  14.329
20373W        W92798  27.475  31.987  10.505
20374W        W92799   7.335  25.489  13.335
20375W        W92800  31.006  22.046   1.260
20376W        W92801  30.576  27.055   4.303
20377W        W92802  29.481  42.305   2.854
20378W        W92803  10.654   9.337   2.351
20379W        W92804  34.081  11.717   1.254
20380W        W92805   2.281   1.298   3.229
20381W        W92806  27.470  11.850   3.731
20382W        W92807  12.267  41.862  12.392
20383W        W92808  41.989  16.314  14.508
20384W        W92809  38.471  19.633  13.385
20385W        W92810  12.240  20.723   0.391
20386W        W92811  12.689   8.790   2.728
20387W        W92812   7.303   9.755  14.335
20388W        W92813  23.489   6.202   4.143
20389W        W92814   4.386  44.293  11.858
20390W        W92815  19.563  26.051   1.820
20391W        W92816  32.626  10.710  13.021
20392W        W92817   1.405   5.733   1.806
20393W        W92818  43.776  14.101  12.091
20394W        W92819  21.090  11.309   2.723
20395W        W92820  20.034   0.429  10.059
20396W        W92821  24.135   1.810  12.488
20397W        W92822  20.235  16.260   1.250
20398W        W92823  37.423   3.865  12.340
20399W        W92824  42.936  11.854   1.218
20400W        W92825   0.287   5.694  13.917
20401W        W92826  15.185  24.079   3.386
20402W        W92827  31.937  11.362  10.479
20403W        W92828  34.897  32.423   4.327
20404W        W92829   3.873   7.731  12.863
20405W        W92830  30.126  27.588  10.939
20406W        W92831  41.873  22.505   3.727
20407W        W92832   4.835   0.335   2.663
20408W        W92833  13.104  14.318  14.948
20409W        W92834  26.194  41.982  11.901
20410W        W92835  17.672  24.683   4.256
20411W        W92836  19.226  36.035   0.879
20412W        W92837   9.875   4.945  14.833
20413W        W92838  11.837  19.260   1.774
20414W        W92839   5.742  33.425  13.419
20415W        W92840  11.250  18.785  13.455
20416W        W92841  42.810  34.063   4.646
20417W        W92842  19.575  18.117   2.836
20418W        W92843  20.177  18.708   2.883
20419W        W92844  43.805  25.218   0.419
20420W        W92845  42.345  42.448   4.720
20421W        W92846  22.133  29.066  13.833
20422W        W92847  17.204  40.839  14.900
20423W        W92848  32.427  31.603   3.717
20424W        W92849  18.220  33.528   3.309
20425W        W92850  11.642   5.771   0.348
20426W        W92851  20.258  39.823  13.803
20427W        W92852  27.089  31.616   5.154
20428W        W92853   5.340  29.105  14.444
20429W        W92854  17.696  15.599   3.161
20430W        W92855  19.110  20.584   3.340
20431W        W92856  19.629  20.716   4.697
20432W        W92857  33.934  20.638   4.766
20433W        W92858  37.977  37.021   0.325
20434W        W92859  32.426  23.036   4.601
20435W        W92860  44.455  29.435   0.272
20436W        W92861  15.586  34.467  11.872
20437W        W92862  21.555  36.581   4.670
20438W        W92863   5.789  38.845  13.498
20439W        W92864  17.787   8.230   2.829
20440W        W92865  23.161   9.386  11.077
20441W        W92866  41.898  43.279  14.949
20442W        W92867   3.760  38.355   3.699
20443W        W92868  14.314   4.320  12.484
20444W        W92869   6.263  40.485   3.297
20445W        W92870  19.083  21.188  14.898
20446W        W92871   6.383  27.073   3.343
20447W        W92872  37.451  21.252  12.083
20448W        W92873   1.409  38.830  11.873
20449W        W92874  33.882  40.397  13.820
20450W        W92875  14.665  24.479   0.429
20451W        W92876  36.871  37.388   1.343
20452W        W92877  32.981  44.954   3.163
20453W        W92878  44.945  19.124   2.827
20454W        W92879   9.698   1.307   4.766
20455W        W92880  13.154  27.112  14.503
20456W        W92881  21.170  20.119  11.562
20457W        W92882  14.720   8.358   2.791
20458W        W92883  12.211  16.734  13.814
20459W        W92884  13.329  40.491  14.398
20460W        W92885  34.991  28.976   1.857
20461W        W92886  21.045  10.330   1.354
20462W        W92887  44.005  26.553  14.770
20463W        W92888  34.615  41.879  11.600
20464W        W92889   4.883  39.413   4.135
20465W        W92890  39.861  15.595  14.918
20466W        W92891   8.244  40.461  11.463
20467W        W92892   6.391  42.431   3.845
20468W        W92893  26.485  18.571  14.360
20469W        W92894  36.092  18.732  12.055
20470W        W92895  39.948   1.329  13.382
20471W        W92896   0.481   1.827  14.369
20472W        W92897  43.378  10.169   3.835
20473W        W92898  34.521  28.554   0.404
20474W        W92899  38.562  32.007  12.920
20475W        W92900  20.199  28.059  14.424
20476W        W92901  23.058  33.046   0.937
20477W        W92902  19.244   9.800  11.929
20478W        W92903  28.980   0.906   2.779
20479W        W92904  20.198  23.702  12.826
20480W        W92905  17.662  44.312  11.582
20481W        W92906  15.171  42.822  14.790
20482W        W92907  19.763  29.004   4.729
20483W        W92908  14.629  32.050   0.934
20484W        W92909  13.199  40.009  10.634
20485W        W92910   9.679  14.655   3.174
20486W        W92911  21.223  38.490  10.548
20487W        W92912  34.905  25.712  13.927
20488W        W92913   9.887   3.744   4.181
20489W        W92914  18.774  28.150   5.271
20490W        W92915   4.805   0.903  11.918
20491W        W92916   7.672  15.604  13.381
20492W        W92917  10.802  31.043   4.308
20493W        W92918   8.298   6.677  14.850
20494W        W92919  27.070   0.455   4.268
20495W        W92920  12.202  16.083  13.812
20496W        W92921  19.203   8.763  10.999
20497W        W92922  23.113  28.483   2.318
20498W        W92923   2.392  27.147   0.912
20499W        W92924   5.202  41.368   3.804
20500W        W92925   6.864  19.276   2.333
20501W        W92926  28.614  35.363   4.699
20502W        W92927   4.881   3.368   5.167
20503W        W92928  16.087  10.160  14.763
20504W        W92929  39.845  43.460   1.935
20505W        W92930  37.449  24.107  14.359
20506W        W92931  35.585   9.276  13.532
20507W        W92932  15.581   3.934   5.625
20508W        W92933  27.533  27.989   1.281
20509W        W92934  16.087   0.334   2.695
20510W        W92935  23.060  35.374   4.246
20511W        W92936  24.171  33.614   4.811
20512W        W92937   8.838   8.733   1.829
20513W        W92938  12.358  20.204   3.169
20514W        W92939   2.458  42.519   1.720
20515W        W92940  14.705  33.953   1.441
20516W        W92941  24.222  21.688  14.460
20517W        W92942   8.199  15.281   0.884
20518W        W92943  23.535   2.880   0.354
20519W        W92944  37.366   7.771   1.766
20520W        W92945  27.980  12.639   5.097
20521W        W92946  16.753  35.428   4.666
20522W        W92947  18.195  12.712   4.199
20523W        W92948  30.507  23.643   0.774
20524W        W92949  10.771  31.065   1.729
20525W        W92950  13.223  34.116   1.289
20526W        W92951  21.512  13.210   1.327
20527W        W92952  27.188   3.253  14.819
20528W        W92953   1.265  13.291  11.419
20529W        W92954   9.294  12.675   2.249
20530W        W92955   7.911  41.877  11.534
20531W        W92956   6.716  43.486   0.406
20532W        W92957  30.983  41.846   3.717
20533W        W92958   4.888  12.750   0.281
20534W        W92959  26.521  31.998  11.945
20535W        W92960  20.647  10.358   5.640
20536W        W92961  11.773  24.703   9.519
20537W        W92962  37.543  35.935   9.945
20538W        W92963   5.210  15.734  14.849
20539W        W92964  20.693  13.286  12.402
20540W        W92965  18.286  10.658  13.975
20541W        W92966  25.546  34.525   2.690
20542W        W92967  38.912  16.730   2.398
20543W        W92968   9.792  29.452  11.030
20544W        W92969  26.612   8.376   2.856
20545W        W92970  37.046  18.283  12.415
20546W        W92971  43.316  12.706  10.444
20547W        W92972   6.406   9.228   3.190
20548W        W92973  14.285  25.071  11.503
20549W        W92974  16.760   4.351  13.808
20550W        W92975  19.715  44.861  13.524
20551W        W92976  23.720  21.557  12.396
20552W        W92977  16.695  34.382   3.667
20553W        W92978  14.757  13.252  10.598
20554W        W92979  44.479  20.561  13.019
20555W        W92980  44.825  40.524   3.171
20556W        W92981  20.673  19.565  13.916
20557W        W92982  21.542  21.099  14.875
20558W        W92983   6.252  40.347   1.796
20559W        W92984  27.015   8.401   4.196
20560W        W92985   1.469  27.164   3.761
20561W        W92986   3.863  15.240  14.850
20562W        W92987  18.188  21.228  10.911
20563W        W92988  36.592  24.101   4.248
20564W        W92989  14.684   4.277  13.963
20565W        W92990  11.726  33.506   2.769
20566W        W92991   2.757   7.216   3.704
20567W        W92992  12.768  39.341  13.467
20568W        W92993  42.801   2.345   4.216
20569W        W92994  38.844   9.785  13.847
20570W        W92995  18.134   1.347   0.891
20571W        W92996  13.236   5.201  11.402
20572W        W92997  31.571  38.063  12.478
20573W        W92998  35.046   4.261   1.296
20574W        W92999  30.416  39.846  12.964
20575W        W93000   6.900  26.514  11.016
20576W        W93001  39.832  10.827  11.909
20577W        W93002  20.567  28.626   1.713
20578W        W93003  42.020  27.611  12.034
20579W        W93004   5.267   2.445   4.116
20580W        W93005  11.174   0.467  10.456
20581W        W93006  28.929  26.976   3.302
20582W        W93007  22.550  24.508  12.525
20583W        W93008   8.171   1.926  10.566
20584W        W93009  14.687  29.539  12.861
20585W        W93010   7.703  44.783   3.702
20586W        W93011  25.010  41.469   0.448
20587W        W93012  24.211  35.974   2.740
20588W        W93013   3.880  33.877   3.231
20589W        W93014  31.590   5.864   0.310
20590W        W93015   3.226  33.559  11.570
20591W        W93016   0.928   8.217   3.797
20592W        W93017  23.498  41.842   2.290
20593W        W93018  26.631  20.246   1.817
20594W        W93019   7.893  15.636  14.309
20595W        W93020  36.958   6.291  14.815
20596W        W93021  27.661   6.407  11.864
20597W        W93022  22.677  42.331   0.955
20598W        W93023  17.132   8.284  10.444
20599W        W93024  31.596  41.837  12.487
20600W        W93025   5.360  25.522  14.923
20601W        W93026  10.190  25.578  12.541
20602W        W93027  16.267   3.915   1.241
20603W        W93028  31.055  29.018   1.431
20604W        W93029  28.528  26.675  11.017
20605W        W93030  36.070  32.998   2.237
20606W        W93031  29.584  26.130  15.000
20607W        W93032  40.867   4.906   1.891
20608W        W93033  36.054  38.915  10.910
20609W        W93034   1.861   0.840   1.855
20610W        W93035  18.665  18.657   2.289
20611W        W93036  32.902  15.328   0.284
20612W        W93037  25.008  24.024   2.318
20613W        W93038  34.027  27.977  13.001
20614W        W93039   9.329  30.446   3.791
20615W        W93040  23.160  20.129  13.512
20616W        W93041  38.869  29.169  14.982
20617W        W93042  44.766  34.037  13.049
20618W        W93043   0.249  20.047   3.666
20619W        W93044   5.336  20.059  12.879
20620W        W93045  16.649  19.677  10.488
20621W        W93046  41.036  13.336   2.869
20622W        W93047  27.954  34.436   1.435
20623W        W93048  30.112   2.351  14.957
20624W        W93049   4.916  38.832  14.295
20625W        W93050  42.470  11.304  10.627
20626W        W93051  10.380  44.306  12.859
20627W        W93052  40.450  32.451  12.042
20628W        W93053  19.137  44.300   3.212
20629W        W93054   3.909  43.419  13.876
20630W        W93055  23.489  17.211   0.306
20631W        W93056  29.606  38.453  14.464
20632W        W93057  26.112   6.797  11.023
20633W        W93058  29.531  43.973   0.448
20634W        W93059  43.367  23.610   4.127
20635W        W93060  31.151  34.506   3.831
20636W        W93061  28.570  41.413  11.494
20637W        W93062  19.738  39.465  13.014
20638W        W93063  43.464  15.632   2.390
20639W        W93064   6.394  31.035   0.301
20640W        W93065  28.055  33.515   4.828
20641W        W93066  20.623  12.287  13.356
20642W        W93067  33.124   9.820  12.571
20643W        W93068  34.517  36.522  12.464
20644W        W93069  13.295  27.614   0.870
20645W        W93070  17.243  24.190  10.945
20646W        W93071  19.683  35.957   4.709
20647W        W93072   3.229  44.383   0.917
20648W        W93073  35.593  31.130   4.617
20649W        W93074  35.947  17.087  12.918
20650W        W93075   1.293  18.760   3.819
20651W        W93076  23.197  43.844   4.672
20652W        W93077  31.106   3.788  14.397
20653W        W93078   5.744  31.473   2.368
20654W        W93079  28.461   6.704   4.616
20655W        W93080  41.530  42.362   4.277
20656W        W93081  12.246  44.297   2.277
20657W        W93082  30.114  35.976  12.960
20658W        W93083  44.416  36.894   3.791
20659W        W93084   0.829  31.527   4.734
20660W        W93085   7.222  38.854   2.271
20661W        W93086   7.309  18.063   1.882
20662W        W93087   8.763  20.242   1.726
20663W        W93088  29.532  31.427   1.407
20664W        W93089  14.749  29.136   1.247
20665W        W93090  28.624   5.418   3.204
20666W        W93091   2.758  23.100   0.480
20667W        W93092   0.848  19.084  13.354
20668W        W93093   2.281  13.105   5.280
20669W        W93094  44.303   6.872   1.755
20670W        W93095  23.102  10.273  14.464
20671W        W93096   5.333  32.097  10.943
20672W        W93097   0.312  33.533   4.702
20673W        W93098   2.365   1.742  14.307
20674W        W93099  34.059  33.121  12.573
20675W        W93100   5.811  16.788   0.898
20676W        W93101  20.767  43.794  11.860
20677W        W93102  37.398  12.291  14.968
20678W        W93103  34.899   5.314   0.362
20679W        W93104  43.379   3.910  13.423
20680W        W93105  39.940  35.892  10.426
20681W        W93106  42.496  16.699  12.892
20682W        W93107  36.574  27.642  11.052
20683W        W93108  11.744  37.347   1.913
20684W        W93109   3.849  25.539   0.290
20685W        W93110  24.495  15.787  11.460
20686W        W93111  35.408  14.285  13.885
20687W        W93112  14.766  19.198  12.921
20688W        W93113  15.148  25.094   4.659
20689W        W93114  26.508  29.021   3.722
20690W        W93115  19.076   7.414  14.352
20691W        W93116  23.038  32.507  12.994
20692W        W93117  16.266  35.036   4.351
20693W        W93118  13.248  39.029  11.936
20694W        W93119  14.670  36.992  12.429
20695W        W93120  22.651   5.262  14.985
20696W        W93121   7.738  43.894   1.421
20697W        W93122  26.997  20.753   1.230
20698W        W93123  24.589  25.685  10.589
20699W        W93124  18.577  29.961   0.912
20700W        W93125  13.732   8.218   4.647
20701W        W93126   2.792   0.848   2.810
20702W        W93127  29.549  36.944  13.376
20703W        W93128  22.594  40.464   1.439
20704W        W93129  44.003  36.972   0.741
20705W        W93130  30.082   0.456   1.845
20706W        W93131  25.037  38.497  13.988
20707W        W93132  17.560  18.202   3.703
20708W        W93133  13.166  29.922  14.821
20709W        W93134  25.636  22.592   2.785
20710W        W93135   7.765  37.006  14.986
20711W        W93136   3.822  11.193  12.402
20712W        W93137  18.571   8.726   2.858
20713W        W93138  26.046  14.228  14.847
20714W        W93139   1.268  11.284   0.249
20715W        W93140  12.288   2.278   0.473
20716W        W93141   2.820  40.354   1.806
20717W        W93142  22.730  20.763  12.094
20718W        W93143   5.424   9.359   1.814
20719W        W93144  25.962  18.738  12.453
20720W        W93145  15.308  13.834  14.927
20721W        W93146  40.370  12.351  14.377
20722W        W93147   4.415  27.181  12.529
20723W        W93148   1.848  26.952   4.683
20724W        W93149  26.542  33.488   3.246
20725W        W93150  18.614  20.146   1.448
20726W        W93151  15.141  30.612  14.900
20727W        W93152  23.147  16.789   3.849
20728W        W93153  34.411  41.891  11.942
20729W        W93154  15.645  21.082   3.263
20730W        W93155  20.213   4.708  11.873
20731W        W93156  32.017  30.163   3.285
20732W        W93157  19.139  43.394   4.803
20733W        W93158  42.420  19.261   4.121
20734W        W93159   6.835  19.242  10.428
20735W        W93160   5.844  11.834  13.509
20736W        W93161  37.048  42.029   1.770
20737W        W93162  35.999   0.802   3.367
20738W        W93163   8.815   9.668  14.434
20739W        W93164  11.722  28.127  10.545
20740W        W93165  34.556  11.146   0.246
20741W        W93166  39.536  15.162   0.815
20742W        W93167  41.508   0.841  10.600
20743W        W93168  13.288  29.452   4.803
20744W        W93169  35.546  24.598   1.859
20745W        W93170  16.803  19.728  12.524
20746W        W93171  33.043  11.737   3.707
20747W        W93172  40.801  41.031  13.443
20748W        W93173  36.526  41.517   2.370
20749W        W93174  25.513   7.725   1.932
20750W        W93175   3.295  35.002  10.407
20751W        W93176   0.371  27.106  13.042
20752W        W93177   6.381  39.857   0.846
20753W        W93178  42.810  16.178   0.837
20754W        W93179  10.861  42.826   4.168
20755W        W93180   8.855  16.210  11.007
20756W        W93181  15.093  24.045   4.134
20757W        W93182  13.226  38.975  14.970
20758W        W93183  10.733  34.022  12.426
20759W        W93184   0.272  28.523   0.761
20760W        W93185  14.632  28.000   0.272
20761W        W93186  14.247   6.187   1.818
20762W        W93187  34.091  27.588  12.865
20763W        W93188  20.259   7.330   0.864
20764W        W93189  17.176  12.717  13.309
20765W        W93190  33.061  20.701  10.486
20766W        W93191   6.192  23.103  12.456
20767W        W93192  33.597  25.510   1.427
20768W        W93193  42.299  27.146   0.815
20769W        W93194  13.225  43.022  14.871
20770W        W93195  32.032  39.013  12.090
20771W        W93196  42.425   9.702  13.015
20772W        W93197  27.948  17.253  13.998
20773W        W93198  38.937  22.681  14.455
20774W        W93199  32.534  15.758   0.922
20775W        W93200  10.226  32.081   1.345
20776W        W93201  24.575   4.244   2.848
20777W        W93202   2.840  32.108   2.209
20778W        W93203   8.784  23.583   3.306
20779W        W93204   0.265  33.972  13.403
20780W        W93205  23.175  15.675  12.891
20781W        W93206  37.530   9.835  11.461
20782W        W93207  36.061  34.960  10.587
20783W        W93208  27.487  38.068   3.659
20784W        W93209  33.049  20.032  11.419
20785W        W93210  21.084  23.172   2.381
20786W        W93211  32.902  27.630  13.910
20787W        W93212  13.651  17.072  14.314
20788W        W93213  12.221  11.780  14.325
20789W        W93214  38.870   4.848  13.426
20790W        W93215  41.499  44.335  13.848
20791W        W93216  16.141  34.495  11.415
20792W        W93217  36.410  17.197   5.230
20793W        W93218  17.228  36.589   1.343
20794W        W93219  40.407  17.751   3.204
20795W        W93220  17.563  44.277  10.429
20796W        W93221  42.790  23.700  14.425
20797W        W93222  37.832  20.044  11.929
20798W        W93223  23.632  44.340  14.840
20799W        W93224   4.929  37.499  14.391
20800W        W93225  42.450  43.982  14.997
20801W        W93226  28.440   2.792   0.363
20802W        W93227  37.024  31.586  13.319
20803W        W93228  12.176  30.912  11.998
20804W        W93229   3.400  42.413   2.265
20805W        W93230  33.091   0.447  12.942
20806W        W93231  19.618  26.674   0.254
20807W        W93232  10.229  27.592  10.466
20808W        W93233  44.001   7.232   1.711
20809W        W93234  12.726   3.373  10.446
20810W        W93235  40.312  36.016   1.910
20811W        W93236  29.437   7.180  14.856
20812W        W93237   5.930  35.872   4.314
20813W        W93238   5.246  12.817   2.270
20814W        W93239  10.726   7.302  10.923
20815W        W93240  15.654  11.712   2.678
20816W        W93241   2.286  37.938   0.735
20817W        W93242   5.933   3.851  11.943
20818W        W93243  27.174  24.039  10.534
20819W        W93244  14.597  32.956   2.246
20820W        W93245  25.697  35.964  10.095
20821W        W93246  30.456  36.366   5.216
20822W        W93247  16.311  43.908   3.804
20823W        W93248  29.498  17.746   4.246
20824W        W93249  19.233  14.716  13.542
20825W        W93250  37.484   4.850   3.325
20826W        W93251  35.445  43.852   2.308
20827W        W93252  28.450  10.859  11.584
20828W        W93253  42.364  10.307   0.326
20829W        W93254  11.825  18.093  13.326
20830W        W93255   9.709  22.569   2.244
20831W        W93256  35.435  26.598  14.394
20832W        W93257   2.314   0.301  10.604
20833W        W93258  40.521  41.308   1.370
20834W        W93259  19.611  31.000  12.959
20835W        W93260  29.059  20.130  14.909
20836W        W93261   4.837   2.459  12.528
20837W        W93262   2.951  18.777  14.310
20838W        W93263  18.097   1.279  10.550
20839W        W93264   3.234   1.353   3.762
20840W        W93265  31.560  25.971  12.424
20841W        W93266  30.625  26.469   1.761
20842W        W93267   2.256  19.623  12.975
20843W        W93268  21.753  22.653  12.452
20844W        W93269  16.618  25.975  12.014
20845W        W93270  26.678   9.846   0.903
20846W        W93271  22.022  13.136   0.911
20847W        W93272   2.341  16.716  14.458
20848W        W93273  20.569  44.309   2.841
20849W        W93274  17.087   2.316  12.089
20850W        W93275  29.951  13.778  13.430
20851W        W93276  44.280  43.853  11.063
20852W        W93277  20.563  11.861   5.166
20853W        W93278  14.825  32.127  12.907
20854W        W93279  14.651  31.519  10.486
20855W        W93280  10.237  27.666   2.805
20856W        W93281   7.837  21.124   5.203
20857W        W93282  25.152  37.047   3.725
20858W        W93283  36.092   3.945  10.952
20859W        W93284  43.766  14.322   4.165
20860W        W93285  29.583  10.296  14.768
20861W        W93286  18.267  27.602  14.284
20862W        W93287  35.590  20.709   2.886
20863W        W93288  27.168  16.605   4.771
20864W        W93289  34.105  17.145   0.753
20865W        W93290  21.038  29.640   1.781
20866W        W93291  10.292  33.563  10.912
20867W        W93292  44.304  22.732  11.040
20868W        W93293  31.078  41.998   4.601
20869W        W93294  36.448  32.095  12.447
20870W        W93295  20.761  13.651  11.478
20871W        W93296  17.121  10.348  14.965
20872W        W93297  11.857  25.494  11.529
20873W        W93298  21.716  22.661  12.928
20874W        W93299  24.005  30.086   3.239
20875W        W93300  38.467  42.373   3.289
20876W        W93301  33.474  26.649  12.936
20877W        W93302   7.305  11.755   0.863
20878W        W93303  24.668  27.955  12.412
20879W        W93304   4.433  17.086  11.112
20880W        W93305   4.937  15.210  11.061
20881W        W93306  29.967  27.024  14.886
20882W        W93307   6.801  29.976   0.906
20883W        W93308  43.916   2.828   0.957
20884W        W93309  23.090  11.661   9.933
20885W        W93310  40.503   2.230  13.820
20886W        W93311   1.407   7.249  10.896
20887W        W93312  26.463  18.605  14.779
20888W        W93313  35.529  15.655   4.266
20889W        W93314  11.218  18.624  10.988
20890W        W93315   4.364   3.891  14.289
20891W        W93316   2.415  20.734  11.886
20892W        W93317  10.353   5.834   0.960
20893W        W93318  26.465  31.545  13.401
20894W        W93319  19.097  32.972  14.828
20895W        W93320  10.655   1.364   1.399
20896W        W93321   0.779   2.878   4.630
20897W        W93322  17.110   2.946  12.077
20898W        W93323  29.600  34.024  13.426
20899W        W93324   7.190  21.074   5.232
20900W        W93325  32.553  42.446  11.067
20901W        W93326   2.356  27.491  13.847
20902W        W93327  36.092  44.330   3.354
20903W        W93328  35.410  10.694  13.392
20904W        W93329  16.250  26.517   0.248
20905W        W93330  12.850  10.313  12.927
20906W        W93331  24.609  27.560  13.505
20907W        W93332  44.333  31.037  12.502
20908W        W93333  17.721  42.393  12.493
20909W        W93334  14.150  24.082  14.760
20910W        W93335  26.189  28.008  13.460
20911W        W93336  14.759   6.744  11.949
20912W        W93337  38.990  23.665   1.865
20913W        W93338   1.259  40.975  14.849
20914W        W93339  44.942  18.586   3.863
20915W        W93340   1.266  41.458  13.911
20916W        W93341  14.824  26.602   3.155
20917W        W93342  35.578  31.633  14.286
20918W        W93343  10.366   1.767   3.682
20919W        W93344  25.712  30.618  12.887
20920W        W93345  19.648   1.806  12.544
20921W        W93346  44.877  14.097  12.384
20922W        W93347  40.404  16.197   3.155
20923W        W93348  17.624  17.764   2.740
20924W        W93349  42.357  33.024   0.291
20925W        W93350  17.146  41.040  13.048
20926W        W93351  43.378   1.478  13.374
20927W        W93352   5.909   1.866  13.942
20928W        W93353  34.459  40.009  14.427
20929W        W93354  27.600  25.504  13.431
20930W        W93355  20.585  14.172  11.913
20931W        W93356  18.598   2.381   2.864
20932W        W93357   9.310   1.947   2.767
20933W        W93358  41.330  20.718  12.380
20934W        W93359  33.977  41.954   4.646
20935W        W93360  28.974   2.741   4.138
20936W        W93361  24.507  42.366  10.524
20937W        W93362  38.987   1.251   0.380
20938W        W93363  44.448  27.010   4.347
20939W        W93364  31.949  16.629  12.015
20940W        W93365  42.311  19.057  14.417
20941W        W93366  29.601  18.147   0.283
20942W        W93367   4.748  17.085  14.944
20943W        W93368  30.525  34.888  13.055
20944W        W93369  22.096  24.080   3.273
20945W        W93370  39.443  39.438  12.024
20946W        W93371  15.790  29.637  12.872
20947W        W93372  39.485  34.408   3.629
20948W        W93373   4.428  32.593  12.846
20949W        W93374   1.265  43.516  12.049
20950W        W93375  36.062   5.932   4.242
20951W        W93376  21.207  17.607   0.784
20952W        W93377  13.185  39.907   3.660
20953W        W93378  29.559  15.292  13.951
20954W        W93379  43.978   7.302   2.805
20955W        W93380  41.932  33.425   4.709
20956W        W93381  14.210  29.464  13.820
20957W        W93382  40.957  43.471   0.271
20958W        W93383  18.614   2.228  13.828
20959W        W93384   6.325  20.567   2.236
20960W        W93385  19.200   1.915   1.712
20961W        W93386  43.298  33.125  12.474
20962W        W93387  15.252   6.351  14.892
20963W        W93388  36.518  20.749  13.324
20964W        W93389  13.216   8.252  11.095
20965W        W93390  37.079   4.735   1.325
20966W        W93391   7.301   3.732   1.425
20967W        W93392  41.868  35.038  12.954
20968W        W93393   0.811  15.631  13.529
20969W        W93394  14.808   3.871   2.369
20970W        W93395  20.743   5.911   2.252
20971W        W93396  39.441  28.967   0.460
20972W        W93397  13.275   2.247  14.275
20973W        W93398   0.926   9.333  14.508
20974W        W93399   4.856  34.020  14.348
20975W        W93400   3.282   2.790   2.365
20976W        W93401  30.421  35.863   1.260
20977W        W93402  29.667  40.846  14.914
20978W        W93403  38.012   2.391   2.726
20979W        W93404   2.309   8.878   4.604
20980W        W93405  16.591  29.174   3.374
20981W        W93406  10.170  28.973   4.818
20982W        W93407  37.550  24.112  12.038
20983W        W93408  12.669  41.803   4.182
20984W        W93409  36.501  19.206   3.176
20985W        W93410  35.059  27.629  14.849
20986W        W93411  18.074  14.784   0.770
20987W        W93412   0.351  22.621   0.944
20988W        W93413  10.314  18.737   0.262
20989W        W93414  34.399  16.741   2.290
20990W        W93415  30.148  16.208   1.447
20991W        W93416   2.812  24.200   2.800
20992W        W93417  10.234  10.804   4.819
20993W        W93418  38.332  17.219  13.503
20994W        W93419   8.229   6.279  11.493
20995W        W93420  21.692   1.844   2.327
20996W        W93421  39.962  17.781   0.759
20997W        W93422  15.813   1.976   0.856
20998W        W93423  11.177  25.196   3.165
20999W        W93424  16.286  23.148  12.460
21000W        W93425  13.116   5.308  10.580
21001W        W93426  38.925  11.136   0.770
21002W        W93427  14.793   0.900   1.893
21003W        W93428  40.509  32.087  14.444
21004W        W93429  18.137   7.213  10.559
21005W        W93430  21.545   2.372   0.261
21006W        W93431   3.268   0.789  12.433
21007W        W93432  17.174  33.124  12.548
21008W        W93433  19.170  11.626  12.944
21009W        W93434  17.742  28.958   1.339
21010W        W93435   8.237  30.557   3.177
21011W        W93436  32.457  12.277   0.478
21012W        W93437  23.528  34.039  12.564
21013W        W93438  10.235  24.191   4.278
21014W        W93439   9.727  42.010   1.366
21015W        W93440  23.011  41.817   2.746
21016W        W93441  32.427  35.390  12.854
21017W        W93442  10.293  40.832   4.643
21018W        W93443  27.488   9.869   4.702
21019W        W93444  41.002   3.422  11.404
21020W        W93445  15.304   4.746  13.968
21021W        W93446  13.144   2.385  14.790
21022W        W93447   9.173  23.620  10.513
21023W        W93448   4.421   9.735  12.494
21024W        W93449  22.581  35.886   5.233
21025W        W93450  25.148  36.360  11.909
21026W        W93451  38.372  11.178  13.979
21027W        W93452   6.214  10.263  14.845
21028W        W93453   2.302  42.435   2.737
21029W        W93454  34.903  34.558  14.890
21030W        W93455  26.508  20.729  13.344
21031W        W93456  35.395  35.384   4.133
21032W        W93457  32.940  31.485  13.928
21033W        W93458  25.132  43.964   0.919
21034W        W93459  44.432  28.998  13.869
21035W        W93460  15.256  17.778   0.756
21036W        W93461   4.215  31.554   0.322
21037W        W93462  15.814   6.856  11.584
21038W        W93463  40.508   5.927  12.964
21039W        W93464  36.533  21.711   0.800
21040W        W93465  42.018  29.429   0.834
21041W        W93466  17.582  44.260  12.398
21042W        W93467   7.744  42.963  10.032
21043W        W93468  34.960  30.476   2.337
21044W        W93469   6.221  14.752  12.542
21045W        W93470  28.002  42.876   9.943
21046W        W93471  19.241  26.548   0.827
21047W        W93472  27.593  35.004   2.377
21048W        W93473  41.517  25.152  14.428
21049W        W93474  39.467  38.339   1.866
21050W        W93475  40.934  31.508  10.596
21051W        W93476  28.025   5.203  13.038
21052W        W93477  35.402  22.542  13.402
21053W        W93478  12.153  14.158   1.438
21054W        W93479  27.987  29.628  11.520
21055W        W93480  29.603  43.318   4.159
21056W        W93481  42.378  39.947   2.332
21057W        W93482  27.488  10.191  10.518
21058W        W93483  26.532  22.059   1.751
21059W        W93484  16.075  10.639  13.522
21060W        W93485  37.981   8.242  11.042
21061W        W93486  24.086  15.681  12.402
21062W        W93487  32.556  35.971   2.680
21063W        W93488  34.552  37.845   1.262
21064W        W93489  36.364  33.476   2.852
21065W        W93490  17.171   1.822  14.359
21066W        W93491  31.459  42.426  13.547
21067W        W93492  40.933  44.464   2.750
21068W        W93493   7.235   7.758   1.336
21069W        W93494  14.095  28.492  10.920
21070W        W93495  20.077  16.265  14.984
21071W        W93496   9.264  38.925  12.833
21072W        W93497  29.961  30.437  12.895
21073W        W93498   9.380  12.678   1.250
21074W        W93499   0.953  44.895  10.914
21075W        W93500  21.185  39.550  13.374
21076W        W93501   5.796  18.549  10.404
21077W        W93502   9.255  32.557   2.758
21078W        W93503  41.857  30.448   1.761
21079W        W93504  17.767   7.209   0.909
21080W        W93505   8.711  29.616   3.184
21081W        W93506  44.795  28.055   2.233
21082W        W93507  41.524  21.665  13.326
21083W        W93508   6.735   9.647   4.714
21084W        W93509  27.545   3.392   2.711
21085W        W93510  38.965  10.835   4.665
21086W        W93511   5.776   0.474  14.835
21087W        W93512  24.501  30.576  13.825
21088W        W93513   5.256  22.699   3.224
21089W        W93514   8.310   0.909  11.397
21090W        W93515  31.643   5.763  11.934
21091W        W93516  15.765  25.632  14.966
21092W        W93517  42.846  15.816   2.892
21093W        W93518   0.913  19.768  10.981
21094W        W93519  25.062   6.864  12.963
21095W        W93520  37.005  43.507   3.660
21096W        W93521   6.292   5.307   0.764
21097W        W93522  20.145  17.193   5.210
21098W        W93523  19.273  37.357   3.148
21099W        W93524  14.796   4.944  14.939
21100W        W93525  32.414   6.835  10.476
21101W        W93526  31.423  13.171   3.365
21102W        W93527  42.404  40.539   2.308
21103W        W93528  27.605  38.897   2.405
21104W        W93529  36.579  14.337  13.424
21105W        W93530  25.482  23.137  14.957
21106W        W93531  31.091  39.008   3.225
21107W        W93532  37.939  41.506   4.634
21108W        W93533   4.270  42.510  14.507
21109W        W93534  26.615  33.422  11.477
21110W        W93535  30.484  18.627  14.294
21111W        W93536  11.689  11.225   4.818
21112W        W93537  33.527  12.354  13.996
21113W        W93538  26.654   5.215   2.382
21114W        W93539  21.196  42.300   0.254
21115W        W93540  40.468  13.138  11.553
21116W        W93541   7.298  31.602   4.655
21117W        W93542   3.839   7.234   3.231
21118W        W93543  24.056  19.543   5.203
21119W        W93544  36.580   2.392   4.235
21120W        W93545  25.116  25.005  11.536
21121W        W93546  27.682  26.669  11.898
21122W        W93547  30.547  38.972  14.765
21123W        W93548   5.340  25.478  13.942
21124W        W93549  29.443   8.684  11.512
21125W        W93550  25.189   3.409   4.755
21126W        W93551  18.645  34.893   2.206
21127W        W93552  11.295  24.659  10.465
21128W        W93553   6.209  39.346   1.408
21129W        W93554   1.347  17.265   2.742
21130W        W93555  35.095   3.379   1.867
21131W        W93556  43.328  44.807   1.694
21132W        W93557  23.492  14.704   0.738
21133W        W93558  20.063  38.496   4.320
21134W        W93559  36.358  41.473  14.278
21135W        W93560  19.676  15.636   4.756
21136W        W93561  14.619  35.486  10.563
21137W        W93562  18.114  43.340   4.347
21138W        W93563  38.390  10.145  11.410
21139W        W93564  21.655  28.472   0.393
21140W        W93565  39.046   3.943  13.021
21141W        W93566  25.672  16.160   0.329
21142W        W93567  18.284  18.199  12.552
21143W        W93568  14.645   0.479  13.390
21144W        W93569  28.965  33.099  11.386
21145W        W93570  15.182  41.411   4.113
21146W        W93571  20.666  36.542  10.409
21147W        W93572  25.165   1.846   2.880
21148W        W93573  35.096   8.818   1.306
21149W        W93574  28.663  10.704   0.251
21150W        W93575  21.027  28.049  12.096
21151W        W93576   6.201  17.763   2.774
21152W        W93577  18.782  30.061  10.598
21153W        W93578  21.261  29.068   3.373
21154W        W93579  11.218  34.926   3.663
21155W        W93580  23.687  31.923   0.466
21156W        W93581  15.752  34.052   3.780
21157W        W93582  34.387  38.370  14.295
21158W        W93583   5.791  37.993  10.533
21159W        W93584  33.548  19.773   4.254
21160W        W93585  35.465   2.301  12.000
21161W        W93586  40.443   7.324  11.584
21162W        W93587   7.858  37.432   0.843
21163W        W93588  18.672  18.212   4.787
21164W        W93589  23.545  29.670  14.931
21165W        W93590  39.524  21.676   2.834
21166W        W93591   5.780  34.569   2.409
21167W        W93592  19.110  26.658   4.152
21168W        W93593  33.985   6.919  10.596
21169W        W93594   4.388   8.204   0.883
21170W        W93595  42.978  34.992  11.428
21171W        W93596  42.875  38.899   0.329
21172W        W93597  12.223  24.540   0.402
21173W        W93598  21.716  24.140  10.996
21174W        W93599  17.569  32.978  11.944
21175W        W93600   7.723  22.649  14.892
21176W        W93601  11.208  14.136  10.544
21177W        W93602  42.477   0.759   4.820
21178W        W93603   1.850  25.659   1.789
21179W        W93604   7.763  13.323  13.467
21180W        W93605  17.728  41.486  14.329
21181W        W93606  13.697  40.363  14.006
21182W        W93607  10.838   3.809  11.516
21183W        W93608  23.499  28.546   2.248
21184W        W93609  24.042  25.679  10.458
21185W        W93610  42.973  22.523   4.657
21186W        W93611   6.418  43.294   0.247
21187W        W93612  33.915  27.490   4.164
21188W        W93613  23.120  28.622   4.799
21189W        W93614  41.830  32.987   4.333
21190W        W93615  20.678  27.036  11.378
21191W        W93616   0.825  14.804  10.429
21192W        W93617  34.486  27.148  13.378
21193W        W93618  21.218  15.713   1.346
21194W        W93619  43.895  24.617   4.717
21195W        W93620  23.085  24.640  14.453
21196W        W93621  21.162  30.948   4.118
21197W        W93622  40.390  11.334   3.176
21198W        W93623  29.548  18.058   2.182
21199W        W93624   5.801  31.411   1.444
21200W        W93625  13.175   9.650  12.885
21201W        W93626  23.218  34.412  13.516
21202W        W93627  38.935  19.758   2.691
21203W        W93628  17.139  39.004   4.196
21204W        W93629  21.049  33.583  10.099
21205W        W93630  23.095   0.780   0.253
21206W        W93631  20.273  38.479  14.296
21207W        W93632  26.145  15.231   1.761
21208W        W93633  41.404   1.328   1.747
21209W        W93634  10.197  33.468  14.286
21210W        W93635  18.746  33.959   4.669
21211W        W93636  13.764   0.789   3.757
21212W        W93637  26.576  23.527  12.460
21213W        W93638  19.603  41.840  11.425
21214W        W93639  18.058  30.573  14.446
21215W        W93640  18.679  28.186   1.362
21216W        W93641  17.221  22.580  14.840
21217W        W93642   1.241  24.222   2.281
21218W        W93643  41.509  25.547  11.094
21219W        W93644  41.966  22.533   4.319
21220W        W93645  20.553   7.282  12.501
21221W        W93646  29.549   8.201  10.914
21222W        W93647  42.020  20.216  11.525
21223W        W93648  38.061   7.721   5.238
21224W        W93649  19.116  14.808  13.931
21225W        W93650  33.123  39.059   4.645
21226W        W93651   1.954  34.103   2.282
21227W        W93652  28.173  12.141   2.722
21228W        W93653  17.600  41.317  14.865
21229W        W93654  18.672   2.762  11.397
21230W        W93655   9.792   9.284   4.823
21231W        W93656  16.575  25.002  14.311
21232W        W93657   2.796  27.479   3.802
21233W        W93658  24.510  36.527  12.048
21234W        W93659   4.824  22.536   3.209
21235W        W93660  27.598  13.827   4.313
21236W        W93661  10.859  17.726   3.794
21237W        W93662   9.845   2.288   0.456
21238W        W93663  17.142  23.523  12.479
21239W        W93664  36.348  28.182   0.768
21240W        W93665   2.937  10.328  11.062
21241W        W93666  24.617  37.042  12.520
21242W        W93667  30.657   6.287  13.845
21243W        W93668  16.605   2.353   1.292
21244W        W93669  29.616  36.382  10.406
21245W        W93670   7.175  14.710  13.898
21246W        W93671  42.288  36.445  10.456
21247W        W93672  38.384  35.104   2.407
21248W        W93673  32.624  12.625  12.918
21249W        W93674  22.233  24.631  11.964
21250W        W93675  29.454  39.945  11.924
21251W        W93676  22.500  42.867  14.969
21252W        W93677  32.611  16.096  11.890
21253W        W93678  38.037  37.986   2.895
21254W        W93679   3.909  28.973  10.929
21255W        W93680   8.732  28.178   3.736
21256W        W93681  12.144   6.763   0.381
21257W        W93682  18.261  39.457  10.544
21258W        W93683  28.575  30.493   2.694
21259W        W93684  26.142  35.910  11.020
21260W        W93685  40.974   6.259  13.426
21261W        W93686  39.027   7.201  13.939
21262W        W93687  24.663  40.319   2.718
21263W        W93688  10.728  41.999   2.223
21264W        W93689  35.910  10.324  10.601
21265W        W93690  29.129  38.056   0.902
21266W        W93691   6.316  43.342  11.537
21267W        W93692   5.845  29.081  13.860
21268W        W93693   5.246  13.136   1.350
21269W        W93694   1.754   6.753   1.802
21270W        W93695  41.358   3.394  12.042
21271W        W93696  37.559  20.062   4.668
21272W        W93697  10.793  43.342   3.843
21273W        W93698  31.473  41.900  13.898
21274W        W93699  33.013  35.003   1.743
21275W        W93700   5.320  30.466  10.943
21276W        W93701  40.803  27.189  11.855
21277W        W93702  26.981  15.679   1.866
21278W        W93703  42.339  12.223   2.333
21279W        W93704  22.616  35.087   3.757
21280W        W93705  44.490  42.831   4.741
21281W        W93706  21.080  39.851   0.745
21282W        W93707  31.415  24.021   0.403
21283W        W93708  30.985  42.804  14.976
21284W        W93709  13.267  43.877   0.311
21285W        W93710  19.188  11.789   2.217
21286W        W93711  22.648   6.864  12.423
21287W        W93712   6.727  41.884   3.373
21288W        W93713  19.255  17.650  13.359
21289W        W93714   1.478  26.594   2.329
21290W        W93715  26.604  38.839   2.699
21291W        W93716  24.196  11.339   5.218
21292W        W93717  28.480  29.455  14.414
21293W        W93718  34.942  33.077   2.396
21294W        W93719  16.668  14.598   1.283
21295W        W93720  31.051  24.143  11.057
21296W        W93721  35.002   5.380  11.397
21297W        W93722  15.794  30.462   4.762
21298W        W93723  17.708  44.930   2.687
21299W        W93724   7.889  16.178   4.216
21300W        W93725  10.298  27.004   3.353
21301W        W93726  19.596  16.315  14.978
21302W        W93727  33.403  42.910  12.854
21303W        W93728  28.175  31.624  11.466
21304W        W93729  18.611  41.451  12.836
21305W        W93730  44.760  35.498  13.891
21306W        W93731  12.716  15.285   4.839
21307W        W93732  18.747   5.380  12.574
21308W        W93733  42.935  24.669   1.700
21309W        W93734  41.921  26.520  14.971
21310W        W93735  18.100   7.279  11.096
21311W        W93736  36.436  12.292   4.135
21312W        W93737  25.672  20.620   3.157
21313W        W93738  17.272  37.400  13.916
21314W        W93739  36.887  27.587  10.590
21315W        W93740  21.623  37.006   4.603
21316W        W93741   5.824  13.838   3.346
21317W        W93742  39.889  19.150   4.351
21318W        W93743   0.949  32.613   0.450
21319W        W93744  43.955  25.079  14.773
21320W        W93745  34.518   0.402   1.921
21321W        W93746  24.109  44.941   3.173
21322W        W93747  15.265  24.623   0.949
21323W        W93748  26.597   2.817  12.403
21324W        W93749  32.636  13.815   4.613
21325W        W93750  20.167  38.012  10.978
21326W        W93751  23.122  44.939   2.883
21327W        W93752   5.247  25.100  13.366
21328W        W93753  42.403   0.897   2.787
21329W        W93754  15.132  43.303   1.324
21330W        W93755  18.126   4.811  13.317
21331W        W93756  30.450  23.170   3.320
21332W        W93757   9.388  23.090  12.057
21333W        W93758  37.846  24.631   1.817
21334W        W93759  27.101  12.244  14.011
21335W        W93760  31.943  34.035  12.484
21336W        W93761  29.561  41.875  10.636
21337W        W93762  14.182  16.584  11.082
21338W        W93763  18.255  21.576  12.455
21339W        W93764  15.583   0.795  12.833
21340W        W93765  33.905  40.363   1.791
21341W        W93766   3.397   6.424  11.481
21342W        W93767  29.453  32.094  11.000
21343W        W93768  44.983  17.102  11.025
21344W        W93769   5.422  24.487  13.497
21345W        W93770  16.074  39.052  13.814
21346W        W93771  32.446  15.802   1.798
21347W        W93772  20.604  38.375   1.331
21348W        W93773   4.879  26.150   2.245
21349W        W93774  17.204  42.518   2.872
21350W        W93775  34.053  25.636   4.329
21351W        W93776  10.350  19.692   3.298
21352W        W93777   2.459  22.032  13.413
21353W        W93778  27.519  29.664   1.412
21354W        W93779   1.785  20.726  13.799
21355W        W93780  24.541   8.898  14.363
21356W        W93781  40.038   6.426  13.868
21357W        W93782  35.406  29.441  14.481
21358W        W93783  11.293  43.993  13.489
21359W        W93784  42.309  16.578   3.646
21360W        W93785  38.007  21.569  14.854
21361W        W93786  16.805  22.548  12.030
21362W        W93787  40.044  20.118  13.435
21363W        W93788  10.826  44.004   0.450
21364W        W93789  27.062  24.072  11.967
21365W        W93790  28.482  24.699   4.268
21366W        W93791  37.435  32.048  13.899
21367W        W93792  22.592  38.998   3.325
21368W        W93793  23.638   9.868  13.024
21369W        W93794   3.946  20.527  14.357
21370W        W93795  26.459  16.257   2.760
21371W        W93796  29.658   6.832   1.694
21372W        W93797  19.164  22.512  13.323
21373W        W93798  17.609   1.794   1.722
21374W        W93799  43.870  44.001  14.843
21375W        W93800  29.953  23.492  11.416
21376W        W93801   3.369  29.031   3.630
21377W        W93802   1.435  10.871  14.467
21378W        W93803  24.212  29.020   1.864
21379W        W93804  38.885  26.029   4.677
21380W        W93805   5.428   7.233   4.294
21381W        W93806  19.093  37.575   0.404
21382W        W93807   9.872  15.636  11.985
21383W        W93808  42.356  44.920  14.834
21384W        W93809  26.585  42.839   0.451
21385W        W93810  27.028  37.852   2.822
21386W        W93811  12.779  30.440  12.916
21387W        W93812  23.684  42.939   4.626
21388W        W93813  20.240  35.505  14.945
21389W        W93814  25.014   6.921   0.849
21390W        W93815  16.702  27.197  11.534
21391W        W93816  37.937  39.942  11.985
21392W        W93817  33.525  44.311   2.729
21393W        W93818   5.894   4.823  14.876
21394W        W93819   1.477   7.398  11.941
21395W        W93820  24.686  41.002  14.002
21396W        W93821  15.736  31.546  10.522
21397W        W93822   2.918  10.237  13.981
21398W        W93823  30.109  43.872   1.882
21399W        W93824  39.913  36.514   3.816
21400W        W93825   6.403  34.010   4.269
21401W        W93826  10.258   8.244   0.795
21402W        W93827  39.987  27.618  14.781
21403W        W93828   8.376  39.556  11.009
21404W        W93829  19.626  23.499   4.267
21405W        W93830  31.554  11.319   3.654
21406W        W93831  43.984  44.442  11.377
21407W        W93832   8.866  39.006   0.756
21408W        W93833  10.659  19.757   5.219
21409W        W93834   6.788  31.450  10.604
21410W        W93835   5.895  22.039   0.394
21411W        W93836  19.742  22.052   3.812
21412W        W93837  13.261  40.310  14.866
21413W        W93838   3.338   6.903  11.002
21414W        W93839  23.681  34.590   3.371
21415W        W93840   7.228   9.657  11.101
21416W        W93841  26.611  14.340  11.544
21417W        W93842  11.685  15.650  13.310
21418W        W93843  40.025  14.762  13.909
21419W        W93844  33.934  12.252  12.006
21420W        W93845  32.510  30.544  12.530
21421W        W93846  32.483  16.737   0.857
21422W        W93847  12.705   0.343   0.480
21423W        W93848  12.222  29.933  13.956
21424W        W93849  12.755   4.933  12.921
21425W        W93850   1.963  20.144  11.514
21426W        W93851   8.397  35.517   0.861
21427W        W93852  16.736  42.867   3.790
21428W        W93853  26.994   6.842  14.970
21429W        W93854  11.800   2.787   0.769
21430W        W93855   8.210  12.243  14.928
21431W        W93856  35.930  14.253  13.880
21432W        W93857  13.221  12.805   4.719
21433W        W93858  24.082  16.765  13.990
21434W        W93859  36.561  28.091  12.503
21435W        W93860  36.442  28.017   0.290
21436W        W93861  37.490   7.883  10.500
21437W        W93862  43.917   2.811  12.568
21438W        W93863   5.198   3.949   3.277
21439W        W93864  38.841  20.636   2.754
21440W        W93865  27.540   7.687   1.294
21441W        W93866  19.084  28.964   4.288
21442W        W93867   9.656  19.546  11.420
21443W        W93868  35.462  11.695   1.399
21444W        W93869  10.652   5.432  14.368
21445W        W93870   1.939   1.286  12.073
21446W        W93871  22.065   8.330   0.839
21447W        W93872  32.529  33.087  12.016
21448W        W93873  19.065  19.540  10.529
21449W        W93874  31.641  20.028  12.871
21450W        W93875  26.676  38.979  14.958
21451W        W93876  13.758  24.061   4.250
21452W        W93877  42.032   6.266  12.461
21453W        W93878  10.818   9.229   1.401
21454W        W93879   7.185  43.874  13.404
21455W        W93880  39.814  19.639  13.335
21456W        W93881  26.977  19.254   0.261
21457W        W93882  13.674  11.643  12.021
21458W        W93883   8.747  12.188  13.815
21459W        W93884  13.249  16.269  14.460
21460W        W93885  23.062  28.982  11.116
21461W        W93886  31.968  29.999  13.839
21462W        W93887  23.180   2.923  13.879
21463W        W93888  16.095  27.943  10.433
21464W        W93889  26.590  25.992  14.426
21465W        W93890   1.406  43.274  11.557
21466W        W93891  20.097   6.908   2.726
21467W        W93892   6.700  28.504   2.689
21468W        W93893  30.087  29.939  12.945
21469W        W93894  30.986  43.465  11.893
21470W        W93895  26.687   8.691   2.900
21471W        W93896  33.916  41.906   2.402
21472W        W93897   9.653  29.978   0.479
21473W        W93898   2.443  21.696  14.322
21474W        W93899  26.611  30.605  11.053
21475W        W93900  44.316  38.526   4.354
21476W        W93901   8.210  27.646   1.711
21477W        W93902  33.400  38.551   4.810
21478W        W93903  39.823   0.446  13.966
21479W        W93904  31.028  15.647   5.178
21480W        W93905   8.375  32.469   2.786
21481W        W93906  18.190  25.159  10.895
21482W        W93907  26.201   4.708   2.245
21483W        W93908   7.192   0.374  13.976
21484W        W93909  21.220  12.805  10.029
21485W        W93910   2.328  41.027   2.362
21486W        W93911   1.298   2.270  11.391
21487W        W93912  15.668   4.350   0.405
21488W        W93913  10.144   1.771  10.889
21489W        W93914  28.560  38.887   5.187
21490W        W93915   1.877   4.942   2.797
21491W        W93916   7.748  29.969  12.827
21492W        W93917  18.287  34.449   0.766
21493W        W93918  22.117   0.890   3.224
21494W        W93919  20.221  16.680   1.746
21495W        W93920  43.962  44.917   0.363
21496W        W93921   1.253  17.624  12.350
21497W        W93922   5.893  30.418   2.194
21498W        W93923  33.040  15.243   2.786
21499W        W93924  23.985  25.606   3.643
21500W        W93925  19.650  41.327   1.266
21501W        W93926  29.441  19.199  11.463
21502W        W93927  39.502  38.508  13.988
21503W        W93928  26.644  16.659   1.809
21504W        W93929  31.472  24.562  12.970
21505W        W93930  32.978  13.190   0.963
21506W        W93931  34.945  18.755  11.556
21507W        W93932  39.937  15.227  11.942
21508W        W93933   5.766  39.449   4.160
21509W        W93934  14.779   9.273   2.406
21510W        W93935   7.409  42.508  15.000
21511W        W93936  26.625  36.073  13.843
21512W        W93937  28.489  28.578  12.843
21513W        W93938   5.787  20.118   4.763
21514W        W93939  44.943  34.051  12.531
21515W        W93940  17.747  18.622   2.887
21516W        W93941  35.088  28.672   0.737
21517W        W93942   1.262  34.057  14.350
21518W        W93943   5.835  40.905  13.353
21519W        W93944  33.460  23.575  13.398
21520W        W93945   6.778   4.412  13.500
21521W        W93946   2.895  15.625  12.930
21522W        W93947   5.310  32.576  11.427
21523W        W93948  43.405   1.903  14.010
21524W        W93949  38.009  43.950  14.940
21525W        W93950  16.750  21.731  12.369
21526W        W93951  36.916  31.534  11.445
21527W        W93952   6.891  38.998   2.320
21528W        W93953   6.905   7.844  11.529
21529W        W93954  17.106  43.979   4.749
21530W        W93955  17.128   0.779  11.449
21531W        W93956  27.494  13.664   3.811
21532W        W93957  31.071  28.519  11.903
21533W        W93958  33.982  13.711  12.367
21534W        W93959  41.871  42.313   1.740
21535W        W93960  28.026  43.514   1.345
21536W        W93961  41.999  11.266  12.033
21537W        W93962  39.847   7.842  11.478
21538W        W93963  19.686  29.142   2.858
21539W        W93964  27.507   4.204  14.313
21540W        W93965  35.540  38.993  13.326
21541W        W93966   0.850  29.122  14.468
21542W        W93967   1.377  17.155   0.464
21543W        W93968  21.201  32.440   2.867
21544W        W93969   5.303  26.530   0.411
21545W        W93970  10.221  17.594   3.764
21546W        W93971  36.019  38.333   2.386
21547W        W93972   6.903  13.673   0.818
21548W        W93973   3.855   4.698   1.212
21549W        W93974  26.084  20.706  11.038
21550W        W93975  36.995  29.633  12.495
21551W        W93976  35.016  25.072   2.891
21552W        W93977   0.928  23.998  10.409
21553W        W93978  28.673  15.312  12.870
21554W        W93979   5.810   9.802  13.843
21555W        W93980  14.172  11.269  13.312
21556W        W93981   7.267  42.334   3.287
21557W        W93982  19.738  32.517  10.472
21558W        W93983  37.887  40.441  10.518
21559W        W93984   4.226  30.979   3.711
21560W        W93985  42.475   9.393   2.413
21561W        W93986  32.923  32.420   4.240
21562W        W93987   0.811  37.435   9.944
21563W        W93988  41.406  22.606  14.484
21564W        W93989   1.285  37.901   1.742
21565W        W93990  19.153   3.800   2.679
21566W        W93991   6.880   6.850   0.393
21567W        W93992   8.287  29.556   2.230
21568W        W93993   8.741  33.539  14.953
21569W        W93994  44.502   5.757   4.642
21570W        W93995  24.143  31.618   5.570
21571W        W93996  35.597   0.291   1.780
21572W        W93997   4.890  15.693  11.471
21573W        W93998  11.351  16.142   3.638
21574W        W93999  23.490   5.331  10.630
21575W        W94000  11.755   1.467   1.321
21576W        W94001   4.853  38.426  11.596
21577W        W94002  17.097  39.934  12.454
21578W        W94003  35.972  13.233   4.782
21579W        W94004   1.460  10.638  10.424
21580W        W94005  42.894  11.352  10.016
21581W        W94006  13.113  29.942   0.869
21582W        W94007  35.034  12.324  13.362
21583W        W94008   2.466  14.599  14.415
21584W        W94009  29.536  27.681  10.625
21585W        W94010   5.839  16.251   4.216
21586W        W94011  17.215  31.991  14.963
21587W        W94012   8.869  14.602  14.846
21588W        W94013  13.143  28.956  11.883
21589W        W94014  31.428  22.234  12.429
21590W        W94015  12.208  29.634  14.420
21591W        W94016   6.197  43.862   2.387
21592W        W94017   3.917   8.768  13.816
21593W        W94018  13.305  39.830   1.733
21594W        W94019  44.451  36.038  14.806
21595W        W94020  32.414   9.672  13.947
21596W        W94021  29.617  23.549  11.890
21597W        W94022  35.852   2.790   0.864
21598W        W94023   4.424  14.176  14.324
21599W        W94024  34.088   0.829  12.837
21600W        W94025   3.394  36.891  11.547
21601W        W94026  27.002   3.427   2.746
21602W        W94027  10.742   4.254  13.015
21603W        W94028  12.351   2.737   2.753
21604W        W94029  37.029  21.103  13.054
21605W        W94030   3.838  37.384   4.226
21606W        W94031   1.284  10.158   0.307
21607W        W94032   4.276  23.215   1.218
21608W        W94033   4.365   8.883  11.866
21609W        W94034  34.072  36.053  10.515
21610W        W94035  41.337  44.977  13.993
21611W        W94036  19.144   6.349  10.630
21612W        W94037  22.541  28.043  12.873
21613W        W94038  27.656  33.386   2.298
21614W        W94039  15.764  23.709   3.383
21615W        W94040  34.489  38.856  11.862
21616W        W94041  36.972  43.902  11.488
21617W        W94042   3.775  37.451  11.460
21618W        W94043  34.588  35.470  14.501
21619W        W94044  14.251   0.779  14.501
21620W        W94045  39.919  22.120  11.049
21621W        W94046   1.741  27.511  14.336
21622W        W94047  31.930   7.666   3.732
21623W        W94048   9.236  20.154  14.396
21624W        W94049  11.323  18.598  11.569
21625W        W94050  23.649   7.805   1.376
21626W        W94051  13.752  23.567  11.041
21627W        W94052   9.360  37.045  13.826
21628W        W94053  13.632   3.292   1.866
21629W        W94054  20.692  30.442  13.863
21630W        W94055  25.123  39.470  14.935
21631W        W94056  21.639  20.053   2.391
21632W        W94057  10.201   3.228  11.593
21633W        W94058  29.143   3.713  12.491
21634W        W94059  28.493  41.532  14.939
21635W        W94060  21.038  35.584   2.695
21636W        W94061   3.780  33.883   0.828
21637W        W94062   5.404   1.851   0.250
21638W        W94063  11.765  42.988  13.961
21639W        W94064  17.652  30.069   4.144
21640W        W94065  15.244  24.166  13.931
21641W        W94066   6.834   9.887  10.616
21642W        W94067  14.754  31.948   2.714
21643W        W94068  44.987  11.634  14.873
21644W        W94069  25.114   4.896  13.969
21645W        W94070   7.833  26.146   4.791
21646W        W94071  35.080  22.092   1.716
21647W        W94072   9.818  19.543   0.888
21648W        W94073  33.553  15.742   4.274
21649W        W94074   3.290  11.197  13.459
21650W        W94075  29.057  27.043   0.935
21651W        W94076  40.452  26.127   4.157
21652W        W94077   0.836   3.245  13.042
21653W        W94078   0.978  12.656  14.279
21654W        W94079  28.967   9.884  12.381
21655W        W94080  20.674  43.856  10.595
21656W        W94081  42.952  25.147  14.409
21657W        W94082   6.916  21.049   0.864
21658W        W94083   6.863   1.796   4.673
21659W        W94084  43.996  23.569  13.958
21660W        W94085  33.972  22.052   2.709
21661W        W94086   3.756  21.117   3.240
21662W        W94087   1.840   9.740   0.269
21663W        W94088  20.586   5.747  13.431
21664W        W94089  23.101  17.118   1.406
21665W        W94090  22.659  41.503   5.109
21666W        W94091  30.159   7.234   4.721
21667W        W94092   7.879  38.900   2.772
21668W        W94093  25.556  17.072  14.876
21669W        W94094  18.227  20.614  14.444
21670W        W94095  18.548   5.196   3.646
21671W        W94096  37.377  41.040  12.012
21672W        W94097   0.892  25.635   0.822
21673W        W94098  23.706  16.634  11.987
21674W        W94099  33.625  39.838   2.292
21675W        W94100   0.252   0.896  13.929
21676W        W94101  24.617   1.242   4.671
21677W        W94102  11.231  27.054   2.681
21678W        W94103  29.639  13.782  14.279
21679W        W94104  10.280  10.269  10.112
21680W        W94105   2.393   3.382   3.821
21681W        W94106  43.303  40.967   3.851
21682W        W94107  33.886  13.815   3.870
21683W        W94108  35.363  22.169   4.836
21684W        W94109  13.160  34.960  10.534
21685W        W94110  17.574  33.533  14.419
21686W        W94111  10.253   5.235  12.953
21687W        W94112  25.997  21.091   3.298
21688W        W94113  31.049  11.265   3.318
21689W        W94114  36.453  24.505  12.576
21690W        W94115  38.368  25.534   2.389
21691W        W94116  16.132  13.112   0.746
21692W        W94117  30.541  35.368  14.491
21693W        W94118   0.826  23.684   1.284
21694W        W94119  36.542  12.722   4.754
21695W        W94120  17.560  20.126  11.096
21696W        W94121  32.431  14.191  11.904
21697W        W94122  27.528  20.241  13.360
21698W        W94123  18.601  42.833  12.969
21699W        W94124  23.026  21.605   1.298
21700W        W94125  40.386  33.897   0.433
21701W        W94126   3.867  27.141   0.250
21702W        W94127  34.389  42.327  12.978
21703W        W94128   5.755  21.164  10.949
21704W        W94129  11.168  20.083  14.469
21705W        W94130  23.609  15.666   2.369
21706W        W94131   9.193  19.583   0.740
21707W        W94132  42.002   0.895   3.664
21708W        W94133  34.506  44.388  12.505
21709W        W94134   8.301  33.116  10.472
21710W        W94135  10.382  42.358   3.362
21711W        W94136  27.181  27.681   2.221
21712W        W94137  33.390   9.313   3.667
21713W        W94138   2.720  25.156  12.867
21714W        W94139  13.609   1.745   3.239
21715W        W94140  24.083  34.387  13.857
21716W        W94141  36.036  22.515   1.329
21717W        W94142  12.345  43.798  12.955
21718W        W94143  38.328  25.036  14.354
21719W        W94144  34.492  20.643  14.285
21720W        W94145  21.024   4.934  12.959
21721W        W94146  24.067  17.595   0.313
21722W        W94147  38.944  36.501  11.010
21723W        W94148  19.726  26.683  11.882
21724W        W94149   0.441  25.533   1.247
21725W        W94150  26.167  26.082   0.300
21726W        W94151   5.200  28.946  10.425
21727W        W94152  36.457  17.106   4.776
21728W        W94153  25.556   5.784   2.361
21729W        W94154  42.888  29.631   2.269
21730W        W94155   3.876  40.521   3.734
21731W        W94156  20.624  37.411   2.183
21732W        W94157  41.907  16.639   1.379
21733W        W94158  34.018  31.054  13.461
21734W        W94159  13.170   1.404   3.660
21735W        W94160  12.341   4.355   4.135
21736W        W94161  36.478  29.052  13.334
21737W        W94162  10.157  41.900   2.198
21738W        W94163  13.233   2.396   9.994
21739W        W94164  32.964  13.659  10.572
21740W        W94165  16.650  25.967  14.452
21741W        W94166   3.794  13.336  11.009
21742W        W94167   5.299  37.390   0.952
21743W        W94168  22.157  12.683   5.609
21744W        W94169   0.826  25.016   4.714
21745W        W94170  30.537  29.003   1.372
21746W        W94171  12.197  27.051  13.998
21747W        W94172  24.204  25.702   2.765
21748W        W94173  12.228  35.061  11.460
21749W        W94174  33.968   1.434   4.297
21750W        W94175   8.825   5.220  11.055
21751W        W94176  10.289  11.728   1.895
21752W        W94177  42.414  23.715   4.346
21753W        W94178  28.466  35.973  11.013
21754W        W94179  36.884  24.104   3.210
21755W        W94180  36.475   1.461  13.962
21756W        W94181  19.704  31.406  11.047
21757W        W94182  13.111   2.865  13.870
21758W        W94183  30.072  22.580  14.441
21759W        W94184  40.037   6.838  11.053
21760W        W94185  24.018  18.733   1.899
21761W        W94186   1.483  13.316  10.956
21762W        W94187  34.936  10.316  13.443
21763W        W94188  32.099  24.036   3.771
21764W        W94189   0.425  44.347  12.464
21765W        W94190  24.067  34.028  12.838
21766W        W94191  41.026  14.237  10.941
21767W        W94192  36.082  42.977   1.719
21768W        W94193   6.242  21.602   0.299
21769W        W94194  18.574   0.305   0.924
21770W        W94195  26.070  20.074   1.711
21771W        W94196  29.068   5.888  13.872
21772W        W94197  43.004  26.021  12.385
21773W        W94198   8.884  38.986   4.831
21774W        W94199  39.990   6.301  11.089
21775W        W94200  40.022   5.771  10.977
21776W        W94201  39.871   0.311   3.706
21777W        W94202  15.236  25.014  10.540
21778W        W94203  42.948   9.321   4.200
21779W        W94204  29.104  10.219   4.276
21780W        W94205  19.621   2.466  14.830
21781W        W94206   7.245   2.239   2.197
21782W        W94207  11.157   9.773  14.418
21783W        W94208  32.077  11.712   4.163
21784W        W94209  10.327  43.850  14.456
21785W        W94210  44.784  23.525  14.813
21786W        W94211  34.055  40.435  10.507
21787W        W94212   9.165  44.854  14.942
21788W        W94213  38.982  28.138   3.360
21789W        W94214  44.830  24.050  12.448
21790W        W94215   1.263  36.409   4.169
21791W        W94216  16.280   5.740  11.583
21792W        W94217  43.921   8.358   2.290
21793W        W94218  33.510  24.008   0.761
21794W        W94219  30.467  40.006  12.424
21795W        W94220  44.881  26.011   2.262
21796W        W94221  41.466  13.656   4.199
21797W        W94222  36.847  30.577  10.890
21798W        W94223   7.714   3.390   1.266
21799W        W94224  26.107  29.970   9.492
21800W        W94225  26.195  19.727  11.397
21801W        W94226  12.358  20.609   4.341
21802W        W94227   8.279   1.733   1.772
21803W        W94228  24.625  13.253  11.882
21804W        W94229  16.087  23.198   0.439
21805W        W94230  36.945  32.616  12.980
21806W        W94231  26.620  44.999   1.888
21807W        W94232   4.813  16.095   3.384
21808W        W94233  21.215   7.764  14.901
21809W        W94234  23.691  43.814  10.555
21810W        W94235  39.880  11.173   3.159
21811W        W94236  38.032   6.893   0.313
21812W        W94237  10.277   4.210  11.893
21813W        W94238   4.335  37.962   1.444
21814W        W94239  35.014  13.698  12.414
21815W        W94240  32.965  12.636  13.487
21816W        W94241  35.006  27.692  12.464
21817W        W94242   9.365  22.571  13.358
21818W        W94243  44.322  25.037  12.848
21819W        W94244  44.440  32.907  14.899
21820W        W94245  12.213  18.275   4.325
21821W        W94246  30.536  31.462  13.018
21822W        W94247  17.577  26.988   2.854
21823W        W94248  42.416   8.796   3.642
21824W        W94249   8.242  32.967   4.600
21825W        W94250   1.243   6.372   2.312
21826W        W94251  37.399  38.485  14.345
21827W        W94252   4.843  39.318   2.340
21828W        W94253  41.361  28.529  11.578
21829W        W94254  18.561  12.834   4.160
21830W        W94255  42.009  15.702   1.450
21831W        W94256  36.029   0.886  12.550
21832W        W94257  24.209  10.168  13.964
21833W        W94258  29.955  22.573  10.608
21834W        W94259   1.241  38.431   0.928
21835W        W94260   7.883  35.472  12.340
21836W        W94261  42.436  27.513  12.380
21837W        W94262   2.805   0.357   2.231
21838W        W94263  19.162  33.122   3.762
21839W        W94264  37.917  20.764   0.286
21840W        W94265  39.820  26.193   0.271
21841W        W94266  25.690  44.981   2.376
21842W        W94267  24.696  41.964  14.025
21843W        W94268   9.732   1.899  14.278
21844W        W94269  37.028  31.901  13.464
21845W        W94270  42.449  35.579  13.545
21846W        W94271  13.748  35.964   1.816
21847W        W94272  16.102  19.656  11.584
21848W        W94273   5.838   7.300   3.666
21849W        W94274   7.776  25.714  12.840
21850W        W94275   0.411  44.928  13.801
21851W        W94276  13.703  28.506   4.688
21852W        W94277  43.848   6.827  14.853
21853W        W94278  28.101  43.296   0.869
21854W        W94279  23.708  26.167   3.341
21855W        W94280  18.738   5.862  10.920
21856W        W94281  28.995  43.360  12.393
21857W        W94282  24.017  34.435   1.826
21858W        W94283  42.422  31.917   1.741
21859W        W94284  27.508   5.397   3.339
21860W        W94285  33.442   0.918   0.953
21861W        W94286  12.640   4.265   4.328
21862W        W94287   1.772   9.232   4.776
21863W        W94288   3.852  12.260  13.058
21864W        W94289   0.271  25.063   2.848
21865W        W94290   8.726   6.336   2.749
21866W        W94291  21.187  28.093  14.342
21867W        W94292   6.324  31.912   2.862
21868W        W94293  27.446  25.015   0.922
21869W        W94294  31.598  16.689   3.764
21870W        W94295  43.361  19.221   9.462
21871W        W94296   6.264  29.519  12.830
21872W        W94297  12.179  44.786   4.351
21873W        W94298  20.117   9.784  14.394
21874W        W94299  26.553  25.066   0.766
21875W        W94300  27.168  29.008   2.858
21876W        W94301  40.525  44.807  12.457
21877W        W94302  15.321  44.410   0.249
21878W        W94303  14.225   3.804   2.729
21879W        W94304  15.742  10.168   1.329
21880W        W94305  10.184  15.676  13.808
21881W        W94306   3.400   9.797  14.306
21882W        W94307  40.946  39.402  10.418
21883W        W94308  11.762  25.072   0.414
21884W        W94309  25.474   3.370  10.440
21885W        W94310  21.235  10.654  14.839
21886W        W94311  10.709  13.136  12.913
21887W        W94312  41.529  32.418   3.181
21888W        W94313   2.264  41.382   9.943
21889W        W94314  32.946  31.585   1.907
21890W        W94315  13.685  10.642  12.953
21891W        W94316   4.352  20.239  11.080
21892W        W94317  12.123   1.796   5.681
21893W        W94318  19.055  40.497  10.951
21894W        W94319   9.191  38.860   2.855
21895W        W94320  36.902  19.112  11.900
21896W        W94321   2.298  44.818   3.282
21897W        W94322  33.513  37.890   1.329
21898W        W94323  17.156   4.824   0.927
21899W        W94324  25.044  34.984  12.937
21900W        W94325   4.433  25.518   2.820
21901W        W94326   3.459   1.888   4.349
21902W        W94327  27.633  28.506   0.909
21903W        W94328  36.579   2.914  14.776
21904W        W94329  36.550  23.074   0.855
21905W        W94330  38.032  35.601   1.272
21906W        W94331  14.174  31.616   0.815
21907W        W94332  37.421  38.346  13.517
21908W        W94333  14.101  36.951   2.225
21909W        W94334   1.425  38.864  14.479
21910W        W94335  20.136   0.423   3.316
21911W        W94336  28.507  35.598  14.282
21912W        W94337  22.602   6.905  11.020
21913W        W94338  10.743  18.274   2.252
21914W        W94339  43.308   5.908  12.450
21915W        W94340  38.565  33.618  14.777
21916W        W94341  36.548  17.626  13.541
21917W        W94342   0.796  27.590  13.369
21918W        W94343  14.327  35.415  11.966
21919W        W94344  34.086   3.435  13.327
21920W        W94345  40.524  23.713  14.830
21921W        W94346  25.672  40.005  11.504
21922W        W94347  39.551  25.122  11.081
21923W        W94348  23.095   7.847  14.909
21924W        W94349  19.185  26.544  11.024
21925W        W94350  17.068  20.766  11.040
21926W        W94351  10.219  38.985   2.878
21927W        W94352  24.546  13.741   3.629
21928W        W94353  38.038   8.810  14.928
21929W        W94354  25.980  40.364  10.542
21930W        W94355  32.045  40.981   2.869
21931W        W94356   5.423  12.771  13.050
21932W        W94357  44.389   0.950  13.419
21933W        W94358   0.277   4.446  13.856
21934W        W94359  40.457  15.746  11.496
21935W        W94360  41.387  31.018   0.862
21936W        W94361  10.745  33.069  11.109
21937W        W94362   6.378   3.425  13.807
21938W        W94363  44.278  39.810  13.413
21939W        W94364  43.790  37.069  13.846
21940W        W94365   8.247  31.594  14.937
21941W        W94366  17.684  14.217  10.982
21942W        W94367  24.706  44.001   3.225
21943W        W94368  35.875   8.673  11.063
21944W        W94369  20.558  25.986   4.635
21945W        W94370  19.261  14.651  10.405
21946W        W94371  36.360   4.348  10.559
21947W        W94372  27.112   4.789   0.475
21948W        W94373  23.128  22.108   4.129
21949W        W94374  13.628  12.617  12.977
21950W        W94375  16.078  15.815   0.262
21951W        W94376   5.389  44.861  11.379
21952W        W94377  36.859  40.912  13.793
21953W        W94378  30.602  43.421   1.791
21954W        W94379   2.385  29.942   0.743
21955W        W94380  30.509   1.926   0.411
21956W        W94381  26.999  32.139   2.892
21957W        W94382  37.953  29.430   1.330
21958W        W94383  30.940   7.340   5.251
21959W        W94384  29.564  34.956  14.283
21960W        W94385   4.222  23.588   2.197
21961W        W94386  24.974  32.496  11.115
21962W        W94387   2.284   4.797   5.105
21963W        W94388  24.649  11.846   3.273
21964W        W94389   2.349  32.480   0.774
21965W        W94390  44.305  35.486  11.542
21966W        W94391  20.621  27.054  12.526
21967W        W94392  28.035   9.182  11.023
21968W        W94393   3.264  16.193  12.383
21969W        W94394   0.478  14.267   1.730
21970W        W94395  14.624  44.887  14.988
21971W        W94396  41.938  26.602  11.020
21972W        W94397  13.819  28.448   4.249
21973W        W94398  38.374  29.092  11.445
21974W        W94399  14.613  11.649   3.864
21975W        W94400  29.447  11.346   2.783
21976W        W94401  19.627  43.460  14.916
21977W        W94402  44.885  26.566   4.692
21978W        W94403  32.480  26.021  12.038
21979W        W94404  35.965  35.603   0.350
21980W        W94405  37.537  21.161   4.826
21981W        W94406  37.368   4.290  13.029
21982W        W94407   7.755   3.287  12.097
21983W        W94408   8.750  16.229  12.575
21984W        W94409  23.503  33.037   2.400
21985W        W94410  10.649  19.587  13.547
21986W        W94411  33.096   0.822  10.518
21987W        W94412   8.379  18.703   2.224
21988W        W94413  37.008  30.500   4.726
21989W        W94414  28.656  44.860  12.918
21990W        W94415   4.801  44.968  12.403
21991W        W94416  16.300  38.422  12.888
21992W        W94417  29.534   9.218   0.792
21993W        W94418  27.968  25.047  14.032
21994W        W94419  27.486  23.080   2.743
21995W        W94420  22.138   8.694   4.752
21996W        W94421  39.428  37.449  14.321
21997W        W94422  44.901   5.896  10.893
21998W        W94423  33.430  20.609   0.266
21999W        W94424  43.496  14.716   2.783
22000W        W94425  32.037  28.488   4.763
22001W        W94426   2.881  37.562   1.841
22002W        W94427  12.664  29.922  10.972
22003W        W94428  10.800  14.606  10.475
22004W        W94429   1.949   3.399   0.771
22005W        W94430   9.748  22.684   0.242
22006W        W94431  40.003  30.654   4.132
22007W        W94432   5.731  44.462  13.870
22008W        W94433  30.422  14.327  11.428
22009W        W94434  14.152  42.376   1.768
22010W        W94435  40.822  26.117  14.834
22011W        W94436  33.091  21.214  14.495
22012W        W94437  40.866  20.640   1.335
22013W        W94438  33.424  14.643   4.149
22014W        W94439  36.446  40.875   0.406
22015W        W94440  11.780  19.046   4.711
22016W        W94441   9.665  27.518  14.845
22017W        W94442   2.403  19.121  14.815
22018W        W94443   6.717  12.728  11.520
22019W        W94444  37.054  36.917  11.965
22020W        W94445  32.595   0.387   1.807
22021W        W94446  28.572  18.784   3.226
22022W        W94447  42.946  36.982  10.904
22023W        W94448  44.388  29.458   5.146
22024W        W94449  34.016   2.966  12.963
22025W        W94450   3.721  44.466  12.496
22026W        W94451  17.089  28.623  11.071
22027W        W94452   8.252  30.064  13.514
22028W        W94453  42.012  34.509  12.943
22029W        W94454  43.362  35.478  11.397
22030W        W94455  34.101  36.023  11.554
22031W        W94456  23.180  26.011   4.693
22032W        W94457  23.618   2.766  13.982
22033W        W94458   1.415   8.723  11.109
22034W        W94459  35.421  28.522   1.364
22035W        W94460  27.069  37.466  14.031
22036W        W94461  43.470  32.567  10.408
22037W        W94462   3.835  21.179   5.296
22038W        W94463  40.022  38.008  13.900
22039W        W94464  35.109   7.332   9.529
22040W        W94465  43.778   4.741  11.978
22041W        W94466  27.663   5.855  11.529
22042W        W94467   6.753  11.795  14.400
22043W        W94468   6.775  31.415  14.794
22044W        W94469  44.866   9.271   0.952
22045W        W94470  26.109  26.460   0.355
22046W        W94471  30.040  43.929  14.354
22047W        W94472  23.070   4.206   2.791
22048W        W94473  13.724   2.398   3.381
22049W        W94474  28.178  14.788  11.608
22050W        W94475   5.379   2.912   0.770
22051W        W94476   3.817  13.723  13.806
22052W        W94477  11.243  25.186   2.808
22053W        W94478  15.217  35.581  11.374
22054W        W94479  31.977  39.460   4.309
22055W        W94480   2.352  25.525   0.289
22056W        W94481   4.373  25.105  10.895
22057W        W94482  27.571   6.913  14.285
22058W        W94483  41.904  10.817  14.823
22059W        W94484  14.114  24.180   3.689
22060W        W94485  12.359  37.038  11.006
22061W        W94486  39.009  36.849  11.055
22062W        W94487  10.783  10.252  13.519
22063W        W94488  16.092  21.095   4.626
22064W        W94489  42.418  10.383  12.849
22065W        W94490   8.326   1.762   4.774
22066W        W94491   5.748  18.117  14.911
22067W        W94492  20.113  12.341  11.014
22068W        W94493  39.890  14.794   4.751
22069W        W94494  36.023  17.142  11.447
22070W        W94495   1.941   5.805  12.916
22071W        W94496  44.351  41.357  11.014
22072W        W94497  20.176   9.346  11.905
22073W        W94498  35.582   4.858   2.815
22074W        W94499   0.917   7.800  12.502
22075W        W94500  43.967  35.022  14.888
22076W        W94501  22.668  28.091   2.380
22077W        W94502  42.991  29.646  10.616
22078W        W94503  29.654  37.955   2.195
22079W        W94504  40.420  41.824  13.891
22080W        W94505  37.475  28.099  11.862
22081W        W94506  22.045  12.152  12.093
22082W        W94507   9.200  42.971  11.115
22083W        W94508  15.790   9.700   1.238
22084W        W94509  43.952  12.741   0.898
22085W        W94510  40.801   0.916   2.379
22086W        W94511  17.630  29.155   4.246
22087W        W94512  16.216  11.339   1.846
22088W        W94513  23.547  43.922  13.839
22089W        W94514  44.787  25.664   1.240
22090W        W94515  13.154  25.165   1.877
22091W        W94516   3.456  41.869   1.229
22092W        W94517  14.269  29.441   3.748
22093W        W94518  21.723   3.917   1.380
22094W        W94519   9.203  42.789   3.813
22095W        W94520  30.578  13.292  13.031
22096W        W94521  17.693  38.002  10.931
22097W        W94522  23.530  39.470  11.128
22098W        W94523  15.153  43.010   4.308
22099W        W94524   9.840  28.151  12.057
22100W        W94525  28.115   5.306   0.447
22101W        W94526   0.890  33.879  12.352
22102W        W94527  20.663  20.712   1.441
22103W        W94528  35.406  28.957  11.865
22104W        W94529   2.959  28.023  14.434
22105W        W94530  42.416  30.090   0.256
22106W        W94531  18.257  26.990   2.665
22107W        W94532  36.458  42.315  12.866
22108W        W94533  21.635   1.414  10.463
22109W        W94534  11.735  33.483   2.265
22110W        W94535  24.663   1.828  14.428
22111W        W94536  15.227   9.644   2.243
22112W        W94537  16.200  23.223  12.958
22113W        W94538  35.883   6.874   1.711
22114W        W94539  16.567  34.500  11.054
22115W        W94540   7.691  24.549  12.506
22116W        W94541   9.883   0.328   4.769
22117W        W94542   7.833  21.745   1.335
22118W        W94543  36.416  39.959   1.374
22119W        W94544  27.679   1.335  13.469
22120W        W94545   6.203   7.294   1.233
22121W        W94546   3.720  41.964  12.544
22122W        W94547  36.983  15.603   4.619
22123W        W94548  38.921  16.629  10.416
22124W        W94549  12.287   9.219   0.437
22125W        W94550  11.725  44.984  10.556
22126W        W94551  38.038  27.670   1.839
22127W        W94552  15.108  33.505   4.256
22128W        W94553   1.458  20.070   4.256
22129W        W94554  44.783  21.024   1.302
22130W        W94555  40.378  40.526   2.734
22131W        W94556  32.937  18.111  10.895
22132W        W94557  30.531  44.848   4.700
22133W        W94558   9.359  21.720  13.459
22134W        W94559  44.313  14.642   0.795
22135W        W94560  15.792  13.762  12.855
22136W        W94561  26.602  27.470  11.513
22137W        W94562  38.921  13.205   4.807
22138W        W94563  26.648  39.882   0.381
22139W        W94564   9.846  19.190  12.440
22140W        W94565  12.228  15.771   2.413
22141W        W94566  33.130  44.860   4.206
22142W        W94567  31.473  30.579   3.229
22143W        W94568  13.250  37.008  14.379
22144W        W94569  33.468  16.086  13.484
22145W        W94570  12.194  31.624   0.940
22146W        W94571  40.527  17.788   1.868
22147W        W94572   7.874  38.515   3.824
22148W        W94573  12.290  26.601   2.758
22149W        W94574   1.347  27.567  13.383
22150W        W94575  27.629  16.581  12.074
22151W        W94576  15.266   1.460   1.714
22152W        W94577  43.785  30.068   3.723
22153W        W94578  37.970  38.464  12.868
22154W        W94579  35.054  24.136  13.372
22155W        W94580   4.362  24.142   1.360
22156W        W94581  20.151  38.987   0.740
22157W        W94582  26.643   2.840  14.819
22158W        W94583  23.121  19.649   2.723
22159W        W94584  26.507  38.008  13.917
22160W        W94585   7.878  11.372   2.205
22161W        W94586  41.929  19.268   2.215
22162W        W94587  17.729  36.504   1.280
22163W        W94588   1.860   3.252   1.364
22164W        W94589   8.798  39.431  13.493
22165W        W94590  33.541  34.047  13.996
22166W        W94591   1.376   2.391  10.915
22167W        W94592  38.495   7.183  13.037
22168W        W94593  38.997   4.787  10.003
22169W        W94594  35.094  38.422   4.185
22170W        W94595  19.123  41.302  12.383
22171W        W94596  27.065  38.047   3.209
22172W        W94597  43.407  16.698   1.366
22173W        W94598  15.664  31.645   4.680
22174W        W94599   1.385   4.239  14.470
22175W        W94600   5.928  44.498   0.846
22176W        W94601   1.253  14.713   0.430
22177W        W94602  35.928  11.312  12.468
22178W        W94603   5.916  17.638  11.037
22179W        W94604  27.055  42.390   3.185
22180W        W94605  28.638  17.277  13.329
22181W        W94606  40.474  16.612   4.206
22182W        W94607  11.743  37.542  12.356
22183W        W94608  25.206  13.656   1.696
22184W        W94609   1.937  23.128  10.557
22185W        W94610   4.305  18.715  13.342
22186W        W94611  15.150  22.635  13.892
22187W        W94612  36.988  11.223   3.798
22188W        W94613   7.274  31.117   4.637
22189W        W94614  11.629  28.155  14.299
22190W        W94615  27.012   5.899   3.223
22191W        W94616  31.607  34.960  10.413
22192W        W94617  15.165  30.963  14.973
22193W        W94618  14.685  29.059  14.914
22194W        W94619  10.353  41.364  10.451
22195W        W94620  27.456  18.604  10.469
22196W        W94621  31.043  32.073  10.067
22197W        W94622   2.273   4.409   1.782
22198W        W94623  33.403  20.091  12.052
22199W        W94624   5.324  23.639   4.346
22200W        W94625  22.614  17.244   0.296
22201W        W94626  44.442  33.540   4.217
22202W        W94627  43.884  21.056   2.306
22203W        W94628   2.229  31.052   0.375
22204W        W94629  39.839  31.452   2.872
22205W        W94630  24.221  36.355   1.819
22206W        W94631  40.466  18.289  12.556
22207W        W94632   2.356  19.047  10.586
22208W        W94633  17.688   4.326   2.279
22209W        W94634   2.927  33.105   0.253
22210W        W94635  38.441  25.962  11.005
22211W        W94636  16.210   6.383   2.855
22212W        W94637  44.468  15.630   4.715
22213W        W94638  39.840  37.550   0.915
22214W        W94639  42.488  18.743  12.997
22215W        W94640  12.620  23.241   0.292
22216W        W94641  30.491  15.696  12.372
22217W        W94642   5.691  36.592   2.717
22218W        W94643   0.455  44.009   1.417
22219W        W94644  39.021  35.961  11.516
22220W        W94645  40.317  39.993   3.638
22221W        W94646  42.455  35.525   0.312
22222W        W94647  19.247   5.255  14.762
22223W        W94648  25.610  44.895   2.787
22224W        W94649  42.344  15.213  11.092
22225W        W94650  23.094   9.782   5.196
22226W        W94651  38.510  15.798   3.321
22227W        W94652   9.785   7.894  13.904
22228W        W94653  43.317  20.194   5.583
22229W        W94654  42.023  31.005  12.427
22230W        W94655  29.488  27.582  11.421
22231W        W94656   8.315  32.911  12.973
22232W        W94657  39.029  24.643  11.907
22233W        W94658  27.161  13.806   1.737
22234W        W94659  13.287  42.835   4.620
22235W        W94660  36.996   5.402   2.340
22236W        W94661  12.685  13.761   2.752
22237W        W94662  33.472  19.082  10.503
22238W        W94663  22.677  24.006  12.478
22239W        W94664  38.050  40.317   4.800
22240W        W94665  14.185  24.043  14.495
22241W        W94666  24.993   4.821  10.545
22242W        W94667   9.692  32.457  14.908
22243W        W94668  11.190  16.746   3.350
22244W        W94669  23.178  13.773   2.411
22245W        W94670   0.268  26.626  10.628
22246W        W94671  14.241  33.055  13.403
22247W        W94672   3.218  35.057   2.707
22248W        W94673  22.573   4.286   2.857
22249W        W94674  29.648  43.272  14.815
22250W        W94675   7.337  30.076   2.268
22251W        W94676  31.587   5.233   4.269
22252W        W94677   3.250  42.886  11.062
22253W        W94678  14.641  24.066  10.940
22254W        W94679  28.493  21.538  11.565
22255W        W94680  44.884   6.685   4.800
22256W        W94681  34.941  13.750   1.226
22257W        W94682  12.843  31.020   4.601
22258W        W94683  20.194  28.505   4.295
22259W        W94684  13.628  17.592  13.958
22260W        W94685  12.624  24.094  14.896
22261W        W94686  23.145  29.119  11.995
22262W        W94687   5.897  20.727   2.737
22263W        W94688   3.244  14.786   4.289
22264W        W94689  28.479   3.359  12.867
22265W        W94690  40.352  38.443  12.825
22266W        W94691  36.076  23.065   2.857
22267W        W94692  11.157  36.891   4.275
22268W        W94693  29.993  21.124   1.229
22269W        W94694   6.917  28.952  10.934
22270W        W94695  11.760  19.595   3.330
22271W        W94696  25.678   8.265  14.005
22272W        W94697  15.672  37.336  10.085
22273W        W94698  43.459   3.338  14.897
22274W        W94699   2.920  24.680  14.404
22275W        W94700   8.286   0.485  11.550
22276W        W94701  27.158  14.135   4.228
22277W        W94702  31.093   9.778  13.402
22278W        W94703  10.326  25.619  13.037
22279W        W94704  19.178  29.991   0.955
22280W        W94705  12.649  19.571   2.681
22281W        W94706  36.418   9.341   3.774
22282W        W94707  39.346  25.077   0.932
22283W        W94708   4.809  30.024   3.696
22284W        W94709  13.325  12.811  13.818
22285W        W94710   9.863  13.206   1.400
22286W        W94711  26.583  38.470   9.928
22287W        W94712   0.977  38.051   3.383
22288W        W94713  17.735   5.793   2.779
22289W        W94714   7.236  13.612   3.183
22290W        W94715  27.141  35.430  13.931
22291W        W94716  34.507  41.326  10.616
22292W        W94717  20.728  44.286  11.971
22293W        W94718  12.138  26.628  13.377
22294W        W94719  20.685  35.026   4.769
22295W        W94720  34.526  31.985  14.392
22296W        W94721  15.282  34.010   1.811
22297W        W94722  11.232   6.882   4.171
22298W        W94723   2.405  39.499   4.687
22299W        W94724  29.602   6.776   0.315
22300W        W94725  30.463   9.682   4.260
22301W        W94726   3.744  42.849  13.390
22302W        W94727  17.141   6.811  11.918
22303W        W94728  34.543   7.271  12.387
22304W        W94729   8.248  15.756  11.871
22305W        W94730   0.900   3.351  12.052
22306W        W94731  28.481   5.426  14.316
22307W        W94732  18.141  36.074  14.479
22308W        W94733  20.064  42.860  10.995
22309W        W94734  17.686  42.958   4.329
22310W        W94735  10.864  29.093   5.309
22311W        W94736  44.970   3.362  13.992
22312W        W94737  30.082  10.352  14.383
22313W        W94738  12.213   8.180  13.834
22314W        W94739  40.549  36.994  13.051
22315W        W94740  16.212  32.591  12.506
22316W        W94741  16.272  19.713  12.061
22317W        W94742   3.746  33.899   4.641
22318W        W94743  17.280   8.195  12.532
22319W        W94744  25.557  42.290  13.320
22320W        W94745  22.997  44.311  14.961
22321W        W94746  37.542  19.671  14.907
22322W        W94747   1.755  42.986  10.436
22323W        W94748   1.239   1.964   2.844
22324W        W94749   0.356  39.041  14.006
22325W        W94750  22.100  40.827   2.265
22326W        W94751  41.348  18.112   1.438
22327W        W94752  35.031  33.400  12.394
22328W        W94753  33.412  38.461  13.969
22329W        W94754   1.859   8.382   3.385
22330W        W94755  28.933   4.845   0.327
22331W        W94756   5.254   0.840   0.368
22332W        W94757  33.909   0.308  12.368
22333W        W94758   2.836   3.917  14.001
22334W        W94759  21.708   7.356   2.226
22335W        W94760  20.663  38.853  14.503
22336W        W94761  13.324  26.516   2.777
22337W        W94762  25.533   9.717  11.553
22338W        W94763  42.816  13.717   1.357
22339W        W94764  19.244  25.177   0.471
22340W        W94765   1.844   8.805   3.242
22341W        W94766  40.832  21.261  12.454
22342W        W94767  30.438  10.227   4.688
22343W        W94768   9.277  16.160  10.562
22344W        W94769  42.914  25.031   1.417
22345W        W94770  26.055  24.489  11.596
22346W        W94771   3.304  10.728  11.946
22347W        W94772  21.526   1.833   3.386
22348W        W94773  27.977  29.130   5.177
22349W        W94774   2.782  16.718  11.042
22350W        W94775  31.941  24.488  14.032
22351W        W94776  10.713   5.856  11.595
22352W        W94777  19.702  10.644  10.626
22353W        W94778  43.324   6.765  12.383
22354W        W94779  30.064  27.061  13.030
22355W        W94780  22.743  11.174   3.156
22356W        W94781  10.318   2.463   3.829
22357W        W94782  42.829  42.967  11.090
22358W        W94783   8.320  33.467  12.381
22359W        W94784  26.589  12.274   0.932
22360W        W94785  10.777  15.238   3.759
22361W        W94786  22.093  23.536   2.684
22362W        W94787  20.106  42.348  10.437
22363W        W94788  39.963  13.797  13.350
22364W        W94789   3.451  24.080   1.261
22365W        W94790  35.423   3.716   3.329
22366W        W94791  20.523  27.468  14.864
22367W        W94792  43.320  39.550   2.205
22368W        W94793   2.423  36.480  13.406
22369W        W94794  15.707  43.885  12.849
22370W        W94795  43.399  37.855   0.395
22371W        W94796  26.557  11.744  13.882
22372W        W94797  38.367  34.064  11.091
22373W        W94798  42.788   3.458   3.669
22374W        W94799   9.301  40.979  14.954
22375W        W94800  10.351  37.551   1.299
22376W        W94801  22.074  19.551  10.924
22377W        W94802   4.878  18.108  10.535
22378W        W94803  15.580  34.379  11.595
22379W        W94804  39.004   3.299  12.400
22380W        W94805  20.617   6.854  14.485
22381W        W94806  26.990   1.757   3.695
22382W        W94807   5.765   9.654   2.334
22383W        W94808   3.859   6.340  12.983
22384W        W94809  19.203  28.458   2.379
22385W        W94810  12.686  17.597   3.352
22386W        W94811   0.355  44.379  12.036
22387W        W94812   7.361  36.526  10.456
22388W        W94813  32.030  41.472   2.330
22389W        W94814  26.187  40.019  12.873
22390W        W94815  39.478   9.295  10.590
22391W        W94816  15.753  17.800   1.808
22392W        W94817  10.140  20.646  10.628
22393W        W94818  12.796  19.145   0.951
22394W        W94819  17.576  25.657   4.168
22395W        W94820  21.103  30.141   2.890
22396W        W94821   0.743  21.221   0.894
22397W        W94822  14.297   8.172   2.286
22398W        W94823  18.681   3.357   3.848
22399W        W94824  42.827   8.238   0.269
22400W        W94825  19.742  14.642   0.827
22401W        W94826  19.680  24.109   3.793
22402W        W94827   9.839  30.951   1.773
22403W        W94828  40.331   4.836   3.795
22404W        W94829  15.304  22.630  10.619
22405W        W94830  26.074  23.029  13.900
22406W        W94831  10.375   5.822  10.618
22407W        W94832  40.496  25.160  10.904
22408W        W94833  32.458  20.235  12.859
22409W        W94834  27.636  33.008   4.830
22410W        W94835  22.138  25.602  11.871
22411W        W94836  21.681  16.301   1.854
22412W        W94837   7.805  21.107   0.839
22413W        W94838  28.531  18.575   1.794
22414W        W94839  12.310  36.035  14.378
22415W        W94840  25.179   6.746   4.179
22416W        W94841  24.656  25.535  12.538
22417W        W94842   8.250   0.297  14.383
22418W        W94843  34.415  34.563   2.844
22419W        W94844  25.987  42.814  13.316
22420W        W94845   2.316  18.235  13.507
22421W        W94846  11.635   7.335   9.926
22422W        W94847  11.702  43.511   1.212
22423W        W94848  25.169  16.300  13.007
22424W        W94849  24.709  22.685   1.299
22425W        W94850  22.548  12.808   3.865
22426W        W94851  39.465   2.942  13.527
22427W        W94852  32.452  19.172   2.360
22428W        W94853  16.288  40.915   3.633
22429W        W94854  20.134  18.185   0.377
22430W        W94855  10.853  32.068  14.457
22431W        W94856  24.718  18.744   1.913
22432W        W94857   7.311  11.248   1.289
22433W        W94858  23.049  26.550   2.406
22434W        W94859  22.504  27.132   1.725
22435W        W94860  44.001  31.532   0.770
22436W        W94861   8.346  10.790  14.870
22437W        W94862  26.681  37.052   4.256
22438W        W94863  36.072   3.925   3.636
22439W        W94864  42.803   6.758   0.443
22440W        W94865  13.325  12.784  10.909
22441W        W94866  14.677  39.319   4.650
22442W        W94867  35.436   1.393   3.835
22443W        W94868  36.097  12.200  10.961
22444W        W94869  30.637  44.952  13.807
22445W        W94870   0.881   6.421  14.491
22446W        W94871   9.317  14.141  10.110
22447W        W94872  31.463  41.331  13.896
22448W        W94873  18.277   3.892   4.683
22449W        W94874  23.696  41.476   3.673
22450W        W94875  11.653  44.366   3.829
22451W        W94876   5.898  42.920  11.978
22452W        W94877  37.919   1.305  11.120
22453W        W94878  24.556  37.441  14.003
22454W        W94879   6.837  15.104  13.928
22455W        W94880  16.141  31.076  10.938
22456W        W94881  20.028   5.798  14.024
22457W        W94882   3.746   8.823   1.313
22458W        W94883  16.135  43.806  12.013
22459W        W94884   1.472  26.051   0.395
22460W        W94885  24.130  38.039   1.807
22461W        W94886  23.639  32.041   3.296
22462W        W94887  42.344   8.224   0.468
22463W        W94888  31.046  27.661  10.902
22464W        W94889   7.216   3.262   1.913
22465W        W94890  20.157  13.282  11.942
22466W        W94891  21.615  44.429  11.866
22467W        W94892  18.713  21.113   4.603
22468W        W94893  21.578  42.908   1.272
22469W        W94894  13.812  10.314   3.375
22470W        W94895  26.186   2.417   0.772
22471W        W94896  41.025  17.074  10.899
22472W        W94897  13.832  22.146  12.348
22473W        W94898   0.384  38.919   3.722
22474W        W94899  21.231   8.245  11.396
22475W        W94900  17.154  34.905  11.859
22476W        W94901  13.769  25.998  14.000
22477W        W94902  10.304  38.469   1.772
22478W        W94903  14.609  38.982  10.044
22479W        W94904  17.741   0.293  12.529
22480W        W94905  36.096  14.676  11.997
22481W        W94906  35.866  17.264  14.918
22482W        W94907  34.110  17.188   0.423
22483W        W94908   0.927  24.027  14.990
22484W        W94909  28.499  39.541  12.555
22485W        W94910   1.406  20.077   4.640
22486W        W94911  22.187  35.969   2.321
22487W        W94912  13.822  35.883  12.426
22488W        W94913   4.921  22.070   3.277
22489W        W94914  18.782   1.918   3.283
22490W        W94915  39.398  30.161  11.095
22491W        W94916  15.732  22.536   3.223
22492W        W94917   8.879  44.403   1.828
22493W        W94918  42.785  39.882   0.333
22494W        W94919   2.470  20.164  10.950
22495W        W94920  44.377  16.676  10.481
22496W        W94921  14.138   9.265  14.905
22497W        W94922   5.254  11.357   4.148
22498W        W94923  36.383   7.171   4.313
22499W        W94924  21.523  14.739  11.563
22500W        W94925  38.386  15.784   2.896
22501W        W94926  26.653  39.359  10.549
22502W        W94927  31.631   0.783  10.417
22503W        W94928   0.949  14.711  14.860
22504W        W94929  21.590  18.603   4.274
22505W        W94930  25.093  40.875   3.702
22506W        W94931  13.622  16.740  11.426
22507W        W94932  19.613  19.047   0.821
22508W        W94933   0.824  21.084  13.016
22509W        W94934  35.912   6.365   1.231
22510W        W94935   3.304   6.726  13.805
22511W        W94936  29.946  32.925  13.403
22512W        W94937   5.828  41.887  11.409
22513W        W94938  40.905   1.376   0.926
22514W        W94939   7.713   2.865  13.523
22515W        W94940   1.481  41.384  11.457
22516W        W94941  16.293  38.500   3.245
22517W        W94942  28.560  11.644  11.423
22518W        W94943  24.722  25.041  10.431
22519W        W94944   0.778  15.247   4.216
22520W        W94945  43.918  29.027   3.315
22521W        W94946  18.744  42.840  13.809
22522W        W94947  27.585  19.182   2.680
22523W        W94948  30.023   5.437  11.863
22524W        W94949  23.164   9.174   2.349
22525W        W94950  28.561  21.203  11.036
22526W        W94951  11.714   3.775  14.360
22527W        W94952  42.919  26.054   1.804
22528W        W94953  32.141   6.339   3.726
22529W        W94954   6.809  12.227  13.395
22530W        W94955  36.898  12.351   0.841
22531W        W94956  31.120   0.356   2.344
22532W        W94957  24.724  18.609   0.429
22533W        W94958  11.226   7.289   0.963
22534W        W94959  37.048   1.897  12.359
22535W        W94960  38.039  44.965  11.860
22536W        W94961  42.359  39.518  11.936
22537W        W94962   4.372  31.496   2.827
22538W        W94963   2.809  20.035   3.374
22539W        W94964  27.050   4.839  10.148
22540W        W94965   9.665  32.584  14.350
22541W        W94966  38.972  10.215   1.725
22542W        W94967  32.458  39.879  12.838
22543W        W94968  15.660   1.266   0.264
22544W        W94969   2.445  40.356  12.512
22545W        W94970  36.937  20.231   3.226
22546W        W94971  27.487  19.600   0.247
22547W        W94972  34.522  34.095  14.800
22548W        W94973  26.560   5.272  11.511
22549W        W94974  24.699  22.237   0.735
22550W        W94975  37.457  42.347   3.721
22551W        W94976  15.126   0.981   2.723
22552W        W94977   8.882  16.115   0.442
22553W        W94978  14.594  21.197  14.494
22554W        W94979  12.301  22.065  12.518
22555W        W94980  19.570  33.534  12.021
22556W        W94981   6.719  21.713  13.446
22557W        W94982  12.175  34.429   1.911
22558W        W94983   0.267  13.819   0.778
22559W        W94984  27.643  10.731  13.411
22560W        W94985  24.608   0.975  13.512
22561W        W94986  35.574   3.307   2.863
22562W        W94987  13.172  29.511  13.357
22563W        W94988  31.035  22.536   2.356
22564W        W94989  33.447  40.445  13.433
22565W        W94990  34.037  26.120  14.787
22566W        W94991   3.750  24.212  11.460
22567W        W94992  23.678   9.290  12.526
22568W        W94993  11.628  41.437  14.891
22569W        W94994  18.790  31.119   0.741
22570W        W94995  18.578   7.326   4.692
22571W        W94996  15.619  28.588  13.050
22572W        W94997  43.353   0.923   2.903
22573W        W94998  23.539   3.857  13.427
22574W        W94999   8.797  27.996  13.849
22575W        W95000  25.671  34.071  10.973
22576W        W95001  16.751  33.876  12.866
22577W        W95002  18.676   0.461   2.805
22578W        W95003  30.020  42.389  14.449
22579W        W95004   0.844   5.725   0.957
22580W        W95005   0.815  41.935   3.250
22581W        W95006  27.950  20.769   2.848
22582W        W95007  23.205  27.461  11.921
22583W        W95008   6.396   5.761  13.428
22584W        W95009   0.493   6.920   4.745
22585W        W95010  25.179   4.710   3.270
22586W        W95011  25.499  37.016  11.596
22587W        W95012   8.734  27.512   3.314
22588W        W95013  39.033   5.736  13.985
22589W        W95014  22.707  42.300  12.966
22590W        W95015  13.166  21.143  11.457
22591W        W95016  34.535  24.558  13.809
22592W        W95017  41.529  21.656  10.443
22593W        W95018  15.714  11.234  13.038
22594W        W95019  27.963  31.916   3.249
22595W        W95020   0.931  29.497   2.780
22596W        W95021  35.375  42.516  12.385
22597W        W95022  17.162  28.024  14.973
22598W        W95023  13.711  44.755   3.759
22599W        W95024   6.357  36.479   2.873
22600W        W95025   7.377  25.512  13.838
22601W        W95026   9.827  18.202  14.306
22602W        W95027   6.835  41.992   1.245
22603W        W95028  14.687  34.581  10.441
22604W        W95029  43.423  11.861   1.783
22605W        W95030   6.709  40.466  13.803
22606W        W95031  30.924  27.962  12.856
22607W        W95032  22.242  18.081  14.869
22608W        W95033  44.821  23.535  14.318
22609W        W95034  41.388   0.348   4.299
22610W        W95035  36.386  15.775  11.562
22611W        W95036  23.564  39.860   2.712
22612W        W95037   7.241  26.096   4.627
22613W        W95038  25.578   9.846  14.337
22614W        W95039   3.405  43.931  12.440
22615W        W95040  38.380  35.521  12.076
22616W        W95041  30.099  33.129  11.979
22617W        W95042  20.178  28.038  11.395
22618W        W95043  35.522   5.832   3.197
22619W        W95044  24.494  32.564   1.931
22620W        W95045  33.529   8.307   0.393
22621W        W95046   2.956   0.798   3.308
22622W        W95047   7.351  26.986  11.553
22623W        W95048  40.414  34.114   1.290
22624W        W95049   4.869   7.858   2.372
22625W        W95050   0.853  33.550  13.949
22626W        W95051   0.946  37.529   4.733
22627W        W95052  11.254  35.900   3.324
22628W        W95053   3.806  30.631  14.875
22629W        W95054  24.172  27.556  10.946
22630W        W95055  25.509  41.339   2.224
22631W        W95056  21.716   1.901   1.742
22632W        W95057   3.713  26.188   4.650
22633W        W95058  33.082  25.636  13.849
22634W        W95059  23.171  14.184  10.981
22635W        W95060   3.286  26.515   3.648
22636W        W95061  13.215  33.418  12.088
22637W        W95062  44.500   3.846  13.032
22638W        W95063  39.850  40.024  13.504
22639W        W95064   0.879   8.845  14.940
22640W        W95065  10.230  14.231  13.399
22641W        W95066  41.309  37.907   2.309
22642W        W95067  27.579  28.021   2.837
22643W        W95068  28.000   1.356  11.056
22644W        W95069  22.556  14.100   2.885
22645W        W95070   0.382   2.793  11.861
22646W        W95071  28.496  11.222   1.820
22647W        W95072  22.105   6.889  11.912
22648W        W95073  34.995   9.220   3.838
22649W        W95074  20.672  44.468  10.555
22650W        W95075   2.884  42.024  14.308
22651W        W95076   9.736  27.093   1.353
22652W        W95077   8.309  38.530   0.296
22653W        W95078  41.446  26.702  14.851
22654W        W95079  26.118  14.825   4.705
22655W        W95080  10.825  18.568  14.291
22656W        W95081  22.186  39.829  14.472
22657W        W95082  19.261  43.353   2.386
22658W        W95083  33.108  39.402   2.343
22659W        W95084   0.325   8.761  14.477
22660W        W95085  11.157  42.328   1.856
22661W        W95086  14.771  32.513   4.168
22662W        W95087  35.385  16.122  14.299
22663W        W95088  34.947   9.214   3.211
22664W        W95089  31.027  14.802  12.055
22665W        W95090  19.538  38.865   3.311
22666W        W95091  26.662  11.740  14.768
22667W        W95092  26.664  35.416  10.469
22668W        W95093  28.542  13.185   0.273
22669W        W95094  16.152   8.170  13.026
22670W        W95095  42.472  35.462  12.344
22671W        W95096  18.243  36.988  10.916
22672W        W95097  27.527   6.701   1.739
22673W        W95098  29.923   0.440  13.042
22674W        W95099   5.810  30.135   2.665
22675W        W95100  28.998  15.733  12.069
22676W        W95101  30.034  23.009   0.955
22677W        W95102   3.289  39.508   2.333
22678W        W95103  24.664  32.492  14.800
22679W        W95104  13.118  42.994   1.797
22680W        W95105  28.137  19.208  14.276
22681W        W95106   1.815  22.704  12.859
22682W        W95107  34.393  30.103  12.827
22683W        W95108   4.807  22.124  14.897
22684W        W95109   4.824  43.409   1.379
22685W        W95110   7.722  27.649  14.391
22686W        W95111  11.715   5.408   4.245
22687W        W95112   4.399  20.674  14.801
22688W        W95113  13.779  24.181   5.629
22689W        W95114  41.026  38.412  12.021
22690W        W95115  19.077  41.430   2.249
22691W        W95116  42.943  14.657  10.639
22692W        W95117  20.698  19.258  14.916
22693W        W95118  28.480   9.877  14.995
22694W        W95119   8.809  40.919   3.771
22695W        W95120  26.637  27.117  14.390
22696W        W95121  18.662  42.418  11.042
22697W        W95122  35.975  32.115   4.175
22698W        W95123  44.943  30.427   1.275
22699W        W95124  42.958  42.867   2.343
22700W        W95125   8.333  26.018   0.374
22701W        W95126  30.162  35.937   0.872
22702W        W95127  15.148  35.874   0.934
22703W        W95128  16.264  41.794  14.808
22704W        W95129  42.960  20.559   1.701
22705W        W95130   9.725  38.427  12.989
22706W        W95131  18.089  10.303  10.969
22707W        W95132   2.795  18.212  11.007
22708W        W95133  37.917   2.821  12.865
22709W        W95134   8.670  29.024   0.867
22710W        W95135  43.507   0.267  13.977
22711W        W95136  14.230  33.554   2.786
22712W        W95137  18.780  11.628   0.250
22713W        W95138  15.129  35.522  14.504
22714W        W95139  14.107  11.371   4.199
22715W        W95140  19.140  16.777   1.732
22716W        W95141  19.699  33.884   4.158
22717W        W95142   7.859  35.086  11.959
22718W        W95143  36.407  29.168  12.840
22719W        W95144   0.770  12.768  13.835
22720W        W95145  12.705  15.736  12.829
22721W        W95146  43.848  33.024   2.734
22722W        W95147  43.393  39.001   2.332
22723W        W95148  27.949   3.757  11.413
22724W        W95149  12.304  42.456  13.380
22725W        W95150   5.256  44.495   0.844
22726W        W95151   1.357  41.824   1.833
22727W        W95152  16.740  10.833  12.512
22728W        W95153  38.468  18.265  13.366
22729W        W95154  30.580   3.346  13.391
22730W        W95155  19.139  44.465   2.733
22731W        W95156   0.404   3.346   2.352
22732W        W95157  16.267   7.679  12.505
22733W        W95158  31.442   9.730   3.678
22734W        W95159  40.362  43.452  14.848
22735W        W95160  12.726  26.012  14.298
22736W        W95161  35.433  12.766   0.894
22737W        W95162  29.169   3.257   0.777
22738W        W95163   1.902  21.109   2.720
22739W        W95164  18.100  40.045  14.274
22740W        W95165   0.428   3.254  14.883
22741W        W95166  32.108  12.856  11.479
22742W        W95167  39.459  15.218  10.603
22743W        W95168  42.336  30.952   4.312
22744W        W95169   1.791  43.342   5.242
22745W        W95170  16.284  41.457   0.431
22746W        W95171  17.246  29.055  14.936
22747W        W95172  21.532   3.731   3.195
22748W        W95173  27.557  11.294  12.955
22749W        W95174  27.993  18.067   1.774
22750W        W95175  26.080  12.350  14.808
22751W        W95176   3.295  14.807   2.275
22752W        W95177  20.147  41.319   5.313
22753W        W95178   6.896  26.595   3.309
22754W        W95179  25.048  21.549   3.319
22755W        W95180  12.829  15.151  10.629
22756W        W95181  26.059  38.894  10.957
22757W        W95182  15.197  12.772   3.188
22758W        W95183  39.873  15.123   3.860
22759W        W95184  40.512  37.931  13.837
22760W        W95185  42.289  30.095  11.112
22761W        W95186  36.029   1.746   1.918
22762W        W95187  28.182  16.626  13.545
22763W        W95188  23.098  10.665   1.334
22764W        W95189  14.797  30.018   3.178
22765W        W95190  36.936  38.055  11.523
22766W        W95191   7.263   4.207   1.368
22767W        W95192   0.262  17.169   2.662
22768W        W95193  13.340  34.484  14.852
22769W        W95194  18.128  17.194  14.895
22770W        W95195  23.599   0.387  11.062
22771W        W95196  27.636  42.453   0.401
22772W        W95197  22.185  26.628   0.919
22773W        W95198  41.806   1.457  12.506
22774W        W95199  34.506   1.429  12.506
22775W        W95200  18.260  13.663   1.872
22776W        W95201   3.394   6.797   4.341
22777W        W95202  12.777  38.982  12.445
22778W        W95203  12.639  21.665   5.710
22779W        W95204  21.216  22.620  11.937
22780W        W95205  35.063  22.511   1.798
22781W        W95206  29.551  34.110   2.274
22782W        W95207   6.186  29.955   4.301
22783W        W95208  30.518  12.700  10.471
22784W        W95209  28.526  39.936   3.763
22785W        W95210  25.999  28.957   3.675
22786W        W95211   5.393   1.279   1.413
22787W        W95212  35.102  35.922   2.758
22788W        W95213  36.884  11.703   2.195
22789W        W95214  41.988  29.046  12.010
22790W        W95215  29.159   1.762   1.930
22791W        W95216   4.344  28.105   0.789
22792W        W95217  31.468   4.329  14.391
22793W        W95218  39.950  18.268  12.949
22794W        W95219  38.977  23.202  10.055
22795W        W95220  27.038  35.548   0.367
22796W        W95221  42.918  27.175   4.276
22797W        W95222  30.552  24.155  11.011
22798W        W95223   9.211  12.682   4.796
22799W        W95224   5.218  27.665   1.368
22800W        W95225  35.488  17.174   4.815
22801W        W95226  38.855  16.122   2.747
22802W        W95227  37.496  27.080   1.365
22803W        W95228  44.854   3.326   4.705
22804W        W95229  31.637   5.237   3.848
22805W        W95230   2.419  16.318  14.930
22806W        W95231   3.248  18.655  14.399
22807W        W95232   7.895  14.248  12.474
22808W        W95233  18.704   5.759   4.839
22809W        W95234  15.116   5.827  13.034
22810W        W95235  20.173  25.519  11.004
22811W        W95236  16.236  32.460   0.884
22812W        W95237  44.905  40.834  14.367
22813W        W95238  37.046  19.069   3.817
22814W        W95239  26.193  23.997  12.824
22815W        W95240  21.028   1.976  10.032
22816W        W95241  26.560  20.160   2.187
22817W        W95242  35.433   4.260  10.998
22818W        W95243  14.249  27.976  12.344
22819W        W95244  36.440  40.392  11.913
22820W        W95245  37.370  25.094   2.200
22821W        W95246  30.055  31.577  13.491
22822W        W95247  36.572  34.909   0.839
22823W        W95248   3.812  38.945   1.259
22824W        W95249  25.488  15.308  10.933
22825W        W95250  17.187  12.166   2.403
22826W        W95251  13.158  23.594   1.762
22827W        W95252   9.298  19.547   2.751
22828W        W95253  25.131  33.477  14.496
22829W        W95254  17.563  15.087  13.814
22830W        W95255   0.766  27.567   0.331
22831W        W95256  43.893  25.641  13.517
22832W        W95257  43.975  28.077   4.313
22833W        W95258   2.247  30.452  12.529
22834W        W95259  41.853   9.881  11.521
22835W        W95260  28.155  29.071   4.732
22836W        W95261   2.335  35.099  13.902
22837W        W95262  25.062  36.078  13.801
22838W        W95263  13.672  43.355   2.347
22839W        W95264  44.399  39.018  12.410
22840W        W95265  42.345  16.303  10.451
22841W        W95266  10.367  12.695   1.291
22842W        W95267  13.693   5.847   1.268
22843W        W95268  22.115  15.675   4.329
22844W        W95269  10.638   7.901  11.412
22845W        W95270   0.488  36.855  13.997
22846W        W95271  13.126  38.870   4.333
22847W        W95272  26.583  33.462   9.963
22848W        W95273  15.776  26.513   2.798
22849W        W95274  17.103  24.724   1.344
22850W        W95275  37.921  34.085   2.398
22851W        W95276   9.879  14.126   1.742
22852W        W95277  37.932  36.061  13.967
22853W        W95278  38.557  37.896   2.811
22854W        W95279   0.882  42.418  11.609
22855W        W95280   3.721  10.219   1.697
22856W        W95281   8.842  14.136  12.448
22857W        W95282  10.732   5.875  14.899
22858W        W95283  12.147  29.958   3.152
22859W        W95284  22.185   3.843  12.006
22860W        W95285   8.676  14.145  12.970
22861W        W95286  29.047  41.833  13.994
22862W        W95287  31.462  34.510  13.951
22863W        W95288  43.871  19.737  14.384
22864W        W95289   3.361  33.624  12.836
22865W        W95290  26.057  44.487  10.584
22866W        W95291  23.622  31.006   5.101
22867W        W95292  33.481  17.215   1.770
22868W        W95293  37.439  18.731   1.878
22869W        W95294   2.372  24.105   1.244
22870W        W95295   1.865  39.052   1.745
22871W        W95296  28.521  17.654  11.501
22872W        W95297  22.694  19.127  14.427
22873W        W95298  24.645  30.915   4.787
22874W        W95299  29.617   6.750   3.353
22875W        W95300  22.190  22.138   3.750
22876W        W95301  26.636   3.253   2.806
22877W        W95302  13.630   9.677   3.850
22878W        W95303  39.547  43.843   0.477
22879W        W95304  27.946  14.613   4.348
22880W        W95305  13.214  29.146   1.332
22881W        W95306  41.841  25.976   4.665
22882W        W95307  10.688  10.681  13.351
22883W        W95308   2.854  31.638  13.000
22884W        W95309  36.938  23.223  12.906
22885W        W95310  34.942   2.956  10.474
22886W        W95311   3.219  15.630   1.284
22887W        W95312   7.212   1.943   0.945
22888W        W95313  34.055   6.894  14.386
22889W        W95314  14.644  26.163   4.731
22890W        W95315  14.698  35.408   2.210
22891W        W95316   5.841  13.765  14.016
22892W        W95317  19.044  13.629   4.666
22893W        W95318  20.670  23.691   3.350
22894W        W95319  12.842  29.453  14.945
22895W        W95320  28.657   3.355   4.718
22896W        W95321  40.985  16.643   3.682
22897W        W95322   8.675  44.502  11.519
22898W        W95323   9.733   4.382   4.632
22899W        W95324   7.296   1.868   3.259
22900W        W95325   1.431   7.803  13.054
22901W        W95326   0.455  34.955   2.786
22902W        W95327  31.961  22.052  10.004
22903W        W95328  41.034  21.169  12.948
22904W        W95329   8.259  14.781   4.745
22905W        W95330  43.779  28.980  14.414
22906W        W95331  43.861  20.198  13.855
22907W        W95332  10.772  12.742  14.335
22908W        W95333  36.987  25.547   1.709
22909W        W95334  13.711  16.620   1.934
22910W        W95335  24.131  34.391  12.511
22911W        W95336  32.471  28.573   2.703
22912W        W95337  36.977  16.688   2.746
22913W        W95338  33.088  38.034   4.184
22914W        W95339  13.667  37.938  14.466
22915W        W95340   5.791  13.824  13.024
22916W        W95341   4.888  25.656   1.288
22917W        W95342   3.726  39.041  13.891
22918W        W95343   1.354   5.768   4.319
22919W        W95344  26.951  29.981   5.773
22920W        W95345  39.971  12.308  13.320
22921W        W95346  39.361  37.978  11.022
22922W        W95347  26.057  34.987   0.351
22923W        W95348  37.846  35.898   0.959
22924W        W95349  25.707  12.309  14.471
22925W        W95350  43.957   2.341   2.289
22926W        W95351  19.556   3.916  14.470
22927W        W95352   4.292  17.162  11.993
22928W        W95353   3.304   2.429   0.312
22929W        W95354  17.277  31.128  12.537
22930W        W95355  32.590   0.489  10.982
22931W        W95356  10.183  19.184  11.580
22932W        W95357  13.200  20.616   4.264
22933W        W95358  42.963  15.084   2.705
22934W        W95359   0.786   4.704   1.860
22935W        W95360  44.337  32.006  12.396
22936W        W95361  12.840  22.502  12.503
22937W        W95362   0.967   8.160  13.380
22938W        W95363   6.677  34.024   2.732
22939W        W95364  43.443   7.895   2.200
22940W        W95365  23.149  30.037   0.466
22941W        W95366  12.740   1.443   4.710
22942W        W95367  15.199   6.419   0.758
22943W        W95368  16.661  26.644   0.753
22944W        W95369  38.363  18.293  12.872
22945W        W95370   2.231  15.609   5.262
22946W        W95371   1.766  41.417  13.945
22947W        W95372  31.102  29.035   4.626
22948W        W95373  40.485  28.956   3.774
22949W        W95374  15.315  10.784  11.127
22950W        W95375   0.381  17.757  14.425
22951W        W95376  10.285  38.040  12.081
22952W        W95377  22.240  23.014   2.783
22953W        W95378  24.030  41.021   4.683
22954W        W95379  17.663  35.597   2.878
22955W        W95380  20.604  26.208   3.820
22956W        W95381  24.010  18.777   2.803
22957W        W95382  34.512  31.899   4.621
22958W        W95383  31.479  43.451  14.436
22959W        W95384  35.860  19.266   1.916
22960W        W95385  18.217  21.210   4.343
22961W        W95386  23.583  43.010   3.812
22962W        W95387  41.860   9.378   1.261
22963W        W95388  12.301  11.657   1.763
22964W        W95389   5.300   5.772   2.413
22965W        W95390  38.909  15.312  14.855
22966W        W95391  17.104  31.473  13.991
22967W        W95392   9.689  18.691   3.812
22968W        W95393   4.211  37.838  10.990
22969W        W95394  20.746   6.329  10.574
22970W        W95395  30.970  26.987  11.068
22971W        W95396  19.712  31.932   3.854
22972W        W95397   3.913  27.010   4.138
22973W        W95398  24.597   7.676  12.480
22974W        W95399  31.916   4.910   4.702
22975W        W95400  16.077  37.346  13.467
22976W        W95401  25.621   1.780   0.883
22977W        W95402  40.307  44.288  11.989
22978W        W95403  26.658   3.721  14.021
22979W        W95404  24.619  14.824  12.945
22980W        W95405  22.572  30.157  14.363
22981W        W95406  15.323  21.646  14.946
22982W        W95407  37.448  10.682  13.916
22983W        W95408  37.481  16.266  11.957
22984W        W95409  16.229  42.382  13.456
22985W        W95410  30.128   1.317   0.292
22986W        W95411  43.769  35.585  13.044
22987W        W95412  34.107  43.286   2.848
22988W        W95413  22.526  10.301   3.280
22989W        W95414   7.262  21.681   2.789
22990W        W95415  41.433   8.657  10.972
22991W        W95416  34.983  21.617   0.775
22992W        W95417  26.171  19.543   1.916
22993W        W95418  27.618  28.097   2.356
22994W        W95419  38.947   3.444   3.375
22995W        W95420  19.694   8.307   4.186
22996W        W95421   8.806  30.521   0.285
22997W        W95422  25.622  31.972   0.390
22998W        W95423  33.889  20.755   4.216
22999W        W95424  15.134   4.883   2.703
23000W        W95425   4.908  42.333  13.548
23001W        W95426  41.956  37.455   2.416
23002W        W95427  26.686  36.530   2.415
23003W        W95428  38.070  26.614   4.333
23004W        W95429  44.348   6.265  13.857
23005W        W95430  41.379  31.512   3.203
23006W        W95431   2.373  18.123   0.306
23007W        W95432  37.352   6.702   0.962
23008W        W95433  43.441   5.243   1.877
23009W        W95434  29.477  42.831  13.975
23010W        W95435  23.085  30.930   0.745
23011W        W95436  19.775   3.228   4.733
23012W        W95437  26.970  39.492   0.287
23013W        W95438  36.061   5.266  11.484
23014W        W95439   4.220  12.223  11.534
23015W        W95440  36.526  42.481  11.914
23016W        W95441  30.961  39.898   5.762
23017W        W95442  33.609   3.751  12.383
23018W        W95443  21.218  11.641  14.448
23019W        W95444  39.392  21.717   0.437
23020W        W95445  43.882  43.290  12.977
23021W        W95446  29.932  19.170  12.858
23022W        W95447  41.368  19.203   2.217
23023W        W95448  28.063  35.876  10.081
23024W        W95449  27.993  24.607  12.858
23025W        W95450   1.309  28.103   3.639
23026W        W95451  22.242   9.758  13.371
23027W        W95452  27.521   3.729  12.563
23028W        W95453   3.350   6.320   4.116
23029W        W95454  11.150  28.935  14.366
23030W        W95455  39.553  24.649  12.339
23031W        W95456   1.319   7.402   3.245
23032W        W95457  22.592  15.185   1.820
23033W        W95458  12.346  13.332   4.239
23034W        W95459  38.000  13.733   2.866
23035W        W95460  13.200  19.658  13.046
23036W        W95461  38.877  31.078  11.561
23037W        W95462  18.108  17.717  13.345
23038W        W95463  22.568  42.361  13.837
23039W        W95464   0.951  40.929  12.923
23040W        W95465   3.792  27.640   2.280
23041W        W95466  38.361  32.446   2.708
23042W        W95467  22.157   8.190  11.051
23043W        W95468  12.796  25.517  13.015
23044W        W95469  43.429  31.914  11.542
23045W        W95470   0.814  29.583  14.930
23046W        W95471   2.745  36.519   2.751
23047W        W95472  15.729   7.837   2.830
23048W        W95473  19.772  30.465  12.949
23049W        W95474  34.401   4.850   1.218
23050W        W95475  43.885   7.791   0.482
23051W        W95476   7.780   0.296  12.924
23052W        W95477   0.481  40.509   1.354
23053W        W95478   5.825  42.876   3.201
23054W        W95479  29.438  43.017  11.104
23055W        W95480  23.492  20.578  12.900
23056W        W95481   3.346  14.198   4.722
23057W        W95482  41.489  26.646   2.291
23058W        W95483  44.988  10.832   1.296
23059W        W95484  29.487  29.491  14.960
23060W        W95485  17.773  16.712  10.906
23061W        W95486  31.974  11.812   1.907
23062W        W95487  41.798   4.897   0.399
23063W        W95488  29.639  19.714   0.907
23064W        W95489  14.295  16.621  14.839
23065W        W95490   4.286  22.647  10.982
23066W        W95491  31.141  10.325   4.211
23067W        W95492  34.084  37.521   3.820
23068W        W95493  28.934  32.604  14.357
23069W        W95494  20.106  43.949   4.312
23070W        W95495  39.963  18.231  13.907
23071W        W95496  36.843  19.176   3.370
23072W        W95497  32.103  18.160   0.806
23073W        W95498   4.810  42.929   0.791
23074W        W95499  44.757  41.440   0.334
23075W        W95500  31.438   5.363   1.255
23076W        W95501  18.636   8.248  10.432
23077W        W95502   5.795  27.162   1.899
23078W        W95503   7.346  35.914   1.344
23079W        W95504   7.327  28.472   3.647
23080W        W95505  34.472  23.563  10.637
23081W        W95506   8.372  23.667   3.791
23082W        W95507  31.563  12.185   0.296
23083W        W95508  39.406  35.048   0.754
23084W        W95509  40.358  18.712   1.310
23085W        W95510   0.450  42.361   3.387
23086W        W95511   8.876  12.637   0.468
23087W        W95512  35.855  34.867  14.365
23088W        W95513  35.885  36.432  11.053
23089W        W95514   1.865  25.495  10.604
23090W        W95515  41.900  14.337   2.867
23091W        W95516  36.348  25.482  14.815
23092W        W95517   9.304  30.155   0.478
23093W        W95518   0.296  27.528  10.631
23094W        W95519  29.558  20.760   2.695
23095W        W95520   4.267   7.679  14.498
23096W        W95521  24.646  20.183  12.928
23097W        W95522  14.774  38.948  14.847
23098W        W95523   1.273  38.910   1.291
23099W        W95524  10.818   9.678  14.980
23100W        W95525  36.509  29.490  14.480
23101W        W95526  41.385  37.510   4.333
23102W        W95527  26.519  31.972  13.001
23103W        W95528   5.829  17.774   2.335
23104W        W95529   1.927   9.777  13.958
23105W        W95530  24.488  34.052   2.869
23106W        W95531  14.598  43.880  12.895
23107W        W95532  25.496  35.935   4.638
23108W        W95533  10.667  29.141  12.563
23109W        W95534  23.154  40.958   4.120
23110W        W95535  35.565  23.045  12.926
23111W        W95536  30.101  36.938  13.972
23112W        W95537  39.462  39.413   1.734
23113W        W95538   1.452   1.275   0.900
23114W        W95539  10.227   5.752   2.385
23115W        W95540  16.652  41.964   2.288
23116W        W95541  18.267  22.734   3.183
23117W        W95542  16.742  40.489   3.776
23118W        W95543   7.393  42.032  12.999
23119W        W95544  36.980  35.476   0.355
23120W        W95545  27.528  19.672  11.591
23121W        W95546  16.319  26.185   3.717
23122W        W95547  11.782  30.621  14.435
23123W        W95548  23.673  22.132  12.544
23124W        W95549   3.247  42.325  10.504
23125W        W95550  16.110  22.704   4.185
23126W        W95551   8.741  44.281   2.853
23127W        W95552  10.251  42.429   1.717
23128W        W95553  20.221  28.119  13.803
23129W        W95554  19.720  40.822  12.037
23130W        W95555  42.374  26.485   1.249
23131W        W95556  16.242  39.033  11.955
23132W        W95557   2.766  23.107   2.903
23133W        W95558   2.739  22.120   1.747
23134W        W95559  44.311  30.983  12.005
23135W        W95560  42.806  37.840  12.464
23136W        W95561  20.747   3.398   0.825
23137W        W95562  43.961  13.656   3.306
23138W        W95563   2.236  36.398  12.991
23139W        W95564  40.456  18.784  13.895
23140W        W95565   0.883  38.364  14.381
23141W        W95566   2.442  30.487   2.233
23142W        W95567   7.692  33.456   1.861
23143W        W95568  41.416  21.707  14.874
23144W        W95569  19.180  36.005   2.214
23145W        W95570  30.648  21.535   9.611
23146W        W95571  10.239  11.326  12.354
23147W        W95572  15.147  19.629   3.834
23148W        W95573  30.462  10.650  14.407
23149W        W95574  15.805   0.282   3.851
23150W        W95575  25.567   7.694   5.221
23151W        W95576  15.639   1.319   2.761
23152W        W95577  34.945   8.384  10.083
23153W        W95578  17.612   0.338   4.824
23154W        W95579  39.953  36.561  11.012
23155W        W95580   5.222  32.036   4.220
23156W        W95581  16.144  44.318   0.785
23157W        W95582  25.055  31.095  13.420
23158W        W95583  43.386  42.860   0.452
23159W        W95584   8.391  13.794  12.577
23160W        W95585  32.126  34.945  14.983
23161W        W95586  29.923   8.707   3.667
23162W        W95587  43.304   8.835   5.293
23163W        W95588  10.206  11.280   1.732
23164W        W95589  33.882  16.278  13.309
23165W        W95590  39.851  19.270  13.360
23166W        W95591  40.500  42.428   3.662
23167W        W95592  28.052   0.894  11.397
23168W        W95593  10.825   3.443  14.840
23169W        W95594  28.620  40.497   2.397
23170W        W95595  28.571  24.662  14.020
23171W        W95596  39.394   4.802   1.212
23172W        W95597  12.256  36.575  11.461
23173W        W95598  22.519  10.672  12.029
23174W        W95599  27.004  19.265   4.803
23175W        W95600   1.431   3.307   0.943
23176W        W95601  40.528  44.775   0.879
23177W        W95602   3.733  41.851   4.712
23178W        W95603  33.970  41.836  11.514
23179W        W95604  31.903  20.272   4.744
23180W        W95605  28.511   7.367  11.523
23181W        W95606   9.202  18.245  14.023
23182W        W95607  25.006  14.730  10.447
23183W        W95608  30.507  29.444  10.617
23184W        W95609  13.725  42.512   4.315
23185W        W95610  32.992   2.252  13.062
23186W        W95611   2.915  10.708  10.548
23187W        W95612  15.788   6.321   5.207
23188W        W95613   2.472  14.650   2.667
23189W        W95614  43.793   2.809  14.398
23190W        W95615  19.196  43.017   3.167
23191W        W95616  36.867   3.855  10.921
23192W        W95617   1.457  36.937   3.244
23193W        W95618  21.161  31.411  11.521
23194W        W95619  32.533  32.442  11.503
23195W        W95620  41.813  39.904  12.486
23196W        W95621  40.469  13.774   4.723
23197W        W95622  16.169   6.236  10.472
23198W        W95623  22.196  11.369  12.501
23199W        W95624  43.872  20.132  13.332
23200W        W95625  43.956  30.106  12.981
23201W        W95626  41.893  42.519  11.553
23202W        W95627  27.185  29.485  13.476
23203W        W95628  23.591  11.197  11.872
23204W        W95629  30.547  12.756  13.858
23205W        W95630  31.152  13.193   9.968
23206W        W95631  28.086  40.927   5.733
23207W        W95632  35.945  37.468  12.422
23208W        W95633  36.412  26.484  14.926
23209W        W95634  17.185   6.354  14.472
23210W        W95635  22.242  27.606  13.438
23211W        W95636  34.105   2.335  12.366
23212W        W95637  30.506  16.646   2.311
23213W        W95638  32.606  14.158   5.177
23214W        W95639  10.151   8.838   1.433
23215W        W95640  12.641  28.154   0.813
23216W        W95641  20.099  38.829  12.461
23217W        W95642  20.137   0.901   4.173
23218W        W95643  42.422  17.106  11.093
23219W        W95644  39.881  29.456  13.336
23220W        W95645  40.806  11.848  10.982
23221W        W95646  15.324  24.517   2.871
23222W        W95647   2.303   8.761  11.477
23223W        W95648  43.808  27.077   3.350
23224W        W95649  33.393   1.424  12.434
23225W        W95650   6.217  22.536   1.922
23226W        W95651  28.568  27.506   3.263
23227W        W95652  38.853  44.384   4.266
23228W        W95653  42.481  11.688  13.877
23229W        W95654  41.321   0.463   1.233
23230W        W95655  29.053  38.925   5.286
23231W        W95656  22.740  18.650  14.372
23232W        W95657  26.552  34.031  14.801
23233W        W95658  32.894  16.315  14.372
23234W        W95659  42.394  31.140   2.379
23235W        W95660  29.999  32.480   3.694
23236W        W95661  17.785  11.810   3.769
23237W        W95662  26.130  23.008   1.806
23238W        W95663  22.020  18.287   1.914
23239W        W95664  15.115  44.381  11.098
23240W        W95665   4.805  27.073   1.351
23241W        W95666  21.087   2.232  13.378
23242W        W95667  29.143  19.658  11.448
23243W        W95668  29.477   4.378   1.726
23244W        W95669  19.673   7.762  11.533
23245W        W95670  38.887   5.750   2.373
23246W        W95671  12.762   1.850  10.071
23247W        W95672  34.496  37.392   1.213
23248W        W95673  28.138  27.154  14.291
23249W        W95674  32.948   4.393  10.902
23250W        W95675  40.522  16.617  13.375
23251W        W95676  19.665  29.610  10.457
23252W        W95677   2.245  41.010   3.278
23253W        W95678  22.641   8.751   0.883
23254W        W95679  17.087  37.385  10.451
23255W        W95680  28.026  36.880   2.333
23256W        W95681   3.362  17.095   3.249
23257W        W95682  38.399  27.972  13.455
23258W        W95683  41.938  28.672  13.816
23259W        W95684  40.823  25.213   2.303
23260W        W95685  44.494   5.246  12.069
23261W        W95686  40.818  21.164  14.884
23262W        W95687  42.360  29.951  11.529
23263W        W95688   3.954  16.109   4.672
23264W        W95689  12.819  22.035  13.002
23265W        W95690  36.556  26.688   2.886
23266W        W95691  34.044  21.259   2.735
23267W        W95692  25.212  33.455  10.445
23268W        W95693  20.066  14.747  13.954
23269W        W95694  35.568  10.873   4.191
23270W        W95695  25.677  38.024   2.293
23271W        W95696   3.780   6.366  11.006
23272W        W95697  29.481  16.214  12.528
23273W        W95698  19.085  16.190  13.510
23274W        W95699  10.672   1.785   3.863
23275W        W95700  23.032  25.061   2.715
23276W        W95701  39.523  27.049  11.982
23277W        W95702  12.680  11.333   0.447
23278W        W95703  33.033   1.931   0.830
23279W        W95704  11.243  16.140  12.370
23280W        W95705  39.035  25.000  11.423
23281W        W95706  35.880   0.432   0.248
23282W        W95707   1.473  31.648  11.422
23283W        W95708  16.306  26.188  14.852
23284W        W95709  34.108   9.177   1.373
23285W        W95710  15.159   5.391   2.260
23286W        W95711  26.461  25.609  10.526
23287W        W95712  30.616  18.583  11.389
23288W        W95713  43.911   7.364  14.283
23289W        W95714  30.506  25.652  12.905
23290W        W95715   7.225  38.992  11.905
23291W        W95716  27.962  21.203  10.577
23292W        W95717  30.569  43.303   4.617
23293W        W95718  31.546  43.363   0.890
23294W        W95719  25.689   6.270  13.469
23295W        W95720  42.434  23.153  13.888
23296W        W95721  41.459  30.049  10.458
23297W        W95722   6.696  27.558  12.861
23298W        W95723   4.394  13.329   1.214
23299W        W95724  20.129  14.325  13.501
23300W        W95725   4.302  29.649   4.238
23301W        W95726  27.674   3.387   0.465
23302W        W95727   3.832  26.482  10.119
23303W        W95728  16.286   1.966   3.776
23304W        W95729  19.621  10.746   1.226
23305W        W95730  36.968  24.031  11.490
23306W        W95731   9.160  38.075   1.728
23307W        W95732  24.084  30.418  10.892
23308W        W95733  32.098  31.908  10.941
23309W        W95734   6.787  35.926  10.641
23310W        W95735   5.273  10.765   1.694
23311W        W95736  40.316  17.766   0.931
23312W        W95737  18.121  38.857   4.214
23313W        W95738  28.446  28.932   1.387
23314W        W95739   5.928  30.972  11.904
23315W        W95740  29.614  25.063   0.369
23316W        W95741  16.181  17.099   3.192
23317W        W95742  22.035  42.796   1.934
23318W        W95743   4.411  15.280  14.821
23319W        W95744  17.238  14.641   0.924
23320W        W95745  42.344  22.998   1.226
23321W        W95746   6.230  12.791   3.752
23322W        W95747  12.801  29.534   1.288
23323W        W95748  20.672   6.235  12.511
23324W        W95749  34.519   7.704  11.890
23325W        W95750  16.286  31.014   3.854
23326W        W95751  43.498   0.965  11.383
23327W        W95752  27.655  31.004   0.853
23328W        W95753  25.033  19.206   2.884
23329W        W95754  17.140  25.517  11.969
23330W        W95755  11.152  40.906   4.743
23331W        W95756  16.672  24.066   2.753
23332W        W95757  26.694  23.209  13.858
23333W        W95758  35.868  20.088  14.463
23334W        W95759  15.776   9.688  11.445
23335W        W95760  39.408  42.900  10.416
23336W        W95761  24.008  26.066   3.790
23337W        W95762  26.130  43.935   2.193
23338W        W95763  39.555   0.911  13.890
23339W        W95764  31.125  15.753  11.990
23340W        W95765  40.529   4.752  12.470
23341W        W95766  24.555  34.426   1.288
23342W        W95767  26.676  16.179   1.839
23343W        W95768  17.738   6.194   0.956
23344W        W95769  30.064  30.418   3.838
23345W        W95770   2.770  13.797   1.286
23346W        W95771  34.591  42.301   0.361
23347W        W95772  24.194  33.115  12.959
23348W        W95773  15.584  37.886  14.351
23349W        W95774  29.434  23.060   0.945
23350W        W95775  43.876  26.952  14.482
23351W        W95776  41.435  26.097   2.390
23352W        W95777  36.946  23.613   0.292
23353W        W95778  22.733  24.164   2.877
23354W        W95779  38.461  13.190  12.507
23355W        W95780   4.918  21.724  11.448
23356W        W95781  17.174  35.879  13.056
23357W        W95782   1.828  15.702  14.997
23358W        W95783  36.478   9.199   5.594
23359W        W95784  37.495  21.032  14.376
23360W        W95785   2.849   7.285  14.873
23361W        W95786  39.895  30.008  14.329
23362W        W95787  41.485  18.165  14.926
23363W        W95788  26.079  32.068  13.312
23364W        W95789  10.325  40.861   4.193
23365W        W95790   3.837  40.414   0.281
23366W        W95791  26.171  34.451   4.157
23367W        W95792   8.335  27.031   2.779
23368W        W95793   7.254   7.320   3.730
23369W        W95794  43.358   1.248  13.916
23370W        W95795  34.461  39.059  10.433
23371W        W95796  41.407  26.556  12.449
23372W        W95797  40.487  21.544  14.020
23373W        W95798   3.780  25.525   1.358
23374W        W95799  35.032  30.659  12.430
23375W        W95800  35.394   4.943  12.497
23376W        W95801  12.308  32.107  12.829
23377W        W95802  14.304   3.807  11.499
23378W        W95803  16.717  16.290   0.243
23379W        W95804  18.184  36.093  14.988
23380W        W95805  39.512  16.650   1.355
23381W        W95806   9.654  12.809   4.168
23382W        W95807  16.630  34.571  14.772
23383W        W95808  31.606  34.003  12.388
23384W        W95809   8.891  38.065   4.723
23385W        W95810   3.407  19.722  12.968
23386W        W95811   3.867  24.666  10.535
23387W        W95812  13.771  40.798  11.864
23388W        W95813  26.652  13.339   0.320
23389W        W95814  16.642  30.088  11.985
23390W        W95815  41.831  29.548  12.890
23391W        W95816  32.423  22.197  14.342
23392W        W95817  20.222   0.837  13.396
23393W        W95818   4.746  42.411  11.398
23394W        W95819  12.161  37.579   3.357
23395W        W95820  33.018  43.452   0.354
23396W        W95821  26.073   6.316   4.244
23397W        W95822   1.237  16.787  12.949
23398W        W95823  44.865  25.211   3.870
23399W        W95824  20.042   1.927   1.753
23400W        W95825   8.795   2.350   5.112
23401W        W95826   2.378   1.352  11.116
23402W        W95827  37.079   2.773   0.300
23403W        W95828  44.766  35.414  14.421
23404W        W95829  23.218   3.797  12.519
23405W        W95830  40.494  37.068   1.253
23406W        W95831  10.804   0.883  11.501
23407W        W95832  37.916  15.303  12.411
23408W        W95833  27.551  23.231  13.830
23409W        W95834  14.752  11.763  12.069
23410W        W95835  27.688   4.751   3.650
23411W        W95836  19.134  12.628   1.370
23412W        W95837  37.909  38.065   2.209
23413W        W95838  33.876  18.288   0.375
23414W        W95839  30.056  14.125   2.688
23415W        W95840  31.505  29.176   1.859
23416W        W95841  27.155  14.108  12.528
23417W        W95842  31.517  25.038   3.385
23418W        W95843  39.430   9.260   0.250
23419W        W95844  12.723  28.624   3.318
23420W        W95845  42.937  18.714  11.005
23421W        W95846  15.287   8.239  14.320
23422W        W95847  38.526  37.571  13.455
23423W        W95848  12.285  15.295   0.434
23424W        W95849  29.558  20.547   5.619
23425W        W95850  33.043  27.527   0.927
23426W        W95851  21.656  38.550  12.502
23427W        W95852  14.217  34.037   2.248
23428W        W95853  15.630  30.039  11.021
23429W        W95854   1.835  17.224  14.458
23430W        W95855  38.366  35.501  13.846
23431W        W95856   9.648   4.840   1.428
23432W        W95857   1.764  30.584   3.357
23433W        W95858   5.341  43.795  14.476
23434W        W95859  11.145  19.043   4.193
23435W        W95860  17.133  22.167   2.727
23436W        W95861  32.130  21.168   1.430
23437W        W95862  37.386   8.302  14.959
23438W        W95863  26.518  44.780  10.928
23439W        W95864  36.566  26.117   3.213
23440W        W95865   8.848   8.670  11.585
23441W        W95866  33.475  16.808  13.925
23442W        W95867   6.781  14.730  11.879
23443W        W95868  42.028  41.504  14.324
23444W        W95869  20.184  38.411   2.747
23445W        W95870   1.458  28.936  13.866
23446W        W95871  35.074  12.841  10.490
23447W        W95872  19.616  41.922  12.853
23448W        W95873   6.822  44.368   3.857
23449W        W95874  34.401   2.747   0.905
23450W        W95875  41.455  33.535  14.400
23451W        W95876   2.256  27.477  13.018
23452W        W95877   9.293  32.443   1.792
23453W        W95878  32.407   8.820   1.399
23454W        W95879  36.011  42.016  10.559
23455W        W95880  38.418  31.944   0.273
23456W        W95881  30.007   1.342   2.372
23457W        W95882  13.794  27.579  12.881
23458W        W95883   6.425  31.071  13.977
23459W        W95884  14.221  24.187   9.482
23460W        W95885  21.143   8.752  10.055
23461W        W95886  20.183  13.306   0.407
23462W        W95887  11.795  35.102   9.980
23463W        W95888  27.491  23.658  10.526
23464W        W95889  39.374   5.224   4.282
23465W        W95890  23.662  13.316  14.345
23466W        W95891  12.169  20.679  12.834
23467W        W95892   1.803  19.765   4.177
23468W        W95893  38.382  34.901   0.803
23469W        W95894  17.257   9.643   4.634
23470W        W95895  18.593   1.930   0.744
23471W        W95896  25.106   3.935   2.860
23472W        W95897  36.449   0.255   4.145
23473W        W95898  33.121  25.004   1.256
23474W        W95899  27.453  41.037   1.306
23475W        W95900  15.726  20.038  12.362
23476W        W95901  31.486  23.729   9.937
23477W        W95902   7.706  15.741   2.870
23478W        W95903  20.610  40.037  12.875
23479W        W95904  28.073  29.156  11.937
23480W        W95905   7.205  34.492   3.359
23481W        W95906   8.312  32.531  14.938
23482W        W95907  12.855  12.190  10.994
23483W        W95908  34.925  40.528  11.539
23484W        W95909  32.073  23.082  14.913
23485W        W95910   3.359  20.267   0.872
23486W        W95911   9.299  24.634  14.478
23487W        W95912  31.148  28.656   1.243
23488W        W95913  12.165  11.327  12.017
23489W        W95914  43.360   0.362   2.188
23490W        W95915   7.238  11.310   4.762
23491W        W95916   9.212  39.368  14.374
23492W        W95917   4.257  35.509  13.473
23493W        W95918  38.564   9.653  10.451
23494W        W95919  18.788  12.703   4.672
23495W        W95920   8.306  19.725   2.230
23496W        W95921  12.775  13.758   1.300
23497W        W95922  35.993  35.081  13.924
23498W        W95923  16.212  12.813   0.899
23499W        W95924  20.702  20.265  10.493
23500W        W95925  38.876  24.637   1.758
23501W        W95926  44.493  39.436   1.925
23502W        W95927   5.431  20.133  13.308
23503W        W95928  42.427  39.451  11.071
23504W        W95929  38.892   0.778   1.245
23505W        W95930  44.342  36.437   1.296
23506W        W95931  11.334  27.027  12.447
23507W        W95932  21.625  27.076  14.417
23508W        W95933  38.856   1.799   1.721
23509W        W95934  38.425   9.760   1.433
23510W        W95935   3.332   3.363   1.715
23511W        W95936  37.018   0.257  12.362
23512W        W95937  15.803   6.247  11.117
23513W        W95938  16.686  33.450  10.460
23514W        W95939   0.279  30.985  10.429
23515W        W95940  29.570  12.216  13.017
23516W        W95941  21.090  10.821  13.485
23517W        W95942  18.631  10.744  10.937
23518W        W95943  11.369  12.327   4.771
23519W        W95944  16.771  39.458   2.677
23520W        W95945  39.343   8.872   4.294
23521W        W95946   1.438  14.709  14.894
23522W        W95947  39.500  11.279   0.952
23523W        W95948  42.958  19.268   4.348
23524W        W95949  20.235  42.399  14.818
23525W        W95950   0.351  20.132  11.450
23526W        W95951   8.381  35.012   0.364
23527W        W95952  37.531  39.412  12.826
23528W        W95953  43.306  15.583   4.291
23529W        W95954   9.237  34.991  11.490
23530W        W95955  33.877  10.839  13.942
23531W        W95956  42.435   6.742  10.473
23532W        W95957  27.076   0.966   2.865
23533W        W95958   4.308  32.944  11.601
23534W        W95959  29.000  24.169   3.669
23535W        W95960  12.643  23.086  12.057
23536W        W95961  13.143  16.092  14.896
23537W        W95962  39.887  35.532  11.863
23538W        W95963  25.167   2.827  12.472
23539W        W95964   7.325  15.651   0.747
23540W        W95965  27.086  14.127  11.449
23541W        W95966  41.460  27.575   3.691
23542W        W95967  42.440  14.664  11.554
23543W        W95968  26.685   9.371  11.111
23544W        W95969  27.058  22.029   4.172
23545W        W95970  29.580  13.734  11.603
23546W        W95971  24.002  33.413  12.471
23547W        W95972  10.220  16.251   4.128
23548W        W95973  42.352   8.344   1.230
23549W        W95974  43.801  20.195  10.516
23550W        W95975  19.617  34.492  11.444
23551W        W95976   5.427   3.267  11.532
23552W        W95977   6.345  15.262   1.712
23553W        W95978  23.642  39.019  13.046
23554W        W95979  16.288  31.635   9.945
23555W        W95980  31.041  40.454  11.056
23556W        W95981  44.982  14.713   2.854
23557W        W95982  10.645   6.826   4.773
23558W        W95983  26.578  28.108  14.956
23559W        W95984  22.108  36.850   0.448
23560W        W95985  12.742  27.488  14.939
23561W        W95986  21.170  13.251  13.395
23562W        W95987   1.801  15.137  11.994
23563W        W95988  13.305  37.936   1.903
23564W        W95989  24.013  28.030  12.920
23565W        W95990  10.233  39.407  11.523
23566W        W95991  13.146  23.021  10.439
23567W        W95992  20.105  22.686  12.961
23568W        W95993   4.782  25.196  10.995
23569W        W95994   8.870  40.008   3.216
23570W        W95995  35.970  17.747  11.015
23571W        W95996  12.137   1.431   3.835
23572W        W95997   2.775   2.271  13.470
23573W        W95998  30.429  13.232   3.268
23574W        W95999  24.613   8.370  13.447
23575W        W96000  23.138  20.618   3.839
23576W        W96001  13.659  21.161  13.936
23577W        W96002  23.067  35.409  14.321
23578W        W96003  16.572  34.415   5.121
23579W        W96004  26.490  12.726  13.417
23580W        W96005   4.763  15.801   4.231
23581W        W96006   8.745  16.118  11.466
23582W        W96007  15.135  19.134  13.395
23583W        W96008   8.396  33.095   2.377
23584W        W96009  41.463   1.237  11.397
23585W        W96010   1.414   6.352  11.096
23586W        W96011  27.524  18.560   1.246
23587W        W96012  10.772  22.588   3.720
23588W        W96013   3.819  16.655   3.211
23589W        W96014  15.735  35.533  11.583
23590W        W96015  33.915  33.025  13.364
23591W        W96016   1.382  30.944  14.971
23592W        W96017  39.490   3.275   4.158
23593W        W96018  19.088   1.410   3.195
23594W        W96019  26.080  38.437  12.464
23595W        W96020  37.397  42.370   2.210
23596W        W96021  11.155  43.833   3.665
23597W        W96022  41.354  27.032   2.278
23598W        W96023  43.428  42.957   2.734
23599W        W96024  33.455  10.178   0.422
23600W        W96025   5.391  10.722   4.602
23601W        W96026  16.283  44.805   1.253
23602W        W96027   6.256   0.801  14.016
23603W        W96028  36.039  30.495  12.506
23604W        W96029   3.409  27.688   0.473
23605W        W96030  15.206   5.254   4.253
23606W        W96031  33.576  14.737   0.938
23607W        W96032   5.828  26.109  12.447
23608W        W96033  37.352  19.644   2.705
23609W        W96034  17.134  28.085  12.046
23610W        W96035   7.373  43.004   2.274
23611W        W96036   0.975  17.182  12.351
23612W        W96037   7.370  44.421   0.943
23613W        W96038  22.115   1.250   3.346
23614W        W96039   6.703  26.584  13.794
23615W        W96040  39.477   0.261  11.028
23616W        W96041   7.837  11.769   0.356
23617W        W96042  18.274  40.909  14.023
23618W        W96043  26.527  16.247  12.850
23619W        W96044  32.589  35.027   1.322
23620W        W96045   1.437  21.033  11.965
23621W        W96046  35.946  33.951  11.602
23622W        W96047  25.522  28.027   5.175
23623W        W96048   0.986   7.210  10.631
23624W        W96049  28.012  17.620  13.962
23625W        W96050  22.585   4.785  11.903
23626W        W96051  29.609  35.898  11.444
23627W        W96052   2.900  42.786  12.361
23628W        W96053  36.417  42.378   3.155
23629W        W96054  14.135   3.341   4.319
23630W        W96055  37.935  10.262  13.036
23631W        W96056  40.371  34.989   4.270
23632W        W96057  23.568  34.097  10.997
23633W        W96058  31.416   2.854  12.505
23634W        W96059  44.778  21.024  10.902
23635W        W96060  34.471  21.711  14.337
23636W        W96061  43.324   8.352   2.891
23637W        W96062  15.605  39.421  11.903
23638W        W96063  18.549  42.829  14.461
23639W        W96064  10.672   7.357   3.780
23640W        W96065  44.330  43.496   1.863
23641W        W96066  34.113  39.349   3.744
23642W        W96067  28.008   0.921   3.261
23643W        W96068  26.622  35.104  13.485
23644W        W96069   9.249  30.613  11.874
23645W        W96070   9.338  14.705  13.841
23646W        W96071  29.918   7.179  10.982
23647W        W96072  26.009  29.949   0.311
23648W        W96073  25.629   0.743  12.019
23649W        W96074   7.718  30.973  14.857
23650W        W96075   4.338  34.010  13.398
23651W        W96076  34.090   2.885  14.862
23652W        W96077   9.695  13.844   2.743
23653W        W96078  13.269  30.487   3.330
23654W        W96079  23.179  43.879   2.246
23655W        W96080  22.671   1.920   5.301
23656W        W96081  28.996  36.419   4.250
23657W        W96082  28.122   8.788  12.530
23658W        W96083  10.727  33.975   0.818
23659W        W96084  17.067   0.790  14.771
23660W        W96085  43.426   0.742   1.709
23661W        W96086  44.770  25.087   5.200
23662W        W96087   1.370  33.981  13.827
23663W        W96088  35.911  30.524  13.422
23664W        W96089  23.735  25.112  10.582
23665W        W96090  27.141  35.852   0.761
23666W        W96091   4.926   4.711  13.310
23667W        W96092  11.698  15.636  14.402
23668W        W96093  23.053  15.635   3.175
23669W        W96094  37.546  43.862   1.846
23670W        W96095  26.628  41.943  11.969
23671W        W96096  20.727  43.953   1.738
23672W        W96097  35.597   0.783  11.454
23673W        W96098  36.399  40.525  13.342
23674W        W96099  43.942  23.163   2.708
23675W        W96100  17.779  39.331  11.423
23676W        W96101  20.750  14.605   0.374
23677W        W96102   8.810  21.689  10.928
23678W        W96103  28.501  15.670  12.996
23679W        W96104  12.341  14.187  14.300
23680W        W96105  28.159  12.720   0.384
23681W        W96106  31.526   4.778  11.592
23682W        W96107  17.775  40.840   0.335
23683W        W96108  25.194  11.704  12.476
23684W        W96109  24.553  11.162   9.519
23685W        W96110  44.975  37.350   1.749
23686W        W96111   4.397  17.129  14.958
23687W        W96112  20.634   3.749  13.472
23688W        W96113  27.526  13.745  11.450
23689W        W96114  13.236  28.143   4.619
23690W        W96115   2.864  11.722   3.174
23691W        W96116  19.730  30.636   1.783
23692W        W96117  36.471   8.838  10.010
23693W        W96118  24.014  31.981   1.373
23694W        W96119  10.182  29.038  11.458
23695W        W96120   4.820  39.056  13.443
23696W        W96121  40.491  35.050   5.150
23697W        W96122  31.521  37.061   1.291
23698W        W96123  17.118  33.946  14.010
23699W        W96124  13.110  15.701   4.132
23700W        W96125   5.694  37.526  12.955
23701W        W96126  15.315  14.798  12.020
23702W        W96127   9.851  11.285  11.526
23703W        W96128  42.881  29.632   0.930
23704W        W96129  18.635   4.738  14.320
23705W        W96130  30.514  40.524   1.929
23706W        W96131  36.039   1.787  13.990
23707W        W96132   3.765  21.678  12.847
23708W        W96133  32.516  15.694  12.973
23709W        W96134  21.214  10.698   4.301
23710W        W96135  13.221  25.970   0.376
23711W        W96136  14.207  29.125  10.645
23712W        W96137   7.736  34.453  11.025
23713W        W96138   9.274  30.137   3.835
23714W        W96139   2.817  17.210  11.072
23715W        W96140   4.297  29.114   3.739
23716W        W96141  33.561  24.675   0.909
23717W        W96142  37.530  42.306   4.353
23718W        W96143  27.656  18.618   4.348
23719W        W96144  26.135   3.722   0.314
23720W        W96145  28.069   9.734   2.698
23721W        W96146  29.018   9.759   3.288
23722W        W96147  23.725  30.052   3.306
23723W        W96148  28.439  23.528  14.378
23724W        W96149  25.976  12.308   4.681
23725W        W96150  21.068   8.361  14.324
23726W        W96151  33.079  26.133  11.388
23727W        W96152   2.914  27.177   0.396
23728W        W96153  39.826   1.801   4.653
23729W        W96154  21.550  25.554   3.739
23730W        W96155  39.384  41.884  11.951
23731W        W96156  12.771  13.614   0.397
23732W        W96157  21.170  26.542  13.064
23733W        W96158  12.780  26.107   4.322
23734W        W96159  26.483  10.326  12.877
23735W        W96160  39.935  13.169   0.911
23736W        W96161  32.533  41.505   1.836
23737W        W96162  21.115   0.348  13.034
23738W        W96163  32.894  14.272   1.240
23739W        W96164  35.047  32.887  14.417
23740W        W96165   8.162  26.972   3.867
23741W        W96166  13.689  43.514  14.503
23742W        W96167  44.467  23.047   4.640
23743W        W96168  12.644  43.942  11.506
23744W        W96169   4.352  40.380  12.463
23745W        W96170  39.025  37.866  12.537
23746W        W96171  13.600   6.735   3.819
23747W        W96172  29.433  36.890  14.335
23748W        W96173   8.733  31.135   5.248
23749W        W96174  42.845   9.687  12.091
23750W        W96175  28.018  44.357  13.008
23751W        W96176  23.174  18.727   4.735
23752W        W96177   5.697  23.128  13.543
23753W        W96178   7.832  35.883   3.638
23754W        W96179  16.576  28.005  13.959
23755W        W96180  30.007  31.137  14.759
23756W        W96181  17.273  42.999  12.421
23757W        W96182  38.841   5.879  11.465
23758W        W96183  37.433  12.683  12.999
23759W        W96184  13.818  37.934  13.828
23760W        W96185   5.869  20.612  11.411
23761W        W96186  16.254  34.873  12.023
23762W        W96187  32.968   6.723  12.084
23763W        W96188  40.995  23.005  10.561
23764W        W96189  42.008  19.555  12.047
23765W        W96190  20.102  31.429   0.272
23766W        W96191  38.395  30.570   2.337
23767W        W96192  40.822  18.198  13.796
23768W        W96193   0.877  27.614   2.185
23769W        W96194  39.057  36.909   1.421
23770W        W96195  15.107  36.497  12.412
23771W        W96196  23.710  14.697  10.645
23772W        W96197   3.905  22.089   2.851
23773W        W96198  25.492  21.175   2.243
23774W        W96199  32.913  30.505  13.517
23775W        W96200   1.365   3.848  11.101
23776W        W96201  42.334  34.499  11.929
23777W        W96202  23.150  21.620   0.265
23778W        W96203  31.592  14.108   0.856
23779W        W96204   4.308   3.352  13.322
23780W        W96205   5.419   2.847  14.907
23781W        W96206  38.829  27.483  12.041
23782W        W96207  43.379  36.417   1.451
23783W        W96208  31.948   0.943   0.261
23784W        W96209  10.791   0.275   2.279
23785W        W96210  24.674   8.172   2.400
23786W        W96211  38.869   6.291  10.415
23787W        W96212  15.721  24.687   3.360
23788W        W96213  32.539  32.097  13.425
23789W        W96214  37.577   2.825  13.482
23790W        W96215  10.245  40.478   4.204
23791W        W96216  19.622  20.057  12.428
23792W        W96217  25.611   9.273  14.992
23793W        W96218  24.988   8.821   4.318
23794W        W96219  37.851  11.150   2.226
23795W        W96220  29.493  16.276   1.258
23796W        W96221   5.891  16.274  12.514
23797W        W96222  33.555  18.224  10.560
23798W        W96223  36.359  20.226   3.190
23799W        W96224   0.846  42.445   0.805
23800W        W96225   4.251  37.893  12.072
23801W        W96226   7.749  36.397   0.375
23802W        W96227  21.190  11.262  13.450
23803W        W96228  20.126  18.166  12.823
23804W        W96229  37.468  21.192  11.446
23805W        W96230  42.291  21.036  12.975
23806W        W96231  28.451  15.170  14.885
23807W        W96232  29.078  23.013   2.357
23808W        W96233  21.088  39.961  13.821
23809W        W96234  43.482  36.409   2.187
23810W        W96235  40.454  17.097  11.000
23811W        W96236  29.032  19.157  10.424
23812W        W96237   2.267  24.071  12.976
23813W        W96238  35.455  38.518  13.904
23814W        W96239  42.468  32.019   1.319
23815W        W96240  41.902  11.255  11.514
23816W        W96241  29.015  41.987   1.756
23817W        W96242  38.057  31.570   2.892
23818W        W96243  24.491  30.102  14.491
23819W        W96244  39.387   7.702   0.751
23820W        W96245  14.697  33.488  10.960
23821W        W96246   7.786  20.269   4.121
23822W        W96247  40.510  18.737   2.302
23823W        W96248  38.504   9.689  11.061
23824W        W96249  13.825  33.604   1.363
23825W        W96250   5.707   1.772  12.349
23826W        W96251   5.433  31.077  14.441
23827W        W96252   4.821   9.302   4.681
23828W        W96253  20.665  10.664   0.883
23829W        W96254  12.323  35.878   0.465
23830W        W96255   3.890  27.654   4.632
23831W        W96256  20.164  30.936  10.889
23832W        W96257  35.381  30.526  10.632
23833W        W96258  12.154   4.291  10.119
23834W        W96259   3.877  26.187  11.986
23835W        W96260   9.175  13.662  14.953
23836W        W96261  15.111  11.824  12.415
23837W        W96262  12.614  39.381   2.210
23838W        W96263  23.073  12.822  12.870
23839W        W96264  33.488   7.244   0.269
23840W        W96265   9.395  42.964  14.317
23841W        W96266  41.358  12.736   1.383
23842W        W96267  31.627  37.995   0.355
23843W        W96268  30.975   8.255  12.997
23844W        W96269  15.712  42.355  14.894
23845W        W96270  33.122   9.669   0.959
23846W        W96271  17.220   3.295   5.238
23847W        W96272  19.186   6.828   2.231
23848W        W96273  38.408  25.980   2.279
23849W        W96274  15.201  16.697  11.959
23850W        W96275  25.497   2.325   0.389
23851W        W96276  17.754  22.583  12.956
23852W        W96277  37.996  26.993   3.675
23853W        W96278  43.937  39.524   0.837
23854W        W96279  40.954  39.344   1.702
23855W        W96280  14.180   3.738   1.777
23856W        W96281  41.304  43.887  10.441
23857W        W96282  15.748  17.667   3.189
23858W        W96283  13.761  26.975   3.848
23859W        W96284   9.790   9.676   3.371
23860W        W96285  10.310   7.883  14.020
23861W        W96286  40.522  17.252  13.512
23862W        W96287  36.879  20.118   0.952
23863W        W96288  25.150  43.419  11.592
23864W        W96289   2.318  17.605   1.449
23865W        W96290  26.191   7.748  12.868
23866W        W96291   3.911  10.153   1.273
23867W        W96292  20.187  22.007   3.644
23868W        W96293   0.251   5.294   2.879
23869W        W96294  37.479  21.720   3.278
23870W        W96295  17.219  44.463  14.275
23871W        W96296  15.781  39.336  12.381
23872W        W96297  30.599   8.665  14.464
23873W        W96298  38.994  30.497  13.966
23874W        W96299  16.130  41.002  11.512
23875W        W96300  25.667  31.042  11.040
23876W        W96301  41.941  18.267   0.880
23877W        W96302   8.772  27.028  10.420
23878W        W96303  43.899  37.871   4.836
23879W        W96304  43.429  32.928  12.070
23880W        W96305  28.026   5.288   1.703
23881W        W96306  15.253  12.641  11.433
23882W        W96307  22.590  35.051  12.986
23883W        W96308  36.906   9.198  12.555
23884W        W96309  12.279  14.250   3.228
23885W        W96310  25.218  35.909   0.462
23886W        W96311  43.392  28.147   2.681
23887W        W96312   1.962  34.603  12.379
23888W        W96313  23.134  14.717   4.716
23889W        W96314   8.323  42.780   0.883
23890W        W96315   3.245  25.511  14.510
23891W        W96316  19.669  26.510  13.999
23892W        W96317   1.241  43.913  13.874
23893W        W96318  30.054  42.972  11.868
23894W        W96319  21.589   0.915  10.890
23895W        W96320  20.204   6.842  12.498
23896W        W96321  35.414  36.467  11.474
23897W        W96322  34.517  12.663   3.644
23898W        W96323  30.658  14.614  14.803
23899W        W96324  34.440  28.079  11.084
23900W        W96325   5.301  34.386  11.552
23901W        W96326  35.904  32.511   4.828
23902W        W96327  21.692  24.989  11.606
23903W        W96328  28.670  17.281  10.562
23904W        W96329   2.905  12.121   2.884
23905W        W96330   6.408  43.829   3.325
23906W        W96331  33.504   5.237  10.610
23907W        W96332  24.571  33.507   0.330
23908W        W96333   1.770  44.951   0.817
23909W        W96334  18.776   6.702  13.504
23910W        W96335  40.489  27.121  10.477
23911W        W96336   6.883  39.414   1.886
23912W        W96337  29.670  35.462   3.361
23913W        W96338  20.272  34.397  11.894
23914W        W96339  30.037  11.277   0.784
23915W        W96340   6.253  44.867  11.596
23916W        W96341  23.139  38.874  13.956
23917W        W96342   9.171  18.235   4.245
23918W        W96343   7.192   4.710  13.444
23919W        W96344  31.580  36.504  10.894
23920W        W96345   2.959  34.004  14.466
23921W        W96346   5.725  29.067   1.325
23922W        W96347  34.870  19.212  11.962
23923W        W96348  32.963  25.986  12.569
23924W        W96349  29.088  19.747  12.983
23925W        W96350  21.215  14.616  13.311
23926W        W96351  26.686  44.943  10.548
23927W        W96352  39.815  29.122   0.859
23928W        W96353  32.951  14.183  14.023
23929W        W96354   3.382  28.035  14.869
23930W        W96355  14.622  10.700   4.171
23931W        W96356  39.485   1.387   3.789
23932W        W96357  38.559   1.929   4.741
23933W        W96358  12.327   3.861   4.299
23934W        W96359  35.869   8.812   2.195
23935W        W96360   1.423  33.028  13.408
23936W        W96361  34.485   8.700  12.906
23937W        W96362  11.678  41.937  12.490
23938W        W96363  20.665  31.963  10.924
23939W        W96364   1.448   0.774  13.998
23940W        W96365   9.653   3.784   3.816
23941W        W96366  34.556   5.208  11.881
23942W        W96367   9.680  23.552   0.827
23943W        W96368   4.421  44.359   2.854
23944W        W96369  44.272   9.867   3.668
23945W        W96370  15.764  23.161   1.309
23946W        W96371  10.681  26.685   3.787
23947W        W96372  25.148  20.131   2.740
23948W        W96373  18.733  11.854   0.847
23949W        W96374  34.963  43.774  11.609
23950W        W96375  16.199  28.172  10.942
23951W        W96376  25.106   0.388   1.285
23952W        W96377  12.122   3.794  10.130
23953W        W96378  13.644  19.109   1.880
23954W        W96379   7.900  37.929  14.385
23955W        W96380   1.256  15.661  11.436
23956W        W96381  22.120  21.557  12.509
23957W        W96382  38.836  41.487  10.018
23958W        W96383   0.889  31.449   1.789
23959W        W96384  15.106  28.966   4.778
23960W        W96385  19.185   5.417   4.726
23961W        W96386  40.454  16.683   3.339
23962W        W96387   8.308  12.667   2.384
23963W        W96388  35.530  31.123   1.871
23964W        W96389  16.678  13.171  13.880
23965W        W96390   2.965  23.632   4.713
23966W        W96391   5.222  36.894  11.416
23967W        W96392  12.182  34.096  13.358
23968W        W96393   8.656   8.201  12.378
23969W        W96394  25.626  19.229   0.728
23970W        W96395  16.277  18.274   3.365
23971W        W96396   6.804  38.997   3.662
23972W        W96397  11.722   0.274   4.198
23973W        W96398  36.902  23.602   4.696
23974W        W96399  18.585  35.413  14.296
23975W        W96400  30.539  36.885  11.375
23976W        W96401  21.520  29.644   1.403
23977W        W96402   1.771  35.100   3.252
23978W        W96403  40.457  41.451   2.807
23979W        W96404   9.645  30.432  13.928
23980W        W96405  24.080  32.978  11.116
23981W        W96406  19.075  42.472  11.058
23982W        W96407  20.706   3.930  14.446
23983W        W96408  18.677  13.112  14.286
23984W        W96409  35.887  28.080  12.464
23985W        W96410  22.098  31.024  10.892
23986W        W96411  19.725  29.601   1.419
23987W        W96412  28.564  11.790  10.461
23988W        W96413  40.804   4.771   2.864
23989W        W96414  23.173  32.565   1.228
23990W        W96415  34.085  44.388  11.454
23991W        W96416   9.876  21.544  10.614
23992W        W96417  31.507  12.754  14.957
23993W        W96418  25.669  28.096  14.017
23994W        W96419  16.084  43.847   2.732
23995W        W96420  21.157  40.335   1.911
23996W        W96421  25.155  17.306  10.597
23997W        W96422  27.054  34.370  12.979
23998W        W96423  40.012  11.820  13.459
23999W        W96424  29.589  44.792   0.455
24000W        W96425  14.318  41.294   2.366
24001W        W96426  17.723   1.941   4.318
24002W        W96427  33.025  24.526  12.841
24003W        W96428  28.153   9.290   4.310
24004W        W96429  26.001   1.940  10.454
24005W        W96430  43.978  19.758  11.025
24006W        W96431   9.887  17.117  11.431
24007W        W96432  17.632  44.762  14.017
24008W        W96433   9.798  15.314   3.723
24009W        W96434   2.338   1.813  10.598
24010W        W96435  12.192   0.792   4.693
24011W        W96436  24.113  12.628   2.331
24012W        W96437  31.437  29.010   0.477
24013W        W96438  35.376   0.399   2.346
24014W        W96439  36.881  40.863  13.504
24015W        W96440  21.070  40.379  14.397
24016W        W96441  38.418  34.433  13.956
24017W        W96442  43.297  34.079  11.585
24018W        W96443   0.773  27.978  14.448
24019W        W96444  13.701  20.099  10.902
24020W        W96445  40.502   2.828  10.960
24021W        W96446  29.557   4.251   2.800
24022W        W96447  25.599   0.763   3.327
24023W        W96448   8.315  14.688   2.684
24024W        W96449  35.444   7.325  13.028
24025W        W96450  42.807  41.491  13.836
24026W        W96451  16.579  33.893  10.431
24027W        W96452   8.807   2.747  11.032
24028W        W96453   8.209  11.788  14.901
24029W        W96454   1.800   6.400   2.688
24030W        W96455  28.161  30.496  13.793
24031W        W96456  29.080  31.079   1.337
24032W        W96457  21.255  12.738  11.000
24033W        W96458  21.043  38.884  13.482
24034W        W96459   7.191  31.952  12.844
24035W        W96460  13.806  20.109  12.557
24036W        W96461  27.580  39.816  10.565
24037W        W96462  33.078  26.551   2.838
24038W        W96463   2.425  13.717   1.396
24039W        W96464   8.735  11.651  14.789
24040W        W96465  18.169  29.963  14.022
24041W        W96466   0.830  14.236   9.971
24042W        W96467  36.895   7.178   3.763
24043W        W96468   3.731  21.717  14.803
24044W        W96469  24.173  31.569  14.304
24045W        W96470  11.829   4.901  14.853
24046W        W96471  40.856  14.598   1.397
24047W        W96472  30.985  27.642   0.407
24048W        W96473   8.700  39.427   4.265
24049W        W96474  23.707  28.657   1.914
24050W        W96475   3.256  24.141   0.460
24051W        W96476  32.961  10.340   1.694
24052W        W96477  38.350  32.996   3.164
24053W        W96478  16.712   4.347   3.221
24054W        W96479  28.014  27.533  14.006
24055W        W96480  37.932  16.812   4.246
24056W        W96481  40.808  34.543  14.469
24057W        W96482  21.074  38.982  12.575
24058W        W96483  35.462  42.812  14.832
24059W        W96484  23.733   8.852  12.837
24060W        W96485  22.648  39.454  14.930
24061W        W96486   6.690  20.196  12.960
24062W        W96487  20.059   5.221  12.012
24063W        W96488  44.297  19.765   0.923
24064W        W96489   6.302  44.808  10.963
24065W        W96490  27.645  33.397   4.713
24066W        W96491   7.325  12.327  10.923
24067W        W96492  29.924  14.721  13.038
24068W        W96493  26.063   8.258  14.780
24069W        W96494  16.209  33.061  11.502
24070W        W96495  18.572  42.921  14.809
24071W        W96496  34.866  14.790  13.933
24072W        W96497  25.507   8.824  14.855
24073W        W96498  43.841  14.806  13.341
24074W        W96499   3.238  17.073   1.846
24075W        W96500  23.228  39.000   1.797
24076W        W96501  31.104   5.722   2.740
24077W        W96502  22.738  26.673  10.417
24078W        W96503  24.051  43.009   1.277
24079W        W96504  20.616  23.112   0.446
24080W        W96505   7.799   2.349   0.454
24081W        W96506  31.040   2.287   4.255
24082W        W96507  28.677  31.133  10.639
24083W        W96508  10.213   6.354  10.493
24084W        W96509  15.771  37.447  14.022
24085W        W96510  31.624   1.303   3.245
24086W        W96511  32.028  44.429   4.177
24087W        W96512  11.191  37.039   4.667
24088W        W96513  13.221  27.612  13.017
24089W        W96514   4.935   0.382   3.193
24090W        W96515  24.119  39.818   0.937
24091W        W96516   8.725  27.141   2.191
24092W        W96517  43.368  13.304  10.962
24093W        W96518  25.714  44.460   0.264
24094W        W96519  35.456  43.872  13.958
24095W        W96520  26.530   0.955   0.434
24096W        W96521   7.864  31.025  14.434
24097W        W96522  35.453   5.870  12.858
24098W        W96523   5.422  42.870  13.463
24099W        W96524  42.859  40.002  12.563
24100W        W96525  32.949  38.835  13.357
24101W        W96526   3.292  43.793   2.898
24102W        W96527   3.820  24.178  12.091
24103W        W96528  20.642  41.417   1.756
24104W        W96529  40.452  21.152  12.511
24105W        W96530   7.330  23.217  10.489
24106W        W96531   2.352  43.968  13.409
24107W        W96532  27.136  43.865  10.892
24108W        W96533  23.583  31.629  13.817
24109W        W96534  31.489   0.779   0.257
24110W        W96535  28.094  26.503   1.883
24111W        W96536  10.797  27.188  12.944
24112W        W96537  20.699   1.802  12.944
24113W        W96538  25.543  33.513  13.811
24114W        W96539  11.734   9.321   1.362
24115W        W96540  34.611  42.314  12.001
24116W        W96541  12.644  24.069   1.870
24117W        W96542   4.929   0.820   1.363
24118W        W96543   4.737  19.677  10.995
24119W        W96544  30.456   1.384  14.993
24120W        W96545  28.047  22.519  14.505
24121W        W96546  29.469  40.535  14.894
24122W        W96547  13.245  26.171  12.387
24123W        W96548  43.330  30.992   4.206
24124W        W96549  30.112  39.837   1.288
24125W        W96550   4.289  21.084  13.834
24126W        W96551  24.484  35.956  11.920
24127W        W96552   9.348   9.183   0.356
24128W        W96553  29.034  20.718  14.902
24129W        W96554  27.493  41.328  13.334
24130W        W96555  13.661  21.711  12.004
24131W        W96556   7.411   0.247   0.438
24132W        W96557  26.495  35.448   3.314
24133W        W96558  41.810   6.419  11.934
24134W        W96559  23.105  33.614   0.352
24135W        W96560  11.256  30.015  14.943
24136W        W96561  24.519  24.663   2.864
24137W        W96562   9.746  13.250   0.256
24138W        W96563   0.458   0.953   4.181
24139W        W96564  17.183  19.591   1.797
24140W        W96565  41.008   0.484  11.075
24141W        W96566  23.069  10.329  11.934
24142W        W96567  26.653  29.592  14.334
24143W        W96568  13.224  40.547  11.426
24144W        W96569  25.166   9.863   1.904
24145W        W96570  16.083   5.232  12.912
24146W        W96571  39.503   4.271   1.252
24147W        W96572  20.690  26.684   4.266
24148W        W96573  43.917  13.836  10.616
24149W        W96574  23.000  24.171  14.385
24150W        W96575  15.201  11.228  11.069
24151W        W96576   2.409  28.560  11.401
24152W        W96577  15.756  41.460   1.716
24153W        W96578  23.720  36.928  13.469
24154W        W96579  19.758  37.489  13.915
24155W        W96580  24.697   4.320  13.473
24156W        W96581  20.728  43.364   3.147
24157W        W96582  15.285  18.279  10.410
24158W        W96583  39.987  20.271   1.358
24159W        W96584  36.021  18.167  12.533
24160W        W96585  37.550  35.042   0.883
24161W        W96586  24.129   3.744  10.965
24162W        W96587  15.816  26.673   4.609
24163W        W96588   1.850  24.139  14.314
24164W        W96589  19.629   0.381   4.614
24165W        W96590  13.706   3.861   3.640
24166W        W96591  17.086  41.034   2.315
24167W        W96592   3.784   7.882   3.753
24168W        W96593  23.703  27.648  14.362
24169W        W96594  39.394  30.978  12.880
24170W        W96595  34.034  21.040  11.520
24171W        W96596  19.755   4.825  11.070
24172W        W96597   3.423  43.972  13.809
24173W        W96598  32.920  37.413  11.473
24174W        W96599  14.791   6.372  13.313
24175W        W96600  10.322  29.957   0.415
24176W        W96601   8.660  12.699  12.008
24177W        W96602  22.584  17.644   1.817
24178W        W96603  16.626  42.995  13.513
24179W        W96604  37.508   0.382  12.935
24180W        W96605  13.731  10.784   0.470
24181W        W96606  25.600  30.085   3.242
24182W        W96607   0.256  35.017   1.711
24183W        W96608  14.812  27.608   4.754
24184W        W96609  37.379   9.318  14.490
24185W        W96610  38.866  23.237  12.538
24186W        W96611  20.581  28.566   4.790
24187W        W96612  15.784   1.830   2.793
24188W        W96613  26.958   8.394  12.464
24189W        W96614  25.607  23.010   3.761
24190W        W96615  31.608  23.234  10.592
24191W        W96616  31.122  37.950   1.864
24192W        W96617  35.433  37.022  10.904
24193W        W96618  15.599  31.969  14.965
24194W        W96619   6.183  31.442   1.899
24195W        W96620  38.564   6.394  13.864
24196W        W96621  16.267  44.405   3.821
24197W        W96622  30.658   4.714   3.632
24198W        W96623  19.643  22.230   0.480
24199W        W96624  15.582   9.258  11.478
24200W        W96625  21.060  26.480  13.819
24201W        W96626  42.941  33.481   2.768
24202W        W96627  21.211  40.381  11.588
24203W        W96628   0.350  20.060  13.454
24204W        W96629  27.132  32.510   5.802
24205W        W96630  12.197  41.344  12.968
24206W        W96631  39.966   9.643  14.817
24207W        W96632   6.250  42.423   4.782
24208W        W96633  27.097  38.884  14.923
24209W        W96634  41.041  42.434   2.720
24210W        W96635  22.600  16.708   2.830
24211W        W96636  43.342  21.626   2.809
24212W        W96637   3.712  26.125  13.383
24213W        W96638  30.550  22.105   0.793
24214W        W96639  31.451  23.100   1.424
24215W        W96640   1.351  28.666  14.869
24216W        W96641  18.071  16.611   1.372
24217W        W96642  38.835  15.638   0.957
24218W        W96643  23.166  36.969  14.456
24219W        W96644  36.475  42.866  13.523
24220W        W96645  43.504   9.380   1.397
24221W        W96646  21.066  39.385   2.805
24222W        W96647  20.155  32.604  12.524
24223W        W96648   1.275  33.967  12.873
24224W        W96649  19.637  25.095   2.671
24225W        W96650  40.332   7.280  13.799
24226W        W96651   8.266   2.851   1.210
24227W        W96652  11.798  30.034  11.542
24228W        W96653  22.249  32.535   4.268
24229W        W96654  27.131  36.960   4.648
24230W        W96655  23.624  18.184  11.035
24231W        W96656   0.939  23.553   3.726
24232W        W96657  40.383  29.596   1.422
24233W        W96658   2.955  39.999  11.514
24234W        W96659  42.294   9.197   1.431
24235W        W96660  36.515  17.758   0.809
24236W        W96661   7.806  16.747   2.235
24237W        W96662  15.222  33.122   0.888
24238W        W96663   9.340  25.557  12.350
24239W        W96664  29.506  41.483   3.692
24240W        W96665  28.437  42.503   4.186
24241W        W96666  34.373   9.761  13.022
24242W        W96667  33.894  43.354   3.174
24243W        W96668   6.185  44.914   3.680
24244W        W96669  20.614  23.213   3.666
24245W        W96670  38.442  35.541  14.481
24246W        W96671  12.348  22.014  13.938
24247W        W96672  15.292  11.171   0.318
24248W        W96673   6.313   4.894   1.908
24249W        W96674   1.468  27.964  14.007
24250W        W96675  25.639   1.328  11.513
24251W        W96676  35.466  37.446  13.941
24252W        W96677  19.583   6.814  11.460
24253W        W96678   8.220   7.408  14.828
24254W        W96679  44.962  32.126   4.781
24255W        W96680   3.235  10.840  11.068
24256W        W96681  34.930  13.826   3.262
24257W        W96682  42.825  23.677   2.745
24258W        W96683  43.786  10.662   2.836
24259W        W96684   3.827  32.020   3.839
24260W        W96685  17.697  29.048  12.373
24261W        W96686  30.541   0.822   0.794
24262W        W96687  20.638  20.538   4.256
24263W        W96688  16.206  39.054   0.773
24264W        W96689  37.979  21.558   0.944
24265W        W96690   1.774   3.222  12.461
24266W        W96691  25.056   2.832  12.086
24267W        W96692   0.919  29.056  12.931
24268W        W96693  30.975  22.657   0.445
24269W        W96694  31.013  12.289   1.708
24270W        W96695  17.681  44.916   1.351
24271W        W96696  15.327   5.859   3.205
24272W        W96697  38.398  40.968  13.007
24273W        W96698  30.051  44.488   1.432
24274W        W96699  19.695  11.156   0.958
24275W        W96700  27.584  25.503  11.011
24276W        W96701  12.244  40.019   0.258
24277W        W96702   0.863  41.815  14.820
24278W        W96703  32.943  31.149   1.257
24279W        W96704  27.564  10.313   1.443
24280W        W96705  20.644   9.764   5.720
24281W        W96706  34.027   3.398   1.931
24282W        W96707  33.548  30.135  13.512
24283W        W96708  30.155  35.940  11.553
24284W        W96709  38.987  35.501  13.341
24285W        W96710   9.741  16.239   4.720
24286W        W96711   6.734  18.730   2.363
24287W        W96712  28.020  26.517  12.050
24288W        W96713  29.485  27.610   2.743
24289W        W96714   3.298  28.186  13.956
24290W        W96715  20.267  15.286   1.252
24291W        W96716   0.855   6.915   1.868
24292W        W96717  11.688   0.909   2.710
24293W        W96718  43.883  39.453   0.331
24294W        W96719  20.193  39.551   0.473
24295W        W96720  40.859  26.099   3.776
24296W        W96721   2.306  21.196   3.818
24297W        W96722  25.182  37.034  14.461
24298W        W96723   6.759   0.449   2.239
24299W        W96724  11.229  10.720   1.239
24300W        W96725  35.083  14.722   0.728
24301W        W96726   4.899  23.989   0.966
24302W        W96727  16.637   1.384  12.361
24303W        W96728  11.240  30.035   0.872
24304W        W96729  12.178   7.334  14.340
24305W        W96730  12.131   7.365   4.151
24306W        W96731  35.540  39.850  13.513
24307W        W96732  21.124  22.126  14.377
24308W        W96733  43.300  31.036   3.691
24309W        W96734  30.506  43.477  14.975
24310W        W96735  30.593  32.909   2.195
24311W        W96736  25.485   8.738   4.154
24312W        W96737   6.283  10.748   1.808
24313W        W96738  41.893  29.471  12.513
24314W        W96739  27.043  24.515   0.966
24315W        W96740  13.201  28.096  11.464
24316W        W96741  40.863   6.698   3.861
24317W        W96742   2.419  16.216  14.296
24318W        W96743  24.136  41.473   4.348
24319W        W96744  31.050   6.799  11.544
24320W        W96745  23.686  33.542   3.192
24321W        W96746  38.066  20.218  13.053
24322W        W96747  28.487   7.229  10.543
24323W        W96748  37.523  14.759   1.442
24324W        W96749  25.492  22.657   0.269
24325W        W96750  11.677  42.312   1.278
24326W        W96751  13.309   8.830  10.545
24327W        W96752   1.787  26.562   4.324
24328W        W96753  37.367   7.682   2.266
24329W        W96754   4.939  12.219   2.197
24330W        W96755  30.961  35.945  11.415
24331W        W96756   9.304  29.494   1.306
24332W        W96757   0.485   7.239  10.904
24333W        W96758  40.521  43.479   4.328
24334W        W96759  44.280  40.362   1.247
24335W        W96760  19.081  27.118   3.189
24336W        W96761  13.182  44.473  10.506
24337W        W96762   0.489  37.842  11.499
24338W        W96763   1.895  13.634   1.309
24339W        W96764  23.620  27.614  10.983
24340W        W96765  27.549  37.412   1.894
24341W        W96766  44.292   5.194  14.921
24342W        W96767   9.239  30.913  11.038
24343W        W96768  15.103  29.023  10.626
24344W        W96769  40.469   3.924   4.121
24345W        W96770  14.201  43.370   2.196
24346W        W96771  35.076  17.686   1.330
24347W        W96772  23.027   3.872   2.300
24348W        W96773  13.652  15.189   1.413
24349W        W96774  37.390  15.688   0.397
24350W        W96775   4.745  29.920   0.889
24351W        W96776  15.592  32.460  10.923
24352W        W96777  36.475   4.873   1.753
24353W        W96778   7.895  30.098   0.311
24354W        W96779  41.036  34.888   3.784
24355W        W96780  12.148   7.175  11.887
24356W        W96781   3.756  28.040  13.006
24357W        W96782   7.861  24.974  13.811
24358W        W96783  10.189  43.911  11.051
24359W        W96784  14.230  12.716   3.155
24360W        W96785   6.908   4.733   3.184
24361W        W96786  20.620  42.366   3.357
24362W        W96787  44.375   1.917  12.008
24363W        W96788  18.737  14.600   2.274
24364W        W96789  14.754  27.597  14.981
24365W        W96790  42.840   0.839   2.708
24366W        W96791  14.188  36.944  10.634
24367W        W96792  43.488  27.679  14.482
24368W        W96793  11.290   0.804   0.803
24369W        W96794   2.881  15.693   2.824
24370W        W96795  38.338  40.921  10.627
24371W        W96796  17.793  32.920   4.784
24372W        W96797  26.680   3.326   4.349
24373W        W96798  22.181  27.075  13.324
24374W        W96799  13.184  29.454  10.496
24375W        W96800  36.401  38.837  14.981
24376W        W96801  41.494  19.718   1.426
24377W        W96802   3.230  20.680   1.434
24378W        W96803  21.538  23.196   3.165
24379W        W96804  39.823  19.714   2.697
24380W        W96805  18.725   4.913   2.278
24381W        W96806  10.317  31.135   0.884
24382W        W96807  13.604  16.727   1.447
24383W        W96808   0.383  44.379  13.458
24384W        W96809  22.050  36.859   1.883
24385W        W96810  28.139  32.429   0.271
24386W        W96811  37.570  19.228   4.601
24387W        W96812  30.956  31.019  11.571
24388W        W96813   9.346   2.366   4.325
24389W        W96814  26.971   4.852   0.747
24390W        W96815  40.357  17.211   1.254
24391W        W96816   9.241  44.331  13.821
24392W        W96817  11.353  33.625   3.788
24393W        W96818   4.785   6.241   0.926
24394W        W96819  42.318  40.406   3.700
24395W        W96820  24.977  15.589   2.843
24396W        W96821  44.943   2.827  10.946
24397W        W96822  11.197  16.303   4.749
24398W        W96823  38.412   9.702   1.700
24399W        W96824  23.133  21.017  10.920
24400W        W96825  21.548  28.138   1.231
24401W        W96826  27.655  22.626  10.974
24402W        W96827   7.287  11.784   2.207
24403W        W96828  20.273  11.177  11.452
24404W        W96829  20.263   6.682  11.858
24405W        W96830   7.748  22.192  14.458
24406W        W96831  13.195   6.754   3.169
24407W        W96832  41.839  36.857  12.050
24408W        W96833  15.639  13.799   0.897
24409W        W96834  21.178  23.183  12.380
24410W        W96835  23.516   8.892  12.527
24411W        W96836  14.662  43.501  14.506
24412W        W96837  42.367  14.589   3.268
24413W        W96838  20.635   7.854  12.971
24414W        W96839  37.900  34.092  13.053
24415W        W96840   3.774   7.791  10.623
24416W        W96841  17.727  27.955   1.790
24417W        W96842  29.171  36.937   2.738
24418W        W96843  10.763  22.007  11.955
24419W        W96844  28.532  20.083  13.035
24420W        W96845  17.257  10.680   2.356
24421W        W96846   6.311   5.920   2.833
24422W        W96847  30.548  35.393  13.489
24423W        W96848  10.172   1.441  14.513
24424W        W96849   4.273   7.754  14.992
24425W        W96850   4.820   7.898   4.301
24426W        W96851  27.978  43.399  10.036
24427W        W96852  31.113  11.685   0.852
24428W        W96853  14.804  31.520   3.309
24429W        W96854  38.537   1.745   4.113
24430W        W96855  38.515  10.323  12.079
24431W        W96856  33.586   4.879   2.877
24432W        W96857  34.889  19.665   1.445
24433W        W96858  32.549   7.797  10.602
24434W        W96859  19.604   0.772  12.405
24435W        W96860  21.559  30.421   5.300
24436W        W96861   2.311  33.124  10.505
24437W        W96862  36.095   5.369   0.471
24438W        W96863  22.705  14.259  11.604
24439W        W96864  35.446   8.660  14.864
24440W        W96865   1.290  36.890  10.604
24441W        W96866  23.178  26.114   3.670
24442W        W96867  32.402  19.094  10.573
24443W        W96868   9.805  27.446  12.425
24444W        W96869  20.081  28.123   0.352
24445W        W96870  33.036   7.410  13.849
24446W        W96871  14.302  34.592  11.538
24447W        W96872  21.117  21.262  14.282
24448W        W96873   5.871  35.521   3.706
24449W        W96874  37.371   9.777   1.778
24450W        W96875  41.998  37.902  10.435
24451W        W96876   7.251  23.660  11.501
24452W        W96877  42.437  40.495   1.869
24453W        W96878  10.351  14.227   4.248
24454W        W96879  24.589  34.515  14.844
24455W        W96880  12.283  14.197  11.987
24456W        W96881  11.743  24.668   3.249
24457W        W96882  44.333   5.201  11.098
24458W        W96883  16.238  11.759  10.561
24459W        W96884   7.288   5.766  10.412
24460W        W96885  10.667  35.524  11.051
24461W        W96886  15.649  15.156   1.899
24462W        W96887  11.250  12.673  10.999
24463W        W96888  13.191  14.725  13.448
24464W        W96889  33.966  24.139  10.536
24465W        W96890  24.709  29.109   1.912
24466W        W96891   1.936  42.473   4.790
24467W        W96892  42.842   5.853  14.010
24468W        W96893  27.008  28.185  13.054
24469W        W96894  13.114  20.092  14.892
24470W        W96895  18.791  38.076  13.518
24471W        W96896  27.529   5.737   0.326
24472W        W96897   5.865   2.234   0.397
24473W        W96898  41.797  22.101   9.666
24474W        W96899   1.898  11.767  10.606
24475W        W96900  16.684   6.325   2.310
24476W        W96901  21.096   4.423  11.982
24477W        W96902  29.086  43.793  11.532
24478W        W96903  16.802  20.220  14.433
24479W        W96904  18.063  37.953   1.322
24480W        W96905  19.181  21.241   2.761
24481W        W96906   2.467  26.550   4.664
24482W        W96907  29.548  27.181   3.640
24483W        W96908  30.561  27.040   2.761
24484W        W96909  22.565  16.775   1.356
24485W        W96910  28.559  42.294  13.465
24486W        W96911  41.952  15.707  10.098
24487W        W96912  43.346   7.283   5.262
24488W        W96913  39.387   2.809   2.333
24489W        W96914  42.398  37.519  11.899
24490W        W96915  41.808  13.266   4.146
24491W        W96916  27.185  30.605  11.925
24492W        W96917  32.924   9.172   0.817
24493W        W96918   5.864  20.214   2.189
24494W        W96919   4.859  20.675  12.906
24495W        W96920  34.523   4.430   2.303
24496W        W96921  33.534  24.513   2.796
24497W        W96922  32.019  35.863   2.310
24498W        W96923  41.882  43.780  12.885
24499W        W96924  22.731  11.319  13.507
24500W        W96925  12.266  10.251  13.382
24501W        W96926  27.520  35.514   1.230
24502W        W96927  38.876  32.050  13.350
24503W        W96928  32.971  15.132  11.458
24504W        W96929  10.268  29.102  13.531
24505W        W96930   4.210  37.933   4.123
24506W        W96931  34.516  16.271  11.956
24507W        W96932  22.117  37.940  11.874
24508W        W96933   5.295  10.235  14.930
24509W        W96934   8.840  35.018  13.930
24510W        W96935   7.364  34.005  12.966
24511W        W96936  34.585  28.037   4.820
24512W        W96937  15.243   1.735  12.385
24513W        W96938  18.630  36.574   4.279
24514W        W96939   8.742  32.422  13.961
24515W        W96940  14.799  17.605   0.306
24516W        W96941  40.029  42.981   2.881
24517W        W96942  24.988  23.009  12.364
24518W        W96943  43.918  41.849   0.913
24519W        W96944   7.338  11.704  14.907
24520W        W96945  10.362  29.019   1.408
24521W        W96946  20.603   6.190   0.736
24522W        W96947  44.292  37.041   2.252
24523W        W96948  29.473  18.183   2.796
24524W        W96949   7.312   1.465  11.048
24525W        W96950  28.153   6.398   3.308
24526W        W96951   2.359  29.593  10.405
24527W        W96952  14.298  17.168  13.345
24528W        W96953  17.736  20.163  10.503
24529W        W96954  20.197   6.241   0.308
24530W        W96955  38.001   5.798   0.374
24531W        W96956  11.224  36.891  10.520
24532W        W96957  42.327  41.029  13.361
24533W        W96958  12.769  37.929  12.068
24534W        W96959  11.656  44.808  14.426
24535W        W96960  11.737  35.026  11.402
24536W        W96961   3.875  38.934   3.669
24537W        W96962  21.127  23.557   1.316
24538W        W96963  11.672   0.398  11.944
24539W        W96964  28.163  24.708   3.803
24540W        W96965   5.837   7.303  10.442
24541W        W96966  12.645  11.706  12.498
24542W        W96967   2.828  11.629  10.936
24543W        W96968  39.534  29.023  13.965
24544W        W96969   2.770  16.632   1.713
24545W        W96970  36.932  12.618   1.281
24546W        W96971  27.463  44.839  10.588
24547W        W96972  14.229  26.023  14.941
24548W        W96973   0.352  28.167  11.123
24549W        W96974  13.182   3.255   1.721
24550W        W96975  16.233  31.432  12.385
24551W        W96976  16.750  43.792   0.438
24552W        W96977   1.781  35.950  11.958
24553W        W96978   8.389  10.649   3.791
24554W        W96979  21.634   5.416   4.837
24555W        W96980   8.358  15.621  11.126
24556W        W96981  16.228  17.682  11.371
24557W        W96982  26.664  43.467   1.420
24558W        W96983  22.161  39.441   3.368
24559W        W96984  33.521  10.808  11.533
24560W        W96985   4.212   0.332   0.774
24561W        W96986  11.825  44.439  10.412
24562W        W96987  29.477  19.640   0.255
24563W        W96988   7.791   0.494  11.560
24564W        W96989  23.175  12.246   1.747
24565W        W96990  41.808  39.533  12.526
24566W        W96991  26.956  25.054  13.507
24567W        W96992  35.380  29.512  11.042
24568W        W96993   9.810  42.776  11.031
24569W        W96994  28.503  34.865   1.763
24570W        W96995  25.062  23.130   2.195
24571W        W96996  30.638  39.413   4.804
24572W        W96997  13.683   9.857  13.471
24573W        W96998  31.506  41.439   4.314
24574W        W96999  32.610  33.541  11.104
24575W        W97000  35.463  35.862  14.407
24576W        W97001  13.772  17.655  13.416
24577W        W97002   4.292  25.066  14.814
24578W        W97003  20.092  37.972  11.424
24579W        W97004  11.305   6.287  13.513
24580W        W97005   6.211  20.626   0.911
24581W        W97006  24.034  37.997   1.244
24582W        W97007  26.471  24.654   4.174
24583W        W97008   1.346   5.359  11.002
24584W        W97009   0.486  35.575   0.924
24585W        W97010  39.476  39.424  12.911
24586W        W97011  17.142  39.054  14.313
24587W        W97012  44.342   5.729  14.871
24588W        W97013  36.849  40.346  14.924
24589W        W97014   0.934  18.064   0.937
24590W        W97015  38.003  18.238  14.458
24591W        W97016  34.067   4.271  12.026
24592W        W97017  13.843  22.142   4.837
24593W        W97018  17.108  19.565   0.353
24594W        W97019  14.714  17.222   4.338
24595W        W97020  10.838  26.512  12.472
24596W        W97021  15.098  43.804  11.465
24597W        W97022  37.514  33.505   4.314
24598W        W97023  19.126  36.967   4.730
24599W        W97024  17.117  25.472  12.862
24600W        W97025  16.753  43.298   2.314
24601W        W97026  12.711  29.054  13.342
24602W        W97027  31.597   7.867  14.454
24603W        W97028  32.595  16.306  14.275
24604W        W97029  26.478   0.954   0.891
24605W        W97030  27.010  27.613  12.551
24606W        W97031  25.603  35.576  11.983
24607W        W97032   6.808  40.957   2.834
24608W        W97033   9.741  44.908   0.301
24609W        W97034  31.037  34.040   2.316
24610W        W97035  39.316  15.310  13.440
24611W        W97036  22.131  41.427   1.799
24612W        W97037  31.014   7.866  10.405
24613W        W97038  28.448  40.004   0.360
24614W        W97039   6.208  24.642   3.214
24615W        W97040   5.744  41.314   2.258
24616W        W97041  22.122  26.680   2.191
24617W        W97042  37.380  30.497   3.766
24618W        W97043   5.195   8.826   9.968
24619W        W97044  39.337  22.229   2.301
24620W        W97045  33.519  21.121   1.385
24621W        W97046  34.974   8.244   0.750
24622W        W97047  24.492  24.219   3.209
24623W        W97048   0.847   1.306   0.382
24624W        W97049  27.030   8.777  11.876
24625W        W97050  15.138  24.047   1.299
24626W        W97051  11.793  22.996   3.256
24627W        W97052   8.237  41.967  14.453
24628W        W97053   2.372  15.603   2.670
24629W        W97054  26.519  39.417   0.769
24630W        W97055   9.304  15.665   5.262
24631W        W97056   3.836  42.390   2.217
24632W        W97057  28.482  32.400  11.517
24633W        W97058  20.115  41.786  13.336
24634W        W97059  14.182  14.699   0.952
24635W        W97060  27.567  15.652  13.535
24636W        W97061  38.071  15.619  10.931
24637W        W97062  14.324  24.063  10.600
24638W        W97063  17.604  37.992  13.449
24639W        W97064  28.474  32.584  11.999
24640W        W97065  13.639  38.358   1.704
24641W        W97066  26.495  34.371  11.505
24642W        W97067  33.595  25.215  13.526
24643W        W97068  25.566  13.114  11.887
24644W        W97069  18.087   5.851   2.387
24645W        W97070  29.038  35.910   1.700
24646W        W97071  11.218  30.509  14.790
24647W        W97072   6.382  29.566  11.006
24648W        W97073   8.713   6.842   4.731
24649W        W97074  22.666   0.891  10.053
24650W        W97075  35.098  19.186   2.680
24651W        W97076  25.163  30.652   1.278
24652W        W97077  40.864   4.381   2.810
24653W        W97078   9.713  38.071  13.945
24654W        W97079  41.018   2.232  11.934
24655W        W97080  26.596  13.267  14.815
24656W        W97081  41.837  24.155   3.248
24657W        W97082  30.147   2.917   3.266
24658W        W97083  16.239  39.874   4.753
24659W        W97084  11.738  23.026   1.254
24660W        W97085   2.785  11.674   3.856
24661W        W97086  13.696  36.004   0.272
24662W        W97087   4.210  18.718  12.858
24663W        W97088   8.327  32.507   4.805
24664W        W97089  26.590  31.079  12.873
24665W        W97090  26.003   6.709   3.836
24666W        W97091  29.517   9.372   4.605
24667W        W97092   9.873  24.196   3.711
24668W        W97093  38.075  22.611  10.039
24669W        W97094  31.950  13.119  14.409
24670W        W97095  10.282   7.369   2.365
24671W        W97096  17.753   3.944  13.908
24672W        W97097  24.670   1.792   1.369
24673W        W97098  16.659  26.477   4.251
24674W        W97099  40.001  41.794   1.214
24675W        W97100  13.798  24.229   4.698
24676W        W97101  24.108  40.342  11.905
24677W        W97102   8.778  28.473  12.083
24678W        W97103   3.315   4.819  11.495
24679W        W97104   1.479  30.416  11.888
24680W        W97105   3.793  29.497  14.822
24681W        W97106  25.116  25.135  13.975
24682W        W97107  25.477  38.381  12.407
24683W        W97108  18.617   1.843  10.949
24684W        W97109  29.022  25.161   2.216
24685W        W97110  13.665  39.534   3.709
24686W        W97111  31.085  39.862   1.870
24687W        W97112  41.338  10.352  12.348
24688W        W97113  13.118  23.022   3.335
24689W        W97114  39.828  12.159   3.854
24690W        W97115   6.695  39.819   1.881
24691W        W97116  30.641  41.987   0.345
24692W        W97117  41.985  32.965   4.817
24693W        W97118   7.268   1.977  13.355
24694W        W97119   1.909  39.864  12.493
24695W        W97120  14.740   8.878   0.893
24696W        W97121  15.663  10.140   4.700
24697W        W97122  27.046  19.235   3.204
24698W        W97123  10.260  21.632  14.368
24699W        W97124  26.998  23.124  12.857
24700W        W97125  26.029  30.109   2.886
24701W        W97126  33.121   0.357   0.754
24702W        W97127  40.887   5.317   3.799
24703W        W97128  40.461  13.220   0.393
24704W        W97129  14.634   3.215  12.929
24705W        W97130  26.565   2.375   3.665
24706W        W97131  35.450   7.763  14.997
24707W        W97132  16.265   3.752   0.831
24708W        W97133  39.524  42.516  13.337
24709W        W97134  15.647  30.983   2.393
24710W        W97135   4.364  14.590   4.792
24711W        W97136  35.972   7.174  11.933
24712W        W97137  42.354   3.937  13.883
24713W        W97138  41.291  40.012  14.820
24714W        W97139   7.247  32.525  10.508
24715W        W97140  35.972  18.254  12.901
24716W        W97141  24.664  25.524   3.250
24717W        W97142   1.458  35.470  12.855
24718W        W97143  11.190  31.950   0.425
24719W        W97144  38.410  27.511  12.365
24720W        W97145  15.592  29.017   1.220
24721W        W97146  29.606  34.871   3.247
24722W        W97147  23.607  30.074  13.449
24723W        W97148  39.351  10.188   3.215
24724W        W97149   3.860  12.778  10.604
24725W        W97150   1.322   5.711  11.545
24726W        W97151   5.244   0.313   1.449
24727W        W97152  29.446  36.931  11.415
24728W        W97153  18.136   0.854   4.280
24729W        W97154  37.406  30.599  11.030
24730W        W97155  11.134  31.119   3.779
24731W        W97156   8.676  33.007  10.144
24732W        W97157  14.259  33.469   4.351
24733W        W97158  38.060  40.954  11.567
24734W        W97159  23.209  29.150   2.210
24735W        W97160   3.808  10.824  13.998
24736W        W97161  23.492  19.267  13.378
24737W        W97162  34.416  25.212  13.356
24738W        W97163  25.200  23.031  12.916
24739W        W97164  35.447  26.574  11.402
24740W        W97165   3.321  14.327  13.815
24741W        W97166  13.658  40.442  12.983
24742W        W97167  20.256  17.801   4.160
24743W        W97168  40.445  22.503   1.289
24744W        W97169  22.136  21.224  11.123
24745W        W97170  12.794  38.497   0.322
24746W        W97171  38.976  41.798   2.258
24747W        W97172  41.481  33.882   2.337
24748W        W97173  21.557  12.675  11.504
24749W        W97174  39.921   4.806   3.380
24750W        W97175  19.116   4.728  11.388
24751W        W97176   7.246  44.425   2.326
24752W        W97177  38.351   7.226  10.916
24753W        W97178  21.616  12.161  12.355
24754W        W97179  27.569  39.893   0.918
24755W        W97180  27.529  35.862  14.879
24756W        W97181  42.963  34.584   1.923
24757W        W97182  17.216  19.599   2.720
24758W        W97183   8.330  36.018  13.319
24759W        W97184   9.822  35.541   3.360
24760W        W97185  33.881  40.024  13.804
24761W        W97186  40.459  18.064  14.822
24762W        W97187  24.988  14.175   1.878
24763W        W97188   4.322  43.294   4.654
24764W        W97189  43.825   5.921  11.888
24765W        W97190  13.601  28.474  12.996
24766W        W97191  28.107  24.995   4.756
24767W        W97192  41.003  17.763  14.766
24768W        W97193  41.972   3.871   3.786
24769W        W97194  19.202  17.747  13.037
24770W        W97195   9.264   4.383  13.523
24771W        W97196   9.381  24.040   0.847
24772W        W97197  34.611  40.025   4.630
24773W        W97198  12.278   9.274  11.955
24774W        W97199  32.012  14.149   1.710
24775W        W97200   7.864   5.847  14.777
24776W        W97201  28.002  26.612  12.419
24777W        W97202   1.481   5.718  11.071
24778W        W97203  19.269  28.093  11.090
24779W        W97204   5.304  38.539   4.655
24780W        W97205  24.230   0.922  11.484
24781W        W97206  41.885  23.686  14.786
24782W        W97207  24.079   2.855   2.335
24783W        W97208  22.088  21.690  13.333
24784W        W97209  35.895  41.479   0.371
24785W        W97210   1.976  34.527  12.937
24786W        W97211  22.634  33.119   3.813
24787W        W97212  17.764  26.079   2.764
24788W        W97213   7.338  13.274   1.889
24789W        W97214  28.637  11.705  12.410
24790W        W97215  23.059  19.698  13.988
24791W        W97216  30.547   4.877  14.872
24792W        W97217   7.268  22.670  13.806
24793W        W97218   0.836   8.386  12.402
24794W        W97219  41.899  29.150   1.914
24795W        W97220  40.539  20.177   5.222
24796W        W97221  26.134   4.303  11.495
24797W        W97222  43.832  30.106  14.377
24798W        W97223  12.283  28.676   3.285
24799W        W97224   8.249   0.793   4.754
24800W        W97225  26.994  39.421   3.650
24801W        W97226  39.541  37.571  10.618
24802W        W97227  23.174  26.623  10.976
24803W        W97228  14.322  30.955  13.916
24804W        W97229  33.952  25.061   0.932
24805W        W97230   2.774  22.022   0.785
24806W        W97231  18.053  22.177   3.700
24807W        W97232  31.117  32.995  11.954
24808W        W97233  32.013  21.091  13.543
24809W        W97234  15.303  20.614   4.263
24810W        W97235  10.261  41.444   3.838
24811W        W97236  37.989  26.671  12.834
24812W        W97237  13.836  25.000   2.255
24813W        W97238  39.501  17.586  12.435
24814W        W97239   4.437  39.434   4.702
24815W        W97240  11.150  20.641   1.344
24816W        W97241  16.106  14.295  14.282
24817W        W97242  12.831  20.551   2.334
24818W        W97243  37.366  28.002   1.723
24819W        W97244  22.136  26.487  10.641
24820W        W97245  31.919   6.875   2.379
24821W        W97246   9.378   7.359   2.724
24822W        W97247   9.229   1.462  12.823
24823W        W97248  42.889  14.310  11.512
24824W        W97249  28.043  40.358  11.003
24825W        W97250  29.106  41.038   0.744
24826W        W97251   3.448   1.920   3.275
24827W        W97252  43.905  33.898   4.167
24828W        W97253   0.292  21.052  13.884
24829W        W97254  29.424  19.719  13.948
24830W        W97255  38.872  34.436  14.392
24831W        W97256  39.055  27.172  13.042
24832W        W97257  14.756  31.936   5.199
24833W        W97258   1.450  27.561  11.376
24834W        W97259  44.407  12.630  10.573
24835W        W97260  21.188   6.329   1.823
24836W        W97261  10.383  25.597  11.956
24837W        W97262  28.025  20.216   3.299
24838W        W97263   8.674  19.049  11.378
24839W        W97264  31.435  35.968   1.403
24840W        W97265   0.346   8.768  14.785
24841W        W97266  36.564   0.979  13.476
24842W        W97267  26.134  41.318  10.608
24843W        W97268  36.885  23.100  14.440
24844W        W97269  42.364   1.466   0.914
24845W        W97270  14.739  10.842   2.228
24846W        W97271  33.388  19.607  12.516
24847W        W97272   2.872  14.607   0.391
24848W        W97273   2.421  32.918  13.830
24849W        W97274  30.115   8.222   2.209
24850W        W97275  26.011  22.568   4.344
24851W        W97276  12.719   2.874   3.300
24852W        W97277  38.343  28.659  13.318
24853W        W97278   9.338  38.340  10.431
24854W        W97279  37.976  17.577   3.848
24855W        W97280   3.736  42.912  11.053
24856W        W97281  30.638   1.970   4.185
24857W        W97282   1.834  33.415  13.006
24858W        W97283   3.255   6.235   3.848
24859W        W97284  44.359  31.914  13.392
24860W        W97285  33.425  25.029  13.906
24861W        W97286  10.735  26.513   1.744
24862W        W97287  12.844  44.812  11.911
24863W        W97288  21.041   4.353  14.497
24864W        W97289  42.418  20.139  13.797
24865W        W97290   4.273  15.674   4.170
24866W        W97291   8.750  30.560  12.563
24867W        W97292  10.692  36.542  11.516
24868W        W97293  37.383  19.166  10.466
24869W        W97294  10.735  21.041   1.277
24870W        W97295   9.744   4.703   1.882
24871W        W97296  26.017  20.209   1.216
24872W        W97297  31.448  39.017  13.399
24873W        W97298  38.566  33.566  12.366
24874W        W97299  32.093  19.670   1.701
24875W        W97300  27.963  14.235  12.366
24876W        W97301  35.527  23.580  14.001
24877W        W97302  14.691   6.230   1.260
24878W        W97303  24.060   0.843   1.723
24879W        W97304  35.386  41.016  10.919
24880W        W97305  25.695   4.349  10.909
24881W        W97306   1.269  27.940   0.727
24882W        W97307  32.041   5.852   0.413
24883W        W97308  33.101   9.350   3.358
24884W        W97309  15.705  34.035  10.449
24885W        W97310  36.387  16.802   4.728
24886W        W97311  39.375  38.025   0.369
24887W        W97312  41.899  38.962  10.962
24888W        W97313   1.941  12.802   1.398
24889W        W97314  37.396  19.651   1.449
24890W        W97315  40.055  24.021   0.414
24891W        W97316  21.075  19.583   9.959
24892W        W97317  42.409  33.463  11.580
24893W        W97318  36.589  40.802  12.824
24894W        W97319   7.789  34.563   1.742
24895W        W97320  31.150   1.909  14.826
24896W        W97321   0.391  31.024   3.720
24897W        W97322   6.850  25.091  10.587
24898W        W97323  28.013  41.943   0.805
24899W        W97324   0.393  33.912   0.818
24900W        W97325  37.417  25.675  14.886
24901W        W97326  41.874  33.038  12.410
24902W        W97327   4.342  35.428   3.868
24903W        W97328  27.135   0.354  14.949
24904W        W97329  11.793  28.599  11.032
24905W        W97330  42.378   5.886  11.045
24906W        W97331  29.521   5.746  14.955
24907W        W97332  28.947  37.935  11.955
24908W        W97333   3.459  38.375  13.871
24909W        W97334  23.209  41.019   3.835
24910W        W97335   3.751  38.059  13.542
24911W        W97336  25.006  43.430  10.896
24912W        W97337   5.249  26.997   1.244
24913W        W97338  44.827  17.771  14.481
24914W        W97339  35.358   7.232   2.741
24915W        W97340  32.067  23.987  14.002
24916W        W97341  21.095  33.084  14.933
24917W        W97342  35.966   0.454   4.750
24918W        W97343  13.720  24.616   3.261
24919W        W97344   3.347  36.898   1.730
24920W        W97345  14.304  36.456   5.311
24921W        W97346   2.430  20.040  10.469
24922W        W97347  10.680   4.861   1.756
24923W        W97348  12.348  44.923   3.382
24924W        W97349  10.865   0.867   3.219
24925W        W97350  17.634  25.468  12.949
24926W        W97351  37.863  16.303   3.859
24927W        W97352   2.299  23.188   4.230
24928W        W97353   3.925  16.651  12.056
24929W        W97354  27.525  22.579   9.527
24930W        W97355  36.999  32.628   1.313
24931W        W97356  26.009  44.915   2.252
24932W        W97357  35.584  35.983   4.628
24933W        W97358  37.042  31.469   4.127
24934W        W97359  26.032  33.913  14.390
24935W        W97360   8.244  40.040  12.371
24936W        W97361  37.577  15.751   1.908
24937W        W97362  38.969  14.826  10.918
24938W        W97363  44.755   5.901  13.391
24939W        W97364   2.760  29.090  14.021
24940W        W97365   9.755  13.246   4.315
24941W        W97366  11.136   0.457   0.921
24942W        W97367  37.883  40.337   1.267
24943W        W97368  29.962  28.492  12.554
24944W        W97369  36.942   2.402  10.466
24945W        W97370  20.223  31.481   2.768
24946W        W97371  13.254  21.513   3.756
24947W        W97372  23.722  23.627  12.491
24948W        W97373  15.205   2.940   0.315
24949W        W97374  41.846  18.137  10.421
24950W        W97375  16.737  42.309   3.152
24951W        W97376  24.184  26.627  14.784
24952W        W97377  40.513  18.595   0.847
24953W        W97378  42.310  10.642   2.792
24954W        W97379  32.475  41.791  13.533
24955W        W97380  34.450  14.668  10.418
24956W        W97381  31.598  17.128   4.628
24957W        W97382  42.438  40.961   2.688
24958W        W97383   7.792   7.240  11.859
24959W        W97384  18.117  35.538   4.308
24960W        W97385   8.357   9.844  12.929
24961W        W97386  36.946   1.735  10.590
24962W        W97387  42.957  43.469  10.514
24963W        W97388   2.329   3.269   3.367
24964W        W97389  24.229  24.659  10.552
24965W        W97390  36.060  28.637   2.383
24966W        W97391   9.768  11.361  10.962
24967W        W97392  37.985  27.966   0.944
24968W        W97393  33.446  10.652  11.056
24969W        W97394   7.349  18.631  13.408
24970W        W97395  36.423  33.416  14.770
24971W        W97396  38.829  18.672   3.852
24972W        W97397  13.199  39.494  11.381
24973W        W97398  30.573  22.620   0.960
24974W        W97399   5.202  32.608   2.687
24975W        W97400  42.303  39.911  14.284
24976W        W97401   4.382   5.912   2.901
24977W        W97402  20.756  40.923  11.548
24978W        W97403  25.079   5.301  10.415
24979W        W97404  39.975   1.745  11.918
24980W        W97405  12.115  19.665   4.342
24981W        W97406  36.366   4.322   2.238
24982W        W97407   2.465  16.207  13.432
24983W        W97408  27.572  40.946  13.328
24984W        W97409  44.352  17.240  12.081
24985W        W97410  42.333  25.151   0.469
24986W        W97411  43.302  32.397   1.899
24987W        W97412  18.091   6.892   1.295
24988W        W97413  26.009  32.099  10.070
24989W        W97414  40.361  27.174   0.260
24990W        W97415  34.079  30.544   1.359
24991W        W97416  19.197  43.011  13.333
24992W        W97417  29.451  13.350   1.933
24993W        W97418  41.033   7.725  13.855
24994W        W97419  27.501  40.310  10.145
24995W        W97420  19.718  18.722   0.379
24996W        W97421  24.211   4.754  11.609
24997W        W97422  38.949   9.278   2.681
24998W        W97423   7.822   4.907  12.386
24999W        W97424  24.725   0.979  10.501
25000W        W97425   1.404  28.104  14.408
25001W        W97426  26.092  21.259  11.932
25002W        W97427  37.496  25.193   1.714
25003W        W97428  26.647  23.102  11.940
25004W        W97429  12.125  11.833  13.329
25005W        W97430  14.212  42.016   0.943
25006W        W97431  14.236  39.924   4.183
25007W        W97432  11.216   0.829   3.237
25008W        W97433  27.678  35.542   3.759
25009W        W97434  33.105  28.048   0.402
25010W        W97435  26.487  16.151  10.919
25011W        W97436  27.168  20.155  14.416
25012W        W97437  32.526  24.065  12.422
25013W        W97438   7.407   3.881  12.068
25014W        W97439  44.886  43.862   2.178
25015W        W97440  14.807  32.543  10.576
25016W        W97441  11.752  17.791   0.334
25017W        W97442  39.922  39.975  11.858
25018W        W97443   3.343  36.961  13.031
25019W        W97444  24.509  41.886   2.872
25020W        W97445  14.325  21.047  13.390
25021W        W97446  32.629  14.733  11.916
25022W        W97447  18.166  27.449   1.351
25023W        W97448  21.722  33.877  11.936
25024W        W97449  41.341  20.209   3.199
25025W        W97450  31.537  34.371  14.785
25026W        W97451  31.521  11.630  13.529
25027W        W97452  44.505  14.152  11.478
25028W        W97453  20.608   0.770   0.312
25029W        W97454   7.721  29.923  13.955
25030W        W97455  44.260   3.889   3.768
25031W        W97456  15.084  15.662  12.374
25032W        W97457  37.581   8.668  11.430
25033W        W97458  10.801  26.092   1.316
25034W        W97459  35.934  21.658   3.768
25035W        W97460  14.188  39.925  13.964
25036W        W97461  39.838  22.564   0.913
25037W        W97462   5.194   4.872   3.377
25038W        W97463  41.967   4.428  13.437
25039W        W97464   9.272  31.525   2.664
25040W        W97465  20.125  28.147  10.451
25041W        W97466  18.051  42.448   1.817
25042W        W97467  27.090  44.461   1.230
25043W        W97468  41.353   5.205  11.978
25044W        W97469  35.088  42.408   0.894
25045W        W97470  29.146   0.788   0.338
25046W        W97471   6.905  23.556  13.840
25047W        W97472  43.360   5.299  13.817
25048W        W97473  41.491   3.461  10.529
25049W        W97474  25.677  41.433  13.993
25050W        W97475  10.800  11.230  11.440
25051W        W97476  24.137   8.853  12.579
25052W        W97477  11.826  43.281  12.841
25053W        W97478  12.288   7.274   1.310
25054W        W97479   1.887  18.123   4.715
25055W        W97480  30.446  34.091   3.676
25056W        W97481  35.070  20.717   4.773
25057W        W97482  40.921  26.142   4.676
25058W        W97483  16.696  40.536   3.252
25059W        W97484  18.622  11.185  13.308
25060W        W97485  28.067  42.459   0.955
25061W        W97486   1.777  43.289  14.862
25062W        W97487   8.303  17.659   4.308
25063W        W97488  25.531  44.988  14.025
25064W        W97489  35.527   3.937  10.993
25065W        W97490  28.511  16.235   3.252
25066W        W97491   5.200   1.324   4.829
25067W        W97492   0.350  21.206  11.501
25068W        W97493  34.908  19.748  12.027
25069W        W97494  17.164  12.730   0.339
25070W        W97495  17.581  42.419  11.512
25071W        W97496  11.851  13.133   3.669
25072W        W97497  19.216  32.515  12.420
25073W        W97498  41.391  39.352   4.249
25074W        W97499  43.382  21.125  11.103
25075W        W97500  32.574  10.724  10.513
25076W        W97501  29.553   0.812  11.571
25077W        W97502  16.210   7.711  11.387
25078W        W97503  24.575  16.583   3.713
25079W        W97504  37.058  30.569   3.252
25080W        W97505   3.305  40.874  14.496
25081W        W97506  28.116  28.621  10.533
25082W        W97507  28.550  28.585   1.282
25083W        W97508   4.719  27.524   4.799
25084W        W97509   9.728  43.515   0.776
25085W        W97510  12.263  32.493  13.354
25086W        W97511  24.508  27.027   2.888
25087W        W97512   9.384  33.033  14.379
25088W        W97513  38.366  27.960  14.849
25089W        W97514  40.408  23.176   1.332
25090W        W97515  27.668  29.645  12.904
25091W        W97516  19.282  44.391   4.699
25092W        W97517   8.196  30.442   1.868
25093W        W97518  27.578  39.553   5.307
25094W        W97519  38.971   3.794  14.778
25095W        W97520  37.504  11.650   1.412
25096W        W97521   2.835   5.758   4.741
25097W        W97522   1.888  23.151   1.369
25098W        W97523  11.645  35.564  12.052
25099W        W97524   7.808  30.025  10.639
25100W        W97525  42.920   1.358   4.165
25101W        W97526  22.056  33.597   3.660
25102W        W97527  42.460  22.017   2.263
25103W        W97528  25.619   2.323   0.781
25104W        W97529  34.565  41.848  13.362
25105W        W97530  21.681  19.231   2.690
25106W        W97531   7.305  11.676  11.084
25107W        W97532  17.603  24.069   1.807
25108W        W97533   6.245  15.627   2.761
25109W        W97534  11.223  11.762   1.872
25110W        W97535  23.605  43.285  14.515
25111W        W97536  19.141  33.127   4.249
25112W        W97537   1.324  40.869   3.758
25113W        W97538  17.292  34.486   3.629
25114W        W97539  39.336   3.889  14.863
25115W        W97540  26.569   1.307   2.342
25116W        W97541  20.135  36.096  12.886
25117W        W97542  10.191  44.962  12.008
25118W        W97543  41.390  16.735  10.624
25119W        W97544  31.022  16.751  10.423
25120W        W97545  28.616  36.951  10.621
25121W        W97546  16.745  16.755   4.673
25122W        W97547  12.216   1.292   4.721
25123W        W97548  32.937  37.071   2.827
25124W        W97549  37.940  29.937  10.492
25125W        W97550  43.851  21.258  13.944
25126W        W97551  40.921  23.531  10.469
25127W        W97552  44.792  34.045   3.793
25128W        W97553  32.062   2.831   3.150
25129W        W97554  21.736  28.559   4.121
25130W        W97555   9.296  36.380  11.906
25131W        W97556  39.485   0.358  14.820
25132W        W97557   5.736  13.220  13.868
25133W        W97558  33.888  19.552  11.028
25134W        W97559  18.072   2.409  14.317
25135W        W97560  15.585  26.475  13.481
25136W        W97561  14.630  18.674  12.356
25137W        W97562  15.316  23.143  13.475
25138W        W97563  28.994  34.868   0.404
25139W        W97564  43.322  43.833  13.835
25140W        W97565  20.252   6.744  10.543
25141W        W97566  21.573   2.298  12.534
25142W        W97567  31.639  14.201  10.609
25143W        W97568   4.299  14.321   2.764
25144W        W97569  25.182  22.569  14.473
25145W        W97570  11.752  10.158   2.337
25146W        W97571  37.396  22.511   0.468
25147W        W97572  43.394  32.620  11.463
25148W        W97573   0.353   2.744  13.450
25149W        W97574  39.334   2.821  10.942
25150W        W97575  22.726   6.890  10.496
25151W        W97576  14.692  38.063   1.387
25152W        W97577  25.584  43.324  13.974
25153W        W97578  21.690  39.865  13.450
25154W        W97579  13.108  44.409   3.349
25155W        W97580   1.732  27.176   2.782
25156W        W97581   0.958  43.848   2.773
25157W        W97582   2.279  40.317  11.944
25158W        W97583   7.763  25.046   4.705
25159W        W97584  21.608  11.677   3.257
25160W        W97585  21.235  36.487  13.850
25161W        W97586  40.811  22.006   4.199
25162W        W97587   5.753  20.225   3.708
25163W        W97588  27.635  27.138  12.523
25164W        W97589  33.104  33.879  12.493
25165W        W97590  20.106  44.901  10.481
25166W        W97591  31.635  39.960   1.876
25167W        W97592  16.288  11.308  11.458
25168W        W97593  44.424  26.035  11.498
25169W        W97594   8.696  19.229   1.384
25170W        W97595  17.101  32.059   1.230
25171W        W97596  43.507  17.226  12.975
25172W        W97597  19.245  24.522  11.589
25173W        W97598  22.206  19.552   3.834
25174W        W97599  35.005   5.309   0.838
25175W        W97600  42.929   7.805  11.857
25176W        W97601  27.492  28.941   0.866
25177W        W97602  13.689  15.726   3.383
25178W        W97603  34.391  11.804   0.728
25179W        W97604  39.016   4.809   5.155
25180W        W97605   0.342  23.075  12.485
25181W        W97606  19.094  44.974  12.896
25182W        W97607  28.449  43.948   0.401
25183W        W97608   0.753  40.470  14.279
25184W        W97609  35.527  39.011  11.376
25185W        W97610   4.436  43.921   3.248
25186W        W97611  38.028  34.937   0.894
25187W        W97612  30.473  29.657   1.381
25188W        W97613  44.964  42.011  12.427
25189W        W97614  15.709  29.516   3.710
25190W        W97615  34.530   9.878   0.376
25191W        W97616  37.490   5.819  14.379
25192W        W97617  13.836  44.805   2.882
25193W        W97618  22.631   5.268  12.930
25194W        W97619  35.407  41.500   4.287
25195W        W97620   9.180  10.172   2.385
25196W        W97621  44.321  44.298   4.750
25197W        W97622  12.263  27.592  13.533
25198W        W97623  32.924  10.804   3.714
25199W        W97624  11.335  39.392   2.346
25200W        W97625  26.122   4.797   1.768
25201W        W97626   2.958  26.974  11.063
25202W        W97627  26.032  13.765   4.182
25203W        W97628   1.805  32.425  12.433
25204W        W97629  35.093   3.901   4.212
25205W        W97630  26.100  35.538  12.447
25206W        W97631  35.912   5.202  11.858
25207W        W97632  39.978  10.632   3.221
25208W        W97633  29.435   0.984   0.788
25209W        W97634  33.610  11.205  14.347
25210W        W97635  33.563  17.245   0.316
25211W        W97636  19.755  16.577  14.354
25212W        W97637  39.987  39.978   4.289
25213W        W97638  23.991  29.471   2.322
25214W        W97639  21.206   8.768  12.047
25215W        W97640  35.926   6.291   1.871
25216W        W97641  34.892   0.479   3.814
25217W        W97642  37.888  14.810   2.863
25218W        W97643  16.595  18.638  11.508
25219W        W97644  33.391  27.004   2.748
25220W        W97645  26.692  10.206   3.836
25221W        W97646  40.048  33.453  14.949
25222W        W97647  19.235  29.429   0.446
25223W        W97648  29.610   3.354  14.776
25224W        W97649  11.646  27.502  11.442
25225W        W97650  18.698   9.198   2.201
25226W        W97651  20.133  16.307   3.828
25227W        W97652   2.877  40.838  12.919
25228W        W97653  39.941   2.339   0.457
25229W        W97654  36.059  43.386   1.916
25230W        W97655  14.755  10.342  13.347
25231W        W97656  16.312   7.763   0.327
25232W        W97657  25.548  37.379  13.973
25233W        W97658  16.591   0.312   0.792
25234W        W97659  30.026  23.658   3.757
25235W        W97660  14.651  39.497   0.874
25236W        W97661  24.188  21.177   5.304
25237W        W97662  20.271   6.315  13.913
25238W        W97663  35.077  18.261   4.231
25239W        W97664  31.082  38.414  10.609
25240W        W97665  40.808   9.741  13.961
25241W        W97666  11.218  33.549   4.163
25242W        W97667  34.897  27.005   0.254
25243W        W97668  18.742  26.148   1.917
25244W        W97669  42.455   0.762   3.845
25245W        W97670  38.438   1.901   2.802
25246W        W97671   6.188   3.250  11.595
25247W        W97672  19.255  37.348  11.007
25248W        W97673  15.651  33.604   3.351
25249W        W97674  11.674  32.066   3.375
25250W        W97675   1.274   2.962   0.893
25251W        W97676  42.297  20.270   1.331
25252W        W97677  16.090  24.539  11.080
25253W        W97678  12.220  16.165   0.908
25254W        W97679  25.661  27.670  14.420
25255W        W97680  36.006  37.386   2.703
25256W        W97681  29.059  18.088   3.361
25257W        W97682  40.948  29.513  11.925
25258W        W97683   4.218  42.471   4.728
25259W        W97684  41.419  14.673  10.533
25260W        W97685  17.727  35.923  10.468
25261W        W97686  38.370  43.398  12.532
25262W        W97687   2.387   5.792   2.702
25263W        W97688   4.769  40.053   1.290
25264W        W97689   6.375  39.912   3.846
25265W        W97690  30.096  27.103  14.016
25266W        W97691   9.218  19.666   9.969
25267W        W97692  42.922  29.023  12.419
25268W        W97693   0.467  27.572  13.491
25269W        W97694  34.491   2.941   3.360
25270W        W97695  29.026  31.152   4.137
25271W        W97696  22.181  26.095  10.527
25272W        W97697  10.343   4.312   3.195
25273W        W97698   5.829  20.551  11.865
25274W        W97699   2.906  42.832  13.329
25275W        W97700   7.398  14.210   1.797
25276W        W97701  17.621  22.157   1.856
25277W        W97702  26.484  37.505   0.459
25278W        W97703   4.720  21.250   0.741
25279W        W97704  19.139   0.967  13.477
25280W        W97705   9.296  36.530  12.370
25281W        W97706  39.021  36.413   1.419
25282W        W97707   2.409  39.388   3.386
25283W        W97708  12.749  33.995   0.940
25284W        W97709  39.040  40.434   3.153
25285W        W97710  26.570  20.577   4.759
25286W        W97711   3.421  37.414  13.045
25287W        W97712  38.056  21.237   1.810
25288W        W97713  28.463  41.989   3.816
25289W        W97714  41.326  39.319   0.774
25290W        W97715  33.553  39.557   1.382
25291W        W97716  17.625  18.546  11.403
25292W        W97717  22.106  37.562   2.288
25293W        W97718  36.848   7.179   4.135
25294W        W97719  34.519  26.029   4.738
25295W        W97720   5.232  38.870   2.390
25296W        W97721   1.773  27.093   0.360
25297W        W97722  38.943  24.660   2.239
25298W        W97723  37.345  23.136   1.230
25299W        W97724  10.140   5.221  12.368
25300W        W97725   3.736  42.825   1.874
25301W        W97726   2.381  16.240  11.600
25302W        W97727  41.939   1.964   0.948
25303W        W97728  38.868  21.260   1.721
25304W        W97729  28.496  10.704  13.344
25305W        W97730   4.224  23.629   0.726
25306W        W97731  24.624  34.429   0.847
25307W        W97732   6.316  23.730  13.546
25308W        W97733  39.381  21.720  14.938
25309W        W97734  17.575   9.781  14.471
25310W        W97735  38.924  37.395  10.471
25311W        W97736  33.400  28.011  12.941
25312W        W97737   2.871  29.560   1.917
25313W        W97738   1.457  32.481   3.822
25314W        W97739  34.424  43.293  14.969
25315W        W97740   9.270  38.510  12.375
25316W        W97741   6.361  32.912   0.789
25317W        W97742  30.445  18.696   3.210
25318W        W97743  12.206   9.205   3.750
25319W        W97744   3.241  38.392  14.456
25320W        W97745  10.773  17.115  12.958
25321W        W97746  11.232  29.000  14.816
25322W        W97747  44.989  14.733  12.414
25323W        W97748   5.722  25.209  13.912
25324W        W97749  13.675  10.224  13.961
25325W        W97750  37.415  44.808   3.638
25326W        W97751  21.169  41.953   1.333
25327W        W97752  22.736  22.736  12.449
25328W        W97753  30.508  27.955  10.983
25329W        W97754  19.616  34.093   3.630
25330W        W97755  18.138   0.261   2.296
25331W        W97756  40.513  20.663   1.387
25332W        W97757  38.039  19.599  14.797
25333W        W97758  38.565  33.123   2.246
25334W        W97759  31.954  18.610   2.739
25335W        W97760  30.510  20.230   2.179
25336W        W97761  24.633  27.044  11.542
25337W        W97762  38.395  40.950   0.911
25338W        W97763  31.102  36.090   0.852
25339W        W97764  31.616  25.012   1.794
25340W        W97765   9.674  27.493   4.293
25341W        W97766  30.108   0.343   4.238
25342W        W97767   4.848   2.882  11.419
25343W        W97768   1.403  15.799  14.860
25344W        W97769   3.454   4.855  11.983
25345W        W97770  28.681  44.290  14.963
25346W        W97771  11.662  44.767   0.838
25347W        W97772  37.060  17.175  14.897
25348W        W97773   8.237  32.933   4.150
25349W        W97774   1.252  16.171  10.600
25350W        W97775   1.901  11.635  12.856
25351W        W97776  18.218  31.547   1.363
25352W        W97777  22.092  15.748   1.276
25353W        W97778  37.465   9.161   5.301
25354W        W97779  44.464  17.602   1.343
25355W        W97780  27.657  10.837  12.494
25356W        W97781  41.976  17.215   2.853
25357W        W97782  20.207  11.853  12.401
25358W        W97783   4.328  28.117  12.890
25359W        W97784  19.558  21.140  11.858
25360W        W97785  21.035  38.441  14.515
25361W        W97786  29.065  40.840  14.390
25362W        W97787  17.683  43.349  13.440
25363W        W97788  33.111  36.486   0.827
25364W        W97789  36.873  17.592  11.587
25365W        W97790  14.210   1.743  10.557
25366W        W97791  30.016   3.443   2.377
25367W        W97792  24.529  28.939  14.928
25368W        W97793  30.163  11.246   2.198
25369W        W97794   8.702  21.071   2.699
25370W        W97795   0.851   4.255  13.004
25371W        W97796  30.657  44.331  11.086
25372W        W97797  12.210   7.744  11.921
25373W        W97798   3.259  12.330   4.196
25374W        W97799  26.692  22.559  11.543
25375W        W97800   1.432  16.236  14.357
25376W        W97801  33.539  35.532   1.279
25377W        W97802   5.801  18.747   0.736
25378W        W97803  29.109   4.397   1.286
25379W        W97804  26.662  31.971  13.821
25380W        W97805  39.901  29.568   4.312
25381W        W97806  24.185  26.170  12.374
25382W        W97807  41.305  37.356  10.488
25383W        W97808  18.681  11.255  11.096
25384W        W97809  27.488  33.518  14.316
25385W        W97810   4.792  38.433  10.487
25386W        W97811  41.358   2.762   3.844
25387W        W97812  16.697  19.177   4.189
25388W        W97813  20.641   5.225  11.385
25389W        W97814   9.368  32.978   2.193
25390W        W97815  43.904  27.969   4.830
25391W        W97816  28.507  20.235   1.718
25392W        W97817  35.007   6.401   1.794
25393W        W97818  31.530   7.330   2.217
25394W        W97819   9.690   9.731   4.183
25395W        W97820   4.923  15.283   1.789
25396W        W97821  31.960  39.484   3.694
25397W        W97822  37.081  38.442  13.476
25398W        W97823  31.404   8.843  12.039
25399W        W97824  19.086  38.549   3.265
25400W        W97825  24.183  41.000   2.418
25401W        W97826  26.608  33.547   2.244
25402W        W97827  19.575  16.667  13.930
25403W        W97828  12.779   2.879  11.582
25404W        W97829  10.826   5.846   0.330
25405W        W97830   1.410  19.762   4.128
25406W        W97831  17.660   9.326  10.432
25407W        W97832  32.512  18.217   0.280
25408W        W97833  13.314  19.174  13.516
25409W        W97834  36.861   9.793  13.926
25410W        W97835   4.419  33.540  10.451
25411W        W97836   8.765  10.822  12.468
25412W        W97837   8.351  31.618  12.981
25413W        W97838   7.837  30.472   4.229
25414W        W97839   3.729   4.296  13.442
25415W        W97840   5.366  30.037  14.458
25416W        W97841  17.190   3.265  11.375
25417W        W97842   6.399   3.458  14.426
25418W        W97843  41.484  42.807   2.202
25419W        W97844  11.264   6.910   1.447
25420W        W97845  34.608  27.037  13.962
25421W        W97846   7.352   4.943   3.264
25422W        W97847   2.403  15.594  10.438
25423W        W97848  13.124   1.368   0.850
25424W        W97849  26.087  13.642  12.076
25425W        W97850   7.179  32.549  13.389
25426W        W97851  35.061  17.212  11.955
25427W        W97852   9.228  10.665   0.767
25428W        W97853  23.240  35.868  10.545
25429W        W97854   6.779   5.853  10.421
25430W        W97855  21.162  17.799   2.241
25431W        W97856  35.923   8.670   5.785
25432W        W97857  24.630  26.000   0.923
25433W        W97858  42.409  15.705  11.526
25434W        W97859  34.070  44.372  14.413
25435W        W97860   6.341  38.880  14.411
25436W        W97861  38.475  20.123   2.411
25437W        W97862  18.254  35.521  13.534
25438W        W97863  20.576  39.951  14.482
25439W        W97864  28.645  13.189  14.963
25440W        W97865  44.983   8.817   3.838
25441W        W97866  33.013   0.470  13.483
25442W        W97867  26.987   1.881  13.866
25443W        W97868   3.445   4.427   1.801
25444W        W97869  37.439  37.488   1.901
25445W        W97870  40.054  15.748   4.299
25446W        W97871  43.505   9.864   0.963
25447W        W97872  10.720  35.070  11.119
25448W        W97873  25.607  44.834  12.014
25449W        W97874   4.750  17.258  12.360
25450W        W97875  36.870   2.342  13.464
25451W        W97876  13.106  41.917  14.488
25452W        W97877   4.746  15.743  11.016
25453W        W97878  30.073  15.697   4.116
25454W        W97879  34.408  42.907  12.396
25455W        W97880  39.959  25.201   2.790
25456W        W97881  28.064  44.832  10.095
25457W        W97882  39.490  29.562  14.974
25458W        W97883   7.205  16.695   0.409
25459W        W97884  28.529  41.798  11.016
25460W        W97885   7.859  11.189   4.134
25461W        W97886  23.161  31.017  13.895
25462W        W97887  32.537  30.113  13.980
25463W        W97888  29.607  17.607   2.837
25464W        W97889  38.920  26.650   2.260
25465W        W97890  15.276   7.863  11.025
25466W        W97891   2.756  43.305   0.737
25467W        W97892   8.793  19.669  12.447
25468W        W97893  12.138   6.704   0.736
25469W        W97894  16.659  33.006  12.004
25470W        W97895  20.587  17.756  10.484
25471W        W97896   0.403  24.046   2.386
25472W        W97897   1.970   7.828   3.631
25473W        W97898  21.683  37.438   0.323
25474W        W97899  32.049  40.378  11.011
25475W        W97900  25.029  22.044  12.067
25476W        W97901  24.161  16.628   4.169
25477W        W97902  38.369  22.612  14.449
25478W        W97903  29.657  16.804   2.729
25479W        W97904  36.030  10.178  12.829
25480W        W97905  44.863  14.618  10.483
25481W        W97906   2.441  29.959  14.326
25482W        W97907  37.444  38.021   4.136
25483W        W97908  43.320  13.339  13.866
25484W        W97909  35.441  40.031  12.964
25485W        W97910  39.549   7.766   4.183
25486W        W97911   9.761   9.162   4.115
25487W        W97912  20.075  17.225  13.956
25488W        W97913  12.738  25.499  10.613
25489W        W97914  38.553   4.811  14.372
25490W        W97915   3.458  39.925  10.155
25491W        W97916   4.352  30.506   1.351
25492W        W97917   6.236  19.540   1.903
25493W        W97918  22.692  34.011   0.777
25494W        W97919  15.250  39.955  14.419
25495W        W97920  27.052  11.159   3.697
25496W        W97921  22.129  39.934  11.937
25497W        W97922   2.322  19.050  13.060
25498W        W97923  19.716  21.592  14.777
25499W        W97924   2.846  33.588  11.979
25500W        W97925  13.778   0.836  12.549
25501W        W97926  25.572  22.208  10.435
25502W        W97927  30.495  36.409  11.406
25503W        W97928  18.589  15.713   1.719
25504W        W97929  37.949  35.442   0.281
25505W        W97930  35.483  17.729   4.795
25506W        W97931   1.890  33.514   0.943
25507W        W97932   7.880  11.739   4.139
25508W        W97933  30.468  36.933   3.682
25509W        W97934  34.865  20.184   0.921
25510W        W97935   9.217  24.535  14.996
25511W        W97936  23.119  36.392   4.808
25512W        W97937   6.233   6.905  14.825
25513W        W97938  21.083   7.389  14.819
25514W        W97939  31.968  38.453   3.695
25515W        W97940  22.619  26.958   0.907
25516W        W97941  38.074  25.704   2.327
25517W        W97942   7.675   6.398  13.351
25518W        W97943  23.559  40.481  13.991
25519W        W97944  34.372  11.797  14.876
25520W        W97945  36.488  41.919  12.041
25521W        W97946  41.357   7.729   2.398
25522W        W97947  13.139  19.687   1.869
25523W        W97948  31.647  43.351   1.415
25524W        W97949  23.542   6.686  11.084
25525W        W97950  30.561   8.706   3.149
25526W        W97951  13.146  36.996   0.877
25527W        W97952  22.720  32.990   3.385
25528W        W97953  31.428  14.183   4.346
25529W        W97954   4.814  17.647   2.765
25530W        W97955  14.636  24.588   9.460
25531W        W97956  18.650  21.189  13.830
25532W        W97957   6.259  12.170   2.234
25533W        W97958  40.968  35.370  10.986
25534W        W97959  29.996   9.869  11.467
25535W        W97960  10.780  35.449  10.560
25536W        W97961  22.245  12.695   1.857
25537W        W97962  40.407  25.174   1.391
25538W        W97963  16.785  31.531  10.610
25539W        W97964  41.867  40.977  12.567
25540W        W97965  38.017   7.235  10.907
25541W        W97966   2.393  32.631   2.340
25542W        W97967  28.607   6.185   4.652
25543W        W97968  26.662  12.145   4.250
25544W        W97969  44.387  13.270  12.031
25545W        W97970  16.173  22.139  10.486
25546W        W97971  44.902  16.295   1.865
25547W        W97972  35.008  17.720   4.194
25548W        W97973  38.861  16.307   0.269
25549W        W97974  30.971  23.079   9.966
25550W        W97975  36.436  27.969  14.456
25551W        W97976  13.767  40.920   0.730
25552W        W97977  22.706  12.262  14.336
25553W        W97978   4.703  42.856  13.064
25554W        W97979  41.990  19.257  14.930
25555W        W97980  27.463   1.765  11.059
25556W        W97981   9.281  10.758   2.412
25557W        W97982  27.495  20.198   0.763
25558W        W97983  41.041  33.389  11.944
25559W        W97984  20.060  27.538  14.834
25560W        W97985  41.846  15.202  12.023
25561W        W97986  23.056   3.917  12.959
25562W        W97987  33.580  23.616  10.582
25563W        W97988   7.798  12.690  13.428
25564W        W97989  10.360  30.932  11.110
25565W        W97990  38.931  23.075  12.883
25566W        W97991  35.455  16.120  13.919
25567W        W97992  19.662  39.502  13.978
25568W        W97993  22.704  35.563  12.016
25569W        W97994  16.607  36.844   2.303
25570W        W97995   6.419  20.239   9.975
25571W        W97996  20.702  22.693   1.893
25572W        W97997  39.509  29.057   1.367
25573W        W97998   5.403  43.825  13.531
25574W        W97999  35.378   0.381  14.319
25575W        W98000  24.653  22.163   1.868
25576W        W98001   5.814   3.764   2.731
25577W        W98002   1.774  41.510   1.702
25578W        W98003  20.755  40.501  12.399
25579W        W98004  35.404  36.415  13.469
25580W        W98005  24.181  22.073  11.876
25581W        W98006  19.088  22.746   1.290
25582W        W98007   9.690  23.698  11.097
25583W        W98008  12.691  26.623   3.790
25584W        W98009   0.903  16.074  13.845
25585W        W98010   5.928   0.819   3.673
25586W        W98011  24.488  41.441  11.032
25587W        W98012   9.222  22.106  12.999
25588W        W98013  31.409  30.115  12.409
25589W        W98014  24.990  38.066   4.252
25590W        W98015   0.473  39.827  11.565
25591W        W98016  15.719  19.715  12.952
25592W        W98017  20.763  14.693   3.327
25593W        W98018  30.996  10.225   3.856
25594W        W98019  13.810  22.572  11.118
25595W        W98020  15.695  11.759  14.793
25596W        W98021  21.061  23.019   2.751
25597W        W98022   7.350   1.411  13.522
25598W        W98023  15.740  29.437  14.357
25599W        W98024   7.778  14.832   1.297
25600W        W98025  12.307  27.558   1.339
25601W        W98026  26.554  28.625  10.440
25602W        W98027  44.932  41.937   3.271
25603W        W98028   7.321  15.252   2.412
25604W        W98029  24.673  25.151  14.823
25605W        W98030  43.866  26.048   0.847
25606W        W98031  10.271  42.834   3.760
25607W        W98032   8.664  33.430   3.254
25608W        W98033  22.062  32.006   2.398
25609W        W98034   8.843   6.750   4.245
25610W        W98035  14.325  10.146  13.434
25611W        W98036   2.784  21.522   4.286
25612W        W98037  15.753  15.172   3.740
25613W        W98038   7.189  37.077   1.284
25614W        W98039   9.765   6.704   2.698
25615W        W98040  38.561  34.547  12.905
25616W        W98041  42.817  44.007   3.215
25617W        W98042  24.585  31.049  10.577
25618W        W98043  44.940  15.313  10.960
25619W        W98044  21.252  43.990   4.740
25620W        W98045  40.312  11.692   0.917
25621W        W98046   3.345  25.709  13.859
25622W        W98047  42.942  40.315   2.840
25623W        W98048  43.443  33.562  10.607
25624W        W98049  40.307  34.510   0.810
25625W        W98050  30.115  23.646   5.630
25626W        W98051  21.187  19.553   0.927
25627W        W98052  10.338  35.473  12.362
25628W        W98053  38.401   8.812   4.187
25629W        W98054  18.579  33.457   4.649
25630W        W98055  30.150  19.763  10.896
25631W        W98056  23.235  30.504  12.958
25632W        W98057  24.508  42.961   4.703
25633W        W98058  35.032  16.572   4.293
25634W        W98059  11.724  38.029   2.831
25635W        W98060  29.650  34.888   4.284
25636W        W98061  16.185   9.849   4.222
25637W        W98062  22.513  20.642  10.997
25638W        W98063  19.270  10.156   0.471
25639W        W98064   9.368  18.189  12.874
25640W        W98065   2.402  22.521   0.867
25641W        W98066  11.704  11.143  11.609
25642W        W98067  39.808  38.832   3.177
25643W        W98068  43.284  11.162   0.736
25644W        W98069  31.104  18.208  10.544
25645W        W98070  19.164  12.794   4.695
25646W        W98071   5.789   7.249  14.292
25647W        W98072  21.262   1.381  11.397
25648W        W98073  15.703  29.656   4.290
25649W        W98074  37.478  32.115  12.042
25650W        W98075   1.963  21.214   3.181
25651W        W98076  41.957  43.417  12.001
25652W        W98077  25.572  36.941  10.600
25653W        W98078  19.172   7.299   4.239
25654W        W98079  40.432  11.240   1.257
25655W        W98080   9.169  26.022  11.907
25656W        W98081  32.887  16.273  11.471
25657W        W98082  27.005   6.799   3.693
25658W        W98083  41.847  37.396  10.500
25659W        W98084  39.982  21.139   0.836
25660W        W98085   9.763  34.415  12.495
25661W        W98086  15.810  23.195  11.493
25662W        W98087  27.125  34.941  11.052
25663W        W98088  14.820  10.283   0.289
25664W        W98089  31.567   7.273  11.492
25665W        W98090  10.184  37.837   3.380
25666W        W98091  21.155  25.514  13.986
25667W        W98092  39.927  33.549   3.682
25668W        W98093  21.582  38.334   2.253
25669W        W98094  16.712  40.993  13.857
25670W        W98095  34.408  25.565  10.931
25671W        W98096  23.504   1.740   1.341
25672W        W98097  29.448  12.133   2.231
25673W        W98098   6.699  35.494  11.387
25674W        W98099  17.763  34.866  13.830
25675W        W98100  35.948  24.225  13.960
25676W        W98101   8.748  31.923   1.232
25677W        W98102  38.467  41.859  13.025
25678W        W98103   6.835   8.704   1.862
25679W        W98104  11.257  36.491   3.281
25680W        W98105  25.580  20.209  14.445
25681W        W98106   0.490  37.906  10.519
25682W        W98107   5.888  31.558   3.313
25683W        W98108  26.464   6.186   3.699
25684W        W98109  34.379  43.381  11.437
25685W        W98110   4.411   1.911   4.290
25686W        W98111   6.401  12.203   1.331
25687W        W98112   1.411  36.957  14.853
25688W        W98113   0.764  16.078   0.331
25689W        W98114  44.394   4.310  10.504
25690W        W98115  22.140  33.907  10.605
25691W        W98116  31.102  15.742   3.262
25692W        W98117   6.396   4.704  11.874
25693W        W98118  36.898  26.043  14.825
25694W        W98119   1.745  21.210  13.913
25695W        W98120  38.334  40.936  11.905
25696W        W98121  12.282  29.145  14.000
25697W        W98122  12.770  37.467  10.471
25698W        W98123  14.320  32.913  13.861
25699W        W98124   2.818  13.734  14.992
25700W        W98125  26.058  44.264  12.568
25701W        W98126   0.752  12.224  13.541
25702W        W98127  25.209  20.567  10.470
25703W        W98128  19.537  34.897  13.868
25704W        W98129  36.083  14.747  14.010
25705W        W98130  29.633  19.684  11.051
25706W        W98131  17.177  34.884  11.050
25707W        W98132  44.387  27.978  14.980
25708W        W98133   3.716  37.864   1.898
25709W        W98134   0.784   0.326   4.679
25710W        W98135  22.121   0.294   2.673
25711W        W98136  26.072  39.968  10.503
25712W        W98137  22.623  34.607   0.847
25713W        W98138  13.227  11.769  14.945
25714W        W98139   9.205  35.056  12.839
25715W        W98140  21.669   6.329   0.877
25716W        W98141  10.368  42.325  10.513
25717W        W98142  21.207  33.572   1.816
25718W        W98143   0.471  24.082   1.868
25719W        W98144  24.689  12.314  12.534
25720W        W98145  44.297  29.926   0.966
25721W        W98146  43.270   8.692  11.038
25722W        W98147   8.237  21.713   0.957
25723W        W98148  27.148  42.370   0.448
25724W        W98149  44.397  14.152  12.558
25725W        W98150   5.740  43.975  13.893
25726W        W98151  25.007  42.017   4.747
25727W        W98152  43.887   0.977   1.390
25728W        W98153  34.920   1.771   9.926
25729W        W98154  33.596  31.457   4.244
25730W        W98155  37.527  13.846   4.644
25731W        W98156  26.048   2.912   4.240
25732W        W98157  31.473  23.056  10.896
25733W        W98158  20.034   1.825   4.193
25734W        W98159  24.670  14.667   4.179
25735W        W98160   4.855  37.996  12.488
25736W        W98161  33.417  41.958   2.667
25737W        W98162  21.749  40.973   0.746
25738W        W98163  37.429  33.931  14.981
25739W        W98164  39.495  31.591   0.300
25740W        W98165  42.884  27.089  13.982
25741W        W98166   7.784   9.666   2.672
25742W        W98167  33.514   6.248   1.706
25743W        W98168  10.678  35.491  14.924
25744W        W98169   0.986  16.109  12.461
25745W        W98170  32.012  22.608   2.712
25746W        W98171  16.072   2.288  14.843
25747W        W98172   7.228  21.534  13.839
25748W        W98173   2.919  28.564  11.585
25749W        W98174  28.099   8.887   2.365
25750W        W98175  27.195  30.616   2.391
25751W        W98176  38.538  11.135   4.830
25752W        W98177   9.787  27.483  11.490
25753W        W98178   4.930  29.612   2.249
25754W        W98179  13.836  30.434  12.983
25755W        W98180  31.546  25.601   1.212
25756W        W98181  15.656   3.810  11.588
25757W        W98182  27.482  14.216  12.079
25758W        W98183  29.653  32.493  12.024
25759W        W98184  42.487  38.031  11.940
25760W        W98185  44.461  39.875   1.927
25761W        W98186  38.346   8.778  12.955
25762W        W98187  42.407  37.422  14.764
25763W        W98188  15.152  28.152   2.273
25764W        W98189  16.235  27.522  13.462
25765W        W98190  28.145   3.277   4.715
25766W        W98191  41.826  41.005  12.996
25767W        W98192  44.796   9.713  13.830
25768W        W98193  39.848   9.174   1.275
25769W        W98194   0.983  19.588   1.262
25770W        W98195  12.343  13.141   2.228
25771W        W98196  33.499   1.973   0.786
25772W        W98197  13.677  31.017   3.772
25773W        W98198  39.885  10.728  13.021
25774W        W98199  16.102  15.119  14.001
25775W        W98200   7.907   7.902   0.328
25776W        W98201  12.345   3.894  10.450
25777W        W98202  31.578  13.113  10.439
25778W        W98203   7.774  28.172  10.042
25779W        W98204   8.217  33.958  14.875
25780W        W98205  35.963  40.988   0.412
25781W        W98206  41.998   4.809  13.028
25782W        W98207  10.374  44.824   4.345
25783W        W98208  10.842  17.099  14.026
25784W        W98209  27.103  32.583   3.189
25785W        W98210   5.278   4.721  14.846
25786W        W98211  29.129  42.463  13.512
25787W        W98212   4.703  22.188   1.376
25788W        W98213   9.353  23.509  13.819
25789W        W98214  25.541  41.984   2.279
25790W        W98215   2.302  30.595  12.887
25791W        W98216  41.501  21.079  12.993
25792W        W98217  27.141  31.080   0.881
25793W        W98218  35.507  42.327  13.437
25794W        W98219  38.991  33.998   0.963
25795W        W98220  28.093   2.235  10.901
25796W        W98221  34.605  38.450  11.383
25797W        W98222  12.183  28.025  10.616
25798W        W98223   8.263   9.715   2.895
25799W        W98224   3.871  30.072   2.341
25800W        W98225  21.233  25.985  11.117
25801W        W98226   5.388  13.730   4.224
25802W        W98227  41.385  12.851   4.257
25803W        W98228  29.067   8.706  10.537
25804W        W98229  38.842  14.102   3.256
25805W        W98230  11.857  24.619  14.772
25806W        W98231   3.928  25.018   4.346
25807W        W98232  24.572  14.194   1.719
25808W        W98233  12.720  19.620   3.761
25809W        W98234  11.157  26.018   3.685
25810W        W98235   4.314   8.777   4.763
25811W        W98236  30.000   4.819   4.146
25812W        W98237  11.255  29.955  11.461
25813W        W98238   9.157  31.602   4.235
25814W        W98239  14.604  30.065  11.504
25815W        W98240  44.813  36.532  14.789
25816W        W98241  25.690   5.311   1.925
25817W        W98242  15.199  12.249  10.638
25818W        W98243  26.619   4.736  12.032
25819W        W98244  12.656   7.688  14.804
25820W        W98245  23.644  28.656  13.856
25821W        W98246   1.338  31.028   3.338
25822W        W98247  37.904  38.824  13.459
25823W        W98248  27.644  17.683  10.553
25824W        W98249  38.872  34.011  14.932
25825W        W98250  38.990  18.184   0.290
25826W        W98251  39.821  28.956   4.707
25827W        W98252  37.926  35.440  14.889
25828W        W98253  44.915  19.549  12.362
25829W        W98254  13.199  19.707  10.404
25830W        W98255   9.199  30.156   1.351
25831W        W98256  37.454   9.296   3.847
25832W        W98257  31.037   1.939   2.338
25833W        W98258  11.784  39.048  10.069
25834W        W98259  36.936   9.332  11.482
25835W        W98260  32.906  35.365   3.257
25836W        W98261  21.205  42.907   0.427
25837W        W98262  34.097  44.961   1.819
25838W        W98263  17.640  13.720  12.479
25839W        W98264  42.423   6.860  12.429
25840W        W98265  15.209  20.193  14.406
25841W        W98266  28.606   0.393   3.729
25842W        W98267   7.270  30.982   2.698
25843W        W98268  43.329  29.450   2.863
25844W        W98269   2.392  31.918  14.313
25845W        W98270  34.500  34.493  13.539
25846W        W98271  16.572  44.304   2.343
25847W        W98272  19.284  31.501   1.839
25848W        W98273  17.753  26.570   4.179
25849W        W98274  12.751  17.095   2.684
25850W        W98275  17.712  30.572   0.259
25851W        W98276  43.465  20.267  13.541
25852W        W98277  31.001   7.844   1.704
25853W        W98278  44.374  36.888  14.502
25854W        W98279  42.361  26.476  12.393
25855W        W98280  24.625  11.674  14.868
25856W        W98281  13.732  22.701  13.334
25857W        W98282   3.738  39.965  14.354
25858W        W98283   8.715   6.704  14.003
25859W        W98284   2.878  33.538   2.322
25860W        W98285  40.339   6.183  14.777
25861W        W98286  17.729  33.128   4.317
25862W        W98287  16.700  37.442  11.020
25863W        W98288  33.473  11.818  10.994
25864W        W98289  11.687  14.817  11.603
25865W        W98290  28.632   8.340  11.568
25866W        W98291  28.473   3.748  12.494
25867W        W98292  10.324  23.611  14.994
25868W        W98293  29.585  10.381  11.525
25869W        W98294   6.841   1.435   2.209
25870W        W98295   9.357  35.562  13.882
25871W        W98296   5.712   9.771   3.312
25872W        W98297  16.809  13.261   2.867
25873W        W98298  39.916  18.111   3.349
25874W        W98299  28.463  17.095   2.391
25875W        W98300  44.878  12.628   0.855
25876W        W98301  34.389   3.410   0.289
25877W        W98302  12.294  40.410   4.628
25878W        W98303  17.640  29.958  12.394
25879W        W98304   6.345  44.500  14.892
25880W        W98305  13.783  23.569  12.556
25881W        W98306   9.326  16.235   0.378
25882W        W98307  17.261  14.591   2.860
25883W        W98308  38.372  31.518  10.935
25884W        W98309  27.180  15.698  12.468
25885W        W98310  12.719   5.741   3.213
25886W        W98311  23.210  32.035   3.173
25887W        W98312  33.390   9.378  10.910
25888W        W98313  10.240  12.280   3.773
25889W        W98314  12.121  27.665   4.714
25890W        W98315   8.176  27.527  13.537
25891W        W98316   1.740   7.189  13.498
25892W        W98317  21.717  18.764   0.871
25893W        W98318  11.183  27.061   2.268
25894W        W98319  11.671  43.997  10.981
25895W        W98320   1.916  12.768   0.744
25896W        W98321   6.902  34.391   2.397
25897W        W98322  14.780  13.742  14.509
25898W        W98323  24.066  44.485  14.318
25899W        W98324  28.169  33.423  10.035
25900W        W98325  35.916   6.253  13.395
25901W        W98326   8.670  15.612   3.767
25902W        W98327  13.262  24.712   2.703
25903W        W98328   3.338  10.632   0.413
25904W        W98329  20.231  16.706  11.885
25905W        W98330  29.547  10.320   4.736
25906W        W98331   4.247   4.430   3.315
25907W        W98332   8.717  11.195  14.908
25908W        W98333  34.086  32.978   1.902
25909W        W98334  20.676  24.594   2.359
25910W        W98335  41.794  16.277  11.425
25911W        W98336  35.596  43.900  10.613
25912W        W98337  42.451  11.637  14.818
25913W        W98338  12.249  42.780   3.156
25914W        W98339  42.792  16.782  10.074
25915W        W98340  43.917  37.022  10.577
25916W        W98341  17.211  10.375  12.974
25917W        W98342  22.502  14.160  10.966
25918W        W98343  34.988  21.036  10.076
25919W        W98344  40.450  14.789   3.650
25920W        W98345  29.932   5.369  13.540
25921W        W98346   4.271  36.361   2.849
25922W        W98347  34.559  27.616   0.251
25923W        W98348  41.394  24.139   4.635
25924W        W98349  18.155  20.083   4.774
25925W        W98350  14.233  42.027  13.320
25926W        W98351  40.397  23.651   4.170
25927W        W98352  26.102  29.012  12.485
25928W        W98353  13.816  14.186  14.393
25929W        W98354  39.063  18.774   0.353
25930W        W98355  29.087   8.346  13.372
25931W        W98356  14.239   0.839   0.332
25932W        W98357  24.107  25.581   4.144
25933W        W98358  39.362  11.676   4.773
25934W        W98359  28.518  22.198  11.529
25935W        W98360  30.971  17.165  10.588
25936W        W98361  27.487  10.240   4.708
25937W        W98362  32.500  23.708  11.463
25938W        W98363   7.901  28.448   1.349
25939W        W98364  12.738  21.561  11.030
25940W        W98365  21.024  35.043   1.783
25941W        W98366  39.841  17.247  12.533
25942W        W98367  38.029  32.981  12.023
25943W        W98368  29.467  25.611  13.917
25944W        W98369  21.067  42.887  12.343
25945W        W98370  42.926  37.863   1.249
25946W        W98371  24.595  35.901   3.631
25947W        W98372  40.908  10.664  12.473
25948W        W98373   6.358  25.699   0.292
25949W        W98374   6.316  37.928   4.260
25950W        W98375  32.614   3.945  12.391
25951W        W98376   6.355  34.085  10.889
25952W        W98377   6.851   7.246  14.393
25953W        W98378  30.518  25.478  13.339
25954W        W98379  31.581  32.915  14.434
25955W        W98380   0.491   0.372   1.907
25956W        W98381  29.464   1.467  13.955
25957W        W98382  44.391  10.745  13.003
25958W        W98383   8.403  35.362  12.554
25959W        W98384  40.983   9.359  14.938
25960W        W98385  20.711  14.645  10.409
25961W        W98386   7.846  19.059   3.205
25962W        W98387   4.261  35.884  12.063
25963W        W98388  39.019  28.582  11.983
25964W        W98389  16.228  35.428  11.587
25965W        W98390  16.199  14.619  11.389
25966W        W98391  41.466  15.578   0.807
25967W        W98392  15.766  20.156   1.278
25968W        W98393  11.623  30.980  14.009
25969W        W98394  35.543  40.026   4.144
25970W        W98395  21.596   3.948  13.897
25971W        W98396   1.919   1.460  12.842
25972W        W98397  25.019   5.901   1.768
25973W        W98398  34.601  19.230   1.355
25974W        W98399  43.317  19.669  13.420
25975W        W98400   7.912  24.991   0.374
25976W        W98401  11.787  30.502   5.274
25977W        W98402  42.026   4.240   0.911
25978W        W98403  32.998  27.091  11.042
25979W        W98404   4.847  44.328  12.847
25980W        W98405  30.563  32.553   2.814
25981W        W98406  11.260   2.326  11.513
25982W        W98407  26.597  10.708  14.935
25983W        W98408  38.566   8.384   1.350
25984W        W98409   9.824  15.238   1.401
25985W        W98410  37.024   3.318  13.540
25986W        W98411   3.283  20.247  12.946
25987W        W98412  21.136   8.739  14.284
25988W        W98413  28.507  36.846   2.732
25989W        W98414  41.382  39.976   2.691
25990W        W98415  41.399  22.669   0.423
25991W        W98416  10.160   7.904  11.444
25992W        W98417  17.174  13.760  10.545
25993W        W98418  42.486  11.832   3.169
25994W        W98419  35.899   0.421  12.498
25995W        W98420  15.797  17.278   1.267
25996W        W98421  10.786  32.116   0.861
25997W        W98422  28.632   3.884   4.714
25998W        W98423  23.689  36.068  12.829
25999W        W98424  42.910  18.098   3.832
26000W        W98425  30.545  35.385  11.944
26001W        W98426  12.358   4.415  10.541
26002W        W98427  27.516  15.737  11.568
26003W        W98428  11.293  40.410  10.946
26004W        W98429  41.403  39.932   2.393
26005W        W98430   1.353  31.995  12.579
26006W        W98431  13.646  22.701  14.344
26007W        W98432   3.243   7.214   0.859
26008W        W98433  21.693  37.942   0.275
26009W        W98434  20.165  12.198  12.958
26010W        W98435  40.828  12.357  11.512
26011W        W98436  13.315  17.085   5.279
26012W        W98437   7.292  16.759  11.427
26013W        W98438  34.570  23.636   0.348
26014W        W98439  29.646  23.683   5.322
26015W        W98440   4.246   7.844   2.308
26016W        W98441   4.919   1.383   4.223
26017W        W98442  31.488  42.848   1.915
26018W        W98443  11.306   0.941  11.113
26019W        W98444  25.209  32.896   3.206
26020W        W98445  14.309  24.495  11.878
26021W        W98446  19.210  38.513   2.803
26022W        W98447   6.301  39.535   3.287
26023W        W98448  33.997   8.776   3.296
26024W        W98449  15.310   0.342   0.282
26025W        W98450  14.788   2.778  14.999
26026W        W98451  15.213  40.845  12.991
26027W        W98452  30.040   1.862   4.269
26028W        W98453  44.381  43.930  12.011
26029W        W98454  20.722  40.464  13.945
26030W        W98455   0.421  21.263  11.877
26031W        W98456  28.657  15.645  10.038
26032W        W98457  15.116   4.377  14.928
26033W        W98458  13.674  38.071   1.782
26034W        W98459  20.595   9.724  14.020
26035W        W98460  33.041  34.519  12.070
26036W        W98461  32.423   1.896  14.422
26037W        W98462  15.591  12.637   2.378
26038W        W98463  39.879  44.456   0.325
26039W        W98464  10.318  17.180   3.235
26040W        W98465  12.244   3.218  12.970
26041W        W98466  10.200  13.615   9.979
26042W        W98467   2.731  33.092  10.433
26043W        W98468  11.338  44.758   4.729
26044W        W98469  30.556  10.159  12.480
26045W        W98470  34.614  34.480  11.417
26046W        W98471  40.901  11.170  14.430
26047W        W98472  37.035  20.731   4.139
26048W        W98473  44.885  38.494  12.513
26049W        W98474   5.369  26.165   3.184
26050W        W98475  43.378  42.904   3.164
26051W        W98476  10.360   5.196   0.943
26052W        W98477  27.536   0.364   2.189
26053W        W98478  14.190  22.137   1.379
26054W        W98479  10.341  10.227  12.963
26055W        W98480  26.647  42.361   0.348
26056W        W98481  26.581  43.877  14.385
26057W        W98482  27.462  16.597   3.189
26058W        W98483  17.565  28.657  13.525
26059W        W98484  42.440   3.272   2.795
26060W        W98485  26.112  40.958  13.984
26061W        W98486  20.647  34.901  11.513
26062W        W98487  15.637   3.271  12.458
26063W        W98488  39.959  25.157   2.260
26064W        W98489  24.985  14.821   4.780
26065W        W98490  36.395  36.984   4.132
26066W        W98491   3.710  29.482   4.755
26067W        W98492  29.574   7.327  13.538
26068W        W98493   2.325  16.742   2.244
26069W        W98494   5.870  36.593  10.534
26070W        W98495  13.747  42.811   0.966
26071W        W98496  43.309   8.301   2.181
26072W        W98497  35.364  15.629  13.460
26073W        W98498  20.757  13.810  12.991
26074W        W98499  22.241   9.737   2.283
26075W        W98500  13.157  38.420   3.792
26076W        W98501  26.586  31.584   4.720
26077W        W98502  37.005  32.492  11.578
26078W        W98503  38.040   7.208  13.391
26079W        W98504  28.090  30.473   5.165
26080W        W98505  14.663  10.199  14.433
26081W        W98506  11.861   4.308  10.467
26082W        W98507  36.531  26.009   1.716
26083W        W98508  10.687  14.720   4.734
26084W        W98509   2.966  29.576   1.224
26085W        W98510  27.570   7.861  11.954
26086W        W98511  26.608  35.998   0.873
26087W        W98512  30.159  33.604  10.606
26088W        W98513  24.078   4.712  11.058
26089W        W98514  26.021  30.548  14.841
26090W        W98515  27.172  31.463   4.747
26091W        W98516  38.485  21.562  14.320
26092W        W98517  16.767  26.655  12.966
26093W        W98518  41.440  21.553  14.301
26094W        W98519   4.860  19.744  10.575
26095W        W98520  30.652  41.349   2.289
26096W        W98521  42.809  11.215  13.375
26097W        W98522   4.443  13.177  11.883
26098W        W98523  30.028  40.850  10.062
26099W        W98524  42.011   2.305   0.810
26100W        W98525   7.877   0.916  11.983
26101W        W98526  40.030  42.451   1.920
26102W        W98527  16.752  36.072   3.362
26103W        W98528  21.739  23.698   3.201
26104W        W98529   4.227  14.666   0.291
26105W        W98530  31.525   4.241  10.902
26106W        W98531  36.028  36.580  14.511
26107W        W98532  12.155   0.752   1.290
26108W        W98533  14.814   2.393  14.989
26109W        W98534  32.430  35.950   3.854
26110W        W98535  15.294   8.679   4.341
26111W        W98536   5.387   9.771   2.287
26112W        W98537   9.800  28.627   1.341
26113W        W98538   4.351  43.507   3.853
26114W        W98539  24.478   1.811  11.905
26115W        W98540   8.203  14.191  12.941
26116W        W98541   2.464  36.062  11.457
26117W        W98542  21.609  44.896   3.854
26118W        W98543  43.434  14.758   4.269
26119W        W98544   6.833  39.552   0.776
26120W        W98545  26.999   3.405  11.855
26121W        W98546  34.561  22.083   1.820
26122W        W98547   0.378  20.090  12.340
26123W        W98548  42.514  11.318   2.852
26124W        W98549  20.074  42.356  13.014
26125W        W98550  14.294  24.027   2.668
26126W        W98551  28.681  38.480   5.630
26127W        W98552  29.138  39.449   5.217
26128W        W98553  12.791   0.919  13.523
26129W        W98554  28.942  38.330  14.978
26130W        W98555  22.009  27.144  12.982
26131W        W98556   8.840  42.887  12.457
26132W        W98557  33.127  41.882  11.936
26133W        W98558   6.873  35.451  14.423
26134W        W98559  41.538  31.906   2.824
26135W        W98560  10.687  34.486  11.932
26136W        W98561  20.660  11.321   9.462
26137W        W98562  17.793   5.748  12.347
26138W        W98563  31.966  40.952  12.463
26139W        W98564  32.063  35.475  12.017
26140W        W98565  16.112  19.533  14.815
26141W        W98566  34.996  28.023   1.437
26142W        W98567   5.370   8.171  13.880
26143W        W98568  31.014  27.617  12.889
26144W        W98569  44.904  21.188  13.481
26145W        W98570   2.418  28.627  12.958
26146W        W98571   4.303   9.391  12.403
26147W        W98572  37.873  26.501   2.840
26148W        W98573  40.889   5.232   2.683
26149W        W98574  21.112  11.692   3.249
26150W        W98575  44.414  31.031  11.463
26151W        W98576  28.977  41.912   9.454
26152W        W98577  41.871  25.643  12.562
26153W        W98578  37.045   2.754   3.326
26154W        W98579  30.137  27.035   0.483
26155W        W98580  11.368  23.010  13.920
26156W        W98581   1.440   1.368   1.341
26157W        W98582  28.978  28.571   2.312
26158W        W98583  12.127  39.900  10.622
26159W        W98584  40.425  26.483  11.378
26160W        W98585  37.991  12.690  14.486
26161W        W98586  42.440  11.680   4.141
26162W        W98587  17.766  42.822  14.330
26163W        W98588   7.716   0.927   2.247
26164W        W98589  25.964  39.064   0.414
26165W        W98590  25.968   2.305   3.307
26166W        W98591  44.349  39.451   3.221
26167W        W98592  13.726  25.965  11.039
26168W        W98593  35.470  16.165  13.489
26169W        W98594  12.657  16.190  11.585
26170W        W98595   0.301  31.933   2.681
26171W        W98596  38.352  20.252   2.715
26172W        W98597  21.695  16.592   2.395
26173W        W98598  18.123   4.285  13.912
26174W        W98599  15.779  17.065   3.729
26175W        W98600  36.079  22.553  14.934
26176W        W98601  33.067  25.181   2.413
26177W        W98602  14.734  22.501   1.446
26178W        W98603  25.067  32.586  11.937
26179W        W98604   9.160  34.585   9.944
26180W        W98605  42.937  25.658  14.796
26181W        W98606  15.301  28.528  14.398
26182W        W98607  42.961  37.072   2.249
26183W        W98608   3.802   4.225   3.256
26184W        W98609  41.424  33.603   2.868
26185W        W98610  44.972  15.248  14.822
26186W        W98611  30.421  23.661  10.159
26187W        W98612   6.205  40.929  13.497
26188W        W98613  27.663   0.389   1.754
26189W        W98614  38.922   4.234   4.794
26190W        W98615   5.300  24.591   4.749
26191W        W98616   4.707   6.319  11.480
26192W        W98617  39.524  39.994  11.991
26193W        W98618  20.705  13.200  13.328
26194W        W98619  41.907  12.648   2.835
26195W        W98620  42.866  22.066  10.967
26196W        W98621  20.729  24.011  13.516
26197W        W98622   4.740  28.593   0.378
26198W        W98623  16.082  10.380  13.326
26199W        W98624  37.920  24.221   3.304
26200W        W98625   4.217  40.314   1.437
26201W        W98626  24.112   8.731   1.308
26202W        W98627  20.133  17.570  13.901
26203W        W98628  15.726  20.222   2.352
26204W        W98629  43.973  34.027   5.132
26205W        W98630  32.617   7.264  13.845
26206W        W98631  24.187  12.218   4.781
26207W        W98632  17.229  35.444  13.996
26208W        W98633  14.655  26.702  11.475
26209W        W98634  42.399  43.391   4.707
26210W        W98635  11.790  40.854   4.198
26211W        W98636  40.800  37.508   4.752
26212W        W98637  33.974   8.274   0.816
26213W        W98638   5.406  26.656  13.027
26214W        W98639  28.680  41.440  11.937
26215W        W98640  44.295  17.268   1.767
26216W        W98641   6.393  44.822   1.328
26217W        W98642  38.512  32.970  13.490
26218W        W98643  16.649  29.954   3.342
26219W        W98644  18.689  24.648  11.539
26220W        W98645   0.814  11.650  10.084
26221W        W98646  22.061  28.445  10.480
26222W        W98647  42.294  11.192  12.054
26223W        W98648   0.915  25.969   0.848
26224W        W98649  10.710  31.504   3.756
26225W        W98650  43.873  32.936   1.300
26226W        W98651  36.929  26.619  14.805
26227W        W98652  14.288   3.240  13.488
26228W        W98653  29.587   3.954   4.670
26229W        W98654  16.140   3.324   2.417
26230W        W98655  19.611  19.565  11.864
26231W        W98656   2.919  35.036  11.036
26232W        W98657   6.339   0.921  11.866
26233W        W98658  35.490  34.065  10.481
26234W        W98659  42.298  43.457  12.434
26235W        W98660  17.590   0.802  11.523
26236W        W98661  37.025  11.843   4.701
26237W        W98662   3.226  34.442  11.578
26238W        W98663  36.450  31.044   3.773
26239W        W98664   8.299   8.756  10.625
26240W        W98665  17.127   5.400   0.762
26241W        W98666   5.239  43.339   0.243
26242W        W98667  36.499  23.192   1.881
26243W        W98668  19.123  40.417  13.902
26244W        W98669  35.442  29.473   3.329
26245W        W98670  31.017  36.535   4.803
26246W        W98671  32.436   2.373   4.169
26247W        W98672  18.759  19.215   0.341
26248W        W98673   0.268  22.733  11.083
26249W        W98674  32.616  21.697   0.408
26250W        W98675   0.317  44.841   4.794
26251W        W98676   3.813  25.600  10.405
26252W        W98677  30.489  42.436   1.218
26253W        W98678  14.773  44.986  13.399
26254W        W98679  11.727  31.911  14.345
26255W        W98680  36.069  42.979  13.891
26256W        W98681   9.346  11.736   2.780
26257W        W98682  30.150  44.342   3.282
26258W        W98683  12.796   3.711   1.403
26259W        W98684   4.227   4.304   0.881
26260W        W98685  42.454   1.449  11.856
26261W        W98686  18.230  23.579  12.911
26262W        W98687  20.111  33.007   3.747
26263W        W98688  22.129  22.064   4.722
26264W        W98689  17.162  33.091   4.648
26265W        W98690  21.260   6.384  11.544
26266W        W98691   8.324   6.864  11.053
26267W        W98692  35.057  15.122   0.908
26268W        W98693  17.294  22.101   1.786
26269W        W98694  31.510  37.952  11.506
26270W        W98695  19.642  10.165  11.860
26271W        W98696  28.095  44.789  14.791
26272W        W98697  26.188  15.327   2.769
26273W        W98698  25.548  33.384  14.412
26274W        W98699  31.584  28.519  11.923
26275W        W98700  43.467  27.059   1.881
26276W        W98701  20.224  33.521   1.235
26277W        W98702   9.196  20.098  14.864
26278W        W98703  28.060  12.653  14.929
26279W        W98704  20.743  42.951   0.382
26280W        W98705  22.014  16.652  14.907
26281W        W98706  10.871  44.415   1.877
26282W        W98707  41.848  28.500  12.490
26283W        W98708  10.184  18.629  12.500
26284W        W98709  25.976   9.824   2.179
26285W        W98710  13.708  42.821  11.993
26286W        W98711  31.908   6.262  11.002
26287W        W98712   0.294   1.801   2.843
26288W        W98713  26.664  28.992  12.943
26289W        W98714  24.183  23.673  11.525
26290W        W98715  34.414  16.095   2.327
26291W        W98716  19.160  26.471  13.032
26292W        W98717  41.382   1.414   0.465
26293W        W98718  40.832  39.843  13.436
26294W        W98719   7.727  18.062  11.379
26295W        W98720   6.256  28.596   2.857
26296W        W98721  10.368  29.549  14.489
26297W        W98722   2.333   5.849   1.435
26298W        W98723  31.407  17.660   1.873
26299W        W98724  22.150  27.027   2.298
26300W        W98725  25.500  33.975   3.744
26301W        W98726  29.926  30.029   0.385
26302W        W98727  31.911  11.341   2.294
26303W        W98728  33.393  23.038   3.318
26304W        W98729  15.259  34.017   2.357
26305W        W98730  30.965  25.682  11.420
26306W        W98731  40.542  29.532   3.685
26307W        W98732   0.393   4.876   0.300
26308W        W98733  26.951   0.948   0.935
26309W        W98734  41.979  28.580   2.415
26310W        W98735   8.845  13.725   4.640
26311W        W98736  31.637  40.876   3.228
26312W        W98737  18.245  37.460   3.223
26313W        W98738  10.262   1.757   0.749
26314W        W98739  28.659   5.779  11.577
26315W        W98740  43.820  41.857   0.294
26316W        W98741  20.740  19.543  14.342
26317W        W98742   8.684   8.236   2.835
26318W        W98743  14.271   8.712   0.479
26319W        W98744   7.676  15.156  10.962
26320W        W98745  31.561   7.313   4.773
26321W        W98746  26.953  38.048  13.820
26322W        W98747  39.833  43.778   0.875
26323W        W98748  43.967  20.754  12.857
26324W        W98749  35.883  26.022  11.592
26325W        W98750  41.878  16.760  12.910
26326W        W98751   1.428  40.458  14.882
26327W        W98752  27.169  33.518   1.929
26328W        W98753  28.579  29.167   2.815
26329W        W98754  40.460  39.060  10.558
26330W        W98755  35.568  19.776  10.531
26331W        W98756  20.593   0.380   3.671
26332W        W98757  20.532  17.597   1.276
26333W        W98758  24.093  12.723  13.857
26334W        W98759  27.110  36.865  11.059
26335W        W98760  29.024  11.315  11.096
26336W        W98761  25.118  17.207   3.359
26337W        W98762  34.411  15.812   0.860
26338W        W98763  38.422   3.752  11.405
26339W        W98764   2.269   4.278  13.526
26340W        W98765  27.195  31.453   0.857
26341W        W98766  16.590  39.538   1.295
26342W        W98767  42.375  43.455  10.488
26343W        W98768  11.323  15.124  13.442
26344W        W98769  43.935  32.593   3.196
26345W        W98770  38.063  44.311   4.264
26346W        W98771  41.406  40.930   1.301
26347W        W98772  31.509  22.599  13.461
26348W        W98773  37.464   9.306   4.149
26349W        W98774  17.096   9.818  11.935
26350W        W98775  20.768  41.415  12.386
26351W        W98776   6.297  23.069   3.713
26352W        W98777  41.444  43.503  12.356
26353W        W98778  24.211   6.194  13.033
26354W        W98779  23.510  38.952   4.763
26355W        W98780   5.210   4.294   2.893
26356W        W98781  23.495  42.851  12.482
26357W        W98782  41.517  37.519  11.891
26358W        W98783  17.132   0.418  12.082
26359W        W98784  12.674  32.035  13.015
26360W        W98785  41.036  31.508   3.854
26361W        W98786   6.859   4.890   0.431
26362W        W98787   9.823  43.924  12.408
26363W        W98788   3.358  37.401  11.009
26364W        W98789   2.855  40.523   3.689
26365W        W98790   4.906  30.953   0.750
26366W        W98791   7.857   2.860  12.401
26367W        W98792  43.467  14.317  14.409
26368W        W98793  41.924  10.339   3.848
26369W        W98794  10.365  40.433  14.764
26370W        W98795   7.828  34.608  12.895
26371W        W98796  42.950  35.421   4.209
26372W        W98797  22.742  22.010   3.821
26373W        W98798   6.779  11.805  10.959
26374W        W98799   8.346  38.836   3.249
26375W        W98800  29.643   4.261   2.206
26376W        W98801  38.477   5.350   1.901
26377W        W98802  26.463   9.689  13.386
26378W        W98803  32.128  37.382  11.512
26379W        W98804  29.129   1.939  12.824
26380W        W98805   6.285  42.965   2.243
26381W        W98806  12.134   0.754  10.420
26382W        W98807  41.947  37.348  12.923
26383W        W98808  15.665  17.140   2.331
26384W        W98809  11.743  19.265   0.757
26385W        W98810  17.291  31.020  11.108
26386W        W98811   8.252  43.403   4.151
26387W        W98812  32.955  26.607  13.396
26388W        W98813  24.689   9.859   4.646
26389W        W98814  19.556  39.540  14.362
26390W        W98815  20.687  41.025   4.823
26391W        W98816  18.253  13.268   1.221
26392W        W98817  12.228   1.357   9.577
26393W        W98818  22.542   1.450   0.455
26394W        W98819   6.696  26.545   3.701
26395W        W98820  44.432  24.984   3.635
26396W        W98821  25.047  43.274   0.318
26397W        W98822   1.427   4.324   0.862
26398W        W98823   2.299  23.113  11.903
26399W        W98824  14.746  41.043   1.827
26400W        W98825  19.165  23.153  13.318
26401W        W98826  16.603  15.719   4.130
26402W        W98827  32.051  16.618   4.117
26403W        W98828   3.342  35.399  14.864
26404W        W98829  33.541  39.941   0.339
26405W        W98830  34.017  17.735  12.538
26406W        W98831  26.590   7.332   3.805
26407W        W98832  12.719  24.215   3.161
26408W        W98833   9.215  43.890  11.463
26409W        W98834  25.672  33.962   4.345
26410W        W98835  31.537  15.579  13.471
26411W        W98836   6.302  11.271  14.374
26412W        W98837  22.065   5.867  14.009
26413W        W98838  20.180  25.112  10.891
26414W        W98839   1.880  16.072   1.433
26415W        W98840  13.185   4.327   3.294
26416W        W98841  36.542  41.043   2.353
26417W        W98842  37.435  10.153   1.343
26418W        W98843   7.390  10.323   2.758
26419W        W98844  35.983  27.028  14.452
26420W        W98845  11.142  26.174  10.487
26421W        W98846  39.011  22.205  10.102
26422W        W98847  16.098  11.736  14.861
26423W        W98848  27.474  23.226   0.444
26424W        W98849  26.164  18.204  14.432
26425W        W98850   7.252  35.871  12.520
26426W        W98851  25.710  20.175   0.317
26427W        W98852   9.218  12.713  14.482
26428W        W98853   2.277  22.568  14.031
26429W        W98854   9.374  29.116   0.842
26430W        W98855  27.038   1.762  11.536
26431W        W98856  16.759  22.739   4.275
26432W        W98857   2.883  34.598   1.351
26433W        W98858  10.167  11.272   1.259
26434W        W98859   2.775  43.399   3.777
26435W        W98860   6.729  37.506  12.032
26436W        W98861  30.078  14.631   2.745
26437W        W98862  27.645  37.914  12.884
26438W        W98863  14.617  29.517  14.004
26439W        W98864  19.736  19.239   0.449
26440W        W98865  31.040  25.623  12.897
26441W        W98866  28.501   4.377   3.641
26442W        W98867  23.724  17.080   2.202
26443W        W98868   2.288  11.306   0.868
26444W        W98869  29.927  29.528  12.357
26445W        W98870  23.699  43.897   0.291
26446W        W98871   8.721  32.597   3.216
26447W        W98872  23.643  22.204  13.315
26448W        W98873   6.881  27.009   3.166
26449W        W98874  26.691  30.120   1.839
26450W        W98875  27.144  18.745   3.277
26451W        W98876  28.674  18.166  14.835
26452W        W98877   4.885  32.439  14.378
26453W        W98878  41.808   5.802  11.959
26454W        W98879  27.494  18.255  12.406
26455W        W98880  35.073  40.882   0.386
26456W        W98881  28.983  20.557   5.730
26457W        W98882  17.245  21.222   1.716
26458W        W98883   7.753  29.043   3.241
26459W        W98884  14.713   5.926  12.387
26460W        W98885  14.240  22.149   3.233
26461W        W98886   4.805  11.689   1.271
26462W        W98887  27.987  33.097   0.459
26463W        W98888  12.313  43.870   0.923
26464W        W98889  13.722   7.729  12.569
26465W        W98890   1.887  34.120  14.011
26466W        W98891  30.638  14.782   0.272
26467W        W98892  29.609  24.503   2.407
26468W        W98893   4.760  44.505  12.424
26469W        W98894   5.773  24.148   2.221
26470W        W98895  17.145  15.646  12.962
26471W        W98896  38.876  40.826   2.758
26472W        W98897   8.760   7.284  13.935
26473W        W98898  31.010   5.923  14.010
26474W        W98899  31.500  31.907  13.426
26475W        W98900  14.260  17.732   1.301
26476W        W98901  40.366  12.825  13.972
26477W        W98902  44.392  42.872   3.765
26478W        W98903  18.770  30.652  14.932
26479W        W98904   4.832  44.788   3.847
26480W        W98905  43.447   4.221   4.811
26481W        W98906   7.387  15.275  10.489
26482W        W98907  37.451  12.628   4.251
26483W        W98908  13.697   5.394   3.175
26484W        W98909  16.697  36.458  12.019
26485W        W98910  32.042   6.856  13.962
26486W        W98911  21.702  19.192   4.344
26487W        W98912  17.157  23.141  10.432
26488W        W98913   7.174   8.838   2.841
26489W        W98914   9.302  38.959  11.612
26490W        W98915   6.729  11.209   4.757
26491W        W98916  23.074  24.087   0.330
26492W        W98917  43.834   2.896  13.539
26493W        W98918  32.496  27.644   4.777
26494W        W98919   3.285  26.641   4.167
26495W        W98920  29.941  21.658   5.800
26496W        W98921  43.331  12.235   3.301
26497W        W98922  20.224  35.376   3.193
26498W        W98923  36.985   6.893  11.480
26499W        W98924   5.299  15.191   4.118
26500W        W98925  31.556  30.523   0.835
26501W        W98926  43.505  19.080   3.355
26502W        W98927  22.595   3.281   1.259
26503W        W98928  27.666  31.619   3.338
26504W        W98929   4.400  15.617   4.695
26505W        W98930  37.454  20.728   2.254
26506W        W98931  21.542  36.968  14.464
26507W        W98932  30.074  30.062   4.601
26508W        W98933  19.551  39.043   2.748
26509W        W98934  28.089   3.789  12.861
26510W        W98935  40.013  40.801   4.339
26511W        W98936   6.765  31.531   3.161
26512W        W98937  26.132  42.424   4.653
26513W        W98938  15.151  19.589  11.568
26514W        W98939   0.321  13.187  14.916
26515W        W98940   4.375  44.335  10.939
26516W        W98941  44.324   7.725  13.941
26517W        W98942  14.121   1.454  10.921
26518W        W98943  25.069  22.044   1.244
26519W        W98944  33.607  21.242  14.479
26520W        W98945  25.470   0.409  12.577
26521W        W98946  38.533  25.620  11.593
26522W        W98947  27.659  25.047   4.712
26523W        W98948  42.794  25.564   2.262
26524W        W98949  38.882   3.401  11.494
26525W        W98950  15.297   5.346   1.407
26526W        W98951  20.732  21.225   3.856
26527W        W98952  32.423  35.103  13.999
26528W        W98953  38.469  12.812  11.513
26529W        W98954  39.000  27.609   1.871
26530W        W98955  15.270  23.686  12.912
26531W        W98956  24.553  40.403  11.911
26532W        W98957  36.441   2.755  12.515
26533W        W98958  18.674  44.797  11.877
26534W        W98959  43.020  39.870   1.873
26535W        W98960  10.376  13.674  10.431
26536W        W98961   5.907  22.581  13.436
26537W        W98962  27.593  25.176  14.899
26538W        W98963  13.289  18.552   0.869
26539W        W98964  13.228  44.426   1.702
26540W        W98965  23.497   1.373  12.013
26541W        W98966  26.193  31.026  10.892
26542W        W98967  17.675  17.264  13.929
26543W        W98968  41.825  44.481  13.817
26544W        W98969  22.746  17.681  14.416
26545W        W98970  34.599   9.210   2.208
26546W        W98971  40.466  35.900   0.403
26547W        W98972  21.042  11.201   4.815
26548W        W98973   2.246  37.049  13.006
26549W        W98974  29.433  11.370  13.033
26550W        W98975  28.552  23.652  12.886
26551W        W98976  22.213  37.483   4.732
26552W        W98977   4.838  17.239  12.834
26553W        W98978  40.802  43.869  12.565
26554W        W98979  17.144  32.914   1.388
26555W        W98980  10.767  37.509  12.931
26556W        W98981  34.050  38.931  11.962
26557W        W98982  39.864  16.298  14.774
26558W        W98983  22.059  20.592  10.431
26559W        W98984  41.409  29.551   4.168
26560W        W98985  35.993  28.580  14.832
26561W        W98986   7.790  10.205  13.378
26562W        W98987  13.760  28.116   1.298
26563W        W98988  27.670   4.897   0.828
26564W        W98989  27.096  18.671   0.943
26565W        W98990  20.569  24.049   2.874
26566W        W98991  14.764  22.211   3.301
26567W        W98992   8.269   3.715  12.576
26568W        W98993  39.517   1.921   4.833
26569W        W98994  37.894  41.503   1.415
26570W        W98995  38.054   8.885  14.019
26571W        W98996  15.226  11.852   4.823
26572W        W98997  28.594  13.629   4.824
26573W        W98998  11.657  11.161  11.013
26574W        W98999  25.523  27.566   4.177
26575W        W99000  38.900   2.256   2.324
26576W        W99001   2.360  39.485   3.862
26577W        W99002  31.970  40.046   4.812
26578W        W99003  37.558  39.974  14.849
26579W        W99004  11.779  40.495  14.856
26580W        W99005  27.562  23.590  11.493
26581W        W99006  18.548  14.269  10.562
26582W        W99007   4.284   3.756   1.857
26583W        W99008  28.580   3.915  10.584
26584W        W99009  36.926   0.482  12.087
26585W        W99010   1.406  20.673  10.442
26586W        W99011   4.439  19.158   3.669
26587W        W99012   3.423  18.637   5.223
26588W        W99013  17.723  42.428  14.974
26589W        W99014  44.952   3.795  11.878
26590W        W99015  33.063  41.923  14.031
26591W        W99016  26.497  16.144  13.904
26592W        W99017  41.466   2.737   2.849
26593W        W99018  24.188  25.594  11.434
26594W        W99019  14.299  41.428   4.346
26595W        W99020  13.229   1.772  10.996
26596W        W99021  18.098  14.322  10.935
26597W        W99022  16.743  15.635  14.008
26598W        W99023  16.313   9.173   1.339
26599W        W99024  33.524  32.633  14.857
26600W        W99025   8.827  21.073  11.513
26601W        W99026  37.996  32.552  12.003
26602W        W99027  18.265  22.570  13.316
26603W        W99028  18.720   8.217   2.855
26604W        W99029  32.028  43.437   0.950
26605W        W99030  18.546  19.275   4.742
26606W        W99031  43.946  16.090   4.741
26607W        W99032  29.603  40.368   5.298
26608W        W99033  41.905  25.538   1.935
26609W        W99034  36.546  33.516  12.039
26610W        W99035  23.190   6.189   1.806
26611W        W99036  31.138   0.371  10.145
26612W        W99037   5.769  25.032   4.317
26613W        W99038  22.629  44.798   3.780
26614W        W99039  27.556  19.553  13.317
26615W        W99040  28.129  14.647  14.298
26616W        W99041  26.973  42.879   0.379
26617W        W99042   5.811  25.003   3.151
26618W        W99043  31.430  25.208   2.241
26619W        W99044   5.770  25.108  11.520
26620W        W99045   1.407   4.823  12.055
26621W        W99046  44.754  33.913   2.226
26622W        W99047  12.239  13.665  14.436
26623W        W99048  13.301  23.229   0.798
26624W        W99049  31.033  40.972   5.289
26625W        W99050  24.225   8.738  14.470
26626W        W99051  18.611  23.159   3.292
26627W        W99052  11.180  26.494  13.408
26628W        W99053  36.038  43.848   2.666
26629W        W99054  26.069  16.316  14.883
26630W        W99055  21.196  28.089  11.009
26631W        W99056   2.246   3.884   4.238
26632W        W99057  27.509   1.739  11.480
26633W        W99058  30.554  27.017   0.303
26634W        W99059  13.702  21.723  12.566
26635W        W99060  10.878  41.313  14.907
26636W        W99061  26.525  22.542   0.323
26637W        W99062  29.454   0.401   2.356
26638W        W99063  21.581  43.796   2.398
26639W        W99064  12.123   9.716  10.921
26640W        W99065  36.402   1.961   5.271
26641W        W99066  41.422  19.771  13.915
26642W        W99067  17.091   9.816   2.756
26643W        W99068  39.829   4.257   0.891
26644W        W99069  37.926  42.496   4.292
26645W        W99070   6.866  23.155   4.605
26646W        W99071   6.856  13.765  13.459
26647W        W99072  31.050  18.054   4.794
26648W        W99073   6.234  11.192  12.827
26649W        W99074  34.465  22.557  14.458
26650W        W99075   4.835   5.416   1.363
26651W        W99076  41.036  38.485   3.632
26652W        W99077  22.178  27.573   1.895
26653W        W99078  21.631  22.102  14.847
26654W        W99079  15.306   6.687  12.561
26655W        W99080  31.028  31.900  13.485
26656W        W99081   0.752  24.026  11.906
26657W        W99082  28.568   3.233  12.349
26658W        W99083  39.901  42.969   0.324
26659W        W99084  28.132  15.728   4.118
26660W        W99085  10.181  26.475   5.244
26661W        W99086  19.224   7.278  14.032
26662W        W99087  44.421  17.110   5.134
26663W        W99088   3.440   8.731  14.815
26664W        W99089  44.482  40.508  12.026
26665W        W99090  31.039  30.113  11.905
26666W        W99091  36.563  24.133   1.256
26667W        W99092   7.889  23.220   0.944
26668W        W99093  34.513  14.247   1.750
26669W        W99094  30.425  14.834  13.459
26670W        W99095  39.008  25.220   4.743
26671W        W99096   5.852   9.377   0.281
26672W        W99097   5.318  31.523  13.367
26673W        W99098  10.218  28.085  14.979
26674W        W99099  25.188  22.670   3.202
26675W        W99100   5.727  34.551   1.396
26676W        W99101  38.939  32.437   1.833
26677W        W99102  40.332  20.523   0.271
26678W        W99103  17.139  37.529  12.397
26679W        W99104  15.581   2.932   5.244
26680W        W99105  19.560  41.331  14.455
26681W        W99106   8.822  32.403   5.233
26682W        W99107  38.073  10.239  12.014
26683W        W99108   7.388   9.212   4.148
26684W        W99109   0.756  40.026  13.800
26685W        W99110   1.778  29.093  11.977
26686W        W99111  19.741  34.411   0.301
26687W        W99112  12.163  33.123  12.548
26688W        W99113  15.087  23.526  10.924
26689W        W99114  22.093  20.749  13.319
26690W        W99115  27.590   7.330   2.241
26691W        W99116  40.485  36.913   2.297
26692W        W99117  30.649  26.521  14.435
26693W        W99118   0.337  40.882  12.360
26694W        W99119  41.825   2.392   4.129
26695W        W99120   6.797   3.404  14.934
26696W        W99121  27.037  24.001   3.181
26697W        W99122  28.960  21.060  10.087
26698W        W99123   8.748  10.270   1.854
26699W        W99124  42.837  34.926   1.697
26700W        W99125  40.470  12.805  11.995
26701W        W99126  15.293  42.927   1.251
26702W        W99127   6.215  18.597  12.955
26703W        W99128  33.508  18.264   4.723
26704W        W99129  28.103   7.720  13.407
26705W        W99130  41.491  17.221  11.588
26706W        W99131   1.959  11.321  13.952
26707W        W99132  38.027   4.889   3.793
26708W        W99133  11.676  43.320  11.861
26709W        W99134  25.618  12.806  14.302
26710W        W99135  10.144  28.186   0.947
26711W        W99136  10.844   7.738  13.810
26712W        W99137  27.114  29.148   3.285
26713W        W99138   4.384  31.977   1.786
26714W        W99139  19.092  32.465   3.744
26715W        W99140  32.589  35.418   4.309
26716W        W99141  37.548  27.131  11.539
26717W        W99142  41.404  23.136   4.237
26718W        W99143  17.687  11.289   4.644
26719W        W99144  43.019  31.960   4.160
26720W        W99145   1.860  30.065  11.928
26721W        W99146  16.672  32.972   4.185
26722W        W99147  17.588   4.416   1.432
26723W        W99148   3.356  32.085   4.346
26724W        W99149   4.776  13.841  13.913
26725W        W99150  15.138  44.920  13.842
26726W        W99151  34.938  27.047   2.879
26727W        W99152  34.562  30.102   4.271
26728W        W99153  42.841  22.135  14.343
26729W        W99154  22.506  44.490  12.979
26730W        W99155  34.406  22.174  12.417
26731W        W99156  17.704  39.993   1.894
26732W        W99157  22.602   3.956   3.671
26733W        W99158  26.689  18.173   2.771
26734W        W99159  30.549  43.465  11.880
26735W        W99160  28.148  10.200   3.365
26736W        W99161   8.177  31.126   2.330
26737W        W99162  44.833  43.481   4.134
26738W        W99163  32.438   3.428  14.916
26739W        W99164  21.099   3.953  10.448
26740W        W99165  16.177  11.260   2.183
26741W        W99166  38.483   9.293   4.622
26742W        W99167  11.127  25.155  13.452
26743W        W99168  31.633  30.977   0.756
26744W        W99169  27.941   8.178  12.885
26745W        W99170   6.229  21.690  10.929
26746W        W99171  23.508   7.312  13.372
26747W        W99172  13.303  28.483  14.777
26748W        W99173  27.490  42.015  11.874
26749W        W99174  11.183  35.414   4.755
26750W        W99175   2.376  13.732  10.580
26751W        W99176  19.760   1.464   0.903
26752W        W99177  44.930  17.728   3.868
26753W        W99178  27.090  26.533   0.442
26754W        W99179  39.831  31.942   4.227
26755W        W99180  25.537  12.661  10.546
26756W        W99181  12.299   4.868  12.027
26757W        W99182  37.516  25.169  11.450
26758W        W99183  21.596  37.385   4.178
26759W        W99184  17.618   3.362  11.576
26760W        W99185  19.620   1.870  11.084
26761W        W99186  44.314  17.623  10.514
26762W        W99187  31.430  32.946   4.791
26763W        W99188  23.200  15.659   4.778
26764W        W99189  32.623  32.483  10.622
26765W        W99190  23.138   1.812  14.299
26766W        W99191  34.999  31.928  14.513
26767W        W99192  28.652  32.921   1.838
26768W        W99193  13.832  13.225   3.743
26769W        W99194  10.178  25.042  13.335
26770W        W99195   6.834  19.057   1.717
26771W        W99196   0.273  26.159   0.257
26772W        W99197  13.210  21.021  12.048
26773W        W99198  18.215   0.978  11.005
26774W        W99199  38.030  39.317   1.839
26775W        W99200  23.666  35.385   4.187
26776W        W99201  13.834  27.076   1.905
26777W        W99202  34.928   9.240   1.296
26778W        W99203   4.732  25.124  13.997
26779W        W99204  28.482   1.449   3.824
26780W        W99205  41.429  28.585   0.309
26781W        W99206  24.544  28.126  11.925
26782W        W99207   1.268  26.467   2.822
26783W        W99208  44.287  20.619  10.989
26784W        W99209  30.592  10.372   4.138
26785W        W99210  38.336  12.357  14.291
26786W        W99211  25.047  37.468  11.897
26787W        W99212  39.400  10.647   3.261
26788W        W99213  16.695  22.114  12.392
26789W        W99214   5.261  20.537  12.997
26790W        W99215  12.336   4.362   3.637
26791W        W99216  14.298  36.367  11.929
26792W        W99217  22.621   0.746   0.385
26793W        W99218   4.326  20.146  11.533
26794W        W99219   0.404  17.645   2.902
26795W        W99220  26.586   4.867  12.515
26796W        W99221  32.138  30.437   2.242
26797W        W99222   0.275  35.992   4.689
26798W        W99223  21.520  38.478  13.009
26799W        W99224  25.585  31.412   1.392
26800W        W99225   0.938   8.854  12.906
26801W        W99226  40.019  15.725   2.728
26802W        W99227  30.642  41.464  13.399
26803W        W99228  13.733  15.257   2.381
26804W        W99229  14.137  31.427  13.460
26805W        W99230  14.642  35.564   4.599
26806W        W99231  17.176  26.526   2.272
26807W        W99232  39.443  11.694   3.361
26808W        W99233  35.001  18.587  13.923
26809W        W99234  39.018  42.996  13.934
26810W        W99235   4.738  15.583   5.128
26811W        W99236   0.837   0.284  13.015
26812W        W99237  42.026  17.679  12.444
26813W        W99238  40.863  15.274  13.982
26814W        W99239  31.614  40.532   0.257
26815W        W99240   0.793   5.338  14.846
26816W        W99241  37.469   6.317  10.489
26817W        W99242  10.341  21.127   3.629
26818W        W99243  26.159  18.632   3.636
26819W        W99244   8.197  13.197   2.302
26820W        W99245  42.900  10.670  11.445
26821W        W99246  39.345  34.938  10.470
26822W        W99247  44.793   0.833   3.796
26823W        W99248  29.638  41.034   3.309
26824W        W99249   7.224  21.087  14.823
26825W        W99250  36.959  41.362   3.362
26826W        W99251  44.395   2.395  12.531
26827W        W99252  42.957   5.395  11.597
26828W        W99253  27.594  25.022  12.480
26829W        W99254  32.483  29.667  10.050
26830W        W99255  39.465  33.895  12.054
26831W        W99256  15.243  32.086   1.218
26832W        W99257   1.852  39.534  10.423
26833W        W99258  38.951  34.380   4.609
26834W        W99259  14.227  24.230   5.117
26835W        W99260  14.762   3.349   3.282
26836W        W99261  30.985  31.459   4.140
26837W        W99262  16.612  40.828  12.352
26838W        W99263  14.620  22.108   3.759
26839W        W99264  19.061  11.695  13.958
26840W        W99265  30.585  39.393   3.353
26841W        W99266   4.424  24.645  10.588
26842W        W99267  22.656  42.289  14.846
26843W        W99268  18.094   8.370  11.446
26844W        W99269   6.901  34.094  12.550
26845W        W99270  40.859  31.578  13.895
26846W        W99271  13.726   8.389  12.009
26847W        W99272   4.211   8.876   2.372
26848W        W99273  24.997  14.202  12.437
26849W        W99274  18.098  42.929   2.346
26850W        W99275  13.324  21.639  12.021
26851W        W99276  27.574  15.304   1.882
26852W        W99277   2.282  33.421  14.372
26853W        W99278  16.793   7.694  10.513
26854W        W99279  19.266  25.493  14.989
26855W        W99280  22.629  31.591  11.387
26856W        W99281   2.325  21.746  11.520
26857W        W99282  35.899  15.578   1.740
26858W        W99283   2.906  30.422   0.445
26859W        W99284  23.074  18.586   4.310
26860W        W99285  38.067  13.283  14.275
26861W        W99286  29.017   1.463  13.933
26862W        W99287   0.339  19.611  14.511
26863W        W99288  20.632   7.883  14.945
26864W        W99289  24.691   4.762  12.836
26865W        W99290  41.871  28.125  11.584
26866W        W99291  43.849  25.156  11.877
26867W        W99292   6.409  24.643   4.330
26868W        W99293  14.758  19.540  12.047
26869W        W99294  27.990   4.278  12.545
26870W        W99295  17.305  28.135  13.999
26871W        W99296   6.790  10.638   3.314
26872W        W99297  14.103  16.202  14.939
26873W        W99298  12.692   2.870   4.682
26874W        W99299   0.871  30.491  12.868
26875W        W99300  17.565  18.675   3.176
26876W        W99301  38.353   2.938  13.845
26877W        W99302  32.014  26.499   0.364
26878W        W99303  33.022  14.099   1.923
26879W        W99304  16.661  38.012   3.857
26880W        W99305  32.564   6.310   2.183
26881W        W99306  13.146  36.990  14.031
26882W        W99307  41.430  20.161   5.224
26883W        W99308  42.836  11.780  12.545
26884W        W99309  30.143   5.296   0.958
26885W        W99310   1.773   8.350   1.790
26886W        W99311   0.926   8.840  11.107
26887W        W99312   5.390  22.660  12.553
26888W        W99313   1.968  36.413  13.358
26889W        W99314   4.711  18.654  13.504
26890W        W99315  25.637   6.698   0.406
26891W        W99316   4.927  40.466  11.438
26892W        W99317  23.513   8.271  14.903
26893W        W99318  31.015   5.407  10.889
26894W        W99319  35.368   0.440   3.286
26895W        W99320  34.082  31.448  11.537
26896W        W99321  43.778  41.331   4.348
26897W        W99322   8.689  41.973  10.943
26898W        W99323   2.774  10.251   1.705
26899W        W99324   6.720  38.897   0.842
26900W        W99325  25.592   7.309  14.313
26901W        W99326  12.798  35.950   0.934
26902W        W99327   2.404  44.416   4.837
26903W        W99328  44.923  32.977   1.263
26904W        W99329   0.805   3.398  14.893
26905W        W99330   6.305  41.481  13.064
26906W        W99331  23.609   2.924  14.341
26907W        W99332  16.606  29.125   2.188
26908W        W99333   9.157  42.311  11.511
26909W        W99334  15.288  15.663  12.995
26910W        W99335  18.065  26.188   2.738
26911W        W99336  33.892   2.915  10.429
26912W        W99337  21.590  14.734   2.234
26913W        W99338  11.670  22.734   3.647
26914W        W99339  22.571   2.455   1.778
26915W        W99340  37.482   0.872   2.799
26916W        W99341  11.757  23.077  12.350
26917W        W99342  29.556  22.062  14.916
26918W        W99343  27.983   6.757   4.621
26919W        W99344  19.044   9.657  14.845
26920W        W99345  41.968  15.616   3.295
26921W        W99346  26.565  17.726  10.899
26922W        W99347  21.171  44.261   1.854
26923W        W99348  43.838  40.327  11.445
26924W        W99349   6.192  13.739   2.701
26925W        W99350  41.299  22.035  11.867
26926W        W99351  31.083  16.128   0.325
26927W        W99352   1.458   8.342  11.419
26928W        W99353  17.121  39.420  13.064
26929W        W99354   6.863  22.609  11.878
26930W        W99355  13.199   2.735   0.330
26931W        W99356   3.720  17.583   4.169
26932W        W99357   2.853  43.287   2.671
26933W        W99358  29.936  12.204  11.109
26934W        W99359  32.901  21.716  12.959
26935W        W99360  23.504  14.621  11.443
26936W        W99361   5.405  34.037  13.472
26937W        W99362  19.680  30.504   0.815
26938W        W99363  13.651   8.870  12.900
26939W        W99364  41.010  36.380  11.025
26940W        W99365  16.254  26.190   0.465
26941W        W99366  36.898  21.194  10.527
26942W        W99367  38.839  40.479  10.115
26943W        W99368  12.323  38.564  12.880
26944W        W99369  44.418  43.914   2.728
26945W        W99370  16.092   4.239  14.842
26946W        W99371  32.094  16.792   0.904
26947W        W99372  38.917   9.306  13.017
26948W        W99373  14.811  17.557  11.086
26949W        W99374  16.729  18.063   1.739
26950W        W99375  37.455  34.975  11.043
26951W        W99376  27.966  40.993   5.119
26952W        W99377  22.021  38.052   3.210
26953W        W99378  39.479  21.045   4.817
26954W        W99379  12.748  29.169  13.830
26955W        W99380  11.138  22.576  14.318
26956W        W99381  10.243  41.346   3.318
26957W        W99382  16.147   4.900   1.911
26958W        W99383  29.424  27.985   9.963
26959W        W99384  15.229  27.676   4.280
26960W        W99385  15.820   8.302   0.480
26961W        W99386  30.455  35.508   3.863
26962W        W99387  44.466  14.214   1.771
26963W        W99388  12.773  21.647  13.793
26964W        W99389  35.362  32.105   2.818
26965W        W99390   0.973  40.434   2.783
26966W        W99391  37.373  38.056  11.950
26967W        W99392   5.839  28.676  12.869
26968W        W99393   8.814  11.802  13.513
26969W        W99394   3.232   1.435  12.827
26970W        W99395   3.818   0.455   2.341
26971W        W99396  21.559   7.714  13.372
26972W        W99397  38.424  25.547  13.419
26973W        W99398  12.159  44.849   2.336
26974W        W99399   8.737  26.537   0.341
26975W        W99400  17.698   6.884  13.460
26976W        W99401  17.597  26.012  13.469
26977W        W99402  18.084  31.422   4.246
26978W        W99403  25.487  27.552  11.584
26979W        W99404  35.382   4.281   2.416
26980W        W99405  33.110  16.616  10.482
26981W        W99406   4.911  35.586   0.396
26982W        W99407  14.609   6.229  11.400
26983W        W99408  12.265  38.046  10.633
26984W        W99409  32.892   5.412   0.286
26985W        W99410  21.215   3.444   1.836
26986W        W99411  21.643  44.786   2.238
26987W        W99412  42.322   8.819  11.886
26988W        W99413  18.700  11.184   4.190
26989W        W99414   6.686  12.279   1.293
26990W        W99415  18.776  29.156  10.912
26991W        W99416  28.615  41.987   1.338
26992W        W99417  16.725  15.632  10.549
26993W        W99418   5.234  21.685  14.927
26994W        W99419  12.779  19.086   4.764
26995W        W99420  40.486  24.021  13.838
26996W        W99421  30.490  34.923  12.548
26997W        W99422  28.062  10.281  11.893
26998W        W99423  37.522  13.127  13.408
26999W        W99424  18.205  16.156   1.822
27000W        W99425  10.151   0.449   2.316
27001W        W99426  15.317  22.729  14.855
27002W        W99427  43.387   7.337   0.374
27003W        W99428   5.750  34.444   2.734
27004W        W99429  12.148  22.603   1.701
27005W        W99430  26.641  13.616  11.375
27006W        W99431  32.993   4.938  12.994
27007W        W99432  13.205   3.260   1.412
27008W        W99433  27.043  19.723   4.213
27009W        W99434  29.105  44.825   3.345
27010W        W99435  26.142  14.292   0.920
27011W        W99436  16.762  16.195  11.493
27012W        W99437  10.738  17.797  13.475
27013W        W99438  31.898  15.285   0.295
27014W        W99439  12.657  24.973  10.578
27015W        W99440  38.980  28.154  10.928
27016W        W99441  13.787  42.917   4.206
27017W        W99442  16.274   1.764  14.427
27018W        W99443  17.209   7.402  11.534
27019W        W99444  30.491   2.958   2.188
27020W        W99445  36.487   9.667  11.045
27021W        W99446  10.138  22.548   4.770
27022W        W99447   3.799  39.466   1.421
27023W        W99448  27.954  39.352   1.265
27024W        W99449   3.283  22.686   4.192
27025W        W99450  26.510   6.423   1.235
27026W        W99451  38.025  41.938   2.213
27027W        W99452  39.827   5.345   1.262
27028W        W99453   4.407  16.164   3.815
27029W        W99454  24.679  31.511   3.722
27030W        W99455  31.533  25.548  10.491
27031W        W99456  38.825  29.061  10.999
27032W        W99457   9.183  29.126   5.202
27033W        W99458  37.903  33.003  12.417
27034W        W99459  44.435  28.640   2.234
27035W        W99460  12.256  23.031  12.514
27036W        W99461  28.013  41.340   3.313
27037W        W99462   1.963  11.153   3.829
27038W        W99463  27.134   0.817   1.912
27039W        W99464  42.980  41.530  11.129
27040W        W99465  20.050  40.836   4.782
27041W        W99466  44.800  11.649  11.384
27042W        W99467  15.762  37.558  15.000
27043W        W99468  39.490  43.921  12.341
27044W        W99469  23.191  20.679  12.955
27045W        W99470  41.358  44.806   1.370
27046W        W99471  14.331  39.415   0.851
27047W        W99472  42.323  26.550   0.776
27048W        W99473  25.689  14.336  11.426
27049W        W99474  10.276   0.431   0.823
27050W        W99475  32.075  40.044  11.902
27051W        W99476  13.334  40.474   3.662
27052W        W99477   0.309  17.706  13.801
27053W        W99478   6.787   9.840  13.844
27054W        W99479  44.494  22.726   5.120
27055W        W99480  14.192   3.893  12.075
27056W        W99481  28.154   1.767  13.995
27057W        W99482  29.462  19.604   2.835
27058W        W99483  20.144   8.730   0.787
27059W        W99484  40.952  23.104  13.845
27060W        W99485  14.710  25.536   1.386
27061W        W99486  40.901  29.513  11.578
27062W        W99487   8.656   6.686  14.797
27063W        W99488  23.060  38.011  11.015
27064W        W99489   9.369  20.667   1.378
27065W        W99490  33.436   1.363   2.394
27066W        W99491   0.908  37.043   2.747
27067W        W99492  16.154  44.983  11.556
27068W        W99493  41.472  17.122  12.968
27069W        W99494  31.565  12.163   3.657
27070W        W99495  24.532  22.519  12.495
27071W        W99496  38.950  34.024  10.505
27072W        W99497  14.718  17.236   1.746
27073W        W99498  15.702  18.214  12.901
27074W        W99499  15.797  10.251   0.362
27075W        W99500   0.453  40.929   0.461
27076W        W99501  18.663  37.021   2.376
27077W        W99502  35.100  21.677  12.400
27078W        W99503   7.815  41.372  14.960
27079W        W99504  24.205  32.964   4.250
27080W        W99505  28.553  36.069  13.973
27081W        W99506  35.955  11.324  12.017
27082W        W99507  13.746   1.885  13.417
27083W        W99508  11.844  35.595  14.819
27084W        W99509   1.930  14.207  13.870
27085W        W99510   3.722   0.785  13.925
27086W        W99511  23.078  22.168  10.465
27087W        W99512  27.583  12.715   4.606
27088W        W99513  35.856   1.766  12.823
27089W        W99514  32.980   5.194   4.767
27090W        W99515  41.503  40.930  13.897
27091W        W99516  25.208  44.917  10.889
27092W        W99517  41.463  31.519   2.794
27093W        W99518  10.174   2.879   2.384
27094W        W99519  24.504   2.763  14.960
27095W        W99520  10.170   2.834  13.436
27096W        W99521  12.248  31.110   0.758
27097W        W99522   3.366  41.385  11.029
27098W        W99523  16.750   5.906   1.281
27099W        W99524  34.940  16.748   2.400
27100W        W99525  31.588  42.031   4.152
27101W        W99526   8.317  20.237   4.149
27102W        W99527  44.343   2.294  13.840
27103W        W99528   3.938  41.333   0.874
27104W        W99529  29.448  16.730   0.732
27105W        W99530  33.069   1.737  12.357
27106W        W99531  20.269  17.739   2.780
27107W        W99532  16.621  27.946  12.024
27108W        W99533  42.011   9.304  13.803
27109W        W99534   1.269  40.468  11.890
27110W        W99535  40.004  23.203  11.600
27111W        W99536  41.484  20.709  11.000
27112W        W99537   7.826  41.536  10.077
27113W        W99538   4.803   4.854   1.847
27114W        W99539  15.674  38.846  13.879
27115W        W99540  28.664  41.415   1.427
27116W        W99541  16.229  17.165   1.280
27117W        W99542  39.013   8.289  10.887
27118W        W99543  16.567  29.145  11.922
27119W        W99544  41.463  39.890   3.864
27120W        W99545  14.106   9.354   3.704
27121W        W99546  34.994  42.413  13.048
27122W        W99547   1.751  40.800   1.415
27123W        W99548  28.074  12.842  12.049
27124W        W99549  14.612   2.373  12.863
27125W        W99550  33.030  44.862  13.872
27126W        W99551   5.844  29.154   1.735
27127W        W99552  26.648  40.044   2.827
27128W        W99553  16.599   7.284  14.014
27129W        W99554   9.309  13.154  14.884
27130W        W99555  25.636  32.087   1.316
27131W        W99556  22.026  39.863   3.745
27132W        W99557  28.593  44.422  14.347
27133W        W99558  17.192  14.700   1.832
27134W        W99559  24.490   0.903   3.192
27135W        W99560   0.371  24.575  14.317
27136W        W99561  13.254  29.000  14.789
27137W        W99562  25.104  24.620  10.570
27138W        W99563  11.626  37.351  12.960
27139W        W99564   1.475  43.329  10.473
27140W        W99565  18.702   7.355  13.402
27141W        W99566  20.736   2.948   1.365
27142W        W99567  43.273  26.606  14.391
27143W        W99568  28.125  44.930   0.834
27144W        W99569  19.631  19.222  10.555
27145W        W99570   1.247  41.964  14.463
27146W        W99571  26.980   1.783   1.415
27147W        W99572  26.685  18.235   0.261
27148W        W99573  14.653  33.608   4.351
27149W        W99574  32.073  33.568   4.117
27150W        W99575   7.819  17.765   2.808
27151W        W99576  32.997  32.928  13.459
27152W        W99577  18.225  36.906  12.506
27153W        W99578  43.409   3.890  10.986
27154W        W99579  39.846  36.070   4.671
27155W        W99580  28.645   6.708   3.184
27156W        W99581  22.168   3.306   1.316
27157W        W99582  23.556  30.499   2.860
27158W        W99583  13.623  23.543   3.348
27159W        W99584  14.118   3.326   5.095
27160W        W99585  13.256   0.491   4.282
27161W        W99586  39.831  32.490  11.058
27162W        W99587  10.765  39.548   2.733
27163W        W99588  13.142  11.361  13.928
27164W        W99589  30.102   7.369   3.835
27165W        W99590  17.606  35.042   4.322
27166W        W99591  43.345  30.652   3.725
27167W        W99592  25.622   2.951  13.005
27168W        W99593   9.373   8.893  11.486
27169W        W99594  42.412  37.017   1.912
27170W        W99595  25.662  35.600   3.306
27171W        W99596   2.934  25.182   0.327
27172W        W99597  15.797  20.187   0.419
27173W        W99598  37.508  33.092   0.808
27174W        W99599  17.768   5.811  11.093
27175W        W99600  21.041  16.600   0.909
27176W        W99601  35.534  13.603   0.908
27177W        W99602  33.533   7.911  10.641
27178W        W99603   7.781   0.885   3.225
27179W        W99604  22.169   0.449   0.967
27180W        W99605   7.871  32.551   1.765
27181W        W99606  27.678  35.470   3.225
27182W        W99607  39.826  33.886  11.916
27183W        W99608  19.206  19.100   1.378
27184W        W99609   1.272  27.478  14.320
27185W        W99610   8.892  31.940   4.689
27186W        W99611  24.018  26.653  11.006
27187W        W99612  33.017  33.395   0.385
27188W        W99613   1.353  38.997  10.449
27189W        W99614  34.510  21.163   1.810
27190W        W99615  21.060  17.649  12.483
27191W        W99616  32.098  33.054   3.646
27192W        W99617  15.730  28.114   3.723
27193W        W99618  28.049   0.424   0.418
27194W        W99619  10.221  11.687  11.449
27195W        W99620  22.999  12.778   2.303
27196W        W99621   7.885  15.645  13.060
27197W        W99622   8.807  18.625  11.025
27198W        W99623   9.175  29.512  12.989
27199W        W99624   6.364  10.166   2.768
27200W        W99625  36.014  24.499   4.762
27201W        W99626  26.167  12.358  10.944
27202W        W99627  33.018   9.299   2.325
27203W        W99628  42.825  13.161   1.779
27204W        W99629   4.790  43.357  11.495
27205W        W99630  10.342  25.482   1.857
27206W        W99631  39.474  26.696  12.372
27207W        W99632  11.145  16.610   4.181
27208W        W99633  39.982  38.862  12.393
27209W        W99634  12.782  37.449  13.002
27210W        W99635  34.064  29.064   1.419
27211W        W99636  28.951  19.204   3.364
27212W        W99637  33.892   8.201  13.859
27213W        W99638  15.690   1.850  14.891
27214W        W99639  14.280  14.618  12.981
27215W        W99640  19.149   3.380  12.845
27216W        W99641  15.702  33.511   1.239
27217W        W99642  32.987  39.391   3.147
27218W        W99643  14.599  10.832   4.630
27219W        W99644  11.784  37.510  14.790
27220W        W99645  38.919  26.658  13.845
27221W        W99646  40.457  29.989  10.981
27222W        W99647  18.654  28.620   2.876
27223W        W99648  39.426  41.387   0.909
27224W        W99649   6.330  21.246   1.372
27225W        W99650  20.208  35.575  13.996
27226W        W99651  21.747  12.686   1.751
27227W        W99652  10.207  10.346   4.313
27228W        W99653  29.627  25.049   1.788
27229W        W99654  31.631  37.513   0.386
27230W        W99655  42.393  43.996   3.240
27231W        W99656  44.879   7.790   3.305
27232W        W99657  41.477  18.761   0.917
27233W        W99658  25.983  43.789   0.785
27234W        W99659  34.870  39.010  14.935
27235W        W99660   1.742   4.224  12.902
27236W        W99661  21.518  31.496  10.618
27237W        W99662  15.302  23.560  14.311
27238W        W99663  23.000  39.475  10.617
27239W        W99664  25.181   4.408   0.302
27240W        W99665  42.948  25.004   2.252
27241W        W99666   4.754  42.376   0.281
27242W        W99667  44.804  21.018   4.140
27243W        W99668  34.894  27.524  14.003
27244W        W99669  36.856  25.047   2.713
27245W        W99670   3.935   6.803  12.903
27246W        W99671   8.867  12.623  13.049
27247W        W99672   8.830  38.507  10.922
27248W        W99673  25.167  27.468   4.681
27249W        W99674  42.016  23.193   5.108
27250W        W99675  23.137  13.649  12.440
27251W        W99676   5.922  34.922  12.509
27252W        W99677  13.258  23.641  11.886
27253W        W99678  36.847  29.985  14.986
27254W        W99679  21.518  44.820   1.823
27255W        W99680   7.719   1.776  11.857
27256W        W99681  22.153  29.933  12.466
27257W        W99682  23.589  23.193  10.448
27258W        W99683   1.452  34.871  13.039
27259W        W99684  36.885  21.152  14.456
27260W        W99685   9.770  44.837   3.630
27261W        W99686  44.368   5.749   2.347
27262W        W99687   4.870  24.715  13.406
27263W        W99688  43.965  38.927  13.818
27264W        W99689  12.167  14.254   2.898
27265W        W99690  30.976  33.108   1.313
27266W        W99691  27.087   8.210  14.982
27267W        W99692  25.184   2.442   5.309
27268W        W99693  28.559  29.137  14.980
27269W        W99694  27.516  35.045   3.293
27270W        W99695  24.174   4.364  12.422
27271W        W99696  28.670  42.478  14.392
27272W        W99697  21.582   8.180  11.991
27273W        W99698   1.868  43.945   4.325
27274W        W99699  12.231  35.361  10.913
27275W        W99700  28.457  36.516  14.873
27276W        W99701  24.696  42.991  10.599
27277W        W99702   9.330  37.058   2.398
27278W        W99703   0.416  34.412   4.160
27279W        W99704   8.254   9.707  11.918
27280W        W99705  21.052  44.891  12.381
27281W        W99706  26.479  29.973  12.536
27282W        W99707  32.590  37.866  14.309
27283W        W99708   3.899  24.973   5.277
27284W        W99709   8.392  24.014   3.742
27285W        W99710  32.542  40.541   0.286
27286W        W99711  32.392   1.875   1.370
27287W        W99712  38.351  15.104  14.381
27288W        W99713  25.021  29.938   9.966
27289W        W99714  22.585  38.888   0.886
27290W        W99715  31.081  23.654   5.152
27291W        W99716  14.774  39.944  11.421
27292W        W99717  17.561  27.567  13.828
27293W        W99718  17.179  18.730   4.243
27294W        W99719  32.016  15.645   2.861
27295W        W99720  18.740  18.685   1.730
27296W        W99721  31.488  13.601   4.299
27297W        W99722  16.246  43.457   4.299
27298W        W99723  37.963  11.198   0.430
27299W        W99724  27.040  38.364  11.399
27300W        W99725  32.050  22.682   1.396
27301W        W99726  39.037  25.062  13.337
27302W        W99727  23.023  42.017  10.902
27303W        W99728   0.247  31.925   4.348
27304W        W99729  30.916   4.750  12.887
27305W        W99730   8.359  13.619  13.544
27306W        W99731  37.020   9.677  14.367
27307W        W99732   5.309  40.422  10.417
27308W        W99733  34.446  35.022   0.347
27309W        W99734  15.184   0.869   4.651
27310W        W99735   0.938  42.859  12.462
27311W        W99736  11.832  28.097  12.845
27312W        W99737   6.682  33.426   0.328
27313W        W99738   4.938   1.286  12.927
27314W        W99739  27.949  29.118   0.379
27315W        W99740  12.822  20.718  10.415
27316W        W99741  13.805  31.646   0.469
27317W        W99742  28.019   4.301   3.810
27318W        W99743  16.752  14.223  11.462
27319W        W99744  35.359  42.826  13.497
27320W        W99745  33.902  39.507  14.400
27321W        W99746   3.902  40.304   1.708
27322W        W99747  35.364  15.705   2.903
27323W        W99748  10.768   6.395  14.405
27324W        W99749  21.544  37.862   2.325
27325W        W99750   0.986  22.084  12.381
27326W        W99751  14.592  20.105   1.892
27327W        W99752  28.019  43.999  14.503
27328W        W99753  24.092   3.759   2.868
27329W        W99754   0.352  23.093  12.827
27330W        W99755   8.242  20.191  12.004
27331W        W99756  36.856  34.031   3.719
27332W        W99757  17.099  43.301   1.694
27333W        W99758  17.781   6.776  10.431
27334W        W99759   3.253  26.201  11.373
27335W        W99760  43.019   7.762   3.855
27336W        W99761  11.778  13.839   1.423
27337W        W99762  12.279  29.959  14.960
27338W        W99763  33.877  33.048  12.928
27339W        W99764  24.678  21.722  14.403
27340W        W99765   7.781  24.143  14.779
27341W        W99766   6.743  23.661   2.707
27342W        W99767   9.330  27.490  11.081
27343W        W99768  20.607  18.559   2.347
27344W        W99769  36.459  43.326  14.806
27345W        W99770  21.083  27.484   2.779
27346W        W99771   4.329  38.896  11.019
27347W        W99772   0.803   1.976  12.555
27348W        W99773   9.347  28.172  10.025
27349W        W99774  29.609   2.950  13.337
27350W        W99775  34.506  25.692  11.460
27351W        W99776   2.264  40.999  11.571
27352W        W99777  38.349  37.055   4.741
27353W        W99778   8.723  13.635  11.573
27354W        W99779  21.198  21.524   1.866
27355W        W99780  12.734  15.127  12.906
27356W        W99781   8.828  19.212  14.962
27357W        W99782  10.176  39.511  10.499
27358W        W99783  26.668  14.339  10.430
27359W        W99784  10.170   2.277  10.932
27360W        W99785  33.580  20.051   4.610
27361W        W99786  36.468  43.000   2.362
27362W        W99787  34.371   6.201   3.692
27363W        W99788   8.297  40.910   4.312
27364W        W99789  23.510  34.937  11.438
27365W        W99790   0.483   7.847   0.466
27366W        W99791  13.751   1.844   3.723
27367W        W99792  38.443  20.066  10.993
27368W        W99793   7.415   8.765  12.897
27369W        W99794   2.915  40.868  11.558
27370W        W99795  10.294  22.653   0.348
27371W        W99796  17.069  25.117  14.844
27372W        W99797  29.985   9.816  12.444
27373W        W99798  21.580  21.261   3.218
27374W        W99799  14.097  31.064  11.386
27375W        W99800  38.562  43.910  10.514
27376W        W99801  12.759  32.633  13.011
27377W        W99802  15.614  10.290  10.450
27378W        W99803  32.058   3.767  14.306
27379W        W99804   9.237  23.229   0.427
27380W        W99805  23.509  23.607  13.494
27381W        W99806   8.791   6.698   3.670
27382W        W99807  26.040  42.341   4.214
27383W        W99808  37.394  26.087   3.292
27384W        W99809  44.943   3.937   2.798
27385W        W99810  36.498  23.645   1.252
27386W        W99811   9.196  11.854   2.258
27387W        W99812  42.453   7.303  14.785
27388W        W99813  36.888  21.249  14.915
27389W        W99814   2.472  33.472  11.521
27390W        W99815   9.177   0.758  14.760
27391W        W99816   9.846  25.189  11.976
27392W        W99817  24.695  14.238  13.917
27393W        W99818  18.164  29.978   1.249
27394W        W99819  36.876   5.413   0.919
27395W        W99820  25.595  19.103  14.279
27396W        W99821  18.218  42.027  10.461
27397W        W99822   1.790  28.450   4.630
27398W        W99823  15.656  38.949   2.891
27399W        W99824  43.358   0.776  11.857
27400W        W99825  16.086   7.360  14.896
27401W        W99826  44.779  35.891   0.898
27402W        W99827  18.208  16.786  12.943
27403W        W99828  41.044  17.218   2.848
27404W        W99829   0.876  16.737  12.056
27405W        W99830  29.938   3.714  13.825
27406W        W99831  42.993  24.974  12.400
27407W        W99832   5.404  36.919   0.954
27408W        W99833  41.295   0.421  14.353
27409W        W99834  33.420  18.267  14.466
27410W        W99835  11.273  40.985   1.792
27411W        W99836  31.926  22.117   1.224
27412W        W99837  16.704  37.413  12.012
27413W        W99838   2.827  34.389   0.392
27414W        W99839  39.391  22.057  10.595
27415W        W99840  22.601  20.030   1.749
27416W        W99841  31.995  16.778   0.307
27417W        W99842   0.987   2.282   0.242
27418W        W99843  44.304  12.184   2.854
27419W        W99844  32.498  37.498   2.861
27420W        W99845  20.757  17.557  11.414
27421W        W99846   9.701   4.841  10.078
27422W        W99847  21.205  10.758   4.643
27423W        W99848  10.751  36.869  12.391
27424W        W99849  40.378  39.318  14.920
27425W        W99850  37.015   7.829  14.004
27426W        W99851  23.028  33.971   0.254
27427W        W99852  25.631  24.559  12.900
27428W        W99853  35.573  27.114   1.228
27429W        W99854  13.261  20.139  14.351
27430W        W99855  18.267  17.709  14.848
27431W        W99856  38.941  37.397  11.062
27432W        W99857  17.185  41.399  10.624
27433W        W99858  20.599  36.082  14.461
27434W        W99859  38.021   9.665   3.668
27435W        W99860   9.763  18.086   4.654
27436W        W99861  15.718  24.014   3.755
27437W        W99862  38.877   9.169   0.415
27438W        W99863  28.175  24.599  14.778
27439W        W99864   0.962  37.494   3.334
27440W        W99865   6.388  15.248  13.942
27441W        W99866  23.611  13.644   2.264
27442W        W99867  44.807  30.997   2.390
27443W        W99868  36.870   5.241  11.100
27444W        W99869   7.412  38.838  13.508
27445W        W99870  22.663  34.059  12.038
27446W        W99871  21.120  25.650   0.876
27447W        W99872  27.986  17.203   2.268
27448W        W99873   8.898  23.729   3.767
27449W        W99874  29.133  13.308   1.348
27450W        W99875   7.827  26.964   0.330
27451W        W99876  31.066  20.093   4.252
27452W        W99877  30.568  13.655   1.926
27453W        W99878  18.284  14.191  14.435
27454W        W99879  13.128  20.110  13.352
27455W        W99880   6.744  17.636  10.547
27456W        W99881   4.875  35.405  11.924
27457W        W99882  19.637   6.265   4.790
27458W        W99883  35.988  41.441   1.390
27459W        W99884  17.678  10.644  10.421
27460W        W99885   2.958   0.326   4.832
27461W        W99886   6.329  40.397  11.429
27462W        W99887   4.748  31.990  11.464
27463W        W99888   8.835   7.841  12.363
27464W        W99889  38.477  16.766   1.781
27465W        W99890  32.563  27.116   3.248
27466W        W99891  41.955  31.132  14.031
27467W        W99892   4.928  28.522  13.451
27468W        W99893  31.499  30.431  14.839
27469W        W99894   7.179  14.147   2.801
27470W        W99895  38.479  27.689   4.252
27471W        W99896  32.902  18.588  14.357
27472W        W99897  36.066  30.069  13.365
27473W        W99898  16.269   3.751  13.459
27474W        W99899  27.501  25.128   2.217
27475W        W99900  38.387   1.432  10.406
27476W        W99901  43.291  21.584   1.321
27477W        W99902  38.560  14.276  11.549
27478W        W99903  35.012  20.231   4.653
27479W        W99904  15.305  32.612  12.471
27480W        W99905  30.542  34.507  12.478
27481W        W99906  15.092  34.948   4.285
27482W        W99907   1.879  13.732   0.884
27483W        W99908  16.308  12.616   0.251
27484W        W99909  44.421   7.248  14.981
27485W        W99910  15.156  31.013  11.908
27486W        W99911  14.264  32.601  10.499
27487W        W99912  25.160  23.550  14.912
27488W        W99913  36.996  40.504   3.767
27489W        W99914   4.750  14.680   1.729
27490W        W99915  33.563  31.446  11.019
27491W        W99916   6.360  23.682  10.075
27492W        W99917  23.092  30.117  14.913
27493W        W99918   1.805  32.585  10.905
27494W        W99919  19.600  35.870  12.482
27495W        W99920  17.236  43.918  11.391
27496W        W99921  42.902  26.463  12.830
27497W        W99922   5.438   6.919  11.978
27498W        W99923  10.302  24.668   4.614
27499W        W99924  15.803  34.599   0.828
27500W        W99925  12.784  43.916  13.058
27501W        W99926  24.643  12.205   1.413
27502W        W99927  15.169  15.129  13.896
27503W        W99928  41.379  36.853  11.450
27504W        W99929   3.924  36.057   3.273
27505W        W99930  27.091  29.051  10.598
27506W        W99931  43.934  21.079  12.427
27507W        W99932  35.424   9.300   4.741
27508W        W99933   2.274  41.452   2.227
27509W        W99934  19.113  25.174   1.785
27510W        W99935  38.974  17.214   0.779
27511W        W99936  41.872  24.704  12.094
27512W        W99937  38.338   8.405   0.963
27513W        W99938  23.677  21.627  13.024
27514W        W99939  17.596  35.422   4.666
27515W        W99940  11.813  16.197   0.929
27516W        W99941  42.025  24.608  14.891
27517W        W99942  39.370  24.642  13.919
27518W        W99943  10.178  37.397   3.701
27519W        W99944  35.495  17.708  12.978
27520W        W99945  12.162  27.122  10.924
27521W        W99946   1.477  36.867   0.259
27522W        W99947  28.981   5.239  13.988
27523W        W99948   3.791  12.219  14.433
27524W        W99949  43.513   1.855   1.719
27525W        W99950   9.202  40.483   4.280
27526W        W99951   1.272   0.925   4.760
27527W        W99952  44.895   6.242  12.442
27528W        W99953  25.522   5.781  13.834
27529W        W99954  26.194  36.512  12.000
27530W        W99955  18.675  12.163  12.936
27531W        W99956  38.030  14.240   0.872
27532W        W99957  39.842  31.638  11.120
27533W        W99958  36.434  11.757   1.421
27534W        W99959   5.202  39.319  12.077
27535W        W99960   4.270  31.619  11.910
27536W        W99961  23.033  35.985  10.968
27537W        W99962  23.024   6.838  10.580
27538W        W99963  33.956  28.475   0.866
27539W        W99964  24.572  16.125  10.558
27540W        W99965   0.322  41.979   1.266
27541W        W99966   3.260  37.917   3.638
27542W        W99967  16.609  40.914   0.344
27543W        W99968  38.953  25.963  12.435
27544W        W99969  18.291   3.908  13.359
27545W        W99970  44.944  42.015   4.719
27546W        W99971   7.778  39.417  10.487
27547W        W99972  34.094  20.543   1.737
27548W        W99973  34.593  17.565  13.503
27549W        W99974  15.320  38.061   1.247
27550W        W99975   1.456   0.280  11.564
27551W        W99976   8.670  37.066   1.412
27552W        W99977  25.679  29.995   2.881
27553W        W99978  42.840  43.953   2.722
27554W        W99979  32.440  33.101  12.937
27555W        W99980  30.507  23.181   1.933
27556W        W99981  17.187  40.504   3.316
27557W        W99982   2.383  11.766  12.484
27558W        W99983  39.449   1.809   4.267
27559W        W99984  11.623  33.044   3.795
27560W        W99985  21.687   0.743   4.649
27561W        W99986  25.543  36.390  11.553
27562W        W99987  41.536  44.364  10.125
27563W        W99988   1.914  43.914   0.787
27564W        W99989  40.413  28.979  10.587
27565W        W99990  34.114   5.437   4.281
27566W        W99991  41.359   8.733  11.428
27567W        W99992  24.011  24.135  10.550
27568W        W99993  42.488  21.563  13.797
27569W        W99994  39.384  28.609   4.211
27570W        W99995  42.809  40.954   4.667
27571W        W99996  20.212  15.667  11.419
27572W        W99997  30.918  39.369   5.266
27573W        W99998  34.415  19.164  11.418
27574W        W99999  35.016  29.924  14.933
27575W        W    0  42.838  44.450   3.384
27576W        W    1  11.367  33.412   2.740
27577W        W    2  11.238  34.064   4.647
27578W        W    3  27.990  29.064  14.371
27579W        W    4  32.544  42.824   4.162
27580W        W    5  25.546  43.487  12.429
27581W        W    6  29.654   7.377   1.434
27582W        W    7   2.306  23.606   3.811
27583W        W    8  27.990   7.312   5.297
27584W        W    9  34.050   9.181  12.369
27585W        W   10  34.369   1.390   3.642
27586W        W   11  21.115  23.227  13.042
27587W        W   12  36.978  34.444   0.847
27588W        W   13  21.642  44.405   0.480
27589W        W   14  42.392  29.988  13.971
27590W        W   15   0.747  20.071   3.738
27591W        W   16  42.502  33.904  12.895
27592W        W   17  35.017  26.470  11.514
27593W        W   18  37.477  35.077  14.806
27594W        W   19  19.108   7.718  13.028
27595W        W   20  44.806  18.181  13.528
27596W        W   21   3.336  35.876  10.990
27597W        W   22   6.854   7.867  10.482
27598W        W   23  44.755  40.344   1.928
27599W        W   24   5.756  14.634   4.710
27600W        W   25  31.915  43.277   2.783
27601W        W   26  22.082   1.906  14.770
27602W        W   27  10.660  17.299  13.420
27603W        W   28   4.283   7.376   2.194
27604W        W   29   7.760  20.530  14.759
27605W        W   30  24.695   2.964   3.323
27606W        W   31   8.355   8.703   4.731
27607W        W   32  14.808  26.528  14.932
27608W        W   33  17.610  34.086   0.368
27609W        W   34  10.363  35.861  13.536
27610W        W   35   4.287  18.788  13.978
27611W        W   36  10.371  39.831   2.261
27612W        W   37  19.692  11.234   2.837
27613W        W   38   2.454   8.371   3.374
27614W        W   39  15.687  41.312   3.152
27615W        W   40   2.335   6.760   3.273
27616W        W   41  24.488  41.794   3.254
27617W        W   42  17.169   7.272   1.387
27618W        W   43  13.657  14.719   0.440
27619W        W   44   6.777  13.827   0.325
27620W        W   45  25.698  19.584   1.836
27621W        W   46   7.195   5.386  13.996
27622W        W   47  33.057  34.865   4.252
27623W        W   48  30.931   2.231  14.326
27624W        W   49  40.985  20.103   3.659
27625W        W   50  27.608  21.667  14.340
27626W        W   51   5.207  44.455   4.755
27627W        W   52  23.680   0.259  14.777
27628W        W   53  39.033  39.508   1.347
27629W        W   54   1.387  26.959   0.780
27630W        W   55  13.651  23.216  12.954
27631W        W   56  34.469  11.294  11.571
27632W        W   57  23.506  27.184   3.758
27633W        W   58   1.844  11.805   1.805
27634W        W   59  15.237  28.665   3.193
27635W        W   60   9.824   2.339  14.878
27636W        W   61  13.316  24.021   0.309
27637W        W   62  37.525  12.801  12.448
27638W        W   63  16.266  22.057   1.311
27639W        W   64  41.025  28.123   4.754
27640W        W   65  13.646   2.894   4.628
27641W        W   66   0.255  16.089  12.007
27642W        W   67  13.107  37.574  12.070
27643W        W   68  12.658  35.398   4.725
27644W        W   69  35.532  41.471   2.298
27645W        W   70  44.351  14.608   1.931
27646W        W   71   7.688   3.929   3.380
27647W        W   72  16.165  36.354  12.472
27648W        W   73  11.294   2.958   5.619
27649W        W   74  37.073  28.115  13.841
27650W        W   75   0.483  35.055   3.754
27651W        W   76  19.135  21.563  11.102
27652W        W   77  27.175  31.920  13.895
27653W        W   78   5.734  34.467  13.998
27654W        W   79  37.511  40.997   3.723
27655W        W   80  13.656  31.927  12.990
27656W        W   81  44.350  30.470   1.798
27657W        W   82  35.897  43.006   0.255
27658W        W   83  15.158  19.116  11.058
27659W        W   84  30.949  33.508   2.678
27660W        W   85  27.535  25.987  14.373
27661W        W   86  42.378  34.117  13.893
27662W        W   87  17.233   5.843   4.694
27663W        W   88  34.568  14.290  13.793
27664W        W   89  20.617  27.613   0.835
27665W        W   90  11.146  15.162   3.716
27666W        W   91   6.796  41.927   2.200
27667W        W   92  36.552  16.317  13.983
27668W        W   93   9.379  21.127  13.456
27669W        W   94   5.312  41.005  14.300
27670W        W   95   8.398  11.224   3.659
27671W        W   96   0.911  22.159   0.910
27672W        W   97  42.407  23.147   4.169
27673W        W   98  25.082  36.897   2.366
27674W        W   99   1.458  41.810   4.282
27675W        W  100  37.354  25.197  10.901
27676W        W  101  29.118  38.896   9.469
27677W        W  102  22.501   4.253   2.363
27678W        W  103  31.128  31.643   1.396
27679W        W  104  39.462  22.726   0.857
27680W        W  105  20.115  11.165   2.289
27681W        W  106   3.918   4.729  10.541
27682W        W  107  40.924  26.002  14.489
27683W        W  108  31.423  44.937  11.860
27684W        W  109  14.804  17.290   2.729
27685W        W  110  13.655  33.489   3.692
27686W        W  111   8.661  25.509   5.215
27687W        W  112  25.643   1.399   4.123
27688W        W  113  13.828   1.366   1.799
27689W        W  114  24.035   6.836   2.881
27690W        W  115  33.561   6.327   4.323
27691W        W  116  41.451   9.178   4.653
27692W        W  117  41.976   3.322   2.827
27693W        W  118  44.395  21.163   3.327
27694W        W  119  20.160  15.218  10.897
27695W        W  120  28.545   8.375  12.579
27696W        W  121  19.593  19.183   2.868
27697W        W  122   4.885   2.962  14.285
27698W        W  123  30.523  37.839  13.000
27699W        W  124   2.433  37.010   4.672
27700W        W  125  33.387  37.354   3.843
27701W        W  126  32.084  27.144   4.712
27702W        W  127   6.700   4.346  12.455
27703W        W  128   2.348  16.778  10.459
27704W        W  129   1.336  36.944   1.337
27705W        W  130   9.773   9.201  11.388
27706W        W  131   0.267  12.692  11.375
27707W        W  132   0.783  30.518  13.802
27708W        W  133  28.139  35.413   3.779
27709W        W  134   2.840  16.272   3.777
27710W        W  135  38.834   0.374  13.307
27711W        W  136  15.150   3.761   4.318
27712W        W  137  28.576  11.179   2.675
27713W        W  138  26.622  35.452   2.366
27714W        W  139   4.770   4.937   2.399
27715W        W  140   0.320  30.046  11.604
27716W        W  141  11.332  12.836  12.945
27717W        W  142  41.409  30.627   0.260
27718W        W  143  39.825  32.022   0.466
27719W        W  144  26.589  39.335   3.869
27720W        W  145   7.900  35.441   4.675
27721W        W  146  39.868   2.372   3.749
27722W        W  147  14.292   0.973   4.290
27723W        W  148  33.458   0.764  10.587
27724W        W  149  13.139  37.364   5.152
27725W        W  150  40.340  21.257   1.217
27726W        W  151  16.583  38.548   3.261
27727W        W  152  44.459   8.354   5.254
27728W        W  153  19.744  32.115  11.567
27729W        W  154   3.849   7.370   5.105
27730W        W  155  27.085  44.966   0.750
27731W        W  156  24.493   9.216  10.486
27732W        W  157  38.426  28.594  12.849
27733W        W  158   7.185   2.936   4.116
27734W        W  159  10.692   0.351   2.775
27735W        W  160  31.974  30.415   1.786
27736W        W  161   5.709  30.554   0.246
27737W        W  162  27.977  33.447  10.898
27738W        W  163  33.021  38.387   2.237
27739W        W  164  38.476  19.580  12.027
27740W        W  165  13.701  44.335   4.793
27741W        W  166  31.942  30.036   0.397
27742W        W  167  35.563  11.150  12.087
27743W        W  168  31.618  30.068   0.329
27744W        W  169  20.081  30.585  12.066
27745W        W  170   3.384  30.016   3.339
27746W        W  171  31.902  32.542  14.760
27747W        W  172  37.831  32.425  10.581
27748W        W  173  11.139  15.769   3.177
27749W        W  174   4.801   2.417   4.215
27750W        W  175  12.734  14.750  12.407
27751W        W  176  18.759  16.096  10.506
27752W        W  177  25.982  15.634  11.385
27753W        W  178  38.922  27.566  10.015
27754W        W  179  15.632  35.102   1.815
27755W        W  180   5.219  25.033   1.799
27756W        W  181   2.406  12.656   2.305
27757W        W  182  23.527   6.356  14.916
27758W        W  183  14.832   8.323   4.352
27759W        W  184  11.140  39.832   1.260
27760W        W  185  38.826  34.538  13.926
27761W        W  186   2.261  36.533   0.449
27762W        W  187  16.152  34.931  10.998
27763W        W  188  40.992  28.098   2.262
27764W        W  189   0.907  24.115   1.408
27765W        W  190  37.467  33.563  13.472
27766W        W  191  22.101  35.410   3.315
27767W        W  192  21.167   0.320   2.707
27768W        W  193  31.499  25.476  14.447
27769W        W  194  39.000  28.575  14.468
27770W        W  195   7.333  37.454   0.913
27771W        W  196  36.061  26.121  13.002
27772W        W  197   1.416  17.712  13.049
27773W        W  198  14.108  19.108   1.254
27774W        W  199  14.754   5.199  12.884
27775W        W  200   4.916  30.146   0.481
27776W        W  201   1.399  19.732  14.321
27777W        W  202  33.404  24.670   4.238
27778W        W  203  33.619  31.013   2.406
27779W        W  204  19.136  14.637  12.416
27780W        W  205  27.103  26.073  11.057
27781W        W  206  16.161  39.398   3.222
27782W        W  207  12.269  33.980  13.948
27783W        W  208  13.175   3.813   9.466
27784W        W  209  27.976  42.959  10.577
27785W        W  210  27.570   4.773   2.787
27786W        W  211  32.951  39.431   4.674
27787W        W  212   2.874  18.108   0.417
27788W        W  213  18.782   9.327   3.804
27789W        W  214   4.427   6.209  14.407
27790W        W  215   1.418  29.156   3.860
27791W        W  216  38.435  11.696  13.910
27792W        W  217   5.701  23.716   1.261
27793W        W  218  32.129   2.854   4.217
27794W        W  219  10.341   4.365   4.173
27795W        W  220  17.141   8.886   0.959
27796W        W  221  20.273   0.449  14.907
27797W        W  222   4.826  13.139  13.051
27798W        W  223  29.152  22.546   0.940
27799W        W  224   3.724   4.364  11.601
27800W        W  225  13.137   2.452  12.971
27801W        W  226  39.902  32.999   4.724
27802W        W  227   1.455   6.296   2.902
27803W        W  228  32.585  26.996  11.397
27804W        W  229  38.074  24.488   3.797
27805W        W  230  41.896  12.802   0.311
27806W        W  231   4.762  26.974  14.451
27807W        W  232  21.017  15.806  11.020
27808W        W  233  15.797  42.510   2.828
27809W        W  234  11.251  28.038   0.791
27810W        W  235  12.233   2.779   3.866
27811W        W  236  24.068  27.099   1.858
27812W        W  237   0.256  15.816   0.338
27813W        W  238  39.556  39.846  13.861
27814W        W  239   7.354  23.608  13.541
27815W        W  240  24.575   5.434  14.487
27816W        W  241  28.547  42.952  12.062
27817W        W  242   0.911   0.810   3.373
27818W        W  243  44.331  29.602  11.379
27819W        W  244  11.310  11.248   4.180
27820W        W  245  17.089  38.339   0.337
27821W        W  246  41.933  18.149   2.869
27822W        W  247  35.883  20.085  14.795
27823W        W  248   0.262  22.568  13.058
27824W        W  249  23.573  37.921  14.316
27825W        W  250  42.786  15.728   4.826
27826W        W  251  31.145   3.449   0.745
27827W        W  252   4.362  29.021  11.551
27828W        W  253  28.508  20.565  12.047
27829W        W  254   3.378  16.104  10.498
27830W        W  255   9.675   0.849  13.428
27831W        W  256  14.832  24.217  12.476
27832W        W  257   7.671  28.167   0.382
27833W        W  258   1.772  24.124  13.917
27834W        W  259  24.547  37.076   3.337
27835W        W  260   7.370   3.371   2.368
27836W        W  261  42.490   1.332   3.305
27837W        W  262  27.501  10.337  14.291
27838W        W  263  38.922  23.122   2.791
27839W        W  264  39.982  23.694   0.865
27840W        W  265  19.564  21.705  12.457
27841W        W  266   4.219  28.646  11.509
27842W        W  267  31.035  39.980   0.960
27843W        W  268  14.660  43.408   2.777
27844W        W  269  14.600  39.470   1.355
27845W        W  270   3.912  33.490   4.802
27846W        W  271   6.865   3.302   0.792
27847W        W  272  16.202   4.284   2.677
27848W        W  273  38.075  41.484  10.123
27849W        W  274  21.622   4.370  12.073
27850W        W  275  16.175  39.849  10.625
27851W        W  276   1.911   8.740  11.418
27852W        W  277  16.191   9.349   0.243
27853W        W  278  29.424  36.939   0.423
27854W        W  279  28.652  24.170   5.153
27855W        W  280  41.864   4.264  12.449
27856W        W  281   2.230  22.200  12.079
27857W        W  282  21.600   4.280  12.578
27858W        W  283   6.264   3.313   4.315
27859W        W  284  34.094  44.843   3.760
27860W        W  285  10.661  13.215   1.852
27861W        W  286  20.135  14.627   0.790
27862W        W  287  19.206  17.285   2.319
27863W        W  288  31.041  25.119   5.288
27864W        W  289  26.985  11.626  14.900
27865W        W  290  43.984   4.432  11.420
27866W        W  291  14.293  33.996   0.318
27867W        W  292   8.374  18.259   4.347
27868W        W  293   7.276  35.855  12.910
27869W        W  294  17.253  16.615   2.807
27870W        W  295   9.217  23.045   1.367
27871W        W  296  42.954  41.331   0.910
27872W        W  297  40.014  20.184  12.526
27873W        W  298  40.548  33.013  11.457
27874W        W  299  44.368  35.949   2.416
27875W        W  300  26.052  40.376   4.274
27876W        W  301   1.952  33.083   4.233
27877W        W  302   3.892  39.368   0.452
27878W        W  303   7.901  22.143  12.953
27879W        W  304   8.248  41.388  10.546
27880W        W  305  24.191  17.733  14.028
27881W        W  306  17.295  14.778  11.979
27882W        W  307  30.979  16.768   4.748
27883W        W  308  16.112  13.156   1.716
27884W        W  309  25.518  24.180   0.293
27885W        W  310  10.258  24.578  14.961
27886W        W  311   9.684  34.565  10.910
27887W        W  312   7.697  25.711  14.311
27888W        W  313  31.464  23.516   4.214
27889W        W  314   9.725  24.510   1.812
27890W        W  315  24.711  10.246   3.706
27891W        W  316   6.392  21.571   4.338
27892W        W  317  40.999  33.909  14.467
27893W        W  318  28.104  35.989  11.511
27894W        W  319  14.671   7.269   1.700
27895W        W  320  38.862  17.732  11.482
27896W        W  321  28.472   9.387  12.341
27897W        W  322  41.526  22.201   0.380
27898W        W  323  24.606  31.130  10.089
27899W        W  324  18.683  42.316  14.868
27900W        W  325  23.500  39.825   3.765
27901W        W  326   8.274   0.408   2.200
27902W        W  327  26.962   7.828   3.358
27903W        W  328  19.624  18.742  10.999
27904W        W  329  30.493  40.314   2.693
27905W        W  330  37.056  40.990   4.276
27906W        W  331  16.171   1.319   4.669
27907W        W  332  28.024  11.748  12.532
27908W        W  333  42.386   3.432   3.768
27909W        W  334   7.204  18.683  10.920
27910W        W  335  35.489  33.606   0.810
27911W        W  336  38.989   2.234  11.945
27912W        W  337   8.293   1.352   4.251
27913W        W  338  12.671  18.554   1.382
27914W        W  339  28.505  32.427   3.690
27915W        W  340  42.362  32.136   0.384
27916W        W  341  25.169  32.621   4.689
27917W        W  342  36.540  23.491   3.348
27918W        W  343  40.425  31.491   2.813
27919W        W  344  35.397  34.930   3.145
27920W        W  345  20.735  27.948  10.642
27921W        W  346   1.432  34.869   0.367
27922W        W  347  24.030  37.509   1.374
27923W        W  348   3.721  40.941   0.425
27924W        W  349  32.961   8.878   1.926
27925W        W  350   1.924   5.261  13.836
27926W        W  351  29.645  39.023   1.747
27927W        W  352   4.432  13.239  13.964
27928W        W  353   3.810   4.750   0.247
27929W        W  354  10.380  44.968   1.431
27930W        W  355  36.904  28.530   4.239
27931W        W  356  32.008  24.718   0.859
27932W        W  357  43.346   9.688  13.383
27933W        W  358  28.480  44.885   1.912
27934W        W  359  29.929   6.236  11.473
27935W        W  360  36.985  40.009   1.752
27936W        W  361   4.817  16.131  12.901
27937W        W  362   3.918  15.588   0.837
27938W        W  363   3.445  35.952   3.293
27939W        W  364   9.870  32.613   1.334
27940W        W  365  31.939  20.252  10.584
27941W        W  366   4.707  28.672  10.624
27942W        W  367   3.879  20.736  10.455
27943W        W  368  11.637  26.120   3.837
27944W        W  369  27.996   4.248  11.403
27945W        W  370  19.584  41.044  14.449
27946W        W  371  17.161  33.012   0.392
27947W        W  372   0.957  27.532  14.496
27948W        W  373  35.899  34.117  12.506
27949W        W  374  18.194  13.129   3.290
27950W        W  375  40.440  41.505   0.359
27951W        W  376  20.666  38.484   3.707
27952W        W  377  42.283  12.340   4.744
27953W        W  378  27.961   5.734   3.828
27954W        W  379   7.766  24.688   3.337
27955W        W  380  19.121  27.159   0.398
27956W        W  381  31.625  25.213   4.175
27957W        W  382   8.366   1.747  10.916
27958W        W  383  19.586  20.083   3.157
27959W        W  384  20.522  19.176   2.895
27960W        W  385  20.127  41.414  10.976
27961W        W  386  33.547  29.456   0.794
27962W        W  387   4.290  28.460   2.716
27963W        W  388   0.902  32.104  14.378
27964W        W  389  12.126  40.356   3.234
27965W        W  390  12.742  37.899  13.063
27966W        W  391  36.954  11.210   4.756
27967W        W  392  29.007   0.370   1.880
27968W        W  393  15.645   6.849  12.836
27969W        W  394  17.802  40.529   3.747
27970W        W  395  21.049  19.764   4.276
27971W        W  396  22.617  11.368   4.291
27972W        W  397  39.886  31.446  12.450
27973W        W  398  37.533  44.343  10.939
27974W        W  399  25.694  35.497   4.257
27975W        W  400  16.750  10.843   4.774
27976W        W  401  27.091  18.634  13.837
27977W        W  402   9.306   4.928   2.859
27978W        W  403  18.618  34.076   2.682
27979W        W  404  31.950  34.948  12.386
27980W        W  405  19.247  28.949  12.092
27981W        W  406  38.496  21.153  13.456
27982W        W  407  11.733  17.710  10.090
27983W        W  408  16.762  41.024   4.128
27984W        W  409  32.037  31.096  10.996
27985W        W  410  18.774  24.026  12.973
27986W        W  411  28.028  34.114  10.571
27987W        W  412   0.985   1.383   0.920
27988W        W  413  42.990  44.985   4.307
27989W        W  414  41.409  30.505   0.904
27990W        W  415  44.934  24.096  14.360
27991W        W  416  22.061  42.470   2.226
27992W        W  417  26.664  42.917  11.945
27993W        W  418  23.554  19.217   4.736
27994W        W  419  31.920   2.882   4.785
27995W        W  420   6.189  11.277   0.483
27996W        W  421  37.946   7.834   9.502
27997W        W  422   2.850  36.934  11.984
27998W        W  423   2.759  32.560   4.618
27999W        W  424   0.333   4.314   3.680
28000W        W  425  33.061   5.789   2.319
28001W        W  426  13.204  10.379   3.861
28002W        W  427   0.767   3.272  10.921
28003W        W  428  16.285  38.432   0.303
28004W        W  429  35.444  11.159   0.775
28005W        W  430  12.310   7.747  13.045
28006W        W  431  34.934  17.590   2.863
28007W        W  432  39.997  15.248   0.775
28008W        W  433  16.121  30.552   1.763
28009W        W  434  40.511   3.300  12.006
28010W        W  435  36.578  23.711  13.410
28011W        W  436  41.874  39.432   1.809
28012W        W  437   7.797  33.506   0.258
28013W        W  438  26.540   7.695  10.601
28014W        W  439  40.011  28.026  12.047
28015W        W  440  16.153  10.664  14.871
28016W        W  441  32.076  42.928   4.117
28017W        W  442  35.016  32.528  12.925
28018W        W  443  39.950  14.689   2.829
28019W        W  444  24.502  11.662  10.952
28020W        W  445  17.238  19.621  12.458
28021W        W  446   1.806  36.474  14.996
28022W        W  447  32.112  31.016   1.246
28023W        W  448  30.134  35.400  14.470
28024W        W  449  18.237   6.821   4.351
28025W        W  450  35.090  43.354  14.449
28026W        W  451  17.616  33.898  13.404
28027W        W  452  18.765  19.268   1.773
28028W        W  453  17.754  33.608  12.908
28029W        W  454  17.558   0.820  14.305
28030W        W  455  19.693  31.499  11.951
28031W        W  456  38.921  40.840  10.507
28032W        W  457  37.483  18.068   3.332
28033W        W  458  28.507  44.868   0.911
28034W        W  459  39.960  41.798   1.762
28035W        W  460  23.222  16.763  11.046
28036W        W  461  39.912   9.334  10.918
28037W        W  462  39.856  29.579   0.436
28038W        W  463   8.302  14.171   1.889
28039W        W  464  34.526   5.377   3.178
28040W        W  465  39.458  39.321  11.471
28041W        W  466   0.258  39.925   0.888
28042W        W  467   0.378  43.295  14.027
28043W        W  468   1.324   4.942   2.362
28044W        W  469  38.867  15.211  13.311
28045W        W  470   1.413  41.298   2.705
28046W        W  471  37.466  15.287   2.715
28047W        W  472  22.178  31.506   4.824
28048W        W  473  42.500  16.143   1.835
28049W        W  474   8.672   2.839   2.854
28050W        W  475  20.028  26.144  12.052
28051W        W  476  37.919  34.082  11.391
28052W        W  477   5.772   9.237  14.289
28053W        W  478  42.306  44.281   2.667
28054W        W  479  40.390   8.694   1.296
28055W        W  480  23.106  27.539   4.827
28056W        W  481   3.730   3.303  10.521
28057W        W  482  26.562  38.434  13.973
28058W        W  483   4.288  36.895  14.889
28059W        W  484  42.358  34.906  13.858
28060W        W  485  14.624  32.618   3.745
28061W        W  486   6.913  27.602   4.253
28062W        W  487  37.046   9.725   9.981
28063W        W  488  34.478  21.031  10.572
28064W        W  489   0.840   4.307   4.214
28065W        W  490  28.974  13.255  12.070
28066W        W  491   8.177  35.526   4.247
28067W        W  492  41.914  22.589  11.075
28068W        W  493  25.598  38.020  14.999
28069W        W  494   1.318  22.172  13.804
28070W        W  495  40.828   0.363   2.340
28071W        W  496  42.333  34.966  14.828
28072W        W  497  33.912  28.473  13.425
28073W        W  498  32.899  38.950   0.769
28074W        W  499   6.338  10.702  11.571
28075W        W  500  11.714  35.461   2.835
28076W        W  501  41.412  27.652  10.978
28077W        W  502  34.114  17.751   1.374
28078W        W  503  13.201   9.759   3.174
28079W        W  504   5.337  32.000  13.526
28080W        W  505  41.982  31.956  10.453
28081W        W  506   0.959  16.130   1.768
28082W        W  507  30.515  16.774   1.836
28083W        W  508   2.433   3.222  11.525
28084W        W  509   1.382  23.099  11.533
28085W        W  510   1.900  16.685  14.344
28086W        W  511  26.095  29.436   5.797
28087W        W  512  37.983   4.339   1.820
28088W        W  513  32.026   7.711  12.366
28089W        W  514  12.755   9.312  12.929
28090W        W  515  33.591  42.296  12.862
28091W        W  516  33.058  16.727  14.951
28092W        W  517  32.557  31.931  12.901
28093W        W  518  10.830  28.991   2.403
28094W        W  519   0.753  31.405   0.418
28095W        W  520  10.309  35.941   4.279
28096W        W  521   7.299  14.187   0.448
28097W        W  522  32.496  41.024  14.427
28098W        W  523  26.515  43.825   2.831
28099W        W  524  22.602  23.526  11.466
28100W        W  525   9.840  20.238   1.339
28101W        W  526  35.577  13.159   3.754
28102W        W  527  14.611  22.073   5.293
28103W        W  528   9.712  38.967   4.796
28104W        W  529  14.283  33.088   3.200
28105W        W  530  15.115   0.942  13.793
28106W        W  531  36.007   9.338   9.602
28107W        W  532  17.627   8.871   2.708
28108W        W  533  18.194  34.451  14.800
28109W        W  534  39.324  39.367   4.232
28110W        W  535  36.421  18.756  13.853
28111W        W  536  10.860  32.914   2.697
28112W        W  537  44.289  12.282  11.057
28113W        W  538  18.750  31.070  11.088
28114W        W  539  25.213  30.645   2.383
28115W        W  540  24.721   2.770   4.213
28116W        W  541  12.324   3.729   2.797
28117W        W  542  44.492  22.720   0.858
28118W        W  543  11.781  26.992  11.571
28119W        W  544  39.820  40.340   1.214
28120W        W  545  44.282  20.069   4.764
28121W        W  546  15.198  35.029  10.641
28122W        W  547  32.393   9.704   3.680
28123W        W  548  30.019  38.994  10.585
28124W        W  549  44.430  32.454  13.444
28125W        W  550   4.741  31.442   1.435
28126W        W  551  34.999  29.464   5.090
28127W        W  552  36.390  34.515  14.510
28128W        W  553  11.805  21.077  11.008
28129W        W  554  43.419   2.436   4.783
28130W        W  555  38.017  15.166  10.967
28131W        W  556  38.953  15.257   1.409
28132W        W  557  33.572  25.156   5.092
28133W        W  558   5.329  21.039   1.912
28134W        W  559  32.402  36.850  13.473
28135W        W  560  13.801   3.853   2.303
28136W        W  561  40.036  37.416   4.742
28137W        W  562  26.094   5.346  14.354
28138W        W  563  26.143  23.723  10.460
28139W        W  564  24.606  15.794  12.941
28140W        W  565  31.968  41.958   5.083
28141W        W  566  44.283  35.460  12.559
28142W        W  567  10.785  32.413  10.986
28143W        W  568  40.999  12.348   3.312
28144W        W  569  25.988  28.052   0.449
28145W        W  570   4.876   9.850   3.686
28146W        W  571  26.577  34.883  13.038
28147W        W  572  16.743  13.760   2.702
28148W        W  573   3.758   2.828  12.473
28149W        W  574  31.495  45.000   4.340
28150W        W  575  25.585  25.675  14.920
28151W        W  576  27.653   3.736   3.159
28152W        W  577  16.606  30.064  12.535
28153W        W  578  11.635   2.837   5.573
28154W        W  579  10.304  36.390  13.331
28155W        W  580  33.473  42.949   2.248
28156W        W  581  40.870  42.832   1.881
28157W        W  582  18.631  24.024  13.415
28158W        W  583  36.917  10.837  12.941
28159W        W  584  11.363  35.492  14.383
28160W        W  585   8.820   8.740   2.212
28161W        W  586  11.641   3.951  13.811
28162W        W  587  32.045   0.346  10.420
28163W        W  588  35.034  25.122   3.362
28164W        W  589  28.164   8.229   0.396
28165W        W  590  35.853  34.998   2.692
28166W        W  591  18.097  32.546  14.401
28167W        W  592   1.950   9.385  12.427
28168W        W  593   2.864  31.049  12.048
28169W        W  594  35.399  37.890  14.401
28170W        W  595  31.932   3.879   2.415
28171W        W  596  42.850  11.661  14.769
28172W        W  597  30.601  25.476   2.306
28173W        W  598  29.616  10.164   3.781
28174W        W  599   9.357  18.727   2.726
28175W        W  600   7.679  42.439   0.912
28176W        W  601  16.294  32.468   3.336
28177W        W  602  40.404  14.294   0.748
28178W        W  603   3.736   2.390  13.919
28179W        W  604  31.051  16.613  12.966
28180W        W  605  34.535   5.779  11.554
28181W        W  606  32.005   9.239   0.842
28182W        W  607  25.518  15.195   0.377
28183W        W  608   1.382   1.951  10.962
28184W        W  609   8.665  16.795  10.596
28185W        W  610  21.202   0.959   4.336
28186W        W  611   0.458  28.586   2.769
28187W        W  612  28.681  26.023   4.227
28188W        W  613   8.235   8.284  14.292
28189W        W  614   4.275  33.066   3.233
28190W        W  615  30.939  12.726   3.152
28191W        W  616  12.265  22.577   3.650
28192W        W  617  39.458  17.604  14.821
28193W        W  618  12.215  13.681   2.856
28194W        W  619  37.487   3.317  11.439
28195W        W  620  30.555  35.459  14.959
28196W        W  621   5.416  43.417   1.775
28197W        W  622  15.594  27.678  14.495
28198W        W  623  26.184   2.965  13.446
28199W        W  624  11.171  18.156  12.456
28200W        W  625  38.427  18.100   1.300
28201W        W  626   8.161  26.961  14.912
28202W        W  627  33.464  31.085  10.470
28203W        W  628  28.949  36.096   0.789
28204W        W  629  41.866  33.517   2.233
28205W        W  630  37.563  22.021  12.061
28206W        W  631  36.890  37.064  14.357
28207W        W  632   0.867  31.922  10.531
28208W        W  633   2.339   1.309  13.833
28209W        W  634  17.139  10.726   3.164
28210W        W  635  40.847  27.510   2.379
28211W        W  636   2.349  44.341  10.497
28212W        W  637  37.574   4.224  12.082
28213W        W  638  23.691  33.498   2.356
28214W        W  639  32.621  34.039  13.807
28215W        W  640   5.366  36.022  11.055
28216W        W  641  33.527   0.340  11.035
28217W        W  642  14.214  32.048   0.245
28218W        W  643  10.271  36.014   0.271
28219W        W  644  17.211  41.812  10.905
28220W        W  645  39.385  41.912  11.109
28221W        W  646   7.280  31.995  12.033
28222W        W  647  38.355  28.147  12.373
28223W        W  648  13.636  26.204  11.580
28224W        W  649  42.852  28.008   2.838
28225W        W  650  43.305   1.392   1.222
28226W        W  651  32.081  38.868  14.908
28227W        W  652  34.923  32.395   2.189
28228W        W  653  11.847   6.337  14.470
28229W        W  654  19.275   8.850   5.145
28230W        W  655  23.496  35.953   0.866
28231W        W  656  29.577   9.162  14.945
28232W        W  657  38.368  34.549   4.667
28233W        W  658   7.757  36.576  12.359
28234W        W  659   5.333  44.832  11.976
28235W        W  660  20.572   1.470  13.893
28236W        W  661   8.756  10.337   4.634
28237W        W  662  31.125  41.428   3.269
28238W        W  663  19.142  11.275   3.775
28239W        W  664  28.461   6.846   2.272
28240W        W  665  34.381  10.250   1.250
28241W        W  666  38.382  22.616   2.879
28242W        W  667  28.171  10.813  10.028
28243W        W  668  24.195  10.727   2.747
28244W        W  669  40.941  32.515  14.904
28245W        W  670   2.357   1.421  14.327
28246W        W  671  23.698   4.815   1.919
28247W        W  672  38.915  10.799  11.402
28248W        W  673  27.044  42.015  14.985
28249W        W  674  38.819  31.538  12.377
28250W        W  675   9.692   1.844  11.450
28251W        W  676  24.555   1.884  10.960
28252W        W  677  25.207  42.369   2.285
28253W        W  678  31.048  44.919   1.338
28254W        W  679   7.179  23.159  14.419
28255W        W  680  29.046  29.018   0.243
28256W        W  681  11.710  37.061   1.716
28257W        W  682  18.546   1.798  10.148
28258W        W  683  12.320  37.908  14.026
28259W        W  684  43.781   2.420  12.392
28260W        W  685   4.806   5.298  13.450
28261W        W  686  26.534   0.357  12.436
28262W        W  687  19.598  32.577   3.804
28263W        W  688  11.339  16.103  11.855
28264W        W  689  19.737  24.141  11.560
28265W        W  690  23.155   5.244  10.618
28266W        W  691  39.946  40.424  14.933
28267W        W  692  40.495  16.735  11.075
28268W        W  693  10.672  43.427  12.928
28269W        W  694   7.694  37.041   4.278
28270W        W  695   4.209  19.239  10.984
28271W        W  696   9.724  12.653  11.923
28272W        W  697  28.645  17.256  12.914
28273W        W  698  36.947  41.908  13.042
28274W        W  699  32.469   1.422   1.210
28275W        W  700   5.261  10.790   3.640
28276W        W  701  11.625   2.434   0.801
28277W        W  702  15.199  12.213   0.949
28278W        W  703  27.523   0.403  13.064
28279W        W  704  38.004  32.070   0.313
28280W        W  705  33.956  22.070  12.959
28281W        W  706  27.189  15.285  11.439
28282W        W  707   0.872  24.516  13.517
28283W        W  708   0.865  28.125  10.544
28284W        W  709  29.157  27.160  11.569
28285W        W  710  10.677  39.472   1.402
28286W        W  711  30.638  20.614   1.784
28287W        W  712  19.626  44.766  12.392
28288W        W  713  26.994  31.027   2.402
28289W        W  714  11.854   4.427   2.764
28290W        W  715   1.329  44.416   1.786
28291W        W  716  16.078   9.149   4.676
28292W        W  717   0.794  20.728  14.280
28293W        W  718  40.876  22.713   4.689
28294W        W  719  37.994  27.577  13.939
28295W        W  720  20.094  33.946  12.068
28296W        W  721  38.512  24.648  14.394
28297W        W  722  15.627  34.894   1.266
28298W        W  723  14.117  42.496   3.180
28299W        W  724  31.125   1.895   1.764
28300W        W  725  13.248   4.806  14.863
28301W        W  726  15.116   5.874  12.559
28302W        W  727  20.744  13.801  14.968
28303W        W  728  34.481  17.744   3.642
28304W        W  729  17.160   5.251  13.371
28305W        W  730  20.723  33.046  10.528
28306W        W  731  10.803  30.503  12.958
28307W        W  732  44.473   2.346  14.767
28308W        W  733  15.137  11.202   1.232
28309W        W  734  28.128   8.704  10.982
28310W        W  735  26.962  28.077  12.399
28311W        W  736  40.491   5.724  12.341
28312W        W  737  10.646   6.204   0.423
28313W        W  738  24.722  18.778   4.623
28314W        W  739  44.267  23.189   2.842
28315W        W  740  27.159  15.690  13.989
28316W        W  741  25.986   0.850  12.477
28317W        W  742  20.768  28.532  11.012
28318W        W  743  21.617  28.583  10.909
28319W        W  744   7.676  25.692   2.350
28320W        W  745  14.612  29.591   0.855
28321W        W  746  23.587  34.106   4.352
28322W        W  747   1.749  35.872   4.790
28323W        W  748  33.400   2.795   2.323
28324W        W  749  32.469  17.584   1.697
28325W        W  750  35.867  34.096   4.117
28326W        W  751  12.612  23.571   2.370
28327W        W  752  43.907  42.930  10.559
28328W        W  753   6.227  33.455  10.555
28329W        W  754  23.704  36.406   1.789
28330W        W  755  41.999  21.207  13.528
28331W        W  756   5.858  13.640  13.543
28332W        W  757  15.128  34.537  12.445
28333W        W  758  44.889  17.064   0.907
28334W        W  759  11.325  23.009   2.235
28335W        W  760  32.030  13.234   5.153
28336W        W  761   4.756  25.584  11.040
28337W        W  762   8.164  44.941  13.907
28338W        W  763   3.345  32.604   0.378
28339W        W  764   3.843  32.018   1.264
28340W        W  765  22.164  13.760   0.250
28341W        W  766   2.275  37.854   3.379
28342W        W  767  27.026  17.304   0.837
28343W        W  768  44.804  41.519   0.901
28344W        W  769  44.365   3.428   1.722
28345W        W  770   5.713   2.400   3.382
28346W        W  771  22.034  40.965   3.236
28347W        W  772   9.262   0.396  12.468
28348W        W  773  27.467  41.517   1.406
28349W        W  774  20.267  21.570   1.773
28350W        W  775  31.025  23.695  10.932
28351W        W  776  42.362   9.669  10.899
28352W        W  777  42.908  19.247  14.452
28353W        W  778  24.084  23.184   3.384
28354W        W  779  24.984  44.408   4.711
28355W        W  780   6.366  30.615  14.489
28356W        W  781  38.531   6.226   2.399
28357W        W  782  12.694  21.639  12.572
28358W        W  783   2.457  23.491  13.505
28359W        W  784  26.153  12.134   4.215
28360W        W  785  19.279  24.679   1.803
28361W        W  786  11.311  11.867   0.914
28362W        W  787  32.099  15.732  10.034
28363W        W  788   9.824  38.910   2.705
28364W        W  789  41.535  44.312  14.436
28365W        W  790  35.060  10.635  11.613
28366W        W  791  37.869  39.860   2.336
28367W        W  792  25.485   3.829   3.631
28368W        W  793  43.270  37.945   3.146
28369W        W  794  23.166  17.569  14.941
28370W        W  795   6.794  11.323   0.727
28371W        W  796  34.013  42.919  12.855
28372W        W  797  40.911   8.829   0.747
28373W        W  798  15.188   1.857  13.878
28374W        W  799   5.797  32.535  13.819
28375W        W  800   4.405  28.986   4.202
28376W        W  801  40.545   4.874   3.274
28377W        W  802  38.992  29.014   4.212
28378W        W  803  15.178  23.166   1.699
28379W        W  804   1.812  23.127   3.212
28380W        W  805  21.059   2.755  13.024
28381W        W  806  13.747  38.953  14.457
28382W        W  807  38.338   2.320  13.506
28383W        W  808  25.972  15.740  10.042
28384W        W  809  43.772   6.791   4.149
28385W        W  810  36.075  38.071   3.230
28386W        W  811  22.235  22.017  10.552
28387W        W  812  17.601  16.085   2.846
28388W        W  813  34.466   3.227   2.698
28389W        W  814  39.531   8.860  10.420
28390W        W  815   4.208  25.552  10.455
28391W        W  816   9.252  10.875   1.257
28392W        W  817  16.746  31.594  10.923
28393W        W  818   5.404  19.138  11.549
28394W        W  819  20.685  26.606  11.943
28395W        W  820   1.251  14.134  13.805
28396W        W  821  20.129  19.175  11.401
28397W        W  822  20.151  25.066  13.915
28398W        W  823  25.188  24.087   1.739
28399W        W  824  29.521  15.649   1.423
28400W        W  825  42.887  38.361  12.086
28401W        W  826  23.620   8.188  10.902
28402W        W  827  35.394  13.821  10.612
28403W        W  828  40.529  44.808  11.951
28404W        W  829  27.994  34.492  12.528
28405W        W  830  39.976  10.648   3.820
28406W        W  831  41.520  37.382   1.834
28407W        W  832  17.133   7.687   1.233
28408W        W  833  20.118   6.406   3.317
28409W        W  834  16.263  16.219  14.796
28410W        W  835  18.075  43.776  13.361
28411W        W  836  12.156  27.502   3.202
28412W        W  837  13.173   0.351  12.348
28413W        W  838   1.378  33.020   2.892
28414W        W  839  13.643  42.996   4.753
28415W        W  840  10.662  35.941   0.252
28416W        W  841  33.499  24.665  10.441
28417W        W  842  18.283   6.304   1.734
28418W        W  843  26.959  22.707   2.726
28419W        W  844  20.087  28.950   1.710
28420W        W  845  39.990  25.589   2.808
28421W        W  846  37.920  12.190   2.408
28422W        W  847  22.037  35.428  11.423
28423W        W  848  24.720  31.950   2.355
28424W        W  849  34.481  33.623  11.510
28425W        W  850  29.657   6.905  13.392
28426W        W  851  17.781  15.807  12.441
28427W        W  852  32.995  40.810   3.340
28428W        W  853  35.006   9.319   2.230
28429W        W  854  41.303  19.167  14.959
28430W        W  855   8.299  23.197   0.950
28431W        W  856   5.245  29.634  13.995
28432W        W  857  37.836  39.817   2.781
28433W        W  858   2.918  40.893   1.222
28434W        W  859  35.597   0.330  12.942
28435W        W  860  22.703   8.220   1.875
28436W        W  861  32.979  15.788  10.432
28437W        W  862  34.380  35.491  13.030
28438W        W  863   7.239   7.394  13.805
28439W        W  864  40.011  39.808   1.393
28440W        W  865  39.432  21.212   0.358
28441W        W  866  18.129  31.450  14.824
28442W        W  867  40.012  33.879   4.203
28443W        W  868   8.275  34.406   1.697
28444W        W  869  14.786  17.742   2.358
28445W        W  870  30.035  35.865  11.867
28446W        W  871  15.757  20.635   4.679
28447W        W  872  25.043  21.057  10.931
28448W        W  873   5.335  43.472   3.356
28449W        W  874   2.834  40.802   1.745
28450W        W  875  14.679  32.575  10.139
28451W        W  876   9.311  25.085   4.305
28452W        W  877  30.441  21.173  10.543
28453W        W  878  13.846  14.723   0.738
28454W        W  879   8.835  27.600  14.021
28455W        W  880   9.734  27.046   4.733
28456W        W  881  15.252  18.140  13.036
28457W        W  882   9.335  27.039  10.475
28458W        W  883  11.328   5.348   0.373
28459W        W  884  25.537  37.950   2.701
28460W        W  885  44.289  37.361   2.408
28461W        W  886  10.190  31.461   0.261
28462W        W  887  41.994   1.836  13.936
28463W        W  888  25.679  13.283   1.329
28464W        W  889  28.125  43.771  14.002
28465W        W  890  12.126  12.315  12.887
28466W        W  891  14.279  31.538  11.374
28467W        W  892  37.544  36.997  12.052
28468W        W  893   1.381   2.358  10.420
28469W        W  894  23.044  33.540   1.813
28470W        W  895   9.724  20.152   0.747
28471W        W  896  32.621  41.427  12.906
28472W        W  897  12.794   1.822   9.598
28473W        W  898   4.374  29.984  13.317
28474W        W  899  19.644  26.971   0.748
28475W        W  900  41.959  28.615   0.839
28476W        W  901  17.280  36.937   2.718
28477W        W  902  37.847  15.778  12.458
28478W        W  903  13.134  35.878  14.960
28479W        W  904  44.757  27.558  11.016
28480W        W  905  32.577   7.695   0.395
28481W        W  906  13.682  29.546   2.781
28482W        W  907  44.337  15.288  11.127
28483W        W  908  29.511   6.752  14.016
28484W        W  909  42.850  34.903   0.332
28485W        W  910  28.567  44.969  13.523
28486W        W  911  20.614  34.391  10.546
28487W        W  912  13.127   9.239  10.460
28488W        W  913   4.798  44.761   2.290
28489W        W  914   3.788  13.708   3.153
28490W        W  915   1.341   0.797  12.443
28491W        W  916  24.722  38.483  14.928
28492W        W  917  19.734  31.453  11.426
28493W        W  918   3.232   6.267  12.011
28494W        W  919  37.007  14.341   0.875
28495W        W  920   4.813  28.008   4.170
28496W        W  921  37.524  23.188  13.474
28497W        W  922  27.969  28.482   0.960
28498W        W  923   4.896  21.054  11.065
28499W        W  924  21.194  41.941  10.613
28500W        W  925  38.030  43.468   0.247
28501W        W  926  28.664  25.179   2.349
28502W        W  927  37.429  30.624   9.932
28503W        W  928  20.709   0.796  11.584
28504W        W  929  43.890   2.874   4.334
28505W        W  930  18.588   3.298  11.373
28506W        W  931   9.848   7.394   3.167
28507W        W  932  24.088  15.818  14.985
28508W        W  933  10.711  11.328  12.455
28509W        W  934  39.476   3.731   3.189
28510W        W  935  43.367   4.211  11.585
28511W        W  936  11.764  41.298  10.083
28512W        W  937  18.623  34.969   1.229
28513W        W  938   3.427  21.181   1.353
28514W        W  939   2.910  16.198   2.733
28515W        W  940   5.872  29.945  12.455
28516W        W  941  38.514   5.422   0.897
28517W        W  942   5.868  29.141   0.835
28518W        W  943  33.435  44.889  11.001
28519W        W  944  35.979  10.804   1.899
28520W        W  945   9.266  25.714   3.862
28521W        W  946  19.066  24.713  12.086
28522W        W  947  43.805  44.923  14.382
28523W        W  948  39.417  41.977   4.343
28524W        W  949  13.792  40.994  11.095
28525W        W  950  26.598   8.662  12.481
28526W        W  951   2.356  20.703   4.659
28527W        W  952   8.223  23.205   4.132
28528W        W  953   5.853  17.097   1.388
28529W        W  954  40.351  33.021   3.658
28530W        W  955  17.105  23.587   3.671
28531W        W  956  42.343  32.969   4.221
28532W        W  957  30.148  31.060   0.752
28533W        W  958  40.869   6.363   2.843
28534W        W  959   0.265  36.060  12.353
28535W        W  960   3.899   2.333  14.792
28536W        W  961  19.733  38.506  11.573
28537W        W  962  25.178   5.392   4.607
28538W        W  963  30.424  14.611  14.493
28539W        W  964  38.013  18.556   4.179
28540W        W  965  38.424  43.480   0.448
28541W        W  966   0.261   3.917   3.794
28542W        W  967  43.898   4.337  11.973
28543W        W  968   5.782  36.546  11.406
28544W        W  969  25.093  24.090   4.654
28545W        W  970  41.314  24.217   2.782
28546W        W  971  12.780  31.603  14.834
28547W        W  972  20.238  30.624   4.354
28548W        W  973  18.157  12.262   3.304
28549W        W  974  12.804  14.824  10.554
28550W        W  975  37.844  12.707  14.003
28551W        W  976   2.308  16.082  13.930
28552W        W  977  39.514  32.049   2.203
28553W        W  978  39.491   8.716  14.905
28554W        W  979  22.071  12.729   3.749
28555W        W  980  20.736  37.834  12.566
28556W        W  981  14.262  14.593   0.448
28557W        W  982  10.362   7.910  12.905
28558W        W  983  18.084  33.581   0.785
28559W        W  984  17.159   8.735  11.546
28560W        W  985  17.769  31.443  13.342
28561W        W  986  11.346  17.670   2.835
28562W        W  987  32.616  20.188  13.850
28563W        W  988   4.382   4.414  14.021
28564W        W  989  25.483  36.370  14.778
28565W        W  990  28.580  23.627  10.892
28566W        W  991  18.630  32.116   1.805
28567W        W  992  17.234  18.559   3.165
28568W        W  993  25.566  40.962  10.630
28569W        W  994  15.585  28.159   3.318
28570W        W  995   8.249  27.563   3.825
28571W        W  996  19.246  27.489  12.906
28572W        W  997   5.924  15.122  14.999
28573W        W  998  19.702  17.252  12.018
28574W        W  999  11.731   4.361  13.840
28575W        W 1000   4.438  24.176  12.051
28576W        W 1001   4.723   5.923   1.827
28577W        W 1002   7.264  17.707   4.704
28578W        W 1003  13.723  35.918  10.544
28579W        W 1004   0.369  31.922   0.279
28580W        W 1005   0.279  43.314  14.759
28581W        W 1006  26.095  13.332  11.584
28582W        W 1007  18.174  12.703   4.822
28583W        W 1008  42.780  26.527  14.508
28584W        W 1009  40.417   6.222  10.971
28585W        W 1010  12.178   0.882  13.475
28586W        W 1011  18.764  37.527   3.314
28587W        W 1012  41.429  13.700   1.787
28588W        W 1013  29.491  23.057   0.332
28589W        W 1014  10.137  10.864  13.328
28590W        W 1015   2.267  44.360  14.847
28591W        W 1016  35.487   8.289   2.187
28592W        W 1017  37.970  26.567  11.609
28593W        W 1018   2.444   1.916  12.428
28594W        W 1019  21.536   6.739  13.854
28595W        W 1020  18.134   4.247   2.203
28596W        W 1021  36.551  40.396  10.092
28597W        W 1022  10.213  20.568   3.738
28598W        W 1023  24.024  39.391   3.791
28599W        W 1024  27.545  33.505  11.000
28600W        W 1025  18.551  33.965   2.344
28601W        W 1026  27.971  28.627  11.996
28602W        W 1027  36.950  12.275  12.939
28603W        W 1028   6.751   2.399   0.732
28604W        W 1029  23.597  31.491  11.874
28605W        W 1030  13.650  11.669   2.677
28606W        W 1031  21.157  25.011   2.273
28607W        W 1032   7.263   6.838  13.831
28608W        W 1033  29.553  28.055  10.486
28609W        W 1034  44.009  16.229   1.831
28610W        W 1035  13.787  10.825   3.360
28611W        W 1036  23.036  24.657  11.010
28612W        W 1037  35.367   1.827  13.054
28613W        W 1038  33.092  17.123  10.460
28614W        W 1039  43.859  32.918  14.483
28615W        W 1040  26.548  23.608  14.932
28616W        W 1041  31.964  27.690   3.865
28617W        W 1042  35.550  24.183   0.914
28618W        W 1043  10.383  26.167   2.851
28619W        W 1044  12.335  37.844  11.594
28620W        W 1045   5.207  12.648  11.054
28621W        W 1046  21.706  17.586   2.367
28622W        W 1047  12.164   2.906  10.532
28623W        W 1048  17.150  23.222  11.058
28624W        W 1049   9.153  26.163   2.672
28625W        W 1050  25.072  23.104   2.666
28626W        W 1051  41.312  12.745  11.875
28627W        W 1052  38.467  15.654   0.322
28628W        W 1053   1.344  29.462  10.936
28629W        W 1054   7.796  26.974  11.516
28630W        W 1055  12.313  40.813  10.909
28631W        W 1056   3.928   3.876  12.462
28632W        W 1057  35.950  27.151  13.897
28633W        W 1058   3.359  13.108   0.871
28634W        W 1059  41.904  11.175   3.210
28635W        W 1060  36.415  28.099   1.413
28636W        W 1061   3.315   2.937   0.967
28637W        W 1062   9.764  39.019  10.935
28638W        W 1063  38.896  28.451   1.350
28639W        W 1064  18.711  44.367   3.776
28640W        W 1065   7.289   7.905  14.919
28641W        W 1066  36.912   6.409   5.313
28642W        W 1067  39.437  17.616   4.730
28643W        W 1068  27.190  14.835   4.763
28644W        W 1069  34.421  33.508  12.019
28645W        W 1070  40.450  42.386  11.491
28646W        W 1071  28.027   2.467   5.249
28647W        W 1072   2.802  36.054  14.477
28648W        W 1073  36.860   6.399   0.415
28649W        W 1074  13.225  15.201   3.658
28650W        W 1075   9.658  30.619   2.268
28651W        W 1076   9.823  27.138   1.740
28652W        W 1077   9.224  21.598  11.871
28653W        W 1078  22.505   5.351   1.780
28654W        W 1079  20.064  36.371  13.990
28655W        W 1080   8.714  44.010  11.963
28656W        W 1081  27.942  16.094   1.231
28657W        W 1082   0.866  23.987   3.383
28658W        W 1083  26.542  36.415   1.782
28659W        W 1084  15.133  37.996  13.404
28660W        W 1085  42.027  21.071  10.091
28661W        W 1086   8.318  19.274   3.216
28662W        W 1087  36.573   7.886   2.213
28663W        W 1088  33.462   9.239  14.980
28664W        W 1089   1.952  19.270   4.302
28665W        W 1090   4.890  16.604   1.449
28666W        W 1091  44.914  35.916  12.376
28667W        W 1092  43.316  21.733   5.271
28668W        W 1093  18.154   6.360  12.554
28669W        W 1094  19.077  32.468   1.252
28670W        W 1095  42.336  13.772  13.463
28671W        W 1096  26.525  22.568   2.763
28672W        W 1097  21.054  13.637   3.205
28673W        W 1098   6.423   3.821  12.521
28674W        W 1099  17.800   7.833   4.156
28675W        W 1100  16.613  37.077  12.831
28676W        W 1101  36.538  37.967  14.950
28677W        W 1102  33.013   9.659  11.410
28678W        W 1103   3.224  25.163  14.472
28679W        W 1104  10.741   9.739  10.631
28680W        W 1105  12.121  39.483   0.892
28681W        W 1106  11.324  32.017   1.223
28682W        W 1107  13.653  26.017   2.361
28683W        W 1108  37.435   7.675   3.148
28684W        W 1109  19.266  31.131  11.967
28685W        W 1110   2.746  11.667  12.925
28686W        W 1111  22.160  20.747   0.740
28687W        W 1112  11.851  16.189   3.223
28688W        W 1113  36.407  24.708   0.859
28689W        W 1114  31.958  42.387   1.357
28690W        W 1115   1.942  33.020  14.499
28691W        W 1116  22.564  22.208   0.410
28692W        W 1117  42.288   4.821   4.292
28693W        W 1118   5.866  10.760   0.787
28694W        W 1119   7.803  36.925   1.354
28695W        W 1120   0.479  37.397  13.806
28696W        W 1121  30.960  41.372   1.926
28697W        W 1122   0.845  35.091  11.552
28698W        W 1123  14.194  16.666   3.642
28699W        W 1124  28.059  38.970   1.740
28700W        W 1125  34.120  42.316  11.087
28701W        W 1126  18.149  30.968  12.909
28702W        W 1127  34.064  30.077   3.631
28703W        W 1128  34.949   8.366  13.457
28704W        W 1129  18.179  44.493  14.342
28705W        W 1130  21.540   0.429  14.417
28706W        W 1131  31.638   0.403  11.066
28707W        W 1132  10.791  38.886   3.148
28708W        W 1133  23.035  22.157   4.805
28709W        W 1134   2.248  38.963  11.874
28710W        W 1135   5.731  36.890   1.813
28711W        W 1136   0.267  31.523  12.359
28712W        W 1137  34.940  13.738  13.517
28713W        W 1138  18.136   7.848   0.280
28714W        W 1139  27.949  28.582  11.458
28715W        W 1140  30.954  14.315   1.360
28716W        W 1141  29.982  36.081   0.265
28717W        W 1142  10.353  38.993   0.455
28718W        W 1143  24.083  43.922   0.943
28719W        W 1144  26.533  40.871  12.064
28720W        W 1145  23.086  24.128  11.415
28721W        W 1146   7.207   7.332   0.419
28722W        W 1147  43.981  25.592   3.641
28723W        W 1148  36.884  31.566  10.441
28724W        W 1149   6.720  15.278  11.502
28725W        W 1150   0.797  16.795   0.438
28726W        W 1151  23.634  14.204   2.895
28727W        W 1152  43.415  18.063   3.668
28728W        W 1153   7.885  39.826  11.376
28729W        W 1154  35.455  25.184  14.773
28730W        W 1155  25.985  35.510   3.159
28731W        W 1156  11.180  30.062   2.261
28732W        W 1157  24.200  34.961  10.489
28733W        W 1158  42.787  34.885  12.928
28734W        W 1159  11.752  16.594   1.930
28735W        W 1160   5.891  40.466   4.311
28736W        W 1161  13.686   7.670  12.833
28737W        W 1162  18.295  36.474   0.790
28738W        W 1163   2.941  39.450  14.342
28739W        W 1164   1.257  16.800   0.764
28740W        W 1165  13.291  26.531  13.529
28741W        W 1166  18.545  38.355   1.868
28742W        W 1167  44.421  26.640   2.713
28743W        W 1168  38.960  33.523   4.639
28744W        W 1169  29.436  39.991  10.500
28745W        W 1170  38.008  14.300   3.643
28746W        W 1171   6.750   3.872   4.824
28747W        W 1172  40.828  18.636  14.278
28748W        W 1173  10.764  22.085   1.836
28749W        W 1174   8.673  33.956  10.900
28750W        W 1175  33.511  39.055   0.939
28751W        W 1176  38.340  27.092  13.810
28752W        W 1177   7.333  40.461  11.886
28753W        W 1178  24.628  40.908   1.743
28754W        W 1179  42.510  11.176   1.861
28755W        W 1180  12.123  43.976  12.567
28756W        W 1181  44.275  33.983  10.911
28757W        W 1182  43.449  41.330   4.130
28758W        W 1183  39.402  40.368  11.453
28759W        W 1184  31.521  30.061   0.835
28760W        W 1185  10.677   7.187  13.540
28761W        W 1186   4.704   2.462  11.881
28762W        W 1187  34.073  40.388  12.552
28763W        W 1188  22.088  26.616  10.111
28764W        W 1189  30.653  29.577   2.738
28765W        W 1190  38.860  19.132   2.219
28766W        W 1191  16.291  28.625  12.566
28767W        W 1192  40.358  14.725   1.301
28768W        W 1193  30.601  24.983  11.948
28769W        W 1194  22.736   8.872  13.477
28770W        W 1195  26.467  35.028   3.246
28771W        W 1196  35.064   8.345  14.880
28772W        W 1197  20.261  18.559   1.875
28773W        W 1198  29.646  32.958   2.861
28774W        W 1199  24.115  30.932  11.884
28775W        W 1200  20.583  39.910   4.703
28776W        W 1201  41.419  27.173  11.016
28777W        W 1202  32.080  25.580  11.902
28778W        W 1203  21.200  29.669   4.205
28779W        W 1204   1.240   5.919  13.796
28780W        W 1205  31.091  11.305  14.801
28781W        W 1206  39.357   1.433   0.395
28782W        W 1207  27.590   2.755   2.310
28783W        W 1208  33.479  34.497   4.790
28784W        W 1209  29.155  33.573   4.165
28785W        W 1210  28.539  22.569  10.934
28786W        W 1211  34.044  28.474  11.373
28787W        W 1212  23.188  37.940   1.394
28788W        W 1213  40.535  24.075   1.725
28789W        W 1214  33.384   0.434   3.865
28790W        W 1215  25.184  25.608  14.831
28791W        W 1216  22.514  11.217  14.777
28792W        W 1217  13.711  17.175   4.822
28793W        W 1218  28.118   2.389   3.162
28794W        W 1219  41.822  41.495  13.902
28795W        W 1220  19.262  25.016   4.713
28796W        W 1221  22.741  42.298   2.277
28797W        W 1222  25.089  39.467   2.822
28798W        W 1223   6.420  32.079  13.505
28799W        W 1224  24.501  44.363   2.220
28800W        W 1225  23.537   5.339  11.440
28801W        W 1226  44.497  17.149   0.291
28802W        W 1227  22.151  13.297   3.643
28803W        W 1228  11.743  42.778   3.293
28804W        W 1229   4.834  16.139  13.850
28805W        W 1230  41.963  14.326  13.511
28806W        W 1231  19.596  14.791  14.812
28807W        W 1232  26.467  34.114   4.253
28808W        W 1233   5.373   5.849   3.748
28809W        W 1234   7.696   4.860   2.191
28810W        W 1235  41.805  43.483  13.538
28811W        W 1236  17.154   1.462   1.394
28812W        W 1237  16.670   4.221   0.472
28813W        W 1238  27.572   6.378   1.747
28814W        W 1239   4.848   3.724   0.308
28815W        W 1240   3.763  33.536  14.803
28816W        W 1241  30.966   9.731   2.256
28817W        W 1242  31.098  39.543   3.749
28818W        W 1243   0.765  23.232  14.404
28819W        W 1244   4.242   0.444   4.207
28820W        W 1245   0.476  31.509  11.039
28821W        W 1246  17.236   6.265  11.413
28822W        W 1247  44.005  36.004  10.555
28823W        W 1248  27.679  22.743   2.718
28824W        W 1249  23.160   7.902  14.331
28825W        W 1250  43.390  15.695  10.529
28826W        W 1251  32.427  35.510   0.378
28827W        W 1252   9.844  43.886  11.032
28828W        W 1253   7.417  43.854  12.453
28829W        W 1254  33.462   4.276   0.418
28830W        W 1255  34.925  17.761   3.655
28831W        W 1256  27.451  18.052   0.305
28832W        W 1257  10.188  38.939  14.857
28833W        W 1258  21.607   5.237  13.384
28834W        W 1259  10.777  28.522  14.824
28835W        W 1260  36.847  33.889  14.433
28836W        W 1261  34.987   3.416   3.307
28837W        W 1262  36.962   7.200  11.477
28838W        W 1263  24.683  21.136   4.632
28839W        W 1264  21.537   7.686   1.875
28840W        W 1265  16.156   9.808  13.889
28841W        W 1266  38.424  20.129  11.449
28842W        W 1267  18.136  23.667  13.892
28843W        W 1268  19.253  43.469   0.787
28844W        W 1269  42.432  42.451  14.498
28845W        W 1270  12.303  39.871  12.931
28846W        W 1271  23.601   3.753  10.976
28847W        W 1272   8.268  21.744  14.884
28848W        W 1273  21.591  42.005  14.899
28849W        W 1274  37.413  34.980   3.236
28850W        W 1275   0.916  18.193  12.557
28851W        W 1276  17.644  41.443   2.666
28852W        W 1277  16.284  11.234  10.444
28853W        W 1278  37.475  12.791  10.622
28854W        W 1279  44.355   0.383  12.362
28855W        W 1280  16.234  15.186   4.789
28856W        W 1281  32.032  36.902  13.374
28857W        W 1282  31.618  24.072  10.060
28858W        W 1283  36.883  19.596  12.034
28859W        W 1284  28.533  15.105  10.888
28860W        W 1285  40.375  32.481   3.680
28861W        W 1286   2.726  18.602  10.419
28862W        W 1287  22.503  38.366  11.021
28863W        W 1288  27.191  24.024  13.370
28864W        W 1289  35.428  13.616   0.419
28865W        W 1290   3.348  25.065   2.233
28866W        W 1291  10.683  24.228  14.916
28867W        W 1292  42.824  31.587  10.467
28868W        W 1293   6.769  16.762  13.911
28869W        W 1294  20.574  13.604   4.328
28870W        W 1295  37.854   2.788  14.992
28871W        W 1296  18.293  25.154  10.571
28872W        W 1297  16.172  20.091   3.818
28873W        W 1298   6.763  17.594  13.865
28874W        W 1299   3.407  27.450  11.951
28875W        W 1300  18.263  13.669   2.304
28876W        W 1301  17.620   1.787  11.477
28877W        W 1302  12.785  23.673   1.725
28878W        W 1303   5.700   4.817  12.001
28879W        W 1304  21.164  33.393   1.442
28880W        W 1305  27.679  38.019  12.535
28881W        W 1306   9.719  12.696   3.335
28882W        W 1307   7.760  19.695   1.210
28883W        W 1308   6.385   1.325   2.761
28884W        W 1309   9.750  42.429  13.990
28885W        W 1310   1.304   2.399   2.330
28886W        W 1311  30.143  16.634   2.403
28887W        W 1312   7.316  31.082   0.747
28888W        W 1313  22.147  36.907  12.421
28889W        W 1314  43.315  19.128   4.777
28890W        W 1315   0.309  15.235   3.369
28891W        W 1316  15.621  43.995  10.426
28892W        W 1317  38.360  22.514   3.332
28893W        W 1318   3.290  19.153  13.807
28894W        W 1319   7.807  38.467   4.789
28895W        W 1320  28.943  39.855   4.760
28896W        W 1321  44.852  15.116   4.279
28897W        W 1322  41.429   2.784   4.159
28898W        W 1323  33.391  17.646   3.281
28899W        W 1324  18.095   4.327  11.485
28900W        W 1325  32.029  11.681  11.871
28901W        W 1326  33.586  16.189  14.279
28902W        W 1327  28.584   5.824  12.378
28903W        W 1328  31.464  42.900   2.847
28904W        W 1329   4.375  32.138  10.151
28905W        W 1330  34.871   6.877  11.991
28906W        W 1331  33.509   8.217  14.340
28907W        W 1332  26.457   7.221  13.531
28908W        W 1333  26.613  19.645  11.441
28909W        W 1334  35.949  16.136   0.353
28910W        W 1335  43.908   4.899   2.774
28911W        W 1336  24.702  43.972   4.153
28912W        W 1337  37.848  28.967   4.124
28913W        W 1338  30.159  43.855   3.710
28914W        W 1339  30.061  38.383   5.721
28915W        W 1340  39.512  41.530   4.837
28916W        W 1341   2.472   2.297  13.368
28917W        W 1342   1.339  34.506   2.393
28918W        W 1343   6.793  13.218   2.767
28919W        W 1344  16.090  17.228  14.380
28920W        W 1345  15.723  43.438   3.191
28921W        W 1346  17.148  15.637   1.919
28922W        W 1347  24.608  10.175  12.958
28923W        W 1348  14.830  33.097  14.910
28924W        W 1349   9.254  43.282  10.626
28925W        W 1350   0.354  39.815   3.162
28926W        W 1351   6.788  11.250  13.984
28927W        W 1352  28.957   2.745   1.751
28928W        W 1353  29.656  42.826  14.959
28929W        W 1354  30.490  15.756  14.938
28930W        W 1355  40.333  36.471  13.907
28931W        W 1356  22.032  42.964  12.011
28932W        W 1357  40.309  22.565   0.732
28933W        W 1358   5.277  14.292  13.501
28934W        W 1359  12.815  15.189   2.359
28935W        W 1360   3.795  41.406  12.341
28936W        W 1361  29.544  32.887   0.436
28937W        W 1362  15.113  17.273  14.477
28938W        W 1363  19.254  21.127  13.416
28939W        W 1364   5.855   9.862  14.275
28940W        W 1365  44.269  34.600  13.847
28941W        W 1366  24.722  26.552  12.382
28942W        W 1367   7.823   9.261   4.135
28943W        W 1368  11.145  38.011   2.389
28944W        W 1369  43.963  31.099  12.033
28945W        W 1370  34.883  36.912  13.060
28946W        W 1371  18.682  17.635   4.838
28947W        W 1372  43.931  15.146  13.387
28948W        W 1373   2.782  23.603   0.830
28949W        W 1374  31.625  28.027   4.696
28950W        W 1375  38.033  25.630  14.348
28951W        W 1376  41.292  37.998   3.367
28952W        W 1377   3.305  27.000  13.503
28953W        W 1378  10.352  17.180   1.248
28954W        W 1379  34.459   0.776  11.599
28955W        W 1380  14.810  37.945  14.934
28956W        W 1381  18.704  33.047  11.964
28957W        W 1382  19.084  19.213   3.169
28958W        W 1383  15.683  17.081   2.902
28959W        W 1384   0.837  19.189   4.310
28960W        W 1385  43.811  28.170   2.785
28961W        W 1386  26.136  39.322  10.494
28962W        W 1387  23.100   0.941  12.442
28963W        W 1388  28.015  31.951   4.681
28964W        W 1389  44.966  43.278  10.938
28965W        W 1390  44.966  16.214   3.862
28966W        W 1391   9.360  32.468   3.239
28967W        W 1392  14.812   4.390   0.473
28968W        W 1393  24.125  30.632  13.026
28969W        W 1394  26.094  39.330  12.967
28970W        W 1395  27.986  29.047   3.674
28971W        W 1396  39.450  20.091  14.880
28972W        W 1397  33.040   1.956  13.933
28973W        W 1398   1.967  13.144   4.679
28974W        W 1399  37.450  15.200  10.453
28975W        W 1400  36.567  11.226   4.120
28976W        W 1401   5.883  23.530   4.738
28977W        W 1402  28.174  38.337  10.982
28978W        W 1403  19.688  32.061  12.039
28979W        W 1404  41.866  38.867   1.749
28980W        W 1405  19.564  23.710  10.517
28981W        W 1406   2.767  33.005   3.243
28982W        W 1407  14.730   7.260  11.991
28983W        W 1408  35.416  42.490  10.468
28984W        W 1409   8.253   9.741  14.903
28985W        W 1410  16.294   7.184  12.469
28986W        W 1411  31.498  12.704   0.823
28987W        W 1412   4.807  10.204   4.276
28988W        W 1413   0.829  19.131  14.862
28989W        W 1414  40.307  42.335   2.709
28990W        W 1415   2.871  14.764  10.624
28991W        W 1416  37.045   4.219   4.702
28992W        W 1417  22.245   5.293   0.344
28993W        W 1418  42.381  36.494   4.261
28994W        W 1419  11.152  28.999  12.880
28995W        W 1420   4.881  17.680   3.344
28996W        W 1421  15.724  29.122  11.060
28997W        W 1422  32.475  43.808  13.940
28998W        W 1423  39.412  44.971  10.567
28999W        W 1424   3.839  37.537  13.045
29000W        W 1425  41.391  12.640  11.592
29001W        W 1426  32.902   6.307  10.449
29002W        W 1427  29.046   1.836   0.378
29003W        W 1428  39.495  32.054   3.151
29004W        W 1429   1.933  27.146  14.982
29005W        W 1430  13.836  39.865   1.925
29006W        W 1431   9.716  41.807   2.197
29007W        W 1432  30.565   0.345  13.348
29008W        W 1433  15.731  28.076  11.452
29009W        W 1434  39.552  20.157   2.871
29010W        W 1435   9.312  13.610  14.360
29011W        W 1436  29.935  15.213  11.116
29012W        W 1437  34.543  40.845  12.374
29013W        W 1438  39.331  16.188  11.998
29014W        W 1439  30.565  11.718   2.704
29015W        W 1440  22.695  19.113   3.677
29016W        W 1441  36.039  22.196  14.987
29017W        W 1442   8.867  35.879   0.780
29018W        W 1443  36.402  21.723   0.441
29019W        W 1444  42.436  44.983  10.903
29020W        W 1445   3.864  24.177   0.362
29021W        W 1446  42.388  19.677  11.464
29022W        W 1447  18.077  24.521  12.560
29023W        W 1448   5.849  12.641   0.423
29024W        W 1449  32.996  35.063  10.902
29025W        W 1450   0.930  12.345   3.734
29026W        W 1451  24.059   3.830   0.331
29027W        W 1452  36.076   3.853   1.308
29028W        W 1453  14.650  43.486   3.781
29029W        W 1454  21.574  28.456  11.484
29030W        W 1455  19.154  44.766  11.864
29031W        W 1456  23.651  21.240   1.227
29032W        W 1457   3.389  27.641   4.156
29033W        W 1458  42.473   7.797  14.020
29034W        W 1459  28.183  11.717   0.325
29035W        W 1460   8.657  16.167   0.827
29036W        W 1461  33.894  20.640  12.346
29037W        W 1462  33.396   8.364  10.998
29038W        W 1463  33.437  30.448  14.013
29039W        W 1464  33.538  19.101  13.423
29040W        W 1465  41.920   4.837   3.795
29041W        W 1466   9.390  14.209  13.892
29042W        W 1467  34.092  37.932  11.871
29043W        W 1468  35.917   3.842   5.138
29044W        W 1469  12.343  22.207   2.784
29045W        W 1470  20.538  42.012   1.887
29046W        W 1471   1.864  43.322   3.181
29047W        W 1472  44.270  41.951  10.989
29048W        W 1473  21.712   3.244  14.988
29049W        W 1474   8.378  44.366  12.397
29050W        W 1475  35.584   1.789   2.787
29051W        W 1476   2.805  24.092  14.773
29052W        W 1477   0.271  22.104   3.758
29053W        W 1478  15.276  44.911  13.523
29054W        W 1479  34.114   5.302   3.651
29055W        W 1480  16.749  32.529  13.411
29056W        W 1481   2.290  42.437  11.993
29057W        W 1482  37.486  39.410   0.315
29058W        W 1483  23.086  14.097  11.372
29059W        W 1484  33.021  20.767  12.095
29060W        W 1485  38.843  32.625  13.917
29061W        W 1486  37.978  40.414  11.970
29062W        W 1487   9.750  25.673   3.802
29063W        W 1488  17.646  16.629  13.012
29064W        W 1489  20.177  13.759  12.513
29065W        W 1490  29.974   8.174  14.438
29066W        W 1491   2.869  44.445  14.454
29067W        W 1492   1.974  13.132   4.275
29068W        W 1493  43.935  19.214   2.334
29069W        W 1494  27.094  37.376   1.773
29070W        W 1495   3.319  19.246   1.811
29071W        W 1496  11.739   6.318   2.373
29072W        W 1497  11.711  16.216  12.979
29073W        W 1498   6.337  40.828   1.410
29074W        W 1499  41.433  15.281  14.974
29075W        W 1500  17.795  37.039   4.735
29076W        W 1501  38.395  37.995  14.799
29077W        W 1502  37.459  23.112   3.742
29078W        W 1503  27.001  20.054   0.481
29079W        W 1504  10.235  21.128  12.916
29080W        W 1505  44.289   3.377   1.240
29081W        W 1506  20.065  33.474  10.986
29082W        W 1507  44.814  21.112   5.162
29083W        W 1508  42.027  42.794   1.921
29084W        W 1509  31.939  34.533   0.909
29085W        W 1510  14.159  41.952   4.286
29086W        W 1511   6.379  14.234  11.963
29087W        W 1512   7.892   9.309   0.863
29088W        W 1513   6.868   6.420  13.480
29089W        W 1514  39.037  36.048  11.872
29090W        W 1515  21.742  39.523  12.524
29091W        W 1516  40.403  40.470  11.518
29092W        W 1517  26.686   5.215   0.966
29093W        W 1518   7.709  11.336  12.930
29094W        W 1519  19.542  26.616  13.407
29095W        W 1520  21.052   6.915  11.946
29096W        W 1521  33.898  36.988   2.775
29097W        W 1522  31.939  40.007   1.417
29098W        W 1523  27.493  28.653  11.898
29099W        W 1524  23.183  41.386   2.208
29100W        W 1525  20.238  37.565  13.874
29101W        W 1526  35.435  36.841   0.830
29102W        W 1527   4.861  36.005  10.020
29103W        W 1528  37.405  38.371   1.427
29104W        W 1529  13.264  40.458  10.573
29105W        W 1530  28.940  24.666  10.411
29106W        W 1531   1.393  26.005   3.769
29107W        W 1532  37.065  32.085   0.275
29108W        W 1533  12.242  40.828  14.959
29109W        W 1534  22.638   0.399  13.395
29110W        W 1535  21.526  24.517  14.325
29111W        W 1536  21.044  23.588   2.833
29112W        W 1537   7.414   4.916   0.393
29113W        W 1538   5.195  11.653   0.848
29114W        W 1539  27.580  32.123   4.194
29115W        W 1540  39.058  39.813  13.457
29116W        W 1541   3.421  21.247   4.292
29117W        W 1542  17.127  20.673  12.847
29118W        W 1543  22.071   8.311   2.295
29119W        W 1544   6.406  24.035   4.674
29120W        W 1545  21.652  10.674   1.263
29121W        W 1546  40.522  22.026   3.677
29122W        W 1547  42.366  39.442   0.798
29123W        W 1548  12.769  17.084   3.700
29124W        W 1549  25.497  27.691  12.901
29125W        W 1550  39.059  37.061  11.390
29126W        W 1551  34.607  33.602   3.327
29127W        W 1552   6.753  43.829   2.664
29128W        W 1553   2.830  11.299   0.470
29129W        W 1554  23.151   8.314   1.713
29130W        W 1555  44.008   1.788  12.418
29131W        W 1556  11.798  23.674   2.307
29132W        W 1557  24.553  39.923   3.704
29133W        W 1558   8.403  18.735  11.922
29134W        W 1559  40.998  37.015  13.485
29135W        W 1560  44.324  20.119  11.118
29136W        W 1561  19.671   2.727   3.852
29137W        W 1562   8.671  14.668   3.829
29138W        W 1563  15.320  20.696  10.574
29139W        W 1564  13.303   7.408   4.682
29140W        W 1565  40.833  41.360   2.764
29141W        W 1566  31.937  20.131   1.395
29142W        W 1567  16.602  25.523   0.462
29143W        W 1568  33.476  24.696  12.946
29144W        W 1569  42.949  10.213  13.327
29145W        W 1570  25.125  35.491  14.955
29146W        W 1571   6.242  33.883   0.947
29147W        W 1572   2.889  14.114  13.498
29148W        W 1573   8.182  17.121  14.806
29149W        W 1574  32.050  44.411  13.862
29150W        W 1575   3.740  10.646   0.811
29151W        W 1576  34.891  39.368   3.826
29152W        W 1577  29.996  44.433   1.703
29153W        W 1578   7.682  34.030   2.752
29154W        W 1579  22.147  35.070   3.231
29155W        W 1580  31.549  12.841  13.966
29156W        W 1581  40.417  15.257   4.675
29157W        W 1582   7.875  18.179  10.585
29158W        W 1583  32.086  19.219   2.369
29159W        W 1584  43.950  24.699  12.568
29160W        W 1585   8.860  20.133   1.439
29161W        W 1586   9.707  24.055  11.895
29162W        W 1587  41.788  15.758   2.325
29163W        W 1588  30.932   8.754   1.214
29164W        W 1589  21.676  19.180  10.526
29165W        W 1590  40.395  19.620  11.572
29166W        W 1591   6.215  27.648  13.978
29167W        W 1592  30.594  14.094   2.721
29168W        W 1593  19.600  28.650   4.654
29169W        W 1594  17.076  10.256  10.903
29170W        W 1595   9.167  37.999   2.715
29171W        W 1596   0.825  38.020   1.286
29172W        W 1597  23.087  16.314  14.334
29173W        W 1598  35.004   8.705  11.426
29174W        W 1599   9.701  25.982   4.609
29175W        W 1600  31.630  13.266   0.260
29176W        W 1601  35.027   4.338  12.340
29177W        W 1602   0.891  35.017   2.676
29178W        W 1603   0.373  11.134  12.878
29179W        W 1604  39.387  23.217  11.103
29180W        W 1605  24.197  11.796   5.111
29181W        W 1606  34.457   2.427  14.454
29182W        W 1607  18.211  42.815  12.915
29183W        W 1608   2.291  18.771  12.564
29184W        W 1609  38.048   9.212   4.664
29185W        W 1610  12.832   8.711  14.761
29186W        W 1611  24.144   3.446   4.722
29187W        W 1612  21.213   0.250  13.492
29188W        W 1613  17.659  13.755   2.893
29189W        W 1614  42.932   8.795  13.853
29190W        W 1615   1.809   3.951   0.325
29191W        W 1616  37.056  21.743   2.227
29192W        W 1617  39.950  18.654   1.445
29193W        W 1618  34.877   0.255  14.933
29194W        W 1619  37.561  14.158  11.117
29195W        W 1620  15.249  38.956   3.262
29196W        W 1621  21.672  27.015   3.262
29197W        W 1622  15.217  24.098  10.628
29198W        W 1623  43.485  41.310  11.054
29199W        W 1624  26.147  32.499  10.101
29200W        W 1625  26.627  15.124  13.455
29201W        W 1626  28.097  37.083  12.947
29202W        W 1627  32.054   5.239   4.818
29203W        W 1628   5.858  35.008   3.703
29204W        W 1629  30.050  11.676   0.896
29205W        W 1630  15.734  33.413  10.905
29206W        W 1631   3.781   9.289  13.464
29207W        W 1632  27.157  12.707   0.933
29208W        W 1633  30.005  38.016   1.373
29209W        W 1634   1.250  38.355  11.116
29210W        W 1635  11.200  10.875   3.784
29211W        W 1636  44.465  34.870   2.330
29212W        W 1637  23.620  32.093  10.129
29213W        W 1638  31.941  43.274   3.305
29214W        W 1639   3.842  31.940  12.474
29215W        W 1640  31.593  30.996   0.318
29216W        W 1641   2.861   4.341   4.201
29217W        W 1642  31.012   4.748  12.375
29218W        W 1643  40.444  25.613  11.488
29219W        W 1644   9.160  37.056  12.937
29220W        W 1645  39.900  11.224  13.362
29221W        W 1646  16.201  30.572  14.997
29222W        W 1647  39.548  31.631  12.869
29223W        W 1648  29.954   0.387  14.367
29224W        W 1649  16.598   6.344  13.875
29225W        W 1650  33.469  42.975   0.756
29226W        W 1651  11.211  22.618   3.215
29227W        W 1652   2.955   3.829  10.951
29228W        W 1653  33.127  22.552   3.672
29229W        W 1654   4.401  17.760   1.872
29230W        W 1655   0.866  25.564  13.793
29231W        W 1656  34.597  13.744  11.035
29232W        W 1657  17.707  21.667   4.310
29233W        W 1658  12.193  23.127  14.897
29234W        W 1659   8.864  35.062  11.560
29235W        W 1660  18.607  39.513  14.879
29236W        W 1661  24.198  33.381   2.684
29237W        W 1662  36.914  10.297  13.313
29238W        W 1663  18.557   7.198  13.051
29239W        W 1664  41.486  29.075   0.271
29240W        W 1665  41.376  19.126  13.438
29241W        W 1666  15.097  13.170   4.179
29242W        W 1667  39.386  14.255  13.958
29243W        W 1668  26.040  33.498  14.368
29244W        W 1669  39.362  41.487  10.891
29245W        W 1670  42.852  27.570   2.829
29246W        W 1671   0.765  39.372  12.357
29247W        W 1672  21.022  38.426  11.441
29248W        W 1673   2.270  27.683   1.733
29249W        W 1674  41.828   0.289   2.327
29250W        W 1675  13.719  34.521  13.457
29251W        W 1676  18.753   3.399  12.052
29252W        W 1677  44.414  15.655  11.436
29253W        W 1678   8.815  25.060   4.333
29254W        W 1679  17.607  24.713  11.433
29255W        W 1680  39.825  27.468  10.454
29256W        W 1681  40.499   8.249   2.896
29257W        W 1682  36.873   6.422   3.635
29258W        W 1683  39.328  24.195   0.463
29259W        W 1684  38.064   0.959  12.421
29260W        W 1685  18.618   6.695   0.882
29261W        W 1686   2.813  19.619  12.829
29262W        W 1687  11.670  28.555  12.863
29263W        W 1688  23.140  25.646   2.223
29264W        W 1689  33.453   4.207   1.859
29265W        W 1690  23.186  33.103   1.276
29266W        W 1691  43.360  28.042  11.977
29267W        W 1692  18.760   8.283   2.403
29268W        W 1693  38.865  22.187   1.726
29269W        W 1694  38.029  14.601  10.495
29270W        W 1695   3.818  41.903   4.344
29271W        W 1696  27.134  24.548  11.393
29272W        W 1697  39.343   9.273  13.003
29273W        W 1698  35.402   7.906  10.954
29274W        W 1699  26.973   9.716   4.262
29275W        W 1700  31.992  41.799   3.344
29276W        W 1701   6.323  41.808   2.239
29277W        W 1702   2.788  40.039  12.472
29278W        W 1703  11.269  41.525  14.906
29279W        W 1704  41.336   5.338   2.864
29280W        W 1705  19.578  37.862  11.392
29281W        W 1706  36.464   9.201   1.326
29282W        W 1707   7.856  12.814  10.545
29283W        W 1708   4.793  28.089  14.366
29284W        W 1709  30.078  29.982  13.921
29285W        W 1710  17.797   4.924   2.895
29286W        W 1711  11.137   0.931  11.492
29287W        W 1712  17.296  39.352  11.411
29288W        W 1713   7.689  29.602  13.997
29289W        W 1714  42.012  12.814   3.299
29290W        W 1715  30.479  11.253   0.406
29291W        W 1716  13.333  38.393   1.802
29292W        W 1717  27.618  21.145  10.090
29293W        W 1718  24.087  12.245  13.027
29294W        W 1719  10.740   4.360  10.963
29295W        W 1720  32.524   1.448  14.937
29296W        W 1721  31.074  44.006   3.152
29297W        W 1722   4.825  42.936  14.023
29298W        W 1723  40.956   4.942   4.299
29299W        W 1724  38.402  34.567   0.801
29300W        W 1725   9.722  26.202  10.585
29301W        W 1726   0.950  13.721  11.372
29302W        W 1727  33.572   4.218  13.481
29303W        W 1728  31.488   3.440   0.772
29304W        W 1729  24.024  16.124   2.818
29305W        W 1730  10.303  28.468   1.438
29306W        W 1731  30.911   6.878   0.966
29307W        W 1732  44.002  41.485   1.752
29308W        W 1733  36.867  27.550  14.009
29309W        W 1734  29.504  25.107  11.434
29310W        W 1735   2.750  33.529   4.693
29311W        W 1736  13.704  24.713  12.852
29312W        W 1737   8.857  18.671   3.297
29313W        W 1738  23.149  37.029  13.321
29314W        W 1739  38.511  10.639  12.874
29315W        W 1740  35.085   8.289   1.788
29316W        W 1741   6.678   3.814  12.943
29317W        W 1742  42.447  26.506   4.788
29318W        W 1743  26.479  31.969   9.637
29319W        W 1744   2.831  25.714   0.328
29320W        W 1745   3.900   8.289  12.893
29321W        W 1746  35.573  33.391  12.570
29322W        W 1747  34.596  35.053   3.773
29323W        W 1748  12.780  21.564   1.786
29324W        W 1749  21.261   7.386  12.430
29325W        W 1750  41.907   4.941  13.888
29326W        W 1751  12.228  15.734  11.608
29327W        W 1752   0.432  20.071   1.297
29328W        W 1753   2.345  37.571  12.919
29329W        W 1754  32.013  34.383   2.855
29330W        W 1755   7.369  12.829   4.628
29331W        W 1756  29.495   6.406  11.073
29332W        W 1757  23.064  38.050   0.477
29333W        W 1758  10.147  34.873   2.317
29334W        W 1759  18.789  21.152  10.428
29335W        W 1760  27.110  17.782  12.878
29336W        W 1761  40.865   9.796   3.843
29337W        W 1762  27.660  16.751   1.341
29338W        W 1763   2.394  20.660  14.883
29339W        W 1764  33.027  41.510  11.606
29340W        W 1765  13.662  43.280   1.414
29341W        W 1766   0.471  23.519   1.842
29342W        W 1767  35.064  43.992   0.481
29343W        W 1768  24.720  37.406  11.877
29344W        W 1769  17.783  29.433  11.581
29345W        W 1770  20.617  34.021  12.986
29346W        W 1771  43.445  33.440   1.326
29347W        W 1772  21.044  26.163  13.506
29348W        W 1773   3.773  33.408  12.455
29349W        W 1774   3.834   9.345  14.908
29350W        W 1775  24.139  30.083   4.252
29351W        W 1776  43.472  13.724  13.977
29352W        W 1777  10.768  39.963   2.367
29353W        W 1778  24.534  25.628  14.929
29354W        W 1779  44.302  35.538   4.265
29355W        W 1780  24.174   5.294  14.898
29356W        W 1781  25.623  20.057   4.315
29357W        W 1782  36.026  28.979   1.753
29358W        W 1783  10.792  15.191  13.430
29359W        W 1784  27.026   4.238  12.347
29360W        W 1785  21.031   8.222   4.826
29361W        W 1786  35.365   2.741   0.958
29362W        W 1787  36.976  32.467   2.738
29363W        W 1788  10.831   2.274  12.077
29364W        W 1789  20.667  36.038  11.534
29365W        W 1790  36.051  28.537  14.014
29366W        W 1791  29.143  39.063  14.375
29367W        W 1792   5.796  14.228  12.981
29368W        W 1793  19.600  26.095  11.584
29369W        W 1794   9.321  17.143  14.515
29370W        W 1795  16.722  35.929  10.510
29371W        W 1796  12.684  32.027   3.169
29372W        W 1797   6.755  38.065   1.820
29373W        W 1798   0.279  10.225   2.246
29374W        W 1799   5.202  26.564   4.268
29375W        W 1800  44.982  24.217  10.011
29376W        W 1801  28.677   4.795   0.360
29377W        W 1802  34.994  18.088   4.710
29378W        W 1803   8.259   8.815   3.347
29379W        W 1804   7.891  44.440   4.168
29380W        W 1805  24.158  16.256   3.737
29381W        W 1806  37.977  30.122   4.148
29382W        W 1807   3.764  34.071  12.989
29383W        W 1808  26.963  38.959   3.164
29384W        W 1809  38.459  31.048   3.789
29385W        W 1810  14.671  18.574   3.253
29386W        W 1811  31.992  33.566   4.695
29387W        W 1812   0.269   3.413  13.047
29388W        W 1813  35.547  23.532  12.486
29389W        W 1814  20.237  29.121  10.920
29390W        W 1815  18.273  20.151  12.555
29391W        W 1816  18.142  21.599   4.180
29392W        W 1817  30.458  25.513   5.271
29393W        W 1818  28.993  12.257  14.962
29394W        W 1819  32.902  28.124  11.980
29395W        W 1820  18.150   8.382  13.801
29396W        W 1821  32.968  24.146  12.486
29397W        W 1822   4.777  18.209  13.888
29398W        W 1823  17.746  38.076   0.872
29399W        W 1824  25.568  40.814  14.418
29400W        W 1825  30.010  43.504  11.875
29401W        W 1826  13.825   3.243   9.676
29402W        W 1827  26.089   9.235  13.349
29403W        W 1828  23.622  19.105  12.418
29404W        W 1829   3.459  26.667  12.887
29405W        W 1830  21.191  32.956   0.414
29406W        W 1831  38.571  27.115   4.679
29407W        W 1832  31.005   9.287  14.371
29408W        W 1833   4.842  24.158   1.403
29409W        W 1834  44.378  34.408   1.360
29410W        W 1835  24.649  10.248  12.556
29411W        W 1836  37.893   3.342   2.313
29412W        W 1837  31.926  12.626  12.946
29413W        W 1838  33.046   3.766  13.874
29414W        W 1839   9.287  18.693   3.376
29415W        W 1840   5.927  42.799   2.325
29416W        W 1841  38.023  34.429  12.470
29417W        W 1842  21.220  24.670  12.943
29418W        W 1843  36.506   0.296  10.611
29419W        W 1844  14.656  35.549   3.339
29420W        W 1845  22.645  32.441  14.830
29421W        W 1846  11.299   8.685   1.391
29422W        W 1847  13.177  15.775  10.468
29423W        W 1848   4.751  32.114   2.842
29424W        W 1849  42.496  18.207  14.014
29425W        W 1850  10.746   9.649   2.861
29426W        W 1851  36.381  34.099   0.837
29427W        W 1852  23.072   5.928   4.824
29428W        W 1853  16.608  19.762  11.520
29429W        W 1854   1.879   0.256   4.792
29430W        W 1855  10.813   6.800  11.559
29431W        W 1856   7.856  42.280   2.248
29432W        W 1857  34.910  30.622   5.276
29433W        W 1858  34.406  24.713   2.759
29434W        W 1859   9.383  38.385  14.417
29435W        W 1860  13.644   6.705  13.547
29436W        W 1861  33.022  34.576   1.283
29437W        W 1862  28.654  36.907  12.575
29438W        W 1863  34.535  31.117   0.783
29439W        W 1864   3.739  21.668  14.279
29440W        W 1865   3.733  11.309  14.330
29441W        W 1866  18.552   8.668   4.806
29442W        W 1867  27.494  30.448   3.320
29443W        W 1868  41.851   0.308  13.860
29444W        W 1869  29.092  24.530   3.310
29445W        W 1870   3.783  29.606  13.861
29446W        W 1871  14.200  32.585   1.261
29447W        W 1872  31.016  17.750   0.252
29448W        W 1873  22.163  35.555   4.740
29449W        W 1874  39.046  12.345   0.443
29450W        W 1875   6.407  30.972  11.496
29451W        W 1876  38.920  41.959   4.147
29452W        W 1877  44.853  26.553  12.095
29453W        W 1878   8.165  23.006  14.839
29454W        W 1879  11.272   0.271  12.524
29455W        W 1880   0.385  31.957  11.595
29456W        W 1881   4.934  24.997   0.306
29457W        W 1882  23.513  39.052   4.329
29458W        W 1883   5.917   2.827   0.942
29459W        W 1884  10.236  34.568  10.623
29460W        W 1885  12.727  28.948   0.318
29461W        W 1886  19.244   5.262   3.243
29462W        W 1887   3.235   5.872   4.202
29463W        W 1888   6.831  32.589   3.703
29464W        W 1889  22.198  34.934  11.549
29465W        W 1890  33.412   8.227   4.737
29466W        W 1891  22.666  37.892   3.760
29467W        W 1892   4.796  11.230   0.331
29468W        W 1893  14.626   9.215  12.837
29469W        W 1894  42.288  39.002   1.725
29470W        W 1895  40.388  34.381   4.649
29471W        W 1896  26.164  39.386  11.404
29472W        W 1897  19.167  31.600   0.339
29473W        W 1898   1.251   5.320  11.867
29474W        W 1899  24.144  44.968   1.403
29475W        W 1900  27.638  31.451  14.790
29476W        W 1901  38.874  36.023   5.138
29477W        W 1902  32.119  17.078  13.423
29478W        W 1903  11.688  19.543  12.423
29479W        W 1904  43.346  18.573  14.862
29480W        W 1905  22.649  17.601   3.300
29481W        W 1906  16.275  14.637  13.811
29482W        W 1907   2.265  42.001   3.811
29483W        W 1908  26.039  19.088   0.448
29484W        W 1909  37.527   0.842   4.790
29485W        W 1910  17.560  27.636   3.179
29486W        W 1911  22.103  38.881   3.381
29487W        W 1912  14.692  32.122  12.576
29488W        W 1913  20.256   5.711   1.802
29489W        W 1914   8.168  12.122   2.178
29490W        W 1915  39.900  24.675   2.873
29491W        W 1916   6.831  33.875  13.945
29492W        W 1917  21.106  37.946  11.931
29493W        W 1918  21.105  22.553   0.747
29494W        W 1919  30.522  16.249  12.581
29495W        W 1920  25.185   8.681   3.766
29496W        W 1921  33.914  26.557  13.325
29497W        W 1922   4.862  23.136   2.269
29498W        W 1923   6.246  37.455  10.085
29499W        W 1924  34.057  12.854   0.404
29500W        W 1925  25.112  19.227   1.415
29501W        W 1926  26.179  39.368   1.869
29502W        W 1927  29.940  22.160   4.625
29503W        W 1928   2.405  30.931  14.503
29504W        W 1929   6.259  35.387  11.959
29505W        W 1930  41.370  10.658  13.331
29506W        W 1931   4.416  42.973   0.743
29507W        W 1932  37.029  42.921   1.288
29508W        W 1933  22.064  41.885   3.213
29509W        W 1934  14.797   7.289  14.295
29510W        W 1935  14.163  39.950  12.468
29511W        W 1936   2.860   8.734   1.710
29512W        W 1937   0.805   5.843   3.162
29513W        W 1938  21.180  11.717  10.573
29514W        W 1939  24.162  12.829   3.371
29515W        W 1940  40.364  21.195  13.825
29516W        W 1941  26.663   3.368   2.334
29517W        W 1942  12.826  38.554   2.206
29518W        W 1943  13.809  36.501   0.747
29519W        W 1944  15.109   4.349   4.675
29520W        W 1945  16.083  38.433  13.939
29521W        W 1946  24.724   8.844  11.414
29522W        W 1947  36.924  41.012   0.855
29523W        W 1948  33.556  36.897   1.896
29524W        W 1949  18.296  13.161  14.350
29525W        W 1950   1.325  22.102   2.290
29526W        W 1951  27.012   1.424  11.374
29527W        W 1952  39.965  34.954   0.905
29528W        W 1953  26.157   7.176  11.537
29529W        W 1954  10.251   4.792   0.765
29530W        W 1955  26.701   2.817   4.259
29531W        W 1956  21.186  10.831   0.938
29532W        W 1957  11.863  30.944  14.955
29533W        W 1958  32.940   4.228  11.540
29534W        W 1959  17.765  23.584  14.491
29535W        W 1960  28.445  10.302   3.824
29536W        W 1961  29.945   3.884  12.407
29537W        W 1962  28.641  19.649   2.873
29538W        W 1963  37.860  17.112   4.608
29539W        W 1964  27.124  28.568  11.585
29540W        W 1965  19.188  10.142   3.754
29541W        W 1966  16.234   4.206  10.542
29542W        W 1967  24.716  44.981  12.961
29543W        W 1968   5.771   6.843   2.783
29544W        W 1969  13.750  32.509   1.414
29545W        W 1970  19.183  30.086  11.609
29546W        W 1971  33.386  23.004   3.848
29547W        W 1972  26.038  44.267  10.096
29548W        W 1973  25.602   9.833  12.455
29549W        W 1974  34.118  34.548   4.225
29550W        W 1975   0.426   5.876  14.369
29551W        W 1976  41.441  34.611  11.549
29552W        W 1977  27.179  33.508  14.760
29553W        W 1978  27.592  10.732   2.206
29554W        W 1979  22.559   2.453   2.677
29555W        W 1980   2.448  39.062  10.955
29556W        W 1981  27.020  14.261   1.876
29557W        W 1982  17.583  36.883  10.563
29558W        W 1983  13.115  23.704  14.016
29559W        W 1984  21.618  20.206   4.823
29560W        W 1985   9.350  28.631  11.043
29561W        W 1986  36.358  18.208  13.975
29562W        W 1987  41.350  20.649  11.385
29563W        W 1988  22.242  24.195  13.951
29564W        W 1989  32.097  37.965   4.252
29565W        W 1990  44.998  27.089   4.154
29566W        W 1991  34.428   2.241  11.884
29567W        W 1992  43.923   6.726  14.406
29568W        W 1993  21.106  13.208  10.927
29569W        W 1994  18.126  26.546   0.263
29570W        W 1995  12.773  37.427  14.793
29571W        W 1996  18.154  41.903  13.349
29572W        W 1997   0.971  30.595  11.566
29573W        W 1998  27.132  28.112  13.900
29574W        W 1999  35.080   9.372  10.015
29575W        W 2000  39.367  25.580   2.768
29576W        W 2001   7.362  16.172   1.288
29577W        W 2002   4.318   1.939  14.290
29578W        W 2003  13.659  35.076   0.827
29579W        W 2004  14.208  12.825  11.057
29580W        W 2005  18.748  20.731   1.448
29581W        W 2006  33.941   4.801   3.239
29582W        W 2007   2.387  31.434  11.001
29583W        W 2008  33.061  25.019   0.382
29584W        W 2009  26.531  25.167  13.961
29585W        W 2010   0.792  14.745  11.104
29586W        W 2011  35.092  30.525   2.731
29587W        W 2012   8.658   5.797  10.642
29588W        W 2013  28.085  36.077   2.748
29589W        W 2014  22.055   9.774  11.458
29590W        W 2015  24.165  29.965  13.821
29591W        W 2016  30.992  24.150  13.919
29592W        W 2017  10.154  23.101   1.917
29593W        W 2018  36.934  10.380  12.436
29594W        W 2019   9.759  17.594   1.399
29595W        W 2020   9.152  23.526   1.253
29596W        W 2021   3.840  24.121   2.666
29597W        W 2022  16.780  28.972  14.812
29598W        W 2023  25.662  30.923   1.326
29599W        W 2024  29.551  27.586   4.265
29600W        W 2025  21.059   4.292  14.774
29601W        W 2026  22.635  20.096  14.390
29602W        W 2027  25.093  15.098  10.411
29603W        W 2028  35.431   7.240  13.438
29604W        W 2029  20.187  44.829  11.028
29605W        W 2030  30.051   6.677   4.696
29606W        W 2031  16.217   5.732   0.752
29607W        W 2032  11.201  10.139   2.841
29608W        W 2033  17.560  27.593   0.346
29609W        W 2034  16.306  22.736  12.534
29610W        W 2035   8.711  34.602  12.552
29611W        W 2036  33.433  36.359  14.885
29612W        W 2037  24.148  18.666  14.782
29613W        W 2038  25.043  39.049  12.906
29614W        W 2039  42.013  31.901  13.880
29615W        W 2040  14.608  20.103  11.497
29616W        W 2041  24.663   7.868   4.645
29617W        W 2042  14.209   7.890  10.985
29618W        W 2043  42.290  21.533   0.288
29619W        W 2044  41.027  44.323  13.927
29620W        W 2045  35.474  43.785  11.504
29621W        W 2046  26.614  31.972   2.786
29622W        W 2047  23.150  23.622  10.441
29623W        W 2048  27.557  40.026  13.829
29624W        W 2049   8.307  36.395   2.798
29625W        W 2050  34.541  24.523   0.882
29626W        W 2051  21.749   0.472  10.897
29627W        W 2052  14.129  17.632  13.854
29628W        W 2053  15.183  17.765   3.244
29629W        W 2054  22.008  42.300  14.404
29630W        W 2055  34.472   6.340  12.040
29631W        W 2056  21.232   1.813   1.233
29632W        W 2057   7.241  18.701  12.343
29633W        W 2058   4.316  22.568  13.404
29634W        W 2059  15.157  17.213  13.422
29635W        W 2060  16.781  33.455   4.273
29636W        W 2061   2.747  16.804  14.844
29637W        W 2062  14.154  31.910   3.329
29638W        W 2063  26.995  27.061   0.261
29639W        W 2064  34.080  18.142  12.896
29640W        W 2065  43.296  23.732  11.026
29641W        W 2066   3.402  12.330   3.318
29642W        W 2067   3.835  28.616  11.470
29643W        W 2068  19.129  26.596  11.571
29644W        W 2069  12.337  22.599   1.214
29645W        W 2070   7.807  21.681   3.270
29646W        W 2071  35.916  18.109  13.848
29647W        W 2072  27.977  21.257   0.829
29648W        W 2073  10.328  23.562   1.348
29649W        W 2074  11.167  17.301   4.260
29650W        W 2075  12.252  39.337  14.031
29651W        W 2076  22.634  17.247   1.256
29652W        W 2077  31.100  39.463  12.339
29653W        W 2078   5.833  32.107   3.866
29654W        W 2079  20.095  22.176   0.434
29655W        W 2080  29.470  17.599   0.355
29656W        W 2081  20.087  40.451  11.487
29657W        W 2082   5.428   3.366  14.428
29658W        W 2083   8.324   7.327   3.183
29659W        W 2084  11.345   3.925  14.295
29660W        W 2085  18.580  12.787   0.946
29661W        W 2086  11.758  38.515   4.120
29662W        W 2087   5.279  37.845  11.100
29663W        W 2088  14.790   3.780  11.405
29664W        W 2089   9.325  20.704  12.912
29665W        W 2090  38.340  41.986   0.796
29666W        W 2091  40.822  23.726   0.932
29667W        W 2092  28.062  42.506  13.328
29668W        W 2093  21.641  13.843   0.315
29669W        W 2094  25.523  40.344   4.821
29670W        W 2095  29.143  34.380  11.438
29671W        W 2096  42.478  32.557   4.689
29672W        W 2097   7.750  41.974   3.713
29673W        W 2098  31.902  29.535   0.870
29674W        W 2099  25.023  18.114   4.597
29675W        W 2100  24.672  26.194  13.530
29676W        W 2101   3.898  42.947  11.903
29677W        W 2102  20.144   9.212  12.872
29678W        W 2103  31.064  12.744  13.850
29679W        W 2104  42.510  42.861  12.092
29680W        W 2105  11.700   5.769   3.702
29681W        W 2106  38.047  37.068   0.726
29682W        W 2107  42.454  23.002   0.759
29683W        W 2108  23.079   3.260  11.111
29684W        W 2109   2.855  25.701  11.888
29685W        W 2110  35.950  21.745   0.413
29686W        W 2111  44.366   5.825  14.505
29687W        W 2112  15.223   2.226   3.744
29688W        W 2113  41.393  24.120   0.470
29689W        W 2114   5.324  15.766   4.658
29690W        W 2115  41.362  37.016  11.042
29691W        W 2116  29.170  34.461   0.876
29692W        W 2117  31.564  15.709  12.547
29693W        W 2118  42.847  15.309  13.485
29694W        W 2119   1.787  11.631  14.797
29695W        W 2120  43.290   6.322  11.878
29696W        W 2121  13.647  31.516   4.771
29697W        W 2122  21.729  26.533  13.985
29698W        W 2123  19.766  42.322  14.834
29699W        W 2124  38.449  14.810  12.469
29700W        W 2125  12.821  12.247   2.678
29701W        W 2126  40.929  13.318  14.910
29702W        W 2127  15.626  36.440   1.233
29703W        W 2128  31.562   2.298  14.336
29704W        W 2129  28.112  12.614  13.344
29705W        W 2130  30.563  34.874   1.868
29706W        W 2131  25.984  13.765  11.453
29707W        W 2132   0.455  23.530   3.349
29708W        W 2133  41.882  34.563  11.503
29709W        W 2134  12.260  24.068  12.441
29710W        W 2135  29.044  28.994  12.485
29711W        W 2136  35.028  40.018  13.388
29712W        W 2137  17.708   2.959  14.960
29713W        W 2138   5.420  23.679  10.583
29714W        W 2139   4.347  31.986  14.334
29715W        W 2140   7.325  11.722   3.822
29716W        W 2141   8.686  19.133  12.482
29717W        W 2142   5.235   7.849   1.355
29718W        W 2143  21.654   4.845   4.760
29719W        W 2144   8.205  16.100  12.998
29720W        W 2145  10.305  30.067   5.094
29721W        W 2146  25.133  16.695  14.900
29722W        W 2147  20.241  16.197  10.972
29723W        W 2148  16.739  41.412  12.910
29724W        W 2149  29.471  24.210   0.375
29725W        W 2150   3.282  21.139  12.549
29726W        W 2151  11.767  27.092  13.858
29727W        W 2152  36.414  16.621  14.866
29728W        W 2153  23.191  37.006   0.400
29729W        W 2154  28.160  27.950  14.010
29730W        W 2155  42.406   6.801   2.670
29731W        W 2156  43.791  32.987  13.851
29732W        W 2157  42.321  11.262   2.374
29733W        W 2158  19.197  14.735   0.310
29734W        W 2159  22.622  34.890   5.247
29735W        W 2160  12.686  16.181   0.412
29736W        W 2161  20.074  27.979   4.745
29737W        W 2162  13.821  22.601  10.440
29738W        W 2163  40.454   5.412   1.772
29739W        W 2164  22.508  10.817   4.315
29740W        W 2165  36.965  21.259   1.346
29741W        W 2166  10.784  35.878   2.268
29742W        W 2167   5.435  23.725  13.002
29743W        W 2168  37.044  34.517  13.540
29744W        W 2169  30.164   4.734   3.353
29745W        W 2170  40.929  34.420   3.763
29746W        W 2171  16.311  26.520   1.292
29747W        W 2172  38.510   1.377   2.368
29748W        W 2173  26.626  39.489   2.215
29749W        W 2174  41.859  24.576   0.280
29750W        W 2175  26.459  42.960   1.451
29751W        W 2176   5.857   3.805   4.277
29752W        W 2177  32.488  30.109  10.427
29753W        W 2178  19.710  13.766   2.327
29754W        W 2179  15.132  26.094   4.314
29755W        W 2180  40.458  16.158  11.431
29756W        W 2181   4.329  25.649   1.918
29757W        W 2182  20.152  44.417  13.497
29758W        W 2183  42.990   0.272   4.259
29759W        W 2184  29.629  38.914   3.349
29760W        W 2185  16.168  25.162  10.983
29761W        W 2186  43.985  41.008   1.751
29762W        W 2187  19.740  15.215   3.176
29763W        W 2188  17.281  31.122   3.376
29764W        W 2189   1.873   7.672   0.836
29765W        W 2190  23.066   0.440   4.648
29766W        W 2191   7.349  10.860  13.887
29767W        W 2192   8.759  36.962   1.850
29768W        W 2193  43.871   8.298  10.587
29769W        W 2194  29.533   9.378  11.507
29770W        W 2195  36.056  38.397  13.873
29771W        W 2196  19.664  43.926   1.713
29772W        W 2197  22.250   0.777  10.469
29773W        W 2198  36.528  43.445   3.359
29774W        W 2199  35.886  24.992   2.379
29775W        W 2200  13.673  25.193  11.468
29776W        W 2201  40.506  21.673   9.934
29777W        W 2202  12.332  17.654   1.211
29778W        W 2203  37.893  11.746  14.506
29779W        W 2204   0.416  30.454   5.262
29780W        W 2205  34.584  26.017  13.510
29781W        W 2206  23.625   6.376   2.214
29782W        W 2207  37.512   1.374   2.823
29783W        W 2208  37.482  20.150   2.891
29784W        W 2209   0.390   2.308   4.705
29785W        W 2210   7.724  11.151  14.307
29786W        W 2211   3.416  29.448  10.471
29787W        W 2212  40.518  40.362  10.502
29788W        W 2213  36.913  21.622   0.757
29789W        W 2214  33.955  28.086  10.469
29790W        W 2215  13.184  29.925  13.913
29791W        W 2216   2.443  27.687   0.944
29792W        W 2217   3.808   3.227  13.358
29793W        W 2218   8.782  33.446   1.285
29794W        W 2219   1.862  35.542   1.332
29795W        W 2220  22.697  26.993   0.267
29796W        W 2221  22.130  35.863  14.765
29797W        W 2222  31.947  10.199   3.849
29798W        W 2223   9.857  13.351   0.940
29799W        W 2224  15.725  31.411   2.805
29800W        W 2225  21.232   7.381  14.375
29801W        W 2226   1.469  24.717   1.848
29802W        W 2227   2.329  25.694   2.402
29803W        W 2228  35.564  18.104  13.942
29804W        W 2229  28.505  18.182   1.435
29805W        W 2230  36.922  20.177  14.938
29806W        W 2231  43.894   3.241  13.539
29807W        W 2232  21.168  32.513   2.417
29808W        W 2233   3.276  32.400   2.410
29809W        W 2234  36.505  38.010   1.716
29810W        W 2235   1.827  33.000   1.829
29811W        W 2236   7.209  16.278  11.598
29812W        W 2237  33.004  42.823  10.933
29813W        W 2238  24.720  40.990  11.013
29814W        W 2239  18.708   9.819   2.359
29815W        W 2240  31.152  41.034  12.037
29816W        W 2241  42.864  33.036   3.276
29817W        W 2242  29.514  31.489  12.965
29818W        W 2243  38.348  25.672  14.891
29819W        W 2244   7.902   7.390   3.707
29820W        W 2245   4.824  14.743  10.048
29821W        W 2246  27.080  21.668  14.844
29822W        W 2247  37.059  13.267  14.514
29823W        W 2248  43.897  31.059  14.931
29824W        W 2249  13.307  43.294   2.324
29825W        W 2250   2.878   7.724   0.265
29826W        W 2251  36.383   4.259   1.715
29827W        W 2252   8.743  28.176  14.955
29828W        W 2253  22.073   2.789   4.642
29829W        W 2254  28.977  36.049  13.331
29830W        W 2255  12.704   3.870  14.320
29831W        W 2256  43.889  19.265  14.832
29832W        W 2257  44.976  20.259   2.705
29833W        W 2258  34.520   3.412  13.433
29834W        W 2259  39.428  37.348  14.912
29835W        W 2260  18.245  31.958  11.561
29836W        W 2261  40.854  41.467  11.011
29837W        W 2262  20.752  31.513  13.532
29838W        W 2263  23.616  18.634   1.809
29839W        W 2264   9.359  13.765  10.964
29840W        W 2265  17.103   1.304  10.630
29841W        W 2266  19.605  14.188   5.264
29842W        W 2267  34.082  19.211  13.904
29843W        W 2268  13.669   0.368  12.943
29844W        W 2269  16.085  37.019   2.392
29845W        W 2270  34.114   8.250  10.561
29846W        W 2271   6.777  26.069   1.921
29847W        W 2272  11.835  16.292   3.684
29848W        W 2273   7.253   5.891  12.556
29849W        W 2274  11.366  24.017   0.914
29850W        W 2275   3.402   8.678   2.312
29851W        W 2276   5.728  14.766  11.093
29852W        W 2277  29.935  26.032  10.523
29853W        W 2278   4.426  21.073   1.745
29854W        W 2279   9.327  19.749   4.813
29855W        W 2280  25.179  28.989   2.888
29856W        W 2281  24.045  39.425   4.236
29857W        W 2282  12.163  32.067   3.376
29858W        W 2283  43.489   7.672  13.806
29859W        W 2284  20.628   4.442   3.724
29860W        W 2285  21.624  16.257  14.424
29861W        W 2286  37.071  11.337  13.416
29862W        W 2287  27.099  41.808   2.209
29863W        W 2288  27.082  14.599   0.951
29864W        W 2289   0.755   7.766  10.482
29865W        W 2290   7.666   6.247   2.251
29866W        W 2291  10.357  27.983   3.331
29867W        W 2292  34.927  29.474  14.306
29868W        W 2293  29.015  23.201   0.449
29869W        W 2294   1.414  43.780   4.311
29870W        W 2295  26.194  36.471   2.805
29871W        W 2296  42.380  24.558   3.758
29872W        W 2297  21.089   5.839   0.843
29873W        W 2298  31.127   5.198   1.707
29874W        W 2299  39.498   9.854   1.285
29875W        W 2300   4.925  36.465   3.740
29876W        W 2301  35.026  39.376  13.367
29877W        W 2302  17.173  38.425  12.473
29878W        W 2303  31.483   6.224   1.753
29879W        W 2304  18.659  25.075  10.492
29880W        W 2305  31.636  31.996   3.147
29881W        W 2306  37.008  41.444  13.964
29882W        W 2307  31.104  32.484  14.297
29883W        W 2308   5.797  29.505   2.399
29884W        W 2309  14.161  31.513   4.687
29885W        W 2310  15.795   7.809   4.182
29886W        W 2311  37.870  14.820  14.786
29887W        W 2312   2.327  21.108   2.408
29888W        W 2313  14.792  18.063  14.917
29889W        W 2314  37.401  29.132  11.908
29890W        W 2315  16.243   8.873   1.301
29891W        W 2316  28.457  35.601  13.499
29892W        W 2317  44.386  29.641   4.189
29893W        W 2318  25.998  34.056  10.473
29894W        W 2319  18.099  10.292  13.869
29895W        W 2320  25.571  28.435   0.745
29896W        W 2321  32.634  26.502   9.990
29897W        W 2322  10.197  21.743  13.416
29898W        W 2323  34.452  30.935   1.417
29899W        W 2324   9.254   0.881  10.103
29900W        W 2325  16.091  22.126   4.778
29901W        W 2326  16.750  21.023  13.887
29902W        W 2327  43.368  40.336  13.851
29903W        W 2328  12.234  40.445   3.793
29904W        W 2329   3.445  22.567   2.729
29905W        W 2330  10.301   2.921  14.433
29906W        W 2331   8.218   3.380  14.973
29907W        W 2332  27.506  36.946   4.730
29908W        W 2333  19.549  22.725  14.913
29909W        W 2334   3.770  19.693   3.321
29910W        W 2335   3.898  17.561   0.373
29911W        W 2336  37.504  42.284  14.478
29912W        W 2337  15.600  12.262   0.904
29913W        W 2338  22.016  13.189  10.950
29914W        W 2339  24.479   6.865   1.222
29915W        W 2340  35.596  44.836  12.565
29916W        W 2341  44.269  31.006  13.972
29917W        W 2342  30.015  23.124  14.462
29918W        W 2343  27.118  13.703   2.332
29919W        W 2344   8.853   1.371   2.785
29920W        W 2345  37.551  25.178   4.165
29921W        W 2346  14.743  36.031  11.881
29922W        W 2347   9.264  40.352  10.983
29923W        W 2348  20.108  35.927  14.027
29924W        W 2349  28.573  43.452   3.335
29925W        W 2350  39.926  10.278   4.693
29926W        W 2351  35.449  10.150   2.745
29927W        W 2352  41.350  40.896  10.460
29928W        W 2353  31.122  11.243  13.909
29929W        W 2354  28.642  27.565   0.277
29930W        W 2355  34.028  44.800  12.926
29931W        W 2356  38.928  21.568  12.029
29932W        W 2357  20.139  15.738  11.060
29933W        W 2358   8.323  40.974   2.692
29934W        W 2359  35.090  11.668  14.879
29935W        W 2360  32.995  44.011   1.232
29936W        W 2361  43.868  24.600   3.160
29937W        W 2362  20.259  27.972   2.672
29938W        W 2363  25.171  12.305   4.723
29939W        W 2364  26.199   7.804   3.795
29940W        W 2365  33.500   0.386  12.929
29941W        W 2366   5.755  13.657   0.324
29942W        W 2367  18.555  38.907   5.281
29943W        W 2368  14.822  22.083  11.064
29944W        W 2369  33.971  17.109   1.364
29945W        W 2370  21.623  18.730   1.792
29946W        W 2371   5.203   4.736   2.874
29947W        W 2372   6.768  30.016   4.628
29948W        W 2373  30.061  12.853  13.314
29949W        W 2374  17.094  28.103   2.341
29950W        W 2375   1.879   2.373  14.925
29951W        W 2376  20.110  39.559  14.414
29952W        W 2377   5.300   8.244  14.336
29953W        W 2378  32.618   3.384  11.863
29954W        W 2379  13.163  42.378   0.749
29955W        W 2380  25.100  32.058  10.494
29956W        W 2381  25.039  22.683  14.954
29957W        W 2382  14.308   1.475   4.694
29958W        W 2383  27.102  28.574  14.865
29959W        W 2384  23.166  41.433  13.046
29960W        W 2385   1.769  11.312  12.922
29961W        W 2386  41.990   2.851   3.360
29962W        W 2387  16.753  44.406  14.486
29963W        W 2388   4.716  32.981  10.536
29964W        W 2389  10.664  30.091  11.038
29965W        W 2390  31.531  22.229  10.014
29966W        W 2391  19.207   5.229   2.288
29967W        W 2392  43.402  36.934   2.901
29968W        W 2393  36.851   8.870  14.445
29969W        W 2394  13.240  13.743  12.414
29970W        W 2395  44.781  31.082   3.712
29971W        W 2396  43.297  25.060  14.989
29972W        W 2397  36.361  24.193  14.514
29973W        W 2398  32.608  17.238  10.601
29974W        W 2399   5.760  27.196  11.042
29975W        W 2400   7.306  39.415   0.250
29976W        W 2401   8.386  31.482   0.882
29977W        W 2402  14.811  32.494   9.602
29978W        W 2403  19.699  14.201   3.289
29979W        W 2404  35.013   8.661   4.819
29980W        W 2405  33.993  16.759  14.925
29981W        W 2406  19.086   1.369  14.015
29982W        W 2407   2.230   9.802   1.284
29983W        W 2408  27.974   8.814  14.426
29984W        W 2409  16.201  16.593   1.795
29985W        W 2410  32.905  27.153  13.938
29986W        W 2411  15.270  27.550   2.313
29987W        W 2412   8.852   1.733   4.712
29988W        W 2413  26.206  14.784   0.332
29989W        W 2414  29.517   5.905   2.313
29990W        W 2415  31.638  36.446  14.420
29991W        W 2416  29.039  16.796  14.325
29992W        W 2417   4.227  40.893   4.243
29993W        W 2418   4.836  29.504   1.804
29994W        W 2419  18.667  20.693  13.374
29995W        W 2420   7.678  36.997   2.846
29996W        W 2421  44.355  25.513   4.645
29997W        W 2422  22.549  21.091  13.426
29998W        W 2423   7.724  32.438   0.275
29999W        W 2424   0.814  17.112   4.778
30000W        W 2425  33.512  14.821   2.336
30001W        W 2426  10.819  38.523   1.743
30002W        W 2427  43.330   8.766   4.352
30003W        W 2428  31.599  34.882  10.996
30004W        W 2429  28.964   8.312   4.689
30005W        W 2430  14.812  44.293  11.129
30006W        W 2431  13.179   2.442   0.430
30007W        W 2432   1.406  25.536  13.530
30008W        W 2433  31.990  44.485   5.187
30009W        W 2434   0.393  28.534   1.428
30010W        W 2435   6.414  20.546   1.391
30011W        W 2436   4.368   7.383   3.248
30012W        W 2437  25.576  35.371  10.510
30013W        W 2438  19.682  34.472   2.707
30014W        W 2439  34.587  23.074  13.916
30015W        W 2440   4.741   5.300   4.773
30016W        W 2441  34.013  16.709   2.202
30017W        W 2442  31.110  10.197  12.350
30018W        W 2443   1.270  43.946  12.065
30019W        W 2444   4.895   3.295  12.952
30020W        W 2445  34.395   2.460   0.311
30021W        W 2446  12.326  43.379  11.472
30022W        W 2447  18.204  20.599   1.897
30023W        W 2448  44.865  17.564  13.471
30024W        W 2449   4.838  42.881   2.382
30025W        W 2450  27.025  10.819  11.023
30026W        W 2451   8.240   1.751   3.727
30027W        W 2452  22.645  37.911  14.490
30028W        W 2453   7.324  14.662   2.719
30029W        W 2454   0.865  39.025  12.359
30030W        W 2455  15.145   0.378   2.391
30031W        W 2456   9.726  20.580  14.924
30032W        W 2457  31.001  19.577  13.020
30033W        W 2458   0.490   6.389  11.115
30034W        W 2459  15.723  22.180   0.842
30035W        W 2460  23.204  28.050  14.898
30036W        W 2461  32.975  24.015  14.971
30037W        W 2462  28.097  35.007   0.757
30038W        W 2463  30.528  27.510  12.411
30039W        W 2464  10.651  34.008  13.945
30040W        W 2465  28.622  42.879  12.919
30041W        W 2466   3.949  19.178  14.923
30042W        W 2467  37.520  28.640   2.694
30043W        W 2468  33.620  40.957  14.395
30044W        W 2469  38.877   7.294   4.336
30045W        W 2470  39.410   7.791   1.792
30046W        W 2471  37.837  20.531  13.423
30047W        W 2472   7.202   2.244   4.673
30048W        W 2473  12.187  36.001  10.498
30049W        W 2474  26.131  37.465  12.405
30050W        W 2475   9.714  40.408   0.477
30051W        W 2476  20.176   0.874   0.375
30052W        W 2477  33.980  40.984  10.460
30053W        W 2478  11.767  27.152   1.387
30054W        W 2479  39.387   0.361  12.371
30055W        W 2480  15.147  42.317   0.399
30056W        W 2481  11.822  15.306   0.324
30057W        W 2482   4.702  18.552   4.807
30058W        W 2483   4.345  39.525  13.513
30059W        W 2484  25.527   1.316   3.855
30060W        W 2485  24.055  23.112   2.409
30061W        W 2486  29.168   0.300  14.291
30062W        W 2487   3.854  41.491  10.566
30063W        W 2488  35.948   5.757   0.871
30064W        W 2489   7.383  33.056   3.185
30065W        W 2490  12.284  18.633   1.240
30066W        W 2491  15.321  42.515  11.105
30067W        W 2492  10.367  29.653  10.417
30068W        W 2493   3.400  40.950   1.451
30069W        W 2494   6.425  28.970   2.866
30070W        W 2495  28.540  22.552   4.622
30071W        W 2496  31.060   7.909   0.366
30072W        W 2497  28.929  19.199  10.979
30073W        W 2498   5.842  28.142  13.958
30074W        W 2499  22.575  13.702   2.690
30075W        W 2500  15.308  13.784   0.853
30076W        W 2501  19.764  37.580   1.890
30077W        W 2502  19.084  21.672   1.701
30078W        W 2503  32.012  40.442   2.743
30079W        W 2504   1.449  18.089   3.660
30080W        W 2505  13.123  44.919   1.235
30081W        W 2506   1.752  11.230   4.321
30082W        W 2507  33.445  15.596  13.889
30083W        W 2508   4.395   4.941   1.888
30084W        W 2509  43.894  24.206  12.387
30085W        W 2510  43.431   1.285   4.239
30086W        W 2511  43.962  11.764   2.195
30087W        W 2512  24.496  38.997  13.049
30088W        W 2513  22.502  25.008   4.280
30089W        W 2514  37.071  39.497   2.801
30090W        W 2515   9.384  20.574  10.609
30091W        W 2516  24.181   5.764   4.215
30092W        W 2517   0.810  23.235  14.771
30093W        W 2518  41.793  12.275   4.228
30094W        W 2519  27.165  10.718  14.930
30095W        W 2520  20.537   8.352  14.323
30096W        W 2521  39.345  18.779   3.297
30097W        W 2522  14.314  21.244   1.769
30098W        W 2523  15.744  18.739   2.881
30099W        W 2524   3.897  18.172   3.161
30100W        W 2525  12.193  42.451  14.955
30101W        W 2526  29.129  10.351  11.376
30102W        W 2527  10.815   0.875  14.973
30103W        W 2528  26.669  30.101   3.346
30104W        W 2529   7.188  43.457   4.707
30105W        W 2530  13.179   3.415   9.992
30106W        W 2531  17.202  42.976  11.028
30107W        W 2532  11.177  21.735   4.220
30108W        W 2533   3.909   7.841   0.413
30109W        W 2534  31.548  14.794  11.372
30110W        W 2535   8.744  20.706   1.806
30111W        W 2536   4.903  34.508  11.920
30112W        W 2537  12.147  39.521   2.821
30113W        W 2538   8.709   6.196   4.625
30114W        W 2539   1.732  20.632  14.390
30115W        W 2540  21.207  44.370   3.659
30116W        W 2541  40.808  26.483   0.878
30117W        W 2542  14.673  10.194   9.965
30118W        W 2543  39.908  19.284   1.746
30119W        W 2544   8.160  31.112  13.942
30120W        W 2545  35.539   1.269  12.048
30121W        W 2546  36.850  26.085   2.699
30122W        W 2547   4.253  21.042  12.485
30123W        W 2548  13.842  25.503  12.389
30124W        W 2549  11.621   6.375   4.808
30125W        W 2550  25.118  42.513  14.807
30126W        W 2551   7.724  41.322   2.380
30127W        W 2552  29.590  34.555   0.803
30128W        W 2553  41.986  32.127   5.113
30129W        W 2554  21.602  27.595  12.051
30130W        W 2555  29.626  32.109  13.354
30131W        W 2556  37.959  11.185  13.794
30132W        W 2557  30.039  37.048  11.031
30133W        W 2558  14.678  36.497  11.985
30134W        W 2559  44.877  33.996  14.430
30135W        W 2560  42.869  34.395   3.213
30136W        W 2561  13.667   8.311   1.872
30137W        W 2562  24.097  37.492   2.769
30138W        W 2563  17.773  28.066  14.901
30139W        W 2564  18.662   8.798   3.242
30140W        W 2565  14.833  37.963   3.155
30141W        W 2566  41.023  27.455   1.410
30142W        W 2567   2.881  41.017  11.109
30143W        W 2568  22.103  38.511   4.783
30144W        W 2569  22.193  31.153  14.924
30145W        W 2570   5.239  34.996  10.985
30146W        W 2571  19.775  41.975  13.925
30147W        W 2572   6.315  12.136  11.920
30148W        W 2573  27.945  24.488   4.803
30149W        W 2574  17.763   1.274  12.360
30150W        W 2575  27.096  32.912  14.338
30151W        W 2576  37.880   5.232   0.841
30152W        W 2577  21.696  36.924  12.006
30153W        W 2578  42.342   5.272   4.253
30154W        W 2579  34.610  23.182   1.714
30155W        W 2580   5.374  24.981  14.024
30156W        W 2581  34.471  44.460  10.511
30157W        W 2582  39.319  42.364   4.258
30158W        W 2583  14.759   3.253  14.444
30159W        W 2584  36.504  40.973   1.445
30160W        W 2585  30.476  38.008  12.021
30161W        W 2586  32.445  10.318  12.439
30162W        W 2587  14.095  18.555  13.396
30163W        W 2588   5.846  41.887   0.373
30164W        W 2589   7.366   5.273  10.432
30165W        W 2590  26.531  15.174   0.898
30166W        W 2591  23.613  17.675  14.858
30167W        W 2592  14.701  39.410   1.767
30168W        W 2593  11.225  38.913  10.902
30169W        W 2594  37.393  35.933   1.774
30170W        W 2595  21.719  37.342  14.443
30171W        W 2596  40.415  25.962  14.011
30172W        W 2597   1.944  40.438   1.324
30173W        W 2598   2.374  32.929   0.923
30174W        W 2599  30.914  27.999   4.752
30175W        W 2600  15.134   2.843  12.094
30176W        W 2601  13.138  10.337   1.756
30177W        W 2602  13.217  24.640   2.381
30178W        W 2603  13.343  10.336  11.402
30179W        W 2604  27.666  20.271  11.603
30180W        W 2605  37.889  44.292  13.043
30181W        W 2606  44.307  18.229   3.662
30182W        W 2607  23.662  38.999  13.934
30183W        W 2608  16.223  42.011   1.744
30184W        W 2609  19.730  31.975  13.910
30185W        W 2610   3.299   5.791  12.992
30186W        W 2611  44.473  18.256   2.834
30187W        W 2612   5.903  31.643   3.680
30188W        W 2613  18.153  15.796   4.185
30189W        W 2614  18.054  14.214  13.320
30190W        W 2615   8.773  13.662   3.324
30191W        W 2616  42.000   7.693  12.449
30192W        W 2617   5.322  28.574  14.949
30193W        W 2618  30.016  24.132   3.795
30194W        W 2619  44.927   4.848   4.676
30195W        W 2620  31.429  27.571   4.261
30196W        W 2621   7.772  13.758  11.513
30197W        W 2622   9.846  21.248   2.267
30198W        W 2623  12.317  22.671  14.296
30199W        W 2624  17.148  42.788  10.555
30200W        W 2625  32.114  31.968   2.384
30201W        W 2626  18.279  10.227   3.836
30202W        W 2627   6.421  32.059   0.809
30203W        W 2628  10.782  27.973  14.976
30204W        W 2629   2.783  12.785  12.893
30205W        W 2630  10.232  37.523   3.183
30206W        W 2631  41.445  31.625  11.032
30207W        W 2632  35.858  11.717  11.610
30208W        W 2633  23.697  16.696   0.386
30209W        W 2634  17.756   1.740  14.879
30210W        W 2635  30.099  15.601  12.342
30211W        W 2636  31.099  40.405  13.916
30212W        W 2637  30.055   7.286  11.933
30213W        W 2638  19.147  36.511  13.542
30214W        W 2639   9.381  21.215  12.475
30215W        W 2640  15.740  12.278   3.803
30216W        W 2641  14.755  34.443   2.344
30217W        W 2642  31.464   9.650  12.900
30218W        W 2643  39.911  12.163  11.439
30219W        W 2644  23.011  13.337  11.388
30220W        W 2645  12.289   2.297   4.264
30221W        W 2646  28.989  26.181   3.280
30222W        W 2647  19.232  31.611   4.228
30223W        W 2648  10.850  26.164   3.700
30224W        W 2649   8.365  35.044  11.435
30225W        W 2650   4.218  22.210   0.947
30226W        W 2651  44.434   0.288  10.609
30227W        W 2652  36.962  34.072   3.253
30228W        W 2653   5.256   0.307   3.237
30229W        W 2654  21.688  18.199  11.490
30230W        W 2655  33.973   3.747   1.755
30231W        W 2656  18.263   1.368  12.921
30232W        W 2657   9.659  16.747  12.361
30233W        W 2658  14.324   7.213  10.430
30234W        W 2659  11.201  11.644   2.895
30235W        W 2660  26.600   0.942  12.528
30236W        W 2661  12.220   9.711   1.330
30237W        W 2662  19.615  30.129   4.734
30238W        W 2663  43.423   5.846   3.365
30239W        W 2664  42.363  20.540   1.227
30240W        W 2665  25.654  34.882   9.999
30241W        W 2666   0.480  38.978  13.437
30242W        W 2667   8.247  25.551   2.671
30243W        W 2668  29.465   2.843   3.796
30244W        W 2669  29.066  16.176  11.009
30245W        W 2670  22.590  17.086   3.246
30246W        W 2671   7.257  16.781   1.377
30247W        W 2672   0.451  30.430  14.449
30248W        W 2673   6.692  31.594  12.395
30249W        W 2674   9.812   6.383  14.395
30250W        W 2675  33.487  30.560   5.206
30251W        W 2676  41.360  14.332   0.818
30252W        W 2677  29.153  42.306  12.013
30253W        W 2678  37.021  24.523  14.800
30254W        W 2679   7.397  30.546  14.879
30255W        W 2680  20.048  29.122   4.647
30256W        W 2681  12.216  36.904   3.656
30257W        W 2682  24.637  10.216  13.986
30258W        W 2683   5.861  34.479   0.443
30259W        W 2684  41.477  21.119   0.877
30260W        W 2685  39.425  37.408  12.859
30261W        W 2686  36.892   5.290  12.532
30262W        W 2687   1.901  26.553  11.431
30263W        W 2688  21.134  36.885   4.722
30264W        W 2689  14.253   1.775   2.793
30265W        W 2690   8.793  40.914   4.707
30266W        W 2691  40.994  17.147  12.553
30267W        W 2692   5.822  29.471   1.914
30268W        W 2693  10.723  21.678   1.442
30269W        W 2694   4.272  29.639   3.678
30270W        W 2695  39.881  23.498   4.195
30271W        W 2696  16.275   3.415  11.584
30272W        W 2697  30.595   0.274  12.401
30273W        W 2698  21.721  40.868  14.303
30274W        W 2699  15.138  29.510  14.345
30275W        W 2700   9.652   9.381  12.941
30276W        W 2701  17.303  24.222  12.052
30277W        W 2702  44.776  37.884   1.788
30278W        W 2703  23.616  15.312  11.501
30279W        W 2704  12.130  21.554  10.477
30280W        W 2705  44.945  16.568   2.884
30281W        W 2706  36.354   1.873  10.562
30282W        W 2707  12.347  42.406  12.410
30283W        W 2708  16.751  17.666   1.868
30284W        W 2709   0.924  21.259   5.191
30285W        W 2710   7.284  16.585   3.328
30286W        W 2711  38.003  41.820   3.742
30287W        W 2712  10.676   4.396  12.461
30288W        W 2713   5.797   7.746   1.699
30289W        W 2714  27.093  28.163  10.124
30290W        W 2715  41.393  39.400   2.235
30291W        W 2716   8.796  31.640  13.960
30292W        W 2717   4.861  10.667   3.753
30293W        W 2718  33.993  40.941  11.537
30294W        W 2719  42.876  32.106  14.451
30295W        W 2720   4.403  22.158   2.742
30296W        W 2721   7.864   5.308  13.828
30297W        W 2722   0.384  19.198  14.839
30298W        W 2723  33.621   6.764  12.344
30299W        W 2724  41.895   9.340  10.932
30300W        W 2725  18.623  16.116  11.536
30301W        W 2726   7.748  35.094   3.276
30302W        W 2727   8.351  13.221   0.324
30303W        W 2728  12.787  12.706   3.675
30304W        W 2729  14.164  18.609  11.555
30305W        W 2730   5.762  25.996   3.217
30306W        W 2731  10.356  23.115   0.253
30307W        W 2732  14.829  27.171   0.420
30308W        W 2733  14.606  35.396  13.931
30309W        W 2734  20.128  26.151   2.754
30310W        W 2735   0.765  16.668   1.826
30311W        W 2736  28.637   2.797  13.536
30312W        W 2737  17.772   1.420   0.794
30313W        W 2738   2.862   2.724  11.973
30314W        W 2739  18.667   3.227   4.685
30315W        W 2740   4.704  10.713  14.897
30316W        W 2741  18.093  21.739  13.057
30317W        W 2742  40.305  16.678  12.516
30318W        W 2743   3.247   6.720   0.279
30319W        W 2744  16.753   7.190   2.254
30320W        W 2745  19.577   3.797   3.202
30321W        W 2746   9.713  24.224  13.458
30322W        W 2747  41.417   5.741   2.835
30323W        W 2748   0.803  28.611  12.410
30324W        W 2749  14.238  13.258  13.940
30325W        W 2750   6.711   6.348  12.080
30326W        W 2751  37.908  44.857   1.877
30327W        W 2752  41.305  31.997  13.333
30328W        W 2753  15.243  36.086   2.376
30329W        W 2754   2.458  36.386  10.597
30330W        W 2755  41.341   6.205   5.268
30331W        W 2756  14.306  18.212  10.452
30332W        W 2757  10.678  13.804   1.892
30333W        W 2758  27.126  38.397  13.948
30334W        W 2759  32.472  25.980  11.612
30335W        W 2760  40.359   2.250   0.837
30336W        W 2761  25.627  44.820  11.037
30337W        W 2762  26.208   1.371  12.916
30338W        W 2763  41.935  42.366   2.364
30339W        W 2764  29.515  23.029   3.164
30340W        W 2765  36.449   7.188   0.342
30341W        W 2766  34.571   7.902  13.466
30342W        W 2767  26.198  17.726  12.455
30343W        W 2768  41.383  34.023   3.715
30344W        W 2769   9.272   5.837   1.867
30345W        W 2770  26.066  22.741   0.856
30346W        W 2771  22.123  17.075   1.746
30347W        W 2772  25.641  43.859   2.382
30348W        W 2773  15.795  30.914  10.520
30349W        W 2774  41.037  17.689   0.857
30350W        W 2775  40.807  34.572   2.855
30351W        W 2776  25.710  36.554   0.311
30352W        W 2777  41.882   1.827  12.943
30353W        W 2778  32.515  29.543  10.462
30354W        W 2779  43.777   2.725   2.665
30355W        W 2780  22.662  22.026  11.606
30356W        W 2781   5.348  22.179  10.481
30357W        W 2782  27.487  41.861  12.874
30358W        W 2783  38.857  40.527  14.871
30359W        W 2784   5.415   8.833   1.773
30360W        W 2785  23.117  30.000  14.011
30361W        W 2786  37.402  22.135   2.851
30362W        W 2787  24.115   0.860   4.162
30363W        W 2788  41.883   9.359   3.703
30364W        W 2789   2.908  30.947  11.483
30365W        W 2790  43.467  14.179  11.920
30366W        W 2791   3.795   8.354   1.871
30367W        W 2792   2.855  40.801   2.341
30368W        W 2793  13.223   2.379  13.448
30369W        W 2794  31.154  34.500  13.322
30370W        W 2795   2.466  29.594   3.212
30371W        W 2796  23.018  41.344  14.346
30372W        W 2797  40.487  29.602  11.033
30373W        W 2798   1.288   0.273   2.204
30374W        W 2799  23.714  35.453  12.513
30375W        W 2800  35.994   8.375  14.880
30376W        W 2801   7.262   7.785   3.258
30377W        W 2802  30.457  22.226  12.037
30378W        W 2803  38.976  40.972   4.289
30379W        W 2804  13.254  22.078   1.421
30380W        W 2805  38.440  13.601  13.837
30381W        W 2806  37.528  44.914  14.798
30382W        W 2807  25.089  14.641   0.244
30383W        W 2808  27.679   0.311   0.763
30384W        W 2809   4.740  26.677   0.874
30385W        W 2810  23.141  43.980   2.902
30386W        W 2811  17.624  24.693  12.492
30387W        W 2812  27.133  37.527   3.212
30388W        W 2813  38.408  38.009  12.929
30389W        W 2814   9.781  26.074  14.917
30390W        W 2815   9.342  21.247  10.489
30391W        W 2816   9.342  40.409   2.407
30392W        W 2817   0.393  35.498   1.741
30393W        W 2818  10.842  17.086  12.396
30394W        W 2819  26.519  38.075  12.499
30395W        W 2820  21.608  40.469  10.936
30396W        W 2821   5.283   5.808   1.305
30397W        W 2822  21.536  20.760  12.884
30398W        W 2823  29.939  23.592  12.530
30399W        W 2824  25.102  32.592   0.472
30400W        W 2825  13.706   4.777  13.829
30401W        W 2826   8.387  31.979  14.410
30402W        W 2827  15.091  44.338  14.824
30403W        W 2828  23.144  10.794  13.001
30404W        W 2829  15.279  44.996   4.215
30405W        W 2830  23.098  30.486   0.276
30406W        W 2831  17.233  19.744  14.328
30407W        W 2832  38.860  23.110  14.943
30408W        W 2833  37.024  34.388  12.484
30409W        W 2834  38.896  30.909  13.036
30410W        W 2835  28.644  11.362  11.004
30411W        W 2836   6.343  40.312   0.432
30412W        W 2837  19.122  30.068  14.761
30413W        W 2838  25.533   7.842  14.355
30414W        W 2839  21.584  44.290  14.834
30415W        W 2840  40.988  37.460   3.791
30416W        W 2841  25.574  39.876  10.446
30417W        W 2842  32.472  11.302  13.001
30418W        W 2843  13.132  37.578   1.750
30419W        W 2844   6.253   6.348  12.824
30420W        W 2845  10.678   3.941  13.054
30421W        W 2846  30.507  11.633  14.433
30422W        W 2847  43.396  25.030   1.762
30423W        W 2848  26.092  30.091   2.298
30424W        W 2849  11.273   4.793  11.867
30425W        W 2850  32.005  35.916   2.683
30426W        W 2851  31.140  16.804  13.800
30427W        W 2852  25.018  40.523   2.394
30428W        W 2853  44.995  21.626   3.727
30429W        W 2854  25.007   6.213  11.382
30430W        W 2855  13.107  28.139  12.537
30431W        W 2856   8.389  39.809  13.908
30432W        W 2857  31.966  30.508   2.682
30433W        W 2858  42.487  15.605   3.659
30434W        W 2859  29.573  43.980   3.348
30435W        W 2860   1.830   6.845  14.369
30436W        W 2861  33.112   5.914  12.889
30437W        W 2862  14.245   0.832   1.238
30438W        W 2863  10.246  38.928  10.933
30439W        W 2864   9.373   2.470  11.601
30440W        W 2865  11.852  41.365   0.467
30441W        W 2866  12.340   3.880   2.202
30442W        W 2867  22.742   7.732   3.729
30443W        W 2868  36.000  20.671  12.868
30444W        W 2869  41.388  33.066  11.899
30445W        W 2870  35.493  44.933  11.040
30446W        W 2871   4.264  36.988   1.873
30447W        W 2872  10.646  42.002   0.801
30448W        W 2873   6.257  31.011   2.364
30449W        W 2874  14.684   5.233   0.459
30450W        W 2875  38.929  23.985   4.625
30451W        W 2876  36.962  26.160  11.893
30452W        W 2877   6.760  43.499  11.125
30453W        W 2878  19.587  27.181   2.398
30454W        W 2879   0.907   2.777  13.467
30455W        W 2880  32.136   2.246   2.683
30456W        W 2881   6.690  16.113   3.245
30457W        W 2882  43.499   6.345   0.760
30458W        W 2883  31.058  43.973  14.770
30459W        W 2884  13.120   0.462   1.264
30460W        W 2885  20.183  19.759  14.375
30461W        W 2886  36.012   5.264   1.448
30462W        W 2887  13.234   5.848  11.128
30463W        W 2888  10.858   4.360   3.325
30464W        W 2889  40.509   5.934   4.704
30465W        W 2890  29.117  42.899   4.723
30466W        W 2891  25.110  31.513   0.749
30467W        W 2892  19.192  29.949   4.150
30468W        W 2893  41.355  33.386  11.898
30469W        W 2894  30.974  23.112   3.325
30470W        W 2895  33.025   3.810  12.010
30471W        W 2896  36.566  20.215   1.836
30472W        W 2897   1.271  26.071  12.044
30473W        W 2898  41.349  33.064   4.740
30474W        W 2899  17.567  22.201  12.987
30475W        W 2900  24.119  31.450  11.118
30476W        W 2901  40.919  13.237   4.666
30477W        W 2902  34.482  44.503  11.377
30478W        W 2903  12.357  43.774  14.467
30479W        W 2904  34.897  40.822   2.404
30480W        W 2905  22.162  22.544  10.630
30481W        W 2906  13.808  39.975  11.437
30482W        W 2907  12.326  21.551   5.107
30483W        W 2908  23.517  32.626  11.913
30484W        W 2909  29.604  33.479  12.869
30485W        W 2910   3.812   7.372   1.933
30486W        W 2911  15.652   8.173  14.826
30487W        W 2912  44.485  19.066   3.794
30488W        W 2913  29.453  40.991   5.277
30489W        W 2914   2.306   9.648  11.489
30490W        W 2915  40.829  19.146  13.431
30491W        W 2916  37.405   0.804   0.818
30492W        W 2917  38.352  20.590  11.914
30493W        W 2918  25.637  12.315   0.845
30494W        W 2919  31.504   3.273  13.921
30495W        W 2920  30.461  36.565   4.184
30496W        W 2921  26.154  24.669  12.478
30497W        W 2922   0.958  37.505   5.275
30498W        W 2923  24.487   0.351  13.345
30499W        W 2924  22.201  35.049   4.652
30500W        W 2925  28.999  41.413  10.153
30501W        W 2926   6.911  18.628   2.807
30502W        W 2927  12.270  20.614   0.813
30503W        W 2928  14.154  33.503  10.515
30504W        W 2929  15.713  17.172   4.785
30505W        W 2930  26.566  18.115   0.912
30506W        W 2931  23.616  36.471  13.018
30507W        W 2932  27.469  22.095   3.773
30508W        W 2933  24.694  29.563  11.020
30509W        W 2934  40.842  38.430  10.518
30510W        W 2935  34.568  23.066   1.434
30511W        W 2936   1.368  28.518   0.481
30512W        W 2937  14.241  38.441  12.355
30513W        W 2938  34.403  27.626   1.723
30514W        W 2939  14.159   6.252   5.120
30515W        W 2940  44.782  11.852   4.208
30516W        W 2941   0.772  21.722  12.462
30517W        W 2942  40.395  19.243  13.947
30518W        W 2943  27.948  10.672  10.425
30519W        W 2944  30.506  21.031   0.422
30520W        W 2945   3.761   9.373   1.263
30521W        W 2946  30.527  29.041  11.082
30522W        W 2947  16.291  23.039  11.953
30523W        W 2948  31.589  27.548  14.870
30524W        W 2949  22.520  33.038  11.968
30525W        W 2950  12.292  19.263   4.702
30526W        W 2951  30.550  30.455  10.470
30527W        W 2952  31.429  22.176   0.302
30528W        W 2953  31.916  43.781  10.466
30529W        W 2954  26.505  15.728   1.221
30530W        W 2955  15.763  33.986  14.021
30531W        W 2956   2.844  26.050  14.817
30532W        W 2957  24.617   2.885   4.617
30533W        W 2958  29.442  33.536   5.209
30534W        W 2959   4.901   4.424  13.034
30535W        W 2960  39.985  36.476  14.414
30536W        W 2961  29.944  41.420   5.755
30537W        W 2962  28.656  42.398  13.791
30538W        W 2963  18.265   7.378   3.197
30539W        W 2964  34.102  36.890   3.803
30540W        W 2965  17.652  34.992  10.061
30541W        W 2966   1.887  40.998   2.817
30542W        W 2967  22.021  31.139  13.450
30543W        W 2968  23.235  15.795  10.919
30544W        W 2969   8.827  36.961  12.046
30545W        W 2970   9.673  19.279  10.453
30546W        W 2971  31.404  24.192  14.835
30547W        W 2972  37.876  25.607   0.403
30548W        W 2973  36.463  29.128  11.561
30549W        W 2974  12.832   0.945  11.957
30550W        W 2975   8.212   4.745  14.902
30551W        W 2976  30.118   9.386  12.899
30552W        W 2977   8.253   5.376   1.722
30553W        W 2978  44.995  32.901  13.920
30554W        W 2979   6.188  43.016  14.988
30555W        W 2980  15.718  22.015   2.294
30556W        W 2981  17.723  42.928  13.052
30557W        W 2982  24.108  41.975  13.439
30558W        W 2983  37.014  28.497  11.109
30559W        W 2984  25.490  30.456   3.152
30560W        W 2985  44.299  35.565  14.379
30561W        W 2986  40.051  31.114   3.295
30562W        W 2987  27.035  32.612   4.183
30563W        W 2988  42.399  22.734  14.348
30564W        W 2989  36.975  38.991  10.408
30565W        W 2990   9.741  43.883   1.858
30566W        W 2991  41.402  29.657  13.307
30567W        W 2992   7.278  16.084  14.936
30568W        W 2993  24.524  15.211  10.915
30569W        W 2994  39.009  14.639   1.323
30570W        W 2995  35.503  42.895  10.621
30571W        W 2996  32.041  28.087   0.320
30572W        W 2997   8.885  25.985   2.388
30573W        W 2998  18.719  13.605  11.126
30574W        W 2999  44.980  32.049   3.192
30575W        W 3000   5.787  20.722  13.547
30576W        W 3001  28.969  43.919   4.826
30577W        W 3002  14.791   3.871  11.011
30578W        W 3003  42.874  12.128   1.890
30579W        W 3004  18.619  30.420   2.390
30580W        W 3005  42.418  14.106   4.650
30581W        W 3006  36.431  38.859  13.014
30582W        W 3007  35.440  15.251   3.273
30583W        W 3008  21.093  14.650  11.914
30584W        W 3009   6.731  18.161   0.737
30585W        W 3010  31.604  31.135  10.979
30586W        W 3011   8.263   4.434  14.275
30587W        W 3012  18.217  37.557  11.491
30588W        W 3013  36.077  35.401  11.035
30589W        W 3014  35.419  25.690   3.755
30590W        W 3015  37.902   0.322  11.065
30591W        W 3016   2.323   6.417  10.952
30592W        W 3017  36.418  12.677   5.122
30593W        W 3018  32.480  41.874   4.136
30594W        W 3019  27.122  24.002   1.290
30595W        W 3020  17.189   2.415  12.852
30596W        W 3021   7.211  39.395   3.649
30597W        W 3022  21.680  15.211   3.332
30598W        W 3023  32.633  31.547  13.872
30599W        W 3024  18.631  36.927   1.384
30600W        W 3025  24.606  33.023  14.789
30601W        W 3026   9.209  21.197  11.455
30602W        W 3027  17.667  18.254   1.784
30603W        W 3028   9.714  44.814  11.862
30604W        W 3029  10.873   2.240   3.320
30605W        W 3030  33.464  44.894   1.411
30606W        W 3031  24.172  18.219   2.216
30607W        W 3032  34.912  37.004   2.349
30608W        W 3033   2.963   0.748  14.945
30609W        W 3034  29.055  24.551   0.273
30610W        W 3035  10.287  12.190   3.347
30611W        W 3036  18.100  26.002  13.943
30612W        W 3037   8.835   9.212  13.864
30613W        W 3038  13.611   6.710   1.785
30614W        W 3039  28.107   7.185  10.090
30615W        W 3040  12.847  16.581   2.266
30616W        W 3041  36.463  11.258   1.212
30617W        W 3042  11.761  42.318   4.834
30618W        W 3043  30.568  14.317  13.448
30619W        W 3044   4.816  40.521  11.123
30620W        W 3045   4.782  13.603  10.424
30621W        W 3046  39.822  14.297   1.287
30622W        W 3047  43.936  40.322  13.851
30623W        W 3048   2.325  31.114   1.325
30624W        W 3049  12.262  36.014  13.438
30625W        W 3050   3.913  25.604   2.884
30626W        W 3051  38.843  39.941  14.466
30627W        W 3052  30.939  12.251   1.444
30628W        W 3053   9.196  35.575  12.032
30629W        W 3054  12.264  31.585   1.375
30630W        W 3055  34.049   2.378  12.059
30631W        W 3056  41.314  10.312   3.823
30632W        W 3057  18.611   8.848  13.827
30633W        W 3058   5.374  28.969   0.744
30634W        W 3059  22.646   4.817  14.321
30635W        W 3060  20.088  44.263   2.374
30636W        W 3061  10.375  43.476   3.784
30637W        W 3062  16.738   2.305  12.847
30638W        W 3063   9.702  20.238   4.294
30639W        W 3064   8.783   8.182   0.466
30640W        W 3065  23.103   6.781   3.639
30641W        W 3066  20.746  29.556  14.866
30642W        W 3067  21.580  37.080   1.448
30643W        W 3068   8.322   0.416  12.493
30644W        W 3069  33.387  14.190   0.849
30645W        W 3070  32.890  35.480  13.400
30646W        W 3071   3.301   8.751   0.478
30647W        W 3072  35.867   6.364  14.838
30648W        W 3073  44.352  11.189   4.702
30649W        W 3074   7.909  35.869  14.844
30650W        W 3075  11.354  11.764   3.831
30651W        W 3076  44.278  12.712  10.968
30652W        W 3077  27.141  11.843  11.080
30653W        W 3078  12.122  25.686  11.588
30654W        W 3079  11.159  22.100   1.326
30655W        W 3080  17.555  39.529   2.394
30656W        W 3081  30.108  29.989   2.861
30657W        W 3082  28.963  34.112   1.886
30658W        W 3083  41.988  43.501   1.268
30659W        W 3084  15.804  41.353  10.544
30660W        W 3085  23.043  11.209  13.001
30661W        W 3086  16.621  28.063   4.743
30662W        W 3087  11.629  17.081   3.741
30663W        W 3088   5.910  26.979  14.466
30664W        W 3089  29.958   2.263   1.805
30665W        W 3090  21.615  10.313   3.734
30666W        W 3091  23.212  31.465  14.332
30667W        W 3092   5.794   6.758   1.720
30668W        W 3093  44.400  31.930  13.977
30669W        W 3094  19.670  21.735   0.462
30670W        W 3095  41.022  25.469  14.953
30671W        W 3096   3.247  42.290   1.223
30672W        W 3097   8.401  38.445  14.028
30673W        W 3098  30.048  31.402  10.985
30674W        W 3099   2.825  37.494  13.003
30675W        W 3100  33.977  21.137  10.520
30676W        W 3101  39.348  40.830   3.739
30677W        W 3102  39.051  21.029   2.780
30678W        W 3103  36.524  41.841   3.302
30679W        W 3104  26.988  27.959  13.391
30680W        W 3105  16.609  33.961   1.232
30681W        W 3106   7.793  21.119   3.380
30682W        W 3107  12.279  41.969   1.799
30683W        W 3108  33.547  31.916   3.204
30684W        W 3109  31.454   7.386  10.592
30685W        W 3110  29.990  23.593   9.930
30686W        W 3111   2.921  22.240   3.161
30687W        W 3112  42.028   6.867   4.776
30688W        W 3113   7.357  35.935  14.025
30689W        W 3114   9.165   5.392  10.593
30690W        W 3115  33.505  33.119  14.994
30691W        W 3116  35.360  35.568  10.956
30692W        W 3117  16.599   9.325  13.869
30693W        W 3118  41.480  10.315  10.446
30694W        W 3119  13.171  12.354   4.832
30695W        W 3120  34.980   5.293   1.362
30696W        W 3121  34.433  17.785   2.833
30697W        W 3122  35.455  35.549   1.826
30698W        W 3123  25.136  32.895   2.713
30699W        W 3124  42.020  39.484   1.426
30700W        W 3125  26.069  29.667   1.300
30701W        W 3126  21.236  44.862   3.317
30702W        W 3127  30.043  42.932  11.586
30703W        W 3128   3.329  36.423  11.406
30704W        W 3129   7.383  13.695   0.481
30705W        W 3130  23.201   2.254  12.467
30706W        W 3131   5.422  24.025  10.918
30707W        W 3132  33.584  20.585   1.772
30708W        W 3133  42.510  36.857  14.339
30709W        W 3134  36.932  23.542   0.799
30710W        W 3135  22.521  29.114  13.478
30711W        W 3136  37.382  20.678   4.837
30712W        W 3137  20.223  44.994   4.826
30713W        W 3138  36.999  38.898  11.434
30714W        W 3139   7.239  22.723  13.378
30715W        W 3140  16.270  44.959  12.976
30716W        W 3141   7.763  22.703   4.830
30717W        W 3142  15.593   6.391   2.856
30718W        W 3143  22.711  44.355   2.319
30719W        W 3144  21.572   2.405  14.802
30720W        W 3145  18.553   3.893   0.407
30721W        W 3146  23.538  37.909  12.454
30722W        W 3147  23.682  31.946   5.081
30723W        W 3148  24.625   1.465  13.526
30724W        W 3149  22.656  43.309  10.417
30725W        W 3150   9.859  18.071   4.262
30726W        W 3151  26.173  35.449  10.942
30727W        W 3152  12.241  22.622  10.623
30728W        W 3153  43.780   2.938  14.007
30729W        W 3154  33.537  32.061  12.839
30730W        W 3155  40.541  37.519   3.694
30731W        W 3156   0.888  32.944  14.889
30732W        W 3157  22.665  24.158   4.310
30733W        W 3158  21.082  43.495   1.286
30734W        W 3159  21.127  33.515  14.330
30735W        W 3160  21.726  28.041   4.720
30736W        W 3161  37.896  15.122   1.933
30737W        W 3162  16.257   0.887  14.354
30738W        W 3163  36.490  18.619  13.016
30739W        W 3164  21.740   8.280   4.673
30740W        W 3165  42.334  10.174   2.796
30741W        W 3166   6.711  43.947  13.434
30742W        W 3167  21.536  37.037   0.428
30743W        W 3168  32.109  35.524  10.606
30744W        W 3169  20.235  23.113   4.201
30745W        W 3170   5.859  38.945   0.943
30746W        W 3171   6.272  36.855   2.186
30747W        W 3172   9.685   3.310   4.690
30748W        W 3173   1.290  16.239   1.223
30749W        W 3174  43.357  24.211  11.402
30750W        W 3175  32.091  41.351  14.315
30751W        W 3176  42.005  10.783  12.911
30752W        W 3177   3.886   2.253   2.392
30753W        W 3178   0.308  11.261   3.287
30754W        W 3179  31.500   3.751   2.255
30755W        W 3180  32.085   4.941  11.953
30756W        W 3181  31.069  12.253   3.765
30757W        W 3182  33.027  17.109   2.327
30758W        W 3183  41.806  21.691   0.358
30759W        W 3184  29.119  44.899  14.306
30760W        W 3185  37.568   3.730   3.683
30761W        W 3186  11.315  41.875  13.448
30762W        W 3187   1.241  37.532   0.427
30763W        W 3188  21.137   5.336   4.215
30764W        W 3189  32.579  35.447   0.738
30765W        W 3190  39.410  40.392   4.347
30766W        W 3191   4.373  13.142  12.936
30767W        W 3192  44.344   9.796   2.303
30768W        W 3193  41.466  32.599  10.547
30769W        W 3194  22.195   7.702   1.935
30770W        W 3195  37.473  42.995  13.937
30771W        W 3196  42.808  23.166  11.020
30772W        W 3197  28.448  27.147   3.784
30773W        W 3198  20.263  16.736   4.160
30774W        W 3199  28.679  43.368  12.089
30775W        W 3200  34.912  28.436   1.440
30776W        W 3201   5.352  11.140   3.666
30777W        W 3202  43.354   1.892  10.578
30778W        W 3203  19.613  27.490  13.324
30779W        W 3204  11.214  29.479   2.185
30780W        W 3205  39.957  38.005  12.933
30781W        W 3206  29.061  36.566  12.411
30782W        W 3207  19.728  27.486   2.787
30783W        W 3208  35.433  37.376  11.038
30784W        W 3209  21.138  19.645   4.708
30785W        W 3210   7.304   0.417   3.292
30786W        W 3211  16.255  28.636   1.217
30787W        W 3212   8.889   7.253  12.934
30788W        W 3213   5.851  34.535   3.821
30789W        W 3214  36.453  19.176  14.454
30790W        W 3215  44.970  34.004   5.596
30791W        W 3216  24.230   6.801   4.328
30792W        W 3217  21.146  35.966   4.150
30793W        W 3218  10.641   5.839  11.089
30794W        W 3219   5.922  43.322   3.231
30795W        W 3220  23.235   5.932  12.892
30796W        W 3221  17.150  15.772   4.339
30797W        W 3222  13.280  33.065  10.569
30798W        W 3223  41.892  27.946   2.898
30799W        W 3224  14.199  43.327   0.919
30800W        W 3225  27.541  38.563  11.085
30801W        W 3226  38.849  11.149   2.818
30802W        W 3227  19.677  21.555  13.915
30803W        W 3228   1.782  24.685   0.320
30804W        W 3229  11.803  27.122   3.860
30805W        W 3230   9.877   3.810  14.468
30806W        W 3231  34.563  37.084  13.446
30807W        W 3232  30.448  39.988   4.621
30808W        W 3233  19.673  10.257  14.777
30809W        W 3234  29.601  29.158   3.780
30810W        W 3235  38.926  36.958  14.003
30811W        W 3236   7.842  25.121  10.983
30812W        W 3237  44.405  43.285  10.514
30813W        W 3238  42.853   9.329   1.333
30814W        W 3239  23.511  13.186  12.862
30815W        W 3240  33.015  27.687   4.732
30816W        W 3241   1.819  23.036   0.451
30817W        W 3242  38.874  13.216  13.429
30818W        W 3243  37.912  34.914   2.384
30819W        W 3244  16.307  21.031  10.443
30820W        W 3245  19.256  42.942  12.016
30821W        W 3246  34.001  42.801   2.351
30822W        W 3247   7.399  43.854  13.023
30823W        W 3248  17.131  36.097   3.699
30824W        W 3249  23.528  42.465  13.944
30825W        W 3250   5.403  18.258   0.476
30826W        W 3251  35.004  41.491   9.939
30827W        W 3252   3.396  17.659   4.664
30828W        W 3253  26.614  38.046   3.784
30829W        W 3254  21.093   3.311  10.516
30830W        W 3255   4.422  23.163   2.345
30831W        W 3256   0.268  40.888   1.888
30832W        W 3257  43.967  34.380  12.877
30833W        W 3258  44.876   0.908  13.453
30834W        W 3259  24.656  13.695  13.453
30835W        W 3260  32.011  40.515  13.016
30836W        W 3261  29.988  37.056  12.563
30837W        W 3262  29.150   8.265   1.756
30838W        W 3263   3.371  21.537   4.693
30839W        W 3264   6.394  42.958  14.463
30840W        W 3265  30.658  27.963  12.460
30841W        W 3266  36.529  12.176  12.928
30842W        W 3267  18.080  18.178  10.588
30843W        W 3268  11.732  40.960   3.810
30844W        W 3269  30.553   2.793  10.941
30845W        W 3270  15.789  43.387   1.712
30846W        W 3271  41.965  25.478   2.301
30847W        W 3272  40.332  33.132  10.415
30848W        W 3273  32.520  22.218   3.244
30849W        W 3274  15.822  41.391   4.218
30850W        W 3275  27.584   8.792  12.439
30851W        W 3276   0.291  12.214  11.878
30852W        W 3277  28.146  40.439  11.474
30853W        W 3278  17.146   8.263  10.994
30854W        W 3279  32.050   1.279   0.820
30855W        W 3280  25.044  14.829   2.723
30856W        W 3281  12.352   5.777   0.248
30857W        W 3282  20.657  33.583  11.859
30858W        W 3283  19.719   0.932   4.189
30859W        W 3284  12.153  21.045   2.681
30860W        W 3285   5.400  41.925  13.399
30861W        W 3286   0.987   1.836  13.314
30862W        W 3287   4.346  34.589   0.948
30863W        W 3288  28.568  21.184   2.348
30864W        W 3289  44.298  17.248  12.955
30865W        W 3290  30.026  13.114   3.386
30866W        W 3291  10.734  37.986  12.357
30867W        W 3292  38.847  40.312   4.740
30868W        W 3293  26.117   0.460   0.284
30869W        W 3294  43.885  23.016  11.383
30870W        W 3295   6.417   7.235  10.466
30871W        W 3296  20.616   0.958  13.005
30872W        W 3297   8.365  29.465   0.389
30873W        W 3298  26.989  32.549  11.084
30874W        W 3299   6.768   5.264   0.754
30875W        W 3300  19.718  26.157   3.236
30876W        W 3301  33.129  38.510   0.366
30877W        W 3302  11.339  37.872   3.253
30878W        W 3303  17.294  31.903  14.348
30879W        W 3304  22.182  22.237  13.349
30880W        W 3305  13.659  19.668   2.198
30881W        W 3306  39.013  36.869   2.862
30882W        W 3307  36.564   1.861   1.861
30883W        W 3308  34.369  18.569   4.338
30884W        W 3309  36.919  33.928   4.833
30885W        W 3310  34.380  12.808  13.514
30886W        W 3311  17.210  21.522   3.677
30887W        W 3312  29.425  19.221   3.177
30888W        W 3313  37.464  27.682  10.131
30889W        W 3314  35.417  12.134  12.061
30890W        W 3315  29.461  20.219   0.943
30891W        W 3316  35.913  43.487   1.352
30892W        W 3317  30.159  19.534  10.609
30893W        W 3318  25.655  38.567   1.821
30894W        W 3319  25.665  43.411  10.897
30895W        W 3320  32.041  43.982   0.442
30896W        W 3321  17.111  34.527   5.211
30897W        W 3322  34.875  36.037   0.263
30898W        W 3323  32.046   5.265   4.231
30899W        W 3324  36.592   6.316   2.888
30900W        W 3325  25.043  37.905   3.258
30901W        W 3326  30.560  43.379   1.403
30902W        W 3327  39.408  19.693   1.796
30903W        W 3328   2.907  25.038  11.899
30904W        W 3329  40.311   7.350   1.783
30905W        W 3330   6.233  33.390  13.375
30906W        W 3331  42.844  25.047   4.802
30907W        W 3332  23.199  42.480   2.901
30908W        W 3333   2.271  15.295  14.868
30909W        W 3334  33.105  32.511   2.842
30910W        W 3335  38.039  25.516  13.811
30911W        W 3336  42.790  43.874  14.805
30912W        W 3337   3.450  23.088  12.847
30913W        W 3338  26.508  43.782  11.888
30914W        W 3339   8.680  20.612   4.827
30915W        W 3340   5.356  36.459  11.883
30916W        W 3341  14.189   9.313   2.287
30917W        W 3342  28.630  16.078   0.895
30918W        W 3343  14.687  38.434  10.919
30919W        W 3344  33.527  43.808  12.488
30920W        W 3345   6.730  33.984   0.808
30921W        W 3346   7.853  26.135  14.910
30922W        W 3347  17.741  14.815  12.004
30923W        W 3348  16.114  22.569   3.750
30924W        W 3349  12.267  35.079  14.483
30925W        W 3350   8.334  18.093   2.386
30926W        W 3351  19.129  18.668   3.833
30927W        W 3352   0.886  13.222   2.732
30928W        W 3353  42.336   2.369   2.770
30929W        W 3354  30.034  37.843   2.349
30930W        W 3355  23.054  29.584  12.868
30931W        W 3356  40.498  19.156  14.323
30932W        W 3357  39.509  40.886   4.603
30933W        W 3358  32.037  34.547  10.912
30934W        W 3359  44.498  43.282   2.244
30935W        W 3360  28.451   4.853  10.088
30936W        W 3361  10.192  32.932   1.769
30937W        W 3362  17.736  30.640  14.407
30938W        W 3363  19.101  11.801   2.822
30939W        W 3364  34.481   0.953  11.970
30940W        W 3365  36.457  30.522   2.315
30941W        W 3366  31.496  33.434  11.436
30942W        W 3367  22.610   0.392   0.261
30943W        W 3368  33.599  19.660   4.711
30944W        W 3369  41.856   4.935   2.861
30945W        W 3370  39.050  19.673   0.812
30946W        W 3371  25.131  12.184  13.866
30947W        W 3372   1.331  15.115  14.929
30948W        W 3373   7.762  21.198  11.113
30949W        W 3374  18.601  35.103  10.615
30950W        W 3375  38.541  34.891   2.828
30951W        W 3376  14.808  15.761  13.343
30952W        W 3377  23.538   4.755   4.785
30953W        W 3378  16.250  16.191  14.028
30954W        W 3379   7.266  10.672   3.199
30955W        W 3380  42.924  14.622  10.948
30956W        W 3381  37.353  30.475   0.250
30957W        W 3382  16.608  16.789  13.932
30958W        W 3383   8.664  29.134   1.800
30959W        W 3384  32.601  36.557  11.378
30960W        W 3385   2.772  24.585   0.484
30961W        W 3386   8.730  33.930  10.434
30962W        W 3387  43.898  29.525   3.202
30963W        W 3388   3.830  27.186   2.226
30964W        W 3389  12.175  15.769  14.778
30965W        W 3390  40.850  20.094  12.079
30966W        W 3391  43.510  41.331  11.498
30967W        W 3392  14.313  38.372   2.713
30968W        W 3393  21.179  24.154   0.263
30969W        W 3394  19.097   5.735   1.878
30970W        W 3395   4.346  40.808   4.798
30971W        W 3396  39.880   7.751  12.884
30972W        W 3397   5.252  11.683   3.268
30973W        W 3398  25.978  33.893   4.192
30974W        W 3399  33.441   7.835   3.724
30975W        W 3400  24.154  19.565   4.808
30976W        W 3401  12.848  12.340  13.533
30977W        W 3402  39.891  19.060  14.765
30978W        W 3403  23.019  41.449  10.608
30979W        W 3404   8.724  37.356  11.884
30980W        W 3405  22.500  43.417  12.928
30981W        W 3406   8.884  13.198  13.366
30982W        W 3407  38.527  16.291   4.626
30983W        W 3408  20.047   8.833   4.714
30984W        W 3409  20.654  15.267   0.915
30985W        W 3410  42.315  35.535  11.465
30986W        W 3411  11.353   4.808  14.973
30987W        W 3412  39.812  38.018   0.457
30988W        W 3413   9.695  38.417   0.336
30989W        W 3414  29.598  10.217  12.404
30990W        W 3415   7.835  27.119   3.353
30991W        W 3416  19.145  20.733  13.990
30992W        W 3417  18.092  11.141  11.967
30993W        W 3418  13.605  15.797   1.395
30994W        W 3419  32.517  24.105   2.827
30995W        W 3420  44.445   2.787   3.741
30996W        W 3421  28.478  30.489   4.781
30997W        W 3422   4.868  23.689   1.242
30998W        W 3423  12.342  38.822   1.442
30999W        W 3424  15.323  15.774  14.458
31000W        W 3425  35.940   6.332   5.230
31001W        W 3426  19.653  41.961   3.380
31002W        W 3427  15.170  11.269   2.287
31003W        W 3428  38.997   2.305  12.978
31004W        W 3429  10.637  34.018  14.444
31005W        W 3430  13.609  36.908  10.586
31006W        W 3431   9.846  17.079   3.672
31007W        W 3432   1.369  19.669  13.335
31008W        W 3433  37.511   1.894  11.891
31009W        W 3434  37.845  43.871  10.639
31010W        W 3435  28.470  18.192  13.482
31011W        W 3436  22.998  41.031  14.328
31012W        W 3437  31.560  37.441   0.834
31013W        W 3438  33.607   2.865  12.998
31014W        W 3439  16.161   9.840   3.296
31015W        W 3440   0.416  35.374  14.976
31016W        W 3441  13.810  34.370   1.775
31017W        W 3442  37.044  14.325   2.271
31018W        W 3443  32.920  25.026   0.843
31019W        W 3444  38.832  38.484  12.502
31020W        W 3445   2.235   7.182  13.814
31021W        W 3446  43.789  36.585   4.732
31022W        W 3447   0.310  37.552  11.967
31023W        W 3448  21.093  28.486  10.977
31024W        W 3449  40.435   2.951   0.412
31025W        W 3450  14.608  40.531  12.349
31026W        W 3451  43.479  43.342   0.367
31027W        W 3452   0.803  35.561  12.900
31028W        W 3453   0.443  37.997   1.832
31029W        W 3454   7.870  10.659  10.514
31030W        W 3455  11.751   5.257  14.512
31031W        W 3456  18.776  30.579   0.333
31032W        W 3457  26.626  23.568  11.590
31033W        W 3458  17.145   8.657   1.866
31034W        W 3459   8.331  15.204   4.815
31035W        W 3460   1.833  10.638   4.808
31036W        W 3461  25.159  20.685  12.993
31037W        W 3462  14.174  12.259   2.688
31038W        W 3463  43.946  41.432  14.388
31039W        W 3464  38.350  36.410   2.185
31040W        W 3465  38.342  34.889  12.550
31041W        W 3466  31.996  29.041   2.338
31042W        W 3467  35.918  44.336   2.285
31043W        W 3468  20.062  36.439   2.347
31044W        W 3469  10.270  22.054  14.950
31045W        W 3470  43.335   4.832   4.625
31046W        W 3471   0.461  38.993   3.263
31047W        W 3472  23.707  13.315   2.384
31048W        W 3473  21.036  24.481  11.972
31049W        W 3474  11.735   9.817   0.406
31050W        W 3475  22.503  40.318  10.591
31051W        W 3476  42.414  21.693  13.467
31052W        W 3477  37.458   5.333   2.381
31053W        W 3478  32.448  43.806   0.253
31054W        W 3479   1.834  34.465  14.343
31055W        W 3480  26.202  33.451  10.517
31056W        W 3481  28.962  17.742   4.713
31057W        W 3482   7.825  14.710   0.828
31058W        W 3483  15.691  17.669   2.250
31059W        W 3484  15.787  25.518   3.673
31060W        W 3485  17.185   5.428  14.447
31061W        W 3486  42.910   8.303  13.985
31062W        W 3487   7.829  32.117   2.311
31063W        W 3488   5.713  24.505  10.892
31064W        W 3489  16.317  35.909  11.079
31065W        W 3490  11.773  43.399  10.602
31066W        W 3491   9.323  13.248   2.863
31067W        W 3492   6.833  26.697  12.027
31068W        W 3493  33.474  24.002  11.905
31069W        W 3494  12.724   8.881  11.027
31070W        W 3495   4.818  24.679   4.252
31071W        W 3496   1.240  28.585  10.629
31072W        W 3497  38.432  20.104  12.973
31073W        W 3498  10.198  13.329  13.436
31074W        W 3499   5.882  20.252   0.319
31075W        W 3500  43.829  33.576  10.599
31076W        W 3501  43.973  41.466  13.516
31077W        W 3502   3.918   0.938   0.460
31078W        W 3503  40.432  21.217  14.952
31079W        W 3504  23.624  26.506   1.216
31080W        W 3505   8.345  44.347   0.806
31081W        W 3506   6.767  14.785  13.916
31082W        W 3507  12.753  34.607   4.602
31083W        W 3508  12.160  21.574   4.633
31084W        W 3509  42.997  32.460  11.489
31085W        W 3510  29.040  29.137   1.212
31086W        W 3511  15.699   4.384  12.523
31087W        W 3512  35.519  27.471   0.328
31088W        W 3513  38.359  43.807  14.369
31089W        W 3514  23.037   8.165   4.142
31090W        W 3515  31.931   7.392  11.095
31091W        W 3516   2.350  19.283  11.476
31092W        W 3517  44.394  11.168  13.957
31093W        W 3518   0.263  16.717   2.268
31094W        W 3519  15.324  32.624  10.031
31095W        W 3520  17.290  36.584   3.178
31096W        W 3521  22.614  35.875  10.630
31097W        W 3522  33.621   5.384  12.068
31098W        W 3523  37.925  21.740  13.994
31099W        W 3524  24.500  29.587  11.550
31100W        W 3525  12.145  30.964   1.373
31101W        W 3526   0.302  25.539   2.374
31102W        W 3527  26.614  41.454   4.335
31103W        W 3528  26.137  41.929   2.325
31104W        W 3529  18.718   9.368   1.867
31105W        W 3530  33.532   4.344  10.512
31106W        W 3531   1.801  40.387   0.952
31107W        W 3532  19.133  43.278   1.212
31108W        W 3533  18.736  31.970   4.638
31109W        W 3534  20.051  32.931  10.593
31110W        W 3535   0.460  18.683   4.597
31111W        W 3536  41.887  32.581  11.981
31112W        W 3537  43.804  18.667  11.557
31113W        W 3538   0.384  22.622   3.650
31114W        W 3539  20.074  24.056   4.605
31115W        W 3540  12.130  11.310   0.346
31116W        W 3541  16.593   1.901   2.239
31117W        W 3542  25.596   8.208   4.770
31118W        W 3543   9.365  28.596   4.242
31119W        W 3544   9.259   5.720   4.696
31120W        W 3545  30.519   2.401  13.436
31121W        W 3546  34.091  10.140   2.796
31122W        W 3547  12.230   3.929  13.061
31123W        W 3548  39.492  10.357  10.579
31124W        W 3549  23.509  32.629  14.842
31125W        W 3550  43.879  18.238   2.879
31126W        W 3551  24.608  36.859   2.733
31127W        W 3552   7.783  39.962  10.501
31128W        W 3553  22.097   9.219   0.766
31129W        W 3554  25.495   5.281  14.367
31130W        W 3555  34.435  42.340   1.907
31131W        W 3556  22.697  31.441  13.949
31132W        W 3557  12.283   8.688  10.561
31133W        W 3558  11.764  43.863   2.791
31134W        W 3559  44.828  13.336  14.964
31135W        W 3560  25.115   4.922  12.387
31136W        W 3561  22.523  43.914  12.917
31137W        W 3562  11.737   2.784  14.987
31138W        W 3563  38.335  29.098   2.347
31139W        W 3564  19.198   7.752   2.313
31140W        W 3565   3.813  21.709   4.786
31141W        W 3566  17.303  33.470  14.304
31142W        W 3567  24.645  32.573   2.364
31143W        W 3568  43.428   1.969   2.294
31144W        W 3569   7.209  18.651   0.425
31145W        W 3570  18.054  24.117   3.302
31146W        W 3571  27.102  30.519   1.879
31147W        W 3572  21.245   5.202  14.805
31148W        W 3573  13.309  31.496  13.428
31149W        W 3574  28.057   0.836   1.781
31150W        W 3575  37.487   7.181   2.670
31151W        W 3576  42.031  20.591  12.444
31152W        W 3577   6.689  13.301  14.953
31153W        W 3578  14.779  24.642  12.907
31154W        W 3579  27.940  32.963   1.919
31155W        W 3580  15.162  28.149  11.946
31156W        W 3581  41.489  41.396  14.443
31157W        W 3582   0.775   6.316  11.069
31158W        W 3583  22.715   9.828  13.527
31159W        W 3584  22.668  26.134   2.178
31160W        W 3585   4.863  30.909   4.669
31161W        W 3586   1.371  33.438  13.508
31162W        W 3587  32.466  12.760   2.823
31163W        W 3588  33.923   0.333   3.850
31164W        W 3589  17.736  27.450   4.733
31165W        W 3590  44.480  35.602   1.825
31166W        W 3591   0.942  25.594   2.902
31167W        W 3592  19.224  41.507  11.937
31168W        W 3593  21.534  19.057   2.204
31169W        W 3594  16.624  34.518   5.685
31170W        W 3595  31.437  41.828  10.541
31171W        W 3596  14.305  29.540   0.954
31172W        W 3597  43.823  38.918  11.404
31173W        W 3598   8.211  20.733   3.768
31174W        W 3599  21.213  20.140  14.835
31175W        W 3600  23.140   5.897   2.340
31176W        W 3601   7.765  38.936   3.283
31177W        W 3602   5.316  44.846   3.178
31178W        W 3603  19.147  15.784   0.379
31179W        W 3604  30.513  29.061   4.688
31180W        W 3605  42.404   0.262   1.328
31181W        W 3606  11.205  40.016   3.786
31182W        W 3607  43.957   1.976   2.774
31183W        W 3608   4.728  36.494   0.862
31184W        W 3609   6.408  13.674  11.124
31185W        W 3610  22.220  17.123   3.837
31186W        W 3611  44.768  15.282  13.897
31187W        W 3612  36.370  14.297  12.539
31188W        W 3613  26.070   4.792   3.378
31189W        W 3614  15.692  17.736  12.393
31190W        W 3615  24.096  36.533   0.428
31191W        W 3616  31.611  24.124   4.223
31192W        W 3617   4.786  20.672  13.841
31193W        W 3618  22.634  41.884  11.041
31194W        W 3619  38.427   3.714  14.789
31195W        W 3620  15.274  42.339   2.845
31196W        W 3621  39.864  15.319  11.109
31197W        W 3622   6.350  35.976   2.724
31198W        W 3623  24.723  22.020  11.055
31199W        W 3624  32.605  25.067  10.967
31200W        W 3625  32.083  31.431  12.469
31201W        W 3626  26.952  13.684  14.949
31202W        W 3627  33.547  11.269   3.666
31203W        W 3628  15.806  39.900   4.609
31204W        W 3629   6.392  32.914  10.513
31205W        W 3630   4.447  41.980  11.030
31206W        W 3631  42.957  15.150  13.027
31207W        W 3632  12.852  16.794  10.952
31208W        W 3633  27.605  27.540   2.733
31209W        W 3634   6.736   7.886   1.398
31210W        W 3635  20.164  25.993   0.420
31211W        W 3636  42.003   0.833  12.418
31212W        W 3637  42.928  14.209   0.268
31213W        W 3638   0.454  17.078  11.497
31214W        W 3639  42.014  36.501  14.925
31215W        W 3640  18.633  10.317  13.943
31216W        W 3641   5.816  27.533   0.857
31217W        W 3642  30.990  40.018   4.229
31218W        W 3643  11.802  18.612   3.273
31219W        W 3644   9.355   0.809  13.485
31220W        W 3645  35.446  30.417  14.425
31221W        W 3646  38.012   1.853  13.970
31222W        W 3647  36.070  10.224   4.672
31223W        W 3648  16.577  43.305   4.712
31224W        W 3649  16.568  15.624  11.126
31225W        W 3650  33.094  28.028   3.146
31226W        W 3651  19.660  11.127  11.012
31227W        W 3652  30.583  13.842   1.398
31228W        W 3653   5.260   2.746  12.863
31229W        W 3654   8.761   5.427  14.394
31230W        W 3655  34.421  34.467   4.685
31231W        W 3656   0.919  18.168  13.845
31232W        W 3657   0.471  25.983   2.351
31233W        W 3658  23.055  17.711   1.883
31234W        W 3659  31.012  33.984  12.874
31235W        W 3660  12.628   6.910   3.236
31236W        W 3661  11.834  35.966   3.694
31237W        W 3662  33.410  24.084   3.834
31238W        W 3663   6.690  16.151  11.489
31239W        W 3664  26.078  17.658   3.326
31240W        W 3665   7.744  31.605   0.314
31241W        W 3666  43.273  41.937  14.469
31242W        W 3667  37.059  33.967   1.270
31243W        W 3668  25.990  35.593   3.644
31244W        W 3669  24.686  32.477  13.397
31245W        W 3670  27.600  40.473  12.914
31246W        W 3671  12.664  30.012   0.799
31247W        W 3672   4.217   5.806  10.458
31248W        W 3673  30.523  29.586  12.354
31249W        W 3674  39.940   3.400  13.975
31250W        W 3675  17.188  10.836  11.919
31251W        W 3676  14.176  35.074  12.516
31252W        W 3677  12.270   8.773   2.331
31253W        W 3678  18.165   0.322  11.400
31254W        W 3679  43.823  35.860  11.383
31255W        W 3680  20.269  42.383  12.396
31256W        W 3681  44.337  26.112  13.015
31257W        W 3682  43.404  21.192  10.052
31258W        W 3683  25.655  17.762  13.955
31259W        W 3684  36.581  37.488   1.782
31260W        W 3685  35.901  34.013   2.304
31261W        W 3686  34.486   7.248  12.987
31262W        W 3687  22.181  36.509  10.910
31263W        W 3688  12.123  31.498  12.903
31264W        W 3689  33.624  38.332   3.224
31265W        W 3690  39.516  11.767   1.796
31266W        W 3691  13.180  25.692  12.005
31267W        W 3692   1.746  11.184  11.377
31268W        W 3693  31.472  33.396  13.969
31269W        W 3694  35.009  26.067  10.889
31270W        W 3695  41.312   8.372   1.789
31271W        W 3696  14.707  28.558  14.009
31272W        W 3697   5.912  17.559  14.289
31273W        W 3698  39.825  35.604  14.770
31274W        W 3699  16.225  35.010   1.800
31275W        W 3700  30.970  23.102   4.167
31276W        W 3701  22.651   4.780   2.842
31277W        W 3702  10.814  13.714   1.277
31278W        W 3703  26.638  22.131  11.993
31279W        W 3704  12.154  33.488  11.900
31280W        W 3705  28.440  30.991  12.823
31281W        W 3706  23.223  40.477   0.440
31282W        W 3707  31.452   9.788  14.780
31283W        W 3708  16.072   2.959   2.798
31284W        W 3709  28.146   3.400  10.582
31285W        W 3710   2.826  18.256  11.868
31286W        W 3711  33.036  24.033  12.824
31287W        W 3712  30.984  41.446   5.730
31288W        W 3713   1.428  35.035  10.634
31289W        W 3714   5.320  33.882  11.883
31290W        W 3715  35.070  36.933   0.762
31291W        W 3716  20.582  30.992   3.709
31292W        W 3717  24.187  44.295  10.905
31293W        W 3718  29.544  43.327   1.910
31294W        W 3719  10.797  41.390  13.505
31295W        W 3720  31.941  31.977   0.416
31296W        W 3721  34.379  42.374   3.685
31297W        W 3722   0.795   2.898   0.250
31298W        W 3723  26.459   0.399  14.451
31299W        W 3724  44.446  17.623  12.503
31300W        W 3725  37.346  31.906   9.955
31301W        W 3726   4.250  11.301   4.689
31302W        W 3727  30.615  23.011  11.426
31303W        W 3728  11.790   6.417   1.724
31304W        W 3729  38.563  22.672  13.974
31305W        W 3730  12.180  42.872   4.727
31306W        W 3731  11.621  37.578   1.350
31307W        W 3732  20.028   1.822  11.959
31308W        W 3733   9.316  35.058  13.352
31309W        W 3734  17.751  27.096  12.416
31310W        W 3735  13.134   3.399   3.865
31311W        W 3736  31.575  18.216  11.067
31312W        W 3737  16.668  32.600   4.639
31313W        W 3738  42.969  33.032  11.125
31314W        W 3739  10.235  39.557   1.400
31315W        W 3740  41.823  21.603  11.979
31316W        W 3741  22.705  27.097  12.549
31317W        W 3742   0.412   4.396  14.758
31318W        W 3743  19.063   8.399  11.995
31319W        W 3744  18.649   2.860   3.345
31320W        W 3745  17.709  19.127  12.949
31321W        W 3746  41.455  31.513  12.500
31322W        W 3747   1.432  10.851  10.930
31323W        W 3748  26.571  29.452   1.410
31324W        W 3749  26.000  29.635  13.332
31325W        W 3750   0.424  20.743  12.845
31326W        W 3751  10.864  32.501   0.829
31327W        W 3752  36.423  34.007  14.288
31328W        W 3753  14.621  27.076  14.500
31329W        W 3754   3.215  36.365  12.501
31330W        W 3755  36.848   2.397  10.989
31331W        W 3756  31.483   0.489   1.829
31332W        W 3757   9.307  12.722  12.853
31333W        W 3758   9.663  11.176  12.097
31334W        W 3759  18.220  24.105  13.944
31335W        W 3760  25.700   3.925  14.337
31336W        W 3761   1.924   5.235  14.474
31337W        W 3762  10.212  29.159  12.405
31338W        W 3763  36.455   0.975   0.967
31339W        W 3764  18.649  13.280  10.531
31340W        W 3765   0.391  36.378   0.348
31341W        W 3766  37.468  11.129  13.447
31342W        W 3767  36.383  31.530   0.877
31343W        W 3768  38.425  21.166  12.554
31344W        W 3769  12.289  42.475   4.785
31345W        W 3770   5.897   1.973  11.429
31346W        W 3771  26.966  34.373   3.352
31347W        W 3772  40.818  10.138  13.460
31348W        W 3773  16.269  15.689  12.578
31349W        W 3774  24.026  44.470   3.155
31350W        W 3775   4.269  23.009  14.843
31351W        W 3776  24.582   9.167   3.636
31352W        W 3777  25.707  38.872  14.305
31353W        W 3778  27.493   8.750   3.765
31354W        W 3779  41.954   2.821  12.550
31355W        W 3780  43.918  25.572   2.207
31356W        W 3781  29.160  41.404  12.074
31357W        W 3782  14.675  12.292  10.511
31358W        W 3783  12.841  13.231   2.819
31359W        W 3784  21.703   4.825  12.498
31360W        W 3785   5.409  18.223   1.293
31361W        W 3786   1.912   0.313  11.534
31362W        W 3787  11.183  23.015  14.909
31363W        W 3788  41.531  29.546  12.053
31364W        W 3789  31.897  18.657   2.204
31365W        W 3790  29.571  10.711   0.296
31366W        W 3791  20.676  41.895   1.272
31367W        W 3792  35.865   6.862   2.404
31368W        W 3793  32.458  15.795   2.775
31369W        W 3794  28.506  23.634   1.221
31370W        W 3795   4.721  25.481   4.659
31371W        W 3796  44.929  18.275  12.392
31372W        W 3797  27.192  39.423  14.319
31373W        W 3798  16.076  23.241  11.046
31374W        W 3799  43.920   3.231   2.411
31375W        W 3800  35.904  32.465  11.495
31376W        W 3801  11.776  14.261  11.868
31377W        W 3802  31.993  21.214   3.373
31378W        W 3803  43.406  34.037   3.183
31379W        W 3804  15.606  14.808   3.664
31380W        W 3805  43.515  24.622   3.334
31381W        W 3806  15.605  40.420   1.810
31382W        W 3807  33.595  14.149  11.442
31383W        W 3808  25.624  10.298   3.754
31384W        W 3809  25.693  25.044   4.173
31385W        W 3810  36.966  44.799   4.283
31386W        W 3811   9.719  38.051  14.418
31387W        W 3812  39.018  11.782   0.358
31388W        W 3813   2.947  44.464  14.812
31389W        W 3814  39.332  41.316  11.411
31390W        W 3815   8.883  33.403   4.740
31391W        W 3816  34.552   1.243  12.981
31392W        W 3817  14.761  26.023  10.607
31393W        W 3818  20.050  14.231   1.903
31394W        W 3819  24.006  13.198   1.740
31395W        W 3820  30.526  33.130  10.618
31396W        W 3821  23.605  34.108   1.351
31397W        W 3822  33.447  44.864   2.675
31398W        W 3823  11.326  23.688  13.028
31399W        W 3824  25.697  29.494   3.269
31400W        W 3825   5.427  34.875   1.741
31401W        W 3826  39.432  34.425  12.352
31402W        W 3827  26.685  36.429  11.590
31403W        W 3828  37.923   0.942  11.574
31404W        W 3829   4.364  27.186  14.926
31405W        W 3830   8.170  43.765  13.022
31406W        W 3831  34.496   2.859   4.240
31407W        W 3832  33.518  15.229  12.022
31408W        W 3833   2.725  22.509  13.050
31409W        W 3834  11.690  10.815  10.408
31410W        W 3835  24.079  32.509  10.438
31411W        W 3836  10.298  31.988  13.831
31412W        W 3837   4.230  41.982   2.758
31413W        W 3838   9.200  32.467   4.342
31414W        W 3839  21.042   3.744   3.636
31415W        W 3840   5.253   3.734  11.967
31416W        W 3841  28.135  12.234  11.466
31417W        W 3842  12.639  25.164  12.960
31418W        W 3843  27.453  35.073   3.713
31419W        W 3844  23.121  43.348   4.128
31420W        W 3845  27.591  19.636   3.252
31421W        W 3846  37.547  33.982   4.283
31422W        W 3847  32.987  19.082   1.393
31423W        W 3848  13.721  35.953   1.442
31424W        W 3849  24.057   2.843   0.906
31425W        W 3850  24.186  24.219  14.770
31426W        W 3851  14.142   8.809   2.764
31427W        W 3852  42.789   4.327  11.095
31428W        W 3853  43.826  12.256   2.768
31429W        W 3854  33.974  30.999   2.898
31430W        W 3855  36.412  33.419   4.791
31431W        W 3856  20.558   3.815  11.101
31432W        W 3857  40.444  20.638   4.131
31433W        W 3858  34.416  28.677  11.999
31434W        W 3859  25.174   6.882   1.223
31435W        W 3860  35.556  42.858   4.154
31436W        W 3861  38.976  20.756  14.952
31437W        W 3862   0.769  11.805   0.813
31438W        W 3863  24.479   7.364  10.537
31439W        W 3864  15.600  42.394   3.183
31440W        W 3865  23.545   6.359   1.444
31441W        W 3866  36.898  32.896   0.890
31442W        W 3867  24.092  10.381  12.984
31443W        W 3868   9.847  21.072  13.471
31444W        W 3869   8.889  44.819   1.767
31445W        W 3870  10.343  15.758   5.216
31446W        W 3871  29.549  31.418  13.496
31447W        W 3872  32.617  33.400   0.335
31448W        W 3873  37.871   7.335   9.661
31449W        W 3874   0.399  16.267  10.447
31450W        W 3875  34.571  29.475  12.945
31451W        W 3876  24.128  18.224   3.344
31452W        W 3877  40.495  36.971   1.916
31453W        W 3878  20.637   1.841  13.842
31454W        W 3879  16.096   0.420   1.861
31455W        W 3880  11.660  18.611  14.901
31456W        W 3881  35.020  13.734   4.222
31457W        W 3882   2.373  38.487  10.588
31458W        W 3883  44.310  27.521  13.816
31459W        W 3884  21.123  23.558   3.677
31460W        W 3885   4.323  36.460   0.459
31461W        W 3886  21.550  33.544  12.981
31462W        W 3887  43.314  44.951  14.961
31463W        W 3888  37.892   7.235   0.344
31464W        W 3889  35.468   6.731  13.530
31465W        W 3890  19.716  17.295  13.382
31466W        W 3891  22.007  26.665  14.440
31467W        W 3892  21.527  22.131   1.333
31468W        W 3893   7.869  21.141   4.600
31469W        W 3894   1.292  21.122   4.709
31470W        W 3895  24.714   9.708   0.796
31471W        W 3896   4.841  29.002   1.413
31472W        W 3897  40.418   7.357   1.444
31473W        W 3898  36.040   0.330   1.772
31474W        W 3899  10.828  18.109  13.467
31475W        W 3900   5.903  43.966  12.880
31476W        W 3901  23.092  25.158   3.819
31477W        W 3902  16.186  15.677  13.469
31478W        W 3903  20.717  23.706   1.815
31479W        W 3904  35.526   2.325  14.905
31480W        W 3905  17.253  15.101   9.996
31481W        W 3906  13.251   4.337   3.752
31482W        W 3907  34.947   1.957  12.443
31483W        W 3908   5.702  14.206  11.112
31484W        W 3909  31.456  40.891   0.746
31485W        W 3910   1.393   0.375   3.279
31486W        W 3911   9.870  28.977  11.965
31487W        W 3912  30.553  40.003   3.640
31488W        W 3913  35.455  36.925   3.694
31489W        W 3914  16.813  15.794  12.057
31490W        W 3915  23.530  32.001   2.396
31491W        W 3916  43.493  34.025   2.413
31492W        W 3917  40.542  39.463   4.822
31493W        W 3918  35.910  13.764   2.272
31494W        W 3919  23.634  36.954   0.757
31495W        W 3920  44.465   3.299  13.330
31496W        W 3921  20.712  15.601   2.257
31497W        W 3922   7.687   5.310  12.472
31498W        W 3923  32.939   5.239  12.420
31499W        W 3924   0.916  33.921  10.894
31500W        W 3925  40.467  23.178  13.033
31501W        W 3926   4.865  27.583   1.918
31502W        W 3927   6.366  32.477  13.475
31503W        W 3928   5.880  36.911   4.173
31504W        W 3929  34.092  16.278   2.829
31505W        W 3930  32.497  33.936  12.474
31506W        W 3931  32.134  41.336  11.028
31507W        W 3932  42.821  36.438   1.883
31508W        W 3933  20.147  41.813   2.878
31509W        W 3934  19.229  29.503   4.249
31510W        W 3935  33.392  16.134  13.972
31511W        W 3936  25.550  29.482   4.235
31512W        W 3937  21.091   2.743  13.403
31513W        W 3938  12.790   3.869   0.856
31514W        W 3939   9.296  20.160  12.850
31515W        W 3940  28.508  29.154   4.715
31516W        W 3941  31.995  25.129   2.751
31517W        W 3942  13.238  17.174   4.162
31518W        W 3943  23.697  23.497   2.336
31519W        W 3944  43.789   6.378   4.769
31520W        W 3945  41.809   5.696  10.035
31521W        W 3946  12.635  30.503   3.746
31522W        W 3947  19.753   0.818  11.559
31523W        W 3948  34.490   4.290  14.941
31524W        W 3949  29.121  33.994   4.227
31525W        W 3950   3.869  17.247  12.533
31526W        W 3951   3.409  43.404  14.327
31527W        W 3952  17.629  37.369   3.385
31528W        W 3953  17.738  38.397   0.869
31529W        W 3954  17.569  17.266  10.045
31530W        W 3955  22.165   8.167  11.429
31531W        W 3956  22.064   6.348  13.790
31532W        W 3957   1.309  32.549   9.654
31533W        W 3958  18.712  39.026   0.354
31534W        W 3959  24.157  32.064  11.528
31535W        W 3960   1.316  11.633  10.582
31536W        W 3961   6.771  41.449  11.095
31537W        W 3962  35.008  43.356   3.193
31538W        W 3963  11.726  13.120   0.433
31539W        W 3964  24.217   8.367   4.187
31540W        W 3965  43.454  11.293   4.190
31541W        W 3966  18.662  15.663  12.532
31542W        W 3967  24.150   9.261   1.743
31543W        W 3968  12.319  44.903   3.860
31544W        W 3969   2.777  19.068   4.214
31545W        W 3970  23.120  43.293   0.963
31546W        W 3971   4.425   0.258  11.410
31547W        W 3972  28.090  14.753  10.476
31548W        W 3973  33.604  17.713  14.324
31549W        W 3974  15.771  26.526  11.927
31550W        W 3975  40.363  10.718   4.190
31551W        W 3976  28.140   5.341   4.703
31552W        W 3977  25.161  10.162   2.319
31553W        W 3978  20.034  31.987  13.988
31554W        W 3979  24.575   7.383   0.437
31555W        W 3980  24.702   7.416  12.405
31556W        W 3981  19.281  26.660   4.704
31557W        W 3982  17.305  14.765  14.842
31558W        W 3983  21.256  24.083  13.985
31559W        W 3984  15.203   1.350  10.442
31560W        W 3985  24.167  25.580  14.496
31561W        W 3986   5.425   9.810   1.426
31562W        W 3987  21.198   4.259   1.450
31563W        W 3988  35.361   2.466  12.447
31564W        W 3989  18.101  34.919  11.048
31565W        W 3990  41.988  10.157   4.328
31566W        W 3991  18.765  33.443  12.859
31567W        W 3992  17.065  18.292   2.229
31568W        W 3993  16.303   1.244   1.312
31569W        W 3994  35.939  44.364  14.002
31570W        W 3995  22.194   4.731  14.811
31571W        W 3996  14.329   3.459   0.423
31572W        W 3997  27.959  27.108   1.451
31573W        W 3998   0.257   2.860  10.936
31574W        W 3999   0.772  29.445  13.825
31575W        W 4000   1.480   2.921   1.288
31576W        W 4001  14.215   0.419   3.147
31577W        W 4002   9.391  13.113  13.389
31578W        W 4003  44.764  12.780  11.510
31579W        W 4004  19.566   2.734   0.808
31580W        W 4005  33.077  17.801   4.768
31581W        W 4006  25.119  11.791  10.627
31582W        W 4007  34.441   9.647   4.323
31583W        W 4008  22.245  38.350   2.771
31584W        W 4009  28.097  30.941   1.297
31585W        W 4010  11.364  15.327   0.932
31586W        W 4011  41.296   6.761  11.607
31587W        W 4012  43.405  20.159  14.955
31588W        W 4013  26.017   5.728  11.434
31589W        W 4014  31.546  33.463   4.271
31590W        W 4015  22.562  15.291   4.687
31591W        W 4016  18.641  34.098  11.909
31592W        W 4017  23.539  39.906   1.342
31593W        W 4018  13.283  43.395  13.033
31594W        W 4019  15.805  34.591   9.450
31595W        W 4020  38.391  41.867  12.559
31596W        W 4021  26.494  30.546   0.769
31597W        W 4022   9.696  23.650  14.907
31598W        W 4023   7.817  13.780  10.990
31599W        W 4024   3.754   9.815  13.357
31600W        W 4025  17.787  44.292   2.181
31601W        W 4026  37.902  37.385   0.341
31602W        W 4027  36.950  22.586   1.321
31603W        W 4028  35.984  30.984   1.297
31604W        W 4029  42.296  37.998   2.727
31605W        W 4030  42.452  10.636  11.997
31606W        W 4031   8.706   4.234  14.280
31607W        W 4032  25.627  19.139  10.455
31608W        W 4033  40.982  23.611  10.907
31609W        W 4034  25.635  36.867  12.448
31610W        W 4035   3.886  35.553   1.315
31611W        W 4036  14.702  20.099   4.132
31612W        W 4037  28.963   4.862   4.752
31613W        W 4038  10.737   2.857  12.501
31614W        W 4039  38.942   9.843  11.960
31615W        W 4040  12.737   5.879   2.198
31616W        W 4041  42.527  30.091   4.760
31617W        W 4042  31.531   9.208  13.827
31618W        W 4043  26.681  23.636   2.885
31619W        W 4044  15.121  13.724  12.486
31620W        W 4045   1.941  20.625  12.060
31621W        W 4046   2.720  17.157   0.349
31622W        W 4047  28.054  13.656  11.947
31623W        W 4048  38.497   4.895   1.363
31624W        W 4049  30.057  44.362   2.225
31625W        W 4050  19.148  14.776   4.186
31626W        W 4051  29.460  26.053   3.760
31627W        W 4052  23.022   8.715   0.346
31628W        W 4053   5.381  40.548  11.502
31629W        W 4054  35.450   6.751   5.289
31630W        W 4055  28.119  14.681  12.072
31631W        W 4056   2.374  35.556   2.805
31632W        W 4057  27.155   1.260   1.897
31633W        W 4058  18.784  42.984  13.540
31634W        W 4059  22.650  21.712  10.888
31635W        W 4060  14.241  44.466  14.317
31636W        W 4061  43.771   1.920  12.958
31637W        W 4062  41.878   6.853  12.450
31638W        W 4063  26.175  18.061   3.239
31639W        W 4064  26.114  31.074   3.765
31640W        W 4065   5.198   1.402   1.887
31641W        W 4066  23.646  15.200  10.446
31642W        W 4067  40.827   3.232   2.672
31643W        W 4068  39.921  30.457  11.484
31644W        W 4069  19.146  40.360   0.839
31645W        W 4070  17.199  24.005   3.303
31646W        W 4071  34.606  39.513  11.112
31647W        W 4072  15.604  17.652  14.881
31648W        W 4073  17.091  27.949  10.422
31649W        W 4074  18.759  38.946   0.736
31650W        W 4075   9.863  34.891  10.969
31651W        W 4076  21.533  13.199  10.544
31652W        W 4077   9.787  26.575  11.085
31653W        W 4078  27.648   4.365   0.760
31654W        W 4079  23.235  20.701  12.019
31655W        W 4080  16.285  35.573  10.638
31656W        W 4081  44.276  13.122   4.828
31657W        W 4082  15.634  36.912   4.255
31658W        W 4083  11.790  41.848   1.362
31659W        W 4084   0.360   5.290  12.501
31660W        W 4085  24.062  21.033   2.696
31661W        W 4086  15.701  20.729   0.948
31662W        W 4087  40.961  16.622  10.970
31663W        W 4088  24.041  27.076  13.475
31664W        W 4089  40.505   7.727  11.985
31665W        W 4090  13.338  23.000   4.132
31666W        W 4091   4.711  25.007  13.429
31667W        W 4092  21.678  15.596   1.858
31668W        W 4093  21.527  13.731  12.952
31669W        W 4094   9.283   0.474   2.412
31670W        W 4095   4.256  12.281   3.234
31671W        W 4096  33.038   5.715   1.707
31672W        W 4097  21.595  40.547   1.900
31673W        W 4098  34.531  33.978   4.787
31674W        W 4099  22.077  31.896  11.421
31675W        W 4100  20.567  35.474  14.416
31676W        W 4101  25.663   3.730   4.172
31677W        W 4102  35.537  32.114  10.414
31678W        W 4103  40.509  37.365  13.336
31679W        W 4104   5.862   8.188  11.025
31680W        W 4105  26.054  44.962  12.345
31681W        W 4106  35.931   4.887  12.859
31682W        W 4107  29.920  25.516   1.415
31683W        W 4108   1.297  20.177   0.935
31684W        W 4109  40.495  22.526   3.850
31685W        W 4110  29.038  33.129   4.698
31686W        W 4111   2.420   2.798  12.440
31687W        W 4112  18.651  30.015   4.804
31688W        W 4113  23.052  34.511   4.134
31689W        W 4114   2.770  35.993  11.010
31690W        W 4115  24.043  22.677  12.967
31691W        W 4116  15.704   4.384  13.055
31692W        W 4117   9.293  28.033  12.031
31693W        W 4118  16.100   6.860  13.401
31694W        W 4119  28.102   7.840  10.082
31695W        W 4120  41.487   2.871  14.869
31696W        W 4121   3.933  33.120  10.524
31697W        W 4122   9.315  14.650  11.535
31698W        W 4123  24.153  14.293   2.338
31699W        W 4124  28.536   7.745   2.340
31700W        W 4125  23.695  27.510  13.308
31701W        W 4126  29.480  28.672   0.285
31702W        W 4127  10.334  20.653  11.542
31703W        W 4128  25.205  41.867   1.356
31704W        W 4129  32.089  37.073   3.867
31705W        W 4130  26.474  12.734   3.286
31706W        W 4131  23.715  15.774   0.432
31707W        W 4132  33.432   8.815   4.620
31708W        W 4133  44.454  44.820   4.319
31709W        W 4134  34.480   9.390  10.609
31710W        W 4135   6.291  41.455  11.530
31711W        W 4136   9.870  44.861   4.622
31712W        W 4137  17.141  43.858  12.857
31713W        W 4138  16.739  23.041   4.282
31714W        W 4139  34.383   2.454   1.747
31715W        W 4140  38.911  12.157   2.684
31716W        W 4141   0.919  38.457   0.266
31717W        W 4142  18.061  10.256  12.885
31718W        W 4143  32.416  28.500  14.372
31719W        W 4144  11.723  30.616   2.191
31720W        W 4145  44.905  37.497   0.294
31721W        W 4146   8.213   1.329  12.884
31722W        W 4147  41.927  11.349  13.012
31723W        W 4148  31.416   1.420   2.875
31724W        W 4149  43.848  35.902  13.808
31725W        W 4150  28.024  34.111   9.993
31726W        W 4151  34.927  36.845  11.425
31727W        W 4152  16.603  40.831   4.801
31728W        W 4153  18.759  40.389  10.411
31729W        W 4154  41.887  27.946   0.864
31730W        W 4155  20.237  22.129   2.822
31731W        W 4156  11.140  36.893  14.881
31732W        W 4157  11.137   1.937  10.451
31733W        W 4158  25.477  39.897   2.419
31734W        W 4159  36.508  30.079   4.214
31735W        W 4160   5.866  24.496  12.968
31736W        W 4161   7.795  35.943   2.301
31737W        W 4162  25.662   6.200   3.686
31738W        W 4163  44.853  25.646  14.515
31739W        W 4164  43.008  16.269  12.976
31740W        W 4165   5.219  31.908   0.287
31741W        W 4166  31.517  17.257  12.843
31742W        W 4167  10.222  21.074  11.418
31743W        W 4168   7.280  28.137  12.997
31744W        W 4169  29.553   3.363  10.118
31745W        W 4170  23.224   5.356  11.985
31746W        W 4171   1.238  33.028  13.919
31747W        W 4172  36.969  36.582   0.312
31748W        W 4173  19.110  10.214   1.713
31749W        W 4174   6.403   4.252  11.498
31750W        W 4175  17.560   8.804  14.854
31751W        W 4176  43.436  10.767  10.998
31752W        W 4177  37.051  21.212  12.076
31753W        W 4178  43.778  33.623   0.334
31754W        W 4179  16.304  35.553   9.525
31755W        W 4180  37.371  11.202   4.142
31756W        W 4181   8.379   1.433  14.353
31757W        W 4182  19.605  25.589  14.938
31758W        W 4183   0.321  24.211   4.352
31759W        W 4184   1.948  35.072  13.374
31760W        W 4185  28.137  16.742  12.469
31761W        W 4186  44.490  21.613   2.733
31762W        W 4187  44.394  23.027   1.243
31763W        W 4188  12.318  17.247   2.757
31764W        W 4189  25.204   2.838   3.813
31765W        W 4190  44.289   7.178   2.814
31766W        W 4191  38.473   2.325  12.532
31767W        W 4192  44.501   0.972  12.421
31768W        W 4193  15.110  39.002  10.920
31769W        W 4194  35.059  10.774   3.351
31770W        W 4195  39.853  21.566   5.680
31771W        W 4196  30.464   0.807  14.969
31772W        W 4197  40.820   5.209   3.178
31773W        W 4198  15.607  44.335   3.829
31774W        W 4199  18.630  17.123  14.351
31775W        W 4200  16.171  17.597   0.300
31776W        W 4201  22.550   1.844   1.847
31777W        W 4202  31.913  16.209  12.500
31778W        W 4203   7.366  28.168   0.886
31779W        W 4204   5.352  37.510   4.751
31780W        W 4205  42.812  42.873  13.864
31781W        W 4206  43.917  40.506  14.309
31782W        W 4207  29.597  39.810   3.293
31783W        W 4208   1.372  13.843   0.749
31784W        W 4209  44.344  27.097   2.818
31785W        W 4210  44.266  13.605  12.962
31786W        W 4211  28.119  11.282  11.451
31787W        W 4212  28.653   3.370  11.956
31788W        W 4213  13.812  41.873  12.044
31789W        W 4214   8.822  37.579  10.571
31790W        W 4215  32.894  16.298  12.891
31791W        W 4216  42.997  16.720  12.913
31792W        W 4217  31.913  18.098  14.437
31793W        W 4218  15.249   2.799  14.311
31794W        W 4219   7.359   3.432   0.939
31795W        W 4220  43.883  42.021   1.893
31796W        W 4221  15.095  11.199  14.993
31797W        W 4222  23.052  24.052  12.480
31798W        W 4223  12.614  28.665  14.983
31799W        W 4224  16.215  24.224  10.540
31800W        W 4225   6.368   1.808  12.352
31801W        W 4226  24.647  21.124   1.371
31802W        W 4227   0.913   7.209  12.339
31803W        W 4228  39.849  36.459   0.354
31804W        W 4229  10.206   1.811  12.521
31805W        W 4230  14.277   6.812  14.799
31806W        W 4231   9.319   6.678   4.613
31807W        W 4232  38.526   7.195   1.820
31808W        W 4233  13.250  38.493  14.991
31809W        W 4234  12.277  28.124  12.551
31810W        W 4235  31.990   9.757   4.803
31811W        W 4236  33.879  18.757   0.762
31812W        W 4237   2.426   9.770   0.296
31813W        W 4238  13.743  34.402   1.236
31814W        W 4239   3.811  16.103   2.211
31815W        W 4240  35.089  38.352   4.809
31816W        W 4241   2.411  31.998  10.966
31817W        W 4242  25.050  21.741  12.882
31818W        W 4243  20.268  39.487  11.604
31819W        W 4244  20.554  25.540   4.205
31820W        W 4245  27.622  19.219   3.641
31821W        W 4246   2.313  43.500  14.790
31822W        W 4247  32.120   6.807   3.867
31823W        W 4248  28.543  22.548  11.388
31824W        W 4249   3.424  21.151   2.181
31825W        W 4250  34.409  17.102  11.498
31826W        W 4251  16.275  44.781   4.225
31827W        W 4252  41.415  20.576   2.870
31828W        W 4253  42.016   8.290  11.031
31829W        W 4254  15.123  18.242   0.403
31830W        W 4255  42.504  39.970   3.378
31831W        W 4256  14.693  24.603   1.761
31832W        W 4257  22.697  13.152  12.842
31833W        W 4258  23.638  18.580  14.786
31834W        W 4259   5.413  23.165  11.473
31835W        W 4260  27.993  39.953  12.897
31836W        W 4261  25.135  24.504  12.064
31837W        W 4262  32.089   9.789   0.466
31838W        W 4263  42.875   6.368  13.880
31839W        W 4264   3.315  13.618  12.529
31840W        W 4265  29.081  29.548   4.304
31841W        W 4266   2.271  41.953   4.776
31842W        W 4267  27.163  16.166   3.860
31843W        W 4268  14.188  15.112   1.435
31844W        W 4269   4.781  25.650  13.976
31845W        W 4270  27.613  32.944   1.742
31846W        W 4271  15.120  11.304  12.091
31847W        W 4272  13.269  40.886   4.692
31848W        W 4273  32.516  35.425   1.734
31849W        W 4274  15.168   7.684   2.241
31850W        W 4275  18.080  37.511  10.459
31851W        W 4276  21.044  29.659  13.348
31852W        W 4277   4.417  11.165   2.184
31853W        W 4278   3.215  30.422  11.485
31854W        W 4279   9.692  16.730  10.987
31855W        W 4280  32.085  22.649  14.976
31856W        W 4281  12.317   2.780   0.376
31857W        W 4282  17.213  33.956   0.275
31858W        W 4283   9.171  14.614   2.664
31859W        W 4284   3.450  28.031   1.344
31860W        W 4285  19.137   9.217   2.849
31861W        W 4286  25.084  21.638  13.843
31862W        W 4287   6.290  44.275   4.677
31863W        W 4288  39.826  40.881  14.437
31864W        W 4289  40.975  18.179   0.771
31865W        W 4290  11.739  26.464   3.816
31866W        W 4291  18.747  28.440  11.441
31867W        W 4292  15.715  44.908  14.878
31868W        W 4293  15.309  22.552   4.821
31869W        W 4294  27.055  25.183   3.347
31870W        W 4295  10.196  38.470  13.450
31871W        W 4296  39.354  44.343   4.129
31872W        W 4297  36.001   6.779   3.342
31873W        W 4298  35.393  40.805   0.465
31874W        W 4299  21.230  16.236  11.048
31875W        W 4300  41.889   6.793  10.637
31876W        W 4301  16.593  42.832  12.436
31877W        W 4302  36.388  26.533  11.403
31878W        W 4303  43.926  27.470   4.629
31879W        W 4304  28.001  21.592  13.486
31880W        W 4305  31.083   4.351   0.864
31881W        W 4306   3.820  15.164  11.503
31882W        W 4307  11.638  43.863  14.449
31883W        W 4308  15.258  38.410   2.796
31884W        W 4309  24.182  23.046  12.930
31885W        W 4310   3.258  13.724   2.288
31886W        W 4311  32.008   7.283   3.381
31887W        W 4312  36.969   3.378   0.743
31888W        W 4313   4.911  22.117  14.302
31889W        W 4314   7.821  44.479  12.469
31890W        W 4315  25.598  43.908   1.725
31891W        W 4316  31.048  22.222  11.860
31892W        W 4317  28.609   9.343   2.393
31893W        W 4318  16.754  39.548   1.919
31894W        W 4319   3.949  12.227  12.367
31895W        W 4320  41.472  32.917   1.360
31896W        W 4321   2.928  20.731  13.310
31897W        W 4322  43.838  11.715  13.829
31898W        W 4323  35.592  44.397   2.863
31899W        W 4324  31.483  32.493  14.856
31900W        W 4325  38.057  14.600  12.361
31901W        W 4326   3.890   2.896   0.282
31902W        W 4327  28.676  13.107   2.848
31903W        W 4328   7.687  21.604  11.606
31904W        W 4329  44.480  17.081   4.726
31905W        W 4330  13.638   6.812  11.566
31906W        W 4331   9.864  44.476  13.486
31907W        W 4332  36.063   4.876   4.132
31908W        W 4333  43.841  36.391   2.850
31909W        W 4334   5.198   2.365   2.729
31910W        W 4335  38.569  12.328   2.891
31911W        W 4336  33.527  44.007  12.858
31912W        W 4337  40.955  40.344  12.450
31913W        W 4338  13.683  42.951  13.911
31914W        W 4339  20.627  44.971  10.516
31915W        W 4340  31.549  10.260  11.933
31916W        W 4341  31.056  29.628  14.964
31917W        W 4342  33.123  41.409  13.906
31918W        W 4343  27.187  37.873  14.967
31919W        W 4344  15.630  26.165  13.982
31920W        W 4345  36.554   1.339   1.211
31921W        W 4346  33.982  15.190  12.579
31922W        W 4347  15.741  13.808  14.291
31923W        W 4348  15.247  35.957   1.393
31924W        W 4349  15.800  42.353   2.273
31925W        W 4350  10.683   3.915  14.394
31926W        W 4351  38.038  40.965  14.842
31927W        W 4352  28.674  31.939   0.356
31928W        W 4353  38.957  42.432  13.497
31929W        W 4354   5.882  33.545  10.912
31930W        W 4355   6.215  22.640  10.531
31931W        W 4356  36.553  22.078  13.545
31932W        W 4357  11.145  24.074   5.220
31933W        W 4358  16.709  14.147  12.961
31934W        W 4359   6.712  37.339  13.889
31935W        W 4360  17.644   5.325   3.730
31936W        W 4361  34.990  16.277  12.856
31937W        W 4362  31.132  17.731  13.382
31938W        W 4363   0.340  28.043   4.295
31939W        W 4364   0.388   6.724  11.896
31940W        W 4365  32.954   1.838  12.092
31941W        W 4366  35.510  33.442   2.737
31942W        W 4367  30.942  38.488   0.483
31943W        W 4368  21.234  11.830  13.362
31944W        W 4369  37.419  22.593  10.560
31945W        W 4370  43.323  41.426  13.454
31946W        W 4371   2.767   2.783  13.866
31947W        W 4372  33.046   4.931   3.300
31948W        W 4373  43.329  32.559  12.095
31949W        W 4374  32.961  17.104  11.118
31950W        W 4375  12.315  41.865   4.728
31951W        W 4376   3.265   7.675   1.859
31952W        W 4377  31.983  28.465   1.252
31953W        W 4378  13.742   4.396   2.392
31954W        W 4379  42.799  15.183  11.956
31955W        W 4380  15.689  10.381   2.418
31956W        W 4381  44.273  40.898  13.450
31957W        W 4382  38.894   5.229  12.028
31958W        W 4383  32.069  25.098  10.422
31959W        W 4384  40.389  22.731  12.554
31960W        W 4385  42.362   0.890  12.885
31961W        W 4386  29.109  24.584   2.864
31962W        W 4387  36.904   0.748  14.446
31963W        W 4388  34.043  13.330  11.000
31964W        W 4389  29.103  13.740  11.487
31965W        W 4390   5.372  42.882   0.843
31966W        W 4391   3.803  22.998  14.415
31967W        W 4392  35.857  42.851   4.714
31968W        W 4393   6.208   8.886   2.195
31969W        W 4394  44.898  40.432   3.837
31970W        W 4395  39.444  22.168   0.726
31971W        W 4396   1.901  19.267  11.909
31972W        W 4397  38.535  35.499   0.867
31973W        W 4398   7.409   9.212   0.247
31974W        W 4399  38.505  32.447  13.055
31975W        W 4400   3.339  28.024   4.768
31976W        W 4401  14.121  36.078   1.425
31977W        W 4402  21.209  31.063  13.497
31978W        W 4403  15.654   2.786   2.403
31979W        W 4404  15.649  29.538   0.868
31980W        W 4405  26.461  25.564   2.223
31981W        W 4406  24.110  24.718   2.266
31982W        W 4407  14.114  29.137   4.208
31983W        W 4408  20.152  41.917  12.420
31984W        W 4409  19.045   5.338   1.333
31985W        W 4410  41.336  28.060  11.863
31986W        W 4411   4.748  13.695  12.353
31987W        W 4412  43.821  20.600  14.994
31988W        W 4413  32.402  35.365   1.277
31989W        W 4414  15.703  38.920  11.443
31990W        W 4415  37.914  29.113   1.298
31991W        W 4416  30.515  41.861   2.699
31992W        W 4417  11.130  43.406  13.362
31993W        W 4418  17.190   5.349  13.967
31994W        W 4419  34.565  39.356  10.554
31995W        W 4420   7.177   7.416  11.918
31996W        W 4421  31.584   4.724  13.822
31997W        W 4422  13.350  13.188  13.952
31998W        W 4423  17.107  35.398  11.501
31999W        W 4424  16.106  38.963   4.315
32000W        W 4425  22.194  30.118   2.760
32001W        W 4426  41.491  42.442   1.316
32002W        W 4427  36.949   6.695   3.711
32003W        W 4428  14.119   2.261   1.358
32004W        W 4429  18.674  30.539   1.873
32005W        W 4430   2.790  42.965  11.937
32006W        W 4431  33.447  13.235  14.764
32007W        W 4432  44.803   5.388   0.283
32008W        W 4433  23.107  20.137  13.930
32009W        W 4434  32.392  17.570   4.182
32010W        W 4435  41.534  10.690   1.828
32011W        W 4436  18.708  33.431   1.845
32012W        W 4437  26.590   0.959  10.407
32013W        W 4438  27.686  14.757  12.382
32014W        W 4439  15.775   0.383  12.544
32015W        W 4440  39.859  17.159   4.310
32016W        W 4441  44.278  13.802  10.509
32017W        W 4442  23.080  39.912  14.280
32018W        W 4443  21.120   8.682  12.522
32019W        W 4444  25.197   7.268  12.014
32020W        W 4445  32.448  31.939  13.883
32021W        W 4446  38.018  14.267  14.905
32022W        W 4447  42.290  11.193   1.369
32023W        W 4448  43.412  42.498   0.741
32024W        W 4449   8.901  14.140  11.584
32025W        W 4450  24.689  23.060  10.424
32026W        W 4451  32.500  32.471   0.728
32027W        W 4452  19.537  14.122   0.354
32028W        W 4453  42.907  27.462   3.302
32029W        W 4454  18.686   1.890   1.852
32030W        W 4455   2.327  12.770  10.132
32031W        W 4456  22.190  27.136  11.512
32032W        W 4457  41.426  27.074  14.925
32033W        W 4458  26.519  10.836   4.256
32034W        W 4459   9.697  38.073   2.234
32035W        W 4460   2.876  17.294  12.904
32036W        W 4461  33.048   8.725  11.888
32037W        W 4462  16.700  26.488  13.329
32038W        W 4463  37.037  43.836  12.986
32039W        W 4464  18.731  26.993   4.199
32040W        W 4465   6.283  23.534  12.529
32041W        W 4466  32.097  19.179  11.916
32042W        W 4467  27.636  31.614  11.966
32043W        W 4468  22.537  42.457  11.550
32044W        W 4469  14.757  20.107  14.290
32045W        W 4470  40.370  33.937   2.360
32046W        W 4471  13.190  24.123   0.847
32047W        W 4472  21.097  23.626   0.935
32048W        W 4473  15.731  23.734  13.537
32049W        W 4474   7.821   6.355  14.902
32050W        W 4475  39.328  40.435  12.402
32051W        W 4476  29.537  44.757  14.432
32052W        W 4477  10.842  11.140  11.065
32053W        W 4478  12.701  21.185   1.714
32054W        W 4479   4.841  23.528  10.904
32055W        W 4480  36.408  33.020  10.473
32056W        W 4481   3.354  37.999  12.540
32057W        W 4482   0.762  28.058  11.610
32058W        W 4483  10.262   7.220  11.856
32059W        W 4484   2.915   7.769   2.241
32060W        W 4485   6.357  37.377  11.962
32061W        W 4486  17.242  16.114   1.324
32062W        W 4487  15.673  44.887   0.408
32063W        W 4488  25.568  36.540  13.056
32064W        W 4489  41.923  15.211   4.649
32065W        W 4490  34.054  36.413   4.803
32066W        W 4491  14.286   9.797   3.301
32067W        W 4492   8.674  15.314  11.007
32068W        W 4493  42.001   7.746   3.788
32069W        W 4494  10.231  34.914  14.385
32070W        W 4495  32.548  24.623  14.843
32071W        W 4496   7.820  14.319  11.101
32072W        W 4497  43.503  38.872   3.262
32073W        W 4498   5.866  23.989   0.747
32074W        W 4499   6.411  14.312   4.340
32075W        W 4500  18.122  14.628   4.675
32076W        W 4501  29.047  22.202   3.373
32077W        W 4502   8.884  27.450  14.884
32078W        W 4503   6.846   0.895  11.457
32079W        W 4504  21.755  27.116  13.489
32080W        W 4505  23.073  30.573  11.065
32081W        W 4506   8.845   5.908  12.557
32082W        W 4507  30.479  20.581  14.503
32083W        W 4508  43.837  22.640   2.678
32084W        W 4509  15.220  21.740  11.030
32085W        W 4510  19.267  37.044   1.733
32086W        W 4511  35.075   7.884  11.014
32087W        W 4512  41.473  13.635   3.821
32088W        W 4513  14.628  32.083  11.561
32089W        W 4514  36.406  34.470  11.489
32090W        W 4515  15.590   7.266   0.358
32091W        W 4516  42.007  24.225   4.312
32092W        W 4517  25.025  15.257   1.246
32093W        W 4518  21.672   7.243   0.952
32094W        W 4519  14.157  11.714   3.186
32095W        W 4520   2.326  14.680   0.949
32096W        W 4521  32.505  41.383  13.477
32097W        W 4522  22.699   2.358  12.387
32098W        W 4523  23.058  27.649   0.745
32099W        W 4524   9.702  31.438  14.782
32100W        W 4525   3.247  33.543  10.627
32101W        W 4526  39.884  36.499  12.930
32102W        W 4527  25.029  34.037   1.377
32103W        W 4528   1.380   4.848  11.583
32104W        W 4529   3.419  25.172  14.013
32105W        W 4530  33.953  20.731  12.039
32106W        W 4531   6.872  31.533  10.931
32107W        W 4532  39.320   6.265   3.196
32108W        W 4533  41.961  16.762   4.830
32109W        W 4534  13.837  43.872   1.287
32110W        W 4535  16.738  30.979   3.162
32111W        W 4536   8.319  20.208  12.557
32112W        W 4537  11.844  11.838  13.914
32113W        W 4538  11.768  11.734   4.152
32114W        W 4539  16.613   4.735   0.281
32115W        W 4540  17.103   7.718  11.987
32116W        W 4541   0.813   0.406  13.326
32117W        W 4542  26.075  31.597  11.595
32118W        W 4543  19.603  12.787  12.376
32119W        W 4544  28.535  24.480   3.293
32120W        W 4545  16.163  24.578  12.068
32121W        W 4546  44.890  24.542   4.223
32122W        W 4547   1.925  38.432  10.615
32123W        W 4548   5.751  42.804   3.794
32124W        W 4549  15.128  10.816  14.941
32125W        W 4550  40.467  20.582  11.106
32126W        W 4551   6.196  43.959   1.829
32127W        W 4552   1.792   5.853   1.774
32128W        W 4553   8.706  19.052  11.911
32129W        W 4554  14.179  20.572   1.901
32130W        W 4555   3.439   8.684  14.493
32131W        W 4556  35.363   3.404  13.381
32132W        W 4557   6.706   8.710   2.384
32133W        W 4558   0.346   2.403   0.785
32134W        W 4559  32.588  32.523   1.902
32135W        W 4560  44.349  22.678   2.272
32136W        W 4561  16.800  24.639  13.500
32137W        W 4562  24.671  30.037  12.436
32138W        W 4563  25.626  41.494  14.410
32139W        W 4564  10.293  17.753   4.246
32140W        W 4565  12.755  21.521  10.511
32141W        W 4566  11.353   3.824  14.782
32142W        W 4567  39.934  16.622   2.206
32143W        W 4568  29.061   9.721  11.428
32144W        W 4569  15.197   7.307  10.421
32145W        W 4570  27.472  35.460  12.896
32146W        W 4571   6.192  40.898  14.994
32147W        W 4572   6.751   6.898  13.854
32148W        W 4573  28.959  15.726   4.274
32149W        W 4574  36.574  10.264   1.296
32150W        W 4575   8.203  20.724  12.836
32151W        W 4576  42.493  34.393  13.391
32152W        W 4577  24.621   2.778  14.024
32153W        W 4578   1.957  14.643   2.858
32154W        W 4579  28.623   8.316  10.510
32155W        W 4580  21.522  43.349  12.904
32156W        W 4581  27.158  32.043  10.080
32157W        W 4582  29.477  31.051   0.434
32158W        W 4583  29.995   8.825   1.419
32159W        W 4584  42.972  24.216  14.423
32160W        W 4585   0.927  16.316  13.392
32161W        W 4586  20.039  33.085  10.998
32162W        W 4587  21.742   8.887   4.133
32163W        W 4588  21.170  22.069  13.393
32164W        W 4589   8.311  30.515  10.969
32165W        W 4590  20.759  36.429   0.289
32166W        W 4591  38.875  17.620   1.696
32167W        W 4592  18.736  38.911   2.685
32168W        W 4593  39.417  19.699  13.030
32169W        W 4594  33.062  34.482   3.827
32170W        W 4595   4.241  13.688  10.506
32171W        W 4596  11.203   5.201  14.999
32172W        W 4597  30.652  30.061   0.362
32173W        W 4598   6.216   0.814  12.985
32174W        W 4599  12.698  12.816  12.549
32175W        W 4600  14.671  36.093   1.300
32176W        W 4601   4.351  14.275   2.286
32177W        W 4602  36.974   9.293   2.732
32178W        W 4603  40.965   5.352   0.779
32179W        W 4604   4.340   4.288  10.509
32180W        W 4605   1.775  26.504   4.787
32181W        W 4606  19.680  33.619   4.186
32182W        W 4607  28.458  27.613  10.451
32183W        W 4608  42.872  12.657   1.832
32184W        W 4609  15.710  24.486  10.436
32185W        W 4610  39.533  35.444   4.319
32186W        W 4611  39.065   5.239   0.467
32187W        W 4612  34.464  41.406   2.289
32188W        W 4613   5.839  42.890  11.016
32189W        W 4614   0.394   0.262   3.287
32190W        W 4615  33.488  31.901  12.460
32191W        W 4616   4.372  27.608  14.975
32192W        W 4617  15.260  21.122  10.893
32193W        W 4618  21.610   5.768  12.452
32194W        W 4619  18.131  17.128  14.427
32195W        W 4620  24.211  41.450  10.599
32196W        W 4621  35.003  14.262  14.919
32197W        W 4622  41.854  30.101   1.279
32198W        W 4623  11.823   7.799   3.775
32199W        W 4624  30.482  34.388   4.265
32200W        W 4625  17.607   6.379   1.435
32201W        W 4626  33.545  32.093   4.152
32202W        W 4627  31.946  40.815  10.917
32203W        W 4628  35.065  19.047   1.743
32204W        W 4629   1.361  12.263   1.859
32205W        W 4630  38.351  42.828  14.439
32206W        W 4631  43.983  34.079  13.989
32207W        W 4632  31.009  31.488   2.405
32208W        W 4633   6.368  19.640   2.359
32209W        W 4634  39.533  17.718  10.583
32210W        W 4635  12.781   7.235  12.071
32211W        W 4636  32.633  27.638  11.006
32212W        W 4637  41.797   9.291  12.341
32213W        W 4638  32.083  24.189   1.804
32214W        W 4639  38.922  33.590  12.556
32215W        W 4640  13.700   3.860   0.461
32216W        W 4641  35.567  30.912  14.795
32217W        W 4642  27.992  35.496   0.435
32218W        W 4643  20.121  27.081   3.344
32219W        W 4644  19.720  24.604  10.590
32220W        W 4645  25.121  27.163  12.949
32221W        W 4646  40.373  23.646   2.371
32222W        W 4647  15.675  24.536  14.295
32223W        W 4648  36.966  16.252   2.772
32224W        W 4649   9.157   1.974  14.285
32225W        W 4650  18.190  44.440   0.956
32226W        W 4651  24.721  23.667   0.860
32227W        W 4652  23.181  40.509   3.710
32228W        W 4653  29.452   1.281  11.493
32229W        W 4654  31.473  36.954   4.766
32230W        W 4655  30.138  29.083  11.972
32231W        W 4656  18.606   6.771  14.304
32232W        W 4657  10.286   4.391   4.723
32233W        W 4658  21.170  15.642  11.887
32234W        W 4659  10.842  36.523  13.502
32235W        W 4660  42.006  36.020   2.759
32236W        W 4661  15.257  28.455   4.264
32237W        W 4662  14.240  31.562   2.242
32238W        W 4663  16.610  36.854   0.365
32239W        W 4664  21.576  29.594   3.712
32240W        W 4665  23.032  43.850  13.826
32241W        W 4666  17.561   9.852   1.243
32242W        W 4667   3.377  24.014  13.481
32243W        W 4668  36.876  16.198  14.954
32244W        W 4669  43.812  25.548   3.288
32245W        W 4670  13.193   6.390  13.999
32246W        W 4671   7.854  38.900  12.913
32247W        W 4672   7.879  37.836   1.790
32248W        W 4673  36.396  27.940   2.725
32249W        W 4674   5.354  35.042  10.620
32250W        W 4675  36.531   4.759   0.384
32251W        W 4676  14.231  16.131  12.501
32252W        W 4677  11.762  32.899   0.394
32253W        W 4678  31.973  44.380   4.810
32254W        W 4679  11.309  19.191  11.374
32255W        W 4680  38.400  14.254  12.564
32256W        W 4681   5.247   1.830   5.290
32257W        W 4682  27.457  42.365  12.389
32258W        W 4683  13.623  37.346  10.034
32259W        W 4684  25.214  22.707   4.708
32260W        W 4685  23.672  42.425  11.572
32261W        W 4686  11.640   3.842  11.998
32262W        W 4687   4.424  42.431  10.638
32263W        W 4688  43.332   5.412  11.963
32264W        W 4689  21.606  43.935  13.527
32265W        W 4690  32.138   0.304   0.371
32266W        W 4691  11.207  40.424   3.677
32267W        W 4692  14.728   5.879   0.296
32268W        W 4693  32.566  13.710  12.513
32269W        W 4694  15.204   7.396  12.360
32270W        W 4695  27.161  16.239   0.895
32271W        W 4696  12.166  19.152  10.895
32272W        W 4697   8.715  23.988   1.871
32273W        W 4698   8.162  33.955   0.416
32274W        W 4699  14.676  10.370   2.257
32275W        W 4700  21.590  44.380  10.896
32276W        W 4701  24.633  29.647   0.738
32277W        W 4702  33.595   4.777   1.445
32278W        W 4703  27.196  30.577   3.268
32279W        W 4704  25.577  17.193   1.896
32280W        W 4705  26.619  17.785   1.765
32281W        W 4706  24.577  19.240  13.402
32282W        W 4707   7.883  34.493   2.686
32283W        W 4708  37.906  15.597  13.808
32284W        W 4709   3.312   9.200  13.057
32285W        W 4710   9.690  36.591   4.833
32286W        W 4711   3.747  36.550  13.971
32287W        W 4712  26.999  28.452   1.776
32288W        W 4713  39.820  38.366   3.353
32289W        W 4714   8.348  42.473  14.783
32290W        W 4715  15.661  30.570   2.854
32291W        W 4716   0.938  34.480   1.349
32292W        W 4717  43.904  26.667  11.405
32293W        W 4718  20.057  38.456  12.905
32294W        W 4719  17.202  13.693   1.400
32295W        W 4720  22.532  34.471   1.823
32296W        W 4721  28.092   6.773   3.733
32297W        W 4722  11.207  24.636   5.150
32298W        W 4723  16.235   5.904  14.860
32299W        W 4724  25.018   4.743  14.994
32300W        W 4725  40.904  33.581   1.259
32301W        W 4726   6.217   1.467   0.849
32302W        W 4727  29.999  16.170  14.308
32303W        W 4728  17.142  35.482  14.381
32304W        W 4729  13.602  43.956  12.371
32305W        W 4730   4.234  16.709  10.935
32306W        W 4731  33.061  25.620   3.283
32307W        W 4732  19.678  24.561   3.214
32308W        W 4733  32.020  14.264  14.877
32309W        W 4734  32.633  43.879   1.706
32310W        W 4735  33.111   6.203  11.969
32311W        W 4736   8.859  34.978   2.887
32312W        W 4737  25.525  26.579   0.463
32313W        W 4738  16.175  14.307   0.403
32314W        W 4739  24.143  25.133  13.856
32315W        W 4740   4.393  13.154  10.538
32316W        W 4741  20.208  32.093   5.120
32317W        W 4742  15.748   3.364   4.669
32318W        W 4743  19.653   6.252  12.433
32319W        W 4744   7.691   6.305  11.029
32320W        W 4745  38.334  37.571   4.326
32321W        W 4746  22.158  33.625  12.023
32322W        W 4747  14.336   3.455  11.417
32323W        W 4748   1.755  18.672  12.869
32324W        W 4749  21.073   7.412   0.442
32325W        W 4750  27.163  44.400  12.534
32326W        W 4751  39.998  12.239   2.827
32327W        W 4752  13.116  41.864  11.448
32328W        W 4753  23.569  39.967  12.030
32329W        W 4754  40.429  39.031  14.387
32330W        W 4755  29.129  10.865   2.224
32331W        W 4756  18.552   8.384   0.250
32332W        W 4757  25.698   3.722   4.789
32333W        W 4758  34.518  32.008  12.929
32334W        W 4759  24.720  22.048   4.699
32335W        W 4760  25.535  36.415  11.082
32336W        W 4761  43.785  19.153   1.900
32337W        W 4762  19.592  25.991  14.305
32338W        W 4763  18.198   9.243   2.837
32339W        W 4764  23.201  18.723   2.296
32340W        W 4765  11.839  42.480  14.367
32341W        W 4766  44.906  29.047   1.896
32342W        W 4767  27.042  25.143   2.189
32343W        W 4768  28.008  44.431   2.862
32344W        W 4769  39.001  26.504  14.970
32345W        W 4770   0.481  18.141  10.615
32346W        W 4771  39.323   1.391   2.865
32347W        W 4772  22.161  32.955  13.397
32348W        W 4773  37.418  11.683  10.630
32349W        W 4774  29.050  23.696  10.062
32350W        W 4775  21.036  36.466   2.363
32351W        W 4776  29.096  29.464  11.034
32352W        W 4777  27.082  31.140   3.348
32353W        W 4778  38.936  16.318  14.976
32354W        W 4779  40.828   8.743  10.617
32355W        W 4780  34.874  23.986   1.882
32356W        W 4781  29.646  21.620   4.805
32357W        W 4782  14.186  33.611  11.979
32358W        W 4783  16.658  33.118  14.511
32359W        W 4784  10.324   9.175   3.677
32360W        W 4785  14.627  18.616  11.484
32361W        W 4786  24.722  27.982  14.807
32362W        W 4787  36.885  44.967  11.484
32363W        W 4788  15.211  21.106   2.305
32364W        W 4789  39.049  20.535  12.058
32365W        W 4790  17.253   6.727  12.975
32366W        W 4791  27.557  25.177   5.164
32367W        W 4792  20.724  21.548   2.185
32368W        W 4793  18.261  38.044  10.946
32369W        W 4794   3.294  24.659   4.828
32370W        W 4795   6.271  35.369   0.962
32371W        W 4796  31.910  11.241   9.982
32372W        W 4797   3.829  12.837   0.833
32373W        W 4798   3.403  26.137  14.015
32374W        W 4799  40.323  36.896  11.428
32375W        W 4800   7.882  39.021   4.156
32376W        W 4801  41.885  41.873  10.641
32377W        W 4802  31.559  39.990  14.444
32378W        W 4803  23.568  11.818  12.871
32379W        W 4804  40.843  36.053  12.564
32380W        W 4805  22.621   5.933  14.808
32381W        W 4806  32.468  32.115  14.926
32382W        W 4807   1.761  30.556  11.400
32383W        W 4808  18.725   5.199  13.519
32384W        W 4809  44.811  18.273  14.420
32385W        W 4810  20.567   6.238   2.692
32386W        W 4811  11.797   8.757  13.920
32387W        W 4812   6.808  18.677  12.570
32388W        W 4813  13.651  42.283  11.513
32389W        W 4814   0.985  23.567  11.046
32390W        W 4815   5.877  30.160  10.594
32391W        W 4816  21.116  25.116   0.939
32392W        W 4817  13.805  14.167  11.568
32393W        W 4818  39.484  44.315  10.562
32394W        W 4819  37.465  25.051  13.864
32395W        W 4820  38.512  12.794  14.479
32396W        W 4821   3.255   0.989  14.932
32397W        W 4822   2.310  25.185   3.765
32398W        W 4823  28.055   4.785   0.750
32399W        W 4824  37.023   8.335  13.527
32400W        W 4825  24.603  14.339   4.154
32401W        W 4826   0.348  32.481  13.973
32402W        W 4827  29.964   0.408   4.807
32403W        W 4828  23.148  11.217  10.947
32404W        W 4829  22.999  11.140  14.999
32405W        W 4830  22.041  29.174  14.855
32406W        W 4831  19.717  31.045   3.864
32407W        W 4832  15.218  33.568  11.405
32408W        W 4833  44.999  24.722   0.369
32409W        W 4834   2.808  10.771  14.957
32410W        W 4835  32.090   8.776   4.343
32411W        W 4836   7.174  38.337   3.720
32412W        W 4837  42.931   0.460   3.685
32413W        W 4838  32.425  13.153  13.031
32414W        W 4839   3.817  20.270   1.712
32415W        W 4840  41.305   6.400   0.884
32416W        W 4841  11.151   8.814  13.314
32417W        W 4842  11.717   3.298   0.467
32418W        W 4843   7.876  29.965   1.447
32419W        W 4844  27.588  44.967   4.788
32420W        W 4845  38.551  40.378  11.864
32421W        W 4846  28.603  41.803  12.978
32422W        W 4847   8.722  36.371  12.509
32423W        W 4848  20.749   4.259   0.876
32424W        W 4849  13.685  22.205   5.208
32425W        W 4850  13.116  44.283   1.234
32426W        W 4851  36.894  33.900  14.866
32427W        W 4852  43.408  35.502   1.737
32428W        W 4853  22.565  41.872  13.890
32429W        W 4854  34.555  27.595   4.313
32430W        W 4855  16.600   0.754   1.929
32431W        W 4856  30.137  24.582  11.422
32432W        W 4857  14.214  23.652   1.415
32433W        W 4858  24.541  39.371  10.621
32434W        W 4859  37.490   8.772   4.261
32435W        W 4860  41.940  26.605   4.808
32436W        W 4861  33.080   1.335  11.122
32437W        W 4862  15.105  26.495   1.243
32438W        W 4863   1.437  20.247   2.894
32439W        W 4864  12.773  21.597   0.329
32440W        W 4865  24.545   0.881   1.306
32441W        W 4866  13.695  12.747  14.371
32442W        W 4867  15.701  34.074   3.285
32443W        W 4868  36.564  27.987   4.731
32444W        W 4869   2.399   8.188   2.350
32445W        W 4870   4.398   3.372  13.799
32446W        W 4871  37.361  19.643   0.284
32447W        W 4872  33.490  44.463  14.353
32448W        W 4873  40.917  19.680   1.906
32449W        W 4874  27.089   5.903   3.813
32450W        W 4875  11.303  40.939  13.881
32451W        W 4876  10.766   4.934  12.088
32452W        W 4877   2.833  36.850   3.312
32453W        W 4878  23.066  22.638  12.028
32454W        W 4879  38.405  23.227  13.874
32455W        W 4880  37.938  30.470   3.747
32456W        W 4881  17.109   6.201   4.182
32457W        W 4882   3.301  26.633   0.858
32458W        W 4883  36.878   0.300  11.528
32459W        W 4884  18.697   5.201  11.562
32460W        W 4885  31.642   4.225  14.850
32461W        W 4886  36.946  10.249   2.312
32462W        W 4887  14.199  26.077  12.407
32463W        W 4888   0.858  14.168   3.807
32464W        W 4889  28.061  16.674   3.212
32465W        W 4890  36.384  15.229  13.314
32466W        W 4891  26.123  42.990   3.366
32467W        W 4892  30.944  26.099   3.217
32468W        W 4893  28.515  16.160  14.897
32469W        W 4894  31.149   5.815  13.505
32470W        W 4895  29.603  20.697   0.925
32471W        W 4896  38.950   7.267   4.700
32472W        W 4897  21.244  34.084  10.463
32473W        W 4898  11.698  20.709   3.717
32474W        W 4899  22.514  32.921  13.342
32475W        W 4900  14.309  29.453  13.345
32476W        W 4901   9.267   6.283  11.416
32477W        W 4902  33.108  18.073   0.893
32478W        W 4903   7.790  30.579  11.954
32479W        W 4904  24.098   8.366   1.694
32480W        W 4905  28.600   7.686  12.569
32481W        W 4906  43.340  27.954  14.962
32482W        W 4907  25.034  40.306   3.149
32483W        W 4908  43.916  36.549   2.313
32484W        W 4909   5.749   9.383  13.846
32485W        W 4910  29.430  15.600  12.368
32486W        W 4911  20.559  32.053   4.248
32487W        W 4912  28.461  27.660   2.259
32488W        W 4913   9.659  33.113  11.381
32489W        W 4914   9.783  39.388  14.026
32490W        W 4915  43.015  30.003   1.343
32491W        W 4916  40.485  34.498  14.331
32492W        W 4917  18.693   6.376   1.339
32493W        W 4918  17.087  26.603  10.477
32494W        W 4919  11.263  21.739  10.643
32495W        W 4920  12.211  38.942   3.754
32496W        W 4921  37.499  17.777   0.351
32497W        W 4922   7.252   9.738   1.779
32498W        W 4923   4.363  27.552  14.462
32499W        W 4924   3.221  32.599   3.632
32500W        W 4925  16.240  23.594   1.410
32501W        W 4926  38.841  43.483   2.722
32502W        W 4927  26.170  33.061  11.393
32503W        W 4928  36.347  22.702  14.900
32504W        W 4929  34.877  17.070  10.952
32505W        W 4930  26.955  14.631  13.435
32506W        W 4931  25.081  15.642  11.117
32507W        W 4932  36.048  24.570  14.293
32508W        W 4933  14.232  23.660   3.266
32509W        W 4934  10.709  12.825  12.003
32510W        W 4935   4.826  37.339   2.825
32511W        W 4936   2.952  10.832   2.255
32512W        W 4937   7.182  30.104   4.693
32513W        W 4938  14.132  42.796   2.749
32514W        W 4939  25.548  27.161   0.840
32515W        W 4940  28.480  22.516   3.232
32516W        W 4941   2.912  42.345   4.234
32517W        W 4942   7.896  13.110  11.482
32518W        W 4943  37.403  39.024   5.245
32519W        W 4944  26.627  44.847   4.279
32520W        W 4945  40.353  11.779   3.700
32521W        W 4946  25.706  33.938   1.708
32522W        W 4947  38.420  23.656   1.788
32523W        W 4948  15.153  26.573  13.471
32524W        W 4949  43.352  35.863  10.942
32525W        W 4950  38.350   0.842  11.913
32526W        W 4951  20.192  29.942  10.552
32527W        W 4952  21.256  26.514   1.773
32528W        W 4953  39.956  38.434  13.026
32529W        W 4954  41.359  39.046  11.968
32530W        W 4955  15.310  16.623  14.439
32531W        W 4956  16.568   6.798  11.550
32532W        W 4957  21.126  33.487   2.870
32533W        W 4958  32.478  11.724  11.516
32534W        W 4959  14.773  22.023   1.774
32535W        W 4960  44.401  14.638   3.655
32536W        W 4961  27.594   6.879   1.388
32537W        W 4962  25.053  17.062   5.082
32538W        W 4963   9.339  36.435   4.601
32539W        W 4964   1.422   7.667   3.695
32540W        W 4965  16.608   2.906  10.434
32541W        W 4966  38.983  31.899  13.889
32542W        W 4967  44.840   6.344  11.562
32543W        W 4968  13.627  34.074  11.926
32544W        W 4969  28.998  11.133  11.509
32545W        W 4970  13.324  37.466   2.798
32546W        W 4971  33.396   7.395  14.808
32547W        W 4972  40.389  21.624  10.998
32548W        W 4973  40.311  37.456  11.926
32549W        W 4974  30.053  19.153   1.443
32550W        W 4975  10.319  43.909   4.790
32551W        W 4976  18.204  44.373   3.752
32552W        W 4977  32.124  12.816  12.072
32553W        W 4978  13.822  12.151  11.048
32554W        W 4979  40.463  13.792  14.392
32555W        W 4980  11.634  11.709   4.613
32556W        W 4981   0.814   0.790   4.740
32557W        W 4982  23.541  20.711   4.746
32558W        W 4983  21.177   1.884   3.669
32559W        W 4984  23.007  25.057  11.599
32560W        W 4985  18.282   6.260   1.422
32561W        W 4986   3.376   9.356  14.515
32562W        W 4987   4.752  35.385  14.766
32563W        W 4988  42.835  18.615   3.766
32564W        W 4989  32.090   6.405   5.260
32565W        W 4990  31.600  23.497   9.499
32566W        W 4991  24.677  12.157  12.083
32567W        W 4992   1.880   4.942  14.364
32568W        W 4993  20.650   7.829   1.368
32569W        W 4994  30.025  17.077   2.730
32570W        W 4995  38.393  28.649  13.913
32571W        W 4996  35.095  27.641   1.702
32572W        W 4997  31.123   8.722   1.722
32573W        W 4998  20.192  39.377  12.890
32574W        W 4999  26.634   1.427  10.533
32575W        W 5000   4.890  13.792  11.946
32576W        W 5001  35.449  23.135  11.947
32577W        W 5002  29.425  12.144  11.481
32578W        W 5003   4.941  27.466   3.376
32579W        W 5004  10.801  36.443  14.497
32580W        W 5005  26.595  27.461   4.702
32581W        W 5006  43.451   2.255   2.724
32582W        W 5007  15.202  33.003  12.851
32583W        W 5008  42.900  24.556   1.412
32584W        W 5009  12.138   7.264   0.758
32585W        W 5010  31.004  38.940  10.959
32586W        W 5011  23.503   4.733   1.349
32587W        W 5012   5.803  14.792  13.898
32588W        W 5013   9.196  15.814  10.419
32589W        W 5014  18.636  44.818  11.410
32590W        W 5015   3.312  19.273   3.358
32591W        W 5016   6.895  37.062   2.714
32592W        W 5017  28.674  17.558  10.468
32593W        W 5018  18.173  26.126   3.323
32594W        W 5019  43.924  16.145   1.335
32595W        W 5020   8.305  14.724  11.374
32596W        W 5021  11.331  20.757   0.250
32597W        W 5022  19.652   0.379   0.429
32598W        W 5023   9.685  34.968  10.537
32599W        W 5024  19.083  31.606   2.271
32600W        W 5025  10.252  18.247  12.944
32601W        W 5026  40.050  44.763  12.895
32602W        W 5027  26.643  18.648   1.308
32603W        W 5028  14.705  22.732  13.994
32604W        W 5029  24.569  33.587   3.178
32605W        W 5030  21.570  42.865   3.241
32606W        W 5031  44.471  44.288   1.935
32607W        W 5032  17.744   1.428  10.429
32608W        W 5033   7.339  35.603  12.899
32609W        W 5034  36.421   6.723   1.222
32610W        W 5035  25.668  20.197  13.024
32611W        W 5036  42.444  42.416   1.853
32612W        W 5037  27.663  29.489   4.707
32613W        W 5038  21.067  33.972   3.184
32614W        W 5039  15.311   6.417  11.398
32615W        W 5040  16.172  23.524  12.860
32616W        W 5041  17.093  13.614  13.492
32617W        W 5042  38.843  38.931  13.902
32618W        W 5043  16.194  44.287   1.694
32619W        W 5044  13.637  16.318   3.291
32620W        W 5045  27.549   7.852  10.989
32621W        W 5046  37.907   8.320   9.948
32622W        W 5047   6.740  38.446   1.350
32623W        W 5048  20.588  26.984   1.845
32624W        W 5049  39.324  37.016   0.960
32625W        W 5050  20.638   2.940  12.852
32626W        W 5051  11.774  32.950  13.472
32627W        W 5052  16.299  16.192  10.945
32628W        W 5053  21.162   2.252   4.148
32629W        W 5054  11.631  29.612  14.335
32630W        W 5055  12.117   1.473   4.139
32631W        W 5056  14.189   4.797   3.791
32632W        W 5057  26.103  37.345   2.662
32633W        W 5058  34.118  21.640  13.362
32634W        W 5059   6.880   3.330  12.563
32635W        W 5060   1.778   3.284  10.144
32636W        W 5061  13.705  21.543   0.434
32637W        W 5062  29.963  27.509  14.974
32638W        W 5063  12.220  35.080   4.269
32639W        W 5064  36.940   8.813  10.585
32640W        W 5065   3.777  19.279  10.506
32641W        W 5066   5.344  26.109   2.778
32642W        W 5067  30.024  24.118  11.977
32643W        W 5068  39.495  44.870  14.500
32644W        W 5069  28.039  36.997  13.499
32645W        W 5070  39.932  11.734  11.909
32646W        W 5071  19.699  36.447  14.397
32647W        W 5072  39.322   9.842   3.787
32648W        W 5073  11.769   8.833   5.274
32649W        W 5074  42.394  12.734  12.871
32650W        W 5075  17.705   2.361   3.743
32651W        W 5076  37.388   4.728   3.761
32652W        W 5077  17.672  19.631  14.300
32653W        W 5078  19.597  16.792   4.208
32654W        W 5079   8.763   1.972   0.255
32655W        W 5080  18.277  12.734  14.015
32656W        W 5081  13.192  18.714  12.984
32657W        W 5082  13.833  28.942   0.254
32658W        W 5083  32.028  33.901   1.440
32659W        W 5084   9.154   7.225  14.337
32660W        W 5085  35.424   1.902   3.838
32661W        W 5086  20.199  16.251   2.348
32662W        W 5087  30.933  22.577  12.382
32663W        W 5088  35.058  29.117  13.527
32664W        W 5089  13.717  36.365  13.464
32665W        W 5090  34.043   6.696   4.729
32666W        W 5091  33.416  34.872  12.577
32667W        W 5092  39.462  37.392   0.355
32668W        W 5093  37.466   9.715  13.886
32669W        W 5094  17.071  31.402  12.986
32670W        W 5095  18.167  24.155  14.932
32671W        W 5096  17.140   7.286   4.679
32672W        W 5097   4.365  12.689  11.379
32673W        W 5098   2.241  36.066   2.389
32674W        W 5099  38.059   7.881   4.161
32675W        W 5100  41.528   1.458  13.454
32676W        W 5101   5.822  43.325   3.837
32677W        W 5102   3.713  36.874  13.928
32678W        W 5103  30.636  12.687  13.412
32679W        W 5104  42.900  12.319   2.832
32680W        W 5105  43.861  25.030   2.301
32681W        W 5106  34.562  44.355   0.366
32682W        W 5107  24.163   0.876   9.954
32683W        W 5108   0.749  42.833   0.287
32684W        W 5109   0.820  19.073  12.988
32685W        W 5110   1.476  15.254   3.739
32686W        W 5111   5.321  39.982  13.317
32687W        W 5112  36.974  35.038  11.896
32688W        W 5113  30.133   1.787  12.012
32689W        W 5114  34.117  32.423   2.733
32690W        W 5115  40.987   9.298  12.493
32691W        W 5116  30.464  15.762   3.801
32692W        W 5117  33.554   7.695   4.117
32693W        W 5118  38.433  13.211  11.111
32694W        W 5119  15.154  34.966   0.937
32695W        W 5120  28.639  31.617   0.914
32696W        W 5121  43.796  39.837  10.948
32697W        W 5122  39.020   8.310   3.218
32698W        W 5123  35.384  39.553   1.914
32699W        W 5124  13.136  19.244  12.040
32700W        W 5125  29.603  12.209  13.347
32701W        W 5126  38.936  31.929  13.035
32702W        W 5127  16.288  29.498   1.286
32703W        W 5128  31.897  15.119  14.811
32704W        W 5129  24.994   5.292   0.370
32705W        W 5130  19.254  10.708  12.887
32706W        W 5131  13.701  16.752  11.903
32707W        W 5132  16.696   4.855  12.025
32708W        W 5133  13.196   1.476  12.000
32709W        W 5134  34.078   8.754  14.507
32710W        W 5135  36.434  10.748  13.927
32711W        W 5136  21.262  35.930  12.380
32712W        W 5137  10.238  23.230   0.775
32713W        W 5138  11.828  17.295  14.772
32714W        W 5139   9.681  27.089  13.853
32715W        W 5140  43.806  38.912  13.060
32716W        W 5141  40.839  25.682  13.917
32717W        W 5142  26.176  30.494   2.856
32718W        W 5143  37.007  27.122  12.479
32719W        W 5144  41.365  10.262   1.267
32720W        W 5145   6.197  17.600   0.270
32721W        W 5146   3.895  40.363  14.394
32722W        W 5147  33.469   8.761   5.123
32723W        W 5148   0.400  44.801   0.878
32724W        W 5149  37.083   5.227  12.979
32725W        W 5150   0.393  10.228  12.347
32726W        W 5151  13.323  41.504  14.896
32727W        W 5152  29.005   0.305  13.320
32728W        W 5153  38.397   4.732  12.425
32729W        W 5154  23.510  27.488  13.838
32730W        W 5155  20.056   0.895  14.330
32731W        W 5156  15.760   5.336  12.904
32732W        W 5157  13.683  12.820   1.712
32733W        W 5158  29.451  21.737  13.839
32734W        W 5159  10.655  33.885  10.432
32735W        W 5160  12.147   5.276   2.285
32736W        W 5161  11.681   2.910   3.325
32737W        W 5162  43.293  11.852   1.227
32738W        W 5163   0.310   3.713   2.255
32739W        W 5164  14.635  27.064  11.509
32740W        W 5165  10.834  36.931   2.887
32741W        W 5166  34.067  38.910  13.891
32742W        W 5167  11.710  42.838  11.906
32743W        W 5168  11.290  28.663  10.453
32744W        W 5169  13.312  42.346  12.836
32745W        W 5170   5.202   1.441   0.728
32746W        W 5171  20.641  31.939   3.178
32747W        W 5172  28.939  24.547   4.803
32748W        W 5173   4.272  10.694   3.239
32749W        W 5174  39.912  13.183   2.374
32750W        W 5175  40.933   2.240  14.795
32751W        W 5176   3.837  24.500  12.543
32752W        W 5177  12.846  30.063  14.864
32753W        W 5178  18.708  35.026   0.929
32754W        W 5179  37.002  44.452  14.952
32755W        W 5180   4.793  14.606   3.384
32756W        W 5181   7.345   6.411  14.322
32757W        W 5182  19.190   1.854   1.373
32758W        W 5183  38.487  36.526  14.910
32759W        W 5184  26.552  13.121  10.954
32760W        W 5185  21.720   3.219   2.224
32761W        W 5186  36.407   8.218   3.307
32762W        W 5187  15.144  42.296   1.741
32763W        W 5188  17.306  25.507   4.234
32764W        W 5189  16.197  17.596  13.454
32765W        W 5190  17.580  44.877   2.210
32766W        W 5191  43.481  21.756  14.414
32767W        W 5192  12.630  15.679  13.507
32768W        W 5193  29.626  20.699  14.938
32769W        W 5194  44.367  20.222  14.299
32770W        W 5195  27.626   0.880  14.995
32771W        W 5196  18.698  32.597  11.041
32772W        W 5197   6.291   9.710   2.782
32773W        W 5198  39.373  18.110  11.117
32774W        W 5199  20.107   5.717   1.394
32775W        W 5200  18.776   2.270   0.287
32776W        W 5201  33.973  37.484   0.811
32777W        W 5202  37.083  29.083  12.039
32778W        W 5203  29.022  13.710   0.839
32779W        W 5204  29.641  21.633   4.325
32780W        W 5205  23.573  27.663  11.909
32781W        W 5206  13.719  14.112  13.314
32782W        W 5207  25.070  32.088   9.513
32783W        W 5208  43.019  42.384   2.824
32784W        W 5209  38.857  17.094  10.534
32785W        W 5210  42.319  16.269  11.000
32786W        W 5211  16.777  19.602  14.786
32787W        W 5212   4.377  11.748   4.185
32788W        W 5213  15.086  33.536   5.308
32789W        W 5214   1.473  29.528  13.863
32790W        W 5215  31.570   3.949   0.804
32791W        W 5216  38.948   5.288   2.197
32792W        W 5217   1.936  37.039   4.757
32793W        W 5218  44.916  14.703   3.827
32794W        W 5219  18.641   6.808  11.081
32795W        W 5220  17.707  29.031   4.640
32796W        W 5221  20.756  39.474  11.015
32797W        W 5222   6.314  21.153  11.515
32798W        W 5223  26.186  31.550  11.858
32799W        W 5224   0.382  32.513  10.947
32800W        W 5225  24.171   8.780   4.721
32801W        W 5226  20.103   4.383   4.172
32802W        W 5227  36.463  21.536   2.233
32803W        W 5228  13.326   1.322  14.006
32804W        W 5229  16.092  19.099   2.712
32805W        W 5230  23.566   3.724  10.602
32806W        W 5231  25.685  14.273  10.574
32807W        W 5232  33.974  29.024  13.975
32808W        W 5233  37.492   2.388   4.352
32809W        W 5234  21.551   0.847   1.441
32810W        W 5235  34.926  34.056  11.999
32811W        W 5236   6.839   2.375   3.818
32812W        W 5237   0.464  44.894  12.027
32813W        W 5238  29.568  20.629   1.391
32814W        W 5239   1.480  25.575   2.811
32815W        W 5240  37.535  37.575  10.528
32816W        W 5241  17.062  18.595   1.721
32817W        W 5242  24.099   4.414   2.697
32818W        W 5243  19.166  17.088   1.226
32819W        W 5244   2.373  35.935   2.802
32820W        W 5245   2.825   4.249   2.340
32821W        W 5246   0.399  18.566   0.451
32822W        W 5247  23.692  29.992   2.808
32823W        W 5248   4.804  11.256  10.147
32824W        W 5249  42.897   4.372  10.513
32825W        W 5250  38.866  36.439  13.485
32826W        W 5251  32.908  23.585   1.727
32827W        W 5252   3.728  34.879   2.295
32828W        W 5253   7.670  11.199   2.762
32829W        W 5254  15.640  10.148  14.455
32830W        W 5255  24.088  40.021  11.087
32831W        W 5256   5.707  19.045   3.654
32832W        W 5257   2.801  37.058  13.982
32833W        W 5258  14.126  16.766   0.278
32834W        W 5259  32.452  22.113   4.320
32835W        W 5260  22.722  19.607  14.795
32836W        W 5261  25.500   1.784  11.893
32837W        W 5262   0.371  35.074  14.860
32838W        W 5263   6.856  25.173   3.832
32839W        W 5264  37.544  14.127   1.851
32840W        W 5265   6.699   4.387   3.290
32841W        W 5266  13.308  23.686  10.621
32842W        W 5267  21.581  40.930  12.389
32843W        W 5268   4.868  41.944   2.205
32844W        W 5269  44.870  30.063   4.202
32845W        W 5270  18.769  16.801   4.762
32846W        W 5271   1.338   4.271  12.367
32847W        W 5272  43.854   8.707   4.600
32848W        W 5273  41.811  41.874   4.710
32849W        W 5274  22.656  22.558   2.831
32850W        W 5275   6.763  29.506  13.500
32851W        W 5276  31.913  18.775  11.563
32852W        W 5277  22.629  37.496   9.947
32853W        W 5278  34.393   8.273   2.329
32854W        W 5279  20.565  16.136  10.532
32855W        W 5280  30.162  20.036   2.209
32856W        W 5281   7.295  26.068   3.368
32857W        W 5282  16.294  26.114   4.312
32858W        W 5283  17.691  37.528   2.738
32859W        W 5284  13.681  30.503   2.259
32860W        W 5285  19.760   3.455  14.312
32861W        W 5286   6.853   1.464  14.002
32862W        W 5287   8.747   8.771  10.573
32863W        W 5288   5.791  12.279   0.764
32864W        W 5289  22.707   1.415   2.708
32865W        W 5290  15.733  37.513  14.409
32866W        W 5291  12.342   1.265  14.819
32867W        W 5292  43.314  31.401   4.713
32868W        W 5293  38.476  44.877  13.424
32869W        W 5294  23.184  44.434   4.166
32870W        W 5295   9.799  19.198   0.274
32871W        W 5296  39.350  34.607  13.801
32872W        W 5297  40.948  30.422  11.945
32873W        W 5298  23.679  14.711   3.226
32874W        W 5299  32.401  24.597   0.727
32875W        W 5300  34.485  44.411   3.224
32876W        W 5301  12.242  44.361   4.296
32877W        W 5302  26.586  17.802  11.967
32878W        W 5303   0.812  14.118  14.914
32879W        W 5304   1.293  30.057  14.489
32880W        W 5305   3.218  19.689   2.195
32881W        W 5306   2.876  26.665   2.301
32882W        W 5307  31.611  43.418   0.343
32883W        W 5308  24.581  32.045  10.992
32884W        W 5309  12.826  24.195  13.455
32885W        W 5310  40.363   9.744  13.044
32886W        W 5311  29.056  11.177   3.208
32887W        W 5312  13.824   8.782  14.825
32888W        W 5313   5.334   4.886   2.190
32889W        W 5314   0.454  31.456   5.647
32890W        W 5315  12.212  12.743  14.801
32891W        W 5316  23.602  23.008  12.972
32892W        W 5317  28.931  15.233  12.844
32893W        W 5318  34.074  10.367  10.641
32894W        W 5319  14.285  17.199   2.790
32895W        W 5320  42.796  38.521   3.766
32896W        W 5321  14.314  15.666   2.700
32897W        W 5322  29.032  31.576   2.826
32898W        W 5323  41.390  40.040  12.889
32899W        W 5324  19.562  43.358  14.393
32900W        W 5325   1.475  19.614  13.959
32901W        W 5326   5.311  24.567   3.658
32902W        W 5327  22.077  29.156  10.447
32903W        W 5328   0.924  33.005   2.250
32904W        W 5329  44.279   2.468   1.862
32905W        W 5330  39.986  18.671  13.531
32906W        W 5331  21.705   2.886  14.882
32907W        W 5332  10.235   3.724   2.397
32908W        W 5333  13.280   7.785   2.759
32909W        W 5334  12.709  31.418   4.204
32910W        W 5335  36.530  19.736  13.888
32911W        W 5336  32.469  42.952   2.238
32912W        W 5337  18.613  29.542  12.035
32913W        W 5338  41.898  25.067  10.553
32914W        W 5339  12.747   0.928   0.301
32915W        W 5340  20.033  27.568   2.669
32916W        W 5341  36.486  29.060   0.749
32917W        W 5342  20.104  38.024   2.335
32918W        W 5343   4.288   7.790   0.338
32919W        W 5344  14.313  15.208  14.484
32920W        W 5345   2.347  23.676   2.339
32921W        W 5346  39.330   5.823   1.785
32922W        W 5347  13.668  23.220  13.810
32923W        W 5348  32.435  10.750  13.853
32924W        W 5349  17.799  29.439  11.975
32925W        W 5350  37.038   3.831   4.158
32926W        W 5351  44.888  27.043   0.732
32927W        W 5352   3.819  12.706  11.562
32928W        W 5353  33.551   6.868  14.438
32929W        W 5354  29.652   4.863   3.698
32930W        W 5355  38.886  12.331   4.173
32931W        W 5356  30.068  35.549   3.263
32932W        W 5357  34.426  43.505   2.192
32933W        W 5358  44.754  33.551  14.809
32934W        W 5359  44.459  11.811  10.446
32935W        W 5360  14.313  12.121   0.335
32936W        W 5361  44.837   9.757   2.359
32937W        W 5362  28.137   3.363   3.331
32938W        W 5363  41.489  43.438  11.500
32939W        W 5364  32.941  30.443   3.251
32940W        W 5365   0.754   6.917  11.599
32941W        W 5366  42.340  31.550  12.534
32942W        W 5367  16.217  22.613  13.823
32943W        W 5368  24.557  13.660   2.766
32944W        W 5369  30.039  16.123   2.695
32945W        W 5370  40.459   2.230  14.880
32946W        W 5371  13.643  41.306  11.372
32947W        W 5372  14.155  37.509   1.357
32948W        W 5373  27.668  30.510   2.185
32949W        W 5374  17.758  38.380   3.356
32950W        W 5375  32.534  40.546   2.781
32951W        W 5376  30.005   1.736   1.303
32952W        W 5377  44.453  42.281  10.962
32953W        W 5378   9.186  14.337   1.409
32954W        W 5379  44.862  28.602  11.016
32955W        W 5380  35.561  36.555  13.957
32956W        W 5381  34.379  18.231   0.283
32957W        W 5382  13.652  21.647   2.860
32958W        W 5383  36.942  13.686   1.390
32959W        W 5384  32.569   9.250   3.307
32960W        W 5385  21.147  24.605   1.220
32961W        W 5386  40.501  30.505   5.085
32962W        W 5387   4.717   5.690   3.247
32963W        W 5388  33.128  13.175   0.410
32964W        W 5389   1.353  11.732  13.505
32965W        W 5390  14.721  41.801   1.747
32966W        W 5391   9.742  19.704  10.602
32967W        W 5392  31.486  35.085  14.303
32968W        W 5393   8.268   3.354  11.913
32969W        W 5394  16.311  27.131  14.990
32970W        W 5395  44.301  11.236   1.230
32971W        W 5396   0.954  24.122   0.288
32972W        W 5397  32.450   3.766   3.735
32973W        W 5398  43.356  26.193   0.749
32974W        W 5399  26.952  12.189   1.340
32975W        W 5400   8.858  34.965  10.976
32976W        W 5401   6.789  24.645   0.474
32977W        W 5402  38.985   6.311   3.682
32978W        W 5403  33.014  10.641   4.663
32979W        W 5404   7.220   3.420   3.648
32980W        W 5405  15.731  40.446  11.445
32981W        W 5406  22.633  32.039   4.688
32982W        W 5407  32.942  23.719  10.941
32983W        W 5408  37.444  12.343   3.341
32984W        W 5409  36.426  36.370  11.523
32985W        W 5410  25.211   0.828  11.610
32986W        W 5411  44.992  44.299  12.557
32987W        W 5412  18.575  11.305   2.188
32988W        W 5413   2.828   3.451   5.128
32989W        W 5414  38.848  14.277   4.637
32990W        W 5415  34.041  37.937   3.179
32991W        W 5416  11.311  41.522  11.465
32992W        W 5417  20.065  24.647   1.268
32993W        W 5418   6.705  40.346   4.672
32994W        W 5419  28.133  12.196  14.912
32995W        W 5420  36.030   9.870   0.846
32996W        W 5421  42.407  16.198  13.350
32997W        W 5422  26.099  34.419  12.020
32998W        W 5423  25.215   4.793  11.933
32999W        W 5424  11.174  35.363  10.534
33000W        W 5425  19.177   9.671   0.787
33001W        W 5426   2.772  10.251  10.592
33002W        W 5427  24.105   1.816  10.055
33003W        W 5428   4.756  28.449  12.866
33004W        W 5429   7.329  23.203   0.740
33005W        W 5430  32.401   2.850  13.841
33006W        W 5431  17.636  14.593  11.547
33007W        W 5432  41.462  40.333  14.854
33008W        W 5433  43.775  36.495  14.776
33009W        W 5434  10.813  23.043   5.741
33010W        W 5435   9.715  26.988   3.708
33011W        W 5436  20.667   9.252   2.851
33012W        W 5437  39.019   9.751   4.347
33013W        W 5438   1.787  14.800  14.920
33014W        W 5439  43.960  15.696   1.313
33015W        W 5440  28.471  36.947  12.832
33016W        W 5441  26.479   9.202  13.953
33017W        W 5442  38.394  29.120   2.815
33018W        W 5443  39.493  29.543   2.688
33019W        W 5444  22.218  44.479   1.286
33020W        W 5445  39.360  44.372   0.887
33021W        W 5446  16.728   9.704   0.945
33022W        W 5447  33.620  25.615  12.917
33023W        W 5448  23.500   7.208  14.350
33024W        W 5449  37.070  30.104  10.967
33025W        W 5450  41.972  39.893   4.788
33026W        W 5451  39.045  11.738   2.800
33027W        W 5452  10.728  30.108   0.245
33028W        W 5453  15.222  36.914   4.740
33029W        W 5454  25.996  32.026   1.841
33030W        W 5455  20.114  36.071  13.477
33031W        W 5456  38.030  30.623   4.805
33032W        W 5457  39.410  28.483   1.813
33033W        W 5458  39.321  40.408   1.370
33034W        W 5459   7.690  14.110  14.462
33035W        W 5460   8.241  28.652  13.377
33036W        W 5461   0.431   0.864  12.058
33037W        W 5462  44.405   0.765   1.410
33038W        W 5463  11.746  39.910  12.955
33039W        W 5464  38.952   5.324  13.841
33040W        W 5465   2.354   7.242  11.993
33041W        W 5466  24.724  42.288   0.348
33042W        W 5467  22.119  14.810  10.929
33043W        W 5468  43.861  29.991  12.360
33044W        W 5469   6.901  31.455   0.467
33045W        W 5470  37.959  40.327  13.310
33046W        W 5471  10.666  33.005   1.269
33047W        W 5472  19.124   4.905  14.898
33048W        W 5473  33.998  23.721  14.428
33049W        W 5474  40.804   5.219   4.750
33050W        W 5475  27.032  20.142   3.251
33051W        W 5476  13.732  10.830   0.877
33052W        W 5477  19.103  20.677  14.928
33053W        W 5478  19.551  37.372  12.032
33054W        W 5479   3.759  13.743  12.988
33055W        W 5480  24.213   9.274  13.014
33056W        W 5481  37.578  25.122   4.669
33057W        W 5482  25.966  13.677  10.428
33058W        W 5483  17.267  14.675  11.047
33059W        W 5484  21.236  26.104   0.304
33060W        W 5485   7.216  29.607   4.754
33061W        W 5486   5.815  20.237  14.363
33062W        W 5487  22.600  13.112   3.770
33063W        W 5488   6.716  42.519  14.791
33064W        W 5489  16.126  42.881   4.234
33065W        W 5490  15.088  43.926   1.895
33066W        W 5491  44.392   9.849   3.295
33067W        W 5492   0.862   0.470  12.061
33068W        W 5493   6.310  14.636  14.328
33069W        W 5494  26.161  39.976  10.915
33070W        W 5495  27.478  36.009   2.785
33071W        W 5496  17.135  27.489  10.950
33072W        W 5497  32.393  21.745  13.870
33073W        W 5498  40.312  40.929  14.880
33074W        W 5499  24.687  33.131   2.390
33075W        W 5500   4.416  43.417  12.398
33076W        W 5501  10.223  16.806   3.382
33077W        W 5502  31.427  43.432  14.898
33078W        W 5503  13.167  27.029  13.961
33079W        W 5504   3.953  29.522  11.124
33080W        W 5505   8.221  39.457  12.422
33081W        W 5506  21.167  42.392   0.770
33082W        W 5507   7.229  22.661  14.854
33083W        W 5508  42.494  16.081   4.201
33084W        W 5509  36.496  31.012  11.086
33085W        W 5510   0.439  29.505   3.189
33086W        W 5511   1.242  41.788  12.501
33087W        W 5512   4.409   4.399   4.138
33088W        W 5513  10.744  10.334   4.214
33089W        W 5514  30.134   8.235   4.807
33090W        W 5515  34.416  10.702   1.764
33091W        W 5516  24.050  26.504   2.836
33092W        W 5517   0.295   2.438  11.515
33093W        W 5518  22.120   4.913  12.541
33094W        W 5519  41.025  13.246  10.643
33095W        W 5520  42.930  17.659   2.213
33096W        W 5521  44.940  30.099  14.870
33097W        W 5522  13.140  39.470   1.393
33098W        W 5523  23.154  12.261  14.403
33099W        W 5524  39.379  41.438  10.434
33100W        W 5525   7.710  24.624   3.733
33101W        W 5526  33.086  44.449   4.241
33102W        W 5527   0.835  35.887   4.761
33103W        W 5528  26.688  41.430  11.549
33104W        W 5529  33.124  29.459   2.861
33105W        W 5530   7.736  33.973  11.004
33106W        W 5531  21.527   9.846   2.718
33107W        W 5532  13.147   7.180  10.530
33108W        W 5533  17.642  11.355   1.833
33109W        W 5534  36.388   9.772   9.481
33110W        W 5535  32.000  40.037   2.359
33111W        W 5536  32.613  35.594   2.341
33112W        W 5537  43.309  25.986  10.936
33113W        W 5538  12.769  16.751  13.961
33114W        W 5539  43.387  36.885  12.068
33115W        W 5540   5.703   0.965  11.468
33116W        W 5541  43.460   2.412  10.624
33117W        W 5542  36.354  24.152   3.761
33118W        W 5543   5.910  41.989  12.536
33119W        W 5544  38.865  35.917  14.348
33120W        W 5545  30.980  17.635   4.173
33121W        W 5546  25.670  19.628   4.185
33122W        W 5547  37.073  37.075   4.834
33123W        W 5548  44.464   1.443  11.458
33124W        W 5549  19.719  19.082   3.297
33125W        W 5550   4.293  33.614   4.139
33126W        W 5551  12.845  39.550   0.907
33127W        W 5552  40.042  18.678   3.835
33128W        W 5553  34.082   9.810  10.509
33129W        W 5554  27.453  42.444   3.838
33130W        W 5555   5.830  18.260   4.334
33131W        W 5556  13.829  21.125   4.617
33132W        W 5557  17.229  42.892   1.771
33133W        W 5558  23.698  37.833  13.474
33134W        W 5559  23.096  10.760  14.363
33135W        W 5560  12.710  17.744  12.961
33136W        W 5561   1.408  36.093   1.797
33137W        W 5562  15.779  41.836   3.649
33138W        W 5563   0.451   6.203   0.338
33139W        W 5564  13.818   3.460  10.427
33140W        W 5565  37.418  42.931  12.886
33141W        W 5566  18.269   2.304  10.970
33142W        W 5567   2.429  30.160   3.767
33143W        W 5568  25.624  44.886   0.442
33144W        W 5569  11.194  27.567   4.833
33145W        W 5570   2.863  10.222  13.511
33146W        W 5571  44.891   0.939  14.899
33147W        W 5572  21.203   6.757  11.010
33148W        W 5573  42.948   6.264  14.438
33149W        W 5574  16.278  38.065  10.431
33150W        W 5575   8.884  11.134  12.426
33151W        W 5576  25.136  20.582   4.622
33152W        W 5577  20.738  10.842   3.807
33153W        W 5578  27.596   0.287  10.920
33154W        W 5579  21.657  24.695   1.322
33155W        W 5580  32.549  41.796   1.245
33156W        W 5581  42.942  24.984  11.964
33157W        W 5582  17.068  23.076  12.861
33158W        W 5583   5.710  27.546   2.188
33159W        W 5584  43.014  11.640   3.755
33160W        W 5585  20.626  18.651  13.035
33161W        W 5586   9.885  24.013   2.677
33162W        W 5587  40.905   7.777  13.314
33163W        W 5588  39.808   3.258  14.327
33164W        W 5589  10.231  26.165  10.516
33165W        W 5590  41.364  43.864   1.827
33166W        W 5591   7.417  40.051  14.985
33167W        W 5592  11.636  17.737  13.396
33168W        W 5593  30.951   1.430   0.428
33169W        W 5594  40.046  29.056  10.957
33170W        W 5595   7.335  23.549  14.929
33171W        W 5596  24.996   1.321  14.879
33172W        W 5597  32.637  33.989  11.030
33173W        W 5598  13.183  24.016   4.626
33174W        W 5599  39.997  23.219   3.245
33175W        W 5600  41.434  32.945   2.368
33176W        W 5601   3.442  35.947   1.860
33177W        W 5602  22.101   4.803   1.415
33178W        W 5603  23.556  17.661   2.359
33179W        W 5604  29.052  11.337   3.761
33180W        W 5605   2.240   1.315   4.135
33181W        W 5606  37.346   2.294  13.424
33182W        W 5607  15.169  26.665   3.284
33183W        W 5608   4.837   2.853   4.723
33184W        W 5609  23.571  39.913  12.538
33185W        W 5610  27.023  16.178  11.464
33186W        W 5611  17.231  37.843   2.773
33187W        W 5612  31.479  26.019   2.874
33188W        W 5613  34.987  17.579  13.797
33189W        W 5614   8.882  13.724   3.706
33190W        W 5615  24.131  41.465  12.836
33191W        W 5616   5.436  31.028  14.959
33192W        W 5617  26.052  29.530   3.717
33193W        W 5618  33.392   7.702  11.521
33194W        W 5619  31.121  20.155  11.558
33195W        W 5620   6.250  23.651   3.730
33196W        W 5621  22.645  25.678  14.873
33197W        W 5622  33.556  30.048  11.385
33198W        W 5623  40.525  30.530   0.279
33199W        W 5624  14.265  11.803   2.692
33200W        W 5625  25.043  26.564   2.321
33201W        W 5626  41.848  24.009   5.207
33202W        W 5627  19.756   3.271  13.986
33203W        W 5628   5.390   5.264   0.835
33204W        W 5629  24.224   9.198   3.846
33205W        W 5630  27.648  21.550   5.754
33206W        W 5631  42.016  28.630   1.770
33207W        W 5632  39.497  26.509  14.279
33208W        W 5633   6.336  14.702  10.949
33209W        W 5634  18.733  28.660   1.787
33210W        W 5635  15.645  17.187  14.791
33211W        W 5636  20.576  16.158  11.044
33212W        W 5637  36.528  13.797  11.055
33213W        W 5638  28.668  30.626  13.015
33214W        W 5639  35.002  16.286  11.923
33215W        W 5640  14.107  42.391  12.975
33216W        W 5641   7.235   4.847  14.478
33217W        W 5642  39.028  17.069   3.683
33218W        W 5643   2.263  15.616  10.014
33219W        W 5644  29.607  30.990  14.019
33220W        W 5645  42.785   9.377  12.005
33221W        W 5646  36.470   3.407   1.753
33222W        W 5647  10.240  26.978   0.858
33223W        W 5648   7.409  19.542  14.342
33224W        W 5649  31.495   1.805  14.862
33225W        W 5650  29.175  27.604   4.186
33226W        W 5651  13.802   1.845  14.006
33227W        W 5652   6.912  44.488   4.837
33228W        W 5653  21.131  23.541   2.375
33229W        W 5654   2.455   8.341  14.907
33230W        W 5655  25.525  36.092   2.795
33231W        W 5656  35.542  36.862   4.831
33232W        W 5657  44.911  39.461   0.736
33233W        W 5658  17.138  44.881  14.988
33234W        W 5659  21.744  39.328   0.816
33235W        W 5660  31.504  39.527  14.301
33236W        W 5661  17.146  31.992  13.796
33237W        W 5662   8.278  33.468   0.477
33238W        W 5663  39.342  43.888  10.592
33239W        W 5664  18.743   1.248  12.477
33240W        W 5665  33.012  25.033  12.076
33241W        W 5666  40.024  13.603  11.048
33242W        W 5667  23.223   6.838  14.961
33243W        W 5668  20.589  37.580  11.988
33244W        W 5669  30.621  27.113   4.761
33245W        W 5670  14.126  35.109  12.986
33246W        W 5671  16.082  21.616  14.396
33247W        W 5672  35.921  18.720  13.428
33248W        W 5673  29.026  15.186   0.308
33249W        W 5674   7.794  25.981  11.484
33250W        W 5675  13.718  25.563  10.535
33251W        W 5676  33.395  27.982   3.777
33252W        W 5677  33.481  26.074   3.312
33253W        W 5678  14.671  32.142  10.072
33254W        W 5679  25.153  15.240  13.489
33255W        W 5680  35.458  27.031  14.828
33256W        W 5681  21.599  30.088   2.863
33257W        W 5682  35.419  27.994  12.079
33258W        W 5683  29.044  28.519  14.379
33259W        W 5684   6.379  33.619  11.576
33260W        W 5685  19.070   9.262  14.822
33261W        W 5686  40.903  11.137   1.721
33262W        W 5687  24.571  19.582  12.415
33263W        W 5688  37.405  27.160   4.228
33264W        W 5689  38.829  26.482   1.409
33265W        W 5690   8.233  27.060  14.336
33266W        W 5691   6.239  30.475  14.766
33267W        W 5692  11.646  38.398  13.874
33268W        W 5693  34.434  15.303  14.921
33269W        W 5694  41.435  44.992  12.857
33270W        W 5695  35.385   4.428   2.835
33271W        W 5696  32.400  16.728  13.873
33272W        W 5697   9.236   9.199   1.734
33273W        W 5698  19.149  28.570  12.565
33274W        W 5699  13.122  10.272  11.078
33275W        W 5700   1.771  21.684  14.969
33276W        W 5701  12.760  43.314   2.208
33277W        W 5702  10.841  43.889  14.999
33278W        W 5703  33.474  18.080  11.468
33279W        W 5704  25.603  15.706  10.026
33280W        W 5705   5.298  16.130  10.622
33281W        W 5706  38.867  18.171   2.874
33282W        W 5707   1.784  31.635  11.908
33283W        W 5708  16.220  39.869  13.864
33284W        W 5709  33.380  13.806   4.808
33285W        W 5710  23.503  10.289   4.271
33286W        W 5711  43.839  42.797  14.366
33287W        W 5712  34.883  41.329   0.773
33288W        W 5713  12.300  40.522  12.011
33289W        W 5714  12.696   4.383  13.463
33290W        W 5715   0.801   5.222   4.266
33291W        W 5716   0.327  25.629   3.246
33292W        W 5717  23.491  41.043  12.823
33293W        W 5718  17.680  37.962   1.753
33294W        W 5719  24.705  14.776   1.711
33295W        W 5720  24.111  19.694  12.463
33296W        W 5721  21.554  18.790  11.545
33297W        W 5722  44.344   0.342  14.391
33298W        W 5723   3.874  11.816  13.026
33299W        W 5724  30.021  29.084   4.645
33300W        W 5725  40.478   0.972  14.975
33301W        W 5726  16.669  20.685   0.780
33302W        W 5727  41.534  24.615   3.277
33303W        W 5728  37.863  31.938  11.451
33304W        W 5729   6.427   6.725   4.290
33305W        W 5730   2.909  16.748  14.468
33306W        W 5731  18.784  14.626  11.398
33307W        W 5732  33.424  37.942  11.996
33308W        W 5733  32.563  30.078   2.357
33309W        W 5734  36.351  29.632  11.608
33310W        W 5735  30.629  40.549  14.483
33311W        W 5736  12.351  37.336   1.860
33312W        W 5737  18.284  32.576  14.020
33313W        W 5738   9.167   6.390  12.008
33314W        W 5739   3.780   2.916   1.781
33315W        W 5740  25.079  28.109   0.296
33316W        W 5741  25.592  24.122  14.955
33317W        W 5742  16.721  32.002   1.394
33318W        W 5743  25.201   0.384   0.410
33319W        W 5744  39.490   8.775  11.054
33320W        W 5745  43.932  26.172   3.782
33321W        W 5746  14.323  26.476   2.857
33322W        W 5747  16.707  11.632  12.892
33323W        W 5748  36.071  13.209  14.986
33324W        W 5749  38.371  21.246   1.906
33325W        W 5750  12.779  15.784   1.431
33326W        W 5751  22.638  32.018   9.931
33327W        W 5752   1.326  43.355  14.339
33328W        W 5753  16.117  39.521   1.268
33329W        W 5754  33.557  33.428   1.748
33330W        W 5755   8.835  43.482   2.774
33331W        W 5756  17.670  34.037   0.920
33332W        W 5757  14.130  40.466   4.304
33333W        W 5758  36.472  34.368  10.481
33334W        W 5759  34.482   8.705  13.332
33335W        W 5760  25.638   1.261  12.554
33336W        W 5761  36.371  37.887  10.941
33337W        W 5762   4.898  17.211   1.855
33338W        W 5763  35.077  43.428  11.523
33339W        W 5764  38.359   7.825   2.222
33340W        W 5765   0.903  32.622  13.986
33341W        W 5766  23.073   0.412   2.287
33342W        W 5767  34.497  15.606   3.278
33343W        W 5768  44.322  12.628  13.034
33344W        W 5769  34.026  36.890   3.283
33345W        W 5770   1.307  30.138   2.349
33346W        W 5771   3.835  33.027   1.256
33347W        W 5772   1.744  32.401  12.901
33348W        W 5773  19.056  40.451   3.825
33349W        W 5774  33.018  21.184   5.105
33350W        W 5775  20.529  17.748   4.810
33351W        W 5776  11.310  19.179   3.716
33352W        W 5777  20.641  35.950   0.958
33353W        W 5778  35.463  27.521  12.858
33354W        W 5779  39.010  34.065   1.294
33355W        W 5780  42.960   5.256   1.792
33356W        W 5781  14.669  28.142   0.824
33357W        W 5782  41.994  19.135  13.309
33358W        W 5783  27.570   5.817  12.467
33359W        W 5784  23.497  24.657  13.408
33360W        W 5785  16.660  31.951  11.418
33361W        W 5786  22.612   7.816   2.712
33362W        W 5787  37.422   5.823   4.836
33363W        W 5788  37.512  25.584   3.279
33364W        W 5789  17.656  28.487  11.493
33365W        W 5790  23.115  21.137   5.164
33366W        W 5791  21.231  37.400  14.784
33367W        W 5792  15.699  43.782  14.952
33368W        W 5793   9.228  18.545   0.245
33369W        W 5794  38.449  31.614   4.733
33370W        W 5795  14.693  38.939   1.773
33371W        W 5796  18.170   4.401  14.866
33372W        W 5797  17.799  32.137  11.608
33373W        W 5798  34.369  16.217  13.412
33374W        W 5799  40.040  43.485   0.380
33375W        W 5800   8.806  16.741   4.241
33376W        W 5801  43.802   9.262  11.596
33377W        W 5802  30.467  23.134   0.931
33378W        W 5803  28.462  30.521   3.197
33379W        W 5804  32.405  13.776   1.847
33380W        W 5805   0.437  18.264  10.935
33381W        W 5806  21.593  13.610   0.903
33382W        W 5807  27.064  13.146   0.407
33383W        W 5808  42.934  21.689  13.539
33384W        W 5809  30.915  20.140  11.855
33385W        W 5810  17.774  18.588  12.549
33386W        W 5811  10.209   6.815   1.325
33387W        W 5812  15.657   0.356  13.452
33388W        W 5813  29.922   8.200   0.356
33389W        W 5814   2.877   1.793  11.882
33390W        W 5815  14.735   6.198  12.414
33391W        W 5816  41.043  15.750   0.283
33392W        W 5817  34.967  17.136   2.223
33393W        W 5818  40.933  23.556   4.640
33394W        W 5819  28.007  12.295  10.515
33395W        W 5820  16.596  39.024   3.163
33396W        W 5821  36.098   3.439  12.368
33397W        W 5822  43.496  11.855   0.794
33398W        W 5823   6.401  20.230   4.150
33399W        W 5824   5.742  30.554   1.363
33400W        W 5825   0.896  26.206   1.370
33401W        W 5826  14.750  22.715  12.974
33402W        W 5827  36.928  40.801  14.319
33403W        W 5828   7.779  17.627   4.655
33404W        W 5829  21.036  43.314  14.286
33405W        W 5830  28.938   1.322  12.442
33406W        W 5831  27.632  39.885   5.181
33407W        W 5832  36.066  42.480   2.356
33408W        W 5833  33.883  28.548  14.913
33409W        W 5834   7.184  31.985  10.578
33410W        W 5835  18.736  32.002   5.161
33411W        W 5836  29.666  39.993  14.327
33412W        W 5837  35.372  21.067   2.801
33413W        W 5838  22.232  26.978   2.885
33414W        W 5839  38.348  37.469   1.698
33415W        W 5840   9.218   6.844  12.033
33416W        W 5841  42.777  19.672  11.015
33417W        W 5842  43.957  14.794  14.997
33418W        W 5843  16.579  27.453  13.878
33419W        W 5844  12.176  33.049   4.115
33420W        W 5845  44.965  36.008   3.647
33421W        W 5846  17.169  30.139   0.776
33422W        W 5847  16.219  31.061  13.332
33423W        W 5848   8.766   1.909   2.801
33424W        W 5849  20.673  19.259  11.557
33425W        W 5850   8.207  18.583  14.924
33426W        W 5851  36.975  32.924   3.182
33427W        W 5852   4.851  42.024   0.425
33428W        W 5853  11.844  14.793   0.423
33429W        W 5854  35.376  28.039   4.711
33430W        W 5855  16.317  10.691   3.865
33431W        W 5856  10.648  12.121  11.581
33432W        W 5857  22.619   8.390  11.896
33433W        W 5858  14.597  26.561  12.404
33434W        W 5859  32.585   8.725  13.861
33435W        W 5860  42.925   1.260  14.761
33436W        W 5861  36.433  20.726  12.538
33437W        W 5862  40.504   1.284   0.860
33438W        W 5863  19.636  34.386   3.825
33439W        W 5864  13.748  27.497   3.366
33440W        W 5865  39.538  37.369  11.921
33441W        W 5866  14.148  32.543   5.113
33442W        W 5867  24.125  13.201   2.419
33443W        W 5868  35.040  27.116   3.280
33444W        W 5869  29.986  25.491  10.568
33445W        W 5870  44.817   8.252   1.756
33446W        W 5871  14.313  41.419  11.415
33447W        W 5872  32.979  33.015  11.909
33448W        W 5873  17.142  34.423   5.631
33449W        W 5874  36.945  43.276   1.370
33450W        W 5875  26.527  23.671  14.364
33451W        W 5876  11.241  37.551  10.430
33452W        W 5877  29.505  39.825   0.765
33453W        W 5878  20.728  38.462  10.421
33454W        W 5879   6.727  40.456   3.746
33455W        W 5880  32.940  17.266  12.864
33456W        W 5881  23.188  31.956  12.405
33457W        W 5882  22.234  42.318  14.834
33458W        W 5883  14.204   3.316  10.473
33459W        W 5884   7.234  28.949  11.458
33460W        W 5885  43.813  42.406   0.476
33461W        W 5886  11.372  33.432  10.985
33462W        W 5887  21.738   1.812   0.742
33463W        W 5888  31.474  29.922   4.254
33464W        W 5889   9.735  38.468  14.935
33465W        W 5890  12.667  36.567  11.585
33466W        W 5891  14.240  43.874  14.373
33467W        W 5892  16.574   1.287   4.632
33468W        W 5893   4.317  17.622  10.447
33469W        W 5894   5.221  30.505   3.300
33470W        W 5895  13.837  33.530   3.255
33471W        W 5896  38.959  17.092   3.240
33472W        W 5897   0.366  34.602  12.982
33473W        W 5898  38.051  19.062  11.516
33474W        W 5899  24.006   2.829   2.768
33475W        W 5900   9.721  26.013  12.524
33476W        W 5901  39.019   9.672  14.310
33477W        W 5902  43.808  34.598   4.137
33478W        W 5903  24.982   5.263  13.907
33479W        W 5904  38.908  37.403   1.421
33480W        W 5905   5.298   9.319   0.828
33481W        W 5906  11.765   7.885  11.976
33482W        W 5907  13.314  33.951   3.157
33483W        W 5908  21.165  30.447   1.345
33484W        W 5909  42.422  15.097  11.426
33485W        W 5910   4.398  24.626   2.357
33486W        W 5911  28.495  14.730   3.799
33487W        W 5912  23.708  20.127   1.694
33488W        W 5913  36.401   7.269   1.279
33489W        W 5914  39.530  40.987   1.214
33490W        W 5915  33.081  29.091  12.905
33491W        W 5916  10.756  23.105  12.537
33492W        W 5917  22.123  10.353   1.424
33493W        W 5918  27.170  32.622   0.829
33494W        W 5919  25.201   0.780   0.944
33495W        W 5920  27.525  24.134   3.265
33496W        W 5921   2.812  39.347  11.082
33497W        W 5922  28.664  23.233   1.316
33498W        W 5923  25.662  36.438  10.551
33499W        W 5924  20.200  14.170  10.574
33500W        W 5925   9.388  14.295   4.187
33501W        W 5926  21.049  18.783  11.065
33502W        W 5927  12.779  11.790  13.511
33503W        W 5928   0.766  24.103   3.766
33504W        W 5929  37.937  18.078   1.375
33505W        W 5930  40.824  25.111   0.463
33506W        W 5931  40.507   4.866  14.812
33507W        W 5932  32.131  41.410  10.408
33508W        W 5933  27.566  42.018   3.372
33509W        W 5934  11.238  21.535   0.792
33510W        W 5935  16.737   0.279  13.511
33511W        W 5936  34.117   6.207   4.174
33512W        W 5937  24.074  25.171   0.273
33513W        W 5938  25.597  44.798  13.025
33514W        W 5939   3.419  23.635  12.060
33515W        W 5940  42.028   0.955   5.131
33516W        W 5941  10.702   6.364   0.882
33517W        W 5942  13.735  40.343   3.161
33518W        W 5943  27.958  39.824  10.040
33519W        W 5944  31.624  27.165  14.422
33520W        W 5945  34.438  27.495  14.368
33521W        W 5946  15.203  25.065   0.273
33522W        W 5947  37.087   5.902  10.436
33523W        W 5948  22.745  10.713  12.427
33524W        W 5949   4.439  15.707   0.364
33525W        W 5950  44.260  41.929   3.256
33526W        W 5951   2.777   7.677   3.318
33527W        W 5952  32.893  21.201   3.379
33528W        W 5953  37.446   5.775  11.452
33529W        W 5954  16.654  39.485   4.123
33530W        W 5955   1.781  32.551  11.400
33531W        W 5956  24.603  40.394   3.301
33532W        W 5957   3.798  34.590  11.935
33533W        W 5958  10.689  17.296   4.641
33534W        W 5959   3.744   9.293   0.805
33535W        W 5960  30.599   9.679   1.714
33536W        W 5961  43.764   6.825   3.287
33537W        W 5962  28.143  35.550  11.494
33538W        W 5963  35.457  33.884   3.208
33539W        W 5964   0.317  22.127  14.859
33540W        W 5965  25.547  13.227   3.349
33541W        W 5966  37.875  31.435   3.156
33542W        W 5967  36.455  16.253  13.412
33543W        W 5968  25.531  25.175   1.381
33544W        W 5969  35.869  33.410  11.893
33545W        W 5970  10.681  32.075   1.373
33546W        W 5971  19.218  44.346   9.974
33547W        W 5972  12.747  30.435  11.413
33548W        W 5973   6.838  26.658   0.325
33549W        W 5974  21.565  15.088   2.806
33550W        W 5975   4.351  38.968   3.747
33551W        W 5976   3.219  19.703   1.247
33552W        W 5977  22.228  32.105  12.521
33553W        W 5978  15.227  20.098   4.743
33554W        W 5979  18.662  38.821  14.899
33555W        W 5980  30.472  25.578   4.727
33556W        W 5981  41.388  20.042   0.768
33557W        W 5982   9.269  15.326  11.085
33558W        W 5983  27.180  41.818   1.236
33559W        W 5984  12.763  16.777  11.916
33560W        W 5985  40.875  25.122  13.493
33561W        W 5986  28.663  36.493  14.348
33562W        W 5987  16.239   2.337   3.661
33563W        W 5988  19.729   2.472  10.466
33564W        W 5989  40.817  24.693   4.175
33565W        W 5990  42.835  18.678   1.859
33566W        W 5991  37.341  12.729   0.344
33567W        W 5992   2.428  21.053  10.975
33568W        W 5993   4.206  33.912   4.646
33569W        W 5994   5.233  32.467  12.482
33570W        W 5995  29.642  17.076  14.499
33571W        W 5996  37.439   4.336   0.964
33572W        W 5997  28.541  40.994   9.478
33573W        W 5998  25.184  38.011   1.711
33574W        W 5999  11.767  35.434   3.168
33575W        W 6000  36.077  15.657   0.314
33576W        W 6001  33.569  42.305   2.258
33577W        W 6002   3.338   0.762   0.438
33578W        W 6003  35.934  32.064  13.058
33579W        W 6004  23.035  27.577   3.233
33580W        W 6005  24.562  30.015  13.313
33581W        W 6006  42.504  43.375  11.451
33582W        W 6007  26.642  16.188  13.493
33583W        W 6008   0.439   2.837  14.842
33584W        W 6009  43.922  31.456   2.779
33585W        W 6010  15.665   8.844   0.854
33586W        W 6011  29.037  42.816  12.075
33587W        W 6012  33.504  42.387   0.335
33588W        W 6013  19.125   1.949  12.987
33589W        W 6014  17.648  36.025  11.869
33590W        W 6015  43.366   4.369   2.735
33591W        W 6016  42.934  25.052  13.877
33592W        W 6017  29.109  30.990  10.972
33593W        W 6018  15.199  28.169   3.147
33594W        W 6019  32.415  14.334  11.555
33595W        W 6020  21.642  30.919  12.552
33596W        W 6021  22.186  41.375   2.184
33597W        W 6022  10.722  19.779  12.882
33598W        W 6023  23.987   4.783   4.630
33599W        W 6024  17.149  32.621   1.756
33600W        W 6025  43.514   0.843   4.325
33601W        W 6026  26.000   8.669   4.134
33602W        W 6027  44.265  14.740   4.269
33603W        W 6028  21.171  24.036   0.950
33604W        W 6029  16.611  41.313  13.548
33605W        W 6030  16.712  38.862   4.653
33606W        W 6031  31.492  19.576  11.906
33607W        W 6032  36.440  38.481  14.336
33608W        W 6033  20.214  20.132  11.891
33609W        W 6034  28.510   5.821   0.930
33610W        W 6035   7.757  24.672   1.912
33611W        W 6036  20.720  40.379  11.914
33612W        W 6037  39.031  36.557  14.861
33613W        W 6038  43.895  16.096   2.224
33614W        W 6039  34.035   3.282   5.312
33615W        W 6040  14.740  41.444  12.418
33616W        W 6041  20.251  39.500   3.360
33617W        W 6042  29.603   2.821   4.237
33618W        W 6043  19.591  26.588  10.947
33619W        W 6044  27.684  12.257   4.782
33620W        W 6045  36.361  23.588  14.306
33621W        W 6046   0.964  14.643   2.357
33622W        W 6047  11.259  23.598   0.265
33623W        W 6048  19.696  12.293  10.994
33624W        W 6049   7.804  16.184  14.299
33625W        W 6050  17.275  40.460  10.430
33626W        W 6051   4.748  15.083  10.547
33627W        W 6052   1.741  24.531   4.795
33628W        W 6053   0.961  10.674   4.335
33629W        W 6054  24.693  32.569  12.570
33630W        W 6055  33.604  40.374  12.861
33631W        W 6056  11.621  14.809  12.861
33632W        W 6057  10.194  35.398  11.055
33633W        W 6058  10.843  42.843   0.413
33634W        W 6059  23.675   5.844  12.083
33635W        W 6060  37.847   7.173   5.195
33636W        W 6061  44.311  27.058   1.432
33637W        W 6062  11.218   4.304  14.974
33638W        W 6063  34.430  42.977   1.417
33639W        W 6064  23.029  29.142  11.586
33640W        W 6065  21.046   6.368  13.844
33641W        W 6066  24.021  43.810  13.019
33642W        W 6067  11.300   7.384  11.915
33643W        W 6068  24.223   3.407   0.889
33644W        W 6069  37.023  25.636   2.883
33645W        W 6070  30.478  26.507   3.281
33646W        W 6071  14.295  42.951  10.606
33647W        W 6072   8.789  18.603  13.425
33648W        W 6073  18.146  43.897   4.142
33649W        W 6074  21.571   2.807   1.804
33650W        W 6075  40.904   8.797   4.682
33651W        W 6076   7.341  31.124  13.865
33652W        W 6077  37.340  18.236   0.352
33653W        W 6078  21.619   8.222   0.916
33654W        W 6079  24.638  22.526   3.688
33655W        W 6080  14.133  13.679  13.482
33656W        W 6081   3.757  14.610   3.629
33657W        W 6082  26.119  38.460   1.322
33658W        W 6083  28.182   1.747   3.184
33659W        W 6084   3.273  34.399   2.742
33660W        W 6085   3.850   5.719  11.114
33661W        W 6086  38.039  32.398   4.280
33662W        W 6087  27.555  12.361   2.831
33663W        W 6088  26.964   6.325   1.416
33664W        W 6089  24.226  14.647  10.545
33665W        W 6090  22.141  31.005  10.493
33666W        W 6091  11.333  18.271  11.552
33667W        W 6092   0.897  10.151   0.380
33668W        W 6093  17.297  14.640  10.034
33669W        W 6094  30.658  20.535  12.513
33670W        W 6095  17.305  22.067   0.951
33671W        W 6096  29.629  36.892   1.269
33672W        W 6097  22.739  17.224  12.006
33673W        W 6098  25.681   9.387   3.214
33674W        W 6099  43.984  30.657  11.100
33675W        W 6100  42.314  25.984   3.355
33676W        W 6101  28.124  28.600  14.387
33677W        W 6102  40.813   1.427  14.942
33678W        W 6103  15.166  36.439   3.861
33679W        W 6104   6.758  22.201   1.325
33680W        W 6105  42.345  25.668  14.462
33681W        W 6106   0.858  14.662   1.237
33682W        W 6107  44.268  11.809  12.933
33683W        W 6108  21.100   4.233  11.392
33684W        W 6109  32.978  13.314  13.006
33685W        W 6110  41.929  12.132  14.391
33686W        W 6111  42.289  10.766   0.904
33687W        W 6112  27.026   5.877   0.324
33688W        W 6113  31.090  30.022   0.468
33689W        W 6114  43.943  39.911  11.532
33690W        W 6115  34.880   6.332  11.012
33691W        W 6116  16.642  41.502  12.347
33692W        W 6117  37.905  16.287   0.951
33693W        W 6118   9.683  34.921  12.939
33694W        W 6119  39.392  41.498  13.324
33695W        W 6120  35.870  23.148   3.175
33696W        W 6121  11.236  30.949  10.437
33697W        W 6122  11.684  35.001   3.644
33698W        W 6123  15.711  38.907   5.250
33699W        W 6124  37.581   3.376  10.975
33700W        W 6125  24.040   8.229   3.679
33701W        W 6126  29.463  33.469   2.688
33702W        W 6127   3.370  36.490  12.997
33703W        W 6128  26.082  27.606  10.998
33704W        W 6129  44.389  37.021   1.883
33705W        W 6130  43.991  17.649  14.783
33706W        W 6131  12.749   8.330   2.882
33707W        W 6132  21.641  18.249   0.827
33708W        W 6133  10.776  43.819   4.113
33709W        W 6134  27.509  24.134  11.980
33710W        W 6135  34.963   5.206  14.894
33711W        W 6136  20.531  31.933  13.348
33712W        W 6137   2.788  21.168   4.702
33713W        W 6138  43.013   3.842  12.435
33714W        W 6139   5.818  28.640  10.497
33715W        W 6140  13.828   7.835   4.287
33716W        W 6141  43.494  43.834   3.280
33717W        W 6142  16.668  44.787  12.503
33718W        W 6143  43.989  10.359   2.736
33719W        W 6144   0.806   0.408   0.942
33720W        W 6145  43.355  29.629  12.885
33721W        W 6146   8.255  11.175  13.968
33722W        W 6147  26.604  23.003   4.693
33723W        W 6148   4.828  42.514  12.991
33724W        W 6149   6.269  35.058   1.339
33725W        W 6150   6.216  15.327  12.454
33726W        W 6151  18.675   7.788  11.917
33727W        W 6152  41.839  39.967   0.958
33728W        W 6153   9.712  33.443  11.107
33729W        W 6154  24.655  21.731   0.370
33730W        W 6155  35.362   7.804   5.206
33731W        W 6156  16.134  11.659  12.367
33732W        W 6157   1.390   8.211  12.856
33733W        W 6158   9.333   5.803  13.364
33734W        W 6159  36.919  33.031   1.340
33735W        W 6160  35.998   9.386   1.239
33736W        W 6161   8.665   0.483  12.054
33737W        W 6162  35.572  13.667   1.420
33738W        W 6163  16.685  40.352  12.881
33739W        W 6164  24.076  44.458   0.446
33740W        W 6165  15.747  27.972   5.239
33741W        W 6166   1.857  26.539   3.340
33742W        W 6167   0.929  27.035   4.235
33743W        W 6168  31.470   6.728   2.859
33744W        W 6169  44.909  18.702  13.963
33745W        W 6170  41.294   6.208  14.817
33746W        W 6171  24.507  27.102   4.598
33747W        W 6172  44.291  32.130  11.926
33748W        W 6173   2.231  15.736   4.353
33749W        W 6174   6.829  33.996  12.057
33750W        W 6175   7.863  22.650   5.229
33751W        W 6176   0.267  13.270  10.988
33752W        W 6177   4.306   4.757   4.836
33753W        W 6178  11.339  27.122  14.388
33754W        W 6179  33.528  43.875   0.366
33755W        W 6180   9.720  13.697   3.807
33756W        W 6181   9.299   4.934  10.579
33757W        W 6182  32.122  43.927  12.461
33758W        W 6183  16.762  17.079  12.910
33759W        W 6184   2.882  41.816   4.271
33760W        W 6185  13.196  19.051   4.172
33761W        W 6186   1.269  19.146  12.968
33762W        W 6187  13.616  37.335   3.775
33763W        W 6188  30.045  40.458   3.362
33764W        W 6189  29.145  29.953  10.948
33765W        W 6190   4.853  13.644   0.878
33766W        W 6191  15.323  16.084  10.961
33767W        W 6192  39.065  13.732   2.276
33768W        W 6193  38.890  27.968  14.949
33769W        W 6194  35.463  17.133   4.231
33770W        W 6195  17.278  18.732  11.106
33771W        W 6196  23.509  20.686  10.635
33772W        W 6197  29.480  34.421   3.725
33773W        W 6198  35.424   0.847   2.803
33774W        W 6199  16.761  39.376  14.891
33775W        W 6200   1.853  15.143   3.349
33776W        W 6201  19.752  26.546   2.673
33777W        W 6202  42.434  14.266   1.238
33778W        W 6203  18.240  34.909   4.825
33779W        W 6204  25.471   4.850  13.524
33780W        W 6205  25.120  30.436   5.113
33781W        W 6206  31.413   7.864   0.251
33782W        W 6207  26.181   6.821   1.420
33783W        W 6208  15.318  37.012   3.702
33784W        W 6209   1.360  36.510  12.516
33785W        W 6210  29.129  18.136  10.991
33786W        W 6211   3.903  43.953  13.390
33787W        W 6212  41.438  35.373  12.393
33788W        W 6213  36.915  44.797   3.656
33789W        W 6214   4.782  34.560  10.518
33790W        W 6215  37.839  33.096  13.450
33791W        W 6216  22.131   8.891   2.396
33792W        W 6217   1.333  18.287   1.378
33793W        W 6218  30.547  12.285  12.398
33794W        W 6219  38.960  26.061   2.198
33795W        W 6220  15.646  34.553   0.370
33796W        W 6221  37.908  34.547   4.699
33797W        W 6222  41.348  31.451  12.985
33798W        W 6223  38.885  14.261   3.815
33799W        W 6224   1.337  10.687   1.269
33800W        W 6225  26.106  28.653  12.495
33801W        W 6226  32.634  14.288  11.059
33802W        W 6227  39.388  42.476  13.910
33803W        W 6228  15.102   2.757   2.415
33804W        W 6229   0.773  15.310  11.963
33805W        W 6230  38.379   1.925   0.443
33806W        W 6231  40.353  27.665  14.359
33807W        W 6232   1.938  19.581  11.101
33808W        W 6233  21.566  34.431  11.114
33809W        W 6234   1.738  21.060  11.379
33810W        W 6235  16.798  27.567   2.357
33811W        W 6236  31.987  23.024   2.248
33812W        W 6237  32.523   1.779  12.056
33813W        W 6238  41.414  16.113  14.339
33814W        W 6239  29.531  16.089  12.841
33815W        W 6240  32.503  14.316  13.809
33816W        W 6241  11.142  23.628  13.957
33817W        W 6242  43.272  26.047  13.856
33818W        W 6243  43.293  22.091   1.254
33819W        W 6244  29.535  43.486  12.356
33820W        W 6245  23.096  29.486   3.317
33821W        W 6246  11.824  24.026  11.896
33822W        W 6247  39.974  20.682   5.091
33823W        W 6248  43.989  11.813  14.780
33824W        W 6249  12.666   9.652   2.344
33825W        W 6250  24.529  14.640   1.391
33826W        W 6251  29.039  28.968   1.926
33827W        W 6252   6.291  11.214   1.449
33828W        W 6253   7.856  34.887   4.786
33829W        W 6254  10.378  38.075  13.472
33830W        W 6255  16.756  14.717  12.925
33831W        W 6256  42.420  35.426   1.235
33832W        W 6257   3.299  15.721   1.754
33833W        W 6258  35.397   1.871   0.832
33834W        W 6259  38.998  44.396  14.411
33835W        W 6260  44.486  25.492  12.577
33836W        W 6261  28.175  40.822   2.379
33837W        W 6262  21.693  23.519  14.015
33838W        W 6263  12.275  13.273  14.471
33839W        W 6264  29.171  18.167   3.833
33840W        W 6265  34.460   8.665   0.822
33841W        W 6266   1.377  32.975  14.377
33842W        W 6267  27.608   5.220  14.902
33843W        W 6268  30.458  15.816   4.776
33844W        W 6269  16.719  39.392  11.371
33845W        W 6270   3.388  21.202   1.884
33846W        W 6271  10.296   2.322  14.415
33847W        W 6272  25.969  26.630   4.190
33848W        W 6273  27.980  12.158   1.405
33849W        W 6274  18.557  32.391  13.998
33850W        W 6275  22.654   0.966   2.200
33851W        W 6276  40.905   6.377   4.766
33852W        W 6277  28.142  36.352   0.387
33853W        W 6278   0.371  17.717  13.378
33854W        W 6279  33.043  18.690   3.856
33855W        W 6280   6.312  15.758  10.030
33856W        W 6281  10.836  42.336   0.450
33857W        W 6282   8.714  22.143   1.355
33858W        W 6283   0.349  28.646  13.506
33859W        W 6284  34.927  42.467   3.241
33860W        W 6285  33.395  14.699   1.239
33861W        W 6286  34.444  13.116  13.512
33862W        W 6287  44.486  14.685   2.782
33863W        W 6288  12.846  22.029   0.477
33864W        W 6289   0.985  10.311   3.667
33865W        W 6290  20.652  22.738   3.155
33866W        W 6291  44.815   5.927  14.423
33867W        W 6292  25.109  16.782   4.642
33868W        W 6293  21.519  26.699  12.944
33869W        W 6294  31.489  16.625  12.954
33870W        W 6295   1.830   9.766  11.469
33871W        W 6296  22.527  35.475  10.887
33872W        W 6297  44.493  14.707   0.427
33873W        W 6298   5.219  40.430   2.662
33874W        W 6299  16.704  39.021  12.062
33875W        W 6300  26.092  20.088  13.003
33876W        W 6301  38.440  28.045  10.427
33877W        W 6302  18.229  21.149   1.839
33878W        W 6303  42.470  20.755   3.818
33879W        W 6304  39.910  28.965  13.321
33880W        W 6305   9.849  39.860   4.705
33881W        W 6306   5.744  23.187   4.168
33882W        W 6307  28.524  25.668   3.634
33883W        W 6308  35.481  30.011  12.465
33884W        W 6309  23.734  43.288   0.913
33885W        W 6310  30.645  29.968  12.361
33886W        W 6311   2.904  26.647  11.500
33887W        W 6312  25.982  43.950  12.914
33888W        W 6313  44.351  12.835   1.338
33889W        W 6314   1.404   1.333  12.501
33890W        W 6315  42.508  43.424   1.724
33891W        W 6316  12.764  24.547  10.900
33892W        W 6317  30.988  37.878  11.558
33893W        W 6318  25.172  22.611   0.263
33894W        W 6319   2.832   8.805  11.532
33895W        W 6320   6.799  15.720   1.782
33896W        W 6321   1.840  22.105  13.523
33897W        W 6322  33.599  26.156  10.928
33898W        W 6323   1.354  14.192   0.339
33899W        W 6324  35.947  21.682  10.465
33900W        W 6325   2.745   7.818   4.625
33901W        W 6326   4.846  33.911   0.960
33902W        W 6327   3.735   7.692  11.582
33903W        W 6328  32.562   5.727   1.857
33904W        W 6329  42.814  35.384   1.742
33905W        W 6330  11.630   7.678  13.514
33906W        W 6331  23.620  34.949  14.866
33907W        W 6332  10.712  14.777  14.817
33908W        W 6333  30.089  42.404   3.244
33909W        W 6334  20.603  27.492  11.430
33910W        W 6335  32.912  11.827   4.645
33911W        W 6336  23.494  41.380  14.882
33912W        W 6337  42.025  23.681   4.793
33913W        W 6338   1.954  28.983   0.293
33914W        W 6339  18.068  26.137  13.005
33915W        W 6340  12.159  16.192  11.123
33916W        W 6341  14.173  30.911   3.824
33917W        W 6342  29.655  36.397   0.888
33918W        W 6343  11.320   1.336   1.369
33919W        W 6344  11.669  16.708   3.311
33920W        W 6345  42.512   2.417   4.738
33921W        W 6346  13.180  33.420   1.447
33922W        W 6347   6.188   5.404  11.874
33923W        W 6348  22.014   3.450   4.169
33924W        W 6349  29.153  31.514  10.976
33925W        W 6350   5.403  44.267  13.881
33926W        W 6351  41.392  32.979   3.840
33927W        W 6352  15.743  30.037  12.440
33928W        W 6353   1.347   5.793  10.463
33929W        W 6354   4.898  38.516  14.446
33930W        W 6355  26.165  33.560   2.695
33931W        W 6356  28.026  40.856  10.411
33932W        W 6357  26.587  22.606  14.030
33933W        W 6358  42.428  18.074  12.035
33934W        W 6359  42.928  14.288   1.371
33935W        W 6360  18.194   5.807  11.960
33936W        W 6361  15.186  39.546  14.954
33937W        W 6362  39.473  16.310   4.648
33938W        W 6363  40.448  15.629  14.874
33939W        W 6364  25.085   8.199  11.862
33940W        W 6365  14.185  18.201   1.450
33941W        W 6366   2.954  17.595   3.308
33942W        W 6367   6.915  37.947  10.968
33943W        W 6368  15.245  44.469   1.374
33944W        W 6369  41.034  36.914   3.762
33945W        W 6370  15.237  37.479   1.793
33946W        W 6371  12.722  19.249  10.444
33947W        W 6372  23.548  27.145  14.029
33948W        W 6373  27.053  24.638  11.008
33949W        W 6374   4.888  38.861   0.387
33950W        W 6375  21.045   9.694   3.763
33951W        W 6376  13.840  38.999  12.027
33952W        W 6377  25.496  11.623   0.852
33953W        W 6378  35.531  11.296   3.358
33954W        W 6379  27.452  26.135   4.618
33955W        W 6380  24.054  10.757  11.897
33956W        W 6381  35.420  29.664  13.454
33957W        W 6382   5.255  34.067  11.383
33958W        W 6383   8.394  22.718  13.324
33959W        W 6384  19.262   5.775  13.307
33960W        W 6385  40.797  42.527  13.513
33961W        W 6386  21.169   7.338   4.312
33962W        W 6387   2.270   2.758  11.858
33963W        W 6388  34.909  12.735  14.288
33964W        W 6389  18.784  12.250  11.374
33965W        W 6390   3.432  44.336  12.043
33966W        W 6391  36.575  40.861  11.409
33967W        W 6392  20.073  10.681   9.983
33968W        W 6393  43.929  38.929  13.487
33969W        W 6394  14.115  26.503   3.691
33970W        W 6395  13.221  11.203   4.805
33971W        W 6396   7.386  40.404   0.408
33972W        W 6397  33.461  20.146  14.781
33973W        W 6398   7.862  34.949   1.320
33974W        W 6399  22.127  27.513   2.692
33975W        W 6400  21.226  38.523  14.933
33976W        W 6401   6.802   8.741  12.945
33977W        W 6402  26.026  17.105  12.383
33978W        W 6403  33.488  28.515   2.338
33979W        W 6404  15.795  15.786  14.340
33980W        W 6405  14.237  34.045  11.046
33981W        W 6406  37.910  41.315  14.347
33982W        W 6407  34.959   1.454  10.995
33983W        W 6408  43.328  16.678   1.812
33984W        W 6409  10.786   7.338  12.481
33985W        W 6410  32.533  20.180   1.430
33986W        W 6411  12.780  42.960  11.112
33987W        W 6412  26.549  19.128   0.359
33988W        W 6413  32.955  25.050  11.496
33989W        W 6414  31.456  32.532  13.951
33990W        W 6415   3.251   6.227   1.742
33991W        W 6416  27.965  37.021   4.266
33992W        W 6417   6.790  13.234  10.429
33993W        W 6418  31.563  24.493  14.480
33994W        W 6419   7.718   4.401   2.293
33995W        W 6420  10.383   4.227  11.449
33996W        W 6421  25.051  24.093  14.007
33997W        W 6422   3.797  29.929  10.531
33998W        W 6423   5.299   0.330   2.849
33999W        W 6424   7.385  27.109   0.856
34000W        W 6425  17.136  28.180  12.981
34001W        W 6426  44.915  10.748  12.015
34002W        W 6427   3.216   9.793  13.864
34003W        W 6428  17.648   7.276   2.741
34004W        W 6429  15.603   5.276   1.934
34005W        W 6430   6.322  15.704   4.627
34006W        W 6431  18.245  41.936   0.759
34007W        W 6432   6.227  33.879  14.317
34008W        W 6433  21.617   7.377   2.765
34009W        W 6434  39.495  40.359   3.720
34010W        W 6435  24.645  39.368  11.025
34011W        W 6436  22.543  25.504   4.656
34012W        W 6437   7.250  21.594  11.387
34013W        W 6438  34.945  15.623  14.457
34014W        W 6439  21.041  37.501  11.110
34015W        W 6440  44.330  11.219   0.816
34016W        W 6441  18.552   6.889   1.885
34017W        W 6442  40.455   4.335  12.519
34018W        W 6443  18.773  39.406  10.972
34019W        W 6444   6.182  35.375  12.476
34020W        W 6445  14.606  38.571  14.482
34021W        W 6446  43.279  14.283   3.651
34022W        W 6447  25.519  14.760  12.994
34023W        W 6448  33.418  43.938   2.698
34024W        W 6449  32.428  39.988   3.265
34025W        W 6450  30.918   2.349  13.402
34026W        W 6451  12.851  13.312   4.354
34027W        W 6452   1.766  35.505   4.118
34028W        W 6453   2.723  39.026  11.528
34029W        W 6454   8.372  38.465   0.858
34030W        W 6455  34.938   4.368  12.991
34031W        W 6456  12.221  18.236  13.360
34032W        W 6457  25.702  28.953   0.249
34033W        W 6458   2.773  40.355   1.353
34034W        W 6459  10.756  31.046  11.864
34035W        W 6460  17.687  23.203  10.977
34036W        W 6461  42.023  43.446  10.641
34037W        W 6462  20.544  22.556   4.773
34038W        W 6463   7.686  16.804  13.443
34039W        W 6464   8.174   6.199   1.447
34040W        W 6465  30.025  24.710  14.416
34041W        W 6466  31.594  15.150   2.710
34042W        W 6467  20.175  11.867   2.819
34043W        W 6468  22.735  22.071   1.852
34044W        W 6469  29.052   1.273  13.015
34045W        W 6470  28.146  33.563  13.793
34046W        W 6471  42.946  39.925   2.254
34047W        W 6472  34.961  15.139  11.053
34048W        W 6473   7.177  35.070   1.865
34049W        W 6474  17.166  29.945  13.885
34050W        W 6475  29.955  38.878  14.391
34051W        W 6476  19.054  10.814   3.786
34052W        W 6477   5.830  11.208  11.898
34053W        W 6478  31.000  21.671   3.360
34054W        W 6479   0.448  21.584   3.246
34055W        W 6480  23.069  38.821   3.321
34056W        W 6481  33.877  21.163  10.154
34057W        W 6482  36.422  25.656  13.542
34058W        W 6483   9.669  44.863  10.626
34059W        W 6484   9.716  31.031  12.981
34060W        W 6485  26.576  17.282   2.413
34061W        W 6486   1.353  33.969   1.789
34062W        W 6487  30.464   9.174   3.675
34063W        W 6488  32.054  28.932  13.882
34064W        W 6489  16.280  44.447   1.402
34065W        W 6490  23.006  41.903   1.915
34066W        W 6491  37.480  37.002   0.928
34067W        W 6492  36.484   9.768   1.429
34068W        W 6493  15.328  19.612  14.427
34069W        W 6494   1.386  24.031  13.533
34070W        W 6495  12.634  21.195   3.200
34071W        W 6496  11.858  24.676   2.399
34072W        W 6497  30.037   5.780  14.768
34073W        W 6498  31.152  30.478  14.987
34074W        W 6499   6.869  20.729   1.342
34075W        W 6500  22.050  27.654   1.432
34076W        W 6501  14.631  28.954   4.254
34077W        W 6502  15.774  11.763  14.490
34078W        W 6503   5.327  12.708  13.961
34079W        W 6504  31.043  44.308  13.898
34080W        W 6505  22.643  41.434   3.793
34081W        W 6506  44.478  24.616  10.521
34082W        W 6507   2.331  40.882   2.897
34083W        W 6508  36.584   9.690  12.488
34084W        W 6509  34.940  40.311   4.766
34085W        W 6510  15.161  28.001  12.983
34086W        W 6511   8.394  31.540   2.221
34087W        W 6512  23.656  18.718  10.576
34088W        W 6513  27.501   0.481   0.366
34089W        W 6514  18.220   4.408  14.379
34090W        W 6515  21.031  22.745   1.427
34091W        W 6516  32.445  34.614   1.786
34092W        W 6517  44.280  27.576  13.425
34093W        W 6518  35.585  14.641   0.951
34094W        W 6519  39.879  43.421   3.647
34095W        W 6520  24.115  29.954  12.533
34096W        W 6521   0.258   2.759   4.351
34097W        W 6522  41.460  17.087  13.447
34098W        W 6523  39.883  33.505  13.834
34099W        W 6524  20.142  18.714  12.858
34100W        W 6525   2.263  10.234   5.208
34101W        W 6526  32.429  42.884  11.480
34102W        W 6527  33.618  31.606  12.423
34103W        W 6528  39.943   3.956   0.253
34104W        W 6529  18.654   7.342   0.400
34105W        W 6530  26.599  19.147   1.732
34106W        W 6531  10.680  38.353  14.908
34107W        W 6532  23.985  26.010   3.329
34108W        W 6533  29.625   9.270  11.914
34109W        W 6534  18.193  31.034   0.417
34110W        W 6535  24.660  28.502   0.245
34111W        W 6536  15.314  27.969  13.437
34112W        W 6537  15.596  31.565  12.093
34113W        W 6538  33.090   4.816   1.717
34114W        W 6539   6.777  20.043  13.853
34115W        W 6540  40.447  31.567   1.754
34116W        W 6541  33.523  20.754  13.876
34117W        W 6542  24.511  29.033   3.162
34118W        W 6543  24.973  32.469  11.445
34119W        W 6544  18.654  28.629   4.827
34120W        W 6545  15.757   5.395  12.395
34121W        W 6546  43.380  29.540   1.899
34122W        W 6547  27.009  30.003   4.328
34123W        W 6548  12.679  17.572   4.715
34124W        W 6549   5.371  26.628  10.961
34125W        W 6550  44.337  32.562   0.316
34126W        W 6551  29.952  27.448  11.879
34127W        W 6552  26.560  27.967   1.753
34128W        W 6553  29.155  39.343   4.623
34129W        W 6554  21.582  25.969   2.878
34130W        W 6555  10.760  18.573   0.921
34131W        W 6556  36.567   8.244  12.068
34132W        W 6557  17.238  26.005  10.591
34133W        W 6558  18.062  14.682  13.893
34134W        W 6559   2.781  11.672  11.520
34135W        W 6560   2.811  20.254   3.711
34136W        W 6561  35.986  43.459  14.513
34137W        W 6562  19.605  35.994   4.338
34138W        W 6563  10.746  17.134   3.213
34139W        W 6564  36.517   5.797  12.979
34140W        W 6565  38.941  44.778   3.251
34141W        W 6566  15.641  34.970   0.391
34142W        W 6567  24.219   6.898   2.370
34143W        W 6568   6.894  42.492  10.485
34144W        W 6569  32.574  34.378  10.479
34145W        W 6570  28.181  28.156   4.822
34146W        W 6571   7.199  14.126  14.894
34147W        W 6572  37.835   0.460   1.875
34148W        W 6573  13.820  15.622   0.955
34149W        W 6574   1.283  43.444   1.222
34150W        W 6575  39.321  29.990  13.967
34151W        W 6576   7.808  40.864  13.827
34152W        W 6577  19.196   5.396  13.544
34153W        W 6578  29.598  18.132  10.476
34154W        W 6579  16.159   4.809   0.869
34155W        W 6580  16.595   5.315   2.662
34156W        W 6581  17.125  32.414  11.393
34157W        W 6582  23.116  17.198  12.915
34158W        W 6583   9.336  31.467  12.888
34159W        W 6584  18.596  27.515   2.667
34160W        W 6585  18.587  29.668   0.808
34161W        W 6586  26.505  43.766  13.403
34162W        W 6587  37.870  42.391   4.726
34163W        W 6588   5.246  34.986   0.318
34164W        W 6589   6.388  28.584  10.576
34165W        W 6590  29.478   3.773  10.956
34166W        W 6591   4.853  17.171   4.746
34167W        W 6592   9.298  18.155  12.082
34168W        W 6593  14.166  33.049   5.255
34169W        W 6594  41.930  34.381   4.623
34170W        W 6595  17.075  18.631   0.856
34171W        W 6596  16.670  18.634   1.382
34172W        W 6597   3.250  30.640   4.353
34173W        W 6598   2.930  13.809   4.661
34174W        W 6599   4.799  39.821  14.914
34175W        W 6600   8.804  25.023  13.920
34176W        W 6601  22.191  17.157  14.880
34177W        W 6602  41.819  28.961   2.228
34178W        W 6603   9.663  12.209   0.888
34179W        W 6604  22.062  13.679  10.460
34180W        W 6605   6.826  39.967   1.368
34181W        W 6606  41.359  36.099  11.967
34182W        W 6607  40.872  25.686   4.279
34183W        W 6608   5.917  11.685  10.421
34184W        W 6609  22.527  12.681   1.413
34185W        W 6610  25.537  39.364  10.930
34186W        W 6611   8.338  41.532  14.920
34187W        W 6612  42.778   7.380  11.411
34188W        W 6613   4.749  40.430   1.271
34189W        W 6614  12.611   3.812  12.392
34190W        W 6615  19.659  13.268   2.266
34191W        W 6616  27.484  14.099  13.512
34192W        W 6617   8.224   3.216   2.360
34193W        W 6618  26.481  40.324   0.320
34194W        W 6619  40.455  12.847   1.396
34195W        W 6620  36.857  18.220   3.276
34196W        W 6621  38.526  35.594   3.302
34197W        W 6622  26.573  29.086   4.628
34198W        W 6623   8.699  36.555  11.063
34199W        W 6624   4.223  18.610   0.438
34200W        W 6625  21.167   0.817  14.764
34201W        W 6626  15.191  43.462  12.028
34202W        W 6627  17.582   9.255   1.779
34203W        W 6628  28.509  42.026  10.484
34204W        W 6629  13.307  37.055   3.843
34205W        W 6630   9.683  35.361  12.400
34206W        W 6631  22.722   6.342   4.708
34207W        W 6632  11.228  39.512   2.747
34208W        W 6633  35.087  19.723   2.738
34209W        W 6634   9.265  41.792   0.246
34210W        W 6635  36.552   8.327   2.205
34211W        W 6636  12.725   4.335   9.655
34212W        W 6637  26.013  29.443   0.317
34213W        W 6638  17.183  35.959  10.961
34214W        W 6639  27.464  13.167  14.491
34215W        W 6640  27.185  28.477   1.342
34216W        W 6641  38.028  41.817   1.913
34217W        W 6642  23.188  16.216  13.358
34218W        W 6643  39.875  24.630  14.515
34219W        W 6644  28.602  18.255  11.451
34220W        W 6645  33.598   0.866  12.866
34221W        W 6646  42.298  41.427  13.451
34222W        W 6647  42.385  37.502   1.730
34223W        W 6648  11.640  14.235   0.759
34224W        W 6649  18.633  16.221   1.827
34225W        W 6650  26.124  24.561   1.880
34226W        W 6651  39.018   0.756  13.373
34227W        W 6652  39.504  44.754   0.794
34228W        W 6653   5.392  30.550   4.824
34229W        W 6654  15.753   6.702  13.929
34230W        W 6655  13.744  43.317  10.926
34231W        W 6656   0.483  14.687  14.474
34232W        W 6657  24.223  38.019   0.257
34233W        W 6658  28.143   1.896  14.845
34234W        W 6659  42.376  11.849   2.341
34235W        W 6660   2.411  38.897  12.449
34236W        W 6661  27.107  26.509   4.235
34237W        W 6662  27.492   1.875   1.436
34238W        W 6663  32.502  42.814  11.047
34239W        W 6664  11.728  29.520   2.280
34240W        W 6665  38.395  21.040   0.895
34241W        W 6666  38.329   9.158   9.947
34242W        W 6667  20.608  20.609   4.797
34243W        W 6668  15.647  13.252  13.357
34244W        W 6669  15.322   8.775  13.461
34245W        W 6670  20.242  37.985  11.861
34246W        W 6671  13.131  31.109  12.091
34247W        W 6672  44.902  24.539  10.555
34248W        W 6673   8.264  32.997   2.725
34249W        W 6674  14.279  41.392   0.378
34250W        W 6675  41.365  44.459   3.340
34251W        W 6676  38.944  29.560   0.735
34252W        W 6677  32.990  28.438  11.018
34253W        W 6678  21.038  21.178  11.398
34254W        W 6679   9.238   8.236  12.052
34255W        W 6680   2.393  26.628   0.734
34256W        W 6681   3.353  36.474  13.980
34257W        W 6682  17.068   4.215   1.231
34258W        W 6683  30.078  35.475  11.976
34259W        W 6684  32.926  11.314  12.577
34260W        W 6685   2.461  14.189   2.198
34261W        W 6686  11.305  44.939  13.350
34262W        W 6687  42.854  37.429   2.765
34263W        W 6688  22.041  25.197   0.247
34264W        W 6689   0.330  24.169   0.833
34265W        W 6690  39.893  28.135   1.880
34266W        W 6691  30.548  26.579   2.414
34267W        W 6692   1.815   6.856   2.755
34268W        W 6693  39.829   5.827  14.383
34269W        W 6694  37.569  21.042  11.047
34270W        W 6695  32.519   6.726   1.857
34271W        W 6696  28.475  21.659   4.210
34272W        W 6697  18.198  20.704   0.388
34273W        W 6698  29.450  12.127  10.608
34274W        W 6699   8.715   3.305  14.871
34275W        W 6700  14.693  13.727   3.737
34276W        W 6701  10.634  34.479   1.736
34277W        W 6702  14.112  23.630  14.485
34278W        W 6703  44.357   0.363   0.885
34279W        W 6704   9.346   8.257   4.302
34280W        W 6705   5.235  25.995   3.639
34281W        W 6706  12.141  14.784  13.974
34282W        W 6707  36.409  41.935  14.487
34283W        W 6708  20.182   4.304   0.449
34284W        W 6709  36.364  14.761   2.184
34285W        W 6710  13.751  32.902   1.701
34286W        W 6711  23.719  13.306   4.229
34287W        W 6712  40.336  29.107  12.901
34288W        W 6713   7.179  14.829   4.195
34289W        W 6714  33.399   2.861  11.052
34290W        W 6715   8.162   4.208   4.720
34291W        W 6716  24.140  34.373  14.513
34292W        W 6717  33.566  24.069   3.381
34293W        W 6718  35.444  29.138  13.491
34294W        W 6719  17.673   9.292  11.427
34295W        W 6720  31.026   7.203  10.095
34296W        W 6721  16.316  13.814   4.197
34297W        W 6722  31.593  27.672   4.732
34298W        W 6723  20.747   0.457  14.278
34299W        W 6724  37.487  10.343   2.803
34300W        W 6725   9.843  12.251  14.806
34301W        W 6726  10.875  35.076  13.386
34302W        W 6727  23.013  22.198   2.821
34303W        W 6728   4.884  11.640   3.274
34304W        W 6729  18.776  37.058   2.885
34305W        W 6730  21.564  15.714  13.967
34306W        W 6731  43.436  24.716   1.279
34307W        W 6732  21.531  34.936   4.829
34308W        W 6733  14.209  33.448   5.294
34309W        W 6734  30.433  26.564  11.916
34310W        W 6735  42.020  39.428   2.803
34311W        W 6736  20.629  30.977   2.861
34312W        W 6737  28.959   5.436   1.286
34313W        W 6738  37.472  10.366  12.040
34314W        W 6739  25.096  11.363  12.892
34315W        W 6740   6.864  19.774  14.767
34316W        W 6741  35.946  29.985   1.706
34317W        W 6742  44.332  16.230  11.381
34318W        W 6743  37.341  10.790   0.872
34319W        W 6744  12.166  19.283   4.162
34320W        W 6745  26.118   8.270  13.979
34321W        W 6746   8.386  31.548   3.289
34322W        W 6747  26.456   0.286   0.852
34323W        W 6748   4.428  33.598   1.370
34324W        W 6749  12.284  43.442   4.327
34325W        W 6750  27.095  31.011  12.063
34326W        W 6751  32.441  33.575  13.363
34327W        W 6752   6.896  13.176  13.484
34328W        W 6753  33.878  40.985   2.756
34329W        W 6754  39.391  29.018  13.030
34330W        W 6755  29.659  32.932  12.476
34331W        W 6756  28.612  12.648  12.079
34332W        W 6757  13.285  37.907  14.486
34333W        W 6758   9.185  27.137  13.486
34334W        W 6759  39.464   5.239  14.977
34335W        W 6760  32.404  13.621  10.582
34336W        W 6761   1.338  31.582   1.384
34337W        W 6762  37.461  35.468  13.432
34338W        W 6763   5.781  25.067   2.822
34339W        W 6764  10.232  12.285  13.508
34340W        W 6765  43.782  40.813   4.825
34341W        W 6766  44.813  16.625  12.952
34342W        W 6767  13.112  44.368  12.344
34343W        W 6768  12.654  35.458   3.820
34344W        W 6769  14.176  41.830   1.377
34345W        W 6770  41.937  35.862  10.063
34346W        W 6771  44.858  32.057   4.121
34347W        W 6772  29.552  18.186   3.802
34348W        W 6773  39.048  35.940   1.716
34349W        W 6774  42.950  16.098  12.513
34350W        W 6775   2.359  19.570   4.736
34351W        W 6776  33.951  14.334  14.794
34352W        W 6777  13.608   4.288  13.032
34353W        W 6778  17.246  15.211   0.461
34354W        W 6779  17.158  20.753   2.374
34355W        W 6780  43.420  25.140   2.315
34356W        W 6781   6.842   6.359   4.339
34357W        W 6782  20.071  24.555  14.952
34358W        W 6783  40.549  39.341  12.834
34359W        W 6784   7.321  24.707  11.022
34360W        W 6785  22.101  43.294   0.304
34361W        W 6786  37.881  11.289   1.761
34362W        W 6787   5.391  39.972  11.551
34363W        W 6788  22.508  39.876  10.506
34364W        W 6789  41.955  27.168   2.680
34365W        W 6790  26.491  44.961  13.519
34366W        W 6791   4.880  12.735   4.831
34367W        W 6792  11.661  24.556   5.582
34368W        W 6793  16.583  15.801   2.857
34369W        W 6794  29.549   4.325   3.221
34370W        W 6795  14.676   2.822  13.389
34371W        W 6796  40.311   1.379   2.371
34372W        W 6797   1.357  26.663   3.630
34373W        W 6798  30.001  44.286   0.387
34374W        W 6799  24.121   5.303   2.360
34375W        W 6800  23.106  26.139  12.032
34376W        W 6801   9.667   9.682  10.408
34377W        W 6802  30.113   3.846  12.067
34378W        W 6803  26.204  20.751  12.454
34379W        W 6804  18.084  23.540   0.757
34380W        W 6805  26.966   1.937   2.773
34381W        W 6806   6.742  20.565  10.518
34382W        W 6807  39.347  43.380  12.452
34383W        W 6808   1.750  31.574   4.668
34384W        W 6809  21.653  14.268  11.977
34385W        W 6810  18.590  12.697  14.368
34386W        W 6811   3.928  22.189   1.382
34387W        W 6812  27.492   8.170   0.284
34388W        W 6813  33.608  24.718  10.106
34389W        W 6814  15.814  39.953   4.280
34390W        W 6815  43.910  17.719   2.353
34391W        W 6816  11.739   3.383   2.868
34392W        W 6817   7.871  41.975  10.637
34393W        W 6818  43.966  10.138  11.874
34394W        W 6819  31.997  38.895   4.117
34395W        W 6820  16.715  25.188  11.967
34396W        W 6821  14.679   1.317  11.069
34397W        W 6822  11.160   8.671  12.379
34398W        W 6823  13.226  25.050   3.153
34399W        W 6824  14.144  31.558   3.837
34400W        W 6825   3.853  21.605  12.082
34401W        W 6826  32.394   8.232   2.329
34402W        W 6827  21.595  31.518  14.417
34403W        W 6828  39.898  32.486  13.475
34404W        W 6829  13.643  39.415   4.148
34405W        W 6830  11.714  20.585   0.352
34406W        W 6831   0.492  37.576   4.759
34407W        W 6832  29.956  35.057  14.371
34408W        W 6833  30.443  12.664  11.060
34409W        W 6834  13.166  13.308   2.774
34410W        W 6835  36.846   2.253   0.399
34411W        W 6836  32.080  12.123   2.314
34412W        W 6837  24.692  24.681   0.815
34413W        W 6838  23.202  42.948   0.750
34414W        W 6839  41.997  40.012  12.862
34415W        W 6840  19.228  16.811  13.314
34416W        W 6841   4.410  30.050  12.020
34417W        W 6842  28.084   5.406  11.503
34418W        W 6843  16.255  43.302   3.631
34419W        W 6844  13.244  17.212   3.709
34420W        W 6845  27.994  13.717   1.893
34421W        W 6846  36.464  33.011   0.804
34422W        W 6847   2.307  43.976  12.992
34423W        W 6848  41.814  10.736  12.577
34424W        W 6849  32.891  31.146  11.128
34425W        W 6850   3.915  37.507  10.050
34426W        W 6851  29.430   3.829  14.831
34427W        W 6852   9.348  26.601   2.286
34428W        W 6853  41.526  26.175   0.942
34429W        W 6854   9.273  41.836   1.806
34430W        W 6855  33.578  33.918   1.849
34431W        W 6856   7.850  25.986   3.255
34432W        W 6857  40.490  33.125  11.904
34433W        W 6858  18.716  24.110  10.102
34434W        W 6859  33.424  19.587  12.073
34435W        W 6860  37.900   0.814   2.310
34436W        W 6861  35.965   3.417  11.862
34437W        W 6862  10.323  39.018  12.509
34438W        W 6863  13.330   0.248   4.837
34439W        W 6864  21.094  16.694   9.997
34440W        W 6865  13.136  33.545   5.228
34441W        W 6866  41.504  20.183  14.894
34442W        W 6867  36.916  29.512   2.894
34443W        W 6868   4.246   5.359   2.884
34444W        W 6869  10.175  25.637   4.280
34445W        W 6870  14.701  17.245  12.903
34446W        W 6871  35.910   3.721   1.716
34447W        W 6872  20.182   8.869   1.771
34448W        W 6873  34.566  37.900   0.748
34449W        W 6874  42.858   5.308  10.891
34450W        W 6875   0.419  31.047   3.204
34451W        W 6876  35.530  18.081   2.250
34452W        W 6877   6.302   4.791   3.315
34453W        W 6878  28.979  16.096  14.848
34454W        W 6879  31.475  25.480   0.442
34455W        W 6880   1.911  23.594  13.326
34456W        W 6881  12.752  42.901   2.400
34457W        W 6882  21.758  42.470   4.837
34458W        W 6883   2.770   7.405   1.371
34459W        W 6884  31.484  26.470   1.755
34460W        W 6885  10.230  23.102  13.031
34461W        W 6886   8.265  22.650  14.349
34462W        W 6887  34.477  32.963   2.390
34463W        W 6888  40.439  27.451   0.243
34464W        W 6889  36.500   1.875  11.088
34465W        W 6890  13.155  19.159   3.666
34466W        W 6891  26.098  37.413   1.843
34467W        W 6892  11.170  17.784   3.382
34468W        W 6893  39.510  17.740  14.399
34469W        W 6894  39.509  16.113  10.494
34470W        W 6895  26.049  33.524   5.099
34471W        W 6896  20.263   1.750   5.144
34472W        W 6897  39.031  22.069  11.408
34473W        W 6898  43.951  44.929  12.075
34474W        W 6899   1.972   3.780  13.003
34475W        W 6900  36.069  19.551  14.826
34476W        W 6901  22.138   0.975  14.005
34477W        W 6902  42.475  22.123   0.413
34478W        W 6903  29.930  15.746  11.533
34479W        W 6904  20.166  24.644  11.052
34480W        W 6905  31.910  32.922  11.546
34481W        W 6906  27.044  31.504  13.493
34482W        W 6907   0.916  13.154  14.854
34483W        W 6908   0.854  20.175  13.899
34484W        W 6909   2.452  25.670   4.742
34485W        W 6910   8.886  25.653  10.563
34486W        W 6911  15.610   1.813   3.699
34487W        W 6912  28.544  36.030   1.815
34488W        W 6913   9.168  20.056  13.373
34489W        W 6914  28.462  28.977   0.324
34490W        W 6915  18.780  36.019  12.888
34491W        W 6916  14.230  12.204  13.351
34492W        W 6917  17.260  38.497  12.095
34493W        W 6918  10.722  18.617  12.844
34494W        W 6919   1.735   0.313  12.091
34495W        W 6920  27.008  12.713  12.344
34496W        W 6921   9.775   0.364   2.728
34497W        W 6922  36.403  39.322  12.912
34498W        W 6923   3.734  16.607  11.600
34499W        W 6924  34.078  33.879  13.450
34500W        W 6925  36.514  42.822   0.282
34501W        W 6926  25.638  22.654  12.881
34502W        W 6927  33.082  37.398   2.798
34503W        W 6928  38.901  42.859  13.451
34504W        W 6929  13.823  37.420  11.570
34505W        W 6930  29.592  40.981   0.469
34506W        W 6931  23.048  24.664  11.526
34507W        W 6932  22.677   4.760   3.649
34508W        W 6933  38.844  38.571  11.080
34509W        W 6934  38.327  36.910  10.626
34510W        W 6935  34.452   4.771  14.004
34511W        W 6936  14.747  37.017   1.253
34512W        W 6937   1.305  38.943   0.940
34513W        W 6938  36.911   5.334  13.485
34514W        W 6939  16.175  42.816  11.019
34515W        W 6940  24.482   1.353   3.310
34516W        W 6941   7.804  39.438  14.471
34517W        W 6942  28.023  22.543   1.798
34518W        W 6943  16.777  43.881  13.918
34519W        W 6944   5.284  15.140  14.299
34520W        W 6945  22.072  12.834  10.442
34521W        W 6946   8.282   4.257  10.949
34522W        W 6947  29.549   4.857  14.940
34523W        W 6948  27.655  14.636  14.489
34524W        W 6949  41.945  40.925   2.336
34525W        W 6950  15.604  39.533   2.356
34526W        W 6951  41.336  18.622  14.329
34527W        W 6952   0.486  30.649   3.755
34528W        W 6953  16.737  17.103   0.751
34529W        W 6954  10.233  43.330  13.337
34530W        W 6955  36.383   7.801   1.784
34531W        W 6956  14.700  18.743   3.757
34532W        W 6957  41.821  30.010   3.156
34533W        W 6958  13.280  29.059   4.159
34534W        W 6959  39.319  10.310   2.735
34535W        W 6960  18.138  11.259  11.110
34536W        W 6961  42.508   8.169  10.946
34537W        W 6962  24.087  25.997   0.800
34538W        W 6963   4.274  27.083   0.271
34539W        W 6964  11.136  44.317   2.285
34540W        W 6965  27.133  40.446   0.886
34541W        W 6966  26.023  12.850   4.783
34542W        W 6967  42.284  19.630  11.111
34543W        W 6968  34.455  10.655  11.551
34544W        W 6969  40.545  42.459  11.127
34545W        W 6970  24.130   3.221   1.896
34546W        W 6971  19.739  11.373  13.940
34547W        W 6972  10.145  20.703   1.845
34548W        W 6973  38.407  33.415  14.392
34549W        W 6974  28.540  10.666  10.997
34550W        W 6975  38.974   2.464  14.480
34551W        W 6976  13.305  36.424   1.414
34552W        W 6977  26.626  33.031  13.548
34553W        W 6978   1.337   1.403  12.036
34554W        W 6979  10.308  13.207  10.609
34555W        W 6980   2.822   7.737   4.287
34556W        W 6981  43.820  17.080   0.846
34557W        W 6982  13.120  43.373  11.106
34558W        W 6983   3.812  11.791   1.285
34559W        W 6984   4.343  42.865  13.349
34560W        W 6985  31.463   7.327   0.368
34561W        W 6986  26.521  14.274   2.880
34562W        W 6987  12.844  37.892  10.950
34563W        W 6988  10.634  34.531   4.799
34564W        W 6989  37.414  35.931   3.210
34565W        W 6990  31.119  41.465  14.499
34566W        W 6991   6.843  31.444  13.944
34567W        W 6992  42.013  22.142   5.755
34568W        W 6993  32.594  36.560  13.546
34569W        W 6994  39.505  31.601   4.732
34570W        W 6995  29.066  33.002  12.564
34571W        W 6996  26.121  39.476   4.284
34572W        W 6997  28.044  40.475  10.626
34573W        W 6998  27.528   8.204   1.212
34574W        W 6999   4.366  19.597  13.426
34575W        W 7000  14.303  17.208   5.088
34576W        W 7001  12.273  35.929   3.255
34577W        W 7002  35.430  11.245  10.522
34578W        W 7003  30.424  15.236  11.115
34579W        W 7004  33.947  34.577   0.777
34580W        W 7005  20.562  36.553  12.493
34581W        W 7006  42.498  28.006   4.628
34582W        W 7007  41.518  29.006   2.221
34583W        W 7008  41.897   8.654   9.984
34584W        W 7009  29.507   2.899   1.787
34585W        W 7010  30.932   5.323   1.422
34586W        W 7011  37.367  44.789  12.567
34587W        W 7012  39.539  12.224   2.198
34588W        W 7013   5.430  18.621  14.980
34589W        W 7014  13.771   7.885   2.260
34590W        W 7015   7.666  27.983   4.636
34591W        W 7016  25.662  38.839  12.570
34592W        W 7017  44.370  20.053   1.252
34593W        W 7018   8.272  26.490   3.683
34594W        W 7019  44.963   6.411  10.545
34595W        W 7020   3.264  23.494  11.580
34596W        W 7021  18.146   1.933   3.794
34597W        W 7022  27.648   9.370   1.297
34598W        W 7023  15.617  21.611   1.887
34599W        W 7024  27.016  19.776  14.808
34600W        W 7025  27.082  18.099  12.862
34601W        W 7026  19.710  30.051   2.779
34602W        W 7027  10.320   0.449   5.150
34603W        W 7028  38.990  41.788  10.530
34604W        W 7029  40.460   5.237   4.233
34605W        W 7030  26.094   5.373   0.421
34606W        W 7031  36.978  37.517  12.028
34607W        W 7032   8.731  18.200   3.758
34608W        W 7033  44.334  18.253  11.989
34609W        W 7034  26.654  31.942  13.388
34610W        W 7035  40.506  42.990  13.919
34611W        W 7036  10.805  43.012  13.035
34612W        W 7037   6.381  32.432   3.190
34613W        W 7038  22.041  32.973  12.493
34614W        W 7039  33.921  14.334   2.747
34615W        W 7040  11.275  23.633   4.224
34616W        W 7041  31.013  29.603  10.553
34617W        W 7042  12.123  40.317  12.351
34618W        W 7043  24.585   6.320  14.776
34619W        W 7044   5.710  21.162  14.347
34620W        W 7045  13.801   9.244   4.618
34621W        W 7046  23.535   7.308  11.415
34622W        W 7047  19.060  42.993  10.525
34623W        W 7048   1.796  30.070   0.333
34624W        W 7049  38.502   2.866   1.417
34625W        W 7050  12.714   4.781   3.243
34626W        W 7051   8.834  20.166   3.842
34627W        W 7052   2.401   9.783  13.802
34628W        W 7053  17.250  32.142  12.537
34629W        W 7054  40.478  39.448   3.353
34630W        W 7055  39.997  14.705   2.208
34631W        W 7056  10.171  37.541  11.504
34632W        W 7057   7.912  15.817   2.223
34633W        W 7058  41.848   2.427  14.473
34634W        W 7059  25.525   3.846  12.002
34635W        W 7060  35.990  36.567   2.246
34636W        W 7061   9.250  16.209  13.933
34637W        W 7062  21.231  23.677  12.060
34638W        W 7063  40.922  15.136  14.495
34639W        W 7064  20.717  21.538  11.912
34640W        W 7065  36.074  44.492  11.502
34641W        W 7066   4.273  21.567   4.302
34642W        W 7067  42.283  23.679  13.350
34643W        W 7068  25.477  16.684   0.856
34644W        W 7069  38.373  36.403   4.767
34645W        W 7070  31.634  15.738   1.930
34646W        W 7071  34.390  24.982   1.835
34647W        W 7072  10.300  26.685  12.055
34648W        W 7073  22.166  14.335   3.384
34649W        W 7074  34.574   2.370   4.802
34650W        W 7075   6.335  34.983  12.831
34651W        W 7076   8.834  11.822   4.329
34652W        W 7077  23.702  36.480   0.924
34653W        W 7078  41.929  10.269  13.338
34654W        W 7079  35.604  22.019   0.374
34655W        W 7080  35.492  24.163   4.629
34656W        W 7081  15.160  10.667  11.457
34657W        W 7082  21.516  20.091  11.972
34658W        W 7083  16.750   3.818  12.909
34659W        W 7084  22.195  42.790   3.821
34660W        W 7085  19.757  11.155   0.249
34661W        W 7086  16.298  26.963  12.875
34662W        W 7087  38.520  35.863  10.891
34663W        W 7088  25.156   2.329  14.462
34664W        W 7089  11.762   0.411   3.148
34665W        W 7090  23.113  11.330  11.534
34666W        W 7091   4.858  21.185  14.959
34667W        W 7092   6.371  24.223   3.662
34668W        W 7093  38.365  44.876   0.795
34669W        W 7094  36.539  32.393  12.085
34670W        W 7095  38.050   5.893  13.912
34671W        W 7096  26.656  40.867  12.866
34672W        W 7097  44.275   5.707  11.074
34673W        W 7098  26.194  21.253   0.949
34674W        W 7099  42.497  12.817  11.441
34675W        W 7100   3.835  16.655   0.280
34676W        W 7101  25.595  30.555   2.382
34677W        W 7102  42.396  28.145   2.197
34678W        W 7103  38.009  18.652   0.840
34679W        W 7104  20.695   8.809   5.168
34680W        W 7105  29.108  12.247  11.382
34681W        W 7106  40.889   4.322   4.167
34682W        W 7107   2.931  25.656  14.866
34683W        W 7108  24.177  32.067  10.420
34684W        W 7109  32.945  37.961  12.452
34685W        W 7110  36.590   2.871   1.451
34686W        W 7111  10.773   2.842  14.020
34687W        W 7112   7.375  27.958  11.373
34688W        W 7113  44.287   2.344   3.830
34689W        W 7114   9.155  17.174  13.498
34690W        W 7115   6.292   8.687  12.498
34691W        W 7116  30.096   9.345  10.491
34692W        W 7117  21.134  32.006  10.083
34693W        W 7118  27.960   3.728   0.438
34694W        W 7119  28.010  29.015  10.119
34695W        W 7120  15.711  36.050  11.052
34696W        W 7121  21.635  25.144   3.844
34697W        W 7122  33.481  17.184  12.356
34698W        W 7123  44.464  33.988   0.898
34699W        W 7124   8.677  36.349  10.435
34700W        W 7125  30.073  31.941  10.632
34701W        W 7126  35.102   8.853   9.562
34702W        W 7127  39.454  27.041   1.873
34703W        W 7128  39.448  33.877  12.889
34704W        W 7129  33.087  39.882  13.890
34705W        W 7130  44.894  37.999  11.480
34706W        W 7131   4.276  16.266  10.897
34707W        W 7132  35.521  14.644  13.369
34708W        W 7133  15.187   7.349   0.473
34709W        W 7134  37.449  40.393   1.408
34710W        W 7135  27.168   2.927  13.352
34711W        W 7136  22.530  11.265  10.559
34712W        W 7137  38.483   0.835   0.869
34713W        W 7138  14.158   1.963   1.383
34714W        W 7139  27.143  12.660  14.967
34715W        W 7140  17.586  19.645  12.826
34716W        W 7141  40.051   7.311   3.172
34717W        W 7142  17.581   8.900  13.903
34718W        W 7143   6.318  14.758  11.931
34719W        W 7144  34.925  39.336  14.925
34720W        W 7145  31.067  22.685   1.270
34721W        W 7146  40.513  20.167   2.824
34722W        W 7147   8.761  30.151   4.766
34723W        W 7148   9.765   3.884   3.174
34724W        W 7149   2.414   3.909   0.955
34725W        W 7150   9.686   5.909   0.385
34726W        W 7151  37.032  26.977   3.356
34727W        W 7152  19.227  37.908   4.621
34728W        W 7153  40.022  40.458  13.048
34729W        W 7154  43.834  39.026  12.340
34730W        W 7155  18.061  17.170   4.744
34731W        W 7156  24.489  34.980  11.588
34732W        W 7157  16.692   7.805   1.776
34733W        W 7158  25.094  32.079   3.245
34734W        W 7159  35.365  29.009   2.708
34735W        W 7160   9.699  10.834   1.794
34736W        W 7161  42.021  23.215   5.634
34737W        W 7162  15.179  38.446  14.407
34738W        W 7163   7.276  20.032  13.393
34739W        W 7164   6.297  28.096  14.325
34740W        W 7165  21.561  28.064   2.399
34741W        W 7166  42.949  42.011  11.118
34742W        W 7167   5.838   9.699  10.520
34743W        W 7168   7.835  28.954  14.455
34744W        W 7169   9.814   6.363  12.903
34745W        W 7170  29.490  42.430  11.471
34746W        W 7171   3.837  38.949   9.972
34747W        W 7172   7.766  29.631  12.965
34748W        W 7173  31.451  23.569  14.280
34749W        W 7174  41.316   0.742  13.799
34750W        W 7175  21.077  17.284   3.268
34751W        W 7176  38.925  37.939   1.924
34752W        W 7177   9.207  29.921  14.872
34753W        W 7178  33.120   1.436  13.052
34754W        W 7179  28.117  31.423   4.162
34755W        W 7180  44.904   9.798   3.164
34756W        W 7181  43.928  11.792   1.911
34757W        W 7182   7.172  40.392  10.555
34758W        W 7183  42.018  37.881   3.674
34759W        W 7184  37.967  31.930  12.918
34760W        W 7185  26.550   4.810  13.827
34761W        W 7186  40.834  14.716   3.716
34762W        W 7187  40.506   9.672  11.112
34763W        W 7188  12.310  24.716   1.385
34764W        W 7189   2.768  34.535  11.949
34765W        W 7190  39.545  15.604   3.245
34766W        W 7191  10.790  28.127  10.463
34767W        W 7192   3.346  29.590   2.399
34768W        W 7193  39.422   0.878  13.405
34769W        W 7194  44.482  23.608  14.353
34770W        W 7195   4.706  12.799   1.778
34771W        W 7196  19.676  28.013  13.313
34772W        W 7197  38.829  19.654   5.199
34773W        W 7198  34.419  23.587   4.189
34774W        W 7199  43.897   5.251  11.420
34775W        W 7200   5.755  14.215   0.363
34776W        W 7201  30.137   9.288  14.959
34777W        W 7202  41.939   7.259  12.865
34778W        W 7203  23.123  41.939  13.425
34779W        W 7204  28.178  25.648  13.923
34780W        W 7205   3.779   3.239  11.980
34781W        W 7206  28.061   1.323   3.849
34782W        W 7207  41.869  37.582   3.240
34783W        W 7208  15.781  19.603   1.301
34784W        W 7209  43.327  39.318  14.391
34785W        W 7210   8.789  13.118   1.362
34786W        W 7211  31.622  39.461  10.538
34787W        W 7212   3.926  13.781  14.904
34788W        W 7213   9.365  13.657  12.477
34789W        W 7214  15.695  27.110   1.219
34790W        W 7215  16.762  40.813  11.032
34791W        W 7216  37.860  16.671  11.892
34792W        W 7217  12.211  35.399   3.629
34793W        W 7218  44.443   5.810   4.186
34794W        W 7219  27.099  15.646   0.411
34795W        W 7220  38.049   9.313   4.139
34796W        W 7221  38.472   8.683   1.224
34797W        W 7222   7.727  32.425   3.156
34798W        W 7223  40.036  24.568  14.915
34799W        W 7224  28.601  23.026   2.241
34800W        W 7225  43.886  39.398  12.824
34801W        W 7226  34.405  12.262   2.378
34802W        W 7227  25.166  13.179  11.052
34803W        W 7228  31.068  43.356   2.208
34804W        W 7229   1.766  10.339  12.381
34805W        W 7230  43.323  20.580   0.771
34806W        W 7231  32.043   4.705   4.302
34807W        W 7232  15.095  34.608   1.834
34808W        W 7233  32.439  17.612   2.688
34809W        W 7234  44.394  11.839  14.336
34810W        W 7235   7.837  12.684   3.158
34811W        W 7236  33.406   3.228   4.668
34812W        W 7237  37.349  31.935   1.210
34813W        W 7238  18.752  38.346  11.116
34814W        W 7239  35.046   8.345  13.904
34815W        W 7240  11.853  35.437  11.008
34816W        W 7241  31.603  38.916  14.864
34817W        W 7242  11.665   6.750   2.830
34818W        W 7243  40.006  44.903   3.829
34819W        W 7244  12.742  27.451  11.872
34820W        W 7245  23.662  18.760   3.843
34821W        W 7246  33.906   4.801   1.714
34822W        W 7247  39.425  40.957  12.422
34823W        W 7248  41.422  41.945  13.529
34824W        W 7249  26.662   5.916   1.428
34825W        W 7250   0.786  23.991   4.202
34826W        W 7251  36.358  40.409   4.259
34827W        W 7252  37.939  16.791   1.353
34828W        W 7253  34.539   3.713  10.463
34829W        W 7254  41.471  31.980  14.792
34830W        W 7255  43.276  20.264  11.579
34831W        W 7256  20.595  35.558  11.404
34832W        W 7257   7.298  34.993  11.561
34833W        W 7258   0.902  38.517   2.710
34834W        W 7259  18.702  27.185  11.040
34835W        W 7260  29.457   9.686  13.048
34836W        W 7261  12.231  37.978   4.293
34837W        W 7262   5.825  25.663  10.980
34838W        W 7263   3.900  26.663   0.935
34839W        W 7264  20.128  36.385  13.049
34840W        W 7265  22.582  19.683   0.331
34841W        W 7266   7.308  25.191   4.712
34842W        W 7267  20.068  15.668   3.791
34843W        W 7268  43.412   3.716  13.038
34844W        W 7269  26.180  14.763   4.211
34845W        W 7270  43.931  20.258  14.922
34846W        W 7271   5.799  31.997  11.385
34847W        W 7272   3.818  38.492  11.522
34848W        W 7273  12.316  35.082   3.147
34849W        W 7274  26.105  30.158  12.580
34850W        W 7275  36.549  30.592   0.795
34851W        W 7276  38.462  16.235  13.383
34852W        W 7277   5.727   5.310  12.404
34853W        W 7278  27.459  26.604  13.894
34854W        W 7279   4.702   3.819   2.698
34855W        W 7280  21.153  23.509  12.872
34856W        W 7281  32.623  14.133  13.404
34857W        W 7282  29.515   8.845   3.351
34858W        W 7283  17.104  11.188  14.800
34859W        W 7284   4.317  31.117   2.237
34860W        W 7285  22.574   1.949   4.708
34861W        W 7286  27.994  34.107   3.239
34862W        W 7287  17.678  40.341   0.450
34863W        W 7288  20.187  25.657  12.830
34864W        W 7289  25.120  26.957  13.475
34865W        W 7290  24.133  38.430  14.854
34866W        W 7291  35.925  42.364   3.634
34867W        W 7292  12.649  17.638  12.354
34868W        W 7293  34.432  33.883  13.530
34869W        W 7294  28.616   7.808  10.947
34870W        W 7295  11.840  22.639  11.868
34871W        W 7296   9.255  24.530  11.067
34872W        W 7297  40.044  20.181  11.028
34873W        W 7298   4.819  13.689   1.820
34874W        W 7299  33.459  18.294   9.990
34875W        W 7300  38.019  28.130   1.747
34876W        W 7301  35.462  36.853  14.937
34877W        W 7302  25.609  35.978  14.020
34878W        W 7303  19.134  20.641   4.713
34879W        W 7304   6.779  21.626  11.478
34880W        W 7305  33.975  38.376   0.852
34881W        W 7306  29.592  10.288  12.014
34882W        W 7307   8.654  12.843   3.298
34883W        W 7308  18.696  42.457   1.218
34884W        W 7309   4.249   3.814   2.755
34885W        W 7310  36.383  27.657   1.401
34886W        W 7311  33.085  22.605   1.920
34887W        W 7312   9.242  17.709   1.274
34888W        W 7313  10.765   5.779   4.222
34889W        W 7314  25.026  18.557   5.127
34890W        W 7315  36.568   7.406  13.013
34891W        W 7316   0.278  39.894  13.030
34892W        W 7317  24.497   4.724   0.288
34893W        W 7318  10.838  13.253  12.460
34894W        W 7319  40.454  24.706  12.076
34895W        W 7320  17.556  36.561  13.004
34896W        W 7321  38.950  39.317   2.278
34897W        W 7322  18.689  43.999   0.393
34898W        W 7323  17.188  44.445   2.307
34899W        W 7324   9.318  22.698  12.872
34900W        W 7325  23.628  28.065   2.674
34901W        W 7326  39.849  15.771   3.739
34902W        W 7327  15.635  21.519  14.859
34903W        W 7328  38.461  21.605   4.129
34904W        W 7329  27.016  14.656   2.232
34905W        W 7330  17.130  17.152  11.424
34906W        W 7331  44.396   8.406   0.338
34907W        W 7332  33.900  40.849   1.861
34908W        W 7333  19.204  26.039  13.545
34909W        W 7334   7.296  24.566   2.206
34910W        W 7335  31.960  35.571  13.522
34911W        W 7336  25.623  23.511  11.882
34912W        W 7337   8.241  40.405   0.338
34913W        W 7338  30.498  20.272   1.740
34914W        W 7339  39.513  18.118  14.861
34915W        W 7340  13.234  17.284   1.433
34916W        W 7341   9.226  15.687  14.029
34917W        W 7342  17.250  44.477  12.916
34918W        W 7343  13.702  34.380   0.813
34919W        W 7344  39.811  27.167  10.621
34920W        W 7345  39.417  31.960   1.363
34921W        W 7346  22.572  14.253  12.428
34922W        W 7347  19.075  31.905  14.873
34923W        W 7348   3.729  13.117   4.218
34924W        W 7349  31.002  25.066  13.965
34925W        W 7350  33.528  16.752   2.257
34926W        W 7351  44.970  15.235  11.611
34927W        W 7352   6.367  12.217   3.158
34928W        W 7353  34.117  12.193   4.116
34929W        W 7354   0.798  26.007   3.677
34930W        W 7355  38.957  11.254  11.595
34931W        W 7356  21.696  26.120   1.341
34932W        W 7357  21.756  13.298  12.573
34933W        W 7358  19.641  33.390   3.192
34934W        W 7359  22.655   9.688  14.317
34935W        W 7360  27.581   6.357  14.392
34936W        W 7361   0.248  11.234  11.954
34937W        W 7362  40.467  19.130   0.382
34938W        W 7363   3.889   0.456  13.460
34939W        W 7364   1.378  20.754  14.775
34940W        W 7365  21.516  19.603  11.426
34941W        W 7366  44.776  16.755   1.277
34942W        W 7367  28.453  13.712  12.904
34943W        W 7368  35.467   0.945   1.894
34944W        W 7369  40.950  11.848  14.921
34945W        W 7370  44.823  20.723   4.807
34946W        W 7371   4.921   0.893   3.715
34947W        W 7372  19.556  44.895  14.319
34948W        W 7373  21.123  26.122  10.636
34949W        W 7374  36.434  35.480  14.310
34950W        W 7375  10.792  13.217   4.223
34951W        W 7376   9.761   9.731  13.425
34952W        W 7377  37.381   4.774   5.227
34953W        W 7378  37.378  27.955   2.674
34954W        W 7379  29.479  38.044  11.124
34955W        W 7380  24.698  11.816   1.263
34956W        W 7381   3.727  25.641  14.368
34957W        W 7382  15.225  20.038  11.547
34958W        W 7383  34.411  35.967   1.291
34959W        W 7384   3.949  27.661  10.595
34960W        W 7385   7.762  21.185   4.138
34961W        W 7386  17.604  42.780   1.387
34962W        W 7387  25.629  32.073   0.756
34963W        W 7388  27.664  40.982  11.521
34964W        W 7389  15.771  43.949   3.818
34965W        W 7390   6.777  44.995   1.447
34966W        W 7391   2.751  29.668  13.992
34967W        W 7392  10.786   8.398  14.948
34968W        W 7393  37.369  24.177  13.901
34969W        W 7394  22.550   9.298  11.934
34970W        W 7395  28.436   2.438  14.957
34971W        W 7396   4.359  14.232  12.999
34972W        W 7397  40.955  20.099   3.257
34973W        W 7398  20.180  12.267   1.785
34974W        W 7399  12.820  40.396  11.060
34975W        W 7400  25.088   7.319   1.757
34976W        W 7401  35.964  23.167  13.414
34977W        W 7402  14.793  41.043  13.861
34978W        W 7403  28.471   0.850   3.383
34979W        W 7404  30.091  18.732  12.016
34980W        W 7405  44.489  19.773   0.356
34981W        W 7406  26.598   1.356  12.381
34982W        W 7407  23.214  12.622  11.535
34983W        W 7408  19.235  16.770  10.934
34984W        W 7409   9.246  36.367  10.503
34985W        W 7410   0.905  43.449  14.290
34986W        W 7411  28.548  42.511  12.439
34987W        W 7412   5.216  43.295  12.428
34988W        W 7413  11.866  33.120  10.415
34989W        W 7414  36.548  40.026  12.438
34990W        W 7415  20.040  10.706  11.008
34991W        W 7416   3.361   8.813  10.098
34992W        W 7417   9.339  26.026  12.552
34993W        W 7418  21.177   9.231  14.841
34994W        W 7419  14.766  34.878   3.362
34995W        W 7420   8.685  24.170   3.340
34996W        W 7421  25.619  14.095   2.267
34997W        W 7422  18.263  40.003   1.791
34998W        W 7423  19.613  41.368  14.868
34999W        W 7424  29.549  16.613  11.463
35000W        W 7425  23.024  11.241   5.289
35001W        W 7426   9.801  23.081   3.193
35002W        W 7427   9.161  26.480  12.969
35003W        W 7428  23.584  36.350   3.302
35004W        W 7429  32.413   8.899   0.903
35005W        W 7430  13.121  41.959   3.146
35006W        W 7431  12.634   1.747  10.564
35007W        W 7432  23.577  31.001  14.842
35008W        W 7433  15.604  34.910  10.453
35009W        W 7434  30.983  17.604  11.372
35010W        W 7435  18.569  25.485  12.360
35011W        W 7436  37.366  44.267  14.839
35012W        W 7437  28.612  42.924  14.842
35013W        W 7438  38.836  18.245  11.399
35014W        W 7439  23.594  29.428   0.393
35015W        W 7440  15.223  23.094   1.303
35016W        W 7441   1.445   2.241  14.433
35017W        W 7442  36.445   3.258   2.757
35018W        W 7443  10.240  22.677  14.291
35019W        W 7444  36.921  32.950   0.397
35020W        W 7445   9.830  11.214   2.362
35021W        W 7446  32.579   7.665   1.752
35022W        W 7447   5.835  43.814  12.083
35023W        W 7448   5.756  33.896   3.731
35024W        W 7449  17.717  29.649  13.490
35025W        W 7450  42.896   2.873  11.919
35026W        W 7451  24.066   7.842  12.051
35027W        W 7452  22.742   1.325   4.645
35028W        W 7453  30.114  44.984   4.789
35029W        W 7454   2.363  36.891   1.728
35030W        W 7455  43.930  16.274   4.189
35031W        W 7456   6.376   8.221   3.211
35032W        W 7457  38.910   3.813   3.374
35033W        W 7458  28.153  30.568  11.520
35034W        W 7459  40.826  12.633  10.951
35035W        W 7460   4.274  41.520   1.915
35036W        W 7461   3.431  24.615  12.931
35037W        W 7462  31.528  11.781  13.917
35038W        W 7463  39.410  23.011   1.276
35039W        W 7464  30.055  26.026   3.277
35040W        W 7465  16.206  32.554   2.799
35041W        W 7466  29.005  25.020  11.923
35042W        W 7467  22.587  21.198   1.319
35043W        W 7468  27.023   3.783   1.211
35044W        W 7469   3.223  20.618   1.894
35045W        W 7470   7.338   5.933  13.948
35046W        W 7471  14.217  11.662   4.289
35047W        W 7472  22.746  28.072   2.809
35048W        W 7473  12.265  23.052  13.386
35049W        W 7474  38.370  44.817  11.387
35050W        W 7475   6.416  23.508   2.750
35051W        W 7476  38.040  35.953  12.846
35052W        W 7477  40.316  26.647   5.213
35053W        W 7478  35.431  38.018  11.905
35054W        W 7479  40.853  12.198   3.757
35055W        W 7480  26.508  36.549   4.834
35056W        W 7481  12.280  26.463  12.474
35057W        W 7482  31.459  28.476   4.662
35058W        W 7483   6.323  18.682  11.479
35059W        W 7484  21.253   8.819   0.892
35060W        W 7485  25.698  40.324   4.174
35061W        W 7486   1.361  21.605  11.400
35062W        W 7487  44.863  22.582   2.848
35063W        W 7488  15.785  40.904  14.284
35064W        W 7489  41.793   2.260  11.516
35065W        W 7490  16.738  40.015   3.152
35066W        W 7491   6.215  16.578  10.975
35067W        W 7492  31.469  15.116   1.351
35068W        W 7493  20.111   1.324  11.960
35069W        W 7494   7.672   5.703   2.392
35070W        W 7495   7.237  37.831  11.540
35071W        W 7496  42.812  13.349  14.422
35072W        W 7497  28.988  32.622  13.340
35073W        W 7498  37.415  34.057   1.787
35074W        W 7499  32.941  20.264   0.900
35075W        W 7500   5.263  34.092   2.869
35076W        W 7501  29.571  39.907  13.821
35077W        W 7502  26.101  27.057  12.831
35078W        W 7503  26.645  42.490  10.962
35079W        W 7504  21.195  30.000   1.842
35080W        W 7505   9.753  18.087  10.930
35081W        W 7506   5.896  42.334   4.241
35082W        W 7507  21.586  31.988   1.257
35083W        W 7508  29.954  25.662  14.918
35084W        W 7509  34.527  21.198   1.296
35085W        W 7510  11.807   6.426   4.204
35086W        W 7511  18.588  41.929  12.831
35087W        W 7512  18.714  39.390  13.540
35088W        W 7513  39.316  33.900  12.541
35089W        W 7514  43.323  40.946   4.340
35090W        W 7515  26.146   8.307   0.948
35091W        W 7516  44.479  25.667   3.354
35092W        W 7517  37.980  40.843  12.457
35093W        W 7518  16.639  38.411  13.796
35094W        W 7519  23.169  41.932   0.417
35095W        W 7520  28.504  14.704  13.951
35096W        W 7521   8.831  40.926  14.989
35097W        W 7522  42.810   1.956   2.765
35098W        W 7523   8.211  44.412   3.675
35099W        W 7524  44.861  19.715  14.957
35100W        W 7525  41.451  24.617  11.403
35101W        W 7526   6.852  10.691   4.604
35102W        W 7527  16.081   2.425   1.318
35103W        W 7528  27.005  42.470   3.727
35104W        W 7529  30.420  18.227   4.187
35105W        W 7530  22.062  18.198  14.028
35106W        W 7531  37.557   2.862  11.120
35107W        W 7532  24.184  24.575   3.359
35108W        W 7533  33.973  23.652   3.731
35109W        W 7534  28.614  36.962  13.412
35110W        W 7535  41.004  12.135   0.898
35111W        W 7536   8.309  10.367  10.143
35112W        W 7537  20.689  25.491   3.745
35113W        W 7538  29.973  30.426  11.987
35114W        W 7539   5.289  25.605  11.535
35115W        W 7540  42.791  19.243  10.427
35116W        W 7541  18.701  43.908   4.765
35117W        W 7542  18.077  24.693   0.871
35118W        W 7543   0.838  44.927   2.814
35119W        W 7544  24.681   1.837  12.918
35120W        W 7545  39.016   8.193   2.842
35121W        W 7546  34.550  36.859  14.974
35122W        W 7547  21.194  17.133  12.054
35123W        W 7548   7.179  13.109  11.881
35124W        W 7549   8.717  11.130   3.804
35125W        W 7550   1.760  30.991   3.201
35126W        W 7551  27.545  13.740  12.989
35127W        W 7552  21.263   0.969  14.484
35128W        W 7553  39.960  25.150   1.756
35129W        W 7554  23.201   7.740  12.347
35130W        W 7555   9.350   2.965   1.308
35131W        W 7556  41.040  15.644  14.334
35132W        W 7557   0.394   3.460   0.929
35133W        W 7558  19.780  29.934   1.319
35134W        W 7559   1.295   4.809  12.871
35135W        W 7560  33.884  12.723   1.900
35136W        W 7561  23.558  11.690   4.833
35137W        W 7562  32.511  30.532   0.482
35138W        W 7563  18.586   1.305   4.278
35139W        W 7564  28.669  27.575   2.900
35140W        W 7565  21.647  44.335   4.123
35141W        W 7566  44.353  19.710   3.249
35142W        W 7567  10.655  21.097   4.615
35143W        W 7568  32.051   0.804   3.200
35144W        W 7569  30.548   9.371   1.293
35145W        W 7570  32.000  22.661   4.735
35146W        W 7571  11.250  30.506  12.351
35147W        W 7572  16.598  25.469  11.122
35148W        W 7573  36.530  36.482  14.929
35149W        W 7574  13.253  16.645  12.550
35150W        W 7575  44.773  24.688  12.007
35151W        W 7576  40.474  17.076  14.313
35152W        W 7577  39.338  40.442   1.746
35153W        W 7578  36.053  39.943  13.500
35154W        W 7579  17.676  36.891   2.380
35155W        W 7580  37.087  13.753   0.478
35156W        W 7581  33.466  12.352  14.973
35157W        W 7582  14.619  31.479  14.305
35158W        W 7583  43.480   2.878  13.063
35159W        W 7584   6.271  19.669   0.775
35160W        W 7585  15.610   2.893  11.498
35161W        W 7586  29.595  23.155  13.018
35162W        W 7587   0.944  20.030   4.305
35163W        W 7588  23.592  30.909  14.412
35164W        W 7589  19.045  13.659  11.577
35165W        W 7590  19.747  22.212   4.686
35166W        W 7591  40.019  41.845   2.778
35167W        W 7592  10.694  38.994  11.422
35168W        W 7593  44.362  42.296  12.851
35169W        W 7594  24.111   7.312  12.956
35170W        W 7595   8.345  20.114   1.778
35171W        W 7596  23.166  13.310   2.704
35172W        W 7597   3.739  42.897   3.314
35173W        W 7598  44.933   6.724  10.605
35174W        W 7599   0.886   0.871  11.488
35175W        W 7600  38.971   7.183  11.598
35176W        W 7601  27.642  33.399  12.836
35177W        W 7602   3.829  10.239   0.347
35178W        W 7603  12.706  28.075  12.955
35179W        W 7604  23.679  36.086   2.392
35180W        W 7605  24.526  28.477  11.918
35181W        W 7606  12.342  43.486  13.330
35182W        W 7607  16.129  34.071  14.028
35183W        W 7608  10.266  26.630   1.276
35184W        W 7609  27.669   8.200  12.852
35185W        W 7610  44.298  13.258   1.840
35186W        W 7611  31.945  11.738   1.252
35187W        W 7612   4.406  34.387  11.424
35188W        W 7613  19.749   3.458  11.446
35189W        W 7614  40.861  21.181   1.931
35190W        W 7615  18.776  11.840   4.629
35191W        W 7616   5.375  38.551  11.962
35192W        W 7617  27.620   3.267   4.669
35193W        W 7618  18.147  26.478   3.719
35194W        W 7619  25.647  30.599   1.378
35195W        W 7620  16.692  28.562  10.981
35196W        W 7621   5.863   5.770  14.484
35197W        W 7622  12.830  21.138  14.785
35198W        W 7623  18.695  20.175  13.369
35199W        W 7624  21.580  25.008   2.742
35200W        W 7625  20.208  33.380   0.450
35201W        W 7626  28.972  16.754   0.365
35202W        W 7627  37.928  11.761   1.779
35203W        W 7628  22.095   4.770   2.213
35204W        W 7629  29.923  23.686  14.434
35205W        W 7630  14.332  20.203   4.778
35206W        W 7631   5.917   1.364   0.831
35207W        W 7632  41.536   5.394  13.345
35208W        W 7633  39.409   1.285  10.955
35209W        W 7634  10.707  28.459   1.319
35210W        W 7635  30.480  35.408   0.258
35211W        W 7636  28.565  23.129  14.886
35212W        W 7637  28.136  34.614  14.297
35213W        W 7638  20.686   3.811   0.834
35214W        W 7639   2.822   8.851  13.394
35215W        W 7640   0.339   5.306   2.383
35216W        W 7641   0.859  19.127   0.815
35217W        W 7642   1.757  20.095  13.827
35218W        W 7643   9.229  13.732   3.841
35219W        W 7644  14.227  26.010   3.768
35220W        W 7645  16.811  44.345   4.706
35221W        W 7646   6.207  31.986  10.043
35222W        W 7647  21.260  22.015  11.393
35223W        W 7648  38.967  15.321   0.811
35224W        W 7649  20.523  36.380   1.792
35225W        W 7650   5.779  22.747   1.902
35226W        W 7651   4.367  20.741   3.709
35227W        W 7652  15.327  26.611   2.787
35228W        W 7653  43.320  29.436   1.265
35229W        W 7654  16.201  15.126  14.895
35230W        W 7655  23.141  25.992   2.295
35231W        W 7656   8.869  38.853  11.117
35232W        W 7657  26.463  30.982  12.050
35233W        W 7658  33.956  27.129  10.441
35234W        W 7659  34.906  22.012   4.267
35235W        W 7660   6.267  33.096  12.555
35236W        W 7661  15.652   8.294  10.608
35237W        W 7662  10.832  32.060  14.850
35238W        W 7663  38.372  17.786  13.842
35239W        W 7664  31.058  33.519  10.892
35240W        W 7665  28.018   0.410   2.338
35241W        W 7666  15.145  22.024  13.370
35242W        W 7667  30.996   7.356   1.425
35243W        W 7668  43.484  40.023   2.366
35244W        W 7669  43.419  27.476  10.994
35245W        W 7670   4.772  10.215  10.631
35246W        W 7671  24.624  34.904   3.317
35247W        W 7672  35.375  27.159   2.342
35248W        W 7673  33.940   5.220   3.156
35249W        W 7674  25.127  26.134  14.498
35250W        W 7675   4.790  20.603  14.304
35251W        W 7676   4.842   4.323   0.393
35252W        W 7677  29.117  33.491   3.229
35253W        W 7678  38.960  22.029   2.712
35254W        W 7679   5.908  29.536  10.916
35255W        W 7680  21.649  23.676  11.127
35256W        W 7681  34.044  23.013   0.734
35257W        W 7682  12.237  39.974  13.514
35258W        W 7683   2.813  40.488  13.885
35259W        W 7684  19.057   3.415  14.782
35260W        W 7685  19.096  42.827   0.781
35261W        W 7686   0.911   2.317  13.309
35262W        W 7687  35.977  14.240   1.827
35263W        W 7688  21.717  17.666   4.760
35264W        W 7689  35.544  21.205  11.920
35265W        W 7690   3.832   6.817  13.793
35266W        W 7691  33.931   7.839  10.937
35267W        W 7692   5.347  14.613   3.311
35268W        W 7693  34.926   1.845   1.422
35269W        W 7694  11.632  19.071  11.573
35270W        W 7695  30.502  22.542  11.569
35271W        W 7696  40.408   1.744   5.180
35272W        W 7697  42.870   3.931  14.462
35273W        W 7698  14.631   8.207  10.537
35274W        W 7699  12.713  28.182   2.798
35275W        W 7700   1.447   6.353   0.967
35276W        W 7701  12.246  43.389  10.978
35277W        W 7702  38.337  30.145   4.822
35278W        W 7703  16.611   2.750  12.040
35279W        W 7704   7.309  24.691  14.987
35280W        W 7705  19.604  42.866  14.298
35281W        W 7706  30.098  10.876   4.733
35282W        W 7707  28.675  24.487  14.890
35283W        W 7708  30.460  44.258   2.198
35284W        W 7709  38.027  42.923  13.436
35285W        W 7710  36.062  27.940   0.761
35286W        W 7711  26.098  36.869  13.395
35287W        W 7712  20.742  28.486   3.762
35288W        W 7713  37.869  42.784  10.490
35289W        W 7714  24.671  17.206  12.555
35290W        W 7715  17.129  17.685   1.278
35291W        W 7716   1.919  30.581  12.560
35292W        W 7717  20.724  17.676  14.879
35293W        W 7718  29.933  31.513  13.981
35294W        W 7719  24.613  10.271   1.761
35295W        W 7720  36.509   4.305   1.240
35296W        W 7721  35.871  23.006  14.802
35297W        W 7722  23.576  39.039   2.380
35298W        W 7723   5.693  23.207   4.802
35299W        W 7724  11.211  39.035   4.742
35300W        W 7725  11.138  40.835  12.950
35301W        W 7726  29.154  40.918  11.550
35302W        W 7727  35.933  21.092   2.787
35303W        W 7728  10.161  34.389   3.243
35304W        W 7729  29.532  13.191  12.499
35305W        W 7730   4.750  17.170  14.325
35306W        W 7731  40.356  41.943  11.021
35307W        W 7732  18.215   7.707  11.111
35308W        W 7733   3.306  34.889   1.288
35309W        W 7734  11.737  38.949  14.982
35310W        W 7735  37.920   4.261   1.239
35311W        W 7736  23.667  12.808   4.715
35312W        W 7737  21.060  20.588  11.396
35313W        W 7738  14.114  26.573   3.286
35314W        W 7739  20.722  35.030   1.772
35315W        W 7740  43.899  25.111   1.236
35316W        W 7741   5.779  37.376   9.922
35317W        W 7742  37.548  44.294   4.828
35318W        W 7743  29.138  31.047   4.664
35319W        W 7744  12.641   4.842  13.994
35320W        W 7745  21.573  29.116  12.402
35321W        W 7746  11.363  21.081   4.332
35322W        W 7747  37.473  30.143   3.257
35323W        W 7748  13.318  43.835   1.280
35324W        W 7749  33.398  23.579  11.986
35325W        W 7750  31.912  33.128  12.008
35326W        W 7751   0.925   8.693   3.337
35327W        W 7752  19.254  22.128  13.015
35328W        W 7753  44.969   5.718   2.289
35329W        W 7754  33.958  42.467   0.816
35330W        W 7755  16.731  31.477   2.289
35331W        W 7756  33.512  14.315   1.311
35332W        W 7757  15.806  31.625   4.317
35333W        W 7758  36.395  13.819   0.851
35334W        W 7759  38.076  41.370   1.822
35335W        W 7760  25.527  19.261   4.218
35336W        W 7761  22.248  28.171   3.670
35337W        W 7762  36.864  10.177   5.094
35338W        W 7763   6.748  31.505  13.449
35339W        W 7764  37.830  16.279   0.441
35340W        W 7765  33.550   0.745  14.338
35341W        W 7766  24.205  29.565  14.835
35342W        W 7767   8.335  19.706  10.906
35343W        W 7768  33.887   5.692   2.835
35344W        W 7769   7.843  33.547  10.561
35345W        W 7770  30.511  13.336  11.987
35346W        W 7771  40.304  33.931  15.000
35347W        W 7772  36.413  29.614  10.572
35348W        W 7773  23.159  23.502   0.733
35349W        W 7774  38.444  43.853   4.351
35350W        W 7775  32.589  16.756  13.016
35351W        W 7776   1.865  24.067   3.729
35352W        W 7777  38.049  23.192   4.244
35353W        W 7778  20.662   9.178   0.456
35354W        W 7779  17.165  17.271  12.391
35355W        W 7780  16.082  34.115  10.155
35356W        W 7781  17.580  20.096  14.027
35357W        W 7782  25.608  29.643  12.024
35358W        W 7783   9.764  10.864  13.374
35359W        W 7784   7.740  18.124   2.792
35360W        W 7785  33.885  17.741  13.344
35361W        W 7786  20.159  29.943  13.335
35362W        W 7787   6.887  35.417   1.345
35363W        W 7788  13.788  12.167   1.342
35364W        W 7789   0.449  30.649  13.541
35365W        W 7790  22.152  12.304  10.914
35366W        W 7791   8.690   5.709   1.303
35367W        W 7792   6.399  41.030  10.093
35368W        W 7793  10.346  36.867  13.035
35369W        W 7794  11.648  16.780  13.962
35370W        W 7795  38.996  21.520  12.994
35371W        W 7796   2.344   8.257   3.849
35372W        W 7797   5.211  12.325  12.419
35373W        W 7798  18.067  32.446  12.455
35374W        W 7799  39.049  16.616  11.113
35375W        W 7800   8.388   1.841   1.307
35376W        W 7801   9.835  11.168   4.247
35377W        W 7802   0.803   5.913  14.337
35378W        W 7803  15.722  17.277  11.407
35379W        W 7804  44.874  39.376  14.804
35380W        W 7805   8.819  35.054   4.235
35381W        W 7806  28.533  15.792   1.733
35382W        W 7807   7.885  26.991   1.767
35383W        W 7808  43.351   2.915   1.348
35384W        W 7809  30.559  14.237   2.383
35385W        W 7810  18.109  32.906   2.238
35386W        W 7811  22.688  27.450   2.330
35387W        W 7812  28.539  21.234  10.101
35388W        W 7813   5.769  22.641  13.953
35389W        W 7814  33.428  39.959  14.838
35390W        W 7815   6.361  38.460  13.898
35391W        W 7816  26.983   6.801  12.505
35392W        W 7817  10.759  35.385   4.783
35393W        W 7818  22.035  23.679  10.975
35394W        W 7819  34.573   1.288  14.871
35395W        W 7820  21.083  32.534  14.910
35396W        W 7821  23.499  12.187  14.502
35397W        W 7822   9.773  13.749  10.945
35398W        W 7823  40.039  29.959  13.457
35399W        W 7824  38.346  12.809   4.711
35400W        W 7825   1.267  12.805   1.935
35401W        W 7826  20.557  34.516   3.776
35402W        W 7827  24.642  18.179  13.377
35403W        W 7828   6.345  39.880   1.298
35404W        W 7829  13.227   0.262   0.456
35405W        W 7830  38.853   1.399  12.831
35406W        W 7831  39.345  39.427  10.616
35407W        W 7832   6.705  21.513  14.505
35408W        W 7833  10.374  16.286   0.453
35409W        W 7834  17.721  13.818   4.809
35410W        W 7835  43.394  18.104  10.596
35411W        W 7836  14.247   5.912  12.502
35412W        W 7837  36.435  24.215  12.541
35413W        W 7838  26.105   0.792   2.771
35414W        W 7839  34.424  13.724   0.738
35415W        W 7840  35.095  10.864  13.495
35416W        W 7841  40.981  39.544  12.919
35417W        W 7842  27.156  26.998  14.980
35418W        W 7843  12.199  21.527  10.090
35419W        W 7844  18.059  25.483   1.726
35420W        W 7845   2.231  27.487   0.296
35421W        W 7846  25.590  21.061   1.421
35422W        W 7847  42.413   5.856   2.343
35423W        W 7848  26.137  41.496   0.370
35424W        W 7849  24.554  30.133   3.678
35425W        W 7850   5.240   7.863  13.891
35426W        W 7851  10.315  31.966   2.814
35427W        W 7852  40.036  31.523  14.503
35428W        W 7853  25.198  37.038   0.274
35429W        W 7854  14.613  26.182  13.017
35430W        W 7855   9.167  22.996   4.641
35431W        W 7856  15.774  16.770  13.510
35432W        W 7857   4.269  35.093   4.698
35433W        W 7858  28.035   1.415  14.480
35434W        W 7859  32.600  36.065  12.540
35435W        W 7860  18.138  25.663  10.457
35436W        W 7861   3.454   4.443  13.851
35437W        W 7862  18.736  29.937   3.642
35438W        W 7863  31.086   0.259   1.450
35439W        W 7864  37.479   2.299  14.293
35440W        W 7865  21.161   6.299   1.346
35441W        W 7866  14.787  35.593  12.535
35442W        W 7867  12.639  25.591  13.416
35443W        W 7868  27.664  42.966   3.374
35444W        W 7869  14.678  22.595   1.734
35445W        W 7870  29.973  29.461  11.430
35446W        W 7871  29.429  16.648   1.304
35447W        W 7872   4.756   1.763  13.312
35448W        W 7873  42.368  31.470   0.423
35449W        W 7874  18.779  25.076  13.832
35450W        W 7875  37.453  34.421  10.006
35451W        W 7876  18.579  15.137   0.477
35452W        W 7877  43.985   5.378   0.351
35453W        W 7878  44.834  41.929  14.950
35454W        W 7879  10.700   2.322  12.482
35455W        W 7880  12.844  33.407  13.953
35456W        W 7881  32.954  42.006  13.366
35457W        W 7882   9.690  40.463  12.068
35458W        W 7883  13.140  13.127  12.438
35459W        W 7884  24.147  10.272  12.438
35460W        W 7885  10.669  17.187  10.958
35461W        W 7886  41.369  17.285   2.837
35462W        W 7887  21.680   6.777  10.904
35463W        W 7888  39.525  40.901  11.979
35464W        W 7889  31.128  43.343   3.151
35465W        W 7890  34.433  36.446   3.775
35466W        W 7891   8.273   0.752   2.838
35467W        W 7892  14.810  40.385  10.968
35468W        W 7893  28.033   1.874   2.851
35469W        W 7894  21.221   8.181   3.203
35470W        W 7895  22.565  28.529   0.478
35471W        W 7896  21.621  41.459   3.339
35472W        W 7897  34.103  42.937   1.744
35473W        W 7898  19.102  11.332  10.509
35474W        W 7899  15.215  27.173   2.696
35475W        W 7900  29.504   5.805  11.453
35476W        W 7901  23.650   3.313  10.902
35477W        W 7902  43.852  41.799  12.853
35478W        W 7903   4.323  31.581  13.804
35479W        W 7904   5.434  20.560   3.359
35480W        W 7905  36.530  13.223   0.349
35481W        W 7906  27.680  18.201   1.399
35482W        W 7907  35.080   6.223   0.243
35483W        W 7908   7.303   8.264   1.910
35484W        W 7909  34.554  14.129  13.450
35485W        W 7910   1.748  24.146   2.319
35486W        W 7911  10.638  42.312  13.352
35487W        W 7912  11.231  32.897   4.318
35488W        W 7913  44.983   8.755   0.942
35489W        W 7914   5.230  19.766   0.417
35490W        W 7915   1.396  25.673  12.017
35491W        W 7916  40.513  42.328   0.381
35492W        W 7917  42.305  38.860   4.184
35493W        W 7918   4.894  27.472  13.398
35494W        W 7919   6.868  32.927  13.338
35495W        W 7920  23.603  41.490  13.501
35496W        W 7921  28.992   4.274  13.903
35497W        W 7922   7.301   0.417   2.334
35498W        W 7923   2.428  20.031   2.662
35499W        W 7924  25.034  35.376   2.720
35500W        W 7925  30.582  37.881   2.769
35501W        W 7926   0.431  44.886  10.908
35502W        W 7927  15.586  42.900  11.118
35503W        W 7928  24.529  17.273   0.734
35504W        W 7929  37.965  15.231   2.244
35505W        W 7930   9.233  18.747   4.618
35506W        W 7931   0.855  21.109   3.818
35507W        W 7932  30.479  16.649  13.858
35508W        W 7933  32.951   9.670  12.028
35509W        W 7934  18.103   9.762   1.934
35510W        W 7935  44.925  42.875  11.574
35511W        W 7936  21.728  30.085   4.823
35512W        W 7937   3.944   3.731  11.518
35513W        W 7938  25.100  14.168  10.952
35514W        W 7939  44.793   9.157   1.364
35515W        W 7940  35.873  24.093   2.881
35516W        W 7941  32.438   1.459  11.927
35517W        W 7942   8.233  11.681   4.704
35518W        W 7943  16.699   7.264  14.885
35519W        W 7944  32.626   4.905  13.807
35520W        W 7945   8.797  13.246   2.401
35521W        W 7946  43.907  12.675   1.322
35522W        W 7947  41.955  20.659   2.806
35523W        W 7948  24.147   7.307   9.953
35524W        W 7949  41.527  22.043   1.853
35525W        W 7950  17.709   9.278  11.902
35526W        W 7951  38.009  31.932   5.176
35527W        W 7952  22.716   1.899  13.003
35528W        W 7953  41.480  15.151  10.530
35529W        W 7954  18.596  17.636   4.305
35530W        W 7955  28.675  36.575  13.912
35531W        W 7956  11.808  44.476  11.609
35532W        W 7957   7.846  42.857  14.476
35533W        W 7958   9.806  24.217   1.728
35534W        W 7959  44.899  22.630  11.128
35535W        W 7960  25.583  25.709  11.518
35536W        W 7961  34.877   9.341   1.756
35537W        W 7962  24.677  31.572   0.425
35538W        W 7963   8.793   5.332  11.595
35539W        W 7964  28.490  38.376   4.760
35540W        W 7965  19.648  17.290  13.900
35541W        W 7966  27.453   4.779   3.255
35542W        W 7967  12.616  16.590  12.823
35543W        W 7968  15.708  28.983   2.821
35544W        W 7969  43.806  17.233   3.782
35545W        W 7970  37.010  28.659   0.450
35546W        W 7971  40.964  41.390   3.307
35547W        W 7972  19.128  18.246   0.292
35548W        W 7973  38.832  31.970   2.298
35549W        W 7974  33.016   5.921   3.690
35550W        W 7975  38.032   3.925  11.483
35551W        W 7976  26.644   9.849  13.865
35552W        W 7977  23.695  32.115  13.922
35553W        W 7978  35.365  32.133   3.296
35554W        W 7979  42.985  14.703   2.737
35555W        W 7980  44.916  41.828  11.486
35556W        W 7981   4.759   2.389  14.888
35557W        W 7982  26.965  27.448   2.775
35558W        W 7983   9.816  26.477   3.222
35559W        W 7984  14.811  10.253  11.464
35560W        W 7985  10.794  27.453   2.207
35561W        W 7986  29.100  23.690   4.303
35562W        W 7987  13.272   2.383  12.580
35563W        W 7988   1.397  31.133  14.463
35564W        W 7989  21.621  19.170  12.833
35565W        W 7990  37.854  22.745   2.805
35566W        W 7991   4.316  44.873  12.881
35567W        W 7992  15.799  18.677  11.945
35568W        W 7993  30.517  37.405   4.254
35569W        W 7994  28.476  22.545  12.543
35570W        W 7995   6.389  32.626   0.359
35571W        W 7996  11.839  18.272  12.862
35572W        W 7997  21.214  27.017   4.348
35573W        W 7998  27.157  10.806  11.934
35574W        W 7999  30.032  14.294  10.560
35575W        W 8000   5.409  15.668  11.882
35576W        W 8001  28.582  25.055  11.602
35577W        W 8002  19.698  30.946  11.931
35578W        W 8003   5.904  23.611   2.371
35579W        W 8004  25.499  33.386   5.115
35580W        W 8005  35.388   2.333   2.400
35581W        W 8006  13.675  32.099   3.322
35582W        W 8007   7.330  38.975  10.915
35583W        W 8008  16.230  14.113  13.960
35584W        W 8009  24.004  12.642   9.940
35585W        W 8010   6.387  41.419  13.899
35586W        W 8011   2.399  28.948  11.058
35587W        W 8012  11.184  29.930  10.992
35588W        W 8013  27.054  28.464   2.868
35589W        W 8014  29.544  14.199   3.329
35590W        W 8015  18.673  17.084   2.263
35591W        W 8016  40.810  26.671  12.858
35592W        W 8017  18.706  23.045   2.681
35593W        W 8018  36.398  38.439   2.846
35594W        W 8019  35.862  43.516  10.466
35595W        W 8020  42.301  25.991  13.037
35596W        W 8021  14.819   4.930   1.732
35597W        W 8022  29.101  14.676   3.790
35598W        W 8023  13.784  17.291  11.459
35599W        W 8024  42.446  39.869   1.302
35600W        W 8025  36.416  32.929   0.277
35601W        W 8026  27.943  11.838   1.898
35602W        W 8027  34.872  14.684   4.131
35603W        W 8028  38.356  31.954   0.892
35604W        W 8029  26.973   5.698   4.183
35605W        W 8030  26.516  25.615  11.379
35606W        W 8031  35.077  22.178  12.875
35607W        W 8032  40.035  29.575  14.380
35608W        W 8033  29.023  30.470   0.899
35609W        W 8034  31.609  41.949   4.709
35610W        W 8035  24.619  35.512   0.460
35611W        W 8036   8.282  22.158  11.914
35612W        W 8037  24.664  43.335  11.538
35613W        W 8038   8.191   9.248   4.169
35614W        W 8039  35.384  21.065  12.890
35615W        W 8040  35.560  38.885   2.664
35616W        W 8041  35.013  11.340  12.347
35617W        W 8042  16.285  11.771  11.859
35618W        W 8043  36.072  20.039   1.789
35619W        W 8044  16.142  12.672   3.386
35620W        W 8045   4.381  15.266   3.310
35621W        W 8046  13.304   8.797  13.981
35622W        W 8047  39.321  35.959  10.520
35623W        W 8048  42.027  29.618  14.794
35624W        W 8049  39.914  32.931   0.252
35625W        W 8050  36.504  18.699   0.251
35626W        W 8051  20.265  32.424   0.363
35627W        W 8052   8.802  27.529  11.959
35628W        W 8053   4.226   5.733  12.378
35629W        W 8054   7.172   7.236  13.043
35630W        W 8055  42.002  19.707  14.806
35631W        W 8056  15.796   7.748  12.830
35632W        W 8057  26.103  17.075   0.845
35633W        W 8058  29.501   4.813   1.818
35634W        W 8059  19.160  28.082   0.276
35635W        W 8060   8.244  35.521   0.245
35636W        W 8061  42.877   2.230   5.100
35637W        W 8062  30.439  28.663  14.811
35638W        W 8063  15.269  32.027  10.896
35639W        W 8064  36.389  21.741  13.414
35640W        W 8065  19.260  20.185  14.515
35641W        W 8066  43.337  24.138   4.233
35642W        W 8067  20.164  21.583   0.770
35643W        W 8068  38.454  13.773   2.860
35644W        W 8069  11.846  29.621  11.025
35645W        W 8070  29.505  10.730   3.240
35646W        W 8071  18.671   3.783   1.822
35647W        W 8072   2.884  33.500  13.854
35648W        W 8073   8.402   3.920   2.286
35649W        W 8074  22.175  14.775   0.278
35650W        W 8075  40.023  13.633  12.976
35651W        W 8076   2.806  26.052   1.278
35652W        W 8077  15.271   0.774  12.502
35653W        W 8078   6.918  42.489   2.755
35654W        W 8079   6.186   9.793  13.470
35655W        W 8080  39.412  30.611  14.429
35656W        W 8081  38.392  44.940  11.869
35657W        W 8082  21.746   8.832   3.695
35658W        W 8083  25.636  14.195  13.035
35659W        W 8084  36.979  28.986  13.837
35660W        W 8085  17.750  26.997   3.367
35661W        W 8086   6.396  44.392   1.398
35662W        W 8087  25.558  18.593   0.446
35663W        W 8088  27.003   5.277  13.407
35664W        W 8089  16.202  43.855  14.388
35665W        W 8090  35.958   1.745  10.604
35666W        W 8091  39.964  43.479  14.989
35667W        W 8092   1.816  14.627  11.966
35668W        W 8093  23.135   9.285  13.894
35669W        W 8094  37.481  44.828   1.396
35670W        W 8095  29.532  28.069  10.919
35671W        W 8096  30.498  35.574   1.371
35672W        W 8097  21.037  40.521   4.148
35673W        W 8098   2.773   3.734   2.253
35674W        W 8099  26.603   2.907   1.353
35675W        W 8100  24.167  44.802   4.310
35676W        W 8101  40.377  31.141   0.338
35677W        W 8102  43.790  13.674   1.916
35678W        W 8103   6.753  33.017   0.879
35679W        W 8104  25.593  38.481   3.755
35680W        W 8105   5.354  15.671   0.879
35681W        W 8106  37.539  21.550  11.083
35682W        W 8107  43.420  34.903   0.853
35683W        W 8108  20.727  35.604   3.673
35684W        W 8109   8.731  15.684  12.095
35685W        W 8110  24.593  15.129   1.258
35686W        W 8111  27.040   9.301  11.419
35687W        W 8112  22.207   9.239  14.903
35688W        W 8113   4.733  32.460   1.281
35689W        W 8114  44.420  34.573  14.393
35690W        W 8115  32.097  34.916   4.354
35691W        W 8116  20.264  41.929  13.893
35692W        W 8117  19.099  15.642  10.632
35693W        W 8118  34.961   5.427  12.402
35694W        W 8119  29.630   7.850   0.744
35695W        W 8120  22.704  23.223  13.953
35696W        W 8121  11.740   3.886   1.735
35697W        W 8122  13.138   4.275   2.722
35698W        W 8123   9.389   8.161  10.498
35699W        W 8124   3.361   8.195   1.737
35700W        W 8125  39.464  25.519  14.496
35701W        W 8126  36.369  43.938   3.806
35702W        W 8127  14.248   1.754   0.286
35703W        W 8128   3.824   0.769  10.045
35704W        W 8129  35.550   8.246   2.756
35705W        W 8130   4.930   8.678  11.484
35706W        W 8131  12.327  39.012   1.901
35707W        W 8132  11.690  21.259  11.564
35708W        W 8133  30.571  28.109  13.826
35709W        W 8134  37.458  44.841   2.241
35710W        W 8135   3.955  16.206   4.163
35711W        W 8136  28.071  26.677  13.940
35712W        W 8137   4.310   5.827  12.868
35713W        W 8138  41.898  41.429   1.786
35714W        W 8139  33.540  30.533  12.343
35715W        W 8140  11.205  23.111   3.719
35716W        W 8141  14.101  20.199   2.821
35717W        W 8142  27.483   8.895   4.246
35718W        W 8143   1.269  31.604  14.456
35719W        W 8144  26.601  36.984  11.922
35720W        W 8145  18.279   1.427   4.635
35721W        W 8146  23.665  14.697   2.851
35722W        W 8147  43.428  23.630  14.289
35723W        W 8148  13.636  24.005  13.352
35724W        W 8149  12.326  22.043  14.302
35725W        W 8150   6.729   4.378  12.009
35726W        W 8151   1.372  28.648   1.252
35727W        W 8152  40.032  33.480   0.390
35728W        W 8153  29.021   4.354  11.552
35729W        W 8154   2.380  32.071   3.187
35730W        W 8155  32.003  17.759  14.766
35731W        W 8156   1.330  33.453   0.931
35732W        W 8157  14.263   5.375  11.958
35733W        W 8158   7.771   9.172   0.305
35734W        W 8159  27.998  34.890  12.430
35735W        W 8160  14.740  21.665   4.764
35736W        W 8161  26.518  35.535   4.838
35737W        W 8162  36.351   6.881   4.597
35738W        W 8163  20.161  19.199  13.040
35739W        W 8164   6.255  16.589  11.987
35740W        W 8165  12.696  39.469  12.070
35741W        W 8166   2.949  13.303   4.293
35742W        W 8167  20.104   1.845   1.220
35743W        W 8168  12.170  15.751  10.615
35744W        W 8169  25.542   4.407   2.750
35745W        W 8170  43.883  18.098  14.983
35746W        W 8171   8.658  24.618  10.942
35747W        W 8172  36.495  28.055  10.415
35748W        W 8173  18.249  23.491   1.226
35749W        W 8174  35.502   9.229  14.468
35750W        W 8175  20.239  31.417  12.069
35751W        W 8176  23.056  17.770  13.908
35752W        W 8177  38.343  31.599   2.359
35753W        W 8178  38.478  30.499  11.541
35754W        W 8179  10.682  44.949  14.961
35755W        W 8180   0.371  23.700   4.173
35756W        W 8181  14.326  43.963  13.374
35757W        W 8182  31.016  26.105  12.440
35758W        W 8183  22.013  15.319  10.439
35759W        W 8184  25.971   0.357  12.073
35760W        W 8185  14.291  43.960  11.541
35761W        W 8186  28.036  37.367  13.061
35762W        W 8187  23.530  28.623  12.914
35763W        W 8188  23.509  44.797  13.949
35764W        W 8189  24.056  19.245  12.509
35765W        W 8190  42.315  44.972  13.022
35766W        W 8191  43.808  17.127   4.689
35767W        W 8192  15.695  32.592  13.983
35768W        W 8193  29.109  18.787  12.918
35769W        W 8194  24.662  34.499   3.176
35770W        W 8195  11.710  11.211   0.476
35771W        W 8196  27.593  44.827  11.446
35772W        W 8197  14.287  35.966  10.506
35773W        W 8198  20.074  29.443  12.963
35774W        W 8199  22.626   1.779  10.525
35775W        W 8200  22.637   9.286  11.372
35776W        W 8201  37.556  12.351  13.425
35777W        W 8202   9.157  34.941  11.006
35778W        W 8203   1.367  29.598  10.411
35779W        W 8204   0.840  41.992   2.345
35780W        W 8205  14.155   6.805  11.428
35781W        W 8206  23.710  23.090  13.955
35782W        W 8207  24.984  42.938   0.378
35783W        W 8208  11.683   9.280  13.458
35784W        W 8209   4.327  24.113  11.016
35785W        W 8210   9.779  24.696  12.861
35786W        W 8211  12.150  19.767  12.877
35787W        W 8212  40.442  10.818  12.045
35788W        W 8213  43.923  22.101   2.381
35789W        W 8214  11.797   3.317  10.135
35790W        W 8215  36.058   7.858  13.504
35791W        W 8216  10.854  28.501   4.204
35792W        W 8217  10.873   9.696  13.925
35793W        W 8218  25.667   2.936   0.774
35794W        W 8219   2.370   6.356   2.296
35795W        W 8220  11.651   6.694   4.231
35796W        W 8221  10.746  41.869  10.606
35797W        W 8222  15.620   5.225   3.173
35798W        W 8223   5.889   4.373   4.834
35799W        W 8224  28.478   1.274   1.394
35800W        W 8225  19.697   5.730   2.182
35801W        W 8226  28.614  19.184  12.090
35802W        W 8227  10.252  13.821  12.000
35803W        W 8228  18.101  13.744  13.408
35804W        W 8229  32.901  26.096   0.246
35805W        W 8230  19.214  39.391   3.250
35806W        W 8231  32.556  16.570   3.300
35807W        W 8232  21.731  23.519  14.350
35808W        W 8233  25.982   5.915  10.613
35809W        W 8234   2.771   8.222   2.792
35810W        W 8235  34.102  31.063  11.572
35811W        W 8236  12.352  14.679  12.057
35812W        W 8237  16.309  37.571  13.037
35813W        W 8238  17.220  29.643  14.016
35814W        W 8239  23.563  13.814  11.937
35815W        W 8240  18.214  44.287  12.958
35816W        W 8241  32.582  42.330   1.447
35817W        W 8242  32.403  38.072  12.575
35818W        W 8243  43.855  43.827   4.144
35819W        W 8244  35.019  22.111   0.368
35820W        W 8245   1.928   9.298  14.361
35821W        W 8246  28.047  15.619   2.684
35822W        W 8247  43.011   8.659  13.004
35823W        W 8248  15.325   7.731   1.342
35824W        W 8249  37.378  27.106  10.607
35825W        W 8250  37.013  39.937   0.248
35826W        W 8251  21.019  10.141  11.896
35827W        W 8252  16.605  11.135   2.313
35828W        W 8253   1.344   2.851   3.312
35829W        W 8254  24.558   3.255   4.203
35830W        W 8255   5.365  36.051  10.542
35831W        W 8256  34.608  20.190  14.408
35832W        W 8257  11.214  19.604   1.721
35833W        W 8258   5.782  44.282  11.452
35834W        W 8259   7.238  38.403   1.261
35835W        W 8260   0.372  44.345  10.907
35836W        W 8261  31.509  28.088   0.436
35837W        W 8262  43.805  43.462   1.385
35838W        W 8263  40.847  37.977  14.972
35839W        W 8264  11.759  34.528   5.293
35840W        W 8265  36.029  36.008  10.507
35841W        W 8266  31.112  29.651   1.396
35842W        W 8267  21.539  13.758   2.699
35843W        W 8268  25.209  39.446   1.228
35844W        W 8269  13.793   1.787   1.334
35845W        W 8270  27.455  26.610   2.809
35846W        W 8271  12.801  13.693  13.845
35847W        W 8272  25.486  30.054   0.949
35848W        W 8273  39.996  11.809  10.996
35849W        W 8274   7.862  10.333   0.950
35850W        W 8275  23.210   6.861   2.850
35851W        W 8276  37.045   8.762   4.286
35852W        W 8277  24.168  35.570   3.820
35853W        W 8278  40.365  32.937   1.832
35854W        W 8279   3.229  36.460  10.412
35855W        W 8280  35.089  16.190  13.792
35856W        W 8281  18.142  42.377   0.355
35857W        W 8282  43.861  14.803   0.456
35858W        W 8283  38.538   5.729  10.916
35859W        W 8284  21.200   6.319   2.898
35860W        W 8285  36.900  23.156   3.683
35861W        W 8286  23.006   4.828  13.311
35862W        W 8287   4.834   8.207   3.290
35863W        W 8288  25.577  42.983  13.024
35864W        W 8289  35.093  25.650   3.845
35865W        W 8290  26.659  27.475  10.500
35866W        W 8291  28.031  35.590  12.010
35867W        W 8292  35.063  18.609  12.078
35868W        W 8293  43.503  35.562   2.302
35869W        W 8294   3.925  17.711  13.822
35870W        W 8295  32.982  12.177   0.814
35871W        W 8296  36.855   2.391  12.491
35872W        W 8297   0.310   8.241  12.573
35873W        W 8298  35.514  30.070  14.957
35874W        W 8299  13.835  28.990   4.646
35875W        W 8300  27.579  32.905   0.961
35876W        W 8301  18.548  35.358  10.629
35877W        W 8302   1.351  16.583   1.237
35878W        W 8303  42.957   8.702  12.382
35879W        W 8304  40.023  42.839  10.993
35880W        W 8305  33.416  19.067   3.265
35881W        W 8306   6.385  22.726   1.398
35882W        W 8307  17.151   4.327   2.316
35883W        W 8308   4.938   4.867  14.766
35884W        W 8309  14.828  17.292  11.004
35885W        W 8310  20.237  17.581   3.382
35886W        W 8311  43.955   0.966  12.547
35887W        W 8312  12.240  13.183  10.977
35888W        W 8313   7.688   6.186   1.240
35889W        W 8314  35.879  19.206   3.317
35890W        W 8315   7.416  15.261   3.692
35891W        W 8316  35.417  10.362  11.914
35892W        W 8317  18.546  40.454   2.860
35893W        W 8318  18.275  15.144  11.902
35894W        W 8319   4.942  33.563   2.230
35895W        W 8320   9.671   1.370  12.929
35896W        W 8321   7.394  36.926  12.941
35897W        W 8322  31.146   0.887   0.955
35898W        W 8323  32.139  29.651  11.562
35899W        W 8324   6.779   6.723   1.895
35900W        W 8325  22.726  10.633   4.796
35901W        W 8326  16.731  23.175   2.374
35902W        W 8327  35.026  20.624  11.542
35903W        W 8328  15.804  30.594  14.330
35904W        W 8329   8.379  18.067   1.839
35905W        W 8330   2.295  18.605  10.479
35906W        W 8331  27.019   3.853  13.022
35907W        W 8332   1.362  37.017  11.015
35908W        W 8333  16.302  44.502   2.328
35909W        W 8334  30.586  24.138   5.090
35910W        W 8335  42.309  23.057   3.341
35911W        W 8336  18.116  24.492  14.469
35912W        W 8337  16.176  21.712  14.810
35913W        W 8338  27.003  42.288  14.964
35914W        W 8339  13.347   9.665  11.464
35915W        W 8340  11.310  17.234  11.499
35916W        W 8341  10.848   4.346   3.721
35917W        W 8342   6.857  29.051  12.421
35918W        W 8343  39.436  20.035  10.461
35919W        W 8344  35.103  31.618  11.888
35920W        W 8345  16.213   5.312   0.434
35921W        W 8346  39.876  22.676  10.897
35922W        W 8347  31.953  41.471   0.390
35923W        W 8348  25.469   7.822  14.008
35924W        W 8349  33.583  14.668  11.999
35925W        W 8350  41.437  42.782   4.735
35926W        W 8351  26.581  40.838  14.361
35927W        W 8352  19.686   1.318  11.412
35928W        W 8353  11.165   5.734  12.962
35929W        W 8354  15.770  32.423   3.292
35930W        W 8355  44.961  26.574  12.513
35931W        W 8356  19.747   5.795   0.730
35932W        W 8357  19.623  38.934   3.804
35933W        W 8358  11.732  22.120   9.532
35934W        W 8359  34.595  22.726   4.624
35935W        W 8360  30.045  25.687   3.275
35936W        W 8361   2.871  20.155  14.967
35937W        W 8362  21.680  13.165  14.303
35938W        W 8363  22.743  34.582  13.824
35939W        W 8364  10.652  33.430  14.470
35940W        W 8365  11.224   1.437  13.541
35941W        W 8366  19.728  34.561   4.262
35942W        W 8367  11.782  27.499  12.966
35943W        W 8368  11.141   0.883  12.351
35944W        W 8369   7.911  29.579  13.462
35945W        W 8370  30.572  30.048   2.696
35946W        W 8371  28.978  30.039   3.770
35947W        W 8372  10.758  43.484   1.801
35948W        W 8373  13.235  22.723  10.641
35949W        W 8374  17.645  24.092  14.880
35950W        W 8375  23.035  35.596  11.443
35951W        W 8376  21.186  10.248  10.127
35952W        W 8377   3.789   2.258  12.470
35953W        W 8378  34.595  24.064  13.411
35954W        W 8379  18.199   0.919  13.522
35955W        W 8380   0.858  16.215  14.484
35956W        W 8381   4.764  40.020  12.056
35957W        W 8382  39.817  26.151  11.023
35958W        W 8383  35.542  37.979  13.333
35959W        W 8384  44.756  16.085  14.877
35960W        W 8385  25.575  25.026  13.857
35961W        W 8386  11.332   7.353   1.736
35962W        W 8387  44.814   1.824  13.539
35963W        W 8388  38.910  33.622   0.911
35964W        W 8389  33.013   8.775   0.963
35965W        W 8390  37.364  20.560   0.374
35966W        W 8391   6.847  24.680  10.521
35967W        W 8392   7.179   9.836  10.509
35968W        W 8393  19.728  26.001  12.393
35969W        W 8394  17.273  16.279  10.895
35970W        W 8395  22.031  31.438  12.081
35971W        W 8396  11.288  24.143   4.735
35972W        W 8397  29.508  17.064   3.235
35973W        W 8398  16.146  25.036  14.468
35974W        W 8399  17.763  17.187   4.670
35975W        W 8400  34.497  20.628   0.470
35976W        W 8401  36.514   7.301  11.023
35977W        W 8402   5.244  39.456   4.281
35978W        W 8403  32.578  35.081   3.730
35979W        W 8404  34.902  43.787  12.024
35980W        W 8405  33.113  35.602  14.484
35981W        W 8406  37.353  13.714  12.977
35982W        W 8407  36.843  23.643  13.870
35983W        W 8408  19.620  42.489   4.634
35984W        W 8409  19.261  10.861   4.194
35985W        W 8410  22.543  32.976  11.504
35986W        W 8411   6.737  24.025  12.348
35987W        W 8412  25.041  27.950   4.672
35988W        W 8413  13.681   0.443  14.329
35989W        W 8414   4.788  40.917   0.840
35990W        W 8415  43.279  42.994   1.753
35991W        W 8416  10.334   6.681   3.682
35992W        W 8417  38.945  30.415   3.149
35993W        W 8418  21.250  17.752   3.366
35994W        W 8419  37.418  12.659   1.276
35995W        W 8420   0.477   5.222  14.329
35996W        W 8421  24.626  33.120  14.303
35997W        W 8422  28.993  25.714   2.878
35998W        W 8423  37.560  34.414   2.667
35999W        W 8424  22.127  28.497  11.075
36000W        W 8425   7.672   2.329  12.578
36001W        W 8426   4.783  43.850  14.796
36002W        W 8427  18.611   8.296  14.945
36003W        W 8428  37.577  44.274   3.326
36004W        W 8429   8.746  42.402  13.842
36005W        W 8430   5.831  34.092   4.170
36006W        W 8431  11.621  41.844  10.591
36007W        W 8432  35.557  25.580  10.478
36008W        W 8433   2.724  37.409   1.254
36009W        W 8434  15.723  22.024   4.223
36010W        W 8435  27.659   7.689   4.223
36011W        W 8436   4.380  10.253  11.586
36012W        W 8437  30.975  37.064  13.050
36013W        W 8438  42.418  11.137   3.383
36014W        W 8439  24.535  32.487   9.640
36015W        W 8440  41.487  19.151   0.816
36016W        W 8441  36.926  26.023   1.231
36017W        W 8442  30.456   1.909   3.361
36018W        W 8443  41.843  12.835  11.389
36019W        W 8444   4.392  14.647  12.039
36020W        W 8445   7.890  37.059  14.351
36021W        W 8446  43.285  35.496   0.837
36022W        W 8447   2.781  37.015  14.489
36023W        W 8448  23.038  28.083   3.715
36024W        W 8449  33.103  14.100   0.312
36025W        W 8450  38.539  38.994  12.439
36026W        W 8451   2.835  15.260   2.897
36027W        W 8452   9.859  40.982   0.324
36028W        W 8453  36.094  15.675  11.919
36029W        W 8454  26.174  14.664  10.914
36030W        W 8455  20.169  34.469  13.875
36031W        W 8456  43.959   8.366  12.355
36032W        W 8457  11.641   1.320  13.341
36033W        W 8458  14.258  15.266  12.067
36034W        W 8459  40.960  16.287  12.397
36035W        W 8460  28.454  35.591  10.582
36036W        W 8461  27.690  22.699   1.302
36037W        W 8462   8.209  23.112   2.809
36038W        W 8463   3.276  30.049   3.738
36039W        W 8464   9.704  23.240   4.796
36040W        W 8465  18.201  23.040  11.935
36041W        W 8466  19.758  26.137   4.600
36042W        W 8467  13.284   7.721   1.906
36043W        W 8468  25.213   8.275   1.934
36044W        W 8469  17.305  33.387   4.753
36045W        W 8470  44.270  12.291   5.228
36046W        W 8471  20.715  27.988   2.303
36047W        W 8472  20.670  23.002   2.323
36048W        W 8473  17.571  22.109   4.350
36049W        W 8474   5.302   9.230  10.606
36050W        W 8475   5.269   7.171  13.054
36051W        W 8476  23.050  34.050   3.244
36052W        W 8477  16.806  30.134   0.461
36053W        W 8478  14.734   4.435   4.207
36054W        W 8479   3.251   0.766   3.870
36055W        W 8480  24.522  22.598  13.401
36056W        W 8481   7.358  32.578  13.001
36057W        W 8482   6.206  42.988  10.124
36058W        W 8483  40.376   8.400  12.962
36059W        W 8484  38.398  33.513   2.225
36060W        W 8485  39.013   0.465   3.351
36061W        W 8486  36.525  41.433  13.975
36062W        W 8487   3.943  23.545   0.966
36063W        W 8488  14.263  10.877   2.334
36064W        W 8489  37.959  21.546  11.430
36065W        W 8490  13.245  44.375  11.120
36066W        W 8491   3.291  44.770   1.320
36067W        W 8492  13.121  44.883  14.761
36068W        W 8493  25.167  20.554  11.518
36069W        W 8494  40.837  13.325   0.416
36070W        W 8495  20.659  23.729  12.880
36071W        W 8496  38.925  38.456   2.207
36072W        W 8497  29.947  26.677   5.174
36073W        W 8498  18.215  37.527  14.843
36074W        W 8499  34.520  14.216   2.736
36075W        W 8500  33.089  24.638  10.474
36076W        W 8501  25.553  11.676   4.230
36077W        W 8502   6.704  20.145   1.390
36078W        W 8503  40.844  22.049  12.546
36079W        W 8504  13.709  44.965  12.532
36080W        W 8505  11.352  29.486   2.750
36081W        W 8506  28.065  33.425   5.318
36082W        W 8507   2.928  24.049  13.431
36083W        W 8508  19.168  32.080  11.951
36084W        W 8509  24.035  31.905  14.893
36085W        W 8510  27.690  32.445  14.310
36086W        W 8511  12.335   9.204  12.515
36087W        W 8512  41.951  32.629   0.401
36088W        W 8513  24.670   9.745  14.770
36089W        W 8514  35.103  28.512  14.020
36090W        W 8515  25.130  30.585   4.687
36091W        W 8516   4.334  16.665  11.464
36092W        W 8517  37.352   2.827  10.626
36093W        W 8518  39.835  14.298  13.494
36094W        W 8519  36.586  35.483  12.578
36095W        W 8520  25.178  40.468  14.455
36096W        W 8521  15.281   4.768  12.855
36097W        W 8522  20.128  17.715   0.762
36098W        W 8523  23.050   2.930   2.693
36099W        W 8524  44.356  43.466   5.256
36100W        W 8525  16.649  22.243   0.343
36101W        W 8526  34.063  36.950   4.242
36102W        W 8527  13.275   1.818   9.521
36103W        W 8528  21.166  33.922  13.908
36104W        W 8529  21.629  18.745  13.406
36105W        W 8530   8.354  36.469  10.480
36106W        W 8531  11.815   7.681  12.954
36107W        W 8532   3.392  32.936   0.742
36108W        W 8533   4.240  38.416   1.321
36109W        W 8534  34.001  30.026  10.634
36110W        W 8535  15.654  41.464  13.311
36111W        W 8536  37.444  39.345  14.859
36112W        W 8537  16.121   8.838  11.012
36113W        W 8538  17.167  29.428   1.287
36114W        W 8539  28.933  36.891   4.679
36115W        W 8540   4.788  30.586  13.493
36116W        W 8541  27.016  39.832  10.976
36117W        W 8542   5.342  43.515   2.368
36118W        W 8543  14.687  39.054   1.420
36119W        W 8544   7.348   6.381   0.821
36120W        W 8545  11.860  11.835  13.314
36121W        W 8546  43.838  37.042  12.361
36122W        W 8547   8.253  26.688  14.360
36123W        W 8548  13.305  29.002  11.417
36124W        W 8549  19.060  33.931  12.487
36125W        W 8550  29.435  43.344  14.413
36126W        W 8551   5.416   6.786   0.393
36127W        W 8552   5.896   4.905   1.396
36128W        W 8553   5.688  17.203  13.491
36129W        W 8554  32.058  32.004   1.772
36130W        W 8555  34.405   2.234  13.503
36131W        W 8556  35.427   3.432   1.242
36132W        W 8557  23.157  35.007  14.807
36133W        W 8558  38.899  34.011  12.419
36134W        W 8559   6.429  22.740  14.376
36135W        W 8560  44.828  12.632   1.769
36136W        W 8561   3.762  35.422   3.636
36137W        W 8562  16.232  17.305  11.095
36138W        W 8563  43.448  19.546  11.385
36139W        W 8564  40.309  20.623  14.287
36140W        W 8565  29.556  43.954  14.759
36141W        W 8566  34.516   5.329   0.933
36142W        W 8567  37.846   0.910  13.837
36143W        W 8568   9.211  44.844   2.365
36144W        W 8569  30.429   5.209   3.240
36145W        W 8570  11.202   7.802  12.466
36146W        W 8571  43.930  25.598   0.332
36147W        W 8572  43.992  16.760   2.774
36148W        W 8573  34.518   3.718  13.333
36149W        W 8574   7.687  10.266  11.442
36150W        W 8575  28.985  17.740  12.063
36151W        W 8576  43.339   9.223  14.459
36152W        W 8577  42.344  13.722  11.875
36153W        W 8578  10.669  20.628  14.911
36154W        W 8579  10.711  20.058  13.951
36155W        W 8580  18.582  25.658   4.201
36156W        W 8581  38.842   6.756   0.957
36157W        W 8582   0.465  23.581  13.526
36158W        W 8583  31.153  12.121   4.700
36159W        W 8584  43.382  10.266  10.459
36160W        W 8585   1.880  28.185  14.789
36161W        W 8586  44.342  36.378   0.862
36162W        W 8587  12.122  42.844  11.129
36163W        W 8588  21.067   0.438  12.006
36164W        W 8589  40.887  32.894   0.904
36165W        W 8590   5.250  31.623   4.728
36166W        W 8591  16.249   4.717   2.406
36167W        W 8592   0.451  34.464  13.314
36168W        W 8593  25.597  20.049   0.871
36169W        W 8594  38.485   0.851  11.613
36170W        W 8595  12.831   3.941   0.418
36171W        W 8596  37.020  44.986   3.230
36172W        W 8597  36.850  19.536   4.808
36173W        W 8598  31.559  14.628   1.334
36174W        W 8599  37.452  11.199   3.759
36175W        W 8600  35.877  32.021   0.276
36176W        W 8601  21.106   9.830   0.897
36177W        W 8602  30.985   9.679  12.421
36178W        W 8603   4.343  24.560   4.821
36179W        W 8604  35.943   8.781  12.494
36180W        W 8605  23.635  36.964   3.853
36181W        W 8606  24.589  13.147   1.290
36182W        W 8607  13.726   6.787   3.371
36183W        W 8608  35.886   1.244  11.874
36184W        W 8609  17.113   3.448   1.839
36185W        W 8610  38.503  24.192  11.865
36186W        W 8611  17.667  12.168  11.881
36187W        W 8612   8.385  28.473   3.711
36188W        W 8613   0.444  29.427  12.485
36189W        W 8614  32.912  40.442  12.497
36190W        W 8615   9.358  14.751   0.775
36191W        W 8616  11.319   7.896  13.322
36192W        W 8617  44.379   4.270  14.876
36193W        W 8618   0.409   1.392   0.728
36194W        W 8619  17.077  27.497   1.904
36195W        W 8620  34.005   3.235  12.503
36196W        W 8621  44.269   5.700   1.239
36197W        W 8622  37.030  23.060   1.419
36198W        W 8623  30.995  27.592  14.763
36199W        W 8624  36.525  21.520   2.846
36200W        W 8625  22.176  12.841  12.088
36201W        W 8626   5.324  20.271  10.981
36202W        W 8627  41.293   2.750   0.420
36203W        W 8628  20.053   4.708   0.434
36204W        W 8629  18.229   1.800   4.745
36205W        W 8630  15.202  43.956  13.509
36206W        W 8631   2.881   8.318   4.261
36207W        W 8632  25.597  13.239  12.994
36208W        W 8633  10.850   3.389  13.941
36209W        W 8634  30.922  30.455  13.470
36210W        W 8635  21.112  36.546  12.567
36211W        W 8636  38.012   5.885  11.376
36212W        W 8637   3.277  23.608   2.381
36213W        W 8638  43.828  30.466   4.255
36214W        W 8639  42.834   9.179  10.897
36215W        W 8640  24.569  24.502   1.373
36216W        W 8641  32.119  20.056   2.786
36217W        W 8642  43.388  11.647   2.823
36218W        W 8643  12.162  24.023   2.702
36219W        W 8644  10.284  17.713  13.332
36220W        W 8645  33.913  31.574  11.926
36221W        W 8646  26.137  22.601  12.823
36222W        W 8647  28.141  12.611   2.888
36223W        W 8648  31.086  19.048   4.133
36224W        W 8649  36.050   5.217   4.336
36225W        W 8650  20.040  12.238   4.600
36226W        W 8651  40.799   0.756  13.389
36227W        W 8652   3.735  35.451  10.433
36228W        W 8653  16.263  25.153  11.376
36229W        W 8654  14.689  19.658   2.298
36230W        W 8655  16.668  31.901   4.254
36231W        W 8656  40.511   3.275  14.868
36232W        W 8657   3.875   3.240  10.924
36233W        W 8658  33.037  31.557  11.608
36234W        W 8659  25.117  14.202   5.297
36235W        W 8660  44.821  33.898   4.337
36236W        W 8661  26.460  27.105  14.870
36237W        W 8662  22.742  36.575   1.715
36238W        W 8663  40.040  26.495   4.143
36239W        W 8664  23.563  43.897   4.686
36240W        W 8665  17.621  30.029  10.449
36241W        W 8666  25.478  37.480   2.702
36242W        W 8667   8.681  23.509  14.766
36243W        W 8668  13.685   4.405   2.733
36244W        W 8669  14.821   2.950   2.339
36245W        W 8670  23.627  14.292   0.317
36246W        W 8671  16.733  37.885  14.344
36247W        W 8672   5.743  42.894   0.952
36248W        W 8673  43.487  26.661   0.325
36249W        W 8674  39.506  34.047   3.157
36250W        W 8675   6.908   5.716   0.252
36251W        W 8676  13.308   1.744  13.356
36252W        W 8677  27.484  24.500  11.084
36253W        W 8678  13.198   6.677  10.894
36254W        W 8679   8.179  11.303  14.398
36255W        W 8680   1.289  21.150  10.414
36256W        W 8681  12.853  29.503   3.717
36257W        W 8682  13.137  11.204   0.875
36258W        W 8683  12.239  44.402   3.860
36259W        W 8684  22.019  26.034   1.448
36260W        W 8685   1.339  40.856  12.440
36261W        W 8686  22.100  11.205  14.355
36262W        W 8687  20.109   1.255  11.428
36263W        W 8688  22.043  18.557   2.394
36264W        W 8689  20.556   3.839   2.798
36265W        W 8690   2.252  27.462   2.348
36266W        W 8691  44.849  29.152   1.383
36267W        W 8692  14.316  36.463   3.742
36268W        W 8693  17.245  44.999   2.877
36269W        W 8694   9.644   0.913   4.317
36270W        W 8695  10.806  44.928  11.590
36271W        W 8696  28.065  43.314   2.749
36272W        W 8697   5.347  15.210   4.604
36273W        W 8698  35.564   9.704   4.127
36274W        W 8699  22.018   7.304  12.553
36275W        W 8700  41.028  22.154  14.944
36276W        W 8701  41.918   0.905   3.346
36277W        W 8702  15.608  31.052   4.153
36278W        W 8703  23.611  24.594  14.455
36279W        W 8704   8.355  40.521  13.862
36280W        W 8705  27.540   7.234  12.902
36281W        W 8706  36.416  27.462   2.338
36282W        W 8707  18.558  33.880  14.315
36283W        W 8708  29.452  28.012  13.404
36284W        W 8709  39.912  30.496   3.821
36285W        W 8710  42.961  20.159   3.312
36286W        W 8711  25.995   0.320   0.888
36287W        W 8712  19.568   0.318   0.966
36288W        W 8713  29.131   4.205   1.918
36289W        W 8714   5.306  28.518  14.505
36290W        W 8715  25.093  44.765   3.344
36291W        W 8716  20.743  26.989   2.383
36292W        W 8717  31.534  41.322   0.848
36293W        W 8718  30.602   5.768   1.771
36294W        W 8719  15.292  42.943  12.017
36295W        W 8720   7.177  35.556   0.812
36296W        W 8721  25.171  21.177  14.817
36297W        W 8722  19.193  29.008   1.381
36298W        W 8723  13.317  37.905  14.031
36299W        W 8724  43.815  14.591   4.688
36300W        W 8725  22.640  12.156  13.841
36301W        W 8726  25.468  31.922   5.740
36302W        W 8727  36.548  19.216  12.381
36303W        W 8728  38.494  42.831   1.722
36304W        W 8729  10.282  40.867  12.399
36305W        W 8730  44.372  20.667   2.849
36306W        W 8731  19.556   0.338  10.476
36307W        W 8732  21.714  35.377  13.022
36308W        W 8733  36.454  22.603  10.961
36309W        W 8734   6.294   3.454  12.078
36310W        W 8735  18.670  38.516  13.025
36311W        W 8736   7.238  27.524  11.484
36312W        W 8737  38.368  30.118   2.736
36313W        W 8738  29.504  39.485  12.844
36314W        W 8739  35.557  21.036  14.859
36315W        W 8740  24.612  35.084  12.846
36316W        W 8741  16.661  37.917  13.000
36317W        W 8742  15.619  17.284   0.883
36318W        W 8743  23.670  41.856   0.808
36319W        W 8744  24.998  10.363  13.953
36320W        W 8745   3.429  21.581   0.927
36321W        W 8746  10.840  27.052   1.925
36322W        W 8747  32.078  44.769  13.457
36323W        W 8748  17.162  40.864  14.368
36324W        W 8749  25.573  18.610  14.325
36325W        W 8750   1.912  20.726   4.624
36326W        W 8751   8.314  30.075   0.809
36327W        W 8752  25.641   6.282  10.975
36328W        W 8753  41.999  30.543   2.198
36329W        W 8754  37.065  12.328  11.065
36330W        W 8755  24.085  35.515  13.385
36331W        W 8756  35.394  17.212  10.612
36332W        W 8757  19.574   8.343  11.604
36333W        W 8758   2.751  22.195  14.278
36334W        W 8759  43.921  33.506   4.838
36335W        W 8760  44.414  24.041   4.205
36336W        W 8761  18.622  28.994  11.911
36337W        W 8762  42.830   3.752  12.878
36338W        W 8763   0.800  26.468   1.895
36339W        W 8764  32.591  26.482  12.563
36340W        W 8765  35.916  19.136   0.381
36341W        W 8766   4.790   4.337  10.992
36342W        W 8767  17.103  23.025  12.401
36343W        W 8768  15.201   3.352   2.301
36344W        W 8769  14.702  19.043  14.464
36345W        W 8770  24.090  41.947   4.616
36346W        W 8771  27.543   9.332  11.507
36347W        W 8772  31.569   3.743   2.891
36348W        W 8773  30.593  12.189   4.681
36349W        W 8774  28.453  43.882   1.435
36350W        W 8775  16.171   8.376  10.586
36351W        W 8776  22.614  20.129   3.358
36352W        W 8777   7.871  33.603   4.633
36353W        W 8778  42.520  14.724  12.400
36354W        W 8779  40.463   3.288   0.373
36355W        W 8780  22.077  30.915   4.628
36356W        W 8781   5.333  17.672  11.052
36357W        W 8782  27.053  15.804  12.854
36358W        W 8783  39.834  20.528   3.782
36359W        W 8784  31.535  16.669   2.760
36360W        W 8785  16.802   5.309  12.531
36361W        W 8786  23.697  36.481   1.388
36362W        W 8787  29.076   3.222   2.319
36363W        W 8788  11.819  24.008   3.737
36364W        W 8789  25.107  41.478  12.086
36365W        W 8790  15.691  24.226   0.347
36366W        W 8791  40.502  16.726   3.785
36367W        W 8792  33.411  16.130  12.533
36368W        W 8793  29.594   3.459   3.665
36369W        W 8794  39.987  33.039   1.235
36370W        W 8795  26.051  25.032  11.590
36371W        W 8796  28.536  19.651  14.483
36372W        W 8797  25.600   5.388  13.333
36373W        W 8798  34.555   8.377  13.887
36374W        W 8799  21.184  24.697  13.325
36375W        W 8800  17.729  24.137   2.757
36376W        W 8801  28.980   2.462   3.197
36377W        W 8802  31.094   9.701  11.862
36378W        W 8803  30.588  13.694   2.402
36379W        W 8804  34.526  35.974   4.807
36380W        W 8805  38.986   7.667   1.757
36381W        W 8806  10.213  20.715   4.733
36382W        W 8807  38.456  25.973   0.404
36383W        W 8808  24.121  16.160  13.884
36384W        W 8809  28.084  23.219  14.850
36385W        W 8810   4.416  10.295   2.242
36386W        W 8811  25.133  22.657   2.764
36387W        W 8812  15.281  14.207  12.466
36388W        W 8813  41.464  18.124  10.560
36389W        W 8814  26.132  44.364  10.977
36390W        W 8815  31.023  43.323   4.781
36391W        W 8816  32.460  36.906   1.909
36392W        W 8817  10.657   0.427  11.051
36393W        W 8818  39.502  44.367   0.392
36394W        W 8819  31.438  31.136  11.409
36395W        W 8820  15.207  39.047   3.709
36396W        W 8821   2.812  36.929   4.279
36397W        W 8822  26.127  28.988  13.055
36398W        W 8823  31.427   0.351  14.785
36399W        W 8824  38.969  41.999   0.424
36400W        W 8825  29.146  25.644   0.918
36401W        W 8826  28.488   2.812   1.789
36402W        W 8827   3.823  31.027  12.546
36403W        W 8828   7.366   5.414   3.795
36404W        W 8829  10.758  42.859  14.468
36405W        W 8830  23.643  16.611  14.377
36406W        W 8831  33.542  20.137  13.421
36407W        W 8832   5.866  13.755   1.320
36408W        W 8833  36.000  39.488  11.560
36409W        W 8834  16.109  18.224  12.081
36410W        W 8835  36.430  38.007  11.539
36411W        W 8836  14.327  39.014  12.391
36412W        W 8837  11.862  19.699   2.370
36413W        W 8838  39.832  15.607   4.685
36414W        W 8839  44.390  12.153  14.913
36415W        W 8840  18.278  11.694   3.665
36416W        W 8841  20.258  36.584   0.328
36417W        W 8842  10.714  18.119  10.604
36418W        W 8843  30.956  24.147   4.289
36419W        W 8844  43.768  37.505  11.447
36420W        W 8845  23.504  12.785   2.738
36421W        W 8846  42.301  38.412  10.405
36422W        W 8847  38.865   8.838   2.677
36423W        W 8848   4.345  28.664  14.319
36424W        W 8849  11.793  30.093   4.282
36425W        W 8850  12.352  36.570   2.884
36426W        W 8851   4.742   9.290  13.335
36427W        W 8852  39.053   9.657   4.809
36428W        W 8853  21.579   3.752  12.924
36429W        W 8854   4.330  35.397   3.309
36430W        W 8855  11.863  44.775  13.858
36431W        W 8856   2.784  12.234   3.744
36432W        W 8857  16.122   4.707  14.353
36433W        W 8858  29.517   7.841   3.277
36434W        W 8859  30.005  36.444   3.635
36435W        W 8860   4.374  20.263  12.543
36436W        W 8861  17.785  30.520  10.611
36437W        W 8862  41.938   2.898   2.378
36438W        W 8863   0.930   4.754   5.214
36439W        W 8864  26.610   6.900   3.863
36440W        W 8865  23.060   3.814   3.246
36441W        W 8866  22.575   8.868  11.883
36442W        W 8867  14.165  25.189   1.391
36443W        W 8868  44.391  28.649   4.826
36444W        W 8869  29.145  32.613   4.348
36445W        W 8870  39.970  41.405   4.148
36446W        W 8871  15.773  40.337   3.156
36447W        W 8872  11.644   4.883   0.439
36448W        W 8873  40.917  16.257   2.790
36449W        W 8874  17.265  10.334  14.414
36450W        W 8875  38.340   5.367  11.448
36451W        W 8876   4.276   2.817   4.198
36452W        W 8877   7.242  44.982   3.358
36453W        W 8878  26.966   8.880   4.119
36454W        W 8879  17.802  22.133  12.462
36455W        W 8880  43.843  31.108   1.849
36456W        W 8881   0.839  22.139  13.946
36457W        W 8882  33.421  37.981  13.958
36458W        W 8883   2.843   7.896  14.450
36459W        W 8884  33.415  26.052  14.480
36460W        W 8885  44.784   9.194  13.918
36461W        W 8886  32.540  18.567   4.706
36462W        W 8887  30.569  21.045  13.362
36463W        W 8888  39.923  42.451   4.633
36464W        W 8889   8.341  44.845  12.460
36465W        W 8890  11.164  23.058   3.287
36466W        W 8891  32.609  21.134   4.245
36467W        W 8892  38.517   3.333   3.293
36468W        W 8893  44.438  31.028   2.291
36469W        W 8894  12.262  27.041   4.666
36470W        W 8895  37.342  26.015   4.741
36471W        W 8896  13.659  43.788   1.820
36472W        W 8897  26.985  27.662   4.745
36473W        W 8898  15.622  41.872  11.867
36474W        W 8899  26.033  31.944  12.096
36475W        W 8900  16.192   5.718  12.888
36476W        W 8901   7.887  40.456  10.891
36477W        W 8902  33.947   3.421   3.655
36478W        W 8903  37.063  16.095  11.567
36479W        W 8904   6.869  31.041   4.644
36480W        W 8905  31.058   7.395  11.066
36481W        W 8906  44.476  41.518  12.992
36482W        W 8907  40.935  33.447  11.485
36483W        W 8908  11.656   3.461   1.391
36484W        W 8909  21.223  20.061   2.744
36485W        W 8910  24.163  23.513  13.995
36486W        W 8911  11.788  12.259   0.433
36487W        W 8912  27.101  42.478   4.267
36488W        W 8913   9.173  41.881  14.952
36489W        W 8914  16.104  27.024   2.293
36490W        W 8915  21.027  37.934  11.560
36491W        W 8916   8.694  40.495   4.703
36492W        W 8917   8.280  21.223  12.851
36493W        W 8918   2.842  27.678  11.394
36494W        W 8919  22.603   7.189   4.700
36495W        W 8920  27.462  16.740  10.990
36496W        W 8921  17.274  23.565   3.373
36497W        W 8922  31.457  27.147  11.876
36498W        W 8923  10.818  13.807  12.096
36499W        W 8924  15.303  42.858   4.699
36500W        W 8925  40.859  26.544   1.808
36501W        W 8926  40.002  27.464   0.791
36502W        W 8927  17.788  19.215   1.881
36503W        W 8928  22.030  22.679   0.922
36504W        W 8929  25.502  40.022   2.721
36505W        W 8930   8.668  33.124   3.666
36506W        W 8931  16.696  17.583   4.656
36507W        W 8932   6.196  23.217  14.943
36508W        W 8933   7.811   8.813  10.486
36509W        W 8934   7.820  18.561   1.758
36510W        W 8935  38.863  37.980   2.881
36511W        W 8936   3.710  13.250  12.964
36512W        W 8937   7.814  18.617   4.685
36513W        W 8938  17.235  38.835   1.312
36514W        W 8939  38.050  40.320   3.196
36515W        W 8940   8.285  16.644   4.758
36516W        W 8941  42.282  22.681   9.549
36517W        W 8942   5.238  44.461  10.624
36518W        W 8943  17.125  31.640   0.429
36519W        W 8944  33.555  31.992   1.758
36520W        W 8945  11.199  15.291  11.594
36521W        W 8946   9.801  27.484  13.446
36522W        W 8947  38.035  31.470  13.876
36523W        W 8948  26.086   1.353   2.256
36524W        W 8949   8.664  21.167   3.309
36525W        W 8950  21.595  36.504  14.953
36526W        W 8951   1.749  10.200  11.543
36527W        W 8952  29.532  29.632  12.401
36528W        W 8953  33.005  12.205  10.543
36529W        W 8954  17.214  11.669  10.077
36530W        W 8955   5.766  44.447   0.338
36531W        W 8956   0.886  34.518  13.864
36532W        W 8957   4.241  24.053  14.483
36533W        W 8958  16.797   8.659  14.873
36534W        W 8959  20.596   7.906  11.426
36535W        W 8960  29.076  20.559   1.863
36536W        W 8961  27.614  25.111   3.335
36537W        W 8962  41.373  12.121   2.340
36538W        W 8963  22.055  34.381  10.426
36539W        W 8964  14.129  36.885   0.279
36540W        W 8965  21.084  38.470   2.212
36541W        W 8966  26.128  35.515  14.844
36542W        W 8967  37.060   6.776   1.818
36543W        W 8968  44.429  24.025   4.831
36544W        W 8969  36.368  27.052  14.850
36545W        W 8970   9.881   4.282   4.190
36546W        W 8971   7.250  26.457   0.381
36547W        W 8972   6.419  26.105  10.622
36548W        W 8973  41.858  11.267   2.903
36549W        W 8974  27.671  21.544  14.783
36550W        W 8975  41.526  27.042   4.126
36551W        W 8976  22.723  43.435   4.337
36552W        W 8977  22.587  32.950   4.155
36553W        W 8978  10.648  16.786  10.409
36554W        W 8979  10.747  40.031  12.516
36555W        W 8980   4.781  44.342   1.904
36556W        W 8981  26.518  10.876  10.912
36557W        W 8982  15.113  13.321  10.970
36558W        W 8983  44.432  22.092  13.464
36559W        W 8984  28.947   4.414  14.314
36560W        W 8985  18.720  17.105   1.810
36561W        W 8986  30.455  37.995   3.648
36562W        W 8987  25.598  10.837   4.760
36563W        W 8988  21.607  10.717   0.827
36564W        W 8989  19.690  43.779   3.714
36565W        W 8990   4.321  37.382  13.879
36566W        W 8991  34.552  41.958  13.805
36567W        W 8992   2.965  27.469   1.407
36568W        W 8993  12.649   4.400  10.466
36569W        W 8994  36.356   0.772  14.370
36570W        W 8995  42.904  29.541   2.714
36571W        W 8996  10.307  14.787  13.828
36572W        W 8997  44.466   4.945  12.949
36573W        W 8998  26.700   4.241  13.415
36574W        W 8999   8.293  18.601   0.891
36575W        W 9000  23.711  33.001  14.761
36576W        W 9001  35.551  10.164  12.862
36577W        W 9002  18.192  22.125  14.282
36578W        W 9003  29.553  32.623   4.252
36579W        W 9004  11.131  20.164   2.332
36580W        W 9005   6.813  43.800   2.224
36581W        W 9006  31.999  34.530   4.239
36582W        W 9007  20.754  27.565   3.853
36583W        W 9008   9.257  20.635  11.937
36584W        W 9009  36.452  36.965   1.718
36585W        W 9010  28.965  40.932   2.740
36586W        W 9011  35.897   6.785   4.808
36587W        W 9012  12.154   9.329   1.721
36588W        W 9013  20.149  40.526  10.558
36589W        W 9014   0.791  30.544   2.367
36590W        W 9015  34.053  19.231  11.443
36591W        W 9016  33.527  36.005   4.724
36592W        W 9017   8.841  11.648  12.898
36593W        W 9018  21.611  44.341   3.669
36594W        W 9019  25.659  15.604   1.786
36595W        W 9020   1.310   0.885   3.378
36596W        W 9021  30.024  33.548  13.380
36597W        W 9022  36.034  13.649  12.871
36598W        W 9023   4.769   0.282  11.082
36599W        W 9024  24.606  42.778   3.732
36600W        W 9025  26.585  44.399  11.447
36601W        W 9026  17.724   6.898   3.747
36602W        W 9027  33.976  16.311  11.605
36603W        W 9028  40.449  15.772  11.119
36604W        W 9029   4.885  30.020  11.975
36605W        W 9030  38.379  43.418   4.623
36606W        W 9031  27.149  22.662   3.837
36607W        W 9032  32.580  32.120   1.399
36608W        W 9033  37.961  38.450  14.475
36609W        W 9034  41.968  43.511  12.449
36610W        W 9035  31.952  28.997   4.716
36611W        W 9036  31.085  41.506   0.766
36612W        W 9037  40.386  28.110  11.944
36613W        W 9038   6.807  35.936  14.970
36614W        W 9039  39.381  38.069   2.812
36615W        W 9040  31.401   5.843  14.844
36616W        W 9041   8.762   2.355   4.633
36617W        W 9042   5.710   9.671  13.539
36618W        W 9043  23.240  23.626   3.321
36619W        W 9044  36.520   7.745   0.770
36620W        W 9045  21.565  33.510  10.433
36621W        W 9046  17.133  43.001   4.224
36622W        W 9047  37.008  44.817  13.437
36623W        W 9048  17.305  36.902  13.547
36624W        W 9049  11.284  41.852   3.169
36625W        W 9050  24.577  18.249   1.715
36626W        W 9051   9.392  25.599  11.875
36627W        W 9052  10.866  20.099  14.831
36628W        W 9053  40.323   3.407  10.571
36629W        W 9054   9.391   3.718  12.471
36630W        W 9055  36.006   1.921   3.308
36631W        W 9056  40.512  14.165   9.996
36632W        W 9057  44.919  29.066   2.785
36633W        W 9058  14.335  10.251  13.838
36634W        W 9059  36.029  13.662  14.772
36635W        W 9060   8.383  42.824   2.712
36636W        W 9061   2.391  25.149  10.061
36637W        W 9062  27.074   7.750  11.555
36638W        W 9063  12.732   4.721  14.834
36639W        W 9064  12.794  42.431  10.582
36640W        W 9065  33.058  12.728   2.748
36641W        W 9066  16.684  15.767  12.501
36642W        W 9067  15.820  28.465  11.094
36643W        W 9068  28.632  20.083  14.420
36644W        W 9069  18.156  21.745   4.761
36645W        W 9070  42.001   4.817  13.390
36646W        W 9071  21.183  30.418  13.027
36647W        W 9072  17.062   0.953   2.756
36648W        W 9073   8.791   5.760  14.885
36649W        W 9074  34.010  11.350  11.394
36650W        W 9075  31.424  38.876   3.780
36651W        W 9076  12.819  21.202   4.685
36652W        W 9077  38.909  13.828  11.858
36653W        W 9078  34.872  40.998  13.498
36654W        W 9079   6.348  22.011   4.733
36655W        W 9080   7.317  31.955  13.394
36656W        W 9081  37.085  32.954  13.869
36657W        W 9082  13.276  13.121  12.000
36658W        W 9083  38.940  43.299   4.305
36659W        W 9084  41.873   3.834   0.762
36660W        W 9085   4.840   2.252   2.395
36661W        W 9086  23.552  33.917  13.048
36662W        W 9087  43.316  40.904  11.886
36663W        W 9088   2.429   8.711  10.538
36664W        W 9089  10.665  29.491   3.818
36665W        W 9090   0.963   1.805  14.881
36666W        W 9091   7.737  18.185  12.897
36667W        W 9092  42.422  13.794  10.558
36668W        W 9093  38.835  16.653   1.808
36669W        W 9094  39.814   8.706  12.038
36670W        W 9095   5.729  23.121   3.635
36671W        W 9096   9.307  33.543  11.570
36672W        W 9097  21.572  31.068  14.846
36673W        W 9098   8.253  13.621   1.799
36674W        W 9099  15.252  38.365  11.892
36675W        W 9100  18.747   2.332   2.415
36676W        W 9101  42.327  37.455  12.347
36677W        W 9102  22.244  11.837   3.233
36678W        W 9103  11.235   5.872  11.935
36679W        W 9104  22.083  36.413   1.845
36680W        W 9105  33.492  24.496  10.996
36681W        W 9106   4.411   0.916   1.775
36682W        W 9107  37.358  35.564   2.223
36683W        W 9108   9.159  23.134   3.784
36684W        W 9109  30.599  34.369  13.846
36685W        W 9110   8.869   6.366   2.181
36686W        W 9111   0.987  20.168   2.378
36687W        W 9112   0.372  19.656  14.818
36688W        W 9113   2.831  13.127  14.936
36689W        W 9114  17.213  41.792  13.994
36690W        W 9115   8.167  44.385   2.224
36691W        W 9116  20.715  11.300   3.850
36692W        W 9117  37.518  25.993  12.357
36693W        W 9118  16.079  34.083  11.497
36694W        W 9119  28.116  43.994  10.928
36695W        W 9120   5.198  17.121  13.015
36696W        W 9121  10.362   7.189   1.376
36697W        W 9122  29.615  32.091   2.838
36698W        W 9123  22.660   2.812  13.812
36699W        W 9124  32.068   5.761   4.239
36700W        W 9125   2.270  44.929  11.091
36701W        W 9126  38.502  13.776  14.278
36702W        W 9127  24.633  32.517  10.962
36703W        W 9128  30.922  43.835   0.417
36704W        W 9129  25.693  21.255   5.165
36705W        W 9130  28.663  24.118   4.115
36706W        W 9131  24.107  35.079   3.723
36707W        W 9132  25.618   3.797  13.819
36708W        W 9133  27.460  19.273  13.465
36709W        W 9134  30.054  29.627  14.886
36710W        W 9135   5.807  40.525   3.215
36711W        W 9136  42.986   4.857  11.125
36712W        W 9137  43.942  40.497  10.985
36713W        W 9138  21.755  26.659  11.048
36714W        W 9139  14.594  31.525   3.748
36715W        W 9140   3.419  28.101   2.257
36716W        W 9141  36.399  42.380  11.503
36717W        W 9142  12.128  22.742  13.543
36718W        W 9143  22.097  37.380  12.509
36719W        W 9144  32.098  17.089   0.372
36720W        W 9145  33.916   9.184   0.876
36721W        W 9146   2.289  16.637  11.034
36722W        W 9147  14.112  43.307  13.430
36723W        W 9148  16.568   7.763   2.826
36724W        W 9149  26.176  39.327   1.287
36725W        W 9150  35.528  31.444  10.955
36726W        W 9151  15.790  42.515   0.403
36727W        W 9152   1.968   8.672   3.796
36728W        W 9153  16.312   6.226  12.075
36729W        W 9154   7.405   0.927  10.627
36730W        W 9155   2.244  44.487   0.446
36731W        W 9156  32.564  35.096  12.073
36732W        W 9157  15.239  43.885   4.787
36733W        W 9158  25.642   8.221  12.574
36734W        W 9159  30.970   6.802  14.453
36735W        W 9160  36.562  37.398   0.955
36736W        W 9161  23.616  41.425   2.750
36737W        W 9162  24.204  32.975  11.447
36738W        W 9163   2.372  12.352   1.238
36739W        W 9164  31.486   7.900   0.946
36740W        W 9165  14.833  22.657  13.452
36741W        W 9166  39.996  41.834   3.671
36742W        W 9167  29.174  17.127  12.918
36743W        W 9168  28.515  10.783  12.844
36744W        W 9169  13.636  13.800   2.877
36745W        W 9170  31.553  43.343   2.204
36746W        W 9171  27.073  10.711  10.438
36747W        W 9172   5.357  28.149  12.548
36748W        W 9173  10.378   8.696   0.407
36749W        W 9174  17.565  34.472   1.370
36750W        W 9175  41.801  41.812  11.906
36751W        W 9176   1.337  21.178  11.595
36752W        W 9177   6.777  14.197  10.537
36753W        W 9178  28.956  17.789  11.127
36754W        W 9179  28.106  20.701  14.997
36755W        W 9180  11.258  11.280   4.834
36756W        W 9181  22.515  33.950  13.544
36757W        W 9182   1.734   4.856  14.876
36758W        W 9183  44.872   9.172  10.432
36759W        W 9184  25.106   7.869   1.923
36760W        W 9185  37.568  37.005  14.942
36761W        W 9186  29.668  14.308   1.843
36762W        W 9187  38.515  35.413   1.812
36763W        W 9188  43.315  31.634  14.021
36764W        W 9189  28.536  24.684  10.617
36765W        W 9190   9.390  22.667  11.403
36766W        W 9191   0.985  16.077  11.485
36767W        W 9192   3.386  27.473   4.783
36768W        W 9193   1.477  38.354   2.416
36769W        W 9194  32.977  26.476  12.903
36770W        W 9195  34.939   2.925  11.481
36771W        W 9196  29.977  40.981  13.967
36772W        W 9197  33.426   1.353   0.370
36773W        W 9198  17.699  24.652   1.217
36774W        W 9199  23.176  44.884  12.064
36775W        W 9200  12.739  22.580  11.506
36776W        W 9201  15.702  15.592  13.971
36777W        W 9202   8.862  33.515   1.853
36778W        W 9203  20.729   5.814  10.557
36779W        W 9204  20.611   5.890   3.853
36780W        W 9205  40.807  33.464  13.309
36781W        W 9206   1.328  11.301   2.238
36782W        W 9207  39.326  39.826  10.992
36783W        W 9208  32.488  10.682   4.167
36784W        W 9209  23.538  33.030  11.415
36785W        W 9210  22.515   4.882   1.727
36786W        W 9211   8.811   5.773   2.239
36787W        W 9212  44.392   0.291   5.133
36788W        W 9213  33.023  24.524  12.574
36789W        W 9214  42.482   4.309   1.777
36790W        W 9215  15.714  30.414   9.973
36791W        W 9216   9.332   9.858   0.426
36792W        W 9217  16.631  36.969  14.841
36793W        W 9218  14.136   1.333  10.104
36794W        W 9219  28.488  11.224   4.602
36795W        W 9220  13.825  32.015   3.714
36796W        W 9221  18.616  12.306  10.513
36797W        W 9222  33.928  17.800  11.909
36798W        W 9223  39.926  38.016   1.767
36799W        W 9224  41.433  19.084  11.424
36800W        W 9225   3.824  27.092  11.869
36801W        W 9226  25.707  27.125  13.542
36802W        W 9227  35.983  31.051   3.683
36803W        W 9228  32.024  27.508  12.086
36804W        W 9229   3.738  13.623   1.363
36805W        W 9230   9.389  28.023   2.259
36806W        W 9231  35.534  32.952   2.389
36807W        W 9232  35.596   8.898  10.132
36808W        W 9233  30.982  18.711   3.369
36809W        W 9234   2.784  17.155  12.474
36810W        W 9235  41.375   6.238   2.180
36811W        W 9236  27.691   1.381  13.886
36812W        W 9237  21.018  27.687  11.071
36813W        W 9238  36.356   0.861  10.603
36814W        W 9239  31.913  15.165   1.301
36815W        W 9240  15.697  32.587  11.588
36816W        W 9241   4.271  40.383  13.438
36817W        W 9242  39.052  17.709   4.182
36818W        W 9243  18.620  40.972   0.730
36819W        W 9244  23.601  12.241  14.957
36820W        W 9245   4.798  35.898   1.376
36821W        W 9246  24.725  36.390   3.331
36822W        W 9247   7.801  18.750  10.930
36823W        W 9248   6.758  26.676  13.443
36824W        W 9249  34.108  38.398  14.327
36825W        W 9250   7.379   4.726  10.645
36826W        W 9251  18.712  17.781  11.476
36827W        W 9252  44.922   2.245  13.877
36828W        W 9253  31.479   5.783   3.815
36829W        W 9254  40.049  20.065  13.849
36830W        W 9255  10.159  39.877  14.330
36831W        W 9256  33.471  35.867  13.388
36832W        W 9257  29.074  20.056   1.216
36833W        W 9258  33.484  15.643   3.854
36834W        W 9259  20.058  32.497   4.730
36835W        W 9260  15.694  29.585   4.703
36836W        W 9261   6.681  25.707  14.766
36837W        W 9262  18.086  28.175   2.407
36838W        W 9263  17.247   9.649   1.273
36839W        W 9264  17.201  23.091   2.833
36840W        W 9265  43.895  33.913  14.940
36841W        W 9266  12.333  32.005   0.846
36842W        W 9267  22.076  27.184   4.648
36843W        W 9268  31.561  19.264   0.442
36844W        W 9269  28.069  44.270  11.463
36845W        W 9270  24.601   3.757  11.555
36846W        W 9271  23.994   0.345  11.011
36847W        W 9272  25.156   4.899   1.247
36848W        W 9273  32.068  35.469   3.854
36849W        W 9274  25.098  39.992  10.638
36850W        W 9275  33.385  10.655  14.405
36851W        W 9276  44.821  33.107  14.332
36852W        W 9277  18.614   7.681  11.451
36853W        W 9278  12.730  36.351   2.827
36854W        W 9279  37.831   5.389  12.945
36855W        W 9280  29.030  30.621  11.989
36856W        W 9281  12.738  10.725  12.941
36857W        W 9282  38.971   9.659   0.901
36858W        W 9283  10.666  32.990  14.907
36859W        W 9284   1.934  27.061  14.352
36860W        W 9285  36.846  23.135   2.411
36861W        W 9286  29.617  33.098   0.914
36862W        W 9287   7.705  22.730   3.275
36863W        W 9288  16.283  10.159   4.826
36864W        W 9289  10.686   0.945   2.847
36865W        W 9290  22.048   1.882   2.839
36866W        W 9291  18.749  21.032   1.259
36867W        W 9292  43.435  30.501   3.364
36868W        W 9293  15.738  32.892  13.908
36869W        W 9294  28.637  10.878   4.314
36870W        W 9295   9.194  29.024  13.025
36871W        W 9296  25.157   5.394  14.497
36872W        W 9297  25.524  35.593   3.746
36873W        W 9298  14.189  44.962   1.790
36874W        W 9299  31.642  14.171  14.894
36875W        W 9300   5.699  11.292   0.332
36876W        W 9301  38.027  16.287   4.154
36877W        W 9302  15.247   3.885   4.718
36878W        W 9303  20.705  16.265   0.726
36879W        W 9304  41.938  31.925  14.417
36880W        W 9305  37.972   8.192  10.411
36881W        W 9306  16.203  35.576  13.501
36882W        W 9307  15.717  10.310  13.879
36883W        W 9308   8.844  27.098  12.057
36884W        W 9309   2.766  34.888  12.969
36885W        W 9310  41.345   2.424   3.346
36886W        W 9311   5.421  23.727   2.378
36887W        W 9312  37.845  15.240   1.240
36888W        W 9313  35.989  42.788   3.202
36889W        W 9314  35.034  15.295  11.928
36890W        W 9315  16.308  29.582  12.020
36891W        W 9316  23.041  27.682  14.319
36892W        W 9317  44.372  22.189   1.411
36893W        W 9318  17.761  22.043  11.483
36894W        W 9319  37.439  20.709  14.018
36895W        W 9320  42.926  25.192   1.882
36896W        W 9321  25.701  18.762  13.803
36897W        W 9322   9.779  22.576   3.750
36898W        W 9323  12.634  18.660  10.473
36899W        W 9324   3.943  28.130  13.981
36900W        W 9325   2.233  16.769  14.019
36901W        W 9326   3.311   6.236   0.469
36902W        W 9327  36.366  14.137   3.266
36903W        W 9328   3.339  21.536  10.487
36904W        W 9329  30.959   3.378  11.516
36905W        W 9330  31.048  26.168  13.878
36906W        W 9331  30.460  41.375  11.470
36907W        W 9332   3.452  39.465   1.359
36908W        W 9333   4.753  36.388   2.253
36909W        W 9334  37.421  26.689   0.469
36910W        W 9335  26.965  10.777   0.400
36911W        W 9336   1.940  10.375   0.470
36912W        W 9337  10.253   4.376  14.338
36913W        W 9338  43.473  27.144  11.437
36914W        W 9339  21.693   4.746   2.714
36915W        W 9340  35.578  25.564  14.928
36916W        W 9341  41.395  14.812   3.745
36917W        W 9342  13.260  19.256  14.000
36918W        W 9343  33.511  37.992   0.252
36919W        W 9344  25.980   6.393  13.947
36920W        W 9345  19.246  42.959   4.791
36921W        W 9346  14.269  16.097   4.178
36922W        W 9347  36.401   2.887  13.859
36923W        W 9348  22.701  14.828  11.532
36924W        W 9349  41.979  16.770  12.571
36925W        W 9350  31.989  24.480   0.321
36926W        W 9351  29.551   9.200  14.449
36927W        W 9352  36.023  34.430   1.909
36928W        W 9353  23.048  37.384  14.004
36929W        W 9354   0.480  28.978   4.272
36930W        W 9355  19.735  24.562   0.305
36931W        W 9356  15.313  21.180   2.822
36932W        W 9357  32.017  13.680   3.864
36933W        W 9358  16.205  10.636  11.417
36934W        W 9359  25.989  39.324   4.815
36935W        W 9360   7.279  12.344   0.773
36936W        W 9361  16.629  10.724  12.976
36937W        W 9362  24.074  21.186  13.043
36938W        W 9363  43.347  28.995  12.906
36939W        W 9364  32.008  31.070   3.157
36940W        W 9365   8.178   3.221  10.933
36941W        W 9366  36.561  21.209   0.810
36942W        W 9367  10.789   4.234  11.528
36943W        W 9368  28.155   2.966   0.830
36944W        W 9369  42.996  24.705  12.521
36945W        W 9370  24.701  27.011   0.904
36946W        W 9371  29.584   5.314  14.381
36947W        W 9372   7.910  34.382   0.386
36948W        W 9373  22.230  35.468  10.982
36949W        W 9374  20.080  10.349  11.547
36950W        W 9375  34.953  19.169   3.326
36951W        W 9376  29.103  17.738  14.508
36952W        W 9377  29.644  28.443  10.465
36953W        W 9378  38.026  37.526  11.524
36954W        W 9379  14.124   6.184  13.327
36955W        W 9380  40.046  26.563  13.462
36956W        W 9381  35.564  41.503  12.924
36957W        W 9382   9.155  18.144   0.339
36958W        W 9383  29.540  28.004   1.757
36959W        W 9384  18.704  29.099  12.567
36960W        W 9385  11.852  24.104   1.932
36961W        W 9386  34.864   4.708  12.943
36962W        W 9387  23.091  10.647   2.194
36963W        W 9388   8.182  10.823  14.422
36964W        W 9389   8.247  43.505   0.915
36965W        W 9390  28.659   7.310   3.695
36966W        W 9391  27.057  13.819   1.303
36967W        W 9392  23.050  12.176   3.341
36968W        W 9393  22.721   3.436   5.182
36969W        W 9394  35.923  12.657  14.412
36970W        W 9395   1.965   2.936  12.414
36971W        W 9396  29.016  39.395   0.797
36972W        W 9397  37.378  42.838  12.040
36973W        W 9398  41.515  10.836   3.169
36974W        W 9399  23.650  22.606  13.848
36975W        W 9400  33.601  18.098   3.767
36976W        W 9401  43.436  27.546  11.980
36977W        W 9402  42.388   8.818   4.763
36978W        W 9403   7.409  22.243   1.760
36979W        W 9404  35.468  44.773  12.096
36980W        W 9405  38.386  20.728   3.630
36981W        W 9406  21.734  34.075   1.739
36982W        W 9407  14.198  35.589   3.859
36983W        W 9408   5.718  15.635  13.805
36984W        W 9409  43.456  16.168  14.933
36985W        W 9410  42.977  15.145   2.262
36986W        W 9411  25.013  32.431   3.844
36987W        W 9412  30.648  41.024  14.471
36988W        W 9413  20.524  35.519   0.272
36989W        W 9414  44.825   6.850   1.809
36990W        W 9415  21.601  27.667  14.505
36991W        W 9416   5.828   7.900   0.799
36992W        W 9417  43.870   9.220  13.377
36993W        W 9418  16.645  42.428   0.374
36994W        W 9419  36.986  16.740  11.125
36995W        W 9420  10.207  18.094   2.273
36996W        W 9421  37.890   8.708  12.346
36997W        W 9422  42.776  41.391  10.020
36998W        W 9423  40.456  41.457   1.753
36999W        W 9424  11.736  23.039   1.727
37000W        W 9425  38.474  16.256   1.895
37001W        W 9426  31.501  42.823  13.824
37002W        W 9427  33.385  26.553  11.588
37003W        W 9428  30.052   3.383   1.703
37004W        W 9429  25.606  40.917  13.468
37005W        W 9430   5.720   3.329  13.918
37006W        W 9431   2.757  34.463   4.634
37007W        W 9432   9.319  36.887  14.819
37008W        W 9433   1.764  44.263  13.926
37009W        W 9434  37.495   3.851   1.762
37010W        W 9435  25.633   4.246   1.716
37011W        W 9436   2.371  41.037  14.296
37012W        W 9437  43.336  10.689   4.329
37013W        W 9438   8.754  37.070   3.786
37014W        W 9439  13.648  26.171   1.434
37015W        W 9440  33.422  30.602  14.837
37016W        W 9441  18.613  29.477   2.353
37017W        W 9442  36.969  10.797   0.940
37018W        W 9443   8.388  41.854  14.866
37019W        W 9444  11.663  31.579   0.474
37020W        W 9445  38.511  39.317  11.058
37021W        W 9446   1.298  17.745  14.760
37022W        W 9447  22.610  13.292  13.971
37023W        W 9448  16.312  28.026   1.741
37024W        W 9449  21.151  21.595  10.985
37025W        W 9450  26.523  43.316  12.369
37026W        W 9451  37.554  10.196  12.354
37027W        W 9452  35.105   3.336  10.154
37028W        W 9453  38.894   8.713  14.021
37029W        W 9454  25.147  13.183   1.725
37030W        W 9455   5.845   6.262  14.503
37031W        W 9456  25.064  25.034   0.772
37032W        W 9457  32.988  37.488  13.835
37033W        W 9458  29.512  21.668  14.361
37034W        W 9459  11.742   7.855  14.913
37035W        W 9460  26.170  16.276  14.310
37036W        W 9461   8.727  42.365  10.408
37037W        W 9462  43.901  23.160  14.838
37038W        W 9463   7.219  13.699  14.327
37039W        W 9464  16.280  11.683   1.286
37040W        W 9465  31.070  26.499   3.235
37041W        W 9466   0.899  26.206   3.251
37042W        W 9467  22.073  22.580  13.482
37043W        W 9468  34.991  38.008   1.898
37044W        W 9469  44.842  17.278   2.776
37045W        W 9470  36.417   4.371  11.541
37046W        W 9471  42.026  24.649  13.363
37047W        W 9472  22.525  17.698  12.375
37048W        W 9473  23.209  36.867   1.834
37049W        W 9474  25.636   3.316   2.715
37050W        W 9475  36.463   5.194   2.847
37051W        W 9476  24.721  13.222  11.108
37052W        W 9477  37.850  11.795  10.566
37053W        W 9478  39.436  33.432  13.906
37054W        W 9479  25.606  25.613  14.435
37055W        W 9480   9.217  44.282   0.440
37056W        W 9481  10.641   8.888  10.543
37057W        W 9482  20.566  44.440  14.858
37058W        W 9483   0.753  24.516  10.913
37059W        W 9484   6.784  26.474  14.284
37060W        W 9485   9.388  31.490   2.230
37061W        W 9486  36.587  38.958   1.700
37062W        W 9487  40.396  28.031   0.371
37063W        W 9488  18.608  12.143   2.848
37064W        W 9489   7.809  17.180  14.432
37065W        W 9490   6.789   0.983  10.552
37066W        W 9491  14.330   5.863   1.785
37067W        W 9492   9.374  34.058  13.380
37068W        W 9493  28.484  37.422   2.792
37069W        W 9494  36.874  19.558  14.904
37070W        W 9495  30.955  33.032   0.883
37071W        W 9496   6.857  19.169   0.857
37072W        W 9497   5.856   4.355   1.272
37073W        W 9498   6.399  42.389  10.901
37074W        W 9499  19.126  23.148  10.531
37075W        W 9500  43.277  36.357   3.837
37076W        W 9501   9.837  33.579  14.809
37077W        W 9502  44.341  13.826  13.369
37078W        W 9503  22.731   8.352   0.376
37079W        W 9504  11.167  17.299   3.726
37080W        W 9505  20.088  22.674   2.703
37081W        W 9506  29.933  10.145   4.337
37082W        W 9507  26.608  39.034   3.204
37083W        W 9508  27.951  34.604   0.730
37084W        W 9509  23.986  28.511  14.934
37085W        W 9510  20.740  40.897   0.796
37086W        W 9511  30.624  30.470  11.581
37087W        W 9512   7.416  18.141   1.320
37088W        W 9513   8.204  20.121  14.423
37089W        W 9514  15.725  40.818  14.763
37090W        W 9515  12.172  41.335   4.708
37091W        W 9516  32.099  41.815   4.676
37092W        W 9517  20.746   9.779  10.486
37093W        W 9518  42.432  21.593  11.416
37094W        W 9519  28.043  21.557  10.092
37095W        W 9520  24.199  25.496   2.225
37096W        W 9521  30.953   4.790   4.733
37097W        W 9522  22.745  23.988  11.518
37098W        W 9523  26.539   0.420   4.149
37099W        W 9524  27.136  39.064  12.911
37100W        W 9525  19.697  37.971  14.397
37101W        W 9526  27.494  11.731   4.309
37102W        W 9527  13.244  40.899  12.575
37103W        W 9528  25.141  33.492  13.543
37104W        W 9529  27.029  32.499  10.147
37105W        W 9530  36.425  14.147  11.952
37106W        W 9531  31.151  40.443  12.020
37107W        W 9532   3.282  25.187   4.164
37108W        W 9533  18.139  22.668  11.379
37109W        W 9534  29.125  25.151  13.841
37110W        W 9535   7.710  44.908  13.469
37111W        W 9536  16.774  23.188   3.783
37112W        W 9537  35.985   9.221   2.817
37113W        W 9538   7.850  44.345   3.734
37114W        W 9539  25.079  30.615  14.996
37115W        W 9540  41.336  24.979   1.720
37116W        W 9541  32.138  12.750  10.512
37117W        W 9542  36.476  18.628   4.713
37118W        W 9543  44.928  36.486  13.892
37119W        W 9544   0.314  15.781  13.873
37120W        W 9545  39.034  16.202  12.061
37121W        W 9546  33.008  31.035  14.955
37122W        W 9547  40.429  43.907  12.463
37123W        W 9548   5.914  27.119   0.363
37124W        W 9549   9.708  29.638   4.715
37125W        W 9550   8.861   6.243  11.094
37126W        W 9551  23.052  35.414  11.922
37127W        W 9552  43.882   0.904  13.368
37128W        W 9553   5.754   3.896  14.416
37129W        W 9554   2.454  13.658   0.404
37130W        W 9555   3.923   6.813  12.026
37131W        W 9556   8.207  12.676  11.964
37132W        W 9557   1.482  34.613   2.800
37133W        W 9558  23.087   7.222   0.868
37134W        W 9559   6.263  17.216   4.839
37135W        W 9560   9.786  14.181   0.764
37136W        W 9561  11.314  17.615  12.981
37137W        W 9562  13.661  33.433   1.857
37138W        W 9563   3.838   7.767   1.299
37139W        W 9564  36.369  10.148   3.799
37140W        W 9565  28.111  17.593   1.212
37141W        W 9566  24.629  28.559  13.898
37142W        W 9567  25.703  26.083   2.880
37143W        W 9568  20.216  31.449   0.768
37144W        W 9569  10.645  33.127   3.704
37145W        W 9570  17.122  17.782  11.530
37146W        W 9571  23.513  29.921  12.545
37147W        W 9572  17.595  16.732  14.333
37148W        W 9573  14.763   3.221   9.561
37149W        W 9574   3.841  34.082   3.699
37150W        W 9575  10.197   6.882  12.353
37151W        W 9576  36.854   9.352   3.328
37152W        W 9577  13.607  31.592  11.494
37153W        W 9578  18.670  13.307  14.828
37154W        W 9579  38.354  18.787  14.329
37155W        W 9580  44.990  41.525   4.118
37156W        W 9581   4.703  26.614   2.369
37157W        W 9582  30.510  41.325   0.478
37158W        W 9583  20.097  12.789  11.083
37159W        W 9584  32.931  11.837  14.452
37160W        W 9585  38.847  23.078  10.958
37161W        W 9586  20.528  31.646   2.902
37162W        W 9587  38.548  18.067  11.953
37163W        W 9588  31.967  18.095   3.635
37164W        W 9589  27.148  15.160  12.944
37165W        W 9590  25.067  40.832   4.717
37166W        W 9591  29.496  39.509   3.864
37167W        W 9592  31.921  14.319   0.384
37168W        W 9593  11.272   9.193   0.821
37169W        W 9594  18.616   1.744  13.940
37170W        W 9595   4.943  37.411   4.181
37171W        W 9596  43.860  15.714   2.229
37172W        W 9597  22.728  34.885  10.980
37173W        W 9598  36.489  43.998   1.256
37174W        W 9599  23.721   4.886  12.880
37175W        W 9600  27.117   7.771   1.787
37176W        W 9601  25.183   9.350  13.497
37177W        W 9602  20.545  42.883   3.666
37178W        W 9603  12.225  14.329   0.738
37179W        W 9604   7.366  22.156  13.449
37180W        W 9605   7.317  40.325   2.314
37181W        W 9606  32.421   8.283   4.174
37182W        W 9607  23.489  30.987  12.078
37183W        W 9608  44.477  33.463   0.931
37184W        W 9609  22.637  35.086  14.428
37185W        W 9610  25.618  24.683   0.737
37186W        W 9611  12.855  31.590  12.491
37187W        W 9612  39.954  40.844  12.420
37188W        W 9613   4.261   8.673  14.459
37189W        W 9614  20.189  35.959  11.048
37190W        W 9615  21.746   6.898  11.411
37191W        W 9616  39.022   7.262  11.124
37192W        W 9617  24.641   1.782   2.871
37193W        W 9618   5.406  30.920   4.670
37194W        W 9619  33.563  27.106   1.255
37195W        W 9620  17.161  28.488   0.797
37196W        W 9621   7.706  32.135  11.487
37197W        W 9622  37.382  43.476  12.347
37198W        W 9623  35.377  31.019  12.344
37199W        W 9624  44.262  22.729   2.806
37200W        W 9625  26.667  33.578   0.803
37201W        W 9626  14.232  37.517  10.566
37202W        W 9627  24.616  29.155   3.807
37203W        W 9628   2.909  39.950  11.910
37204W        W 9629  30.115  30.449  14.000
37205W        W 9630  33.100  44.879  12.453
37206W        W 9631   4.281  37.919   1.724
37207W        W 9632  31.119  34.980   4.307
37208W        W 9633  16.300  20.708  12.475
37209W        W 9634   1.366  35.523   3.773
37210W        W 9635  24.002  21.654   4.783
37211W        W 9636   2.721  35.056  13.536
37212W        W 9637  14.590   8.183   1.858
37213W        W 9638   0.310  20.767  14.329
37214W        W 9639  14.796  20.530   3.775
37215W        W 9640  13.175  17.250  14.814
37216W        W 9641  37.337  31.085  12.062
37217W        W 9642  40.526  36.868  12.472
37218W        W 9643   0.349  34.497   1.787
37219W        W 9644   8.901   0.458   4.205
37220W        W 9645  10.729  34.960  13.826
37221W        W 9646  34.925  15.632  12.562
37222W        W 9647  13.672  23.105  11.493
37223W        W 9648   8.246  32.598   1.387
37224W        W 9649  43.842  27.568  10.499
37225W        W 9650  20.555  35.569   2.305
37226W        W 9651  23.601  44.328  13.357
37227W        W 9652  10.759  28.933   3.771
37228W        W 9653  39.469  17.160   3.379
37229W        W 9654   2.449  22.166   3.214
37230W        W 9655   8.315  30.102  10.424
37231W        W 9656  38.071  38.397  14.023
37232W        W 9657   1.766  32.906  11.002
37233W        W 9658   8.206   3.872   1.431
37234W        W 9659   4.408  33.887  13.813
37235W        W 9660   2.828  14.261   2.754
37236W        W 9661  32.608  35.507  12.040
37237W        W 9662  22.536   1.858   2.250
37238W        W 9663  36.873  20.657   2.860
37239W        W 9664  17.307  39.423   0.413
37240W        W 9665  39.842   8.213  12.443
37241W        W 9666  26.517   6.307   4.705
37242W        W 9667  32.972  40.354  11.606
37243W        W 9668  22.627  37.036  14.895
37244W        W 9669  40.996   1.806  14.360
37245W        W 9670  12.310  24.575  10.119
37246W        W 9671  29.134  37.080  13.426
37247W        W 9672  28.023  38.848  10.404
37248W        W 9673  36.370  18.604  14.819
37249W        W 9674   3.321   3.307  12.383
37250W        W 9675  34.505  39.846   1.839
37251W        W 9676  40.916  38.848   4.771
37252W        W 9677  36.544  37.461   1.323
37253W        W 9678  20.031   7.342   0.387
37254W        W 9679   6.721   3.250   3.676
37255W        W 9680  37.835  30.149  12.495
37256W        W 9681  34.593   8.182   5.708
37257W        W 9682  41.457   7.864  11.856
37258W        W 9683  11.325  42.362   4.835
37259W        W 9684  20.174  44.301   1.430
37260W        W 9685  42.323   6.896   4.120
37261W        W 9686   4.709  30.023  12.425
37262W        W 9687   2.265  39.871   2.883
37263W        W 9688  11.221  43.417   3.831
37264W        W 9689   2.832  21.720   3.179
37265W        W 9690   6.694  12.296   2.365
37266W        W 9691  33.592   6.366  13.490
37267W        W 9692  30.008  38.338   2.668
37268W        W 9693  12.853  19.779   0.313
37269W        W 9694   3.864   4.750  11.092
37270W        W 9695  39.988  39.533   4.153
37271W        W 9696   5.900  11.729  11.113
37272W        W 9697   8.267  41.789   2.823
37273W        W 9698   4.818  16.102   1.895
37274W        W 9699  13.279   4.338   4.276
37275W        W 9700   8.865  17.062   3.273
37276W        W 9701  38.517   4.909   3.642
37277W        W 9702  23.535   8.763  13.477
37278W        W 9703  21.673   4.820  10.990
37279W        W 9704  27.055  25.560   2.767
37280W        W 9705  20.576  10.745  14.372
37281W        W 9706  22.511   3.865   2.206
37282W        W 9707  18.588  28.125   4.271
37283W        W 9708  31.522   7.216   4.195
37284W        W 9709  18.567  24.570   2.298
37285W        W 9710  34.007  33.050   2.767
37286W        W 9711   6.297  37.895   0.258
37287W        W 9712  44.355   7.362   3.683
37288W        W 9713   8.687  21.689  11.865
37289W        W 9714   0.314   7.714  14.363
37290W        W 9715  35.505  26.031   1.891
37291W        W 9716  41.391   6.395   4.243
37292W        W 9717  44.327   5.418   3.251
37293W        W 9718  32.020   7.378  12.970
37294W        W 9719  31.079  19.753  13.506
37295W        W 9720  21.645  24.711  11.441
37296W        W 9721  10.318  34.087  13.917
37297W        W 9722  24.028  38.832  11.375
37298W        W 9723  31.422  26.594  13.929
37299W        W 9724  18.204  44.869   0.404
37300W        W 9725   2.783   6.294  13.488
37301W        W 9726  15.805  25.699  12.074
37302W        W 9727  16.725   6.762   1.722
37303W        W 9728   2.754  17.788  11.560
37304W        W 9729   4.876   8.173  13.012
37305W        W 9730   7.263  26.075   1.700
37306W        W 9731  31.518  35.563   0.765
37307W        W 9732   7.240   8.187   4.174
37308W        W 9733  37.409  15.644  14.758
37309W        W 9734  39.025  25.169  13.801
37310W        W 9735  44.385  17.730   0.247
37311W        W 9736  13.182  15.742  12.994
37312W        W 9737  23.610  34.510  13.371
37313W        W 9738  30.633  14.733   2.890
37314W        W 9739  38.383  33.905   1.841
37315W        W 9740  43.806  26.485   0.892
37316W        W 9741   9.656   2.848   1.787
37317W        W 9742  40.891  27.156   2.805
37318W        W 9743  16.581   7.674  13.351
37319W        W 9744  27.679  43.899   3.295
37320W        W 9745  20.191  35.456   2.698
37321W        W 9746  21.211  32.559   1.822
37322W        W 9747   0.279  30.993  10.889
37323W        W 9748  24.166  10.819  14.795
37324W        W 9749  30.070  35.363  13.525
37325W        W 9750  37.420  33.089  10.617
37326W        W 9751  35.596  41.973   4.264
37327W        W 9752  20.675   4.430  14.893
37328W        W 9753  43.313  36.013   1.378
37329W        W 9754  19.164  43.922  14.344
37330W        W 9755   8.284  21.053   3.160
37331W        W 9756  22.644  26.161  13.921
37332W        W 9757  25.143  10.839   0.731
37333W        W 9758  37.532   8.367   5.783
37334W        W 9759  20.273  27.033  14.003
37335W        W 9760   2.279  23.078  11.590
37336W        W 9761  40.945  23.068  14.885
37337W        W 9762  37.485  43.786  14.826
37338W        W 9763  11.698   9.714  14.383
37339W        W 9764   3.891  13.152   3.850
37340W        W 9765  42.500  18.586  11.964
37341W        W 9766  11.223   1.947  13.381
37342W        W 9767   5.273  41.977  10.911
37343W        W 9768  26.660   6.289  14.815
37344W        W 9769   9.800  27.002  10.465
37345W        W 9770  15.634  29.065   0.422
37346W        W 9771   8.886  29.623   3.729
37347W        W 9772  31.926  32.021  13.494
37348W        W 9773  38.821  19.195   1.923
37349W        W 9774  30.158   7.257   0.942
37350W        W 9775  14.718  35.446  11.992
37351W        W 9776   0.804  23.989  11.077
37352W        W 9777  27.480  26.519  14.299
37353W        W 9778  15.629  37.040   4.733
37354W        W 9779  31.593  16.131  12.570
37355W        W 9780   5.351  13.277  12.540
37356W        W 9781  41.298   0.875   3.691
37357W        W 9782  35.092  38.018  12.520
37358W        W 9783  31.084   2.346  11.012
37359W        W 9784  24.488   5.708  12.463
37360W        W 9785  14.097   6.188   2.814
37361W        W 9786  25.585  27.154   1.347
37362W        W 9787   6.799  20.637   3.307
37363W        W 9788  31.550  40.516   1.884
37364W        W 9789  38.897  43.787  14.380
37365W        W 9790   9.342  41.940   3.727
37366W        W 9791  37.562  37.384  12.505
37367W        W 9792  40.436   1.752  14.350
37368W        W 9793  14.811  27.610   0.820
37369W        W 9794  22.239  25.575  10.914
37370W        W 9795  33.402   4.321  12.087
37371W        W 9796  21.738  22.542  11.975
37372W        W 9797  26.175  25.482   1.274
37373W        W 9798   2.747   0.936   4.691
37374W        W 9799  27.128  30.994  11.033
37375W        W 9800  43.305  11.320  13.837
37376W        W 9801  13.776   6.271   2.796
37377W        W 9802  12.723  26.200   2.390
37378W        W 9803   0.772  19.173  13.793
37379W        W 9804  15.802   2.328  10.619
37380W        W 9805  24.609  21.717   4.257
37381W        W 9806  31.975  38.505  11.536
37382W        W 9807   2.391   6.917  11.428
37383W        W 9808  18.576  19.639   3.870
37384W        W 9809  32.948  21.109  10.929
37385W        W 9810  37.400  19.760  10.638
37386W        W 9811  13.119  25.701   1.378
37387W        W 9812  43.280  37.850  11.553
37388W        W 9813   9.252   7.407  12.406
37389W        W 9814  38.861   0.934   0.311
37390W        W 9815   9.216  16.640  11.047
37391W        W 9816  20.263  18.748   4.686
37392W        W 9817  42.509  25.108   2.245
37393W        W 9818   2.794  42.863   4.649
37394W        W 9819  27.550  44.416  12.493
37395W        W 9820  27.028  24.010   2.231
37396W        W 9821  35.506  11.861   2.772
37397W        W 9822  11.154  34.954   1.402
37398W        W 9823   4.384  43.281   0.821
37399W        W 9824  37.394   1.856  14.792
37400W        W 9825  43.920   8.329  14.834
37401W        W 9826  16.203  41.962  13.919
37402W        W 9827  27.130  10.162   4.161
37403W        W 9828   6.373  12.770   2.844
37404W        W 9829   8.370  43.010  11.456
37405W        W 9830  33.592  24.024   1.334
37406W        W 9831  41.359  29.998  12.059
37407W        W 9832  14.662  13.220   1.367
37408W        W 9833  16.170   3.877   1.707
37409W        W 9834   2.787   5.231  10.546
37410W        W 9835  30.481  42.423   2.764
37411W        W 9836  26.987  36.867   0.827
37412W        W 9837  28.060   1.338  13.864
37413W        W 9838   6.816   3.839  11.078
37414W        W 9839  23.543   3.952  14.797
37415W        W 9840  11.198  24.674  11.027
37416W        W 9841  32.010  35.904  14.969
37417W        W 9842  19.688  38.379   0.293
37418W        W 9843   2.459   4.285   3.821
37419W        W 9844  28.547  42.429   3.162
37420W        W 9845  26.641  21.191   3.813
37421W        W 9846  38.909  25.109  10.897
37422W        W 9847  41.861  22.196   0.434
37423W        W 9848   1.285  23.188   1.312
37424W        W 9849  17.647  43.464  12.066
37425W        W 9850  39.882  28.064  13.434
37426W        W 9851  40.547  37.572   3.213
37427W        W 9852  41.398   1.776   3.155
37428W        W 9853  32.971   6.226  10.969
37429W        W 9854  39.902  11.841   4.313
37430W        W 9855   5.912  24.606  10.486
37431W        W 9856  14.303  26.025  14.373
37432W        W 9857  15.633  11.136  13.519
37433W        W 9858  11.263   5.788   2.726
37434W        W 9859  16.289  11.324   4.815
37435W        W 9860   1.471   4.313   4.671
37436W        W 9861  42.344   5.784  14.328
37437W        W 9862   8.302   3.803  14.417
37438W        W 9863  24.013  18.286  12.066
37439W        W 9864  42.507  18.233  11.422
37440W        W 9865   2.820   8.805  10.896
37441W        W 9866  43.002  42.887  10.603
37442W        W 9867  35.054  39.333   1.289
37443W        W 9868  28.112  19.696  14.790
37444W        W 9869  38.854   8.806   4.807
37445W        W 9870  44.920  36.382  14.437
37446W        W 9871  30.534   4.410  14.794
37447W        W 9872  25.148  17.569  11.418
37448W        W 9873  12.293  35.878  12.379
37449W        W 9874  38.062  15.186  13.964
37450W        W 9875  16.131   5.202   1.799
37451W        W 9876   3.428  28.014  10.635
37452W        W 9877  44.755  26.557   4.269
37453W        W 9878  32.963  35.094  10.432
37454W        W 9879   0.837  19.549   3.328
37455W        W 9880   6.832   6.794  13.508
37456W        W 9881  24.108  40.306   4.733
37457W        W 9882  17.146  31.413   4.783
37458W        W 9883  20.244  25.181   1.856
37459W        W 9884   1.825   2.907   0.442
37460W        W 9885  18.170  20.639   4.650
37461W        W 9886  37.974  27.997  13.537
37462W        W 9887   8.205  28.574   3.198
37463W        W 9888  13.770  38.059  12.381
37464W        W 9889  26.168  43.887  13.837
37465W        W 9890  19.160  30.594  10.617
37466W        W 9891  44.313  26.520   1.279
37467W        W 9892  13.181  39.446  12.441
37468W        W 9893  14.741   3.387  13.450
37469W        W 9894  34.084  22.723   4.330
37470W        W 9895   5.282  34.076  13.043
37471W        W 9896  43.862  20.644  11.607
37472W        W 9897  30.470  20.731   2.288
37473W        W 9898  37.369   8.774  11.961
37474W        W 9899  33.437  30.959  11.400
37475W        W 9900  39.819   6.745  12.834
37476W        W 9901   4.308  29.981   2.242
37477W        W 9902  16.205  19.234  12.035
37478W        W 9903  15.632   6.736  12.543
37479W        W 9904   1.338  27.674  12.052
37480W        W 9905  11.705   8.826   4.241
37481W        W 9906  32.087  32.410  11.987
37482W        W 9907  44.780  23.496   3.214
37483W        W 9908  43.483  21.671   0.434
37484W        W 9909  35.420  35.090  13.854
37485W        W 9910  37.884   1.969   3.808
37486W        W 9911  31.614  13.341   1.299
37487W        W 9912  12.268  24.529   1.893
37488W        W 9913  17.702   6.789  14.383
37489W        W 9914  43.272  29.049  12.498
37490W        W 9915  36.982   3.403  13.979
37491W        W 9916  36.483  31.552  12.012
37492W        W 9917  35.895   8.355   3.798
37493W        W 9918  32.084  24.578   4.802
37494W        W 9919  15.711   3.344   5.120
37495W        W 9920  33.996  19.155   1.280
37496W        W 9921  22.175  14.607  14.833
37497W        W 9922   4.406  26.144   3.320
37498W        W 9923  26.648  35.018  14.326
37499W        W 9924   4.748  33.063   0.396
37500W        W 9925  32.117  12.800  14.827
37501W        W 9926  39.826  26.524   2.886
37502W        W 9927  41.295   7.812  12.510
37503W        W 9928   8.403  16.198  10.447
37504W        W 9929  14.197  28.630  14.792
37505W        W 9930  38.342  31.427  12.477
37506W        W 9931   5.737  43.973  13.473
37507W        W 9932  16.260  14.149  12.023
37508W        W 9933  11.313  29.513  14.804
37509W        W 9934  43.387   9.334   2.209
37510W        W 9935  43.302  20.201  10.523
37511W        W 9936  26.154   3.948  11.600
37512W        W 9937   9.320   3.343   1.794
37513W        W 9938  14.598  41.938  11.008
37514W        W 9939   1.252  10.726   3.636
37515W        W 9940  41.814  42.782   2.886
37516W        W 9941   1.796   9.297  13.386
37517W        W 9942  21.722  26.993  11.532
37518W        W 9943   0.462  22.230   2.189
37519W        W 9944  35.394  29.142  10.567
37520W        W 9945  10.352   0.413  14.891
37521W        W 9946  38.849  25.975   2.686
37522W        W 9947   1.869  32.535   1.226
37523W        W 9948   6.782  17.151  11.005
37524W        W 9949   7.746   8.670   3.166
37525W        W 9950  17.689  29.501   2.889
37526W        W 9951  14.237   2.777   1.804
37527W        W 9952   6.887  43.811  10.507
37528W        W 9953  41.832  24.489   4.750
37529W        W 9954   0.956  15.250  10.554
37530W        W 9955  17.277   9.803   3.237
37531W        W 9956  34.115  44.352  11.893
37532W        W 9957  29.512   2.252  11.401
37533W        W 9958   1.910  16.697   4.630
37534W        W 9959  17.646  22.170  13.436
37535W        W 9960   1.282  19.234  12.487
37536W        W 9961   9.233  23.128  14.947
37537W        W 9962  17.115  32.404  12.482
37538W        W 9963  39.459  20.640  10.513
37539W        W 9964  12.146  13.653   0.775
37540W        W 9965   7.753  24.172   1.880
37541W        W 9966  31.636  33.473   0.906
37542W        W 9967  13.197  33.018   1.714
37543W        W 9968  36.523  41.294  10.097
37544W        W 9969   2.733   8.320   1.379
37545W        W 9970  36.931  14.782   3.806
37546W        W 9971   0.326  28.057   1.695
37547W        W 9972  38.501   7.316   4.147
37548W        W 9973  26.093  36.962   3.255
37549W        W 9974  16.735  21.754  10.435
37550W        W 9975  17.654  11.700   0.864
37551W        W 9976  20.073  41.454   0.256
37552W        W 9977  19.763  33.432   2.399
37553W        W 9978  25.616  12.641   3.644
37554W        W 9979  14.714  19.075  13.513
37555W        W 9980  24.570  38.828   2.360
37556W        W 9981  24.646  17.600  13.510
37557W        W 9982  11.760  29.643  14.883
37558W        W 9983  39.550  10.782   0.440
37559W        W 9984   5.766  28.535   0.917
37560W        W 9985   3.227  13.152  14.416
37561W        W 9986  29.436  29.465   4.165
37562W        W 9987   1.462  22.642   1.779
37563W        W 9988  13.710   9.693  12.442
37564W        W 9989   4.739   2.317   3.274
37565W        W 9990   0.899  27.482  13.808
37566W        W 9991  44.984  43.002  10.620
37567W        W 9992  36.369  25.003  14.479
37568W        W 9993  21.168  37.403  13.013
37569W        W 9994   7.818  28.446  11.585
37570W        W 9995  12.643  19.711  13.421
37571W        W 9996  44.863   2.756   0.862
37572W        W 9997  31.471  13.791   1.740
37573W        W 9998  43.852  25.213   4.701
37574W        W 9999  17.240   5.437  14.949
37575W        W10000  33.077  31.058   4.305
37576W        W10001  22.120  17.590   4.751
37577W        W10002  31.120  40.471   9.948
37578W        W10003  38.014  30.938  13.379
37579W        W10004  34.603  19.048   0.406
37580W        W10005  29.076   8.162  14.383
37581W        W10006  44.989  11.711   2.847
37582W        W10007  42.030  24.668  11.103
37583W        W10008   9.731  26.086   2.708
37584W        W10009  33.611  40.804   1.721
37585W        W10010  44.429  38.071  13.026
37586W        W10011  36.575  36.355  14.346
37587W        W10012  30.469  27.633  13.013
37588W        W10013  41.515   5.878   0.258
37589W        W10014  34.545   4.297  14.401
37590W        W10015  39.525  12.130   0.292
37591W        W10016   5.400  31.131   0.375
37592W        W10017  43.316  40.361   2.761
37593W        W10018  37.565   0.874  14.303
37594W        W10019  13.223  17.237   0.397
37595W        W10020  36.896  31.509   0.929
37596W        W10021   0.381   7.346  14.385
37597W        W10022  44.804  16.077  13.346
37598W        W10023  22.575  30.914  11.565
37599W        W10024   7.196  33.485  10.979
37600W        W10025  26.198  34.476  12.395
37601W        W10026  34.451  21.062  13.409
37602W        W10027  27.993   8.208   1.706
37603W        W10028   2.429   4.411   3.203
37604W        W10029   7.703  44.903   1.880
37605W        W10030  40.462  39.460  11.985
37606W        W10031   8.818  31.429  10.921
37607W        W10032  20.718   3.711  13.815
37608W        W10033   0.300  33.422  10.432
37609W        W10034  18.662   5.397   0.360
37610W        W10035  38.430  18.783   1.700
37611W        W10036  25.196  30.046   5.213
37612W        W10037  33.382  30.583   3.385
37613W        W10038  33.908  32.067   1.405
37614W        W10039  30.599   6.300   2.406
37615W        W10040   7.766  19.172   0.402
37616W        W10041  35.445   2.863  12.014
37617W        W10042  39.350   6.308   9.935
37618W        W10043  28.478  11.206  10.459
37619W        W10044   5.732  12.332   1.415
37620W        W10045   9.826  32.079  14.324
37621W        W10046  18.750  15.259  12.422
37622W        W10047  29.489  35.358  12.399
37623W        W10048  18.661  10.199   5.181
37624W        W10049   3.944  40.822   1.817
37625W        W10050  22.673  33.579   1.910
37626W        W10051   7.407  35.050  10.630
37627W        W10052   2.443  15.095  10.916
37628W        W10053  19.183   0.449   4.755
37629W        W10054  28.160  35.514  10.964
37630W        W10055   8.674   7.683  11.560
37631W        W10056  22.688  37.875  12.025
37632W        W10057  42.468  34.604  14.999
37633W        W10058  22.055   0.769  10.999
37634W        W10059   6.353   7.667   2.298
37635W        W10060  29.990   9.819   3.242
37636W        W10061  41.301  37.391   4.775
37637W        W10062  29.615  41.538  10.625
37638W        W10063  44.789  40.312   0.365
37639W        W10064  15.227  18.716  14.912
37640W        W10065   3.407  26.994   4.125
37641W        W10066  32.572  31.042   1.312
37642W        W10067   3.882  19.265   3.720
37643W        W10068  34.928  16.625   1.698
37644W        W10069  35.495  31.077   2.371
37645W        W10070  33.380  14.740  14.899
37646W        W10071   9.306  42.429  12.436
37647W        W10072   1.848  41.834   2.884
37648W        W10073   6.777  35.505   3.322
37649W        W10074  36.526  11.825  12.377
37650W        W10075  35.942  29.939   0.380
37651W        W10076  34.424   0.377   2.274
37652W        W10077  24.181   9.321  14.939
37653W        W10078  23.649  41.015  13.859
37654W        W10079  19.697  44.382  10.444
37655W        W10080   9.814  34.008   0.484
37656W        W10081   8.754  29.581   4.281
37657W        W10082  29.646  41.802   4.763
37658W        W10083  41.814  38.872  10.545
37659W        W10084  28.955  24.137  14.305
37660W        W10085   2.802   5.340   1.230
37661W        W10086  26.118  12.241  12.864
37662W        W10087  36.009  17.161   0.945
37663W        W10088  31.931   1.890  14.278
37664W        W10089  21.588  26.156   3.300
37665W        W10090  11.723  29.584  12.403
37666W        W10091  18.184  34.530   4.626
37667W        W10092  41.914  15.732   1.843
37668W        W10093  32.432  20.551   1.875
37669W        W10094  26.669  24.558  11.100
37670W        W10095  36.095  22.621   2.800
37671W        W10096  41.448  10.655  11.992
37672W        W10097  41.435  34.097  11.461
37673W        W10098  34.598   6.785  10.429
37674W        W10099  19.200  28.018   1.915
37675W        W10100  26.126  41.918  10.614
37676W        W10101  14.176  43.923   3.697
37677W        W10102   5.224   8.836  13.795
37678W        W10103  11.789  19.570  13.839
37679W        W10104  28.659  14.815  11.929
37680W        W10105  25.141   9.336   2.880
37681W        W10106  39.812  24.509   3.206
37682W        W10107  42.518  38.973   2.675
37683W        W10108   2.754  23.723   3.174
37684W        W10109  34.549  43.765  11.429
37685W        W10110   1.293  11.321   1.267
37686W        W10111   0.366  35.860  13.812
37687W        W10112  20.729  43.410   3.811
37688W        W10113  13.336  41.336   1.248
37689W        W10114  28.182   1.291   0.476
37690W        W10115  42.963  33.078   9.927
37691W        W10116  31.540  39.992  10.935
37692W        W10117  21.129  20.253   3.202
37693W        W10118  27.588  24.555  12.533
37694W        W10119  41.891  17.601   3.724
37695W        W10120   8.875   7.345   4.203
37696W        W10121  29.520  40.907  11.979
37697W        W10122  32.559  18.069  12.490
37698W        W10123  41.022   4.713  13.846
37699W        W10124  29.164  15.689  10.895
37700W        W10125  32.471   3.333   4.269
37701W        W10126  16.080  10.216  12.075
37702W        W10127  24.672  17.149  11.946
37703W        W10128  11.689  22.227  12.045
37704W        W10129  13.324  21.532   4.820
37705W        W10130   1.467  44.309  10.614
37706W        W10131   8.233  36.917  11.579
37707W        W10132  13.318  31.558   4.673
37708W        W10133  10.247  13.825  14.369
37709W        W10134  10.215  28.484  11.991
37710W        W10135  16.180   2.281  12.505
37711W        W10136   7.388  27.974   1.799
37712W        W10137  42.447   2.930  12.361
37713W        W10138  44.333  42.775   4.308
37714W        W10139  18.217  31.479  12.373
37715W        W10140  27.620  31.966  12.446
37716W        W10141  28.648  36.016  14.823
37717W        W10142  38.360  29.978   4.186
37718W        W10143  24.221   6.243   1.922
37719W        W10144   6.795  14.796   3.199
37720W        W10145  19.613   6.394   3.217
37721W        W10146  32.394  11.283  14.475
37722W        W10147  30.629   8.327  12.390
37723W        W10148  18.548  12.132   1.728
37724W        W10149  17.713   3.427  13.001
37725W        W10150  14.672  19.536  11.410
37726W        W10151  24.545  13.123   1.721
37727W        W10152  40.810  25.610  11.599
37728W        W10153  35.957   0.426  11.519
37729W        W10154  10.168  43.995   2.237
37730W        W10155  33.925  35.455  14.395
37731W        W10156  16.790  36.097   0.772
37732W        W10157  24.167  20.235  13.536
37733W        W10158  20.236  42.908  11.516
37734W        W10159  25.684   7.370  11.420
37735W        W10160   6.349  12.757   1.817
37736W        W10161   3.741  41.995  11.538
37737W        W10162  13.245  39.907  10.910
37738W        W10163  28.103  37.490   0.479
37739W        W10164  38.953  20.156   1.289
37740W        W10165   9.165  28.638   0.735
37741W        W10166  12.282  44.297   0.369
37742W        W10167  10.667   8.172  14.292
37743W        W10168  24.227  12.189   4.118
37744W        W10169   4.746   5.874  13.427
37745W        W10170  34.568  23.164   2.343
37746W        W10171  25.591  21.628  13.911
37747W        W10172  38.462  19.696   3.293
37748W        W10173   7.755  39.345  14.931
37749W        W10174   8.833  42.889  13.951
37750W        W10175  21.704  15.222  11.916
37751W        W10176  29.946  40.923   4.212
37752W        W10177  29.474  37.406   0.431
37753W        W10178   8.191  14.821  14.787
37754W        W10179  41.037  13.773   0.366
37755W        W10180  26.099  22.577  13.504
37756W        W10181  16.273   3.867  14.027
37757W        W10182  24.637  16.607   2.837
37758W        W10183  41.439  43.862  14.865
37759W        W10184  28.083  14.319   1.390
37760W        W10185  11.259  37.472  13.791
37761W        W10186  13.788  20.674  10.442
37762W        W10187  18.249  30.419   1.728
37763W        W10188   3.878   2.253   0.963
37764W        W10189  20.095  16.616   3.380
37765W        W10190   6.840   1.750  10.509
37766W        W10191  26.958  11.770   2.885
37767W        W10192  21.754  36.892   2.883
37768W        W10193   9.882   0.480  12.580
37769W        W10194  12.799  36.493   3.653
37770W        W10195  15.083  16.108   0.357
37771W        W10196  24.006  21.156  10.154
37772W        W10197  35.950  16.317   2.367
37773W        W10198   3.245  32.611  11.596
37774W        W10199  27.062  38.064   1.292
37775W        W10200  16.160  20.235  11.926
37776W        W10201  32.924  40.353   3.160
37777W        W10202  13.272  42.432  11.982
37778W        W10203  11.785  33.930   4.271
37779W        W10204  27.193  17.601   4.141
37780W        W10205   5.200   1.392   3.315
37781W        W10206   7.401   5.198  14.442
37782W        W10207  40.038   1.292   1.250
37783W        W10208  35.945   7.404  10.405
37784W        W10209  19.134  43.842   3.318
37785W        W10210  44.925  38.324   2.291
37786W        W10211   7.865  32.630   4.232
37787W        W10212  34.992  28.100   0.297
37788W        W10213  28.622   9.874   2.334
37789W        W10214  24.687  42.966  13.885
37790W        W10215  37.445  19.154   0.756
37791W        W10216  19.168  18.727  11.434
37792W        W10217   7.735  19.280   0.782
37793W        W10218  43.480  42.405  12.399
37794W        W10219  15.731   6.685  11.118
37795W        W10220   3.736  14.118   1.815
37796W        W10221  20.721  30.545   4.771
37797W        W10222  21.528  35.039   9.966
37798W        W10223  22.610   8.898   9.959
37799W        W10224  42.285  30.451  11.379
37800W        W10225  33.907  21.566  12.867
37801W        W10226  31.499   7.244   1.930
37802W        W10227  17.783  28.019   3.187
37803W        W10228  37.457  39.484  10.613
37804W        W10229  44.969   1.440   3.674
37805W        W10230  18.731  19.636   9.997
37806W        W10231  42.379  38.350  13.985
37807W        W10232   2.726  40.053   3.206
37808W        W10233  29.662   5.806  10.590
37809W        W10234   2.898   2.887   3.194
37810W        W10235   4.258  11.677   2.728
37811W        W10236  28.156   5.690   4.143
37812W        W10237  14.715  44.431  11.582
37813W        W10238  28.507  22.574   2.315
37814W        W10239  29.050   1.369   3.834
37815W        W10240  23.238  26.963   4.330
37816W        W10241  22.048  11.633   1.903
37817W        W10242  10.171  21.248  11.889
37818W        W10243  21.065   3.406   5.127
37819W        W10244  16.763  31.110  10.896
37820W        W10245  22.602  30.650  12.078
37821W        W10246  14.206  13.280  14.324
37822W        W10247  37.510  38.485  12.467
37823W        W10248   1.310   0.259   1.417
37824W        W10249  19.691  27.497  11.100
37825W        W10250   5.274   6.196   4.790
37826W        W10251  24.527  30.041  11.999
37827W        W10252  20.267   7.292  14.379
37828W        W10253  38.378  36.356  12.911
37829W        W10254  23.004   0.337  12.926
37830W        W10255  32.479  17.118  11.472
37831W        W10256  37.856  15.728  13.483
37832W        W10257  34.947  24.678  14.942
37833W        W10258   2.914  39.369   2.356
37834W        W10259   0.452  21.254   1.792
37835W        W10260   6.318  43.813   4.279
37836W        W10261  38.546  24.992  13.438
37837W        W10262  25.678   1.870  11.591
37838W        W10263  10.863  31.110   1.337
37839W        W10264  21.240  23.568   1.884
37840W        W10265  43.319  19.712   3.234
37841W        W10266  38.992  33.933   4.172
37842W        W10267  40.409  22.627  13.010
37843W        W10268  32.426  23.055   1.256
37844W        W10269  14.734   5.295  10.937
37845W        W10270  28.473  29.060   2.324
37846W        W10271  14.166  26.179  10.584
37847W        W10272  21.725   5.809   0.406
37848W        W10273  32.506  42.287   0.951
37849W        W10274   9.369  10.378  14.875
37850W        W10275   9.351  42.302  13.932
37851W        W10276   6.743  28.638   2.207
37852W        W10277   3.335  30.517   3.647
37853W        W10278  18.653  10.840   3.242
37854W        W10279  25.165  31.575   4.637
37855W        W10280  44.374  14.613   4.793
37856W        W10281  14.306  41.412  13.822
37857W        W10282  33.881   9.815   4.725
37858W        W10283  16.789  15.662   0.350
37859W        W10284  34.880  44.758  13.548
37860W        W10285  40.926  43.875  14.956
37861W        W10286  34.020  20.552   0.483
37862W        W10287  30.115   5.426   2.364
37863W        W10288  19.600  29.938   4.325
37864W        W10289  31.499  13.325  12.356
37865W        W10290  18.652  37.385   3.864
37866W        W10291  18.647   2.853   2.327
37867W        W10292  13.203   7.883  13.314
37868W        W10293  25.631  29.127   3.166
37869W        W10294  29.523  13.693   2.415
37870W        W10295   9.264  40.438  11.471
37871W        W10296  25.976  14.332  10.604
37872W        W10297  34.380   0.856  13.519
37873W        W10298  13.680  14.201  12.831
37874W        W10299  15.779  27.500   1.378
37875W        W10300   4.723  25.209  10.628
37876W        W10301  40.884   5.832  12.509
37877W        W10302   5.914   3.841   3.671
37878W        W10303  28.951  12.777  13.928
37879W        W10304  17.769   8.752   3.738
37880W        W10305  15.279  19.563  13.872
37881W        W10306  37.032  23.084   1.761
37882W        W10307  43.322  34.511   3.160
37883W        W10308  10.691  20.639  13.462
37884W        W10309  20.063  36.069   3.244
37885W        W10310  20.695  36.080   3.298
37886W        W10311  23.619   8.730  14.494
37887W        W10312  26.600   6.269   5.293
37888W        W10313   1.296  13.727  14.974
37889W        W10314  17.134   4.220  11.110
37890W        W10315   0.968  29.987   3.384
37891W        W10316  14.278  39.894   0.329
37892W        W10317   5.757  22.085  11.508
37893W        W10318  15.629  16.740   4.154
37894W        W10319  43.000  35.010   3.792
37895W        W10320  22.999  10.259  12.382
37896W        W10321   1.946   6.423   0.364
37897W        W10322  26.683  18.250  12.089
37898W        W10323  25.493  18.584  10.537
37899W        W10324  26.490  43.410  12.948
37900W        W10325  40.361  17.076   5.300
37901W        W10326  23.190   9.863  12.529
37902W        W10327  35.079  33.025   1.704
37903W        W10328  43.813   7.374   4.152
37904W        W10329   6.776  44.344  10.513
37905W        W10330  12.290  28.995   4.679
37906W        W10331   6.237   5.853   0.888
37907W        W10332  37.341  33.592   3.339
37908W        W10333  15.771  42.519  11.937
37909W        W10334  13.660  18.293  10.606
37910W        W10335  22.603  38.828   2.408
37911W        W10336  22.510  10.162  11.885
37912W        W10337   5.810   0.821  14.893
37913W        W10338  34.487  31.937  14.976
37914W        W10339  24.180   9.372   2.770
37915W        W10340   7.820  34.541  10.513
37916W        W10341   8.899  29.530   4.644
37917W        W10342  33.128  15.246  14.823
37918W        W10343   0.364  27.525   1.423
37919W        W10344  16.072  17.630  12.534
37920W        W10345   8.842   3.780   2.221
37921W        W10346  34.975  16.073   2.328
37922W        W10347  41.903  30.113   0.304
37923W        W10348  27.044  29.974   4.825
37924W        W10349  28.111  10.804  12.047
37925W        W10350  36.867   0.394  14.464
37926W        W10351  41.810  21.130  14.957
37927W        W10352  39.855  24.038   4.332
37928W        W10353   7.865  11.169  10.937
37929W        W10354   4.867  29.055   2.351
37930W        W10355  31.118   1.362   2.827
37931W        W10356   8.730  19.701   0.310
37932W        W10357  32.612  44.949  10.523
37933W        W10358  40.802   3.898   4.650
37934W        W10359  26.145   6.693   4.783
37935W        W10360  32.601  25.012  11.948
37936W        W10361  39.328  15.704   1.335
37937W        W10362  32.139  28.591   2.677
37938W        W10363   7.737  23.560  12.464
37939W        W10364  24.497   3.917   3.315
37940W        W10365   5.305   9.659  12.448
37941W        W10366  35.394  12.128  10.457
37942W        W10367  15.099   0.392   0.740
37943W        W10368   7.767  37.442   2.874
37944W        W10369   6.295  11.841  11.904
37945W        W10370  23.724  22.652  13.050
37946W        W10371   3.810  31.630   1.746
37947W        W10372  18.683  33.033  11.392
37948W        W10373  29.141   2.857   3.792
37949W        W10374  38.981  10.194  13.836
37950W        W10375  17.674  31.564  14.477
37951W        W10376  35.538   6.812  12.419
37952W        W10377  19.773  22.607   0.418
37953W        W10378   1.288  39.960   1.424
37954W        W10379   2.444  24.485   4.751
37955W        W10380  29.611  39.412   0.764
37956W        W10381   5.333  14.224   3.777
37957W        W10382  11.719   5.890   3.211
37958W        W10383  44.857  34.420  10.892
37959W        W10384  29.062  20.768   0.845
37960W        W10385  40.804  26.577  12.372
37961W        W10386   0.896  37.855   4.222
37962W        W10387  39.902  32.067   4.696
37963W        W10388  24.057  14.179  13.884
37964W        W10389  17.173  23.588   5.108
37965W        W10390  37.371   4.244   4.265
37966W        W10391  35.955  18.144   2.767
37967W        W10392  10.155  36.463   3.217
37968W        W10393  31.597  28.496   3.859
37969W        W10394   4.836  21.596   1.386
37970W        W10395  44.430   6.890  12.535
37971W        W10396   3.821  20.174   3.703
37972W        W10397  21.262  15.819   5.147
37973W        W10398  12.793   1.870  13.016
37974W        W10399  11.156  16.779  14.805
37975W        W10400  43.317   1.340   2.403
37976W        W10401  20.097  26.065   0.928
37977W        W10402  38.399   4.759   0.475
37978W        W10403  31.418  13.657  12.456
37979W        W10404   1.310  30.470  12.546
37980W        W10405  28.083  13.127   4.302
37981W        W10406   0.411  27.455   1.886
37982W        W10407  35.545  24.035  13.851
37983W        W10408  19.620   3.367   2.404
37984W        W10409  40.014  31.926  14.301
37985W        W10410  36.099  11.795  14.958
37986W        W10411  21.132   6.198   0.763
37987W        W10412   5.726  26.135  12.906
37988W        W10413  35.023  39.991   3.674
37989W        W10414  11.194  38.496   0.354
37990W        W10415  18.640  11.703  11.965
37991W        W10416  43.412  21.173  11.937
37992W        W10417  20.119   9.388   4.726
37993W        W10418   2.309   5.420  13.508
37994W        W10419   2.945  30.494   2.267
37995W        W10420  29.156  20.701  10.928
37996W        W10421  34.999  40.332   3.213
37997W        W10422  38.846  33.884  12.883
37998W        W10423  23.061   5.245   1.330
37999W        W10424   4.732  10.688  12.009
38000W        W10425  38.053  20.571  10.607
38001W        W10426  42.457  43.431   0.738
38002W        W10427  19.593   8.167   3.201
38003W        W10428  25.521  39.519   2.350
38004W        W10429  33.893   9.858   3.865
38005W        W10430  18.056  44.981   3.828
38006W        W10431  44.984  31.440   4.170
38007W        W10432   7.725  26.612   2.812
38008W        W10433  44.859   5.928   3.767
38009W        W10434   0.821   5.284  10.607
38010W        W10435  15.176   1.859  11.039
38011W        W10436  41.883  39.049  14.883
38012W        W10437  14.119  34.028  14.879
38013W        W10438  44.895  29.585   3.773
38014W        W10439   3.851  41.292   4.120
38015W        W10440  43.374  43.497  14.465
38016W        W10441  37.485   1.270  12.838
38017W        W10442  36.576   9.345   4.713
38018W        W10443  30.442  20.733   4.706
38019W        W10444  19.743  43.492   1.418
38020W        W10445  31.402  29.480   3.379
38021W        W10446  13.778  26.486   0.290
38022W        W10447  13.715   8.878   2.677
38023W        W10448  44.843  23.100   1.240
38024W        W10449  27.637  39.408   4.321
38025W        W10450  27.644  11.159   0.889
38026W        W10451  43.313  42.951  10.124
38027W        W10452  20.131   8.165   0.463
38028W        W10453  27.129  40.502   2.298
38029W        W10454   4.400  36.080   4.355
38030W        W10455  10.190  42.501  13.319
38031W        W10456  37.430  12.698   1.712
38032W        W10457  25.553   1.298  14.311
38033W        W10458  28.022  23.165   0.482
38034W        W10459   7.768  14.173   2.815
38035W        W10460  33.957  19.673  13.853
38036W        W10461  33.543  22.165  14.987
38037W        W10462  35.939  29.009   3.840
38038W        W10463  24.090   2.364  10.527
38039W        W10464  20.666   3.299  13.474
38040W        W10465  14.269  27.570  13.959
38041W        W10466  23.553  42.453  11.912
38042W        W10467  23.990  27.107   2.774
38043W        W10468  37.513  24.987   3.250
38044W        W10469  16.652  10.192   3.848
38045W        W10470  11.685  14.104  12.970
38046W        W10471   3.274  26.616   2.730
38047W        W10472  31.587   8.873   4.673
38048W        W10473  12.623  25.521   0.244
38049W        W10474  30.516  39.340   1.448
38050W        W10475  43.862  31.484   3.251
38051W        W10476   1.396  44.307  12.548
38052W        W10477  33.510  44.285  12.530
38053W        W10478  10.278  17.070  12.564
38054W        W10479  41.395  34.025   0.266
38055W        W10480  11.164  37.508  12.889
38056W        W10481  37.924  44.887  12.554
38057W        W10482  10.274  18.068   3.169
38058W        W10483   9.738  22.080   1.931
38059W        W10484  37.852  15.307   2.805
38060W        W10485  40.039  19.210  11.445
38061W        W10486  23.682  43.425   2.776
38062W        W10487  26.466  33.985   0.338
38063W        W10488   0.839   4.277  13.794
38064W        W10489   1.394  32.616  12.927
38065W        W10490   6.868  37.399  13.059
38066W        W10491   5.249  10.351   4.221
38067W        W10492  33.884   0.933   1.892
38068W        W10493  42.827  22.520  10.592
38069W        W10494  23.042  12.630   4.800
38070W        W10495  10.809  26.082  14.452
38071W        W10496  40.974   7.291   0.854
38072W        W10497  24.084  31.543   2.840
38073W        W10498   2.239  39.903   3.204
38074W        W10499  14.662  10.310  12.949
38075W        W10500   9.382   2.279  13.462
38076W        W10501  44.925  18.653   2.407
38077W        W10502   8.261  29.482   3.326
38078W        W10503  22.133   1.384  10.452
38079W        W10504  16.591   3.869  12.361
38080W        W10505  19.740  14.315  10.896
38081W        W10506  35.101  20.603   0.888
38082W        W10507  21.161  26.123   0.801
38083W        W10508  23.677  25.694  13.356
38084W        W10509   3.357  43.880   4.754
38085W        W10510   0.483  24.649   1.442
38086W        W10511   8.875  20.169   0.742
38087W        W10512  29.162  26.535  11.566
38088W        W10513   2.929   6.706  12.951
38089W        W10514  24.608  27.628  10.968
38090W        W10515  22.505  22.701   2.324
38091W        W10516  12.353  18.221  13.832
38092W        W10517  11.623  44.977   1.919
38093W        W10518  34.563  42.373   2.385
38094W        W10519   2.245  37.464   0.923
38095W        W10520  15.325   8.392   4.838
38096W        W10521  17.746   3.417   1.935
38097W        W10522  20.121  21.127   4.307
38098W        W10523  22.195  31.028   1.223
38099W        W10524  40.358  12.828   4.203
38100W        W10525  10.840  44.283  13.807
38101W        W10526  22.567  32.490   3.363
38102W        W10527  28.051  23.126   3.261
38103W        W10528  15.678   2.839  11.982
38104W        W10529  38.032  16.080   3.152
38105W        W10530  13.682  13.342   1.251
38106W        W10531  22.675  35.391  12.455
38107W        W10532   4.366   1.854  12.553
38108W        W10533  26.099  24.212  13.882
38109W        W10534  26.473  18.565   3.640
38110W        W10535  36.570  17.155  10.124
38111W        W10536   4.936  11.699   4.627
38112W        W10537  26.513  20.070   4.309
38113W        W10538  29.650  36.065  12.904
38114W        W10539  21.671  19.635   1.824
38115W        W10540  12.311  32.945  10.507
38116W        W10541   3.393  43.360   3.684
38117W        W10542  37.998  34.602  13.346
38118W        W10543  31.594  18.656   1.282
38119W        W10544   0.981  23.525  11.514
38120W        W10545  13.631   2.421   2.266
38121W        W10546  21.687  28.661   3.269
38122W        W10547   2.828  27.140   2.232
38123W        W10548  20.728  41.891   3.695
38124W        W10549  28.064  23.516  13.871
38125W        W10550  16.717  29.137  11.395
38126W        W10551  23.999  27.163   4.626
38127W        W10552  21.750  38.002   1.260
38128W        W10553   2.356  29.919   2.319
38129W        W10554  14.327  24.557  12.417
38130W        W10555  17.639  42.461  13.898
38131W        W10556  32.589  24.551   1.226
38132W        W10557  29.546   0.759   2.699
38133W        W10558  17.245   6.733  10.578
38134W        W10559  38.464  16.579   4.807
38135W        W10560  24.148   5.799   1.705
38136W        W10561   6.917  35.876   4.185
38137W        W10562  40.321  44.489   3.352
38138W        W10563  24.721  15.216  12.489
38139W        W10564  25.170  37.059   4.704
38140W        W10565  15.705  29.632   1.768
38141W        W10566  19.767  42.413   2.359
38142W        W10567   3.759   9.788  12.964
38143W        W10568  33.091   9.747  12.967
38144W        W10569  40.322  15.665   3.219
38145W        W10570  24.618  31.944   1.393
38146W        W10571  10.688  16.156   0.967
38147W        W10572  40.335  28.931   4.351
38148W        W10573   0.846  30.098  11.578
38149W        W10574  36.486  23.543   3.694
38150W        W10575  40.928  30.580   4.686
38151W        W10576   7.756  26.167   1.430
38152W        W10577  33.466  29.535  12.940
38153W        W10578   1.377   9.263  11.382
38154W        W10579  31.961  27.494  14.920
38155W        W10580   8.362  36.385  12.563
38156W        W10581   8.269  27.148  11.064
38157W        W10582  17.745  39.003   1.894
38158W        W10583  39.834  28.099  14.446
38159W        W10584   6.768  41.517   4.179
38160W        W10585   6.268  21.171   4.115
38161W        W10586  32.075   8.276  11.460
38162W        W10587  18.628  13.198   3.793
38163W        W10588  13.814   1.451   1.442
38164W        W10589   1.898  26.119   4.151
38165W        W10590  44.383  31.986  13.029
38166W        W10591  19.777  38.367   2.741
38167W        W10592  43.988  34.503   0.427
38168W        W10593  10.374   8.793  13.398
38169W        W10594  39.882  12.635  11.868
38170W        W10595  19.082   3.727   0.833
38171W        W10596   6.863  18.653   1.376
38172W        W10597   9.746   2.243  10.564
38173W        W10598  27.556  30.980   5.204
38174W        W10599  40.051  24.988   4.804
38175W        W10600  33.396   5.754  12.529
38176W        W10601  24.135  33.616  14.030
38177W        W10602  33.461  11.736  10.583
38178W        W10603   5.699  12.836  13.878
38179W        W10604  44.385  24.092   2.664
38180W        W10605  32.041  34.068   4.197
38181W        W10606  34.087  11.685   3.823
38182W        W10607  10.731  25.103   3.169
38183W        W10608  22.576  30.433  12.415
38184W        W10609   3.445  41.465   1.252
38185W        W10610  22.243   4.791  14.506
38186W        W10611  10.638  36.004  10.435
38187W        W10612   4.278  29.162  10.894
38188W        W10613  25.083  16.303  14.310
38189W        W10614  38.040   1.272  11.402
38190W        W10615  39.871  34.535  11.052
38191W        W10616  25.635  35.447   2.235
38192W        W10617   7.761  39.375   1.413
38193W        W10618  44.791  21.051  12.944
38194W        W10619  12.132  19.199  14.000
38195W        W10620  24.621  33.938  13.401
38196W        W10621  33.433  12.630  13.497
38197W        W10622  28.657  36.064  11.544
38198W        W10623  26.062  41.376  11.506
38199W        W10624  35.065  21.599  14.995
38200W        W10625  26.204   0.435  11.426
38201W        W10626  11.829  40.845   0.300
38202W        W10627  14.109  37.377   4.308
38203W        W10628  40.517  39.992  10.146
38204W        W10629   2.788  39.933  14.347
38205W        W10630  32.485  38.914  12.834
38206W        W10631  27.512  17.690   1.221
38207W        W10632  19.159  34.107   1.832
38208W        W10633   8.265  24.980   1.762
38209W        W10634  37.078  30.435   1.282
38210W        W10635  43.455  23.715  14.764
38211W        W10636   2.267  10.736   1.874
38212W        W10637   8.265   5.294  10.457
38213W        W10638  29.665  16.782   3.735
38214W        W10639  44.893   6.793   3.823
38215W        W10640  29.113  19.578   0.318
38216W        W10641  19.188   2.900  12.422
38217W        W10642  43.010   1.778  12.495
38218W        W10643  24.987  26.116  14.015
38219W        W10644  16.788   2.247  11.080
38220W        W10645  21.624   2.916  13.342
38221W        W10646  41.462   8.170   3.384
38222W        W10647  27.130  19.722   3.353
38223W        W10648   0.258   1.460  13.966
38224W        W10649  10.328  19.261  11.099
38225W        W10650  14.834  14.323  10.446
38226W        W10651  13.215   0.375   2.801
38227W        W10652  41.827  35.529   4.183
38228W        W10653  34.438  40.832  13.039
38229W        W10654  35.892  40.823  14.499
38230W        W10655  33.595  44.820   4.793
38231W        W10656  16.212   7.285  12.886
38232W        W10657  27.978  26.063  13.020
38233W        W10658   0.264   9.859   4.603
38234W        W10659  34.513  15.320   0.806
38235W        W10660  41.790   1.263   0.412
38236W        W10661  12.343  18.758  11.002
38237W        W10662  17.080  38.444   3.263
38238W        W10663  44.416  17.163   2.338
38239W        W10664  35.454   6.720  13.987
38240W        W10665  15.148  28.042   0.948
38241W        W10666   7.240  35.431   1.435
38242W        W10667   0.949  32.552  10.597
38243W        W10668  20.527  16.230   2.388
38244W        W10669  19.138   1.830   0.390
38245W        W10670   1.915  39.502   4.273
38246W        W10671  29.507  11.706   2.303
38247W        W10672   9.797  44.381   4.740
38248W        W10673  33.505  37.435   3.198
38249W        W10674  33.944  31.996   4.698
38250W        W10675  43.780  20.702   4.777
38251W        W10676  31.039  23.655  10.577
38252W        W10677  40.940  31.092   4.690
38253W        W10678   2.745  18.244  14.280
38254W        W10679  20.608  38.825  11.010
38255W        W10680  34.369  18.544   1.779
38256W        W10681  38.064   7.265  14.815
38257W        W10682  35.970  33.606   3.336
38258W        W10683   2.850  35.916  14.904
38259W        W10684  23.620  16.623  13.043
38260W        W10685  25.963   6.308  11.004
38261W        W10686  36.541  12.187  14.511
38262W        W10687  11.654  13.167   4.155
38263W        W10688  20.101  35.974   4.718
38264W        W10689  42.397  14.338  11.994
38265W        W10690   0.359  31.950   2.336
38266W        W10691  42.807   8.189   2.266
38267W        W10692  20.058  15.600   1.726
38268W        W10693  15.764  34.444  12.551
38269W        W10694  28.680  32.534  12.532
38270W        W10695  39.999  27.967   3.319
38271W        W10696  35.869  20.139   2.246
38272W        W10697  44.828  13.338   0.276
38273W        W10698  38.836  30.927  14.842
38274W        W10699  19.750  20.758  13.545
38275W        W10700  36.593  20.593   1.741
38276W        W10701  14.105  13.611  14.913
38277W        W10702  12.776   4.759   5.112
38278W        W10703  26.970  10.211   0.932
38279W        W10704  39.847  16.118  12.409
38280W        W10705   3.244   4.741   2.805
38281W        W10706  15.723   8.697   1.364
38282W        W10707  34.594  43.323   1.376
38283W        W10708  44.480  25.080  11.030
38284W        W10709  40.946  18.791  11.076
38285W        W10710   4.755  17.165  10.529
38286W        W10711  33.877  26.615  14.797
38287W        W10712  30.098  29.050  10.896
38288W        W10713  23.683  30.090   1.870
38289W        W10714  22.242   3.732   3.168
38290W        W10715  35.575  23.155  12.580
38291W        W10716   2.374   7.714  14.404
38292W        W10717  34.102  41.962   0.342
38293W        W10718  39.065   5.311  10.904
38294W        W10719  24.480  36.575   0.891
38295W        W10720  25.171  33.546   4.249
38296W        W10721  31.060   9.717  12.850
38297W        W10722   0.851   2.299  13.888
38298W        W10723  44.915   8.752   2.780
38299W        W10724  10.800   8.288  12.006
38300W        W10725  32.534  31.012  13.846
38301W        W10726   1.468  21.039  13.810
38302W        W10727   1.313   5.208   3.319
38303W        W10728  37.456  32.502  13.413
38304W        W10729  16.602  17.573  14.939
38305W        W10730  14.330  36.523  13.399
38306W        W10731   6.701  11.839   0.412
38307W        W10732  26.979  33.393  11.519
38308W        W10733   1.311  12.335  10.571
38309W        W10734  26.462   4.355   2.754
38310W        W10735  30.035   8.757  11.467
38311W        W10736  13.654  35.538  13.337
38312W        W10737  22.507   3.787  14.932
38313W        W10738  26.063  39.064  13.027
38314W        W10739  21.099   7.226   4.701
38315W        W10740   4.364  30.996  14.349
38316W        W10741   6.747  14.297   2.380
38317W        W10742  36.500  20.563   3.267
38318W        W10743   7.264  32.900   4.159
38319W        W10744   5.218   7.703  14.826
38320W        W10745   9.238  19.709   5.303
38321W        W10746  26.662  27.488   9.934
38322W        W10747   7.288  38.406  14.280
38323W        W10748  22.029  13.845   0.922
38324W        W10749   4.937  16.262  14.472
38325W        W10750   1.288   0.366  11.890
38326W        W10751  19.164  44.365   0.920
38327W        W10752  40.894   5.350  13.974
38328W        W10753   7.203  19.081  14.925
38329W        W10754   0.895  12.199  13.940
38330W        W10755  38.367  26.541   4.176
38331W        W10756  42.346  27.136   3.314
38332W        W10757  32.122  14.706  14.362
38333W        W10758  13.682  41.513   2.711
38334W        W10759  41.928  23.497  12.481
38335W        W10760  21.673  38.971   9.973
38336W        W10761  31.035  21.134   4.749
38337W        W10762  40.854  22.663   5.220
38338W        W10763  21.136  22.053  12.983
38339W        W10764   8.757  20.556  11.074
38340W        W10765  17.095  12.185  13.920
38341W        W10766  41.320  44.851  11.387
38342W        W10767  43.830  21.540  14.922
38343W        W10768   9.395  27.039  12.826
38344W        W10769  32.081  18.220   9.957
38345W        W10770   4.800   4.421  11.964
38346W        W10771  35.377  16.114  11.035
38347W        W10772  23.187  18.123  14.854
38348W        W10773  35.900  35.582   2.300
38349W        W10774  15.589  21.114   1.260
38350W        W10775  44.328  27.080  12.038
38351W        W10776  17.611  41.893  12.456
38352W        W10777  10.185  31.016   5.290
38353W        W10778  24.203  32.068   0.454
38354W        W10779  19.610  10.322  10.496
38355W        W10780  23.727  43.287   2.240
38356W        W10781   0.911  41.876  12.447
38357W        W10782  37.576  16.149   1.696
38358W        W10783  38.567  24.508  11.070
38359W        W10784   7.905  21.613   4.825
38360W        W10785  12.828  31.457  11.045
38361W        W10786   7.750  21.216   1.346
38362W        W10787  42.299  28.612   3.368
38363W        W10788  30.588  44.981   3.806
38364W        W10789  11.739   7.876   1.282
38365W        W10790  10.652  17.658   4.621
38366W        W10791  36.464   8.401   9.636
38367W        W10792  18.168  40.535   1.796
38368W        W10793  40.051  10.842   4.793
38369W        W10794  22.616  14.719   0.956
38370W        W10795  24.539  33.962  11.408
38371W        W10796  34.427   5.770  13.463
38372W        W10797  22.663  34.603   1.356
38373W        W10798  43.412  44.929  11.389
38374W        W10799  17.568  41.472   4.274
38375W        W10800  18.250  25.586   3.637
38376W        W10801  30.574  39.466   0.318
38377W        W10802  29.561  15.320  11.914
38378W        W10803  39.536  19.087  12.505
38379W        W10804  33.897  16.776   4.701
38380W        W10805  42.829   6.264  13.348
38381W        W10806  43.275   6.858  14.875
38382W        W10807  12.134  17.598   1.709
38383W        W10808  32.926  10.672   1.893
38384W        W10809   3.420  39.522  11.000
38385W        W10810  39.545  35.452   0.763
38386W        W10811  17.222  25.188  13.969
38387W        W10812  24.605  22.608  11.112
38388W        W10813  28.455  41.876   4.216
38389W        W10814  19.134  19.717  14.005
38390W        W10815  38.513  22.713   4.227
38391W        W10816  37.969  33.110  11.014
38392W        W10817  28.638   3.261   1.756
38393W        W10818  23.642  15.118  11.967
38394W        W10819  30.533  24.195  13.801
38395W        W10820  17.189   2.348  14.365
38396W        W10821  24.996   9.339   3.729
38397W        W10822  44.327  21.752  12.360
38398W        W10823  17.164  34.577   4.703
38399W        W10824  20.069  15.141  11.549
38400W        W10825  44.280  20.618  12.420
38401W        W10826  12.119  21.034  11.968
38402W        W10827   1.419  35.432  14.931
38403W        W10828  40.833  29.034  14.887
38404W        W10829  14.756   7.706  13.504
38405W        W10830  10.288  26.959  10.999
38406W        W10831  36.007   7.226   2.888
38407W        W10832  26.681  34.559  11.032
38408W        W10833  32.112   8.831  10.467
38409W        W10834  14.827   7.665  12.823
38410W        W10835   3.778   9.869   3.754
38411W        W10836  38.558  30.979   4.245
38412W        W10837   1.801  25.151  10.642
38413W        W10838   8.892  32.449  11.009
38414W        W10839  21.635   0.907   0.808
38415W        W10840   1.375  43.002   1.428
38416W        W10841  15.768  32.087  10.599
38417W        W10842  34.109  20.708  14.408
38418W        W10843  34.518   9.874  11.064
38419W        W10844  20.546  39.548  12.550
38420W        W10845  26.024  37.516  13.386
38421W        W10846  22.998  20.552  10.483
38422W        W10847  32.886  30.639  11.929
38423W        W10848  25.126  35.426   1.406
38424W        W10849  16.166  38.019  13.011
38425W        W10850  34.056  32.970   1.405
38426W        W10851  33.098   6.234  14.425
38427W        W10852  44.288  28.019   4.167
38428W        W10853  42.413  26.989   0.458
38429W        W10854   1.463  12.177  14.807
38430W        W10855  41.935  22.129  11.056
38431W        W10856  40.849  33.483   4.245
38432W        W10857  25.994   4.835  13.342
38433W        W10858  22.146  33.484  14.277
38434W        W10859  27.606  21.069   2.857
38435W        W10860   7.845   2.453  10.968
38436W        W10861  32.519  37.991   4.335
38437W        W10862  14.241  24.567   3.235
38438W        W10863  40.956  14.296  12.352
38439W        W10864  33.900  12.268  14.872
38440W        W10865   8.864  29.035  12.522
38441W        W10866  36.035  35.094  12.423
38442W        W10867   1.738  41.327  10.475
38443W        W10868  25.533  30.948  12.927
38444W        W10869  19.650  25.529   2.333
38445W        W10870  32.573   8.770   0.307
38446W        W10871   9.681  28.107  10.489
38447W        W10872  34.385   9.796   2.698
38448W        W10873  31.555   7.319  13.026
38449W        W10874  35.447  43.481  12.075
38450W        W10875  32.006  24.059  13.535
38451W        W10876  44.833  34.369  13.460
38452W        W10877  42.788  38.558   0.312
38453W        W10878  17.564   1.753   0.757
38454W        W10879  17.798  41.355   4.639
38455W        W10880  21.062  18.157  14.786
38456W        W10881   0.768  41.971   2.863
38457W        W10882  11.645  41.381   2.278
38458W        W10883  17.602   3.238   4.838
38459W        W10884   4.913   1.459   2.697
38460W        W10885  42.959  31.978   4.642
38461W        W10886  20.248  29.540  14.769
38462W        W10887  17.151   9.301  12.942
38463W        W10888  42.953   2.440   0.808
38464W        W10889   0.747  23.076  10.556
38465W        W10890  41.462   5.425   3.183
38466W        W10891  40.839  29.061   1.839
38467W        W10892   3.817  33.626   2.273
38468W        W10893  27.618  32.935  12.413
38469W        W10894  13.310   5.902   1.245
38470W        W10895  10.639  28.084   1.712
38471W        W10896   7.176  24.073   2.208
38472W        W10897   9.195   5.233   3.726
38473W        W10898  13.655  37.465  11.938
38474W        W10899  44.360   6.711  13.353
38475W        W10900  40.904  12.807   4.700
38476W        W10901  18.664  38.941   4.226
38477W        W10902  20.549  10.324  10.531
38478W        W10903   7.207  28.070   4.601
38479W        W10904  31.051   7.876   3.256
38480W        W10905  14.284  43.362  11.387
38481W        W10906  37.387  26.643   1.412
38482W        W10907  16.284  19.585  10.892
38483W        W10908   4.778  10.352  14.000
38484W        W10909  38.927  21.208   4.703
38485W        W10910  38.969  26.068   0.395
38486W        W10911  33.563   1.946   3.870
38487W        W10912  10.340  29.591   4.691
38488W        W10913  36.949   6.820   0.276
38489W        W10914  12.778  30.960   4.338
38490W        W10915  13.768   4.700  11.125
38491W        W10916  24.594  33.127   4.597
38492W        W10917  39.400  27.185  12.956
38493W        W10918  14.703  42.526  11.112
38494W        W10919   7.408   7.700  12.527
38495W        W10920  32.957  12.213   3.332
38496W        W10921  27.173  32.937  12.010
38497W        W10922  44.956  36.920   4.653
38498W        W10923  21.228  38.967   4.623
38499W        W10924  44.428   3.301   3.227
38500W        W10925  40.952  32.097  13.542
38501W        W10926  30.430  15.136  11.997
38502W        W10927  10.865  36.409  12.962
38503W        W10928  38.013  28.588  11.864
38504W        W10929  22.068   2.801  14.916
38505W        W10930  33.430   4.719  12.961
38506W        W10931  35.995   2.751   4.816
38507W        W10932  11.711   1.796   1.832
38508W        W10933  28.097  18.115  12.402
38509W        W10934  23.532  17.107  12.525
38510W        W10935  30.566   5.221  10.895
38511W        W10936  14.102   4.754   2.289
38512W        W10937  12.117  32.610   1.389
38513W        W10938   7.193   5.255  13.415
38514W        W10939   3.324  38.535  12.963
38515W        W10940  33.459  38.379  10.997
38516W        W10941  35.109  33.875  13.857
38517W        W10942  12.320   8.405   2.315
38518W        W10943  10.140  36.357   2.338
38519W        W10944  41.845  13.604  14.416
38520W        W10945  11.635  28.612  14.834
38521W        W10946   9.648  18.635  14.378
38522W        W10947   7.879  43.829   3.651
38523W        W10948  18.280  12.782   0.854
38524W        W10949   8.671  30.134   0.348
38525W        W10950  16.794  18.601  10.430
38526W        W10951  31.138  21.066  10.015
38527W        W10952   9.708  35.017  11.610
38528W        W10953  26.575  16.701  13.465
38529W        W10954  33.538   5.329  13.425
38530W        W10955  15.183  39.486  13.446
38531W        W10956  26.102   3.942  12.839
38532W        W10957  34.468  35.526  11.404
38533W        W10958   3.411  30.958   1.306
38534W        W10959  40.843  30.583  13.982
38535W        W10960  38.985  40.045  14.992
38536W        W10961  13.315  19.752   3.670
38537W        W10962  10.198   3.409   0.799
38538W        W10963  23.122  27.606   3.729
38539W        W10964  16.250  26.546  13.530
38540W        W10965  39.401   4.913  14.860
38541W        W10966   6.897  22.725   0.387
38542W        W10967  27.174   8.354   2.813
38543W        W10968  19.655  27.642   0.391
38544W        W10969  18.141  42.021  12.969
38545W        W10970   9.339  34.073   1.371
38546W        W10971   7.276  18.059  13.981
38547W        W10972   9.263  37.345  12.453
38548W        W10973  42.834  25.969  14.808
38549W        W10974  33.534   5.761   3.252
38550W        W10975  40.046  20.707   3.263
38551W        W10976   7.686   3.745  10.588
38552W        W10977   4.787  18.085   3.345
38553W        W10978   2.860   3.329  13.061
38554W        W10979   5.314  11.152   3.245
38555W        W10980  35.985  28.108  10.471
38556W        W10981  33.912  40.860  13.996
38557W        W10982  22.156  12.631   2.812
38558W        W10983  19.181  15.222  14.411
38559W        W10984  25.563  26.111   4.644
38560W        W10985  10.290  38.963   2.285
38561W        W10986  30.157  20.718   2.718
38562W        W10987  20.557   6.897  10.962
38563W        W10988   8.334   3.766  12.994
38564W        W10989   8.783  34.380   0.361
38565W        W10990   7.371  27.678   0.415
38566W        W10991  13.629  32.143  11.449
38567W        W10992  27.998  38.398  14.995
38568W        W10993  36.023   4.404   3.293
38569W        W10994  18.238  12.810   1.932
38570W        W10995  31.015  14.318   4.240
38571W        W10996  44.328  16.289   2.704
38572W        W10997  34.932  19.730  12.959
38573W        W10998  29.030  11.636  10.431
38574W        W10999  35.472  25.519  14.288
38575W        W11000   9.813  30.938   3.350
38576W        W11001  38.415  36.907   2.679
38577W        W11002  31.420  20.232   1.251
38578W        W11003  10.194  32.100  12.825
38579W        W11004  15.597  41.389  12.875
38580W        W11005  35.896  36.857   0.436
38581W        W11006  25.713  15.283   2.801
38582W        W11007  34.571  39.501   3.304
38583W        W11008  31.559  43.861  11.093
38584W        W11009  28.434  15.297   4.171
38585W        W11010  43.480  19.086   1.768
38586W        W11011  40.951  35.876   3.673
38587W        W11012  20.523   7.294   3.662
38588W        W11013   2.434  19.099  12.416
38589W        W11014  31.921   1.753   3.192
38590W        W11015  42.981  44.794   0.262
38591W        W11016  18.755  23.596  14.393
38592W        W11017  25.580  27.608  10.940
38593W        W11018  32.486  12.654   4.163
38594W        W11019   0.369  19.231  11.410
38595W        W11020  21.201  44.817   3.825
38596W        W11021   7.247  24.566  13.896
38597W        W11022   0.842  32.576   1.776
38598W        W11023  17.168   7.364  10.073
38599W        W11024   6.342  37.458  12.860
38600W        W11025  34.590  29.627   0.286
38601W        W11026  28.943  31.925  12.473
38602W        W11027  13.318  42.998   2.707
38603W        W11028  30.982  42.914  11.545
38604W        W11029   7.410  21.228  12.840
38605W        W11030  44.994  21.101   3.243
38606W        W11031  17.614   0.971   1.449
38607W        W11032  31.103  34.957   1.259
38608W        W11033  10.875   3.380   4.287
38609W        W11034  35.068  22.736  12.511
38610W        W11035  17.557  32.534  14.332
38611W        W11036  26.998  30.537   4.600
38612W        W11037  44.847  19.636  13.517
38613W        W11038   0.280  31.014   4.642
38614W        W11039  42.320  33.483   0.905
38615W        W11040  24.697  33.126   2.780
38616W        W11041   2.407  36.498  11.009
38617W        W11042  18.690  14.676  11.899
38618W        W11043  23.557  27.449  11.558
38619W        W11044  21.526  43.955   1.875
38620W        W11045  14.809  41.530   3.672
38621W        W11046  17.066  16.166   3.308
38622W        W11047   4.816  10.358   5.273
38623W        W11048  22.119  30.151   3.306
38624W        W11049  30.999  43.514  13.862
38625W        W11050  18.628   2.415   3.643
38626W        W11051  15.267  43.294  12.533
38627W        W11052   8.247  27.472   2.283
38628W        W11053   2.313  43.278  11.011
38629W        W11054  30.565   3.908  11.012
38630W        W11055   2.277  29.429  13.811
38631W        W11056   1.810  20.070  14.416
38632W        W11057   4.809  24.223   3.321
38633W        W11058  41.841  34.439  14.456
38634W        W11059  20.757  35.861  12.443
38635W        W11060  43.389  42.824   3.842
38636W        W11061   9.795  20.684  14.321
38637W        W11062  42.792  38.042   3.351
38638W        W11063  13.110  32.983   4.313
38639W        W11064  30.640  31.999  11.539
38640W        W11065  11.667  40.003  10.997
38641W        W11066  24.213  16.666  14.301
38642W        W11067  18.745   4.923   1.935
38643W        W11068  24.103  41.480   0.875
38644W        W11069  13.203  17.113   0.908
38645W        W11070  29.015  26.528   2.732
38646W        W11071  37.398   1.746  13.038
38647W        W11072  33.389  11.317  10.092
38648W        W11073  15.804   9.717  10.635
38649W        W11074  34.070  25.653   0.472
38650W        W11075  41.499   1.948   2.238
38651W        W11076  27.646  14.620  11.907
38652W        W11077  33.446  39.009  13.795
38653W        W11078  42.989  26.127  13.830
38654W        W11079  14.294   3.285  10.131
38655W        W11080  16.614  16.606   3.289
38656W        W11081  30.028  39.829  13.309
38657W        W11082  40.365   8.669  11.422
38658W        W11083  40.914  34.995   2.793
38659W        W11084  31.624   1.482  11.586
38660W        W11085  39.992   7.356  13.333
38661W        W11086   8.265  32.586  11.611
38662W        W11087  35.568   1.877   0.420
38663W        W11088  30.979  23.536  13.493
38664W        W11089   2.814   7.784  11.538
38665W        W11090  11.772  14.139  10.639
38666W        W11091  12.326  38.847   0.428
38667W        W11092   3.457  25.106  13.002
38668W        W11093   7.787  23.984   2.233
38669W        W11094   3.944   2.889   2.190
38670W        W11095  34.583  18.766   1.438
38671W        W11096  18.214  23.692  11.982
38672W        W11097   0.782  32.430  10.893
38673W        W11098  23.584  16.131   0.311
38674W        W11099  21.018  18.090   0.277
38675W        W11100  16.651  40.906   3.303
38676W        W11101  14.243  23.090   9.614
38677W        W11102  31.430  28.944  12.995
38678W        W11103  37.432  10.321  13.396
38679W        W11104  36.512  35.492  11.966
38680W        W11105  43.332  10.158   1.376
38681W        W11106  31.640  16.625   1.830
38682W        W11107   5.417  29.094  12.827
38683W        W11108  43.803  29.102   2.203
38684W        W11109  29.438  13.845   0.296
38685W        W11110  10.764  33.106   4.287
38686W        W11111  30.523  13.716   4.733
38687W        W11112  23.679  42.447   3.234
38688W        W11113  17.637   6.359  12.457
38689W        W11114  41.459  38.528  14.916
38690W        W11115  32.620  16.199   4.122
38691W        W11116   2.300  44.267   2.826
38692W        W11117  28.474  39.527  14.938
38693W        W11118  36.429  27.102   4.785
38694W        W11119   6.269  41.410   2.754
38695W        W11120  14.751  26.516  11.864
38696W        W11121  18.126  32.909  10.591
38697W        W11122  40.382  19.579   3.833
38698W        W11123  38.929   0.911   4.640
38699W        W11124  44.845   2.275  12.839
38700W        W11125  26.077   7.665   2.810
38701W        W11126  18.253   0.250   0.246
38702W        W11127  33.570  23.693   1.374
38703W        W11128   6.775  27.152   0.464
38704W        W11129  35.414  16.212   0.300
38705W        W11130  37.833  26.140  13.408
38706W        W11131  35.050   5.807   1.369
38707W        W11132  15.780  35.558   2.416
38708W        W11133  40.836  13.347   1.381
38709W        W11134  19.095  33.059  13.437
38710W        W11135  25.603  14.679  11.550
38711W        W11136  38.425  32.005   4.830
38712W        W11137   6.824  28.960   4.183
38713W        W11138  26.666  43.515   0.331
38714W        W11139  38.438  11.807  12.025
38715W        W11140  11.254  14.592   3.219
38716W        W11141  32.463  35.506  11.419
38717W        W11142  24.663  13.282  14.288
38718W        W11143  29.957  26.051  10.952
38719W        W11144  41.465  37.988   4.742
38720W        W11145   2.434  42.309  10.452
38721W        W11146  15.275  43.978  10.958
38722W        W11147  22.222  44.793   2.200
38723W        W11148  37.839  26.030   0.397
38724W        W11149  40.543  28.098   0.809
38725W        W11150  38.458  28.055  11.065
38726W        W11151  23.511  30.071   1.291
38727W        W11152  30.604  32.418  11.613
38728W        W11153  21.121  14.621   3.657
38729W        W11154  34.949  35.562  14.905
38730W        W11155  29.569   2.726  12.846
38731W        W11156  25.017  12.123  14.499
38732W        W11157  26.479  15.096  13.924
38733W        W11158   3.324   5.384   0.357
38734W        W11159  11.758  21.171   3.853
38735W        W11160  43.964   8.794   3.333
38736W        W11161  28.040  37.381  10.986
38737W        W11162  33.897  26.525   1.736
38738W        W11163   3.435  13.341  12.059
38739W        W11164  15.149  17.793   2.410
38740W        W11165  42.432   3.785   3.652
38741W        W11166   5.222   4.280  14.363
38742W        W11167  32.962  35.539   2.822
38743W        W11168  40.403   5.714  11.376
38744W        W11169  43.801  22.995  10.969
38745W        W11170   5.215  33.506   0.324
38746W        W11171   7.192  42.817   4.327
38747W        W11172   4.235   7.821   4.254
38748W        W11173  41.478  43.953  11.035
38749W        W11174  24.489  10.707   0.295
38750W        W11175  12.759  26.008  13.443
38751W        W11176   4.331  18.086   0.432
38752W        W11177  23.031   4.262  10.924
38753W        W11178   9.861  26.128   2.408
38754W        W11179  33.902   7.884   4.172
38755W        W11180  26.062  41.018   3.667
38756W        W11181  20.208   4.434   1.250
38757W        W11182   0.798  22.526  13.792
38758W        W11183  19.240  42.348   4.747
38759W        W11184  40.028   9.202   4.629
38760W        W11185  12.692  29.614   1.890
38761W        W11186   3.216  28.534  12.580
38762W        W11187  30.623   9.804  13.498
38763W        W11188  15.645  38.476  11.385
38764W        W11189  38.345  14.661   2.235
38765W        W11190   5.431  27.483  13.337
38766W        W11191   6.860  10.187   0.951
38767W        W11192  31.898  41.915   2.366
38768W        W11193   0.831  28.993   2.398
38769W        W11194   2.430  36.547  12.549
38770W        W11195  20.041  26.076   4.635
38771W        W11196   1.942  11.140  12.453
38772W        W11197  15.243  15.765   0.909
38773W        W11198   8.210   8.161   4.177
38774W        W11199  26.597  19.281  14.329
38775W        W11200  21.541  12.630   4.656
38776W        W11201   0.846  33.069  10.156
38777W        W11202  31.543   6.276   1.286
38778W        W11203  21.237  33.975  12.357
38779W        W11204  34.579  12.251  12.390
38780W        W11205  31.525  39.352   1.273
38781W        W11206  12.630   4.301   2.341
38782W        W11207   1.338   6.862  13.365
38783W        W11208   4.830  15.725  13.834
38784W        W11209   5.238   8.315  12.451
38785W        W11210  21.216  11.136   1.370
38786W        W11211  23.684  34.988  13.926
38787W        W11212   5.276  26.041   0.843
38788W        W11213  29.962   1.915   0.279
38789W        W11214  17.097  40.029   0.933
38790W        W11215  28.116  38.442  11.547
38791W        W11216   4.724  33.503  12.918
38792W        W11217   7.331  42.903   2.874
38793W        W11218  39.368   4.825  11.489
38794W        W11219  16.221  40.802   2.384
38795W        W11220  29.457  23.533   4.336
38796W        W11221  39.528  42.010  13.807
38797W        W11222  10.691  42.895   1.403
38798W        W11223  42.810  31.020  13.347
38799W        W11224  24.012  39.440  11.381
38800W        W11225  19.630  24.668  11.979
38801W        W11226  10.314  37.568   4.182
38802W        W11227  24.160   0.408   0.481
38803W        W11228  18.703  22.017  13.992
38804W        W11229   6.424  27.624  13.361
38805W        W11230  42.976  26.088  11.004
38806W        W11231  37.444   2.385  11.109
38807W        W11232  32.597   3.394   3.834
38808W        W11233  24.666   4.851  14.470
38809W        W11234  30.430  31.510  13.985
38810W        W11235  14.183  18.766  12.042
38811W        W11236  26.199  20.548   3.252
38812W        W11237  32.392  34.976   4.255
38813W        W11238  20.605   2.245  10.997
38814W        W11239  18.165  41.952   2.346
38815W        W11240  25.481  22.606   5.284
38816W        W11241  14.649  21.250   2.237
38817W        W11242   0.276  39.874  12.020
38818W        W11243  15.616   5.906   0.259
38819W        W11244  22.605  38.878   5.233
38820W        W11245  11.649  43.005   2.889
38821W        W11246  40.449  17.088   4.607
38822W        W11247  26.979  31.073   4.706
38823W        W11248  30.525   3.860  14.977
38824W        W11249  17.695  20.633  11.420
38825W        W11250  32.974   2.379   0.733
38826W        W11251   2.227  36.902  11.033
38827W        W11252  38.906  43.843   4.752
38828W        W11253  14.713  23.648   9.969
38829W        W11254  25.029  16.606  12.047
38830W        W11255  34.907  21.604   2.674
38831W        W11256   3.412   2.329   4.228
38832W        W11257  26.049  24.160   4.677
38833W        W11258  17.144   4.847   4.319
38834W        W11259  35.952  23.036   3.858
38835W        W11260  32.448  21.199  12.575
38836W        W11261  15.615  35.438   4.810
38837W        W11262  13.210   9.232  11.026
38838W        W11263   5.903  33.459   4.128
38839W        W11264  32.091  10.872  14.877
38840W        W11265  17.105  40.826  10.449
38841W        W11266   3.916  16.146   1.377
38842W        W11267  18.076   6.697  14.955
38843W        W11268  33.929   0.914   0.361
38844W        W11269  10.831  37.022   4.300
38845W        W11270  33.122  28.491  12.506
38846W        W11271   2.788   4.781  12.075
38847W        W11272   1.398  20.721  12.402
38848W        W11273   1.302   5.870   2.702
38849W        W11274   7.776  29.560   4.124
38850W        W11275  24.152   9.268  12.386
38851W        W11276  39.882  20.544   4.684
38852W        W11277  22.122  16.111  14.486
38853W        W11278  12.332  25.979  12.970
38854W        W11279   1.804  37.930   3.218
38855W        W11280  11.715  17.111  10.643
38856W        W11281  44.896  31.147  14.404
38857W        W11282   9.773   9.293  13.812
38858W        W11283  30.450  16.079  11.935
38859W        W11284  40.040  39.003  13.884
38860W        W11285  24.718  43.794   2.696
38861W        W11286   8.391  28.181   4.719
38862W        W11287  28.041  15.257  13.061
38863W        W11288  28.015   2.732   1.757
38864W        W11289  15.144   8.729  12.473
38865W        W11290  33.914  25.146   4.665
38866W        W11291  31.078  37.356  13.937
38867W        W11292  42.481  25.038  14.464
38868W        W11293  17.756  31.129  11.581
38869W        W11294   6.201  44.010  13.335
38870W        W11295  39.405   6.875  11.372
38871W        W11296  17.291  11.225   2.760
38872W        W11297  31.432   1.262   1.321
38873W        W11298  21.723  18.185  10.641
38874W        W11299  32.062  20.590  11.004
38875W        W11300  34.063  26.992  14.463
38876W        W11301   7.733  10.188   2.361
38877W        W11302  30.974  25.520   1.231
38878W        W11303  18.145  17.722  12.441
38879W        W11304  12.650   1.316   9.478
38880W        W11305  24.176  30.094  13.321
38881W        W11306  17.250  29.432   3.776
38882W        W11307  39.477  42.959  12.380
38883W        W11308  36.545  43.484  13.495
38884W        W11309  38.924  39.876   4.259
38885W        W11310  15.087  20.223  10.433
38886W        W11311  11.370  22.204   2.705
38887W        W11312  24.148   2.920   0.484
38888W        W11313  15.236  24.976  11.029
38889W        W11314   0.349  25.116  11.905
38890W        W11315  32.988  16.611   0.405
38891W        W11316   5.693   3.869   2.389
38892W        W11317  33.500   4.743   3.744
38893W        W11318  40.936   4.706  13.311
38894W        W11319  22.229  44.799  10.555
38895W        W11320  35.493  10.874  12.358
38896W        W11321  16.753  17.575  14.031
38897W        W11322  29.568  42.337  14.760
38898W        W11323  24.478   7.408  14.370
38899W        W11324  10.139   4.881  13.974
38900W        W11325  37.018  39.522   4.833
38901W        W11326  41.936  29.133   1.225
38902W        W11327  41.029  10.857   4.218
38903W        W11328  32.475   5.738   3.650
38904W        W11329   4.762  25.982   0.383
38905W        W11330   4.273   9.875   2.295
38906W        W11331  44.917  24.218   2.294
38907W        W11332  42.926   7.330  12.354
38908W        W11333  32.438  41.327  10.497
38909W        W11334  27.119   8.350   0.359
38910W        W11335  27.469  27.576  12.570
38911W        W11336  35.547   8.682  10.409
38912W        W11337  23.196  10.681   4.692
38913W        W11338  14.687  18.767   0.737
38914W        W11339   7.818  42.425  10.436
38915W        W11340  38.842  27.623   0.448
38916W        W11341  26.544  12.855  10.493
38917W        W11342  17.074  27.064   4.245
38918W        W11343   8.329  12.717   1.357
38919W        W11344  28.156   7.811  11.415
38920W        W11345   3.368  23.159  13.880
38921W        W11346   5.805  40.439  11.384
38922W        W11347  24.671   0.261   4.253
38923W        W11348  43.871   1.837   3.664
38924W        W11349  20.210  18.230   0.755
38925W        W11350  10.827   2.451   1.742
38926W        W11351   1.846  44.300  14.334
38927W        W11352  42.862   2.942  11.117
38928W        W11353  43.508   6.803   4.259
38929W        W11354  27.622  13.129  12.514
38930W        W11355  42.508   6.797  14.278
38931W        W11356   3.871  38.052  14.891
38932W        W11357  33.566  39.903  14.276
38933W        W11358  27.655  40.799   2.408
38934W        W11359  33.890  44.805   4.180
38935W        W11360  25.657  38.827  14.796
38936W        W11361   3.811  31.916   0.943
38937W        W11362  11.801   6.773   3.327
38938W        W11363  43.856  12.239   3.221
38939W        W11364  42.007  33.529  11.613
38940W        W11365  42.950  15.124   1.815
38941W        W11366   8.748  30.007   1.316
38942W        W11367  20.032  41.010   3.650
38943W        W11368  14.229  31.060  13.314
38944W        W11369  41.520  40.031  11.952
38945W        W11370   1.829  16.739  14.832
38946W        W11371   8.882  31.943  11.550
38947W        W11372  40.337  35.089  12.896
38948W        W11373  18.784  39.986   1.314
38949W        W11374  15.619  37.460  11.582
38950W        W11375  20.538  34.959  11.092
38951W        W11376   9.205  15.164   1.254
38952W        W11377  10.724  12.717   2.395
38953W        W11378  23.519  14.721  14.014
38954W        W11379   5.219  28.662   4.679
38955W        W11380   1.940  32.559   3.740
38956W        W11381  40.492  17.176  14.983
38957W        W11382   3.759  16.722  10.562
38958W        W11383   2.461   9.379  12.400
38959W        W11384  34.065  24.124   1.252
38960W        W11385  43.456  23.152  10.955
38961W        W11386  37.363   6.301   5.266
38962W        W11387  14.115   3.884   3.375
38963W        W11388  10.339  18.666   2.707
38964W        W11389  30.464  12.156   1.856
38965W        W11390  16.167   2.374  14.478
38966W        W11391  17.626  22.139   3.334
38967W        W11392   3.218  34.394   4.338
38968W        W11393  38.471  25.620   1.215
38969W        W11394  23.600  37.385  14.286
38970W        W11395  11.857  44.294  14.824
38971W        W11396   0.770  27.184   3.690
38972W        W11397  32.437  41.316   2.865
38973W        W11398   1.965  30.655  10.896
38974W        W11399   3.307  12.243  12.875
38975W        W11400  18.296  22.142   1.229
38976W        W11401  23.079  22.035  14.015
38977W        W11402   5.749  44.942   0.415
38978W        W11403  43.853  35.899   4.728
38979W        W11404  43.493  43.818  12.500
38980W        W11405   8.228  39.909  11.372
38981W        W11406   0.493   0.280  13.904
38982W        W11407   3.904  21.635  12.552
38983W        W11408  25.559   2.307   2.901
38984W        W11409  27.595  28.613  11.058
38985W        W11410  25.564   7.318  13.938
38986W        W11411  11.866  32.419   4.168
38987W        W11412  44.473   6.834   1.329
38988W        W11413  44.483  23.648  11.004
38989W        W11414  39.850   0.388   4.733
38990W        W11415  38.834   2.936  13.356
38991W        W11416   6.314   5.281   1.726
38992W        W11417  29.598  30.592   2.749
38993W        W11418  11.234  27.960  12.509
38994W        W11419   8.196  30.575  12.484
38995W        W11420   9.647  28.124  14.026
38996W        W11421  13.634  35.443   0.750
38997W        W11422  16.263  24.501   1.311
38998W        W11423  13.769  12.300   3.261
38999W        W11424   2.277   7.668   3.831
39000W        W11425  28.522  44.941   0.309
39001W        W11426  33.993   4.833   1.394
39002W        W11427   9.796  21.162  12.912
39003W        W11428  20.090  18.552  11.563
39004W        W11429  25.646  34.370  10.474
39005W        W11430  16.288   9.678  14.893
39006W        W11431   6.852  28.091  12.879
39007W        W11432  25.127   4.441   1.277
39008W        W11433  11.192  26.605  12.943
39009W        W11434  38.474  13.600   4.344
39010W        W11435   0.278  12.274   3.217
39011W        W11436  17.736  27.502  12.032
39012W        W11437  41.469  33.460  10.998
39013W        W11438  36.911  28.981   2.860
39014W        W11439  20.201   9.649   0.463
39015W        W11440   8.342  27.551  13.832
39016W        W11441  33.583   4.356   3.652
39017W        W11442  30.936  25.555   4.221
39018W        W11443  30.658  33.877   4.133
39019W        W11444  42.903  32.002   2.250
39020W        W11445  28.186  35.419   4.203
39021W        W11446  26.098  39.976   1.451
39022W        W11447  37.065  42.323  13.866
39023W        W11448   4.890  41.377   0.307
39024W        W11449  22.561  35.367   2.240
39025W        W11450  12.741   4.912   3.836
39026W        W11451  38.332  39.318   2.273
39027W        W11452   2.299  25.982  12.929
39028W        W11453   7.201  34.565  13.983
39029W        W11454  44.760  34.403   4.611
39030W        W11455  21.515   2.765   2.210
39031W        W11456  24.608  12.651  11.570
39032W        W11457  13.139  41.984   2.277
39033W        W11458  41.025  10.763   1.388
39034W        W11459  24.618  32.965  10.449
39035W        W11460  26.459   7.709  14.293
39036W        W11461  17.607  18.098   2.183
39037W        W11462   4.753  41.920  11.987
39038W        W11463  43.800  15.129  14.928
39039W        W11464   8.894  41.921   4.685
39040W        W11465  37.989  18.159   0.797
39041W        W11466  13.845  43.459  10.572
39042W        W11467  19.276   5.796  12.895
39043W        W11468  29.102  31.411  14.880
39044W        W11469  20.201  12.713  13.899
39045W        W11470  10.238  34.926  14.977
39046W        W11471  15.288  29.425  11.039
39047W        W11472  14.118  34.887   2.258
39048W        W11473  13.213  24.715  13.332
39049W        W11474   0.319  12.151  11.537
39050W        W11475   7.414  38.048   0.869
39051W        W11476  32.052  38.448  12.936
39052W        W11477  44.893  20.673   0.933
39053W        W11478  30.550  41.040   9.990
39054W        W11479  33.042  40.998  10.892
39055W        W11480  16.618  23.630   2.354
39056W        W11481  41.999  28.968  12.927
39057W        W11482  35.086  35.512  10.583
39058W        W11483  41.514  10.315   0.444
39059W        W11484  27.117  41.436   1.365
39060W        W11485  32.099  23.134   0.751
39061W        W11486  18.238   6.225   0.780
39062W        W11487  23.038   1.252  11.100
39063W        W11488  43.474  37.946   1.790
39064W        W11489  40.399  31.940  12.422
39065W        W11490  30.412   3.380  13.967
39066W        W11491  26.192   1.733   2.347
39067W        W11492  18.752  16.091   2.249
39068W        W11493  40.964  26.489  13.351
39069W        W11494   0.838  19.054   0.421
39070W        W11495  33.934   4.357  11.466
39071W        W11496   2.319  39.521  14.819
39072W        W11497  34.599   4.831   4.726
39073W        W11498  15.279   0.886   3.682
39074W        W11499  30.972  23.088   9.499
39075W        W11500  30.552  19.071  13.352
39076W        W11501  38.411  13.815  10.509
39077W        W11502  21.635  38.536  11.396
39078W        W11503  11.756  17.064  13.794
39079W        W11504   2.422  30.628   5.165
39080W        W11505  41.441  37.859   1.244
39081W        W11506  20.261  20.624   2.814
39082W        W11507  37.430  35.103   3.663
39083W        W11508  44.770  13.303  13.368
39084W        W11509  27.644  24.583   0.403
39085W        W11510  15.320  36.096   0.376
39086W        W11511  33.062  13.318   4.707
39087W        W11512  26.115  14.174   0.358
39088W        W11513  36.952  15.697   9.958
39089W        W11514  30.093  12.337   3.334
39090W        W11515  33.114   3.289   0.302
39091W        W11516  23.638  32.044  12.883
39092W        W11517  10.749   1.290   3.241
39093W        W11518  10.858  34.579  13.384
39094W        W11519  26.970  15.742   9.921
39095W        W11520  25.646   9.721   1.310
39096W        W11521  18.163  37.515   2.294
39097W        W11522  33.101   8.276   4.250
39098W        W11523  10.311   0.809   1.919
39099W        W11524   3.848   6.907   0.345
39100W        W11525  29.492  29.067   0.406
39101W        W11526  35.859   7.374   1.823
39102W        W11527  41.387  21.519   3.214
39103W        W11528  15.291   7.202  11.557
39104W        W11529  17.585  33.458   2.676
39105W        W11530  22.220  13.815   2.329
39106W        W11531  35.864  22.594   1.905
39107W        W11532   8.875  15.104   0.366
39108W        W11533  31.137  12.673  11.891
39109W        W11534  20.604  25.059   1.769
39110W        W11535  30.913  13.218  13.959
39111W        W11536  14.610   1.325   3.189
39112W        W11537  12.736  15.760   4.134
39113W        W11538  24.100  17.228  14.288
39114W        W11539   6.236  41.015  14.376
39115W        W11540   8.812  21.572   3.691
39116W        W11541  16.208  32.028  10.613
39117W        W11542  12.837  33.108  14.314
39118W        W11543  12.316  24.007   0.960
39119W        W11544  25.468  15.116  11.566
39120W        W11545  13.766  24.059  10.945
39121W        W11546  18.100  39.835   4.147
39122W        W11547  31.935  14.821  12.371
39123W        W11548  44.845   9.751  13.486
39124W        W11549  42.288  23.710  12.883
39125W        W11550  42.865  12.339  12.528
39126W        W11551  35.535  21.084  13.854
39127W        W11552  34.595   5.912   2.211
39128W        W11553  38.454   4.895  13.322
39129W        W11554  23.100  34.401  12.445
39130W        W11555   0.461  38.479  12.503
39131W        W11556  30.962   9.253  13.312
39132W        W11557  14.748   7.315  13.481
39133W        W11558  14.098  42.433   2.266
39134W        W11559  27.125  42.876  12.453
39135W        W11560  43.934  10.801   1.420
39136W        W11561  33.557  23.065   2.317
39137W        W11562  38.043  12.771   3.797
39138W        W11563  10.760  13.225   2.877
39139W        W11564  19.191  36.374  14.884
39140W        W11565  32.944   6.389  14.764
39141W        W11566  14.323  25.592  11.002
39142W        W11567  31.938  40.917  14.807
39143W        W11568   0.803   0.885  11.901
39144W        W11569  20.582  36.073  13.397
39145W        W11570  32.517  10.661   4.748
39146W        W11571  28.621   1.266   1.884
39147W        W11572  20.750  15.775  11.505
39148W        W11573  43.438  44.458   4.789
39149W        W11574   8.754  18.129  13.317
39150W        W11575  23.575   8.772   0.410
39151W        W11576   5.205  40.344   4.795
39152W        W11577  26.460  18.634   4.200
39153W        W11578  12.845  11.827  14.947
39154W        W11579   5.419  33.120  10.547
39155W        W11580  14.145  35.361  13.809
39156W        W11581   4.731  22.529   1.369
39157W        W11582  26.494  10.340   5.191
39158W        W11583  23.114   5.356  13.006
39159W        W11584  42.316  39.339  14.933
39160W        W11585   7.275   8.815  14.338
39161W        W11586  43.795  38.481   2.351
39162W        W11587  24.004   7.868  10.561
39163W        W11588   4.728  19.155   1.267
39164W        W11589  12.660  26.610   0.322
39165W        W11590  29.965  29.519   3.838
39166W        W11591  39.445   4.828  10.551
39167W        W11592  26.032  24.510   0.894
39168W        W11593  43.419   5.201   2.668
39169W        W11594  40.858  16.735  12.498
39170W        W11595  31.921  28.498  13.853
39171W        W11596  44.263  22.015   0.378
39172W        W11597  11.868  19.614  10.992
39173W        W11598  32.098  27.179  13.894
39174W        W11599  17.234  26.509  14.965
39175W        W11600  35.996   0.350   2.673
39176W        W11601  33.104  14.226   3.821
39177W        W11602   3.949   5.198   0.912
39178W        W11603  26.089  42.417   1.339
39179W        W11604  40.871   1.833  13.392
39180W        W11605  36.883   8.238  12.877
39181W        W11606  14.162   1.252   2.373
39182W        W11607  24.515  30.604   0.385
39183W        W11608  40.320  36.436   0.899
39184W        W11609   2.255  27.042  13.797
39185W        W11610  15.271  37.964  10.898
39186W        W11611  21.103  42.812   4.348
39187W        W11612  33.923  26.617   3.712
39188W        W11613  13.709  38.479   3.797
39189W        W11614  20.141  42.485   1.373
39190W        W11615  24.722  10.677  10.990
39191W        W11616  13.201  11.745  10.141
39192W        W11617  25.036   3.390  14.324
39193W        W11618  22.572  13.254  11.456
39194W        W11619   3.902   6.756  12.350
39195W        W11620  21.146  15.737   2.712
39196W        W11621   9.745  26.689   4.139
39197W        W11622  12.793   2.920   2.690
39198W        W11623  23.142  18.722  12.918
39199W        W11624  20.740   6.756  11.992
39200W        W11625  35.542   6.341   0.921
39201W        W11626  42.785  34.885  10.910
39202W        W11627  30.454  26.570   5.289
39203W        W11628  17.752  26.516   1.267
39204W        W11629  11.357  29.538  11.452
39205W        W11630  19.763   0.892  10.531
39206W        W11631  34.502  23.014   2.873
39207W        W11632   8.189  37.905  14.964
39208W        W11633  26.688  19.241   3.274
39209W        W11634   0.405  17.135   1.220
39210W        W11635  43.831   5.745  11.066
39211W        W11636  38.010  33.038   1.857
39212W        W11637  32.057  34.932   2.761
39213W        W11638   0.983  30.131   0.395
39214W        W11639  43.018  30.442  14.793
39215W        W11640  40.012  11.225  10.617
39216W        W11641  38.526   1.263  14.025
39217W        W11642  40.849  16.679   2.669
39218W        W11643  11.361   4.354  12.961
39219W        W11644   9.390  32.048  14.430
39220W        W11645   6.355  30.595  11.604
39221W        W11646  33.417   2.815  10.618
39222W        W11647  27.449   3.459   1.825
39223W        W11648  30.986  23.161   2.812
39224W        W11649  26.049   9.661  12.908
39225W        W11650  32.123  10.215  10.961
39226W        W11651  12.662  22.622  14.477
39227W        W11652  25.117  21.696  14.943
39228W        W11653  38.943  31.935   3.244
39229W        W11654  22.113  40.048   0.257
39230W        W11655  35.498   1.383   4.762
39231W        W11656  31.044  31.923   4.347
39232W        W11657  35.854   6.714  13.804
39233W        W11658  43.021   7.372   0.899
39234W        W11659   0.355  28.156   0.729
39235W        W11660  27.651  31.959   2.872
39236W        W11661  27.056  35.067  12.367
39237W        W11662  17.160  14.715   2.180
39238W        W11663  11.279   8.175   4.309
39239W        W11664  16.686  22.558  14.293
39240W        W11665   9.352  25.088   4.719
39241W        W11666  41.435  33.104  14.396
39242W        W11667  23.133   6.387   4.186
39243W        W11668   6.240  16.700   1.924
39244W        W11669   9.690  25.211   4.188
39245W        W11670   5.927  26.670  10.921
39246W        W11671  40.539  40.442   5.187
39247W        W11672   6.771  41.042  10.593
39248W        W11673  16.171  38.538  11.466
39249W        W11674  38.840   1.780  10.622
39250W        W11675  19.780  40.825   0.270
39251W        W11676  30.603  35.984  12.081
39252W        W11677   8.295  23.092  14.314
39253W        W11678  38.019  12.788  10.627
39254W        W11679  26.110   1.311  12.380
39255W        W11680  19.646  18.058  10.989
39256W        W11681  19.039  16.119  11.869
39257W        W11682  20.222  36.518   4.294
39258W        W11683  28.150  26.086   2.765
39259W        W11684  43.392   8.403  10.995
39260W        W11685  31.436  13.800   3.331
39261W        W11686  39.419  22.156  12.073
39262W        W11687  16.256  36.936   2.899
39263W        W11688  30.041  28.097   2.342
39264W        W11689  26.951  30.164  11.468
39265W        W11690  39.883  24.662   0.354
39266W        W11691  12.835  36.010  12.474
39267W        W11692  29.668  26.569  13.041
39268W        W11693  31.496  27.990  12.954
39269W        W11694  21.707   5.201  10.976
39270W        W11695  30.489  43.994  11.547
39271W        W11696  39.984  37.485  13.463
39272W        W11697   3.255  20.267   0.362
39273W        W11698  28.658  35.474  14.886
39274W        W11699  31.913  36.399   3.870
39275W        W11700  15.247  29.610  11.471
39276W        W11701  28.100  16.654  14.792
39277W        W11702  12.707  41.000  11.380
39278W        W11703  43.840  17.647  12.387
39279W        W11704   7.701  24.609   4.813
39280W        W11705  39.942  19.171   0.868
39281W        W11706  26.513  43.375   2.398
39282W        W11707  21.710  29.492   0.309
39283W        W11708  33.968  42.985   3.798
39284W        W11709  40.375  39.869   4.321
39285W        W11710  23.729  18.713  13.853
39286W        W11711   0.288  30.491  12.530
39287W        W11712  18.166  27.104  10.941
39288W        W11713  23.518  29.498   4.664
39289W        W11714   6.695   7.762   0.455
39290W        W11715   3.302  18.743   0.925
39291W        W11716  14.104  11.349   2.874
39292W        W11717  14.207  21.660  11.057
39293W        W11718  14.748  21.671   2.820
39294W        W11719  40.516   5.317   1.451
39295W        W11720  19.542  25.154  10.602
39296W        W11721  15.316   6.724   1.251
39297W        W11722  10.739   6.712   0.780
39298W        W11723  39.420  21.029  10.461
39299W        W11724  16.773  25.516  12.965
39300W        W11725  39.419  34.481   0.364
39301W        W11726  32.916  41.348   4.759
39302W        W11727   0.328   7.689  13.030
39303W        W11728  15.240  15.083   0.789
39304W        W11729  18.221   5.392   2.202
39305W        W11730  25.513  36.465   4.216
39306W        W11731   8.284  20.542   2.312
39307W        W11732  27.055  17.647  14.888
39308W        W11733   3.745   4.440  10.898
39309W        W11734   0.851  40.960  12.536
39310W        W11735  19.689   3.246   1.444
39311W        W11736  25.711  30.962  14.505
39312W        W11737  25.051  23.551   0.755
39313W        W11738  22.151   4.307   4.268
39314W        W11739  13.226  21.193  10.909
39315W        W11740  44.958  24.029   3.817
39316W        W11741  37.895  34.503  12.995
39317W        W11742  33.593  21.540   0.251
39318W        W11743   4.213  37.353  14.366
39319W        W11744  41.347  31.999   3.265
39320W        W11745  12.245   0.317   4.645
39321W        W11746   2.306  43.300  11.986
39322W        W11747  33.574  44.398   3.688
39323W        W11748  34.428  25.471   2.849
39324W        W11749  22.722  43.288   3.774
39325W        W11750  19.104  41.943  14.952
39326W        W11751   5.342  27.081  11.407
39327W        W11752  43.419  28.103   1.367
39328W        W11753  43.939  10.309  13.798
39329W        W11754   3.893  30.146  12.363
39330W        W11755  37.385  21.740   2.737
39331W        W11756  44.847  37.397  11.510
39332W        W11757  23.041  19.148  11.501
39333W        W11758  30.975  38.033   2.901
39334W        W11759  17.224  44.767  13.437
39335W        W11760  31.434  20.690   2.255
39336W        W11761  38.394  24.984   4.211
39337W        W11762  21.645  26.120   0.392
39338W        W11763  32.539  41.041   4.294
39339W        W11764   4.740  34.615   2.722
39340W        W11765   9.669  24.077   4.312
39341W        W11766  43.311  44.006  10.469
39342W        W11767  41.966  39.961   2.749
39343W        W11768  25.111  23.047   4.253
39344W        W11769   7.862  30.434   0.469
39345W        W11770  19.635  21.100   1.301
39346W        W11771  27.970  10.337   2.180
39347W        W11772  42.980  25.567  11.018
39348W        W11773  18.267  18.238   1.918
39349W        W11774  30.427  18.763   1.343
39350W        W11775   5.925  41.511  14.997
39351W        W11776  28.000  17.166  12.522
39352W        W11777  43.890  36.526   0.945
39353W        W11778   6.227  30.031  10.644
39354W        W11779  28.620  10.768   2.286
39355W        W11780  32.628   5.696   4.213
39356W        W11781  30.036   4.368   1.796
39357W        W11782  14.675   0.324   4.203
39358W        W11783   2.404  44.418   5.101
39359W        W11784  37.043   5.310   2.744
39360W        W11785   8.202  21.750   3.291
39361W        W11786   4.747  11.688  13.955
39362W        W11787  33.438  27.009  12.505
39363W        W11788  27.149  42.946  14.505
39364W        W11789   2.765  27.060  11.514
39365W        W11790  15.810  35.854   3.315
39366W        W11791   2.726  35.079   3.287
39367W        W11792   9.770  23.130   2.828
39368W        W11793  18.085  42.462   1.327
39369W        W11794  31.463   2.411   0.916
39370W        W11795  26.108   5.262   4.255
39371W        W11796   9.236  34.065   4.121
39372W        W11797  27.959   5.351   5.219
39373W        W11798  22.672  15.616  12.962
39374W        W11799  15.680  40.051   2.418
39375W        W11800  21.082   1.949   4.156
39376W        W11801  30.532  13.765  11.865
39377W        W11802  43.282  17.559   4.687
39378W        W11803   7.316  41.854   3.639
39379W        W11804   3.819   7.341  13.994
39380W        W11805  38.052  27.550  10.517
39381W        W11806  34.425  15.657   1.853
39382W        W11807  37.411  17.732   1.242
39383W        W11808   1.474  24.706  11.508
39384W        W11809  21.549  28.005  14.022
39385W        W11810  28.637   0.386  10.521
39386W        W11811  29.150   1.924   4.735
39387W        W11812  22.029  33.903   0.914
39388W        W11813  16.642  30.526  14.765
39389W        W11814  33.451  33.989  12.081
39390W        W11815  17.707  37.512   4.311
39391W        W11816   5.899  10.317   4.333
39392W        W11817  39.030  37.562  11.541
39393W        W11818  40.046  30.013   1.866
39394W        W11819   7.258  13.145   3.867
39395W        W11820   8.329  10.789  13.505
39396W        W11821  11.663  29.046  13.400
39397W        W11822  27.980  28.945  14.016
39398W        W11823  26.577  32.460   1.920
39399W        W11824  32.425  12.180  11.064
39400W        W11825  23.597  10.685   2.236
39401W        W11826  32.971  36.432   4.304
39402W        W11827  17.141  21.696  14.865
39403W        W11828  22.006  28.108  12.093
39404W        W11829  25.986  35.477   4.349
39405W        W11830  39.465  41.532  13.064
39406W        W11831  31.017  19.757   0.419
39407W        W11832  15.327  21.736   2.766
39408W        W11833  19.107  39.530  11.518
39409W        W11834  15.325  11.696  10.961
39410W        W11835  14.333  28.540   1.285
39411W        W11836  32.042  17.790  13.997
39412W        W11837  24.493  21.700  14.808
39413W        W11838   1.820   7.390  12.897
39414W        W11839  31.896  38.961   3.847
39415W        W11840   9.818  23.531  13.357
39416W        W11841  36.548  29.052  14.782
39417W        W11842   3.446  18.266  11.975
39418W        W11843  10.183   3.872  11.996
39419W        W11844  43.425   2.257  13.009
39420W        W11845  29.577   7.808   1.764
39421W        W11846  26.153  37.888  12.998
39422W        W11847   9.876  23.733   1.211
39423W        W11848  29.097  13.188   0.899
39424W        W11849  35.505   1.422  10.983
39425W        W11850   1.371  22.186   4.689
39426W        W11851  41.812   3.834   2.277
39427W        W11852  23.542  11.661  13.443
39428W        W11853  37.850  37.075  10.977
39429W        W11854  31.618  20.574  10.531
39430W        W11855   4.713  36.369  13.897
39431W        W11856  25.120  21.221   3.787
39432W        W11857  16.295  11.824  10.153
39433W        W11858  22.580  28.033  10.597
39434W        W11859  25.672  37.549   1.849
39435W        W11860  43.934  22.545  10.426
39436W        W11861   9.706  28.473  11.561
39437W        W11862  12.726  35.044  10.593
39438W        W11863   4.824  17.773   1.429
39439W        W11864  12.148  15.583   2.783
39440W        W11865  10.829  28.442  11.951
39441W        W11866  29.121  22.231  14.006
39442W        W11867  15.803  44.831   0.950
39443W        W11868  18.267  42.996  13.995
39444W        W11869  42.412  12.721   4.313
39445W        W11870   7.317  18.254  10.980
39446W        W11871  33.908  35.531   4.601
39447W        W11872  13.756   1.245   2.316
39448W        W11873  39.409   1.758   2.237
39449W        W11874   6.190  17.209   3.698
39450W        W11875  14.272  18.549   5.249
39451W        W11876  29.656   7.805  13.364
39452W        W11877   7.779  10.312  14.011
39453W        W11878  19.082  21.700   4.679
39454W        W11879  44.865  43.929   4.301
39455W        W11880  42.863   0.251   0.903
39456W        W11881   6.839  31.506   0.794
39457W        W11882  30.036   3.726  11.011
39458W        W11883  26.625  10.300   0.860
39459W        W11884  14.813  18.260  14.360
39460W        W11885  12.708   8.191  13.511
39461W        W11886   6.916  27.641  12.553
39462W        W11887  11.303   1.973  13.825
39463W        W11888  24.720  14.193  14.819
39464W        W11889  25.996  12.822   1.862
39465W        W11890  41.315  32.583  12.339
39466W        W11891   8.397  36.491  11.005
39467W        W11892  23.556  37.557   0.379
39468W        W11893  33.534   3.900  10.928
39469W        W11894  35.049  24.480  13.919
39470W        W11895  44.273  26.570  13.452
39471W        W11896  34.944  23.596   2.717
39472W        W11897  43.407  23.568   2.239
39473W        W11898  10.142  36.945   1.885
39474W        W11899   7.183   7.803   2.777
39475W        W11900  13.297  15.185   2.415
39476W        W11901   1.362  12.303  11.045
39477W        W11902  15.643  24.619  11.592
39478W        W11903   7.725   7.392   4.190
39479W        W11904  17.758  24.479  10.568
39480W        W11905  43.492  11.322  13.412
39481W        W11906  35.079  40.513  10.463
39482W        W11907  30.572   0.261   2.846
39483W        W11908  37.392  39.049   4.342
39484W        W11909   0.825  13.606   1.445
39485W        W11910  33.490  41.989  10.429
39486W        W11911  44.493  16.725  14.295
39487W        W11912  39.053  20.112   9.927
39488W        W11913  36.051  16.176   3.724
39489W        W11914  40.923  28.439   2.785
39490W        W11915   5.804  30.106  14.889
39491W        W11916  40.382  40.852  13.386
39492W        W11917  36.904  23.527   1.787
39493W        W11918  37.042  17.278   0.459
39494W        W11919  17.087  22.708   0.738
39495W        W11920  21.570  22.209   2.845
39496W        W11921   0.961   3.356   4.168
39497W        W11922  32.112  32.937  12.945
39498W        W11923   1.938  36.971  11.881
39499W        W11924  17.135  28.447  13.969
39500W        W11925  10.788  22.027   4.305
39501W        W11926  23.531  28.174   1.885
39502W        W11927  16.694  12.629   2.822
39503W        W11928  32.095  14.756   1.778
39504W        W11929   1.741  14.172   0.286
39505W        W11930   8.261  18.078   0.387
39506W        W11931  10.262  36.843   2.388
39507W        W11932   8.680  41.853  14.848
39508W        W11933  25.964  42.009   1.442
39509W        W11934   2.415  21.512   0.949
39510W        W11935   4.440  18.238  11.956
39511W        W11936  24.034  32.407   2.384
39512W        W11937  21.094  27.680   3.245
39513W        W11938  44.404  44.474   3.819
39514W        W11939  22.010  13.128   9.962
39515W        W11940  30.440  30.962   4.702
39516W        W11941  23.731  29.486  13.830
39517W        W11942  27.149   3.424   0.748
39518W        W11943  35.597  17.698   2.178
39519W        W11944   7.791   8.663   5.279
39520W        W11945  40.465  40.877   1.437
39521W        W11946   8.249  26.493   5.081
39522W        W11947  38.991  32.530  13.484
39523W        W11948   9.754  11.724   0.377
39524W        W11949  17.755  32.493  11.004
39525W        W11950   6.752   4.814   2.698
39526W        W11951  28.594  29.973  11.886
39527W        W11952  20.183   9.866   3.331
39528W        W11953  41.811  40.456  14.457
39529W        W11954  41.951  34.403   5.252
39530W        W11955  12.323   6.910  14.492
39531W        W11956   3.890  18.622   1.266
39532W        W11957  22.623  42.444  12.042
39533W        W11958   5.345   1.294   4.188
39534W        W11959  34.100  22.042   3.682
39535W        W11960  40.968  27.031   3.279
39536W        W11961   2.245  35.901  14.380
39537W        W11962  14.711  42.989   4.692
39538W        W11963  20.608  44.911  14.316
39539W        W11964  27.565  25.021  10.602
39540W        W11965  17.180  43.271   3.151
39541W        W11966   7.856   2.839  14.275
39542W        W11967   9.195  22.157  12.407
39543W        W11968  18.151  31.587  11.959
39544W        W11969   5.219  29.441  12.986
39545W        W11970  41.898  15.294  13.335
39546W        W11971   9.288  15.222  12.926
39547W        W11972  14.598  35.883   4.784
39548W        W11973  36.994  35.958   2.852
39549W        W11974  27.622  26.573   1.828
39550W        W11975  16.580  44.793  13.343
39551W        W11976  25.181   5.803  10.579
39552W        W11977  39.392  32.035  12.910
39553W        W11978  19.064  17.628  14.959
39554W        W11979  29.109   6.853  12.901
39555W        W11980  14.226   4.711  13.950
39556W        W11981  30.484  32.893   0.396
39557W        W11982  28.615   3.460   5.125
39558W        W11983  28.439  28.438   3.331
39559W        W11984   3.800  42.437  12.862
39560W        W11985  34.116  42.298  10.541
39561W        W11986  39.347  28.448  13.965
39562W        W11987  24.973  13.124   4.131
39563W        W11988   1.854   4.415   1.404
39564W        W11989   8.761  39.895   4.218
39565W        W11990  27.690  38.328   0.413
39566W        W11991  18.770  26.666   2.181
39567W        W11992  34.926  36.513  11.513
39568W        W11993  24.019  29.167  12.017
39569W        W11994  26.125  12.670  11.125
39570W        W11995  43.393  25.170   0.779
39571W        W11996  20.034  35.383  11.877
39572W        W11997   2.810  27.612  10.439
39573W        W11998  31.983   0.816   2.808
39574W        W11999  14.207   5.875  13.332
39575W        W12000  22.077  24.113  10.522
39576W        W12001  17.614  39.823   2.321
39577W        W12002  37.862   9.724   2.400
39578W        W12003   4.909  14.719  11.022
39579W        W12004   5.893  15.307  13.943
39580W        W12005  37.496  12.646   2.734
39581W        W12006  15.732   9.299  12.355
39582W        W12007   5.366   4.943   1.806
39583W        W12008   0.827   1.901   1.803
39584W        W12009  24.538  44.361  12.023
39585W        W12010  19.575  16.124  14.003
39586W        W12011   9.860  24.147   3.311
39587W        W12012  41.838  39.537  10.411
39588W        W12013  31.009  23.024  13.882
39589W        W12014  41.885  31.416   4.709
39590W        W12015  37.567  43.373   2.762
39591W        W12016  38.922  28.679  11.516
39592W        W12017  19.570   8.359  12.454
39593W        W12018  33.953  14.770  11.471
39594W        W12019  17.240  35.855  13.548
39595W        W12020  15.247  43.836   2.260
39596W        W12021   0.978  20.073  12.361
39597W        W12022  39.367  29.026  11.867
39598W        W12023  27.045  40.855  14.408
39599W        W12024  14.588   6.684   0.743
39600W        W12025  11.764  44.002  14.848
39601W        W12026  25.652   5.843   0.397
39602W        W12027  13.762  30.941  12.942
39603W        W12028  16.268  27.460  14.868
39604W        W12029  44.004  18.779  10.902
39605W        W12030  12.312  22.715   5.282
39606W        W12031  26.588  23.010  14.478
39607W        W12032  28.123   6.246  12.985
39608W        W12033  20.198   7.734  11.882
39609W        W12034  18.137  10.738   4.688
39610W        W12035  20.035   0.948  11.938
39611W        W12036  38.482  15.745   1.350
39612W        W12037  25.145   0.986  13.988
39613W        W12038  31.005  22.707   4.177
39614W        W12039  42.417   3.750  11.995
39615W        W12040  17.774  36.577   3.653
39616W        W12041   2.869  27.976  12.935
39617W        W12042  11.694  10.322  12.946
39618W        W12043  20.175  32.585   4.179
39619W        W12044  18.115   1.773  10.513
39620W        W12045  22.741   8.766   2.401
39621W        W12046  29.496  25.115   0.929
39622W        W12047  34.936  16.735  14.779
39623W        W12048  38.477  22.219  13.050
39624W        W12049   0.822  41.499   1.804
39625W        W12050  41.019  19.206   2.662
39626W        W12051  14.760  20.245  13.014
39627W        W12052  33.119  31.613  14.986
39628W        W12053   8.798  15.651  12.401
39629W        W12054   0.317  12.841   3.813
39630W        W12055  44.923  41.406   4.754
39631W        W12056  35.073  14.207   0.911
39632W        W12057  17.718  15.279   2.236
39633W        W12058  18.270  33.611   4.682
39634W        W12059  17.690  34.936   4.673
39635W        W12060   3.902   5.867  12.554
39636W        W12061  15.138  34.987  14.320
39637W        W12062   4.769  33.120  13.514
39638W        W12063  33.929  22.518  14.501
39639W        W12064  10.668  16.798   4.765
39640W        W12065  20.255  35.097  10.619
39641W        W12066   8.814   0.912  12.521
39642W        W12067  29.623   1.368  11.015
39643W        W12068  17.154  41.512   0.310
39644W        W12069  35.051   3.299   2.215
39645W        W12070  38.017  24.610  11.901
39646W        W12071  36.562  19.276   0.344
39647W        W12072  22.233  43.467  12.543
39648W        W12073  44.461  35.959  12.393
39649W        W12074  23.089  40.476  12.839
39650W        W12075   1.469  16.649   2.816
39651W        W12076  35.054  44.907   4.767
39652W        W12077  40.856  26.524  11.083
39653W        W12078  21.066  16.091   3.777
39654W        W12079   6.707  28.094  10.632
39655W        W12080  44.295  32.942  13.938
39656W        W12081  24.691  39.967   3.356
39657W        W12082  26.190  19.066   3.299
39658W        W12083  23.134  26.009  10.450
39659W        W12084  10.874   7.356  11.411
39660W        W12085  26.006  10.349   2.707
39661W        W12086   2.262  26.613  12.365
39662W        W12087  28.047  25.589   0.405
39663W        W12088   9.658  34.434   1.232
39664W        W12089   0.827  37.543  10.966
39665W        W12090  40.797   3.366   4.143
39666W        W12091  13.700  43.840  13.418
39667W        W12092  16.643  42.448   3.728
39668W        W12093  13.838  27.993   4.669
39669W        W12094   1.930  15.208  12.911
39670W        W12095  29.056   1.770   3.751
39671W        W12096  14.107  31.986   3.765
39672W        W12097  32.107   5.232  14.790
39673W        W12098  12.672  28.988   4.243
39674W        W12099  29.021  20.552   4.223
39675W        W12100  37.459  13.330  10.928
39676W        W12101  26.018  19.535  14.787
39677W        W12102   1.955  13.220  13.423
39678W        W12103   5.887  17.676   2.839
39679W        W12104   3.373  20.582   0.852
39680W        W12105   2.886   4.283   4.787
39681W        W12106  20.701   4.361  12.966
39682W        W12107  34.514  23.567   3.719
39683W        W12108  28.567   1.835   0.378
39684W        W12109  12.207   4.803   4.626
39685W        W12110  33.088  20.138  12.545
39686W        W12111  40.946   0.933  10.495
39687W        W12112   0.483  24.708   2.873
39688W        W12113  26.467  14.730   4.287
39689W        W12114  31.555   3.937  12.862
39690W        W12115  19.765  32.504  12.073
39691W        W12116  20.058  41.421  12.004
39692W        W12117  34.488  20.234  13.519
39693W        W12118  35.514  23.618   1.438
39694W        W12119  13.158   4.813  12.876
39695W        W12120  20.733  31.464   0.747
39696W        W12121  27.161   3.910   2.875
39697W        W12122  23.665  16.104   3.349
39698W        W12123   9.724  43.949   1.391
39699W        W12124   1.360  28.177   2.802
39700W        W12125  23.079  18.558   1.746
39701W        W12126  10.367  41.484   0.302
39702W        W12127   4.444  21.215   3.374
39703W        W12128  30.935  22.197  11.122
39704W        W12129   4.873  23.512   1.748
39705W        W12130  23.102  13.693   0.285
39706W        W12131   2.909  19.122  11.582
39707W        W12132   0.949  18.187  14.964
39708W        W12133  24.084  27.010   3.662
39709W        W12134  37.501   7.407  13.852
39710W        W12135   2.806  27.586   0.798
39711W        W12136  42.954  15.612   0.379
39712W        W12137  15.254   0.459   4.674
39713W        W12138  44.425  24.051   2.217
39714W        W12139   2.243   3.772  12.421
39715W        W12140  22.590  24.984  11.990
39716W        W12141  31.589  44.781  10.585
39717W        W12142  26.995   9.794   3.657
39718W        W12143   9.184   4.443  14.978
39719W        W12144   1.840  36.842  14.899
39720W        W12145  19.612  29.599   0.742
39721W        W12146  30.131  32.091  13.868
39722W        W12147  20.539  39.410   2.705
39723W        W12148  37.338  39.967   4.633
39724W        W12149  15.583   4.242   3.785
39725W        W12150  22.124  17.722   3.706
39726W        W12151  22.728  18.139  14.359
39727W        W12152  26.496  19.216  13.891
39728W        W12153  10.713  33.529  10.514
39729W        W12154   8.854  28.632   4.827
39730W        W12155  24.644   8.321  11.526
39731W        W12156   9.264  13.292   4.209
39732W        W12157  19.072  30.458  13.414
39733W        W12158  34.465  16.260   4.147
39734W        W12159   5.928  40.048   1.262
39735W        W12160  31.079  25.645   2.720
39736W        W12161  11.177   9.807  10.594
39737W        W12162   0.789   7.887   1.364
39738W        W12163  35.919  22.642   3.764
39739W        W12164  23.199  26.460  12.886
39740W        W12165  40.326  33.441  14.477
39741W        W12166  32.463  18.212  14.889
39742W        W12167  32.978  36.585  12.842
39743W        W12168   8.776   4.302   4.674
39744W        W12169  28.170  18.727   1.708
39745W        W12170  11.670  18.595  13.537
39746W        W12171  16.658  23.205   0.915
39747W        W12172  40.351  21.536   2.866
39748W        W12173  42.000  38.380  14.980
39749W        W12174  29.087  40.355   3.782
39750W        W12175  13.271  32.441   2.689
39751W        W12176  11.853   3.462   3.264
39752W        W12177  27.188  44.776  13.533
39753W        W12178   0.463  31.931  13.794
39754W        W12179  29.067  35.451   0.906
39755W        W12180  10.663  16.122   3.183
39756W        W12181  40.341  30.035  12.447
39757W        W12182  16.608  13.707  13.844
39758W        W12183   6.366  19.155   3.754
39759W        W12184  15.755  34.083  12.087
39760W        W12185  38.543  16.197  11.427
39761W        W12186   9.771  27.519  13.990
39762W        W12187   8.794   7.865   4.238
39763W        W12188  36.958  24.034   4.276
39764W        W12189   0.475  41.430   1.374
39765W        W12190  15.194  27.042   3.345
39766W        W12191  43.014   2.762   2.266
39767W        W12192   9.684  24.158   1.353
39768W        W12193  20.213  26.624   4.681
39769W        W12194  16.144  36.554   3.275
39770W        W12195  12.662  18.115  13.481
39771W        W12196  21.569  44.901  11.538
39772W        W12197  10.772  25.992  11.931
39773W        W12198   8.727  39.015  13.939
39774W        W12199  13.200  19.243   4.753
39775W        W12200   0.288  42.359  14.915
39776W        W12201   4.825  27.180   5.192
39777W        W12202  30.586  10.671  10.513
39778W        W12203  38.986  39.352   4.657
39779W        W12204  23.497  32.135   4.178
39780W        W12205  24.601  30.479   2.830
39781W        W12206  11.278  15.262  12.359
39782W        W12207  21.242  44.356   2.833
39783W        W12208   3.833  22.710   2.245
39784W        W12209  44.826  31.454  14.441
39785W        W12210  13.247  39.538   4.758
39786W        W12211  25.705  34.988  11.021
39787W        W12212  21.569  12.328   9.662
39788W        W12213  18.244  23.233  11.033
39789W        W12214   2.946  34.484  11.081
39790W        W12215  25.654   5.439  12.435
39791W        W12216   6.224  24.488   2.274
39792W        W12217  43.937   3.910  12.824
39793W        W12218  26.090  33.892   1.722
39794W        W12219   8.786   3.274   0.363
39795W        W12220  16.621  29.524  11.526
39796W        W12221  16.099   3.888  14.476
39797W        W12222  39.409  20.532  14.379
39798W        W12223  35.868  38.842  11.417
39799W        W12224   3.904  34.112   2.784
39800W        W12225   5.242  27.672   4.762
39801W        W12226  38.886   2.811  10.404
39802W        W12227  38.838  15.125   2.746
39803W        W12228  22.086  24.198   2.849
39804W        W12229  10.717  14.128   0.819
39805W        W12230  28.587   3.776   1.417
39806W        W12231  29.445  32.451  13.823
39807W        W12232   0.455  24.160   4.713
39808W        W12233  20.564   4.326  14.421
39809W        W12234  39.847  25.044   1.376
39810W        W12235   7.794   2.910   2.700
39811W        W12236  11.143   1.784   5.131
39812W        W12237  25.470  13.647   1.262
39813W        W12238  29.636  11.766  11.973
39814W        W12239  43.325  18.595  10.438
39815W        W12240  11.196   9.213   2.821
39816W        W12241  17.671  12.848   0.784
39817W        W12242   4.445  29.475  14.951
39818W        W12243  39.980  20.247   5.134
39819W        W12244   2.813  33.445  10.405
39820W        W12245  15.234  39.882  11.953
39821W        W12246   3.290  34.384   2.379
39822W        W12247   8.795  33.548  12.441
39823W        W12248  27.165  11.860  10.014
39824W        W12249  16.791  39.842   0.307
39825W        W12250  21.235  27.026  13.511
39826W        W12251   7.845  17.576   3.797
39827W        W12252  35.461  44.493  11.877
39828W        W12253  40.524  33.998  10.447
39829W        W12254   9.754  10.368  11.952
39830W        W12255   3.399   9.684   1.884
39831W        W12256   3.258  29.960  10.985
39832W        W12257  31.038   7.342  12.395
39833W        W12258  35.516  13.150  14.987
39834W        W12259  24.694  31.501   4.118
39835W        W12260  39.955  29.068  12.480
39836W        W12261  12.815  23.583  11.912
39837W        W12262   8.878  44.404   0.365
39838W        W12263  27.539  12.637   0.813
39839W        W12264  23.050  36.372  11.500
39840W        W12265  27.555  37.448   0.344
39841W        W12266  26.462  21.024  11.076
39842W        W12267  31.942  44.915  14.783
39843W        W12268  34.515  42.797   1.730
39844W        W12269  11.352  40.852  12.342
39845W        W12270   0.953  19.674  11.538
39846W        W12271   8.806   7.307  12.434
39847W        W12272  26.176   5.925   0.322
39848W        W12273  44.332  42.009  11.521
39849W        W12274  32.558  18.056  13.329
39850W        W12275  26.545  44.825  14.975
39851W        W12276  24.114  42.849   2.901
39852W        W12277  34.450  19.114  13.505
39853W        W12278  21.749  21.060  13.954
39854W        W12279   4.774   7.413   0.295
39855W        W12280  19.533  39.977  12.849
39856W        W12281  29.619  26.498  14.453
39857W        W12282   6.190  20.113   0.896
39858W        W12283   0.851  30.447   5.242
39859W        W12284  20.074  11.228  14.861
39860W        W12285   0.842   5.883   4.227
39861W        W12286  38.418   6.756   2.718
39862W        W12287   1.303   6.686   1.890
39863W        W12288  23.985  41.798   0.816
39864W        W12289  41.429   8.863  13.003
39865W        W12290   9.774  39.963   0.312
39866W        W12291  38.892  38.347  13.932
39867W        W12292  27.172  37.468  13.049
39868W        W12293  40.011   8.888  13.431
39869W        W12294  27.650  42.322   0.959
39870W        W12295   2.267  34.471  13.448
39871W        W12296  42.396  19.713  13.945
39872W        W12297  41.904  25.992  11.908
39873W        W12298  23.060  17.653   2.873
39874W        W12299  23.553  22.051   4.644
39875W        W12300  15.200  42.008  11.990
39876W        W12301   5.781  28.155   4.120
39877W        W12302  23.189  27.178  14.780
39878W        W12303   7.358  43.506  13.486
39879W        W12304  30.509  42.313  11.376
39880W        W12305  11.186  19.772   4.752
39881W        W12306  22.074  20.204   1.436
39882W        W12307  33.092   8.706   4.699
39883W        W12308  20.149  32.049   0.760
39884W        W12309  28.964  28.175  13.862
39885W        W12310  28.525  42.957   2.695
39886W        W12311  21.739  21.218   5.162
39887W        W12312  14.261  21.609   3.861
39888W        W12313  29.500  31.922  14.957
39889W        W12314  17.605  29.063  10.443
39890W        W12315   5.756  25.979   3.685
39891W        W12316  19.544  28.518  13.527
39892W        W12317  36.969  38.482   0.325
39893W        W12318  20.755  43.352  12.363
39894W        W12319  18.163   4.792  12.433
39895W        W12320   1.442  16.237   4.820
39896W        W12321  36.426  17.589   4.236
39897W        W12322  35.376  43.399   3.250
39898W        W12323  21.743   6.296  12.056
39899W        W12324  14.803  26.033   1.249
39900W        W12325   8.360   0.867   4.328
39901W        W12326  40.814  42.487   3.762
39902W        W12327  41.444  14.321  14.370
39903W        W12328  32.468  16.276   2.343
39904W        W12329  21.035   2.267  11.593
39905W        W12330   8.799  11.773   1.810
39906W        W12331  41.399   0.363   4.754
39907W        W12332   2.441  15.689  14.786
39908W        W12333  43.819   6.892   0.375
39909W        W12334   7.792  25.115  14.507
39910W        W12335  23.173   0.894  12.968
39911W        W12336  22.637  26.001  13.445
39912W        W12337  10.197  13.838   1.880
39913W        W12338  19.700  14.627   3.830
39914W        W12339  33.012  20.108  12.906
39915W        W12340  41.932  35.419   3.797
39916W        W12341  42.426  40.867   1.283
39917W        W12342  30.444  40.022   2.668
39918W        W12343  16.584  15.310   1.880
39919W        W12344  31.543   9.655   1.250
39920W        W12345   8.840   9.347   2.754
39921W        W12346  23.722  12.815  13.379
39922W        W12347  43.471  22.669   3.669
39923W        W12348  15.809  37.054   3.311
39924W        W12349  27.669  30.096   3.802
39925W        W12350  10.720  24.639   9.551
39926W        W12351  13.259  16.258   0.424
39927W        W12352  44.800  26.144  14.475
39928W        W12353  32.120  29.001  13.322
39929W        W12354  16.681   7.818  11.080
39930W        W12355  18.705  41.532   2.261
39931W        W12356  28.456   0.355   4.181
39932W        W12357  39.435   0.489   0.414
39933W        W12358  21.688   0.751  13.023
39934W        W12359  42.852   8.206  12.558
39935W        W12360   9.378  41.894   4.759
39936W        W12361  39.424  26.637  11.542
39937W        W12362  32.500   8.308  10.945
39938W        W12363  12.308  26.997  12.550
39939W        W12364  35.377  32.015  11.071
39940W        W12365  40.017  10.340  14.498
39941W        W12366   5.279  24.156   0.355
39942W        W12367   9.858  41.497   1.234
39943W        W12368   2.353   5.703  13.826
39944W        W12369  41.938  24.999   3.317
39945W        W12370   6.832  30.944   0.376
39946W        W12371  40.022  43.443  13.933
39947W        W12372  13.120  38.951  14.006
39948W        W12373  27.028  32.057  12.407
39949W        W12374  18.776  33.612  12.451
39950W        W12375  44.987  44.305   3.818
39951W        W12376  31.493   9.767  11.409
39952W        W12377   4.762  16.725  14.443
39953W        W12378   8.836  15.594   1.279
39954W        W12379  42.834  44.366  10.542
39955W        W12380   0.250  37.336   0.884
39956W        W12381  41.896  18.137   2.400
39957W        W12382  10.222  13.679   0.373
39958W        W12383  37.924  22.531   3.776
39959W        W12384  16.179  14.729   3.300
39960W        W12385  31.995   8.219  13.531
39961W        W12386  11.633  40.381   5.250
39962W        W12387  24.090  15.756  10.117
39963W        W12388  39.343  44.304  12.086
39964W        W12389  13.110  30.094  10.507
39965W        W12390  33.389   1.254  10.479
39966W        W12391  19.282   4.214   2.194
39967W        W12392   8.225  11.858  13.829
39968W        W12393   6.183   8.669  11.398
39969W        W12394  16.130  39.979   2.864
39970W        W12395  13.798  23.545  14.428
39971W        W12396  15.767  11.650   4.626
39972W        W12397  17.736  26.200   4.816
39973W        W12398   7.259   2.888  11.857
39974W        W12399  31.531   7.879  11.086
39975W        W12400   1.801  13.713   0.455
39976W        W12401  19.084  22.225  13.879
39977W        W12402  22.093  22.532   3.367
39978W        W12403  13.165   9.323   0.849
39979W        W12404  13.113   2.729   4.125
39980W        W12405  42.339  44.931   3.288
39981W        W12406  34.980  32.612  13.491
39982W        W12407  32.102   7.258  13.798
39983W        W12408   3.337  40.903   1.765
39984W        W12409  22.668  18.207  11.097
39985W        W12410  36.046  14.627  14.291
39986W        W12411  16.731   3.278   1.287
39987W        W12412  26.108  34.867  14.478
39988W        W12413  37.471  28.476  13.829
39989W        W12414  12.820  17.267   2.378
39990W        W12415  37.848   4.758  10.438
39991W        W12416  44.455  32.981   0.335
39992W        W12417  23.677   5.321   1.762
39993W        W12418  19.587   8.279  14.843
39994W        W12419   1.899  14.126   3.650
39995W        W12420  37.938  30.067   0.381
39996W        W12421  25.148  37.480  12.515
39997W        W12422  31.039  14.783   4.639
39998W        W12423  36.395   3.383  11.033
39999W        W12424  17.161  12.354   1.839
40000W        W12425  34.557  31.147   4.719
40001W        W12426  15.744  40.540   3.802
40002W        W12427  30.652  17.132  14.322
40003W        W12428  30.068  13.233  13.049
40004W        W12429  21.697   6.719  12.937
40005W        W12430   6.757  29.527   0.942
40006W        W12431   4.219  40.815   2.880
40007W        W12432   1.361  44.952   4.822
40008W        W12433  24.064  20.746  13.967
40009W        W12434  12.772  29.515  12.536
40010W        W12435  44.821   7.787   0.949
40011W        W12436  15.316  25.975   2.819
40012W        W12437   2.953  31.965   0.434
40013W        W12438  30.487  10.382  13.335
40014W        W12439   3.347  21.549  12.093
40015W        W12440  29.060  10.276  10.624
40016W        W12441  40.503  11.854  11.949
40017W        W12442  27.953  25.473  12.954
40018W        W12443  29.566  43.859   2.746
40019W        W12444  32.049   4.715   2.309
40020W        W12445  14.832  23.059   3.667
40021W        W12446  24.090   8.181   2.745
40022W        W12447  14.246  20.757   2.359
40023W        W12448   5.923   8.851   1.441
40024W        W12449  35.862  33.541   4.215
40025W        W12450   9.872  29.951  11.880
40026W        W12451  13.766   3.218  13.799
40027W        W12452  24.611  14.311   4.646
40028W        W12453  21.595  37.977  10.996
40029W        W12454  18.214  27.965   0.954
40030W        W12455   2.914  40.833   0.440
40031W        W12456   6.323  30.911   1.227
40032W        W12457  32.126  40.870   4.782
40033W        W12458  40.866  44.359  12.987
40034W        W12459  18.725   4.811   2.828
40035W        W12460   0.301   9.777  13.022
40036W        W12461   7.757   8.180  12.484
40037W        W12462  42.964  18.213   4.153
40038W        W12463  39.933   1.436  12.963
40039W        W12464  34.998   3.423   1.418
40040W        W12465  26.575  15.727   2.183
40041W        W12466  30.432   3.952   3.382
40042W        W12467  25.652  13.738  14.949
40043W        W12468  23.672  28.546   3.648
40044W        W12469   7.344  12.320  12.049
40045W        W12470  15.317  30.593  13.830
40046W        W12471  34.530  35.009   3.310
40047W        W12472  35.419  31.573   1.310
40048W        W12473  19.054  28.490  14.807
40049W        W12474   0.316   8.771   4.335
40050W        W12475  21.024  15.267  10.497
40051W        W12476  39.048  35.923   0.830
40052W        W12477  28.039  31.553  12.886
40053W        W12478   9.860  41.043   4.344
40054W        W12479  33.390  38.353   2.283
40055W        W12480  41.496   5.735   2.345
40056W        W12481  13.120  41.364   0.454
40057W        W12482   0.973   1.388  14.848
40058W        W12483  14.275  29.643   2.395
40059W        W12484  19.134   3.412   2.241
40060W        W12485  34.375  14.098  11.063
40061W        W12486  24.514  21.119   4.235
40062W        W12487  37.435  18.266  10.607
40063W        W12488  41.924  37.895   4.720
40064W        W12489   0.872  22.629  12.572
40065W        W12490  30.444  13.743  14.307
40066W        W12491  10.172   0.306   4.191
40067W        W12492  36.476  18.548  11.061
40068W        W12493   4.915  33.585   5.234
40069W        W12494  22.018  34.562  14.300
40070W        W12495   3.266  16.808   3.181
40071W        W12496   2.753  21.050  13.531
40072W        W12497  14.700  17.623  11.564
40073W        W12498  28.599   9.654   1.711
40074W        W12499   1.776  26.118   0.424
40075W        W12500  23.612  10.745   4.272
40076W        W12501  35.511   3.797   0.765
40077W        W12502  13.231  16.618  14.816
40078W        W12503  29.129   6.254   3.180
40079W        W12504  42.955  14.273   3.809
40080W        W12505  26.486  42.846  13.793
40081W        W12506  29.536  42.842  13.490
40082W        W12507  14.333  37.548  14.414
40083W        W12508  36.980  36.489   1.323
40084W        W12509   1.921  28.006   3.778
40085W        W12510  25.593  39.415  12.057
40086W        W12511   1.411  34.110   3.195
40087W        W12512   2.859  36.376   1.809
40088W        W12513  36.393  43.453  10.553
40089W        W12514   1.851  44.996  11.395
40090W        W12515  35.502  16.741  10.981
40091W        W12516  26.969   9.372   1.846
40092W        W12517  13.121  16.103   0.800
40093W        W12518   1.299  28.588   4.677
40094W        W12519  20.654  11.863  13.546
40095W        W12520  35.047  33.494   4.737
40096W        W12521  19.767  19.770   2.741
40097W        W12522   7.692  12.783  11.442
40098W        W12523  32.556  20.586  11.893
40099W        W12524  24.118  44.297  14.963
40100W        W12525  33.393  37.392  13.547
40101W        W12526  25.517  37.845  10.533
40102W        W12527   4.226  18.606  10.945
40103W        W12528  10.222  35.592   1.930
40104W        W12529  16.092  26.667   1.872
40105W        W12530  37.884  38.446   2.667
40106W        W12531  11.367  42.795  12.354
40107W        W12532  29.972  41.881  13.515
40108W        W12533  23.621   7.205  12.382
40109W        W12534  44.259  35.931  11.403
40110W        W12535  28.513  39.907   1.720
40111W        W12536   5.824  11.786  14.989
40112W        W12537  35.486  27.602  10.460
40113W        W12538  43.360  27.552  11.511
40114W        W12539  37.004  18.732   3.336
40115W        W12540  32.904   6.256  12.474
40116W        W12541  35.383  27.464   2.727
40117W        W12542   6.826  33.483  11.072
40118W        W12543  39.517  14.289  11.521
40119W        W12544  41.522   0.343  13.877
40120W        W12545  13.710  18.628   3.183
40121W        W12546  17.722  11.164  14.969
40122W        W12547  38.398  14.632   3.807
40123W        W12548  38.496  23.233  10.583
40124W        W12549  33.093  34.559   0.731
40125W        W12550  42.781  31.457   4.317
40126W        W12551   6.368   2.898  10.587
40127W        W12552  32.482  19.073  13.938
40128W        W12553  28.999   3.223   5.225
40129W        W12554  30.643  18.720  11.124
40130W        W12555  20.076  33.955  11.508
40131W        W12556  38.453  28.619   4.628
40132W        W12557  25.198  36.381  13.933
40133W        W12558   0.924  26.533   0.909
40134W        W12559  17.643  14.162  14.465
40135W        W12560  37.381  17.070  14.796
40136W        W12561  13.815  32.917  12.998
40137W        W12562  26.075  16.603   3.850
40138W        W12563   1.318  13.616  11.430
40139W        W12564  18.682  41.960  13.380
40140W        W12565  41.473  36.070   3.821
40141W        W12566  34.114  28.984  14.780
40142W        W12567   7.363  39.825  13.535
40143W        W12568  24.010  43.773   3.295
40144W        W12569  35.554   7.220   1.831
40145W        W12570  17.290  31.020   4.716
40146W        W12571  13.690  10.723  11.937
40147W        W12572  31.943  39.838   2.798
40148W        W12573  10.685  29.567   2.789
40149W        W12574  14.165  40.377   1.410
40150W        W12575  21.113  44.850  14.433
40151W        W12576  40.437  21.054  11.492
40152W        W12577  22.727   4.848   4.803
40153W        W12578  10.636  38.922   0.811
40154W        W12579   2.385   4.730  11.083
40155W        W12580  35.941  17.659  12.071
40156W        W12581  19.061  35.375  12.492
40157W        W12582  10.731  24.039  12.907
40158W        W12583  13.645  27.142  13.425
40159W        W12584  30.144  18.770  12.448
40160W        W12585  22.730   8.249  12.930
40161W        W12586  32.051  23.701   1.277
40162W        W12587  38.334  19.578   1.712
40163W        W12588  39.359  13.790  10.547
40164W        W12589  43.273  43.887   3.702
40165W        W12590  16.583  34.509   0.739
40166W        W12591  23.154   1.935  11.072
40167W        W12592  25.662  39.856  12.470
40168W        W12593  29.553  29.925   2.307
40169W        W12594  23.195  34.876  14.337
40170W        W12595  12.266   7.268   2.342
40171W        W12596  38.957  10.304  10.456
40172W        W12597  35.110  21.716  11.017
40173W        W12598  26.597  35.857  12.825
40174W        W12599  24.703   8.776  13.869
40175W        W12600   7.815   3.875   2.191
40176W        W12601  21.650  31.434   4.339
40177W        W12602  21.260  10.377   5.241
40178W        W12603  25.035  33.928  13.817
40179W        W12604   7.675  18.573   0.304
40180W        W12605  15.091  27.505   2.789
40181W        W12606  26.572  34.077  10.449
40182W        W12607  37.402  13.659   1.273
40183W        W12608  36.050   2.321  13.332
40184W        W12609  44.299  24.021   5.149
40185W        W12610  18.661  25.067   4.602
40186W        W12611  20.054  18.280   1.770
40187W        W12612  27.050   8.307  13.033
40188W        W12613  36.493  18.723   5.169
40189W        W12614  44.326  36.378   2.747
40190W        W12615  17.596   6.279   2.196
40191W        W12616  27.183  33.551  12.962
40192W        W12617  42.356  12.669   0.915
40193W        W12618  16.677  41.878  12.968
40194W        W12619  19.682  23.564  11.434
40195W        W12620  26.666   9.821  11.560
40196W        W12621  36.928  12.274  12.365
40197W        W12622  42.345  22.189  11.870
40198W        W12623  27.465  28.454   2.180
40199W        W12624  30.913  28.519  12.539
40200W        W12625  32.090  41.326  12.912
40201W        W12626  30.038  42.383  13.816
40202W        W12627   2.351  34.450   2.898
40203W        W12628  23.641  22.596   1.935
40204W        W12629  38.880  37.439  14.317
40205W        W12630  31.985  16.745   3.151
40206W        W12631   1.843  21.060  13.449
40207W        W12632  10.824   6.227  11.429
40208W        W12633  21.043   8.831   3.251
40209W        W12634  35.878  31.029   2.766
40210W        W12635  14.602  36.376  10.556
40211W        W12636  15.285  13.270   2.827
40212W        W12637   7.345  18.270   3.227
40213W        W12638  21.719  25.971   4.143
40214W        W12639  14.747  18.262   1.422
40215W        W12640  13.750  13.803   0.422
40216W        W12641  31.032  30.466   0.965
40217W        W12642  34.605   6.735   2.827
40218W        W12643  11.830  21.147   0.432
40219W        W12644   1.837  22.149  13.817
40220W        W12645  29.151  22.245  10.536
40221W        W12646  22.053  13.719  12.570
40222W        W12647  26.645   1.978  13.386
40223W        W12648  39.484  22.619   3.797
40224W        W12649  33.939   5.421  11.435
40225W        W12650   5.393  38.005   1.734
40226W        W12651  16.568  23.667   0.753
40227W        W12652  19.095  32.430   0.246
40228W        W12653   5.709  24.702   0.373
40229W        W12654  28.154  44.337   4.335
40230W        W12655  43.977   2.441  10.964
40231W        W12656  22.674  42.032   3.714
40232W        W12657  37.042   0.963   0.822
40233W        W12658  22.668  20.168   0.727
40234W        W12659  15.206  41.913   2.353
40235W        W12660   9.839   7.899   3.763
40236W        W12661  29.423   0.743   3.645
40237W        W12662  37.537  22.687   1.835
40238W        W12663  13.698   3.800  13.943
40239W        W12664   3.847  10.191  14.371
40240W        W12665  28.998  36.503   0.964
40241W        W12666  37.950  27.037   0.944
40242W        W12667  44.294  20.575   4.828
40243W        W12668  35.923   5.317   4.629
40244W        W12669   1.772   5.798   3.197
40245W        W12670  14.678  15.813   4.666
40246W        W12671  25.661  38.560   2.693
40247W        W12672  28.680  34.086  13.915
40248W        W12673  41.522   6.866   2.668
40249W        W12674  17.781  39.942  12.401
40250W        W12675  37.541  13.604  10.530
40251W        W12676  43.292  32.426  13.317
40252W        W12677  11.314   5.872   2.334
40253W        W12678  28.499  33.502   1.363
40254W        W12679   3.942  30.155  11.377
40255W        W12680  22.047  44.298  14.277
40256W        W12681  41.359  18.728   4.115
40257W        W12682  34.111  18.223   3.865
40258W        W12683  43.481  44.940   1.244
40259W        W12684   5.722  20.249  12.851
40260W        W12685   0.834   5.761  11.532
40261W        W12686  14.796  11.344   2.332
40262W        W12687   7.809  35.015   0.365
40263W        W12688   7.393   2.816   1.878
40264W        W12689  42.384  22.079  11.583
40265W        W12690  33.004  18.582   1.879
40266W        W12691  22.720  21.149   4.289
40267W        W12692  27.503   2.870   4.142
40268W        W12693  24.584   5.867   3.385
40269W        W12694  44.910  19.771   3.330
40270W        W12695  17.797  28.664  12.389
40271W        W12696  39.812  32.488  11.384
40272W        W12697  25.528   6.213  10.449
40273W        W12698  10.167  20.635  12.871
40274W        W12699  33.556   4.903  10.052
40275W        W12700  21.055  41.790   0.776
40276W        W12701   9.283   0.756  12.020
40277W        W12702  13.271   3.235  11.457
40278W        W12703   5.848  20.217   4.140
40279W        W12704  27.967  13.308   2.747
40280W        W12705  40.868  23.224  11.022
40281W        W12706  26.641  22.075  14.007
40282W        W12707  25.704  12.768  13.397
40283W        W12708   9.829   6.715   4.673
40284W        W12709  17.223  10.695  14.436
40285W        W12710  29.605  37.360   3.383
40286W        W12711   6.304  38.450   2.300
40287W        W12712  29.982   1.959   0.768
40288W        W12713  15.135  33.394   0.879
40289W        W12714  27.509  15.129  12.918
40290W        W12715  30.490   1.950  12.947
40291W        W12716  33.913  37.957  10.580
40292W        W12717  37.387   5.739   9.931
40293W        W12718  39.979  29.549   3.741
40294W        W12719  19.579  38.955  13.316
40295W        W12720   6.800  12.178  14.371
40296W        W12721  30.446   8.725  12.458
40297W        W12722  24.663   7.380  13.043
40298W        W12723  13.133  17.696  11.019
40299W        W12724  30.091  13.633   4.241
40300W        W12725  42.428  33.054  13.441
40301W        W12726  43.464  11.187   2.213
40302W        W12727  25.708  18.589   4.626
40303W        W12728  42.309  29.117  13.868
40304W        W12729   2.414  32.490   3.812
40305W        W12730  14.340  32.950  12.977
40306W        W12731  36.529  17.297  12.988
40307W        W12732  18.233  17.792  11.591
40308W        W12733  20.206  26.114   3.169
40309W        W12734  18.256  36.874  12.089
40310W        W12735  39.550  31.985   0.780
40311W        W12736   3.228   4.924  13.854
40312W        W12737  32.580   0.949  10.130
40313W        W12738   9.681  20.136   2.408
40314W        W12739  44.829  27.571  14.008
40315W        W12740  32.139  31.003   3.807
40316W        W12741  35.969  27.573   4.645
40317W        W12742   1.431  40.470   1.344
40318W        W12743  21.239  41.338  12.536
40319W        W12744  28.062  40.918  12.424
40320W        W12745  35.444  28.954  12.558
40321W        W12746  33.397  29.034  10.956
40322W        W12747   2.733  31.011   0.758
40323W        W12748  34.033  12.635   4.133
40324W        W12749   9.354  24.536   4.622
40325W        W12750   1.751  34.446   2.662
40326W        W12751   2.300   4.450  14.411
40327W        W12752  15.712  16.690  14.827
40328W        W12753  42.349  21.138  10.161
40329W        W12754  19.089  21.225   3.855
40330W        W12755  41.011  32.046   0.312
40331W        W12756  36.078  44.270   1.317
40332W        W12757   4.425  39.481  13.926
40333W        W12758  42.421   1.882  13.870
40334W        W12759   4.799  26.600  10.138
40335W        W12760  38.884   8.809  12.003
40336W        W12761  15.747  22.008   1.449
40337W        W12762  14.751  19.608   3.797
40338W        W12763  34.379   9.728  11.558
40339W        W12764  10.269  22.035  11.935
40340W        W12765  34.915  10.345   4.148
40341W        W12766  30.090  42.876   2.335
40342W        W12767   7.305  20.241  11.589
40343W        W12768  10.212   4.943  13.454
40344W        W12769  18.217  33.611   5.107
40345W        W12770  13.137  34.919  11.036
40346W        W12771  21.050  13.178  13.826
40347W        W12772  30.440   9.686   4.690
40348W        W12773   9.247  21.695  12.838
40349W        W12774   1.325   2.824   3.706
40350W        W12775  39.556   6.260  10.458
40351W        W12776  28.005  12.849  12.870
40352W        W12777   5.719  35.943  13.946
40353W        W12778   8.288  23.054  12.358
40354W        W12779  37.365  36.523   0.413
40355W        W12780  44.460   1.374  12.390
40356W        W12781  33.601  20.582  12.575
40357W        W12782  32.110  32.109   5.253
40358W        W12783  30.430  16.757  13.463
40359W        W12784  27.159  24.584  13.990
40360W        W12785  23.133  41.374   4.245
40361W        W12786  21.197   0.361   1.810
40362W        W12787  44.498  27.598  10.918
40363W        W12788  42.969   9.869  10.900
40364W        W12789  15.728  14.663   2.292
40365W        W12790  13.732  29.591  11.092
40366W        W12791  18.719  21.559  14.298
40367W        W12792   6.419  25.692   1.216
40368W        W12793  43.367  42.006  14.935
40369W        W12794   6.834   3.294   1.706
40370W        W12795  28.104  30.417  13.443
40371W        W12796  36.583  15.230  11.875
40372W        W12797   7.894  14.236  11.572
40373W        W12798   9.259  16.130   3.830
40374W        W12799   4.788  15.232   0.301
40375W        W12800  25.537  25.216  12.922
40376W        W12801   9.318  17.085   0.746
40377W        W12802   6.812  42.784  11.033
40378W        W12803  29.119  23.129  13.512
40379W        W12804  41.888  44.922   0.247
40380W        W12805  13.137   5.902  12.070
40381W        W12806  22.564   8.878   2.687
40382W        W12807  17.139  33.122   9.985
40383W        W12808   5.361  12.362   4.604
40384W        W12809  33.881  18.089  14.408
40385W        W12810  43.384  24.229   1.428
40386W        W12811  21.090  29.577  12.849
40387W        W12812  29.599  41.868   3.815
40388W        W12813  18.161  15.302   1.877
40389W        W12814  16.676   3.379  14.916
40390W        W12815  10.223   3.938   0.401
40391W        W12816   0.808  15.210  12.863
40392W        W12817  12.777   3.456   4.834
40393W        W12818   5.884  15.100  11.920
40394W        W12819  35.422  19.189   2.342
40395W        W12820  41.940  22.643   9.565
40396W        W12821  31.626  41.930   1.859
40397W        W12822  44.339  13.323  13.476
40398W        W12823   3.300  14.110   3.287
40399W        W12824  35.986  30.928  12.398
40400W        W12825  30.080  20.186   2.793
40401W        W12826   3.894   2.416   3.658
40402W        W12827  21.214  26.046  14.409
40403W        W12828  35.603  28.538   1.707
40404W        W12829  25.531  30.500   9.955
40405W        W12830   0.865  12.184  14.884
40406W        W12831  14.618  32.073  14.996
40407W        W12832  20.639  36.087   1.845
40408W        W12833  40.309  29.086  10.069
40409W        W12834  11.245   8.295  10.558
40410W        W12835  44.424   9.780   4.240
40411W        W12836  17.761   8.808   4.671
40412W        W12837  31.986   2.743  10.574
40413W        W12838   5.737  44.462   2.301
40414W        W12839  40.548  42.904   0.476
40415W        W12840  36.473  14.782   1.401
40416W        W12841   3.874  38.369  13.806
40417W        W12842  43.765  32.945  11.889
40418W        W12843  41.035   2.263   1.393
40419W        W12844   3.834  10.285  10.597
40420W        W12845  16.256   8.230  13.817
40421W        W12846  32.956  16.130  13.913
40422W        W12847  29.022  15.784   1.429
40423W        W12848  40.992  24.034  11.108
40424W        W12849  34.451  40.354  10.565
40425W        W12850   1.437  14.169  14.358
40426W        W12851  39.333  18.702  12.384
40427W        W12852   6.246  12.678   4.255
40428W        W12853   9.390   1.887  10.428
40429W        W12854  27.104  21.529   4.667
40430W        W12855  38.939  29.565  13.038
40431W        W12856  22.649  37.854   2.687
40432W        W12857   5.696   1.407   3.811
40433W        W12858  20.189   7.374   4.691
40434W        W12859   6.382  26.660   0.785
40435W        W12860  27.644   7.912  11.599
40436W        W12861  29.651  20.212  12.464
40437W        W12862  24.669  29.956  14.784
40438W        W12863  33.563  29.662   1.738
40439W        W12864  19.218  33.960   2.796
40440W        W12865   1.916   2.383  11.398
40441W        W12866   5.335  26.197  14.793
40442W        W12867   5.434  26.701   3.774
40443W        W12868  40.460  19.191   2.179
40444W        W12869   3.406  36.355  14.473
40445W        W12870   0.283  41.962   2.889
40446W        W12871   1.411  32.578   4.711
40447W        W12872   2.860  17.762  13.006
40448W        W12873   2.276   9.306  13.383
40449W        W12874   6.308  24.166  14.383
40450W        W12875  12.809  13.345  12.940
40451W        W12876  13.312   6.296  12.356
40452W        W12877  31.423  11.335   1.322
40453W        W12878  36.415  38.485   0.882
40454W        W12879  23.675  29.941   4.193
40455W        W12880  12.303  44.839  14.288
40456W        W12881  14.695  32.585  14.452
40457W        W12882  38.849  23.229   1.285
40458W        W12883  15.180   7.409   3.244
40459W        W12884   2.938  19.653   0.821
40460W        W12885   1.904  27.616   1.833
40461W        W12886  39.447  14.150  13.502
40462W        W12887  43.809   7.774   3.277
40463W        W12888  26.641  29.506   0.332
40464W        W12889  44.408  13.154  14.371
40465W        W12890  24.973  24.223  11.092
40466W        W12891  16.161  27.648  14.491
40467W        W12892  11.164  30.602  12.909
40468W        W12893  21.209   9.734   2.834
40469W        W12894   5.845   8.372  10.483
40470W        W12895   6.404   8.730   3.832
40471W        W12896  29.142   5.419   2.697
40472W        W12897  40.397  13.169  14.289
40473W        W12898  37.386  37.466   4.655
40474W        W12899   9.251  18.221   3.706
40475W        W12900  28.495  24.687   0.940
40476W        W12901  34.489  24.180  14.830
40477W        W12902  31.430  31.408   3.771
40478W        W12903  34.049   6.384  14.478
40479W        W12904  40.894  39.353  11.022
40480W        W12905  25.605  15.256   4.305
40481W        W12906   6.849  44.388   0.314
40482W        W12907  34.445  18.129  11.066
40483W        W12908  30.050  30.527   4.797
40484W        W12909  38.832  11.301   4.283
40485W        W12910  34.382  36.066   3.819
40486W        W12911  27.175   5.413  11.075
40487W        W12912  34.021  40.513   2.702
40488W        W12913  25.567  28.969  14.803
40489W        W12914  26.689  38.959  12.473
40490W        W12915  36.391  28.501  12.426
40491W        W12916  30.543  33.507   3.686
40492W        W12917  27.638  32.119   3.257
40493W        W12918  33.990   2.893  14.506
40494W        W12919  10.682  23.163   3.854
40495W        W12920   4.904  24.668  11.455
40496W        W12921   6.328  21.621  11.992
40497W        W12922  11.154  33.442  12.009
40498W        W12923  19.547  11.626   5.308
40499W        W12924  42.978   5.230   0.435
40500W        W12925  28.663   8.862  14.776
40501W        W12926  18.607   7.335  11.090
40502W        W12927  22.564  13.186   9.979
40503W        W12928  40.525  35.967   3.651
40504W        W12929  21.646  32.942   1.823
40505W        W12930  33.383  43.963   3.231
40506W        W12931  33.879  33.978   0.471
40507W        W12932  35.603  38.878   1.764
40508W        W12933  13.799   2.449   0.256
40509W        W12934   7.282   3.930   0.251
40510W        W12935   1.966  21.543   4.322
40511W        W12936  16.795   0.417   0.297
40512W        W12937  13.226  16.072  10.520
40513W        W12938   2.226   1.427   1.723
40514W        W12939   9.223  26.134   1.863
40515W        W12940   0.488   6.234  14.877
40516W        W12941  34.444  21.757  12.568
40517W        W12942  31.449  37.381  13.005
40518W        W12943  43.870  30.928  13.053
40519W        W12944  25.105  31.901  13.321
40520W        W12945  16.740  44.829   0.732
40521W        W12946  39.056  16.735  14.514
40522W        W12947  43.465   4.222  14.922
40523W        W12948  20.032  40.393   4.715
40524W        W12949   6.289  38.477   3.817
40525W        W12950  37.466   6.839  12.431
40526W        W12951  42.387  25.580  12.373
40527W        W12952  31.130  17.106  13.059
40528W        W12953  42.370  18.067   4.698
40529W        W12954  37.355  30.942  13.367
40530W        W12955  19.213  15.763  11.438
40531W        W12956  24.982   8.371  14.368
40532W        W12957  20.106  16.297   4.177
40533W        W12958   4.416  35.434   4.697
40534W        W12959  34.004  13.615  11.868
40535W        W12960  41.514  23.630   4.732
40536W        W12961  34.990   2.266  10.952
40537W        W12962  12.726  35.601   1.409
40538W        W12963  10.303  24.686  12.452
40539W        W12964  19.069  32.633  14.308
40540W        W12965   5.329  31.083  12.957
40541W        W12966   9.228   0.753  10.513
40542W        W12967  27.946  15.685  14.927
40543W        W12968  18.288   8.322   3.311
40544W        W12969  40.897   8.339  12.988
40545W        W12970  28.060   0.290  14.974
40546W        W12971  33.538  21.645  11.418
40547W        W12972  42.331  29.428  13.914
40548W        W12973  17.716  16.681   1.775
40549W        W12974  13.747  30.496  14.365
40550W        W12975  22.133  41.531  11.061
40551W        W12976  37.941   9.273   0.787
40552W        W12977   6.260  38.916   1.894
40553W        W12978  21.104  16.194   1.335
40554W        W12979   3.236  37.014  14.292
40555W        W12980  44.259  42.855   3.165
40556W        W12981  34.986  29.587  13.307
40557W        W12982  13.288  11.797  13.852
40558W        W12983  24.537  22.137   3.696
40559W        W12984  25.600  34.506  13.044
40560W        W12985   4.722  20.046  12.094
40561W        W12986  39.472  36.568  10.605
40562W        W12987   5.414   6.399  11.933
40563W        W12988  36.354   4.772  13.324
40564W        W12989  19.634  43.491   0.286
40565W        W12990  23.187  37.456   0.350
40566W        W12991  16.168  20.562   3.241
40567W        W12992   6.255  16.086  11.939
40568W        W12993  13.235  18.229  12.948
40569W        W12994   7.802  23.681  11.395
40570W        W12995  27.121  20.128  11.091
40571W        W12996   8.746  43.004  11.480
40572W        W12997  40.846  33.063  10.979
40573W        W12998  24.133   1.436   1.798
40574W        W12999  32.533  43.837  11.096
40575W        W13000  24.660   1.395  10.482
40576W        W13001  40.896   1.751   3.285
40577W        W13002   8.741  35.034   3.838
40578W        W13003   8.166   9.736   2.394
40579W        W13004  38.830  44.865  11.439
40580W        W13005  32.510   5.874  13.894
40581W        W13006  17.688  20.651  14.338
40582W        W13007  23.088   6.828   0.361
40583W        W13008  23.495   0.293   2.294
40584W        W13009   6.689   1.900  11.860
40585W        W13010  34.954  36.509   0.846
40586W        W13011  39.013  11.842  13.501
40587W        W13012  11.634  23.726   5.221
40588W        W13013  41.320  18.646  11.580
40589W        W13014  15.745   3.952  11.977
40590W        W13015  35.933  30.459   4.750
40591W        W13016  29.073   6.410  11.586
40592W        W13017   6.838   6.379  13.824
40593W        W13018  30.603   3.275  10.940
40594W        W13019   0.262  20.157  13.014
40595W        W13020  23.660  33.515   0.340
40596W        W13021  14.766  44.433  14.506
40597W        W13022  31.119  42.524   2.292
40598W        W13023  29.071  37.340   1.765
40599W        W13024  34.459  43.777  13.815
40600W        W13025  26.471  11.258  13.355
40601W        W13026  36.950  30.093  13.889
40602W        W13027  43.370   7.368  12.340
40603W        W13028  44.503   2.789  13.515
40604W        W13029  33.966  18.553   3.824
40605W        W13030   4.326  10.713   2.273
40606W        W13031  34.480   9.244  13.408
40607W        W13032  22.996  28.467   1.363
40608W        W13033   3.272   8.802  11.109
40609W        W13034   5.393  26.991   3.794
40610W        W13035  15.290   2.460  11.075
40611W        W13036  44.406  30.017   2.715
40612W        W13037  12.620  41.860  14.838
40613W        W13038  29.959   7.805   4.816
40614W        W13039  16.582  28.014   2.187
40615W        W13040  25.560  42.452   2.278
40616W        W13041  15.281  18.634  11.974
40617W        W13042  31.046  19.245  12.518
40618W        W13043  24.479  17.654   4.611
40619W        W13044   8.189  40.920  14.811
40620W        W13045  43.876  44.485  14.939
40621W        W13046   2.774  26.021   3.722
40622W        W13047  19.734   6.194  12.833
40623W        W13048  40.386  32.087  10.562
40624W        W13049  41.798  23.695  11.398
40625W        W13050  24.987   7.241  12.553
40626W        W13051  41.477  32.569  12.953
40627W        W13052  23.180  43.508  12.012
40628W        W13053   7.780  29.636   5.095
40629W        W13054   3.401  26.128  13.546
40630W        W13055  37.839   0.330  14.768
40631W        W13056  16.224  14.253   2.759
40632W        W13057  38.473  32.107   4.346
40633W        W13058  40.023  15.288   3.257
40634W        W13059  17.115  38.332   0.876
40635W        W13060  32.476  31.060   4.717
40636W        W13061  42.902  16.574   1.815
40637W        W13062  26.698   2.882   0.339
40638W        W13063  20.642  30.155  10.932
40639W        W13064  34.453   2.956  10.450
40640W        W13065   8.834  41.929   2.391
40641W        W13066  15.784  24.132   2.278
40642W        W13067  11.821   0.783  14.938
40643W        W13068  40.979   3.314   0.847
40644W        W13069  23.995  38.053   3.167
40645W        W13070  21.619  40.336  13.424
40646W        W13071  28.448   3.899   2.211
40647W        W13072   7.820  32.605   4.699
40648W        W13073   2.416  33.113  11.434
40649W        W13074  31.966  32.406   2.252
40650W        W13075  13.337  13.747   1.781
40651W        W13076  12.135  11.722  11.494
40652W        W13077  44.005  29.060   4.251
40653W        W13078   4.705  33.517  10.898
40654W        W13079   1.243  44.804  11.124
40655W        W13080  30.161  34.956   4.142
40656W        W13081  44.341   9.781  11.990
40657W        W13082  33.432  33.406  11.040
40658W        W13083  30.509  21.552   0.834
40659W        W13084  41.797  41.324  12.472
40660W        W13085  30.584  30.412   2.894
40661W        W13086  40.051  21.228  12.495
40662W        W13087   0.877   8.392  11.066
40663W        W13088  12.841  19.574   2.227
40664W        W13089  43.430   5.216  14.846
40665W        W13090  34.073   7.884  12.987
40666W        W13091  10.348  23.568  12.491
40667W        W13092  29.449  28.974   4.198
40668W        W13093  26.096  28.106  13.835
40669W        W13094  43.474  12.317  13.946
40670W        W13095  23.690   1.287  12.566
40671W        W13096  44.898  35.896  11.388
40672W        W13097  40.488   4.736   0.324
40673W        W13098   9.298  20.707   2.340
40674W        W13099  23.109  38.377  14.981
40675W        W13100  29.454  10.273   2.234
40676W        W13101  42.503  42.504   3.713
40677W        W13102  19.738  16.204   3.738
40678W        W13103  17.106  43.929   1.813
40679W        W13104  43.870  17.684   3.358
40680W        W13105  14.223  26.632   0.754
40681W        W13106  28.574  40.007   4.301
40682W        W13107  42.946  43.899  13.326
40683W        W13108  38.060  17.590  11.119
40684W        W13109  44.784  22.556   0.872
40685W        W13110  10.738  35.097   0.435
40686W        W13111  16.211  16.793  11.980
40687W        W13112  27.003  30.647  10.636
40688W        W13113  15.297   7.255   2.232
40689W        W13114   0.944   5.803   2.208
40690W        W13115  34.033  28.011  12.431
40691W        W13116  23.126  35.036   4.187
40692W        W13117   8.796  44.376   1.371
40693W        W13118   1.758  10.867   3.206
40694W        W13119  30.075  43.382   3.170
40695W        W13120  12.698  12.767  12.884
40696W        W13121  32.449   2.248  11.908
40697W        W13122  16.605  13.632   1.369
40698W        W13123  17.643  43.468  11.016
40699W        W13124  42.838  22.738   1.869
40700W        W13125  24.511  40.904   4.673
40701W        W13126  19.166  31.583  10.618
40702W        W13127  40.487  28.046   2.226
40703W        W13128  28.622   6.206  13.345
40704W        W13129  12.275   9.871   3.149
40705W        W13130   9.667  34.903  13.547
40706W        W13131  43.800  27.082   2.248
40707W        W13132  34.054   9.882   1.875
40708W        W13133  44.984  42.402   2.399
40709W        W13134  14.209   9.704  11.494
40710W        W13135  28.449  35.547   0.445
40711W        W13136  37.017   0.317   3.765
40712W        W13137  14.817   9.785  11.944
40713W        W13138   0.457  42.509   4.192
40714W        W13139   7.347   6.304   2.240
40715W        W13140  17.223  44.443  11.450
40716W        W13141  41.907  11.199   0.739
40717W        W13142   1.302  14.313  13.036
40718W        W13143   7.403  33.382   1.764
40719W        W13144  15.753  18.549  14.341
40720W        W13145  33.594   1.456   1.370
40721W        W13146   1.319   3.877   2.301
40722W        W13147  16.230  20.181  14.301
40723W        W13148  23.132  40.945  12.379
40724W        W13149  17.087   5.854   3.767
40725W        W13150   7.236  15.744  12.403
40726W        W13151  33.041  40.844  13.807
40727W        W13152  14.232  38.507   3.162
40728W        W13153  38.539  39.893   2.859
40729W        W13154  43.336  26.110   1.239
40730W        W13155  30.920  25.975  14.916
40731W        W13156  12.133   6.328  10.491
40732W        W13157  28.595   1.902  14.476
40733W        W13158  15.127  25.067   2.867
40734W        W13159  16.118  21.624  12.012
40735W        W13160  41.335  30.042   3.748
40736W        W13161  25.144  24.030  12.947
40737W        W13162  30.924  32.616  11.480
40738W        W13163  38.458   4.429   2.214
40739W        W13164  41.304   4.413   3.242
40740W        W13165   3.291  17.275   0.738
40741W        W13166  15.113  36.057  13.476
40742W        W13167  36.880  12.692  12.012
40743W        W13168  32.032  33.497   3.760
40744W        W13169   1.891   2.333   4.203
40745W        W13170  43.997  16.685  14.389
40746W        W13171  29.014  35.527   3.721
40747W        W13172  23.673  30.629   5.154
40748W        W13173  37.858   7.257  13.990
40749W        W13174  38.388  11.337  12.935
40750W        W13175  12.176   8.376  12.552
40751W        W13176  13.276  33.974  11.442
40752W        W13177  32.057   7.366   3.648
40753W        W13178  25.481  17.091   4.223
40754W        W13179  42.904  20.542   5.154
40755W        W13180   8.743  29.955  12.869
40756W        W13181  22.032  28.491   0.312
40757W        W13182  23.620   4.830   0.399
40758W        W13183   3.811  27.986  10.131
40759W        W13184  18.689  37.361  11.079
40760W        W13185   7.827  31.062  13.024
40761W        W13186   7.848  37.447  11.532
40762W        W13187   0.325  12.732  13.907
40763W        W13188  40.354  42.937  12.877
40764W        W13189  27.973  25.064   0.453
40765W        W13190  12.245  36.492   0.874
40766W        W13191  41.488  40.879  14.302
40767W        W13192  26.633   8.770   1.403
40768W        W13193   1.938  24.145  10.971
40769W        W13194  35.425   0.271   4.719
40770W        W13195  38.328   5.742   1.806
40771W        W13196   0.442  18.065   0.317
40772W        W13197  44.930   1.349   0.436
40773W        W13198  12.851  34.399   2.232
40774W        W13199  16.685   7.174   1.788
40775W        W13200   7.215  36.439   1.868
40776W        W13201  40.011   9.697  10.899
40777W        W13202   2.738  31.921   3.729
40778W        W13203  36.923  31.410   4.710
40779W        W13204  29.440  23.033   4.179
40780W        W13205   6.741  37.376  10.418
40781W        W13206  28.455  33.407   0.762
40782W        W13207   2.354   0.470   3.738
40783W        W13208  20.710  20.243  12.426
40784W        W13209  38.050  15.706  10.518
40785W        W13210  15.615  13.703   1.710
40786W        W13211  41.000  20.749  11.507
40787W        W13212  15.771  26.651   5.301
40788W        W13213  16.605  33.443   2.890
40789W        W13214  43.288  29.617  10.423
40790W        W13215   6.799  12.626   1.418
40791W        W13216  32.494  37.420  14.766
40792W        W13217  14.750   5.745  13.003
40793W        W13218  35.978  34.509  14.967
40794W        W13219  19.563  33.476  13.541
40795W        W13220  43.766  10.214  13.494
40796W        W13221   7.893  43.881   2.374
40797W        W13222  26.986  35.862   3.660
40798W        W13223  28.086  37.344   3.729
40799W        W13224  41.393  31.110  13.332
40800W        W13225   7.878   4.413  11.424
40801W        W13226  39.383  33.898  14.424
40802W        W13227   9.162   3.377  14.859
40803W        W13228   1.881  10.308   2.190
40804W        W13229   8.399   9.155  13.319
40805W        W13230  26.552  18.682   1.864
40806W        W13231  26.689   3.365   1.321
40807W        W13232  28.557  29.918   3.319
40808W        W13233  18.611  44.417   4.266
40809W        W13234  43.429  33.073   3.776
40810W        W13235  13.794   0.468   4.331
40811W        W13236  27.613  11.343   0.415
40812W        W13237  10.841   2.335  11.601
40813W        W13238  22.076  35.895  14.314
40814W        W13239  38.560  42.987  11.921
40815W        W13240  44.315  18.239   9.962
40816W        W13241  29.611  36.426   0.340
40817W        W13242  24.659  34.554  13.381
40818W        W13243  43.001   1.779  11.902
40819W        W13244   0.818  44.351  13.897
40820W        W13245  15.605  37.877   3.322
40821W        W13246  15.145   4.373  12.523
40822W        W13247   0.975   6.413   1.898
40823W        W13248  18.074  15.293  12.561
40824W        W13249  36.056  30.498   3.751
40825W        W13250  39.420  22.715  10.604
40826W        W13251   8.257  43.849  10.992
40827W        W13252  40.367  40.406  14.973
40828W        W13253  30.538  12.133   2.888
40829W        W13254  39.841   2.897  14.461
40830W        W13255  38.566  22.530  10.585
40831W        W13256  11.786  26.001  13.407
40832W        W13257  13.724  15.816  11.058
40833W        W13258  35.928  20.183   3.312
40834W        W13259  28.601  20.195   0.367
40835W        W13260   1.264  30.582   4.622
40836W        W13261  21.021  13.728  14.396
40837W        W13262   6.229  34.514   2.317
40838W        W13263  37.845  27.469   1.446
40839W        W13264  18.773  23.534  11.597
40840W        W13265   2.344  34.103  14.478
40841W        W13266  31.952   9.671   2.779
40842W        W13267  31.924  28.131  10.645
40843W        W13268  19.267   6.909   1.704
40844W        W13269  22.160  37.574  14.000
40845W        W13270  20.256  13.192   3.366
40846W        W13271  37.883   0.342  12.079
40847W        W13272   1.376   0.912  14.452
40848W        W13273  25.689  21.603   1.363
40849W        W13274   0.811  17.787   2.762
40850W        W13275  19.123   3.268   4.329
40851W        W13276  33.969   0.808  11.593
40852W        W13277   8.889  36.879   0.746
40853W        W13278   1.934  28.473   3.677
40854W        W13279  22.666  10.712  14.279
40855W        W13280  27.180   3.750   4.719
40856W        W13281  15.276   6.687   1.922
40857W        W13282  32.930  43.896  10.600
40858W        W13283   7.369  15.670   3.747
40859W        W13284   4.853  12.672  13.805
40860W        W13285  27.568   9.850   4.355
40861W        W13286  29.591  21.708  12.936
40862W        W13287  30.526   9.697   0.328
40863W        W13288  26.492  43.896   0.468
40864W        W13289  32.504   3.784  10.645
40865W        W13290  33.087  19.103  13.956
40866W        W13291  17.064  24.723   1.797
40867W        W13292  15.710   8.353   1.383
40868W        W13293  11.854  26.097  13.959
40869W        W13294  14.828  17.559   2.818
40870W        W13295   6.835  28.438   3.313
40871W        W13296   5.273  42.952  11.429
40872W        W13297   5.433  26.967  14.341
40873W        W13298  27.037   8.771   1.287
40874W        W13299   9.796  39.481   2.358
40875W        W13300  24.559  36.937  13.034
40876W        W13301  42.379  10.232  11.082
40877W        W13302  18.224  31.097  10.965
40878W        W13303  30.625   5.903  12.493
40879W        W13304   1.451  41.389   4.814
40880W        W13305  25.646  44.952   3.325
40881W        W13306  17.082  23.672   4.631
40882W        W13307  16.287  33.996   2.851
40883W        W13308   1.865  24.548  12.831
40884W        W13309  32.934   2.427  11.451
40885W        W13310  19.559  37.515   2.414
40886W        W13311  31.601   6.850   1.414
40887W        W13312  41.362  33.561  10.484
40888W        W13313  33.561  33.053  12.065
40889W        W13314  28.523   2.289   1.328
40890W        W13315  28.604   7.347  13.018
40891W        W13316  11.129  11.345   1.242
40892W        W13317   4.263  19.632   3.300
40893W        W13318  15.632  35.993   0.324
40894W        W13319   9.885  26.955  10.938
40895W        W13320  17.794  22.613  11.376
40896W        W13321   8.406  12.301  10.445
40897W        W13322  30.540  31.576  12.421
40898W        W13323  29.154  15.660  13.408
40899W        W13324  22.700   0.268   3.255
40900W        W13325  16.108  36.482  14.947
40901W        W13326  40.942  11.191   3.301
40902W        W13327  28.123  11.196  11.874
40903W        W13328  42.792  33.024  11.954
40904W        W13329  21.225  30.499  12.540
40905W        W13330  24.520  39.385   3.256
40906W        W13331   1.421  12.742   2.412
40907W        W13332  14.712   2.235  11.391
40908W        W13333  13.703   2.790   1.793
40909W        W13334  20.612  31.017  13.430
40910W        W13335   3.304  43.905  11.921
40911W        W13336  37.914   4.305   3.829
40912W        W13337  43.397  10.378  14.464
40913W        W13338  34.871  17.111   3.372
40914W        W13339  15.772   3.252   3.162
40915W        W13340  28.079  38.540   0.937
40916W        W13341  12.180  44.915  13.479
40917W        W13342   4.342   8.735  13.376
40918W        W13343   4.343  36.857  10.625
40919W        W13344  20.105  14.626   3.679
40920W        W13345  34.558  44.366  13.380
40921W        W13346  22.125  33.507  12.553
40922W        W13347   4.435  36.560   2.392
40923W        W13348  44.412  25.051   1.349
40924W        W13349  15.606  37.869   1.219
40925W        W13350  23.571  42.860   5.310
40926W        W13351   0.768  23.042   0.417
40927W        W13352  40.522  37.863  11.438
40928W        W13353  32.527  13.112   2.853
40929W        W13354   3.807   9.301   2.352
40930W        W13355   9.669  44.780   4.119
40931W        W13356  31.131  13.826  12.390
40932W        W13357  15.701  10.851   0.297
40933W        W13358  37.951  16.584   1.910
40934W        W13359  32.440  24.023   1.367
40935W        W13360   1.451  32.111  14.356
40936W        W13361   9.730  15.581   1.871
40937W        W13362  32.141  36.910  11.485
40938W        W13363  10.266  41.920   1.400
40939W        W13364   7.734  29.153  13.795
40940W        W13365   1.241  37.925  11.895
40941W        W13366  32.108  40.890   1.716
40942W        W13367  12.775  40.864   2.380
40943W        W13368  39.991  15.614  11.096
40944W        W13369  15.823  10.636  11.050
40945W        W13370  14.748   1.827  13.035
40946W        W13371  33.585  33.035   1.285
40947W        W13372  13.289   6.412   0.273
40948W        W13373  43.844  26.101  13.916
40949W        W13374   2.263   8.230  12.964
40950W        W13375  18.090  32.484  12.046
40951W        W13376  31.574  23.643   3.261
40952W        W13377  35.990   1.888   2.828
40953W        W13378  22.199  13.750  10.958
40954W        W13379  15.304  25.186  14.420
40955W        W13380  11.720   6.752  12.074
40956W        W13381  17.789  27.524   2.831
40957W        W13382   7.408   9.307  12.836
40958W        W13383   7.343  31.584  13.816
40959W        W13384   9.866   7.854   4.612
40960W        W13385   4.439  17.626   3.170
40961W        W13386  35.537  43.317   0.777
40962W        W13387  44.962  43.945  11.905
40963W        W13388  18.090  35.564  14.387
40964W        W13389   5.329  14.130   0.888
40965W        W13390  23.045  24.579   1.907
40966W        W13391   5.277  30.471  10.405
40967W        W13392   0.483  33.108   0.340
40968W        W13393   6.693  34.084  10.546
40969W        W13394  27.583  35.930   4.645
40970W        W13395  26.166  22.508  12.405
40971W        W13396   7.755  20.096  14.426
40972W        W13397  44.466   6.358  14.310
40973W        W13398  29.926  38.893  13.442
40974W        W13399   6.285  25.660   4.225
40975W        W13400  25.679  22.632   1.900
40976W        W13401  10.682  26.138  14.963
40977W        W13402  30.465  29.550  10.889
40978W        W13403  20.669  24.657  14.874
40979W        W13404   3.808   1.390   1.347
40980W        W13405  25.075  35.854  12.464
40981W        W13406  43.799   9.350   2.894
40982W        W13407  27.542   7.295  11.971
40983W        W13408  40.828  28.449  13.393
40984W        W13409  21.217   0.762   4.652
40985W        W13410  43.401   1.889   1.364
40986W        W13411  30.432  29.053  10.606
40987W        W13412   5.862  43.950   4.613
40988W        W13413   0.980  24.542   1.774
40989W        W13414   2.291  28.043  12.029
40990W        W13415  27.954  36.535   4.281
40991W        W13416  27.581  31.527   0.795
40992W        W13417  38.397  37.580   1.428
40993W        W13418  10.309   8.306   3.235
40994W        W13419  24.019  19.768  13.535
40995W        W13420   0.384  17.746   0.258
40996W        W13421  35.375  23.540   4.744
40997W        W13422   3.427  34.888  11.007
40998W        W13423  28.605  37.965   0.911
40999W        W13424  21.226  20.162  14.380
41000W        W13425  43.413  27.021  12.038
41001W        W13426  44.942  25.001   3.329
41002W        W13427  22.630   7.329   0.477
41003W        W13428   7.686  31.460   2.732
41004W        W13429  29.560  31.527  11.121
41005W        W13430  14.167  10.854  13.409
41006W        W13431  15.278  44.800   1.774
41007W        W13432  31.092   9.309  10.982
41008W        W13433  21.091  41.935  11.085
41009W        W13434  29.461   7.294  12.421
41010W        W13435  26.978  42.450  11.958
41011W        W13436   9.668  31.117   0.477
41012W        W13437  34.945  32.499  14.465
41013W        W13438   0.257  42.366   2.747
41014W        W13439  27.020  26.062   4.209
41015W        W13440   0.921  39.323  14.379
41016W        W13441  14.750  41.496   3.250
41017W        W13442  42.479   3.427   4.309
41018W        W13443   3.823   4.906   2.354
41019W        W13444  44.445  21.540  14.392
41020W        W13445  23.228  10.140   2.243
41021W        W13446  26.636  40.821  13.865
41022W        W13447  10.726   4.740   0.430
41023W        W13448  23.605  12.209  12.953
41024W        W13449  42.347   6.378  14.322
41025W        W13450  31.587  24.707   3.156
41026W        W13451  29.164  22.096  14.924
41027W        W13452   0.770  21.166  10.074
41028W        W13453  30.076  15.109  14.761
41029W        W13454  16.185  25.542  10.915
41030W        W13455  19.759  34.613  12.982
41031W        W13456  38.964  32.007   1.811
41032W        W13457  40.410   0.918   1.381
41033W        W13458  30.988   0.249   3.732
41034W        W13459   4.719  18.060   0.315
41035W        W13460  24.102  32.081  12.064
41036W        W13461  26.962  44.891  13.929
41037W        W13462  40.048  28.646   3.275
41038W        W13463  44.400  37.882   3.383
41039W        W13464  32.010  25.091  12.401
41040W        W13465  24.035  15.175   0.949
41041W        W13466  40.976  11.848   4.245
41042W        W13467   0.265  26.577  11.498
41043W        W13468  24.007  20.639  14.761
41044W        W13469  14.785  43.996  10.424
41045W        W13470  42.005   5.756  13.893
41046W        W13471   6.405  25.671  13.502
41047W        W13472  20.758   8.731  12.034
41048W        W13473   0.813  17.743   3.738
41049W        W13474   5.749   0.276   3.166
41050W        W13475  33.452  15.738  11.944
41051W        W13476  18.183  19.743   2.287
41052W        W13477  42.925  18.136   0.852
41053W        W13478  28.573  23.236  11.045
41054W        W13479  41.440  10.665   2.674
41055W        W13480  12.246  19.090   0.893
41056W        W13481   7.385  11.826  14.392
41057W        W13482  26.978  42.836   1.795
41058W        W13483  22.122  44.904   0.732
41059W        W13484  12.172  12.229   2.203
41060W        W13485  32.994   3.242  13.509
41061W        W13486  31.479  32.106   1.431
41062W        W13487  37.972   8.725  10.028
41063W        W13488  13.649   5.874  11.529
41064W        W13489  44.287   3.907   3.326
41065W        W13490  43.314  40.969  12.568
41066W        W13491  31.511   9.866   2.783
41067W        W13492  12.116  37.394   0.754
41068W        W13493   9.672  37.490  14.949
41069W        W13494  16.730   6.330  11.482
41070W        W13495  43.290  14.592   3.829
41071W        W13496  36.925  14.814  12.386
41072W        W13497  15.318  29.987  10.522
41073W        W13498  14.270   6.205  11.986
41074W        W13499  24.693  29.628   0.372
41075W        W13500  44.439  15.621   9.942
41076W        W13501  16.767  42.814  11.471
41077W        W13502  23.085  34.396   2.798
41078W        W13503   4.315   1.268  13.999
41079W        W13504  16.593  39.322   0.958
41080W        W13505  28.499  39.519   1.922
41081W        W13506   8.299  13.183   3.686
41082W        W13507  14.731  30.079  14.945
41083W        W13508  22.526  26.489  12.925
41084W        W13509  32.926   8.200   0.794
41085W        W13510  17.203  30.628   2.776
41086W        W13511  17.228  34.878  13.426
41087W        W13512  12.702  26.586   4.696
41088W        W13513  20.063  11.290   1.888
41089W        W13514  40.352   6.742  11.571
41090W        W13515  25.496  32.458   9.533
41091W        W13516  25.159  31.522  12.474
41092W        W13517   7.706  22.085   0.849
41093W        W13518  27.195  16.680   2.287
41094W        W13519  30.514  35.914   2.300
41095W        W13520  38.392   0.394  11.545
41096W        W13521  31.525  44.924   0.398
41097W        W13522  15.709  28.098   4.810
41098W        W13523  43.454   2.294   2.240
41099W        W13524  21.613  27.141   2.200
41100W        W13525  44.425  29.046  14.327
41101W        W13526  23.726  21.577   0.402
41102W        W13527  17.637  25.088   4.748
41103W        W13528   1.406  23.617  13.963
41104W        W13529  36.983  30.492  10.631
41105W        W13530  37.954  32.394  14.959
41106W        W13531   4.263  22.576   2.377
41107W        W13532  26.535  33.622  12.446
41108W        W13533  40.484   5.195   2.855
41109W        W13534  22.586  38.475  12.912
41110W        W13535  27.596   0.331   1.451
41111W        W13536  17.630  10.824   3.741
41112W        W13537  12.144  41.315  13.451
41113W        W13538  19.040  28.079   2.835
41114W        W13539   4.921   9.264   3.817
41115W        W13540  16.785  21.147   4.666
41116W        W13541  38.405  41.492   1.272
41117W        W13542   9.249  33.396  10.967
41118W        W13543   7.330  10.312  10.990
41119W        W13544   0.764  21.698   4.283
41120W        W13545  14.697   1.890  12.044
41121W        W13546  17.693  35.564   2.414
41122W        W13547   2.804  18.717   0.779
41123W        W13548  21.576  14.211  13.462
41124W        W13549  26.458  28.059  11.479
41125W        W13550   7.830  20.622  13.878
41126W        W13551  22.131   4.427  10.418
41127W        W13552  32.946  15.745  13.925
41128W        W13553  34.556   1.264   2.759
41129W        W13554  17.151  32.937   2.304
41130W        W13555  38.435  25.476  10.576
41131W        W13556  16.201  32.612  11.887
41132W        W13557  39.519  40.875  13.309
41133W        W13558  40.369   2.951   2.385
41134W        W13559  34.390  35.420   4.831
41135W        W13560  39.452   0.756   4.135
41136W        W13561  32.120  32.525   2.869
41137W        W13562  40.357   7.256  10.413
41138W        W13563  19.277   0.746   2.198
41139W        W13564  18.751  42.023   4.300
41140W        W13565  21.218  11.254  10.543
41141W        W13566  13.191  14.113   4.788
41142W        W13567  20.273   1.336  14.792
41143W        W13568  29.037  10.713  11.921
41144W        W13569  14.747  34.482  13.887
41145W        W13570  14.722  31.632   2.740
41146W        W13571  17.265  14.321  13.968
41147W        W13572  12.640  32.481   0.320
41148W        W13573  13.284   6.382  14.788
41149W        W13574   9.868  25.527   2.711
41150W        W13575  20.662  17.207  12.931
41151W        W13576  33.975  33.123   2.274
41152W        W13577  11.822  24.018  12.517
41153W        W13578  30.947  31.422   0.937
41154W        W13579   4.371   6.184  12.004
41155W        W13580  26.201   1.281   1.855
41156W        W13581  31.589   4.856  11.051
41157W        W13582  42.372  23.068  10.046
41158W        W13583  37.385   5.724   2.742
41159W        W13584  29.109  42.370  12.422
41160W        W13585  13.349  23.725  11.571
41161W        W13586   9.359  11.812  14.013
41162W        W13587  29.479  42.817  11.587
41163W        W13588  19.072  17.653   1.272
41164W        W13589   0.876  24.192   4.605
41165W        W13590   3.881  42.337  13.405
41166W        W13591  43.830  40.051   4.672
41167W        W13592  42.888   3.260  14.429
41168W        W13593  37.868   0.914  11.883
41169W        W13594   2.962  23.606   4.353
41170W        W13595  23.600   4.353  12.533
41171W        W13596   5.362  31.002   3.378
41172W        W13597  19.122  23.675   1.335
41173W        W13598  36.884  22.618  13.884
41174W        W13599  39.500  20.689   0.460
41175W        W13600  20.267   2.335   1.227
41176W        W13601   4.887  18.152   4.635
41177W        W13602  13.680  20.544  12.038
41178W        W13603  23.203   1.750   0.389
41179W        W13604  12.630  25.213  14.301
41180W        W13605  31.005  37.556  10.484
41181W        W13606  22.219  21.549  14.443
41182W        W13607  44.486  27.176  12.506
41183W        W13608   6.817  17.265  12.463
41184W        W13609   1.326  24.523   1.446
41185W        W13610  35.404  27.168  11.460
41186W        W13611  17.802  31.573  10.609
41187W        W13612  39.929  34.553   0.398
41188W        W13613  33.076   2.927   0.877
41189W        W13614  10.150  41.908  14.481
41190W        W13615  12.641  22.078   9.674
41191W        W13616  17.189  25.053  10.944
41192W        W13617  15.669  15.714  11.888
41193W        W13618  30.996  37.526   3.187
41194W        W13619  34.547  19.752   2.718
41195W        W13620   1.854  30.471   1.427
41196W        W13621  19.266  22.247   2.229
41197W        W13622  25.143  41.919  11.014
41198W        W13623  33.615  18.217   1.421
41199W        W13624   8.800  42.410   1.229
41200W        W13625  22.019  20.596  14.817
41201W        W13626  13.752  40.006   4.197
41202W        W13627  44.011  21.598   2.719
41203W        W13628   8.848  14.191  10.606
41204W        W13629  12.162  31.113  13.374
41205W        W13630   1.441   1.272  14.472
41206W        W13631  31.072  40.316   9.530
41207W        W13632  36.037  36.531  13.930
41208W        W13633  28.036  16.188  10.526
41209W        W13634  37.978  17.307  14.312
41210W        W13635  28.972  21.714  13.539
41211W        W13636  42.962  22.707   5.114
41212W        W13637   8.285   1.888   2.419
41213W        W13638  38.975  22.235  10.627
41214W        W13639   3.906  13.766   1.913
41215W        W13640  41.446   4.865   0.479
41216W        W13641  39.002   4.761  10.538
41217W        W13642   7.714  37.984   4.313
41218W        W13643  38.988  22.560  14.833
41219W        W13644  17.590  41.001   3.708
41220W        W13645   1.853  17.649   4.739
41221W        W13646  39.811  31.608  12.980
41222W        W13647  41.418   5.825  12.977
41223W        W13648  25.636  10.231  14.846
41224W        W13649   6.719   2.317   0.349
41225W        W13650  23.647  40.865   1.855
41226W        W13651  31.145  38.856  14.026
41227W        W13652  43.484  20.231   2.370
41228W        W13653  20.695  29.070   3.274
41229W        W13654  35.575   3.299   0.796
41230W        W13655   8.656  41.879   1.322
41231W        W13656   8.813  20.035   2.808
41232W        W13657  29.432  35.100  11.406
41233W        W13658  29.151   5.215   2.360
41234W        W13659   8.383   3.298   3.868
41235W        W13660  35.086  15.640   1.919
41236W        W13661  19.664  43.466   4.126
41237W        W13662  11.206  22.541  11.389
41238W        W13663  18.751  39.933  11.094
41239W        W13664  38.061   4.353   3.343
41240W        W13665   4.258  25.679  13.328
41241W        W13666   9.206   3.827  14.469
41242W        W13667   6.752  43.374   4.711
41243W        W13668  43.945  23.505  12.018
41244W        W13669  24.651  33.430   4.679
41245W        W13670  12.167  24.636  13.973
41246W        W13671  21.128  33.036   1.416
41247W        W13672  13.186  20.654   0.355
41248W        W13673  34.980   3.809   1.423
41249W        W13674  30.615  10.175   1.882
41250W        W13675  32.070  19.613  14.331
41251W        W13676  29.637  14.295  10.088
41252W        W13677  44.301  36.092   3.243
41253W        W13678  26.040  35.108  12.501
41254W        W13679  33.108  42.289   3.705
41255W        W13680  22.560  42.853   0.387
41256W        W13681  10.822  21.678  12.888
41257W        W13682  31.614  32.404   4.291
41258W        W13683   4.416   6.212   2.661
41259W        W13684  26.562  16.698  14.844
41260W        W13685   3.943  26.577  14.918
41261W        W13686  13.115  15.276  11.112
41262W        W13687  41.392  34.051   0.815
41263W        W13688   6.256  36.572   1.703
41264W        W13689  28.973  37.520   0.923
41265W        W13690  20.129  24.047   1.286
41266W        W13691  10.840  14.211  10.521
41267W        W13692  32.096   1.481  13.852
41268W        W13693  41.334  42.798  14.391
41269W        W13694  33.522  17.579  11.446
41270W        W13695   7.744  38.510  12.427
41271W        W13696  34.420  40.019   0.433
41272W        W13697   7.885   3.429   0.356
41273W        W13698  39.361  23.164   3.157
41274W        W13699  39.363  34.598  12.837
41275W        W13700  25.553   7.802  14.774
41276W        W13701  42.930  10.837  13.489
41277W        W13702  44.327  19.064   3.275
41278W        W13703  15.188  10.643   3.659
41279W        W13704   5.868  39.370  10.576
41280W        W13705  22.713   9.674   4.784
41281W        W13706   6.225   1.871   0.446
41282W        W13707  31.096  44.005  14.398
41283W        W13708   7.213  17.210  13.870
41284W        W13709  35.878   5.792  12.977
41285W        W13710   2.399  43.911   3.659
41286W        W13711   9.775  37.510   0.296
41287W        W13712  33.608  12.638  10.480
41288W        W13713  26.583  42.402  13.829
41289W        W13714  27.965  27.591  11.563
41290W        W13715  31.636  39.931   0.470
41291W        W13716  24.574   2.362  13.969
41292W        W13717  33.949  42.999  10.609
41293W        W13718  24.710   3.775  12.066
41294W        W13719   0.454  16.605  10.557
41295W        W13720  16.240  25.083   4.254
41296W        W13721  23.233  11.319   2.294
41297W        W13722  37.087  22.178  11.466
41298W        W13723   5.828  21.539   0.425
41299W        W13724  39.971  24.618   4.296
41300W        W13725  22.651  29.554  12.911
41301W        W13726   4.449  25.618   4.327
41302W        W13727  29.432  44.340   4.642
41303W        W13728  12.679  39.314  13.866
41304W        W13729  34.069  42.947  12.493
41305W        W13730  10.788  18.662   4.797
41306W        W13731  35.990  34.074   1.418
41307W        W13732  25.081  19.534   4.299
41308W        W13733   3.234  21.084   5.255
41309W        W13734  15.258  28.451  14.841
41310W        W13735  29.931  42.445   1.293
41311W        W13736  40.882   6.419   4.313
41312W        W13737  26.539   7.372   4.349
41313W        W13738  34.550  30.606   0.743
41314W        W13739  35.408   2.327   3.739
41315W        W13740   0.914  11.782  11.464
41316W        W13741  25.568   1.735   0.349
41317W        W13742  37.361   0.336  14.468
41318W        W13743  12.248  32.424  12.382
41319W        W13744   5.749  40.907   2.873
41320W        W13745  34.949  40.049  14.488
41321W        W13746  35.372  34.952  11.887
41322W        W13747  11.285  24.496  13.474
41323W        W13748  32.589   3.891  12.052
41324W        W13749   2.739   1.352   1.376
41325W        W13750  12.299   1.733   5.116
41326W        W13751  15.610  20.549  12.001
41327W        W13752  35.370  11.644   4.225
41328W        W13753   1.963  42.895   4.713
41329W        W13754  19.197  33.901   4.349
41330W        W13755  35.933  20.545   4.235
41331W        W13756  40.029  31.006   2.354
41332W        W13757  18.589  38.907   4.698
41333W        W13758  25.051  12.224   4.273
41334W        W13759  18.287  25.125  12.941
41335W        W13760   9.209  11.314  12.934
41336W        W13761  44.878  28.120  10.992
41337W        W13762  27.598  33.885   0.305
41338W        W13763  27.106  33.479  10.563
41339W        W13764  14.711  23.988   3.264
41340W        W13765  24.198  40.813   1.809
41341W        W13766  15.621  14.168   1.839
41342W        W13767  24.117  16.569   2.322
41343W        W13768  11.723  11.828   2.308
41344W        W13769  16.646  11.787  10.958
41345W        W13770   6.395  15.088  13.449
41346W        W13771  33.958  13.146  12.944
41347W        W13772  44.011   6.290   3.820
41348W        W13773  32.113   4.721  13.432
41349W        W13774   7.701  41.036  12.070
41350W        W13775  32.486  14.757  11.446
41351W        W13776  40.521  16.191   4.145
41352W        W13777  41.394  22.214  10.023
41353W        W13778  44.979  40.014  12.501
41354W        W13779  18.295  41.398   3.650
41355W        W13780   0.962  39.970  10.525
41356W        W13781  35.434  11.266   0.308
41357W        W13782  18.636  35.056   3.381
41358W        W13783  44.365  35.058  10.529
41359W        W13784  37.832  40.864  13.822
41360W        W13785  10.811  13.321  13.980
41361W        W13786  10.146  25.601  13.913
41362W        W13787  27.580  32.480   1.835
41363W        W13788  36.370  33.622   2.357
41364W        W13789  18.081  30.102   4.625
41365W        W13790  21.556  34.882   3.216
41366W        W13791  24.617  43.775  11.000
41367W        W13792  38.954  32.054   3.673
41368W        W13793  37.969   6.859  12.488
41369W        W13794  31.022  41.015  10.057
41370W        W13795   3.274  32.962   3.795
41371W        W13796  35.107  22.210  12.080
41372W        W13797   9.760  13.263   1.710
41373W        W13798  29.107  18.167  14.022
41374W        W13799   1.970   7.702  14.374
41375W        W13800   2.927  41.524   4.721
41376W        W13801  10.262   0.883   1.368
41377W        W13802  24.180   7.264   4.159
41378W        W13803  12.355  14.787  14.976
41379W        W13804   9.165  16.736   4.665
41380W        W13805  43.496  13.797  14.514
41381W        W13806  19.616  39.043  12.503
41382W        W13807  14.804   2.371   3.701
41383W        W13808   7.786  35.033   2.895
41384W        W13809   7.725  26.473  12.380
41385W        W13810  12.314  34.057   1.877
41386W        W13811  18.275   7.770   2.867
41387W        W13812  23.535  39.536  13.027
41388W        W13813  39.029  18.075   3.325
41389W        W13814   2.351  31.477  11.932
41390W        W13815   1.762  18.662  14.417
41391W        W13816  44.408  18.776  11.432
41392W        W13817  43.466   6.796  10.640
41393W        W13818  39.048  44.414  10.891
41394W        W13819  15.130  21.555   0.349
41395W        W13820   8.263  16.787  11.918
41396W        W13821  38.925  12.123  13.986
41397W        W13822  32.898  20.092   2.409
41398W        W13823  17.303  22.201   1.311
41399W        W13824  31.012  14.804   1.356
41400W        W13825  11.718   8.405   2.743
41401W        W13826  18.149  22.028   4.276
41402W        W13827  22.631   0.849   3.823
41403W        W13828  20.733  14.654   0.797
41404W        W13829  30.000  31.992   1.250
41405W        W13830  42.467  17.677   1.694
41406W        W13831  14.773  38.502   0.403
41407W        W13832  34.603  30.650  13.872
41408W        W13833  33.417  27.473   1.407
41409W        W13834  36.547   3.260  13.886
41410W        W13835  13.123  38.830   3.314
41411W        W13836  41.307  18.629  13.856
41412W        W13837   2.270  36.495  11.524
41413W        W13838   3.752   6.755  10.945
41414W        W13839  28.518   9.754  13.337
41415W        W13840  13.156  44.839   0.447
41416W        W13841  15.231  37.511   2.769
41417W        W13842  15.822  42.803  14.499
41418W        W13843  17.713   9.843  13.312
41419W        W13844   0.308  35.965   2.883
41420W        W13845  43.978  24.114  13.314
41421W        W13846  35.952  26.020  14.339
41422W        W13847   1.809  39.351  14.489
41423W        W13848  21.148  27.980   0.452
41424W        W13849   2.724  31.952   3.286
41425W        W13850  25.669  22.020   4.213
41426W        W13851  21.687  12.115  13.524
41427W        W13852  34.900  30.452   9.924
41428W        W13853  12.620  13.234   1.355
41429W        W13854  41.983  11.300   0.324
41430W        W13855  43.951  29.573   3.666
41431W        W13856   5.376  26.634  13.964
41432W        W13857  43.781  29.997  10.979
41433W        W13858  31.994  27.527   1.932
41434W        W13859  27.688  21.038  13.355
41435W        W13860   4.217   9.235   0.939
41436W        W13861   3.289  28.496  12.917
41437W        W13862  18.148   0.761   1.833
41438W        W13863  14.149  19.176  14.952
41439W        W13864   3.877  19.150  13.903
41440W        W13865  28.169  22.553   1.227
41441W        W13866  40.009   1.918   3.742
41442W        W13867  19.162   3.817   3.667
41443W        W13868   9.367  39.912   3.673
41444W        W13869  13.193  24.511  14.279
41445W        W13870  21.091  40.940  11.947
41446W        W13871  20.214  18.602  12.500
41447W        W13872  44.997  44.346  14.439
41448W        W13873  21.033  12.305   1.869
41449W        W13874  26.700  17.717  12.857
41450W        W13875  36.082  39.472   2.691
41451W        W13876  31.031   6.735   2.305
41452W        W13877  25.045   0.379   4.138
41453W        W13878  27.153  32.471  14.803
41454W        W13879   7.294   8.235  12.364
41455W        W13880   8.672  37.044   4.178
41456W        W13881  16.174  22.099   0.759
41457W        W13882  31.584  12.615   4.613
41458W        W13883   1.387  20.690   3.631
41459W        W13884  16.635  40.906  12.849
41460W        W13885  14.781  37.832  13.318
41461W        W13886  24.531   1.461   1.859
41462W        W13887  19.703  11.305   1.899
41463W        W13888   2.929  34.524  14.813
41464W        W13889  14.718   1.396  12.486
41465W        W13890  43.391  18.083   4.815
41466W        W13891  14.205  18.690  10.515
41467W        W13892  41.790   8.387  14.367
41468W        W13893  12.710  33.080   1.784
41469W        W13894  34.987  39.356   2.884
41470W        W13895   8.365  13.106  12.442
41471W        W13896  10.219  21.657   0.883
41472W        W13897  43.949  39.424  14.424
41473W        W13898  10.734  31.544  10.570
41474W        W13899   6.877   9.238  10.921
41475W        W13900  40.514  20.075   0.430
41476W        W13901  14.761  29.499  14.813
41477W        W13902  27.054   7.397   1.447
41478W        W13903   3.819  19.595  13.973
41479W        W13904  31.428  21.572  13.396
41480W        W13905  31.510  22.731   0.264
41481W        W13906  28.067  23.558   2.193
41482W        W13907  44.425   9.270  13.415
41483W        W13908  18.721  40.970   1.918
41484W        W13909  23.727  31.011   4.644
41485W        W13910  23.541  44.360   3.247
41486W        W13911  12.780  17.176   1.728
41487W        W13912  42.840  36.374  11.902
41488W        W13913  24.173  20.167   3.763
41489W        W13914  22.706   2.730  13.532
41490W        W13915   0.252  17.778   2.294
41491W        W13916  37.933  18.559   3.322
41492W        W13917  42.961  25.601   1.867
41493W        W13918  29.475   4.923   2.296
41494W        W13919   3.258  28.469   4.831
41495W        W13920  35.380  17.728  14.512
41496W        W13921  27.984  43.440   4.656
41497W        W13922  20.266  25.113  12.886
41498W        W13923  24.063  33.030  12.086
41499W        W13924   0.842  27.641   1.924
41500W        W13925  18.726  38.881  12.030
41501W        W13926  44.873  33.389   3.232
41502W        W13927  18.223  39.546  13.957
41503W        W13928  33.501  12.254   1.340
41504W        W13929   1.478  33.479   9.623
41505W        W13930   5.294  12.214   0.303
41506W        W13931  43.979   5.921   4.244
41507W        W13932  44.962   3.864   4.261
41508W        W13933  31.603  39.048  12.958
41509W        W13934  37.006  19.170   1.430
41510W        W13935  31.961  31.067  14.293
41511W        W13936  38.820   3.848  14.309
41512W        W13937  24.049  13.154   2.730
41513W        W13938  26.176   2.264  13.884
41514W        W13939  12.303  12.699   3.299
41515W        W13940  24.218  17.206   0.303
41516W        W13941   1.834  25.102   2.830
41517W        W13942  40.312  43.777   2.757
41518W        W13943   3.375   6.278   0.747
41519W        W13944  21.538  23.136  13.430
41520W        W13945  35.926  39.385  11.969
41521W        W13946  21.611   8.323   3.641
41522W        W13947  10.680  11.238   4.803
41523W        W13948  12.242  33.560   3.169
41524W        W13949  28.961  12.652   3.728
41525W        W13950  11.304  44.857   0.298
41526W        W13951   8.681  36.948  11.482
41527W        W13952  33.077  35.358   3.755
41528W        W13953   3.751  21.513  13.798
41529W        W13954  32.586   8.817  10.405
41530W        W13955  31.425   5.312   2.374
41531W        W13956  39.421  30.455   3.708
41532W        W13957  20.238  13.791  13.371
41533W        W13958   8.685  15.728   0.948
41534W        W13959  32.473   6.730  13.351
41535W        W13960  14.598  28.121   9.965
41536W        W13961  38.825  21.249   1.417
41537W        W13962  24.526   2.900   2.820
41538W        W13963   6.378  30.149  11.550
41539W        W13964   4.935  12.679   4.128
41540W        W13965  42.330  18.703   3.368
41541W        W13966  41.040  41.801  12.974
41542W        W13967  34.377   9.659   0.808
41543W        W13968  44.953   2.833   4.790
41544W        W13969  32.603  38.563  13.332
41545W        W13970  43.375  39.989   0.834
41546W        W13971   1.944  23.991   0.854
41547W        W13972  36.558  10.658   3.782
41548W        W13973  18.157  30.043  12.553
41549W        W13974  37.432  27.611  10.431
41550W        W13975   7.876  40.427   4.617
41551W        W13976  21.052  17.662  14.504
41552W        W13977  11.776   1.960   4.733
41553W        W13978  12.300  11.752   2.795
41554W        W13979  32.044  41.987   0.382
41555W        W13980  24.090  13.656   0.415
41556W        W13981  29.551  35.062  10.411
41557W        W13982  29.481  29.663  14.392
41558W        W13983  14.127  26.075   2.807
41559W        W13984  30.482   2.248   3.361
41560W        W13985  28.013   4.869  13.458
41561W        W13986  38.975  42.950   1.279
41562W        W13987  38.897  26.958   2.733
41563W        W13988   0.393   2.298   3.345
41564W        W13989  37.475  35.101  14.495
41565W        W13990  35.856  19.535  11.093
41566W        W13991  10.748  23.993   5.246
41567W        W13992  12.750   4.235   3.629
41568W        W13993   1.402  36.874   4.661
41569W        W13994  40.872  10.292  10.439
41570W        W13995  14.332  11.675   1.822
41571W        W13996  25.480   9.349  13.539
41572W        W13997  28.034  24.567   0.289
41573W        W13998  24.142  36.464  10.424
41574W        W13999  12.800  19.063   1.763
41575W        W14000   1.813   1.333   2.844
41576W        W14001  36.885  35.975  13.856
41577W        W14002  19.121  35.032  13.973
41578W        W14003   5.241  29.015  13.465
41579W        W14004  10.756   8.708   2.348
41580W        W14005  18.710   3.272  13.821
41581W        W14006  39.872   5.764  14.004
41582W        W14007  42.463   2.787   3.371
41583W        W14008  35.503  40.425  11.454
41584W        W14009  23.499  26.558   5.246
41585W        W14010  30.610  25.051   4.711
41586W        W14011  37.056   4.702  10.524
41587W        W14012  43.370  44.307  14.788
41588W        W14013   8.208  37.079   2.224
41589W        W14014   5.843  10.869  14.311
41590W        W14015  16.617  39.019  14.781
41591W        W14016  40.858  16.731  13.323
41592W        W14017  15.250  13.112  14.331
41593W        W14018  15.303  30.573   4.183
41594W        W14019  38.867  43.792   4.209
41595W        W14020  44.272  19.256  12.516
41596W        W14021  39.409  38.919   2.888
41597W        W14022   8.764   7.352  10.545
41598W        W14023  42.013  44.365  14.947
41599W        W14024  25.576  26.080  12.356
41600W        W14025  30.017  20.531  11.535
41601W        W14026   4.907  43.340  11.864
41602W        W14027  33.583  20.629  14.921
41603W        W14028  12.212  41.443   3.174
41604W        W14029  33.912  16.757  14.458
41605W        W14030  26.156   6.386  12.970
41606W        W14031  25.200  28.503   2.842
41607W        W14032  17.170   1.799   5.238
41608W        W14033   2.865  15.789  12.363
41609W        W14034  18.659  44.366   0.443
41610W        W14035  20.655  22.018   0.947
41611W        W14036  13.680  10.680  13.432
41612W        W14037   5.219  18.695   1.428
41613W        W14038  14.728   7.781  14.946
41614W        W14039  41.318  35.979   3.236
41615W        W14040  28.549  33.584  12.546
41616W        W14041  34.550   5.343  10.411
41617W        W14042   4.397  34.511   2.186
41618W        W14043  38.388  21.197   9.928
41619W        W14044  32.981  13.626   0.350
41620W        W14045  30.064  17.800   4.251
41621W        W14046  16.693   0.933   2.755
41622W        W14047   9.152  31.116   0.929
41623W        W14048  23.497  41.908   4.235
41624W        W14049   7.861  24.011   3.364
41625W        W14050  32.622  19.190   1.823
41626W        W14051  28.169   0.342   3.790
41627W        W14052  10.857  25.687   0.477
41628W        W14053  30.516  38.456   0.345
41629W        W14054  29.092  11.685   1.213
41630W        W14055  41.902  28.100   1.857
41631W        W14056  27.539  35.877   4.324
41632W        W14057   4.277  19.751   0.876
41633W        W14058   5.303  23.623   0.963
41634W        W14059  20.570  43.832   0.948
41635W        W14060  19.589  34.971   0.843
41636W        W14061  10.192  42.284  12.027
41637W        W14062  27.500  37.356  11.861
41638W        W14063   6.414  31.643   0.327
41639W        W14064  43.510   0.942  14.934
41640W        W14065   0.831   3.868  12.850
41641W        W14066   6.279  20.642   3.220
41642W        W14067  14.797  24.487  10.497
41643W        W14068  17.235  38.058   0.260
41644W        W14069  21.023  41.313  11.902
41645W        W14070  42.387  21.116  14.339
41646W        W14071  16.243  32.592   1.898
41647W        W14072   0.383  29.921   2.709
41648W        W14073   5.352   9.161  14.377
41649W        W14074  44.893  15.188   3.280
41650W        W14075   1.833  16.130   2.807
41651W        W14076  25.043  13.624  13.925
41652W        W14077  15.094   8.694   2.838
41653W        W14078  36.403   7.328   2.327
41654W        W14079  21.656  38.516  10.951
41655W        W14080   7.236   1.314   4.170
41656W        W14081  38.520  21.126   0.313
41657W        W14082  26.021  18.678  14.285
41658W        W14083   9.209  35.373  11.041
41659W        W14084  20.745  10.271  12.932
41660W        W14085  20.606  31.457   4.218
41661W        W14086   1.901  19.243  12.427
41662W        W14087   5.742  10.176  14.961
41663W        W14088  19.266  31.009   3.859
41664W        W14089   5.436  34.556  10.416
41665W        W14090  10.221  42.977  14.284
41666W        W14091   5.767  10.304  14.341
41667W        W14092  37.582  37.018  12.552
41668W        W14093  11.847  28.575  14.283
41669W        W14094  39.979  36.519  13.832
41670W        W14095   0.363  39.488   3.275
41671W        W14096  21.107  36.362  10.573
41672W        W14097  25.658   8.766  13.378
41673W        W14098  37.883   2.468  14.997
41674W        W14099   2.273   6.896  13.332
41675W        W14100   2.868  36.491  13.429
41676W        W14101  20.525  32.950   0.262
41677W        W14102   8.353  22.706   0.327
41678W        W14103  35.911   8.663  11.525
41679W        W14104  30.051  36.982   3.859
41680W        W14105  27.108   6.378  12.005
41681W        W14106  24.131   7.878  12.993
41682W        W14107  18.689  18.687  14.870
41683W        W14108  13.758  39.844   0.329
41684W        W14109  41.362  16.622   0.847
41685W        W14110   6.326  22.220  11.025
41686W        W14111   4.371  40.856   0.478
41687W        W14112  28.646  29.580  11.555
41688W        W14113  26.524   2.232  12.491
41689W        W14114  43.501  21.205   4.301
41690W        W14115  20.270  43.925  13.971
41691W        W14116  11.182  28.636  11.963
41692W        W14117  26.139  21.574   0.247
41693W        W14118  42.411   6.279  13.371
41694W        W14119  16.162  21.173  11.862
41695W        W14120  11.209  39.970   0.382
41696W        W14121  25.022  12.270  11.481
41697W        W14122  26.129   0.410   3.711
41698W        W14123  35.502  17.627  10.490
41699W        W14124  15.093  10.287   3.769
41700W        W14125  21.256  44.995   2.273
41701W        W14126  41.840  30.526   2.689
41702W        W14127   5.688   3.255   0.863
41703W        W14128  25.120  18.584  12.474
41704W        W14129  35.896  12.140  12.016
41705W        W14130  32.920  34.914  15.000
41706W        W14131   1.971  16.310  12.824
41707W        W14132  24.630  44.330  10.944
41708W        W14133  12.655  13.649   3.195
41709W        W14134   9.390  12.286   3.723
41710W        W14135  28.548   1.808  14.874
41711W        W14136   2.943   7.265   2.256
41712W        W14137  23.621  32.936   3.710
41713W        W14138  24.542  24.542   3.351
41714W        W14139  34.021  39.039   0.360
41715W        W14140  40.005   9.280   1.817
41716W        W14141   0.946  34.107  14.995
41717W        W14142  34.518  40.461   2.864
41718W        W14143  19.605  29.623  11.922
41719W        W14144  17.567  15.805   3.753
41720W        W14145  24.532  16.673  13.881
41721W        W14146  30.610  33.515  14.495
41722W        W14147  23.565  33.522  10.560
41723W        W14148   9.664   8.693  14.412
41724W        W14149  37.019   1.914   4.298
41725W        W14150  24.167   1.271   0.830
41726W        W14151  16.217  15.130  11.903
41727W        W14152  29.954  22.668  13.802
41728W        W14153  31.640  40.804   5.739
41729W        W14154   1.290  41.348  12.473
41730W        W14155  14.280  13.253   5.184
41731W        W14156  38.400  32.419  14.370
41732W        W14157  27.587  33.527   1.841
41733W        W14158  37.865  36.964   4.628
41734W        W14159  29.456  39.872   4.297
41735W        W14160  15.683  14.247   0.754
41736W        W14161  44.813   1.761  14.829
41737W        W14162  22.025  41.500  11.550
41738W        W14163  29.612  20.154   0.253
41739W        W14164  30.972   1.855  11.580
41740W        W14165  18.646  21.648   1.370
41741W        W14166  37.568  42.921  10.428
41742W        W14167  11.744  25.014   5.088
41743W        W14168  13.633  19.066   4.766
41744W        W14169  37.566   6.791  13.340
41745W        W14170   5.289   7.384   3.824
41746W        W14171   1.333   5.755   4.700
41747W        W14172  12.714  36.089  13.439
41748W        W14173  40.029  43.516  11.919
41749W        W14174  40.885  31.069   4.258
41750W        W14175   9.701  25.588   1.416
41751W        W14176  37.987  20.149  12.424
41752W        W14177  38.416  15.586  10.605
41753W        W14178  19.678  19.250  14.333
41754W        W14179   1.833  18.150  14.416
41755W        W14180  28.166   6.865  13.918
41756W        W14181  32.462  22.172  11.959
41757W        W14182   8.676  24.502  14.896
41758W        W14183   1.456  43.016  13.315
41759W        W14184  15.214  34.443  11.863
41760W        W14185  23.066  28.476   0.259
41761W        W14186  23.561  32.515  12.986
41762W        W14187   1.381  43.779  11.516
41763W        W14188  41.919   2.341   1.831
41764W        W14189  28.618  35.075  13.922
41765W        W14190  22.712  23.666   2.242
41766W        W14191  31.014  25.021   4.183
41767W        W14192   8.315  36.358  11.433
41768W        W14193  44.801  36.518  12.906
41769W        W14194   3.871   2.335   4.196
41770W        W14195  19.759   6.251  10.520
41771W        W14196  16.105  33.463  14.958
41772W        W14197  23.075  18.078  14.492
41773W        W14198  16.810   6.331  13.422
41774W        W14199  13.212  22.529   2.757
41775W        W14200  44.268  42.408  11.892
41776W        W14201  30.925   2.959  11.518
41777W        W14202  36.040   0.385   0.842
41778W        W14203  43.910   4.760  14.437
41779W        W14204  34.543  27.171  14.329
41780W        W14205  36.043  23.219   4.201
41781W        W14206  12.782  28.005  13.490
41782W        W14207  36.016  42.021   0.314
41783W        W14208   0.482  43.428   1.380
41784W        W14209  11.854  39.924   0.293
41785W        W14210  34.897   4.259  11.096
41786W        W14211  19.178  21.048  12.828
41787W        W14212  32.482  30.645   5.151
41788W        W14213  39.463  13.279  12.377
41789W        W14214  39.877  38.072  11.540
41790W        W14215  10.230  42.871   0.441
41791W        W14216  18.188  35.556   1.881
41792W        W14217  22.251  35.568   3.758
41793W        W14218  20.655   0.481  13.454
41794W        W14219   5.244  33.481   2.209
41795W        W14220  14.180  24.701   1.396
41796W        W14221  30.985  42.341   3.259
41797W        W14222  19.125   4.913   0.849
41798W        W14223  41.868  36.539  12.412
41799W        W14224  40.910  22.214   5.249
41800W        W14225  33.966  41.525   1.281
41801W        W14226  39.997   4.386   0.306
41802W        W14227  23.152  33.095  11.863
41803W        W14228  31.464   7.357  14.894
41804W        W14229  41.494   5.248   0.289
41805W        W14230  12.695  15.148  14.891
41806W        W14231  38.018  16.776  11.058
41807W        W14232  33.983  36.088  13.528
41808W        W14233  17.134  40.403  12.577
41809W        W14234  22.605  15.192   4.161
41810W        W14235   7.828  40.508  11.451
41811W        W14236  28.010   3.322  14.780
41812W        W14237  36.591  38.553  11.476
41813W        W14238   6.734  17.571   0.859
41814W        W14239  32.079   7.862   4.191
41815W        W14240  39.863  37.371  10.621
41816W        W14241   0.959  18.149  10.505
41817W        W14242  39.533  25.117  14.375
41818W        W14243  31.599  38.888  13.843
41819W        W14244   7.703  10.250  12.980
41820W        W14245  21.558  37.078  13.920
41821W        W14246   5.716  12.342   2.328
41822W        W14247  30.113  16.595   4.243
41823W        W14248  20.038  33.114   0.728
41824W        W14249  32.977  17.206   1.334
41825W        W14250   9.159  37.922  14.350
41826W        W14251  19.637  36.057  14.418
41827W        W14252  35.007  11.748   0.781
41828W        W14253  32.464  36.391   0.782
41829W        W14254  38.967  30.551  12.869
41830W        W14255  28.036  20.582   3.668
41831W        W14256   5.349   8.395  13.011
41832W        W14257  15.793  36.515  14.823
41833W        W14258  34.092  26.687  13.053
41834W        W14259  35.386  33.917   2.196
41835W        W14260   9.381  13.793   1.795
41836W        W14261   3.357  26.528   5.220
41837W        W14262  44.819  40.963  11.002
41838W        W14263  22.104   3.841   4.743
41839W        W14264   5.348  26.480  10.484
41840W        W14265  40.028  19.257   3.285
41841W        W14266   0.444  32.890   3.672
41842W        W14267  20.761  26.090  13.009
41843W        W14268  40.831  28.105  14.335
41844W        W14269  18.195  33.045   4.813
41845W        W14270  32.139  17.102  13.004
41846W        W14271  18.144  44.441  13.951
41847W        W14272  17.212  29.996   4.664
41848W        W14273   2.384  14.776  12.972
41849W        W14274  18.246   3.377  11.881
41850W        W14275  27.521  34.945   1.800
41851W        W14276  41.831  26.143  10.580
41852W        W14277  14.795  39.058  13.003
41853W        W14278  20.236   3.828  10.535
41854W        W14279   5.347   8.860  10.626
41855W        W14280  39.522  42.831  12.860
41856W        W14281  24.649  21.716   0.962
41857W        W14282   0.478  20.213   0.823
41858W        W14283  41.827  40.369   2.799
41859W        W14284  40.451  13.630  14.870
41860W        W14285  14.306  43.870   3.306
41861W        W14286  20.544   5.801  12.505
41862W        W14287   7.251  38.915   2.713
41863W        W14288   4.320  19.223   3.171
41864W        W14289  10.788  31.140  11.401
41865W        W14290  25.552  34.962   4.237
41866W        W14291  31.135  21.152  11.074
41867W        W14292  44.893  11.846   2.374
41868W        W14293  31.594  13.177   0.865
41869W        W14294  27.161  22.110  11.042
41870W        W14295  26.111  39.482   2.316
41871W        W14296  44.868  21.520  12.466
41872W        W14297  18.676   7.181  13.847
41873W        W14298   3.730  19.255   1.363
41874W        W14299  30.045  34.536   0.458
41875W        W14300  15.106  19.217   4.351
41876W        W14301   2.292   2.409  14.828
41877W        W14302   0.934  42.802   4.198
41878W        W14303  13.307  36.013   4.821
41879W        W14304  27.630  26.956   1.275
41880W        W14305  43.986  11.721   4.682
41881W        W14306  41.326  39.840  11.102
41882W        W14307  28.149  31.035   1.851
41883W        W14308  29.486  40.972   2.718
41884W        W14309  28.621  19.110  14.369
41885W        W14310  32.934   0.472  11.482
41886W        W14311  25.004  17.713   4.291
41887W        W14312  29.637  14.304  14.950
41888W        W14313  22.119  10.331  11.471
41889W        W14314  13.136  22.159  14.336
41890W        W14315   6.336  39.034  11.480
41891W        W14316   9.881  13.612   4.754
41892W        W14317  26.516  32.059   5.643
41893W        W14318  22.030  21.109   1.322
41894W        W14319   8.830  37.453  14.920
41895W        W14320   4.236  39.392   3.738
41896W        W14321   7.191  37.893   3.211
41897W        W14322  24.086  13.335   0.400
41898W        W14323  25.564  20.587   4.353
41899W        W14324  23.198   3.391   1.431
41900W        W14325  44.369  23.534  14.861
41901W        W14326  10.778  12.791  13.792
41902W        W14327  23.005  24.205  13.826
41903W        W14328  32.117  39.875  13.525
41904W        W14329  18.297  11.173   3.638
41905W        W14330  37.064  33.052  14.424
41906W        W14331  31.097  15.800  13.458
41907W        W14332   8.258   1.423   3.320
41908W        W14333   7.757  22.592   2.794
41909W        W14334  30.576  39.876   1.380
41910W        W14335   7.230  38.981   1.930
41911W        W14336  15.241  10.710  12.515
41912W        W14337   2.328  12.852  13.416
41913W        W14338  41.040  18.678  13.328
41914W        W14339  30.967  10.177  14.419
41915W        W14340   2.948  32.050  14.481
41916W        W14341  25.964  40.808   4.211
41917W        W14342  34.893  32.053   1.275
41918W        W14343  16.288  32.980   3.826
41919W        W14344   3.239  24.649   2.331
41920W        W14345  14.124  10.378  14.419
41921W        W14346  41.982  13.699  12.883
41922W        W14347   7.231  13.320  11.583
41923W        W14348  21.712   4.360  10.427
41924W        W14349  15.281   5.403  12.350
41925W        W14350  43.474  11.629   4.798
41926W        W14351   0.956  28.567  14.858
41927W        W14352  34.986  20.600   2.288
41928W        W14353  10.337  40.804  13.523
41929W        W14354   6.249   5.335  14.842
41930W        W14355  21.035   4.895  14.408
41931W        W14356  24.087  14.137  11.489
41932W        W14357  20.566   3.387  10.992
41933W        W14358  37.989  14.208  12.907
41934W        W14359   3.767  18.674   2.887
41935W        W14360  13.701   8.804  11.100
41936W        W14361  10.769  16.314   0.399
41937W        W14362  20.755  30.155  13.040
41938W        W14363  32.618  39.973  10.941
41939W        W14364  40.840  35.912   4.609
41940W        W14365  35.896   6.699   0.913
41941W        W14366  20.638  14.775   3.722
41942W        W14367  14.305  26.613   5.140
41943W        W14368   3.867  20.537  11.407
41944W        W14369  32.950  40.400  14.315
41945W        W14370   1.433  40.525   4.643
41946W        W14371  11.276   9.875  12.023
41947W        W14372  22.518   3.401  11.964
41948W        W14373  35.468  30.087  10.531
41949W        W14374  34.507   3.343  14.991
41950W        W14375   1.900  33.040  12.846
41951W        W14376  29.439   1.942  14.821
41952W        W14377  21.551  39.544  10.579
41953W        W14378   1.267   7.866   0.411
41954W        W14379  41.323  14.744   1.281
41955W        W14380  39.940   8.178   1.880
41956W        W14381  23.989  33.040   3.147
41957W        W14382  25.536  33.424  12.355
41958W        W14383  29.018  20.582   2.779
41959W        W14384  19.689  23.548   2.753
41960W        W14385   0.364  11.218   4.194
41961W        W14386  13.680   0.463  10.618
41962W        W14387  40.498   5.403  10.523
41963W        W14388  31.614  28.492   1.866
41964W        W14389  37.449   1.794  13.889
41965W        W14390  15.791   2.961   3.165
41966W        W14391  14.737   2.768   3.260
41967W        W14392   5.386  42.443   4.836
41968W        W14393  40.524  22.211  11.373
41969W        W14394  40.317  19.657   5.100
41970W        W14395   4.763  43.895   3.307
41971W        W14396   1.470  11.658   1.722
41972W        W14397   8.330  19.257  11.887
41973W        W14398   7.772  31.005   1.826
41974W        W14399  31.425  28.649   4.273
41975W        W14400  35.952  26.146  13.987
41976W        W14401   4.803  20.100   2.370
41977W        W14402   3.777   7.339   0.333
41978W        W14403  42.476   6.757  11.484
41979W        W14404  16.314   8.718   2.279
41980W        W14405  37.564  20.059  10.899
41981W        W14406  23.025  25.075  12.454
41982W        W14407  34.595   6.397  11.497
41983W        W14408   0.884  14.198  14.347
41984W        W14409   2.383  28.468  12.534
41985W        W14410  20.686  26.189  10.637
41986W        W14411  12.285  28.451   4.242
41987W        W14412  30.463  19.758  14.451
41988W        W14413   0.274  15.617   2.839
41989W        W14414  25.640   2.312  11.066
41990W        W14415  34.598   9.731  10.575
41991W        W14416  15.594  34.934   4.137
41992W        W14417  40.885  39.479   0.911
41993W        W14418   9.332  13.287   0.357
41994W        W14419   7.717  36.418   1.375
41995W        W14420   5.711  39.044  12.353
41996W        W14421  42.873  42.827   9.920
41997W        W14422   4.933   9.213  12.839
41998W        W14423  39.997  36.418   0.825
41999W        W14424  15.086  40.814   1.904
42000W        W14425  11.785  10.243   4.113
42001W        W14426  35.095  22.741  12.908
42002W        W14427  36.039  17.797   1.426
42003W        W14428   9.763  26.159  14.445
42004W        W14429  41.347  25.631  13.440
42005W        W14430   3.336   5.193   2.256
42006W        W14431  10.310  18.727  10.421
42007W        W14432  12.250  26.670   4.311
42008W        W14433  26.678  35.558  12.400
42009W        W14434  21.751  11.192  10.067
42010W        W14435  38.832  40.859  14.509
42011W        W14436  13.784  39.388  13.349
42012W        W14437  11.707  35.366  12.506
42013W        W14438  31.904  39.453   4.680
42014W        W14439  41.805  30.448   9.966
42015W        W14440  29.056   1.343   1.798
42016W        W14441  30.474  27.492   0.924
42017W        W14442  37.508   0.412   4.802
42018W        W14443  34.376   8.343  10.118
42019W        W14444   5.331   7.831   4.231
42020W        W14445  39.339  42.926   2.779
42021W        W14446   4.304  40.329   0.794
42022W        W14447  22.508  31.017   0.429
42023W        W14448  29.921  15.284  12.924
42024W        W14449  18.732  25.154  14.910
42025W        W14450   6.339  41.940   0.735
42026W        W14451  24.094  23.000   1.349
42027W        W14452  29.555   5.368  12.533
42028W        W14453  13.740  22.087   4.161
42029W        W14454  33.043  39.882  12.484
42030W        W14455  27.947  27.103   1.703
42031W        W14456  10.660  36.988  13.843
42032W        W14457  31.914  41.957  14.480
42033W        W14458  38.939  27.146  12.565
42034W        W14459  14.693  36.487  13.308
42035W        W14460  36.912  22.556  10.972
42036W        W14461  35.523  41.947   1.786
42037W        W14462  15.588  14.306   2.766
42038W        W14463  25.581  14.185   3.262
42039W        W14464  41.861  17.634   0.912
42040W        W14465  19.691  31.111   4.833
42041W        W14466  34.089  35.541  10.480
42042W        W14467  20.657  27.055  10.588
42043W        W14468   3.883  15.752  12.075
42044W        W14469   1.752  24.519  11.931
42045W        W14470  37.365  43.803   2.877
42046W        W14471  28.063  22.549   4.265
42047W        W14472   4.238  10.874   4.204
42048W        W14473  19.240  37.959  13.377
42049W        W14474  44.283  30.426  14.836
42050W        W14475  20.132  29.533   3.794
42051W        W14476   1.457  20.173   1.818
42052W        W14477  44.294  32.992   4.702
42053W        W14478  27.553   8.859  10.539
42054W        W14479   2.957  22.015   2.859
42055W        W14480  38.515  25.644   4.709
42056W        W14481  22.703  42.941  12.073
42057W        W14482   0.919  40.842   3.737
42058W        W14483  18.773  37.835  11.863
42059W        W14484  11.674  16.807  14.507
42060W        W14485  40.494  33.596  10.602
42061W        W14486   0.830  37.381  12.485
42062W        W14487  15.170  36.863   1.785
42063W        W14488  41.431  38.341   0.924
42064W        W14489  10.744  34.595  10.907
42065W        W14490  24.489   9.816  11.903
42066W        W14491  26.978  24.973  11.589
42067W        W14492  22.501   0.284  11.584
42068W        W14493   4.343  19.255  14.970
42069W        W14494  26.630  17.176  12.526
42070W        W14495  44.403  13.763  11.522
42071W        W14496  33.962  32.408  14.451
42072W        W14497  40.852   7.209   0.408
42073W        W14498  13.733   3.709   5.573
42074W        W14499  34.932  32.944  14.769
42075W        W14500  19.045   8.730   1.269
42076W        W14501  30.627  11.790  11.557
42077W        W14502  40.805   3.792   4.278
42078W        W14503  10.865  33.470   1.787
42079W        W14504  17.719  22.126   3.698
42080W        W14505  17.207  15.185   2.893
42081W        W14506  33.478  27.060  14.764
42082W        W14507  37.904  17.268   1.359
42083W        W14508  31.623  39.946   1.372
42084W        W14509  28.183  40.548   2.402
42085W        W14510   4.325  28.558   3.303
42086W        W14511   2.387  20.581  13.924
42087W        W14512  31.505  30.969   4.116
42088W        W14513  15.717  28.441   3.783
42089W        W14514   3.379  25.631   2.870
42090W        W14515  22.621  39.484   0.839
42091W        W14516  12.227  30.555   3.329
42092W        W14517  32.093  22.135   3.349
42093W        W14518  25.110  29.138   3.300
42094W        W14519  39.848  23.518  11.538
42095W        W14520  44.407  37.994  14.292
42096W        W14521   4.826  27.591  10.452
42097W        W14522  16.098  15.202   0.388
42098W        W14523  36.043   8.695  14.338
42099W        W14524  22.239  12.330   5.694
42100W        W14525  24.655  11.693  11.390
42101W        W14526  10.759  30.015  12.058
42102W        W14527  17.233  20.725  14.293
42103W        W14528  10.713  29.111   3.264
42104W        W14529  22.715   4.357   4.296
42105W        W14530  23.146  34.052   4.681
42106W        W14531   8.269  39.014  12.006
42107W        W14532  29.542   1.970  13.464
42108W        W14533  11.705  20.224   2.417
42109W        W14534  20.592  20.541  10.996
42110W        W14535  10.650  22.739   2.196
42111W        W14536  25.974  21.740   2.215
42112W        W14537  31.131  39.884  11.891
42113W        W14538  20.648  13.625   3.367
42114W        W14539  19.220  40.986   0.481
42115W        W14540   2.472  12.130  13.052
42116W        W14541   9.774  40.482   0.835
42117W        W14542  26.569  21.173  12.398
42118W        W14543  34.608  23.020   4.604
42119W        W14544  22.212  37.349   5.150
42120W        W14545  15.806  13.640   0.392
42121W        W14546  22.065  14.720   3.190
42122W        W14547   9.652  11.836   4.246
42123W        W14548   0.763   2.455   4.160
42124W        W14549  35.513  23.033   1.407
42125W        W14550  26.956  41.477   2.349
42126W        W14551   5.411  12.151   2.266
42127W        W14552  13.670  23.219   3.285
42128W        W14553  28.013  44.386   3.368
42129W        W14554   1.961  34.895  14.401
42130W        W14555   4.331   3.265   4.129
42131W        W14556   1.870   8.161  11.979
42132W        W14557  31.572  38.909   3.164
42133W        W14558  11.210  13.298   1.723
42134W        W14559  34.380  38.821   2.317
42135W        W14560  13.233  14.280  12.900
42136W        W14561   2.833   5.741  11.100
42137W        W14562  38.922  18.769  10.925
42138W        W14563  16.283  20.599   1.907
42139W        W14564  40.435   7.218  12.917
42140W        W14565   9.164  28.495  11.400
42141W        W14566  29.638   8.667   2.670
42142W        W14567  11.644  34.553  12.050
42143W        W14568   7.875  29.129   1.416
42144W        W14569   2.262   7.820  11.584
42145W        W14570   2.814  34.089   3.785
42146W        W14571  17.090   1.810   4.263
42147W        W14572  36.009  38.057  10.492
42148W        W14573  12.138   3.827   4.658
42149W        W14574   3.383  33.062  11.609
42150W        W14575  27.198  24.499  11.930
42151W        W14576   0.912   0.936   5.321
42152W        W14577  27.653  11.187   2.770
42153W        W14578  16.095  18.726  13.342
42154W        W14579  32.982  27.141   3.357
42155W        W14580  33.485  11.735   0.741
42156W        W14581  18.193  19.098   2.246
42157W        W14582  37.564  29.052   3.824
42158W        W14583  34.980   2.868   2.205
42159W        W14584  14.743  10.370  14.839
42160W        W14585  40.412  31.116  14.932
42161W        W14586  36.366  30.027   3.736
42162W        W14587  38.830  10.281  12.870
42163W        W14588  18.720  42.781   5.166
42164W        W14589   6.394  37.553   1.846
42165W        W14590  42.988   0.403  10.629
42166W        W14591  15.688  42.871  12.016
42167W        W14592   7.343  10.658  10.622
42168W        W14593   4.221  16.630  12.986
42169W        W14594   5.436  24.058   4.676
42170W        W14595  26.509   0.469  13.973
42171W        W14596  11.722   7.841   0.766
42172W        W14597  15.801   4.425   4.342
42173W        W14598   7.302  24.571  13.504
42174W        W14599  34.879  44.467   2.294
42175W        W14600   2.722  25.178   0.915
42176W        W14601   3.404  24.617  14.763
42177W        W14602  20.263  36.091  10.434
42178W        W14603  26.584  21.719  14.793
42179W        W14604  24.133  41.297  11.875
42180W        W14605  36.031  35.522  14.880
42181W        W14606   7.364  11.643   4.709
42182W        W14607  24.170  11.836  11.498
42183W        W14608   3.341   6.684  12.977
42184W        W14609  36.504  25.096  14.920
42185W        W14610  16.213  40.866   0.942
42186W        W14611  15.178  35.051  10.073
42187W        W14612  25.041   8.803  11.971
42188W        W14613  19.132  34.504   4.673
42189W        W14614  14.751  25.180  10.468
42190W        W14615  41.344  27.150  13.423
42191W        W14616   8.266  20.719   0.875
42192W        W14617   0.782  37.015  12.928
42193W        W14618   8.208   9.266   1.252
42194W        W14619  42.913   3.802  14.823
42195W        W14620   2.935  17.122  14.381
42196W        W14621  24.552  14.311  10.923
42197W        W14622  10.329  43.861   4.138
42198W        W14623  27.075  39.818   0.405
42199W        W14624  43.910   0.440  12.354
42200W        W14625   7.878  21.694  12.068
42201W        W14626  10.166  26.075   4.608
42202W        W14627  38.059  42.433  11.905
42203W        W14628  17.734  18.587  11.094
42204W        W14629  37.863  13.604  10.554
42205W        W14630  21.238  14.826   2.901
42206W        W14631  19.665   4.785   5.091
42207W        W14632  15.714  43.014  12.359
42208W        W14633  42.326  22.700  14.894
42209W        W14634  39.062  26.523  10.454
42210W        W14635   1.313  34.528  14.928
42211W        W14636  36.063  19.135  13.006
42212W        W14637  40.003   7.366   0.335
42213W        W14638  18.102  31.117   2.810
42214W        W14639  11.142  43.481   2.205
42215W        W14640  16.312  13.340  13.536
42216W        W14641  29.992  12.686   2.346
42217W        W14642  39.038  35.507  11.984
42218W        W14643  13.801  18.791  13.478
42219W        W14644  31.552  39.535   1.810
42220W        W14645  19.559  18.132  14.436
42221W        W14646  18.225  36.417  11.987
42222W        W14647  44.328  29.581  10.576
42223W        W14648  13.713  38.499   2.715
42224W        W14649  29.131  27.087  12.492
42225W        W14650  40.470  11.749   2.406
42226W        W14651  35.881  22.572  13.858
42227W        W14652  21.517  12.257  13.859
42228W        W14653  38.914  10.795  13.818
42229W        W14654  35.039   6.234  10.019
42230W        W14655  11.777   5.849  13.973
42231W        W14656  40.382   0.483   1.357
42232W        W14657  17.574  39.025  13.406
42233W        W14658  39.436  44.284   1.375
42234W        W14659  32.940  36.544  11.032
42235W        W14660   1.255   2.255   4.340
42236W        W14661  44.871  10.670   0.855
42237W        W14662  11.237  23.600  13.514
42238W        W14663  24.213  33.009  14.771
42239W        W14664  29.058  12.280   1.349
42240W        W14665  21.222  25.065  10.490
42241W        W14666   9.762   5.889   1.371
42242W        W14667  44.332  13.725   4.353
42243W        W14668  25.556  28.680   1.223
42244W        W14669   5.293  14.752  12.039
42245W        W14670   0.903  34.955   2.238
42246W        W14671  33.458   4.928   4.807
42247W        W14672  13.310  41.943  13.366
42248W        W14673  36.936  29.999   0.905
42249W        W14674  12.779  24.037   1.447
42250W        W14675  28.998  33.023   4.344
42251W        W14676   7.797  15.588   4.599
42252W        W14677  36.477   7.676  12.407
42253W        W14678  22.125  40.888   0.900
42254W        W14679  44.931   5.933  13.844
42255W        W14680  22.122  35.566  13.999
42256W        W14681  32.500  11.129  12.487
42257W        W14682  35.919  10.298  11.039
42258W        W14683  24.707  13.717   0.422
42259W        W14684  24.095  23.114  14.449
42260W        W14685  10.164  29.038   0.465
42261W        W14686   2.355  10.677   0.335
42262W        W14687  42.282  37.922   2.308
42263W        W14688   3.272   3.391   2.680
42264W        W14689  26.699  39.022   0.402
42265W        W14690   8.695  37.963   5.280
42266W        W14691  37.342  37.481   2.329
42267W        W14692  36.913   7.318  12.377
42268W        W14693   8.844  43.907   0.839
42269W        W14694  13.671   4.355   5.171
42270W        W14695  11.315  31.944  11.598
42271W        W14696   5.401  15.184  11.536
42272W        W14697  16.810   6.828   0.781
42273W        W14698  19.264  19.126   2.359
42274W        W14699  37.405  20.221   0.275
42275W        W14700  27.470  42.904   1.933
42276W        W14701  11.127  19.658   0.829
42277W        W14702  15.286   5.747   3.718
42278W        W14703  17.226  31.000  11.532
42279W        W14704  20.709  23.064  11.860
42280W        W14705  26.964  33.503  12.411
42281W        W14706  25.018  26.670   4.828
42282W        W14707  36.938   8.196  11.894
42283W        W14708  24.096  16.770  11.965
42284W        W14709  35.927  21.109   3.844
42285W        W14710   4.728  29.529  11.916
42286W        W14711  23.019  31.088   4.837
42287W        W14712  31.928  33.593  12.448
42288W        W14713   8.196   1.349   0.343
42289W        W14714  30.981  23.665   1.362
42290W        W14715   5.317   7.787   2.730
42291W        W14716  42.969  14.680  12.854
42292W        W14717  31.963  39.537   0.813
42293W        W14718  10.288  37.539  10.451
42294W        W14719  25.637  13.129   2.242
42295W        W14720  16.568  34.074  12.568
42296W        W14721  13.715   0.486  12.483
42297W        W14722   4.930  22.152   3.855
42298W        W14723  18.553  17.771  12.922
42299W        W14724  37.519   8.181  13.816
42300W        W14725  31.078  29.965   4.761
42301W        W14726  27.992  44.333   3.836
42302W        W14727  25.042  20.082   2.404
42303W        W14728  21.161  37.939  14.794
42304W        W14729  21.558  27.991  14.847
42305W        W14730  42.976  41.521   2.690
42306W        W14731  38.056   3.258   3.273
42307W        W14732   6.689   8.758   3.651
42308W        W14733  24.579  30.912  12.543
42309W        W14734  12.803  41.921   3.293
42310W        W14735  19.624  39.812   0.754
42311W        W14736   8.678  25.992   3.716
42312W        W14737   7.706  20.695   2.779
42313W        W14738  22.008   9.687   3.358
42314W        W14739   6.415   6.839  13.033
42315W        W14740  42.020  25.135   2.697
42316W        W14741  33.432   5.875   4.182
42317W        W14742   1.240  13.111   3.314
42318W        W14743  24.132  32.620  12.563
42319W        W14744  15.271   3.355  12.386
42320W        W14745  23.223  30.569  14.444
42321W        W14746  16.268   6.724  10.928
42322W        W14747  18.264  29.454  14.504
42323W        W14748  38.025  27.121  13.061
42324W        W14749  32.467  25.710  11.982
42325W        W14750  29.103  23.992   4.342
42326W        W14751   6.348   9.328  11.110
42327W        W14752  10.227  15.716   0.352
42328W        W14753  35.458   6.347   0.403
42329W        W14754  37.423  34.443   3.355
42330W        W14755  20.702  33.887   3.817
42331W        W14756  38.036  29.429   3.755
42332W        W14757  36.067   3.380   2.293
42333W        W14758  12.240  43.342  12.936
42334W        W14759  11.152  14.145  11.604
42335W        W14760  41.458  29.554  10.543
42336W        W14761  24.630   3.809  12.428
42337W        W14762   3.272  30.547  10.636
42338W        W14763  41.446  12.176  13.931
42339W        W14764  31.544  35.032  11.582
42340W        W14765   7.694  25.470   3.806
42341W        W14766  37.476  42.792   2.756
42342W        W14767  13.697  18.724  11.468
42343W        W14768   2.288  29.440   2.839
42344W        W14769  20.112  14.287   4.136
42345W        W14770  23.132  10.750  10.982
42346W        W14771  17.599  37.961  10.581
42347W        W14772  33.442  33.575   1.264
42348W        W14773  15.170  25.139   0.812
42349W        W14774  23.228   0.312  10.927
42350W        W14775  40.318  21.211   0.863
42351W        W14776  42.800  24.032  12.902
42352W        W14777  36.383  27.067   3.235
42353W        W14778  36.427  39.367   0.469
42354W        W14779  25.640  14.299   4.336
42355W        W14780   3.760   4.701   3.154
42356W        W14781   6.893  23.159   3.343
42357W        W14782  37.476  16.576   4.257
42358W        W14783  19.611   9.771  14.959
42359W        W14784  12.799  25.597  14.387
42360W        W14785  34.095   9.659   2.736
42361W        W14786   9.688  23.602  13.959
42362W        W14787  36.050  15.223   3.330
42363W        W14788  16.731  13.629  10.995
42364W        W14789   6.407  36.592  11.451
42365W        W14790  37.041  41.975  13.805
42366W        W14791  12.814   2.876  11.124
42367W        W14792  13.335  27.193  13.372
42368W        W14793  20.233  18.271   4.619
42369W        W14794   1.354  31.475   2.753
42370W        W14795  10.167  17.564  12.872
42371W        W14796  17.079   5.208  11.015
42372W        W14797   5.321  44.432  12.362
42373W        W14798  28.587  25.129   3.863
42374W        W14799   0.451  14.802  12.896
42375W        W14800  17.296  19.585  10.141
42376W        W14801  26.017  17.072  13.382
42377W        W14802  44.805  19.150  12.958
42378W        W14803   8.724   9.764   0.893
42379W        W14804   5.338  19.612   1.404
42380W        W14805  43.474   4.843   2.719
42381W        W14806  11.744   2.926   2.300
42382W        W14807   2.453   1.958  13.516
42383W        W14808  14.252  35.026   1.737
42384W        W14809  38.819  18.275  10.628
42385W        W14810  29.541  29.092  10.924
42386W        W14811   8.268  14.763   1.281
42387W        W14812  17.286  38.893   0.813
42388W        W14813   5.818  35.451  13.049
42389W        W14814  33.994  40.940  11.913
42390W        W14815  36.567  39.012   2.767
42391W        W14816  44.469   4.863   2.664
42392W        W14817  34.985  40.343  14.432
42393W        W14818  16.624  27.050  10.457
42394W        W14819  35.895  27.618  13.438
42395W        W14820  13.630   2.340   0.948
42396W        W14821   4.722  35.949   0.362
42397W        W14822  37.020  27.555  11.479
42398W        W14823  21.749  24.655  10.617
42399W        W14824  13.284  22.137   3.340
42400W        W14825  41.014  10.633  11.431
42401W        W14826  20.598  17.228  14.917
42402W        W14827  24.606  39.002   1.241
42403W        W14828  35.852   3.376  12.949
42404W        W14829  25.537  21.697  14.931
42405W        W14830  14.774   4.830  11.878
42406W        W14831   5.813  29.488   4.235
42407W        W14832   3.261  11.758  14.025
42408W        W14833  37.965  36.349  10.550
42409W        W14834  14.274  35.873  13.021
42410W        W14835  38.454  19.091  14.290
42411W        W14836   3.346  16.570   3.669
42412W        W14837  38.069  37.905   4.789
42413W        W14838  19.106  11.216   4.744
42414W        W14839  44.983   7.700  13.838
42415W        W14840  11.298  26.081  11.915
42416W        W14841  16.674   8.829  13.060
42417W        W14842  16.132  13.763  13.846
42418W        W14843   1.762  26.012  12.055
42419W        W14844   9.664   0.364   3.856
42420W        W14845   1.876  43.900  13.539
42421W        W14846  41.818   0.284  14.845
42422W        W14847  40.027  42.455  13.308
42423W        W14848  13.156  22.040   2.683
42424W        W14849  18.628  44.764   3.241
42425W        W14850  16.314  23.646  10.508
42426W        W14851   2.260   5.740   3.152
42427W        W14852  12.250  35.869  13.999
42428W        W14853  35.887  32.584  11.091
42429W        W14854   2.255   8.733  11.917
42430W        W14855  26.158   1.797  14.765
42431W        W14856  28.157  36.024   2.353
42432W        W14857  36.862   9.676   1.342
42433W        W14858  10.737   6.753  10.908
42434W        W14859   0.757  35.032   4.208
42435W        W14860   8.279  27.488  10.892
42436W        W14861  40.466   1.411  14.408
42437W        W14862  30.036  22.033  13.376
42438W        W14863  13.305  12.209  14.025
42439W        W14864  23.558  40.897   4.691
42440W        W14865  14.330  10.164   9.948
42441W        W14866  28.154  19.613  10.105
42442W        W14867  34.445   2.254   2.889
42443W        W14868  20.217   2.873   3.735
42444W        W14869   0.815  39.900  12.028
42445W        W14870   9.658  26.179   0.948
42446W        W14871  39.960  16.129  12.862
42447W        W14872  28.001   0.360  14.354
42448W        W14873   6.752  31.084   1.228
42449W        W14874  43.512  12.741  11.557
42450W        W14875  22.007  19.662   3.332
42451W        W14876  35.965  14.329  11.009
42452W        W14877   6.361   0.974   5.258
42453W        W14878   8.281  14.656   3.350
42454W        W14879  24.607  20.739   0.312
42455W        W14880  24.142   6.308  14.969
42456W        W14881  23.573  43.498   1.282
42457W        W14882   4.416  40.975  12.355
42458W        W14883  31.986  18.564   4.235
42459W        W14884  11.294  40.412  12.860
42460W        W14885   0.312  38.480   2.284
42461W        W14886  37.955   3.369   4.725
42462W        W14887  34.380  19.640  14.415
42463W        W14888   8.688  37.392   2.271
42464W        W14889  43.921  28.551  14.945
42465W        W14890  28.679   9.880  13.796
42466W        W14891   2.239  12.732  10.939
42467W        W14892   1.458   6.913   3.292
42468W        W14893   8.838   2.953   0.479
42469W        W14894   9.712  26.039   3.275
42470W        W14895  30.153  11.640   2.280
42471W        W14896   2.747  40.324  10.455
42472W        W14897  11.299  41.388  11.109
42473W        W14898  18.187   3.827  12.567
42474W        W14899  22.649  29.442   4.207
42475W        W14900  27.679   6.851  13.333
42476W        W14901  15.812  11.271  10.058
42477W        W14902  31.923  42.376  10.483
42478W        W14903  13.690  35.428   2.835
42479W        W14904  14.259  26.662  14.890
42480W        W14905  26.509  23.224  11.412
42481W        W14906  38.865  14.244  11.009
42482W        W14907  18.631  27.042  14.925
42483W        W14908  39.040  11.219   4.700
42484W        W14909  30.048  38.965   1.217
42485W        W14910  29.030  40.369   4.167
42486W        W14911   3.809  25.486   2.315
42487W        W14912  26.009  32.419   2.238
42488W        W14913  29.012  27.988  11.577
42489W        W14914  43.303  32.527  13.993
42490W        W14915  11.362  30.452   1.305
42491W        W14916   2.954  26.628   1.822
42492W        W14917  16.619  31.036   2.715
42493W        W14918  24.716  27.608   2.793
42494W        W14919  10.308  14.099  10.633
42495W        W14920  22.539  17.173   4.141
42496W        W14921  23.215  12.798  12.563
42497W        W14922  26.161  40.544  14.311
42498W        W14923  17.299  31.415   2.783
42499W        W14924  31.471   0.910   1.341
42500W        W14925  40.378  10.180   3.782
42501W        W14926   2.879  30.509   2.703
42502W        W14927   9.752  22.232   0.872
42503W        W14928   5.735  44.443  14.895
42504W        W14929  17.291  23.144   0.254
42505W        W14930   0.838  17.612  13.470
42506W        W14931   5.242   8.695  14.942
42507W        W14932  18.293  33.401  12.411
42508W        W14933  12.820  39.029  11.555
42509W        W14934   1.927  32.975   0.304
42510W        W14935  15.599   5.352   2.879
42511W        W14936  30.133  44.784   3.669
42512W        W14937  18.158   9.234  14.896
42513W        W14938  32.075  37.350   0.885
42514W        W14939   6.268  26.496   4.748
42515W        W14940  33.974  18.717  12.562
42516W        W14941  29.528  12.747   0.966
42517W        W14942   5.341  20.657  12.408
42518W        W14943   5.388  32.102   1.812
42519W        W14944  40.531   8.226   1.228
42520W        W14945  44.365  16.696  11.472
42521W        W14946  11.624  12.270  11.506
42522W        W14947  34.569   7.679   3.220
42523W        W14948  33.446  41.897  14.514
42524W        W14949  15.623   4.807   1.764
42525W        W14950   0.420  33.527  10.899
42526W        W14951  43.406  26.014  11.989
42527W        W14952  16.265   0.796  13.314
42528W        W14953  31.010  32.139  13.938
42529W        W14954  26.636   1.395   0.292
42530W        W14955  13.658   7.874  13.884
42531W        W14956  43.960  31.447  10.097
42532W        W14957  41.887   9.825   2.790
42533W        W14958   7.764   7.706  14.848
42534W        W14959  34.559  35.049   1.241
42535W        W14960  25.475  28.011  11.918
42536W        W14961  34.038   0.787  10.499
42537W        W14962  36.084   9.364   5.619
42538W        W14963  14.242  17.699   2.227
42539W        W14964  36.892   8.327   9.933
42540W        W14965  30.021  35.429  13.816
42541W        W14966   7.816  36.043   2.777
42542W        W14967  14.820  31.556   4.150
42543W        W14968  33.118  35.927  10.892
42544W        W14969  37.557  10.706   3.834
42545W        W14970   7.779   0.802   9.984
42546W        W14971   0.975  44.939  13.351
42547W        W14972   6.375  16.685  13.815
42548W        W14973  43.293  34.994  13.829
42549W        W14974  24.028   4.341   2.386
42550W        W14975   8.319   5.318  11.568
42551W        W14976  35.075  25.157  14.353
42552W        W14977  23.100  34.926   0.312
42553W        W14978   4.724  27.457  13.842
42554W        W14979  39.904  27.488   3.786
42555W        W14980  11.840  36.383   4.767
42556W        W14981  24.091  27.565   1.705
42557W        W14982  15.662  11.321  14.970
42558W        W14983  43.776   7.292  11.052
42559W        W14984   7.721   4.821  13.053
42560W        W14985  39.848   3.919  11.599
42561W        W14986   9.254  10.745  13.972
42562W        W14987  21.133  31.428   4.804
42563W        W14988   6.381   8.835   3.235
42564W        W14989   7.791  39.428  11.378
42565W        W14990  35.001  35.560  13.005
42566W        W14991  37.466  34.994   5.285
42567W        W14992  18.567   3.382  14.852
42568W        W14993  23.569  37.997   1.422
42569W        W14994  16.646  31.465  13.484
42570W        W14995  39.419   9.344   3.645
42571W        W14996  32.402  32.088   3.296
42572W        W14997  41.989   4.850  12.544
42573W        W14998   4.407   2.757  10.512
42574W        W14999  33.988   0.743   4.151
42575W        W15000   6.184  19.231   9.976
42576W        W15001  29.472  44.996  13.829
42577W        W15002  44.458  38.351  10.411
42578W        W15003  22.714   9.390  14.785
42579W        W15004   8.383  11.196   2.348
42580W        W15005  37.375  17.791   0.955
42581W        W15006  41.823  23.012  10.899
42582W        W15007   0.795  20.557  11.107
42583W        W15008  16.779  12.361   4.724
42584W        W15009  15.281  34.890  13.992
42585W        W15010  34.969  22.607  11.520
42586W        W15011  25.708   2.727  12.083
42587W        W15012   3.780   7.284  12.374
42588W        W15013  24.064  29.489   4.641
42589W        W15014   4.838   3.401  13.400
42590W        W15015  21.559  29.510   4.139
42591W        W15016  29.002  34.433  11.980
42592W        W15017  39.035  33.922  13.357
42593W        W15018  39.472  13.298  12.040
42594W        W15019  37.517  17.244   1.724
42595W        W15020   9.237  25.996   3.297
42596W        W15021  17.168  14.617  13.508
42597W        W15022  38.480  34.385   2.393
42598W        W15023  29.586  31.061  11.604
42599W        W15024  13.641  40.920  14.912
42600W        W15025  12.326   5.425   1.884
42601W        W15026  22.101  24.602  14.285
42602W        W15027   1.410  30.160  13.831
42603W        W15028  35.050  26.002   1.310
42604W        W15029  39.983  39.895  10.463
42605W        W15030  22.220  42.779   0.878
42606W        W15031  26.095  29.561   2.762
42607W        W15032  26.558  14.277  13.862
42608W        W15033   4.433  17.710  12.426
42609W        W15034   1.898  33.426   1.756
42610W        W15035   1.872   9.888   3.362
42611W        W15036  31.506  16.578  14.894
42612W        W15037  15.127  41.967   3.344
42613W        W15038  10.329  12.757   0.372
42614W        W15039  25.036  26.183  12.030
42615W        W15040  42.393  30.444   1.307
42616W        W15041   0.759   1.872  13.949
42617W        W15042  42.794  14.247  10.543
42618W        W15043  34.384  26.188   1.789
42619W        W15044  32.019  24.656   3.755
42620W        W15045   8.657  33.080  11.080
42621W        W15046  33.120  23.221   1.752
42622W        W15047  24.030  17.201   3.262
42623W        W15048  14.229  42.014  12.393
42624W        W15049  33.051  19.621  11.377
42625W        W15050   8.230  22.746  11.999
42626W        W15051  44.928  33.039  11.958
42627W        W15052  10.377  41.033  10.627
42628W        W15053   2.272  30.654   1.216
42629W        W15054  17.601  32.048   2.274
42630W        W15055  18.576  16.650  13.864
42631W        W15056  44.276  30.469   4.686
42632W        W15057  19.273   0.357  13.927
42633W        W15058  25.173  30.516  14.472
42634W        W15059   4.231  20.159   1.380
42635W        W15060  40.839  32.487  12.443
42636W        W15061  41.001  40.832  12.879
42637W        W15062  20.601   8.793   4.778
42638W        W15063  10.361  13.807  10.891
42639W        W15064  31.982  19.775  12.470
42640W        W15065  14.262  27.118  12.002
42641W        W15066  23.611  23.627  10.521
42642W        W15067   1.275   2.368  13.524
42643W        W15068   4.227  21.213   0.403
42644W        W15069  26.951  24.616   4.137
42645W        W15070   0.350  35.423   0.447
42646W        W15071  23.098  37.850   2.194
42647W        W15072  10.794  22.159   5.106
42648W        W15073   0.809  23.588   2.835
42649W        W15074  35.385  23.567  13.502
42650W        W15075  15.734  14.720  11.423
42651W        W15076  22.631  18.698   0.947
42652W        W15077  11.255  29.045   3.273
42653W        W15078  13.740   3.880  11.570
42654W        W15079   0.840  31.410  13.480
42655W        W15080  36.541  38.966   5.120
42656W        W15081  35.868  25.697  14.842
42657W        W15082  27.452   6.814   4.716
42658W        W15083   2.792  13.236  11.026
42659W        W15084   0.787   4.418   1.695
42660W        W15085  28.081  36.089  13.392
42661W        W15086  42.946  37.858   0.476
42662W        W15087  38.951   2.779   0.734
42663W        W15088  16.206  26.051   2.407
42664W        W15089  20.694   5.845   1.833
42665W        W15090  24.997  30.658   4.113
42666W        W15091  32.628  15.814  10.432
42667W        W15092   2.373  27.019   2.410
42668W        W15093  27.982  15.324  10.935
42669W        W15094  40.447  17.274  11.444
42670W        W15095  43.910  41.294   4.728
42671W        W15096  25.478  29.532  14.484
42672W        W15097   6.306  44.493  14.472
42673W        W15098  25.533  38.839   3.308
42674W        W15099  24.991  43.781   3.691
42675W        W15100   2.331  21.646  10.470
42676W        W15101   2.358  20.603  12.514
42677W        W15102  14.250  16.190  10.461
42678W        W15103  25.173  35.570   2.238
42679W        W15104  24.709  23.720   2.686
42680W        W15105  21.097  30.082   3.198
42681W        W15106   4.325  42.793  11.987
42682W        W15107  42.839  12.170   4.651
42683W        W15108  43.340  24.659  14.005
42684W        W15109  22.727  13.672   3.638
42685W        W15110  25.481  42.512  14.774
42686W        W15111  24.521  37.481   2.401
42687W        W15112  39.504  20.225   3.822
42688W        W15113  11.807  22.142  14.811
42689W        W15114  11.686  14.802  12.535
42690W        W15115   8.335  25.158  14.008
42691W        W15116  20.191  22.122  14.454
42692W        W15117  18.569  41.979  10.531
42693W        W15118  13.148  26.957   4.644
42694W        W15119   8.854  29.933   2.278
42695W        W15120  26.025  20.084   2.307
42696W        W15121   9.357  25.014   0.883
42697W        W15122  15.254  37.425  10.024
42698W        W15123  33.502  43.422  10.022
42699W        W15124  39.888   2.275   4.709
42700W        W15125  29.083  12.823  11.971
42701W        W15126  12.624  31.013  13.921
42702W        W15127   3.318   4.930   5.278
42703W        W15128   2.382  44.862   4.218
42704W        W15129  32.986  28.013  10.489
42705W        W15130  12.300  30.602  14.827
42706W        W15131   4.911  18.550  11.393
42707W        W15132   5.357  12.289  12.947
42708W        W15133   4.415  35.019   1.387
42709W        W15134  14.652  20.220  10.933
42710W        W15135  37.873  18.608   1.819
42711W        W15136  15.732   9.705   4.793
42712W        W15137  43.411  32.052  10.571
42713W        W15138  27.517   1.362  12.073
42714W        W15139   0.784  41.480  11.597
42715W        W15140  22.573  24.667  10.452
42716W        W15141  27.946   6.380  13.429
42717W        W15142   6.369  35.567  14.840
42718W        W15143  43.006  44.289  14.960
42719W        W15144  42.783  34.914  12.470
42720W        W15145  13.331  19.699   2.233
42721W        W15146  44.794  37.994  14.387
42722W        W15147  10.661  31.990   4.655
42723W        W15148  38.037  18.587   3.809
42724W        W15149  31.553  18.626   2.745
42725W        W15150  19.099  36.999   3.862
42726W        W15151  44.273  16.765   4.127
42727W        W15152  12.813  22.206  10.553
42728W        W15153   9.744  35.444  10.508
42729W        W15154  17.081  33.002  11.997
42730W        W15155   0.303  13.635   2.798
42731W        W15156   4.308  26.532   0.796
42732W        W15157   5.869  20.712   0.837
42733W        W15158  21.558  35.946   0.327
42734W        W15159  12.639  29.621   0.812
42735W        W15160  24.674  24.115  13.056
42736W        W15161  29.082  37.026   3.739
42737W        W15162  39.041  20.723   5.110
42738W        W15163  44.886   9.226  13.048
42739W        W15164  24.145  25.491  13.427
42740W        W15165  23.563   5.922  14.868
42741W        W15166  12.779  20.716  14.386
42742W        W15167  13.795   4.221   0.412
42743W        W15168   5.235   5.746  13.320
42744W        W15169  10.689  39.411   2.218
42745W        W15170  42.013  43.765   1.722
42746W        W15171   3.348  20.057  10.403
42747W        W15172  39.847   9.704  13.815
42748W        W15173  39.536  36.388  14.964
42749W        W15174   2.261  22.532  10.497
42750W        W15175  31.058  30.483  10.572
42751W        W15176  14.798   0.808   3.817
42752W        W15177  34.397  40.454  11.502
42753W        W15178  29.458  12.290  13.808
42754W        W15179  17.752  34.038   5.170
42755W        W15180   9.336  18.170   3.340
42756W        W15181  24.139   4.287   0.429
42757W        W15182  21.673   9.356  13.502
42758W        W15183  20.562  11.313   4.642
42759W        W15184  35.482   4.896   3.810
42760W        W15185  24.574  17.263   1.739
42761W        W15186  29.942  29.140  14.478
42762W        W15187  42.302  29.642   0.801
42763W        W15188  26.000  33.428  13.475
42764W        W15189  34.405   8.235  12.833
42765W        W15190  38.386  14.152   0.824
42766W        W15191  24.569  24.566  14.771
42767W        W15192  15.613   3.861   4.170
42768W        W15193  25.537   9.282  10.486
42769W        W15194   5.415  22.213  11.463
42770W        W15195  15.783  29.972  11.519
42771W        W15196  30.550  39.045   3.687
42772W        W15197  31.582  20.155   4.228
42773W        W15198  34.561  10.205   1.902
42774W        W15199  25.108  42.956   3.162
42775W        W15200  29.955  31.912   4.827
42776W        W15201   5.340  18.618   4.336
42777W        W15202   6.269  35.875   0.428
42778W        W15203  37.039  19.170  10.587
42779W        W15204  28.546   8.290   4.761
42780W        W15205  32.575  33.013  13.366
42781W        W15206  16.112  13.682  14.511
42782W        W15207  25.195   4.868  11.398
42783W        W15208  44.867  36.980  10.416
42784W        W15209  43.858  42.457  14.341
42785W        W15210  27.485  11.218  13.834
42786W        W15211  16.284   9.375   4.336
42787W        W15212  13.714  44.355   1.432
42788W        W15213  42.435   0.745  13.485
42789W        W15214  20.045  22.117  12.981
42790W        W15215  42.348  25.703   4.176
42791W        W15216   8.402   0.898  12.545
42792W        W15217  19.592  33.933   0.866
42793W        W15218  11.310  42.975   3.871
42794W        W15219   6.296   4.724  10.441
42795W        W15220  20.739  28.176   3.727
42796W        W15221  20.723  18.261   4.635
42797W        W15222  28.529   8.261  12.000
42798W        W15223  38.410  33.455  12.055
42799W        W15224   6.822  14.163  14.309
42800W        W15225  38.435  43.390   3.836
42801W        W15226  12.707   3.272   2.757
42802W        W15227  14.617   5.220  14.506
42803W        W15228  10.736  28.963  12.992
42804W        W15229  23.994  10.369   1.910
42805W        W15230   2.828  11.146  14.808
42806W        W15231  40.858  20.532   1.762
42807W        W15232  16.722  26.977  13.332
42808W        W15233  42.832  40.998   0.748
42809W        W15234  41.485  35.448   0.869
42810W        W15235   7.316  27.558   3.150
42811W        W15236  42.468  28.109  13.530
42812W        W15237  31.513  22.644  10.961
42813W        W15238  35.495  36.980  12.047
42814W        W15239   4.424   4.818  10.505
42815W        W15240   3.726  11.316  10.987
42816W        W15241   9.853  43.462  12.524
42817W        W15242  36.885  37.440  13.809
42818W        W15243   5.914  28.978  11.500
42819W        W15244  44.785  12.325   1.393
42820W        W15245  22.165   0.484   2.263
42821W        W15246  31.410   9.748   3.211
42822W        W15247  28.680  40.455  12.406
42823W        W15248  22.527  19.555   5.174
42824W        W15249  21.017  27.505  14.362
42825W        W15250  40.847   8.175  13.957
42826W        W15251  14.215   0.294  14.919
42827W        W15252  21.599  21.663   2.182
42828W        W15253  15.201  14.316  14.894
42829W        W15254  27.126   2.415   1.215
42830W        W15255   0.829   9.727  14.287
42831W        W15256   5.246   1.386   0.422
42832W        W15257  22.132  15.730  11.541
42833W        W15258  14.670  17.065  12.416
42834W        W15259   9.709   6.393  12.574
42835W        W15260  38.934  36.019   3.345
42836W        W15261  41.868  44.352  14.307
42837W        W15262   8.378  43.000  12.531
42838W        W15263  42.859  16.246  14.409
42839W        W15264   8.347  35.408   2.800
42840W        W15265  19.708  13.759   4.694
42841W        W15266  26.603   1.396  14.433
42842W        W15267  40.825  15.700   3.758
42843W        W15268  43.472  18.759   3.284
42844W        W15269  44.915  26.104  12.849
42845W        W15270  31.000  14.685  13.909
42846W        W15271  39.528  21.746  13.000
42847W        W15272   6.309  29.149  12.390
42848W        W15273  26.052  43.843  11.896
42849W        W15274  29.532  33.993  13.831
42850W        W15275  30.158   8.738  14.444
42851W        W15276  17.287  16.178  10.593
42852W        W15277  23.070  24.070   2.697
42853W        W15278  38.518  31.546   1.794
42854W        W15279  15.752  41.984  12.445
42855W        W15280  31.420  16.095  13.925
42856W        W15281  21.556   1.467   1.822
42857W        W15282   7.685  43.303  13.819
42858W        W15283  30.051  19.636  13.389
42859W        W15284   6.417  18.566  13.373
42860W        W15285  22.658   5.251  10.435
42861W        W15286  39.854  27.184   4.121
42862W        W15287   4.705  27.138  10.457
42863W        W15288   0.401  44.809  14.325
42864W        W15289   3.395  29.515   3.686
42865W        W15290  22.218  14.669  10.598
42866W        W15291   9.194  28.637  13.323
42867W        W15292  10.303  16.761   4.281
42868W        W15293  15.605  25.520  13.371
42869W        W15294  43.014  34.888  14.376
42870W        W15295  10.173  18.784   1.890
42871W        W15296  33.554  42.305  13.879
42872W        W15297  37.938  26.008  14.774
42873W        W15298   9.155  12.205   0.939
42874W        W15299   3.376  38.389  11.913
42875W        W15300  40.402  43.309   2.769
42876W        W15301  43.850   1.313   4.663
42877W        W15302  35.517   9.174   5.302
42878W        W15303  42.388  27.588  11.452
42879W        W15304  22.659  35.936  11.045
42880W        W15305  44.505   3.394  14.769
42881W        W15306  30.992  37.078  11.080
42882W        W15307  37.834  31.483   0.362
42883W        W15308  13.267  32.992  13.535
42884W        W15309  37.874  41.914   0.765
42885W        W15310  18.201  35.357   3.841
42886W        W15311   1.825  13.615   4.340
42887W        W15312  20.050  10.266  12.976
42888W        W15313  16.575  21.242   0.365
42889W        W15314  43.980  24.555   0.813
42890W        W15315   6.362   5.393  10.424
42891W        W15316  24.207  10.180   0.386
42892W        W15317  31.943  39.873   0.808
42893W        W15318  38.931  25.651  10.433
42894W        W15319  37.948   4.352  14.457
42895W        W15320  27.986  14.698  12.508
42896W        W15321  23.026  27.143   1.698
42897W        W15322   5.885   1.334  10.543
42898W        W15323  40.818  41.392   2.307
42899W        W15324  41.979   0.430   2.663
42900W        W15325  27.135  42.480   0.816
42901W        W15326  38.850  35.405   4.655
42902W        W15327   2.270  17.064  10.520
42903W        W15328   8.179   5.823   2.871
42904W        W15329  11.743  22.666  12.525
42905W        W15330  15.671  41.949  14.296
42906W        W15331  28.606  31.642  14.483
42907W        W15332   8.853   5.411   4.772
42908W        W15333  14.644  16.609  12.896
42909W        W15334  28.138   9.190  13.946
42910W        W15335  28.503  14.104   2.194
42911W        W15336  19.652  14.261   4.290
42912W        W15337  40.336  16.179  14.811
42913W        W15338  12.298  40.985  12.916
42914W        W15339  23.197  42.829  13.414
42915W        W15340  33.530  34.047   4.174
42916W        W15341  41.927  32.404   4.838
42917W        W15342  30.966  20.550  10.507
42918W        W15343  43.476   3.767   0.943
42919W        W15344  22.641  20.740  13.012
42920W        W15345  16.203  31.594  14.863
42921W        W15346  34.959  41.894   4.834
42922W        W15347  13.234  37.500  14.939
42923W        W15348  21.647  41.433  10.889
42924W        W15349  34.052  39.334  13.895
42925W        W15350  30.996   9.753  14.279
42926W        W15351   7.742   2.925  13.971
42927W        W15352  30.627  36.552   0.258
42928W        W15353  30.627  27.944   2.400
42929W        W15354  10.708  44.418  13.011
42930W        W15355  15.273   6.709   0.799
42931W        W15356  36.046  10.279  11.903
42932W        W15357  15.580   8.302   1.753
42933W        W15358   1.417  27.588  13.860
42934W        W15359  39.421  36.541  12.834
42935W        W15360  12.220   5.861   3.819
42936W        W15361   8.334  16.210   4.742
42937W        W15362  11.669  33.557   1.897
42938W        W15363  22.527  40.515  13.415
42939W        W15364  43.486  40.459   3.816
42940W        W15365   3.782  18.115  12.969
42941W        W15366  29.506   2.298   0.809
42942W        W15367  16.706  13.219  13.381
42943W        W15368  15.813  36.536  11.908
42944W        W15369  20.143   0.988   1.758
42945W        W15370  36.888  12.142   3.151
42946W        W15371  34.559   2.375  12.950
42947W        W15372   7.304  26.040  14.859
42948W        W15373  20.651  26.186  14.390
42949W        W15374   2.927  26.632  12.080
42950W        W15375  40.440  10.222   2.835
42951W        W15376  38.444  22.227  12.448
42952W        W15377  31.512  36.389  12.041
42953W        W15378  29.159   7.350  13.388
42954W        W15379   6.187  11.821  11.602
42955W        W15380   8.869  34.438   4.302
42956W        W15381  14.208  11.623   2.384
42957W        W15382  29.474  31.402   4.287
42958W        W15383   5.292  43.797   3.255
42959W        W15384  19.572  40.043  12.500
42960W        W15385  33.598   7.238  11.939
42961W        W15386  43.280  16.705  11.107
42962W        W15387  40.316  26.457   1.382
42963W        W15388  24.114  22.667  10.466
42964W        W15389  12.777  30.000   3.153
42965W        W15390  22.711  20.551   4.151
42966W        W15391  22.223   7.400   3.756
42967W        W15392  44.477  34.002   2.267
42968W        W15393  21.725  16.199   2.305
42969W        W15394  38.003  43.009  12.047
42970W        W15395  10.327  23.552  13.965
42971W        W15396  33.477  17.269  10.519
42972W        W15397  38.514  38.006   2.409
42973W        W15398  30.638   5.336   0.783
42974W        W15399  27.946  17.772   1.769
42975W        W15400   9.831  10.334  12.365
42976W        W15401  11.211   8.179  14.005
42977W        W15402  38.931  20.059   3.301
42978W        W15403   9.320  10.740   2.858
42979W        W15404  39.377  37.420   1.257
42980W        W15405   8.689   5.354  12.568
42981W        W15406  24.648  14.780  14.765
42982W        W15407  37.432  36.378  11.505
42983W        W15408  38.051  36.066   3.340
42984W        W15409   0.871  42.400   1.238
42985W        W15410  12.139  28.162  14.397
42986W        W15411  27.624  25.683  13.865
42987W        W15412  43.340  31.485  14.930
42988W        W15413  43.460  33.410   2.269
42989W        W15414   9.160   8.792  10.151
42990W        W15415  19.610   4.238  10.572
42991W        W15416  21.744  30.515  11.574
42992W        W15417   2.795   7.859  12.042
42993W        W15418  10.253  13.311  12.890
42994W        W15419  26.490  16.790   2.255
42995W        W15420   6.252   9.166  13.391
42996W        W15421   1.846  28.490   3.255
42997W        W15422   2.942  12.704  14.001
42998W        W15423  41.319  21.722  11.963
42999W        W15424  10.154   4.829  10.493
43000W        W15425  21.130  12.238   4.806
43001W        W15426  24.530  17.731  11.863
43002W        W15427  29.612  30.489   5.226
43003W        W15428  18.074  33.384   4.257
43004W        W15429  39.934  12.853  11.415
43005W        W15430  19.042  38.463  10.596
43006W        W15431   8.259  20.242   0.792
43007W        W15432  22.046  16.248   4.808
43008W        W15433  10.649   4.426   1.872
43009W        W15434  15.718  39.318   3.776
43010W        W15435   2.319  27.065  10.965
43011W        W15436  39.880  34.988  12.566
43012W        W15437   0.255  36.914  10.892
43013W        W15438  24.611  31.128   1.419
43014W        W15439  17.130  44.959  11.079
43015W        W15440  35.866  23.555  10.932
43016W        W15441  19.713  44.923   4.270
43017W        W15442  21.191  26.537   3.166
43018W        W15443  31.919  10.173  11.379
43019W        W15444  32.606  16.246   3.640
43020W        W15445  15.240  12.677   1.817
43021W        W15446  34.078  23.116  10.532
43022W        W15447   7.686  13.721   2.685
43023W        W15448  20.127  21.029  12.918
43024W        W15449  13.812   7.890  14.936
43025W        W15450  17.659  20.085   3.158
43026W        W15451   5.410  18.196  14.953
43027W        W15452   2.722  35.051  12.077
43028W        W15453  37.949  27.004  11.601
43029W        W15454  36.843  25.713  11.096
43030W        W15455  28.135  11.314   0.398
43031W        W15456  30.924  35.463  10.420
43032W        W15457  24.659  23.230   2.693
43033W        W15458  25.680  26.033  14.510
43034W        W15459  10.232  44.419  12.044
43035W        W15460  29.151  25.568   3.328
43036W        W15461  12.157  38.858   4.727
43037W        W15462  18.286  17.284   0.388
43038W        W15463  40.936   8.684  11.006
43039W        W15464  34.877  25.062  11.517
43040W        W15465   9.779  14.628   4.814
43041W        W15466  37.525  34.490  14.504
43042W        W15467   9.774  29.108  11.417
43043W        W15468  24.108  14.808  11.086
43044W        W15469  19.166  18.087   4.316
43045W        W15470  36.029  30.584   1.747
43046W        W15471   6.411  36.552   0.819
43047W        W15472  35.996  25.629   2.302
43048W        W15473   0.381  23.038   0.731
43049W        W15474  34.378  39.026  12.972
43050W        W15475   0.825   3.403   2.857
43051W        W15476  22.739  20.535   3.688
43052W        W15477  10.807  34.084   4.187
43053W        W15478  34.459  14.132   0.809
43054W        W15479  15.653  12.717  13.323
43055W        W15480  18.784   8.282   3.804
43056W        W15481  37.492  20.191  14.461
43057W        W15482  16.247  36.459   4.267
43058W        W15483  36.077  18.287   3.383
43059W        W15484   4.856   5.297  14.383
43060W        W15485   7.174   2.795   2.857
43061W        W15486  26.195  15.163   4.270
43062W        W15487  44.916  26.149  12.038
43063W        W15488  37.444  15.766   3.337
43064W        W15489   5.803  34.442  13.431
43065W        W15490   3.764  13.661   2.336
43066W        W15491  21.601  14.775  13.530
43067W        W15492  13.255  21.175   2.346
43068W        W15493   1.432  34.032   2.389
43069W        W15494  34.405   3.720  12.949
43070W        W15495   9.376  16.721   3.643
43071W        W15496  16.588   7.212   2.740
43072W        W15497  21.660   5.721  11.941
43073W        W15498  39.914  15.808  13.361
43074W        W15499   8.193  11.640  11.379
43075W        W15500  43.781  35.986   1.704
43076W        W15501  19.286  31.553  12.558
43077W        W15502  34.106  13.271   2.274
43078W        W15503   1.894  17.289   0.455
43079W        W15504  33.075  40.376  11.968
43080W        W15505  24.563  24.620  12.507
43081W        W15506  42.367  31.500  14.493
43082W        W15507  26.131  16.594  14.019
43083W        W15508  31.591   5.803   4.752
43084W        W15509  42.506   0.815   3.311
43085W        W15510  16.167  27.650   1.372
43086W        W15511  37.842  37.509  12.833
43087W        W15512  14.231   3.835   0.905
43088W        W15513  14.806  38.872  14.487
43089W        W15514  12.257  34.546  14.300
43090W        W15515  31.469  29.934   1.860
43091W        W15516  37.412   1.901  11.379
43092W        W15517  29.545  20.630  14.305
43093W        W15518   8.787  21.235  12.538
43094W        W15519  38.516  10.262  13.474
43095W        W15520  12.654  15.193   3.648
43096W        W15521  36.507  19.642   1.438
43097W        W15522  41.462  24.671   0.384
43098W        W15523  35.073   4.797   1.237
43099W        W15524  42.795  24.524  10.425
43100W        W15525  37.501  15.158  13.417
43101W        W15526  38.410  42.018   0.285
43102W        W15527  10.794  12.649   0.309
43103W        W15528  28.029  28.075  14.425
43104W        W15529   4.355  22.069  11.496
43105W        W15530  39.964   5.378   3.827
43106W        W15531  21.150  18.233   4.666
43107W        W15532  19.060   2.837   2.690
43108W        W15533   7.847   8.714  13.019
43109W        W15534   7.694  24.721   2.802
43110W        W15535  15.296  22.702   0.752
43111W        W15536  13.717  14.338   0.924
43112W        W15537  33.131   9.768   1.234
43113W        W15538   4.205   3.301  12.920
43114W        W15539  41.485  14.272   3.735
43115W        W15540  27.988  24.651  12.066
43116W        W15541  15.695  35.937  13.821
43117W        W15542   9.675  19.571  13.884
43118W        W15543  38.843  16.290  13.988
43119W        W15544  39.873  26.196   2.354
43120W        W15545  28.451   3.805  12.006
43121W        W15546   1.421  20.142   1.366
43122W        W15547  23.689  35.055  12.419
43123W        W15548  11.682  27.594   1.823
43124W        W15549  11.197  43.907  12.037
43125W        W15550  23.695  14.623   2.351
43126W        W15551  28.017  40.972   4.790
43127W        W15552  20.191  35.906  14.340
43128W        W15553  36.941  26.641   4.676
43129W        W15554  23.641  35.457   3.756
43130W        W15555   9.677  14.148  11.043
43131W        W15556  40.508  18.712   1.802
43132W        W15557  22.108  20.063  13.490
43133W        W15558  28.980  20.271   3.250
43134W        W15559  16.077  12.353   2.417
43135W        W15560   0.768  36.943  14.343
43136W        W15561   5.326  17.135  12.390
43137W        W15562  32.436   9.648   4.758
43138W        W15563  38.971   0.829   2.723
43139W        W15564  43.971  21.654   1.414
43140W        W15565  23.659   5.207  14.514
43141W        W15566  11.220  44.816  10.954
43142W        W15567   2.930  17.741  14.445
43143W        W15568  23.556  17.139  14.818
43144W        W15569  34.990  23.553   0.405
43145W        W15570  23.602  18.084   0.330
43146W        W15571  40.549  22.086  11.007
43147W        W15572  41.377  23.091  13.800
43148W        W15573   5.753  34.529  11.070
43149W        W15574  13.189  24.128  11.390
43150W        W15575   0.439  38.074   3.196
43151W        W15576  26.572  28.140  14.318
43152W        W15577  30.962  18.601   4.136
43153W        W15578  29.066  41.001  10.545
43154W        W15579  24.009  37.885   0.824
43155W        W15580  23.158   2.464  14.382
43156W        W15581   6.236  36.935  11.512
43157W        W15582   2.451  37.513   0.325
43158W        W15583  16.688  43.351  12.535
43159W        W15584  18.682   5.695  10.549
43160W        W15585  14.808  17.265   2.251
43161W        W15586  28.453  42.855   4.816
43162W        W15587   0.861  25.185  13.044
43163W        W15588  44.454  28.064  11.546
43164W        W15589  26.039  27.088   3.641
43165W        W15590  10.185  43.468   0.293
43166W        W15591  17.066  37.944  14.302
43167W        W15592   7.324  15.102   0.245
43168W        W15593  17.729  36.998  14.889
43169W        W15594  27.491  35.925  12.852
43170W        W15595  12.805  13.782  11.873
43171W        W15596  43.819  11.704  10.983
43172W        W15597  27.589  13.311   3.357
43173W        W15598  22.058  21.187   0.386
43174W        W15599  31.498  38.449  13.408
43175W        W15600  27.040  16.629  13.962
43176W        W15601   5.723  27.029  12.552
43177W        W15602  24.217  39.520  14.831
43178W        W15603   0.785   0.832  10.015
43179W        W15604  41.850  21.110   2.409
43180W        W15605  28.158   3.943   0.910
43181W        W15606  24.990  14.801  11.574
43182W        W15607   1.761  16.241  12.532
43183W        W15608   9.873  19.214  11.052
43184W        W15609  22.057  25.024  11.429
43185W        W15610  19.737  17.095  12.428
43186W        W15611  25.967  42.933  10.959
43187W        W15612  29.506   7.193  12.095
43188W        W15613  14.715  19.200   3.664
43189W        W15614   0.944  36.347  14.848
43190W        W15615  34.495  33.096   4.802
43191W        W15616  41.878  27.061   0.406
43192W        W15617  21.588  39.485   1.725
43193W        W15618   5.206  28.983   1.430
43194W        W15619  35.867  32.888  13.479
43195W        W15620  39.429  34.104  10.907
43196W        W15621  36.539  19.568   4.248
43197W        W15622   8.752  28.079   2.728
43198W        W15623  25.659   2.354   4.281
43199W        W15624  16.279   3.223   0.873
43200W        W15625  33.585  20.704   0.898
43201W        W15626   9.285  35.936   4.696
43202W        W15627  26.202  21.607  12.997
43203W        W15628  33.105  31.951   4.273
43204W        W15629   5.338  30.564  11.545
43205W        W15630  15.586  24.020  12.444
43206W        W15631  34.927  33.092   0.793
43207W        W15632  26.195   1.748  14.435
43208W        W15633  11.641  43.312  11.602
43209W        W15634  19.137  43.963  12.365
43210W        W15635  14.303  40.934   2.185
43211W        W15636  13.831  11.650   2.376
43212W        W15637   9.818  42.526  11.994
43213W        W15638  38.392  27.102   1.754
43214W        W15639  12.794   3.263   0.474
43215W        W15640  37.416  24.094  12.830
43216W        W15641   7.819   1.741  14.908
43217W        W15642  15.729   5.796  13.867
43218W        W15643  40.418  30.438   2.199
43219W        W15644  25.636  32.890   0.928
43220W        W15645   2.779  41.450  11.032
43221W        W15646  36.387  31.640   2.797
43222W        W15647  19.662  30.500  10.440
43223W        W15648  10.638  15.190   4.210
43224W        W15649   7.719  23.669   2.352
43225W        W15650   8.302  38.460   3.170
43226W        W15651  33.490   7.850   2.750
43227W        W15652  18.698  44.984  12.930
43228W        W15653  40.037   5.423  11.476
43229W        W15654   0.290  29.015  11.415
43230W        W15655  27.149  33.102   4.785
43231W        W15656  22.676  25.055  12.382
43232W        W15657   7.328   6.331   2.883
43233W        W15658   8.850  17.257  11.080
43234W        W15659  34.420   8.311   4.722
43235W        W15660  22.058   5.888   1.906
43236W        W15661   6.772  32.088   4.268
43237W        W15662  11.259   6.705   0.444
43238W        W15663  42.490  22.114  13.506
43239W        W15664  35.948  38.500   1.273
43240W        W15665  20.621  17.268  13.926
43241W        W15666  31.580   1.296  12.976
43242W        W15667  31.139   4.429  10.471
43243W        W15668  21.113   3.855  11.572
43244W        W15669  25.125  37.399   4.302
43245W        W15670  22.077  41.315  13.355
43246W        W15671  15.685  36.528   4.261
43247W        W15672  34.016   4.920   0.936
43248W        W15673   9.857  39.467   4.118
43249W        W15674  27.118  26.588  11.936
43250W        W15675   6.268   0.793   0.938
43251W        W15676  39.517  19.763  11.119
43252W        W15677  23.129   0.342   0.942
43253W        W15678  39.993  10.774  13.427
43254W        W15679  13.776  18.744   2.374
43255W        W15680  28.665  21.560  10.630
43256W        W15681  34.592   9.688  14.772
43257W        W15682  18.205   5.837  13.036
43258W        W15683  34.535  26.471  14.404
43259W        W15684  34.120  17.790   2.357
43260W        W15685  13.760  44.369   3.175
43261W        W15686  18.733  14.729   0.370
43262W        W15687  34.973  27.623   3.687
43263W        W15688  19.692  42.448  13.527
43264W        W15689  30.022   2.872   2.254
43265W        W15690  42.460  43.808   2.701
43266W        W15691   2.771  18.749   3.251
43267W        W15692  28.580  36.485   1.226
43268W        W15693   1.925  25.638   1.353
43269W        W15694   8.175  35.011  10.449
43270W        W15695  36.088  43.843   1.254
43271W        W15696  27.181  13.120   3.647
43272W        W15697  40.047  28.601   3.704
43273W        W15698  39.056  27.538   0.933
43274W        W15699  33.941  15.628  12.577
43275W        W15700  24.613  11.302  10.636
43276W        W15701  40.884  32.469  12.868
43277W        W15702   1.859  36.510  11.454
43278W        W15703  29.989  34.396   1.747
43279W        W15704  19.233  21.724   3.354
43280W        W15705  11.850  11.191  12.866
43281W        W15706  23.727   1.482   4.197
43282W        W15707  28.669   9.180   1.918
43283W        W15708  24.666  37.359   1.900
43284W        W15709  40.405   2.327  12.575
43285W        W15710   7.321   4.934  12.554
43286W        W15711   1.785  10.306   4.285
43287W        W15712   1.799  23.513   0.479
43288W        W15713   9.383  22.682   1.297
43289W        W15714  27.195   6.729   4.683
43290W        W15715  24.078  33.079  14.316
43291W        W15716  19.754  35.585   2.200
43292W        W15717  40.339   0.796  14.433
43293W        W15718   2.766  25.561   4.222
43294W        W15719  34.409  13.309   4.813
43295W        W15720  11.718  11.737  12.930
43296W        W15721  41.490  41.509  12.893
43297W        W15722  43.496  22.197   2.222
43298W        W15723   1.802  43.956  11.943
43299W        W15724  20.044  34.889  13.009
43300W        W15725  19.553  42.849   4.197
43301W        W15726  27.615  14.801   2.413
43302W        W15727  14.318  24.722   1.713
43303W        W15728  22.025  15.170   1.284
43304W        W15729  14.808  13.671  13.833
43305W        W15730   6.742  12.250   0.299
43306W        W15731  29.928  21.030  10.073
43307W        W15732   9.827   0.781   2.772
43308W        W15733   5.699  42.982  10.434
43309W        W15734   5.929  18.750  12.034
43310W        W15735  24.529  32.413   5.145
43311W        W15736  10.256  40.022  14.018
43312W        W15737  36.999   9.760   0.796
43313W        W15738   8.659  39.971  10.926
43314W        W15739  16.682  15.613  12.943
43315W        W15740  32.413  19.141  12.507
43316W        W15741   4.230  12.247  10.431
43317W        W15742  43.297  17.266   9.953
43318W        W15743  11.657  27.144   4.327
43319W        W15744  39.908  25.558   3.757
43320W        W15745  10.741  42.813  11.070
43321W        W15746  12.623  40.478  10.519
43322W        W15747   3.844  29.643   2.338
43323W        W15748  22.133  22.607   3.726
43324W        W15749   0.770  18.748   2.808
43325W        W15750  32.481  40.338  10.913
43326W        W15751  29.434  19.626   5.271
43327W        W15752  29.005  30.427   1.247
43328W        W15753   5.910  17.123  12.869
43329W        W15754  35.054  42.411  13.385
43330W        W15755  38.015   7.380   5.770
43331W        W15756  43.804  15.248   3.231
43332W        W15757  17.239  22.191  14.030
43333W        W15758   6.864  26.522  14.849
43334W        W15759   5.385  42.361   4.246
43335W        W15760   5.354  29.106   1.901
43336W        W15761  22.085  40.846  12.908
43337W        W15762  41.530  16.589   4.134
43338W        W15763  38.062  18.685   0.245
43339W        W15764  13.625  17.609   1.879
43340W        W15765  31.522  23.204   2.243
43341W        W15766   2.892  23.586  13.815
43342W        W15767  28.998   8.310   2.897
43343W        W15768  39.321  20.094  12.075
43344W        W15769  44.883  11.168  14.003
43345W        W15770  39.428  30.011  10.610
43346W        W15771  28.957  40.386  10.938
43347W        W15772   4.335  17.130  10.411
43348W        W15773  18.730  12.197  12.458
43349W        W15774   0.408   8.858  12.406
43350W        W15775  39.978  25.571  11.101
43351W        W15776  39.887   3.265   1.923
43352W        W15777   6.903  24.668   3.708
43353W        W15778  40.842  10.157   1.360
43354W        W15779   9.831  38.051   3.706
43355W        W15780   5.845  24.673   1.742
43356W        W15781  33.538  16.316  14.837
43357W        W15782  13.297  24.639   0.284
43358W        W15783  10.782   1.321  13.489
43359W        W15784  22.640  41.340   1.853
43360W        W15785  13.636  31.434  13.836
43361W        W15786  39.457  24.660   1.378
43362W        W15787  43.812  35.553   3.860
43363W        W15788  23.027  40.852  13.432
43364W        W15789   0.289   6.896  14.017
43365W        W15790  29.513  19.261  11.959
43366W        W15791  27.652   3.904  10.499
43367W        W15792  38.517  34.880  14.981
43368W        W15793   4.338  25.186   3.296
43369W        W15794  26.624  42.004   2.742
43370W        W15795  25.095  23.080  10.938
43371W        W15796  43.358  41.955   3.664
43372W        W15797  34.936  44.932   0.378
43373W        W15798  16.788   7.250  12.096
43374W        W15799   9.330  24.138  11.122
43375W        W15800  24.998   1.377   3.779
43376W        W15801  13.841   3.895   9.652
43377W        W15802  20.059  19.777   3.856
43378W        W15803  21.561   9.762  10.938
43379W        W15804   2.848   2.455  14.410
43380W        W15805  18.182   7.757  13.036
43381W        W15806  23.239  34.034   1.705
43382W        W15807  33.963  13.311  14.439
43383W        W15808  20.041  12.749   0.300
43384W        W15809  24.023  10.324   2.394
43385W        W15810   4.751  14.111   9.992
43386W        W15811  10.697  34.403   0.832
43387W        W15812  23.055  11.839  14.349
43388W        W15813  18.585  23.498  12.353
43389W        W15814  41.492  38.371   1.421
43390W        W15815  11.270  23.068  12.348
43391W        W15816   3.947   8.267   1.427
43392W        W15817  21.691  21.535  11.574
43393W        W15818  27.043  11.303   2.820
43394W        W15819  13.121  17.748  12.084
43395W        W15820  25.688   5.911  11.908
43396W        W15821  44.937  43.418  14.960
43397W        W15822  40.500  18.292   3.355
43398W        W15823  31.404  41.392   3.170
43399W        W15824   1.267  26.166   1.360
43400W        W15825  10.300  14.707  14.361
43401W        W15826   2.445  41.823  10.957
43402W        W15827  24.080  24.159   3.161
43403W        W15828  35.542  16.217  14.968
43404W        W15829  43.408  14.624  14.459
43405W        W15830  43.327   6.394  12.868
43406W        W15831   3.372  18.673   2.694
43407W        W15832  26.981  41.380   0.809
43408W        W15833  14.246  44.368  11.112
43409W        W15834  11.839   6.885  12.521
43410W        W15835  42.493   2.903   1.795
43411W        W15836  25.500  27.176  11.979
43412W        W15837  43.011   5.920  14.809
43413W        W15838   6.364  14.337   5.162
43414W        W15839  38.356  19.061   3.168
43415W        W15840  18.250  33.975   2.372
43416W        W15841   4.418  41.483   4.727
43417W        W15842  37.515   3.301   4.225
43418W        W15843  43.331   5.859   4.336
43419W        W15844  19.562  11.733  13.408
43420W        W15845  42.782   8.166   0.930
43421W        W15846  18.240  12.188   2.415
43422W        W15847  11.803  10.868   4.259
43423W        W15848  20.725  16.607  12.417
43424W        W15849   0.874  16.673  14.435
43425W        W15850  15.605  29.011  10.480
43426W        W15851   0.357  33.379   0.360
43427W        W15852  19.683   5.797  14.007
43428W        W15853  24.072  23.703  12.566
43429W        W15854  38.541   6.761   0.306
43430W        W15855  22.137  13.288   2.377
43431W        W15856  22.041  31.555  10.942
43432W        W15857  25.965   1.884   1.314
43433W        W15858  32.618  22.112   4.665
43434W        W15859  38.431   7.374  13.416
43435W        W15860  36.098   1.428   1.286
43436W        W15861  13.615  12.238  14.383
43437W        W15862  30.112  43.836  13.372
43438W        W15863   9.177  14.792  11.127
43439W        W15864  30.531   0.914   0.400
43440W        W15865  24.170   3.819  11.995
43441W        W15866  42.315  22.054  12.571
43442W        W15867   3.844  44.278  12.974
43443W        W15868  10.200   4.909  12.548
43444W        W15869  37.500  17.718  12.545
43445W        W15870   1.900  10.753   0.355
43446W        W15871   9.321  22.108   0.267
43447W        W15872  11.192  38.451  12.850
43448W        W15873  43.007   5.817  12.429
43449W        W15874  19.596  28.180  10.545
43450W        W15875  28.507  24.524   2.734
43451W        W15876  39.047  26.504   0.957
43452W        W15877  12.789  17.708   1.930
43453W        W15878  15.722  10.310  10.058
43454W        W15879  20.273  39.345  10.929
43455W        W15880  13.770  19.136  14.901
43456W        W15881  12.755   9.830   3.667
43457W        W15882  14.692   5.341  11.511
43458W        W15883   6.807  28.438   4.262
43459W        W15884  42.375   2.434   0.764
43460W        W15885  22.138  27.527  11.103
43461W        W15886   8.863  43.296  14.891
43462W        W15887  16.663   8.376  13.405
43463W        W15888  19.079   4.741   4.255
43464W        W15889  31.618   3.944  14.858
43465W        W15890  43.396  18.598   0.767
43466W        W15891  10.365   9.757  12.497
43467W        W15892   9.665   2.872   4.792
43468W        W15893  19.245   9.388  11.111
43469W        W15894   0.856   9.785  12.963
43470W        W15895   2.853  35.555   1.344
43471W        W15896  15.164  20.096   1.870
43472W        W15897   0.891  11.349   4.734
43473W        W15898  11.650  15.159  12.046
43474W        W15899  43.931  43.804  11.422
43475W        W15900  25.167  18.207  11.116
43476W        W15901  39.539  41.839  12.978
43477W        W15902  14.213  26.531  11.067
43478W        W15903  41.468  28.985   1.322
43479W        W15904   5.250  24.037  12.834
43480W        W15905  13.261  22.159   3.789
43481W        W15906  42.883   6.354   0.854
43482W        W15907  30.097   9.300  11.059
43483W        W15908  17.109  34.121   4.671
43484W        W15909  40.387  20.641   1.827
43485W        W15910  41.454   1.842   3.667
43486W        W15911  27.197  21.695  11.059
43487W        W15912   0.441  20.270  10.409
43488W        W15913   6.831  18.719  11.435
43489W        W15914  15.273  33.969   2.787
43490W        W15915  36.410  11.849   2.899
43491W        W15916  33.551  28.606  13.379
43492W        W15917  30.150  35.977  10.944
43493W        W15918   0.365  38.547  13.483
43494W        W15919   1.760  16.251  12.096
43495W        W15920   1.361  13.212  11.873
43496W        W15921  38.418  23.726  10.637
43497W        W15922  32.112  44.970  11.021
43498W        W15923  10.644  15.201   2.376
43499W        W15924  14.669  34.518   1.873
43500W        W15925  43.018  36.524  14.027
43501W        W15926   6.700   7.736   1.739
43502W        W15927  23.220  32.447  11.050
43503W        W15928  27.457   0.383   4.226
43504W        W15929  14.749  40.885   3.638
43505W        W15930  35.050  41.947  10.563
43506W        W15931  21.691  38.944  10.916
43507W        W15932  18.213  13.109  11.046
43508W        W15933  33.998   1.279   1.339
43509W        W15934   4.238  42.833   1.728
43510W        W15935  41.394   6.402  14.491
43511W        W15936  23.001  23.146   0.925
43512W        W15937   3.808  34.500   0.301
43513W        W15938  31.114  30.084  14.952
43514W        W15939  23.619  44.385  11.447
43515W        W15940  29.939  27.055   2.388
43516W        W15941  13.105  33.024   2.665
43517W        W15942  40.945  35.084  13.809
43518W        W15943   9.194  40.803   1.236
43519W        W15944  42.854  39.326  13.428
43520W        W15945  16.279  30.423   4.248
43521W        W15946  18.761  37.476   1.311
43522W        W15947  11.701  10.350   9.945
43523W        W15948  27.072  10.312  11.607
43524W        W15949   7.869  37.424   2.259
43525W        W15950  30.581  42.869   3.314
43526W        W15951  22.546  44.438  13.990
43527W        W15952   1.796  29.057   2.816
43528W        W15953  20.160   2.965  14.901
43529W        W15954  39.994  32.905  13.373
43530W        W15955  40.340  41.295   5.084
43531W        W15956  35.007   7.289  12.411
43532W        W15957  30.029  38.992   3.277
43533W        W15958  42.986  30.593   1.737
43534W        W15959  36.425  36.948  10.622
43535W        W15960   7.300  15.598  14.474
43536W        W15961  39.434  41.847   1.831
43537W        W15962  25.498   0.910  14.778
43538W        W15963  27.684  13.673   0.812
43539W        W15964  31.899  16.635  12.486
43540W        W15965  44.802  10.230   2.382
43541W        W15966  22.021  17.237   0.477
43542W        W15967  42.784   8.172  13.051
43543W        W15968  23.492  20.201   4.270
43544W        W15969  32.634  23.644  14.955
43545W        W15970  11.345  28.499  12.561
43546W        W15971  33.601  18.627  11.526
43547W        W15972  27.537  14.183  13.996
43548W        W15973  33.016  25.539   2.192
43549W        W15974  36.865  19.062  12.461
43550W        W15975  33.039  41.318   0.407
43551W        W15976  33.926  34.967  13.010
43552W        W15977  26.123  16.119   1.413
43553W        W15978  24.193   1.750  13.522
43554W        W15979  31.069   6.769  11.856
43555W        W15980  14.323   2.334  14.513
43556W        W15981  39.419  23.723  10.957
43557W        W15982  32.049  34.463   0.394
43558W        W15983  40.955  43.877  12.887
43559W        W15984  11.373  25.509   1.222
43560W        W15985  25.197   7.192  14.802
43561W        W15986  24.663  17.165  14.946
43562W        W15987   5.784  28.465   2.898
43563W        W15988  19.044   6.411  12.579
43564W        W15989  23.632  44.005   1.343
43565W        W15990  20.272  25.200  14.343
43566W        W15991  43.905  33.955  10.554
43567W        W15992  30.628   8.899   4.696
43568W        W15993  31.639  36.842  11.580
43569W        W15994  33.537  13.239  14.392
43570W        W15995  12.308  16.608   2.709
43571W        W15996   5.810   5.829  10.909
43572W        W15997  43.923  28.679   2.366
43573W        W15998  35.994  20.167   4.283
43574W        W15999  35.009   7.244   1.409
43575W        W16000  13.768  11.214  12.411
43576W        W16001  23.545  33.112   3.215
43577W        W16002  31.114   1.363   4.166
43578W        W16003  24.711  42.886   1.290
43579W        W16004  32.918  25.108  12.514
43580W        W16005  10.303   2.895   0.339
43581W        W16006  17.600  37.043  11.896
43582W        W16007  30.955  26.141   3.801
43583W        W16008  34.895   1.313   2.233
43584W        W16009  33.019   4.271  12.356
43585W        W16010   5.270  36.357  11.418
43586W        W16011  32.125  41.877  12.964
43587W        W16012  10.761  39.923  14.010
43588W        W16013  11.130  21.710  10.948
43589W        W16014   3.256  27.952   0.427
43590W        W16015  40.822   7.775  12.419
43591W        W16016  15.181  40.306   0.787
43592W        W16017  40.344   2.245   4.674
43593W        W16018   7.774   1.469   1.731
43594W        W16019  16.751  27.638   0.735
43595W        W16020  20.560  23.192   3.226
43596W        W16021  31.994   7.860   1.794
43597W        W16022  15.163  28.015  14.421
43598W        W16023   3.399  39.022  11.915
43599W        W16024  37.513   6.200   3.271
43600W        W16025  43.940   4.924  10.988
43601W        W16026  28.456  37.495   4.317
43602W        W16027  14.768  33.044  11.071
43603W        W16028  26.581   1.280   4.732
43604W        W16029  37.447   6.830   4.305
43605W        W16030   1.794  22.718   0.276
43606W        W16031   0.950   0.435   2.725
43607W        W16032   6.841  43.295   0.871
43608W        W16033  18.766  37.543   4.709
43609W        W16034  14.638   9.361   4.759
43610W        W16035  26.958  43.492   2.262
43611W        W16036  25.139  28.125  13.534
43612W        W16037  20.548  34.544  13.878
43613W        W16038  38.908  35.483  13.000
43614W        W16039  39.065  39.827  10.891
43615W        W16040  41.970   6.201   1.873
43616W        W16041  41.320   4.924  13.401
43617W        W16042  38.362  27.096   2.275
43618W        W16043  18.665  27.034  14.012
43619W        W16044  17.583  21.152  14.323
43620W        W16045  31.093  29.518   2.260
43621W        W16046   8.699  16.733   0.947
43622W        W16047  16.282  32.503   9.571
43623W        W16048  21.701   3.888  11.526
43624W        W16049  24.117  33.404  10.926
43625W        W16050  17.212  24.679   2.345
43626W        W16051   8.784  26.624   5.086
43627W        W16052  15.801  20.735   3.147
43628W        W16053  43.483  30.558  13.856
43629W        W16054  32.067  35.093  10.609
43630W        W16055  35.568  15.612   3.855
43631W        W16056  26.616  26.701   3.705
43632W        W16057  14.693   6.426   2.711
43633W        W16058  43.377   6.229   2.859
43634W        W16059   6.210  23.161   2.373
43635W        W16060  37.958  24.578  12.460
43636W        W16061   9.681  33.451   2.805
43637W        W16062  28.605  34.921   2.740
43638W        W16063  43.933  31.435   4.350
43639W        W16064   0.827  36.981  13.457
43640W        W16065   4.761  15.310  13.391
43641W        W16066  11.141  25.682   3.361
43642W        W16067  33.413  39.825   3.165
43643W        W16068   8.214  24.521   1.817
43644W        W16069  13.162  34.117   3.674
43645W        W16070  21.677  43.001   3.753
43646W        W16071   5.736  13.282   4.743
43647W        W16072  12.287   8.290  13.453
43648W        W16073   3.849  12.255  11.477
43649W        W16074  39.945  31.086  13.358
43650W        W16075  20.575  40.935  13.500
43651W        W16076  42.440   4.735  11.068
43652W        W16077   1.263  27.008  12.058
43653W        W16078  37.038  24.142  13.999
43654W        W16079  11.682  36.000   1.699
43655W        W16080  44.840  41.825  12.996
43656W        W16081  29.169   6.373   4.630
43657W        W16082  23.208   3.724   3.724
43658W        W16083  18.733  37.431   2.221
43659W        W16084  33.891   9.881   4.134
43660W        W16085  39.926   7.777  10.996
43661W        W16086  12.687   2.229  13.939
43662W        W16087  30.576   1.894   2.204
43663W        W16088  38.026  44.817  14.480
43664W        W16089  44.994   6.835  11.034
43665W        W16090  13.794  19.217   4.193
43666W        W16091  37.439  11.137  10.463
43667W        W16092  19.178  42.440  13.441
43668W        W16093   7.212  10.680   2.856
43669W        W16094  37.492   7.359   2.370
43670W        W16095  27.662  14.325  11.512
43671W        W16096  44.999  33.416   4.715
43672W        W16097  10.249  31.491   4.211
43673W        W16098  20.688  37.907  11.414
43674W        W16099   0.757   6.272  13.338
43675W        W16100  27.005  24.604  13.491
43676W        W16101  34.548  34.556  14.314
43677W        W16102  31.640  35.357  13.361
43678W        W16103  42.811  17.176   2.299
43679W        W16104   5.275   2.438  12.021
43680W        W16105  40.958   4.266  11.437
43681W        W16106   9.261  13.263  12.428
43682W        W16107  42.806   4.415  12.006
43683W        W16108  44.394  16.653  13.339
43684W        W16109  20.231  13.767   4.206
43685W        W16110  11.650  43.451  14.849
43686W        W16111  15.140   9.858  14.940
43687W        W16112   2.445   0.336   4.642
43688W        W16113  40.485  14.826   4.138
43689W        W16114  38.530  15.620  11.975
43690W        W16115  33.009  43.366  11.421
43691W        W16116  42.332   3.747  11.051
43692W        W16117   8.246  10.377   4.346
43693W        W16118  11.333   1.438   3.682
43694W        W16119  23.572  10.804   1.320
43695W        W16120  30.119  16.181   4.780
43696W        W16121  32.416  10.183   1.766
43697W        W16122  32.409  39.500  11.591
43698W        W16123  27.613  19.742  12.930
43699W        W16124  35.533   5.281   3.761
43700W        W16125  22.131  25.175   2.813
43701W        W16126  18.101  39.544   1.315
43702W        W16127  28.551  31.596   2.397
43703W        W16128   9.788   8.388  10.903
43704W        W16129  16.099  11.209   2.763
43705W        W16130  25.030  38.464  13.389
43706W        W16131  23.057   2.414  11.856
43707W        W16132  32.043  19.150  12.421
43708W        W16133  38.485  40.402  14.335
43709W        W16134  11.298   5.194   0.789
43710W        W16135  26.477  25.121  14.371
43711W        W16136  31.442  32.611  12.005
43712W        W16137  23.673  24.022  10.975
43713W        W16138   2.437  41.950   2.861
43714W        W16139   9.341  26.702  13.512
43715W        W16140   0.867  21.182   1.907
43716W        W16141  36.936   3.332  14.434
43717W        W16142  12.248   5.421   0.417
43718W        W16143   0.827   1.785   2.245
43719W        W16144  23.589   0.913  14.506
43720W        W16145  28.183  39.928   2.734
43721W        W16146   0.300  26.151   4.746
43722W        W16147   8.761   9.688  12.571
43723W        W16148  16.581  25.632   1.728
43724W        W16149  44.312  40.046   3.346
43725W        W16150  10.342   9.250  14.833
43726W        W16151  40.973   5.800   0.340
43727W        W16152   9.849  18.596   4.717
43728W        W16153   0.400  13.121   1.279
43729W        W16154  18.567  23.611  11.868
43730W        W16155  38.360  15.310   3.646
43731W        W16156   7.184  35.937   4.766
43732W        W16157  37.041  32.974  10.901
43733W        W16158   0.833  32.037   0.276
43734W        W16159  11.681  28.170   3.695
43735W        W16160  25.702  31.069  11.390
43736W        W16161  39.970  34.928   3.200
43737W        W16162   0.976  39.841  12.833
43738W        W16163  11.622  44.383   5.083
43739W        W16164  15.769   0.744   2.341
43740W        W16165  26.997  11.133  13.374
43741W        W16166   4.438  16.570  12.056
43742W        W16167  35.097   0.490  11.966
43743W        W16168   3.228  38.509   2.824
43744W        W16169   0.454  44.308   1.378
43745W        W16170   8.753  15.201   3.670
43746W        W16171  41.307  15.623   1.401
43747W        W16172  44.310   9.718  12.575
43748W        W16173  14.324  23.627  14.784
43749W        W16174  41.354   0.965  14.869
43750W        W16175  13.820   8.771  12.032
43751W        W16176  18.246  34.059   3.218
43752W        W16177  13.157   7.172  13.826
43753W        W16178  31.027   6.800  13.435
43754W        W16179   8.243  13.270  14.007
43755W        W16180  24.074  43.291  13.535
43756W        W16181  27.195  31.538   3.726
43757W        W16182   7.316  27.570   1.241
43758W        W16183  18.741  37.007  14.868
43759W        W16184   4.896  35.089  10.478
43760W        W16185  10.803  39.941  11.465
43761W        W16186  27.548  19.204  11.582
43762W        W16187   2.897  13.199  10.409
43763W        W16188   0.309  33.126  14.007
43764W        W16189   3.872  16.583  14.277
43765W        W16190  19.613  19.199  14.815
43766W        W16191  14.634  29.100  14.340
43767W        W16192  37.936  12.612   0.379
43768W        W16193  10.166   8.841  13.857
43769W        W16194  13.169  17.279  10.907
43770W        W16195  33.895  22.673   2.408
43771W        W16196  18.661  13.116   4.186
43772W        W16197  30.907  31.593  13.041
43773W        W16198  30.491   4.862  10.596
43774W        W16199  35.967  31.537  13.409
43775W        W16200  30.090  43.931   2.709
43776W        W16201  34.596  20.626   2.837
43777W        W16202  33.620  10.293   3.767
43778W        W16203  29.609  34.483  14.005
43779W        W16204  34.475  22.687   0.280
43780W        W16205  11.654  27.489   2.221
43781W        W16206  44.455  33.435   9.674
43782W        W16207  42.807   2.934   4.658
43783W        W16208  43.833  14.811  13.001
43784W        W16209   8.307  25.505  13.956
43785W        W16210   6.327  36.911  14.384
43786W        W16211  24.559  38.485  11.011
43787W        W16212  41.429  29.620  11.532
43788W        W16213   4.886  44.884  13.398
43789W        W16214   0.280  11.867   1.845
43790W        W16215  39.504  40.947  11.011
43791W        W16216  41.854  37.857  12.094
43792W        W16217  25.181  10.242  10.464
43793W        W16218  32.484  29.951   2.664
43794W        W16219  19.673  29.453  14.783
43795W        W16220  31.922   2.895  11.888
43796W        W16221   2.404   2.797  11.115
43797W        W16222  40.536  16.216   2.695
43798W        W16223  27.960  21.580   1.846
43799W        W16224  37.394  37.995   4.837
43800W        W16225  38.014  41.478  13.817
43801W        W16226   7.766  30.416  14.295
43802W        W16227   7.292  33.408  14.876
43803W        W16228  20.606  12.153  10.640
43804W        W16229  24.091  20.717  11.492
43805W        W16230  23.570  24.716   1.726
43806W        W16231  40.421  36.382   3.782
43807W        W16232  10.802  40.446   0.459
43808W        W16233  28.980  37.863   4.638
43809W        W16234  33.618  31.483   2.716
43810W        W16235   4.243  34.482   4.610
43811W        W16236  44.478  13.743   2.809
43812W        W16237   5.700  24.091  12.846
43813W        W16238   3.733  11.643  10.978
43814W        W16239  39.956  10.836  14.965
43815W        W16240  39.372  15.258  14.965
43816W        W16241  19.616  43.424   2.818
43817W        W16242  15.797  39.851  14.989
43818W        W16243  21.196  17.677   2.714
43819W        W16244   8.377  35.410  10.999
43820W        W16245   0.351   2.865   2.892
43821W        W16246  41.958  33.563   3.244
43822W        W16247  16.645  22.541   1.393
43823W        W16248  44.990  21.107  14.880
43824W        W16249  40.397  37.451   2.764
43825W        W16250   9.773  19.577  13.369
43826W        W16251   4.831  37.495   9.995
43827W        W16252  13.137   2.314   2.400
43828W        W16253  30.649  30.599   2.397
43829W        W16254  12.654  28.594  13.942
43830W        W16255  32.990  18.182   4.129
43831W        W16256  23.195  26.678   4.176
43832W        W16257  22.053   6.775   2.316
43833W        W16258  30.135  39.812   1.795
43834W        W16259  41.508  42.285  14.893
43835W        W16260  26.035   6.683   4.117
43836W        W16261   4.257  11.623   3.384
43837W        W16262   1.895   9.194  11.082
43838W        W16263  19.744  17.670   1.264
43839W        W16264   8.676  23.643  12.450
43840W        W16265   0.258  10.785   2.866
43841W        W16266  11.716  33.573  10.001
43842W        W16267   1.355  34.961  14.002
43843W        W16268  35.998  20.618  14.794
43844W        W16269  26.669  42.955  10.432
43845W        W16270   4.336  18.253  14.420
43846W        W16271  15.265  15.287  11.107
43847W        W16272  18.602  37.464  13.478
43848W        W16273  31.465   9.312  12.007
43849W        W16274   6.792  32.924  14.977
43850W        W16275   6.315  13.255  11.425
43851W        W16276  24.103   3.917  13.350
43852W        W16277  37.847   2.769   2.889
43853W        W16278  35.397   3.312  10.533
43854W        W16279  38.440   8.879   0.319
43855W        W16280  44.835   7.891  10.891
43856W        W16281  39.839  44.758   0.415
43857W        W16282   7.219  25.619   3.729
43858W        W16283   3.303  27.958  12.382
43859W        W16284  33.882  31.510   1.414
43860W        W16285  28.081  41.304  13.867
43861W        W16286  16.214  24.510   1.927
43862W        W16287   5.320  16.633   0.273
43863W        W16288  36.931   6.217  11.944
43864W        W16289  27.530   8.709   1.923
43865W        W16290   0.394  34.089  13.033
43866W        W16291  34.551  44.932  12.416
43867W        W16292  43.906  25.475   4.611
43868W        W16293  14.765  44.988   4.740
43869W        W16294  11.351  34.563   2.297
43870W        W16295  34.507   9.386  10.111
43871W        W16296  31.905   5.695   1.289
43872W        W16297  36.975  35.485  10.522
43873W        W16298  21.537  24.087  11.602
43874W        W16299  23.091  27.555  10.534
43875W        W16300  12.653  32.046  11.508
43876W        W16301  40.481  12.133   3.750
43877W        W16302  18.652  38.431  12.078
43878W        W16303  32.537  37.906  11.406
43879W        W16304  44.896  28.172  14.455
43880W        W16305  23.997  34.559   0.859
43881W        W16306  25.472  15.719   3.221
43882W        W16307  29.031  30.955   3.658
43883W        W16308  21.558  41.855   1.249
43884W        W16309  14.825  28.025   5.274
43885W        W16310  22.140  39.434   1.857
43886W        W16311  42.383  25.598   2.400
43887W        W16312   2.824  39.502  12.353
43888W        W16313  24.166  33.458  10.105
43889W        W16314   4.239   4.887   2.785
43890W        W16315  44.847  14.720   1.418
43891W        W16316  26.575  38.487  10.965
43892W        W16317  14.313  13.223   4.217
43893W        W16318   6.878  21.183  10.604
43894W        W16319   1.899  38.383  11.016
43895W        W16320  39.865  13.819   3.732
43896W        W16321   1.858  16.268   2.305
43897W        W16322  14.271  16.220   3.311
43898W        W16323   7.760  28.533  13.452
43899W        W16324  17.108   2.444  10.406
43900W        W16325  34.979  42.900   3.263
43901W        W16326  26.599   8.339   3.268
43902W        W16327   7.228  12.661  11.573
43903W        W16328  43.896   0.970   2.812
43904W        W16329  18.633  34.461   2.700
43905W        W16330  27.163  17.289  10.902
43906W        W16331  10.327  16.757   4.609
43907W        W16332  25.611  24.592   4.641
43908W        W16333  22.558   7.237  12.551
43909W        W16334  42.806   7.860   4.804
43910W        W16335  13.603  35.587   4.804
43911W        W16336  14.336   7.747   2.893
43912W        W16337  13.235   8.251   2.696
43913W        W16338   9.792  38.543   4.623
43914W        W16339   3.277  12.838   4.618
43915W        W16340  21.744  35.563   1.362
43916W        W16341  28.665  17.686   2.192
43917W        W16342  25.047  16.193  11.911
43918W        W16343  11.683  43.516   3.159
43919W        W16344   0.928  44.925  13.957
43920W        W16345  14.339  11.733   3.652
43921W        W16346   1.969  17.794   0.268
43922W        W16347   7.733  26.641  10.454
43923W        W16348   7.763  26.472  13.324
43924W        W16349   4.765  40.346  14.274
43925W        W16350  11.139   7.681   1.753
43926W        W16351   7.248  20.617   0.408
43927W        W16352  31.009  23.600   3.845
43928W        W16353  34.960  10.165   2.307
43929W        W16354  21.686  41.978  10.934
43930W        W16355  18.604  23.684  14.813
43931W        W16356  29.597  11.693   5.083
43932W        W16357  37.856  16.085  14.275
43933W        W16358  42.523  38.422  13.499
43934W        W16359  17.168  26.139   2.683
43935W        W16360  25.210   6.861   0.296
43936W        W16361  36.966  25.656  12.917
43937W        W16362  17.155   5.380   0.475
43938W        W16363   6.187  12.760  13.019
43939W        W16364   1.778  24.591  11.583
43940W        W16365  12.633  39.982  14.996
43941W        W16366  35.517  10.376   3.747
43942W        W16367  38.915   2.242  10.890
43943W        W16368  37.567  27.637   2.846
43944W        W16369  14.177  13.300   0.958
43945W        W16370  23.060  28.948   0.785
43946W        W16371  33.416   4.378   4.687
43947W        W16372  31.130  14.295  10.563
43948W        W16373   9.303  41.883  11.503
43949W        W16374   0.978  24.680   1.334
43950W        W16375  29.598  35.566  13.400
43951W        W16376   6.223  28.647   2.359
43952W        W16377  33.575  13.795  11.871
43953W        W16378  13.269   5.796  11.451
43954W        W16379  24.173   7.244  11.949
43955W        W16380  31.022  28.093  13.486
43956W        W16381  28.984  35.975   3.251
43957W        W16382  44.492   1.833   4.710
43958W        W16383  19.182  13.688  14.001
43959W        W16384  20.055  39.421   4.791
43960W        W16385   2.415  12.267   3.794
43961W        W16386   6.265   6.341  12.469
43962W        W16387  26.108  26.536   4.832
43963W        W16388  30.067  10.758   4.135
43964W        W16389  16.775  15.148  11.951
43965W        W16390  17.227   9.174  11.872
43966W        W16391  43.839  24.023  14.012
43967W        W16392   5.718  21.592   3.680
43968W        W16393   2.254  17.065  11.080
43969W        W16394  39.062  18.755   4.271
43970W        W16395  15.580  27.532  12.908
43971W        W16396   7.191  21.142  13.351
43972W        W16397   0.457  41.421   3.691
43973W        W16398  17.202  37.919   3.331
43974W        W16399  27.585  19.725   1.404
43975W        W16400  18.775  23.051   4.136
43976W        W16401  17.095   9.171   2.345
43977W        W16402  40.397  40.426  13.382
43978W        W16403  11.368  26.510  14.967
43979W        W16404  11.188  27.943  13.530
43980W        W16405  12.304   8.885  13.420
43981W        W16406  39.425   8.855   2.761
43982W        W16407   5.689  31.964  12.357
43983W        W16408  26.117  13.777   1.796
43984W        W16409  43.849  21.145   1.248
43985W        W16410  40.471   8.402  11.482
43986W        W16411  12.275   1.929   1.409
43987W        W16412  37.434  16.583  11.929
43988W        W16413  39.969  44.381  11.417
43989W        W16414   0.948  19.685  11.945
43990W        W16415  12.305  20.234  13.903
43991W        W16416  35.920  10.834  10.468
43992W        W16417   0.356   0.406  13.313
43993W        W16418  11.646  21.622  13.819
43994W        W16419  43.780  42.464   3.859
43995W        W16420  25.973  41.387   4.721
43996W        W16421  33.030   7.854  10.965
43997W        W16422  19.274  24.651  13.452
43998W        W16423  16.676   6.726  14.436
43999W        W16424  42.515  22.582  12.016
44000W        W16425  19.580   7.303  11.466
44001W        W16426  40.879  11.636  12.341
44002W        W16427  19.173  40.362  14.979
44003W        W16428  28.601  21.742  13.961
44004W        W16429  36.033  36.416   1.394
44005W        W16430  37.890  20.614  14.823
44006W        W16431  11.208  30.929   3.305
44007W        W16432  43.506  29.959  14.329
44008W        W16433  20.647  38.828  12.826
44009W        W16434   7.365  12.290   1.302
44010W        W16435  25.107  28.951  10.448
44011W        W16436  37.546  12.684   3.781
44012W        W16437  18.759  44.902  14.303
44013W        W16438   3.794  28.934  12.085
44014W        W16439  37.522  38.850   3.182
44015W        W16440  29.958  32.091   4.212
44016W        W16441   8.308  17.062  12.384
44017W        W16442  40.526  23.575  11.907
44018W        W16443  38.869  40.984   4.701
44019W        W16444  26.456   6.779   4.724
44020W        W16445   8.263   3.952   3.356
44021W        W16446  44.991  28.565   4.774
44022W        W16447  31.583  21.625   1.775
44023W        W16448  16.199  21.739  12.514
44024W        W16449  17.247  42.370  13.532
44025W        W16450  24.724  31.965  13.376
44026W        W16451  10.858  25.677   2.696
44027W        W16452  16.726   3.870   0.304
44028W        W16453  23.040  38.400  13.332
44029W        W16454  25.130  21.725   0.395
44030W        W16455  22.206  15.299   4.337
44031W        W16456  13.833  20.105   3.827
44032W        W16457  26.977  34.543  14.912
44033W        W16458  32.567  32.408  13.031
44034W        W16459  35.357   3.866  14.514
44035W        W16460   0.901  36.402   1.347
44036W        W16461  37.471  41.439  14.826
44037W        W16462   7.856  40.495  13.355
44038W        W16463  25.043  20.113  13.953
44039W        W16464  23.068  27.976   1.337
44040W        W16465  25.990   2.901   1.722
44041W        W16466  13.222  36.053   0.471
44042W        W16467   9.715  10.835   0.803
44043W        W16468  42.928  34.966  13.869
44044W        W16469  41.338  23.616   3.646
44045W        W16470  36.505   3.895   0.809
44046W        W16471  37.084  24.050  13.012
44047W        W16472  27.447  35.375  13.986
44048W        W16473  12.204  41.843   2.415
44049W        W16474  18.701  43.990   0.778
44050W        W16475   5.406  26.996   0.442
44051W        W16476   1.760  41.319  13.362
44052W        W16477   5.706  44.315  12.449
44053W        W16478  14.199  21.259  14.438
44054W        W16479  43.451  20.258   0.929
44055W        W16480  40.405  30.089   2.670
44056W        W16481  44.772  24.994  13.864
44057W        W16482  35.063  17.160   5.096
44058W        W16483  25.077  37.524   2.847
44059W        W16484  27.562  40.939  10.616
44060W        W16485  26.637   7.193   0.935
44061W        W16486  38.890  16.216   0.920
44062W        W16487  13.177  15.766  14.003
44063W        W16488  30.018  13.606  10.543
44064W        W16489  18.593  33.044  13.827
44065W        W16490  31.510   6.777  11.409
44066W        W16491  33.393  31.090  11.101
44067W        W16492  39.361   8.192   2.736
44068W        W16493  18.054  43.330  13.368
44069W        W16494  42.022  15.810  14.277
44070W        W16495  17.719  34.418  14.831
44071W        W16496  29.428   7.864   1.211
44072W        W16497  41.932  21.621  12.944
44073W        W16498  39.418   7.215  11.989
44074W        W16499   8.251  35.889   4.212
44075W        W16500  25.541  34.469   1.372
44076W        W16501  33.562  25.132  12.888
44077W        W16502   5.369  13.800  14.317
44078W        W16503  17.611  10.639  11.064
44079W        W16504   5.796   7.868  12.902
44080W        W16505   2.283  28.125  10.913
44081W        W16506  42.986  17.563   0.825
44082W        W16507  13.193  34.890  13.477
44083W        W16508  36.844  11.700  10.434
44084W        W16509  32.511  26.524  11.061
44085W        W16510  21.529  33.440  13.382
44086W        W16511  30.106   2.431   4.604
44087W        W16512  10.153  33.559  13.809
44088W        W16513  16.272  24.066  14.335
44089W        W16514  12.175  13.145   2.874
44090W        W16515  15.694  32.552   1.281
44091W        W16516  44.333  19.172  10.479
44092W        W16517  14.325  41.340  11.959
44093W        W16518   4.395  20.758   1.231
44094W        W16519  35.584  35.476   3.351
44095W        W16520  43.873  17.144   0.374
44096W        W16521  17.778  18.754   3.752
44097W        W16522  31.898  10.709   4.218
44098W        W16523  38.070  44.320   0.411
44099W        W16524  24.708  28.455   1.437
44100W        W16525  37.442  39.046   2.770
44101W        W16526  25.530   4.908  12.449
44102W        W16527  36.490  26.627  14.330
44103W        W16528  15.797  16.780   4.752
44104W        W16529  41.464   9.727  13.522
44105W        W16530   5.916  44.790  13.023
44106W        W16531  20.717  44.318   3.809
44107W        W16532  21.649   2.441   1.370
44108W        W16533   1.773  32.539   0.797
44109W        W16534  12.694  42.011   2.901
44110W        W16535  19.627  19.779  12.994
44111W        W16536  16.728  12.190  13.893
44112W        W16537  14.772   5.419  12.529
44113W        W16538   3.782  29.480  11.880
44114W        W16539  16.742   2.442  10.419
44115W        W16540  27.456  36.847   2.776
44116W        W16541  17.668  32.034   2.795
44117W        W16542   6.380  16.595  14.318
44118W        W16543   9.351   9.209   2.194
44119W        W16544  25.976  10.239  10.489
44120W        W16545  33.091  18.129   0.404
44121W        W16546  31.490  33.002  13.341
44122W        W16547  17.175  25.163   4.286
44123W        W16548  39.363  26.556   2.810
44124W        W16549  12.202   7.716  13.908
44125W        W16550   1.370  14.770   3.834
44126W        W16551  33.607   9.792   1.350
44127W        W16552   8.196  19.070  14.275
44128W        W16553   1.317  24.720  11.865
44129W        W16554  31.636  42.920   2.323
44130W        W16555   0.834  42.982  14.021
44131W        W16556   8.259   9.703   0.259
44132W        W16557  40.812  11.822   2.372
44133W        W16558  18.602  12.127   0.380
44134W        W16559  37.992  30.598   2.368
44135W        W16560  12.189  12.770   1.853
44136W        W16561   7.243   2.820   3.632
44137W        W16562   2.279  33.984  11.399
44138W        W16563  39.404  18.263   1.346
44139W        W16564  15.137  14.610   2.273
44140W        W16565  34.419  36.466   2.399
44141W        W16566  20.652  40.464  13.418
44142W        W16567   2.261  14.671   1.246
44143W        W16568  32.988  21.617  14.515
44144W        W16569  25.011   0.742   5.138
44145W        W16570  30.982   2.467  11.985
44146W        W16571   3.437  27.689  11.493
44147W        W16572  35.436   8.854   3.301
44148W        W16573  38.953   5.321   3.736
44149W        W16574  31.979  18.640   3.761
44150W        W16575  44.759   4.749   0.940
44151W        W16576  42.385  17.754  12.509
44152W        W16577   9.160  19.734  11.540
44153W        W16578  23.026  26.002  14.957
44154W        W16579  12.243  36.409  11.123
44155W        W16580  21.535  18.597   3.183
44156W        W16581   5.711  26.107  12.006
44157W        W16582  13.265  11.317  13.382
44158W        W16583  13.129  22.629   5.663
44159W        W16584   9.829  44.279   0.245
44160W        W16585  10.851  38.970  14.317
44161W        W16586  12.322  33.536   3.818
44162W        W16587   4.384  16.614   3.847
44163W        W16588  22.648  39.460   4.699
44164W        W16589   1.402  38.068   2.321
44165W        W16590  23.188   0.374   1.707
44166W        W16591   6.317  31.604  12.341
44167W        W16592  39.502  29.057  11.107
44168W        W16593   1.397   6.223   3.720
44169W        W16594  10.322   2.888   3.205
44170W        W16595  29.023  19.572  12.532
44171W        W16596  42.867  30.128   3.154
44172W        W16597  30.037  24.657  10.475
44173W        W16598  13.216  20.707   1.312
44174W        W16599  15.735  11.151   1.407
44175W        W16600   7.326  42.991   3.642
44176W        W16601  27.178  21.104   3.184
44177W        W16602   4.740  11.341   3.716
44178W        W16603  17.197   3.333   4.616
44179W        W16604  18.658  35.569  13.422
44180W        W16605  16.080  28.938   4.166
44181W        W16606   6.843  35.092  11.103
44182W        W16607   7.870   4.876  14.510
44183W        W16608  40.802  15.765   4.661
44184W        W16609  35.859  21.581  14.820
44185W        W16610   2.726   2.784  11.068
44186W        W16611  23.012  15.692  14.402
44187W        W16612  25.126  36.045  14.996
44188W        W16613   6.750  12.683  13.006
44189W        W16614  29.111  14.239  13.878
44190W        W16615  12.353  28.494  10.531
44191W        W16616  16.654  38.911   1.777
44192W        W16617  27.085   5.233  14.311
44193W        W16618   2.283  14.717   3.187
44194W        W16619  28.448  12.684   3.268
44195W        W16620  34.535  19.133   2.296
44196W        W16621  22.202  12.794  12.429
44197W        W16622   8.892  42.428  11.078
44198W        W16623  29.474  29.518   4.617
44199W        W16624  11.283  12.222  14.781
44200W        W16625  41.304  40.449   2.807
44201W        W16626  39.862   1.858   0.794
44202W        W16627  40.888  20.084   1.451
44203W        W16628  35.603  11.259  13.815
44204W        W16629   2.455  21.612   3.735
44205W        W16630  24.112   9.649  14.484
44206W        W16631  28.640  39.015   3.205
44207W        W16632  37.490  26.075   1.338
44208W        W16633  44.766  13.844   2.841
44209W        W16634  21.589  24.128   3.669
44210W        W16635  35.065  23.999   9.984
44211W        W16636  32.060  12.175  12.976
44212W        W16637  28.491  34.598   3.643
44213W        W16638  42.977   3.755   0.922
44214W        W16639  43.970   6.795  13.056
44215W        W16640  34.096   9.392  14.794
44216W        W16641  37.385  27.010   4.687
44217W        W16642   1.970   7.203  13.894
44218W        W16643  31.402  33.089  13.007
44219W        W16644  30.451  29.508   4.717
44220W        W16645  43.377  44.843  12.485
44221W        W16646  41.472   2.763   0.748
44222W        W16647  35.913  38.522   2.745
44223W        W16648  42.824  41.325  12.827
44224W        W16649  11.133  18.294  10.906
44225W        W16650  16.586  35.578  12.076
44226W        W16651  25.150   2.468  10.506
44227W        W16652  31.504  27.005   2.319
44228W        W16653  33.604  23.528   2.284
44229W        W16654  38.834  34.549  13.382
44230W        W16655  15.770  44.273  12.450
44231W        W16656   4.449  20.728  13.805
44232W        W16657   2.843  16.175   2.348
44233W        W16658  19.095  33.501  10.918
44234W        W16659  23.686  21.720  11.527
44235W        W16660   5.728   8.315  13.892
44236W        W16661   9.154  20.753  14.287
44237W        W16662  13.796  29.446  11.439
44238W        W16663  22.222  33.971   1.751
44239W        W16664   9.367  33.439   2.330
44240W        W16665   9.339  24.090   1.400
44241W        W16666  36.424  26.541  14.015
44242W        W16667  43.412  42.027  12.370
44243W        W16668  10.207  24.135   2.850
44244W        W16669  41.352  15.604   4.683
44245W        W16670  26.647  26.626   5.125
44246W        W16671  11.794  36.892  11.962
44247W        W16672  12.129  37.016   4.252
44248W        W16673  28.983  34.923  10.617
44249W        W16674  14.785  15.764  10.501
44250W        W16675  12.277  43.459   3.196
44251W        W16676  30.533  44.403  13.422
44252W        W16677   0.409   2.405   2.364
44253W        W16678  18.758  24.616  13.008
44254W        W16679  27.483  25.674   4.285
44255W        W16680  23.991  16.595   1.440
44256W        W16681  10.222   6.885  14.857
44257W        W16682   0.458  23.622   2.368
44258W        W16683  11.317   3.361  11.405
44259W        W16684  39.481  22.559  14.369
44260W        W16685  19.099  39.059  13.471
44261W        W16686  18.194  23.130   0.781
44262W        W16687  29.508  26.577  14.939
44263W        W16688  18.222  23.717  11.007
44264W        W16689  17.572  19.272  11.110
44265W        W16690  22.120  24.647  12.981
44266W        W16691  11.767  44.341  14.514
44267W        W16692  27.991  42.897   5.259
44268W        W16693  24.609  30.081   1.893
44269W        W16694  30.988  34.546  11.416
44270W        W16695  11.341  30.652  11.013
44271W        W16696  36.534  43.811  13.927
44272W        W16697  37.895   2.310   0.354
44273W        W16698  22.036  14.667   4.199
44274W        W16699   9.719  24.157   4.699
44275W        W16700  36.881   8.331   4.233
44276W        W16701  38.424   3.352   4.734
44277W        W16702   5.254   2.358  13.416
44278W        W16703  40.021   5.403  13.318
44279W        W16704  19.540  40.033   3.674
44280W        W16705  36.064   4.827   1.736
44281W        W16706   6.397   0.949  11.414
44282W        W16707   0.347  25.187  14.904
44283W        W16708   4.409  25.150   3.775
44284W        W16709  21.176   8.379  14.969
44285W        W16710   0.370  33.458  11.961
44286W        W16711   8.778  23.546  13.819
44287W        W16712  20.234  13.288   2.759
44288W        W16713   9.669  19.210  11.450
44289W        W16714  10.864  10.232  12.382
44290W        W16715  21.159   3.414   1.346
44291W        W16716  35.400  35.006   3.737
44292W        W16717  18.099  40.860   3.858
44293W        W16718  10.710   2.336   0.891
44294W        W16719   0.380  26.669   3.769
44295W        W16720  44.011  10.676  13.470
44296W        W16721  16.651  25.020  11.073
44297W        W16722  14.760  12.147   2.738
44298W        W16723  25.007  19.651   2.378
44299W        W16724  23.530  43.501  11.501
44300W        W16725   9.793  44.323   1.698
44301W        W16726  37.006  10.635  11.406
44302W        W16727   3.804  10.325  11.409
44303W        W16728   7.187  37.983   1.337
44304W        W16729  19.640  41.917   1.361
44305W        W16730   9.352  10.307   3.765
44306W        W16731  41.787  25.684  13.869
44307W        W16732  38.835  11.624   1.432
44308W        W16733  32.408   7.840  13.041
44309W        W16734  20.559  41.436   3.788
44310W        W16735  44.802  10.263  11.588
44311W        W16736  43.449  38.994   1.714
44312W        W16737  36.914   7.415  12.828
44313W        W16738  29.622   1.434   1.882
44314W        W16739  33.444  39.438  14.953
44315W        W16740  17.251  19.718  11.075
44316W        W16741  28.143  41.378  10.466
44317W        W16742  19.579  22.695   0.870
44318W        W16743  23.183  20.265   0.265
44319W        W16744   5.371   2.346  13.818
44320W        W16745  29.006  24.065  11.450
44321W        W16746  37.887  15.148  13.029
44322W        W16747  10.281  37.839   1.401
44323W        W16748  36.368  17.747   2.300
44324W        W16749  34.061   8.856  10.595
44325W        W16750   7.195  10.383  11.527
44326W        W16751  34.062  13.241  14.023
44327W        W16752  41.033   6.337  13.939
44328W        W16753  21.523  38.420   2.880
44329W        W16754  19.172  30.637   0.856
44330W        W16755   2.932  44.780  13.039
44331W        W16756  37.963   1.734  13.423
44332W        W16757  43.831   7.812  14.483
44333W        W16758   9.300  24.145  14.407
44334W        W16759   1.817   6.845   4.793
44335W        W16760  27.549  44.424   0.867
44336W        W16761  27.112  42.466   4.766
44337W        W16762  26.024  22.023  13.527
44338W        W16763  16.575  25.075   4.304
44339W        W16764  42.525  20.052  11.984
44340W        W16765  41.426  35.054   0.886
44341W        W16766   0.300  26.683   1.253
44342W        W16767  12.251   4.887  14.445
44343W        W16768  26.983  10.204  13.412
44344W        W16769  20.232  43.422  13.367
44345W        W16770  16.748  39.865   4.312
44346W        W16771  20.152  22.146   4.229
44347W        W16772   7.806   8.792   1.370
44348W        W16773  29.040   4.732   3.151
44349W        W16774  21.642  21.160  11.939
44350W        W16775  17.143  44.465   3.788
44351W        W16776   6.274   8.823  10.465
44352W        W16777  38.831  35.421   0.390
44353W        W16778   9.783  14.273   2.231
44354W        W16779  26.147  22.179   1.232
44355W        W16780  33.475  44.298   1.438
44356W        W16781  12.672  37.035  11.070
44357W        W16782   6.904   1.354   1.752
44358W        W16783  27.505  43.385  11.973
44359W        W16784   6.219   4.767  14.355
44360W        W16785  14.776  43.828   4.653
44361W        W16786  20.647  25.661   3.313
44362W        W16787  15.218   3.808   3.334
44363W        W16788  18.073  32.928   2.876
44364W        W16789   7.401  35.507  13.887
44365W        W16790   7.704  30.936  10.416
44366W        W16791  38.060  42.882  14.361
44367W        W16792  43.509  28.964   4.167
44368W        W16793   1.438  44.840  14.989
44369W        W16794  14.253   4.896   5.086
44370W        W16795   7.669   5.310   0.304
44371W        W16796   4.713  39.860   9.935
44372W        W16797   9.672  42.283   4.184
44373W        W16798  30.967  44.296   2.254
44374W        W16799  38.327  24.589  13.320
44375W        W16800  14.755  25.998  14.511
44376W        W16801  42.791  35.943  12.344
44377W        W16802  11.358  14.260   4.268
44378W        W16803  42.467  22.097   0.906
44379W        W16804   5.725   6.221  14.922
44380W        W16805  41.452   2.243  10.621
44381W        W16806   2.731  18.080   3.684
44382W        W16807  11.752  15.658  13.833
44383W        W16808  26.990   5.258  12.572
44384W        W16809   5.280  11.371   1.327
44385W        W16810  32.938   3.930  12.557
44386W        W16811  13.236  18.729  10.009
44387W        W16812  42.478  30.465  11.103
44388W        W16813  12.362   2.246   3.161
44389W        W16814   5.345  44.788   0.774
44390W        W16815  14.777  16.161   4.157
44391W        W16816   5.875  17.623   4.199
44392W        W16817  16.175   1.267  13.881
44393W        W16818  12.287  36.081  11.119
44394W        W16819  31.405  26.666   3.782
44395W        W16820   5.378  42.032  11.491
44396W        W16821   7.705  27.993   3.700
44397W        W16822  34.946  19.151   2.293
44398W        W16823  31.131  10.761   0.294
44399W        W16824   6.789   0.832   0.337
44400W        W16825  32.439  19.720   2.346
44401W        W16826  19.130  27.536   4.684
44402W        W16827  35.530  20.541   1.935
44403W        W16828  12.166   5.801  14.435
44404W        W16829  31.935  22.079  14.955
44405W        W16830   7.666  32.446   2.183
44406W        W16831  42.361  25.014   3.799
44407W        W16832  14.810  29.569   4.309
44408W        W16833  40.434  10.293  14.765
44409W        W16834  18.685  43.795  13.977
44410W        W16835  27.668  26.059  12.362
44411W        W16836   9.292  14.341   3.675
44412W        W16837  39.838  40.489   4.638
44413W        W16838  43.927  29.170  14.902
44414W        W16839  13.154  15.203  12.345
44415W        W16840  41.497  17.773   2.805
44416W        W16841   0.395  34.119   4.639
44417W        W16842  23.185  14.623  14.384
44418W        W16843  43.317  40.510   4.701
44419W        W16844   3.414  29.125   2.200
44420W        W16845   0.853   3.903   0.272
44421W        W16846  12.696  31.150  12.847
44422W        W16847  43.373  20.054  13.930
44423W        W16848  27.009   5.875  13.007
44424W        W16849  39.391   3.340   1.834
44425W        W16850  36.873   2.362   1.733
44426W        W16851   2.864  15.752   1.279
44427W        W16852  35.109  10.155  13.958
44428W        W16853  13.775  19.678  13.520
44429W        W16854  19.133  23.528  10.993
44430W        W16855  17.209   2.894  13.856
44431W        W16856  40.859  44.975   3.171
44432W        W16857  29.926  10.344   2.299
44433W        W16858  29.952   6.266  13.912
44434W        W16859  27.540  12.183  13.929
44435W        W16860  41.425  32.529   4.831
44436W        W16861   8.391  42.853  12.940
44437W        W16862  38.350  18.744  10.410
44438W        W16863   1.876   4.805  13.006
44439W        W16864   0.350  37.408   1.746
44440W        W16865   7.356  30.460   0.250
44441W        W16866  23.699  26.201   4.720
44442W        W16867  39.965  15.713  14.327
44443W        W16868  18.226  28.537   0.359
44444W        W16869   2.380  14.609  14.843
44445W        W16870  44.463  42.520   2.297
44446W        W16871   1.464   7.292  14.454
44447W        W16872  35.977  12.351   1.235
44448W        W16873   7.325  23.012   4.312
44449W        W16874   8.267  41.963   1.798
44450W        W16875  22.212  34.517   1.851
44451W        W16876  19.580  11.139  12.853
44452W        W16877  19.759  40.411   3.370
44453W        W16878  37.411  32.412  11.069
44454W        W16879   0.977  41.877  13.337
44455W        W16880  44.779  32.615   0.352
44456W        W16881  26.201  37.901  11.030
44457W        W16882   9.768  11.138  14.765
44458W        W16883  17.093  29.170   2.889
44459W        W16884  10.826  40.992   3.758
44460W        W16885  28.575  27.143   2.785
44461W        W16886  40.054  17.688   4.213
44462W        W16887  19.776  28.458   3.842
44463W        W16888   1.951  22.222  12.840
44464W        W16889  22.697  29.447   1.699
44465W        W16890  36.002  44.904   3.339
44466W        W16891  14.600   3.417   2.753
44467W        W16892  30.918  29.004  10.112
44468W        W16893  29.985  43.944   0.282
44469W        W16894  12.732   9.272   4.144
44470W        W16895  11.621  10.351  11.474
44471W        W16896  24.685  18.145  13.030
44472W        W16897  35.014  41.361   1.850
44473W        W16898   5.303   7.863   3.281
44474W        W16899   2.765  30.100   1.222
44475W        W16900  34.992   0.745  12.889
44476W        W16901  21.649  17.736   3.191
44477W        W16902  22.015  34.415   0.376
44478W        W16903  42.404  30.070  14.857
44479W        W16904  22.552   1.337  14.758
44480W        W16905   8.734   3.951  13.919
44481W        W16906   7.256  25.016  14.287
44482W        W16907  21.195  35.508   1.259
44483W        W16908  34.013  36.944   4.734
44484W        W16909  30.068   7.411   0.245
44485W        W16910  30.585  36.991   1.398
44486W        W16911   3.875  43.790   3.779
44487W        W16912  18.769  12.758  13.524
44488W        W16913  13.786  15.815   4.342
44489W        W16914  43.873   4.848   1.247
44490W        W16915  27.602  31.603   3.800
44491W        W16916  13.766  26.687   2.680
44492W        W16917   3.385  30.554   2.284
44493W        W16918  24.527  42.297   1.842
44494W        W16919  13.743  42.799  13.028
44495W        W16920  27.647  22.601  14.775
44496W        W16921   6.354  40.493  10.117
44497W        W16922  16.305   3.386   1.898
44498W        W16923   3.321  28.555  12.088
44499W        W16924  38.988  22.631  11.545
44500W        W16925  42.917   7.415  10.988
44501W        W16926  27.563  22.069   9.963
44502W        W16927  29.506  33.890   0.741
44503W        W16928  34.105  18.267  11.874
44504W        W16929  20.055  21.021   1.826
44505W        W16930  25.181  42.457   3.210
44506W        W16931  19.712  24.484   4.270
44507W        W16932   6.284  10.831  14.304
44508W        W16933   9.365  16.196   0.774
44509W        W16934  13.778  26.978  11.500
44510W        W16935  30.654   5.794   1.446
44511W        W16936  18.091  37.971   0.252
44512W        W16937   7.834  41.465  13.050
44513W        W16938  11.127  27.581   1.322
44514W        W16939   5.372  17.279  14.778
44515W        W16940  24.720  14.683   0.391
44516W        W16941  23.104   1.946  13.345
44517W        W16942  16.217  32.998  13.852
44518W        W16943  15.194   3.238   9.479
44519W        W16944  22.655  32.979  14.408
44520W        W16945  32.411  11.713  10.947
44521W        W16946  22.629  40.431  14.010
44522W        W16947  38.961  30.476  12.567
44523W        W16948   4.327   7.706   3.870
44524W        W16949  42.030   5.404   1.246
44525W        W16950  26.652  25.658   3.170
44526W        W16951   5.919  24.202  11.561
44527W        W16952   9.771   5.725   2.703
44528W        W16953  17.124  33.601  11.558
44529W        W16954  20.225   5.928   0.318
44530W        W16955   2.755  33.541   0.304
44531W        W16956  33.008  34.378  11.006
44532W        W16957   0.402  34.911  12.028
44533W        W16958  14.798  28.010  13.985
44534W        W16959  42.345  28.525   4.606
44535W        W16960  13.792  23.517  13.031
44536W        W16961  13.300  26.606   1.841
44537W        W16962  19.763  28.162   2.198
44538W        W16963  41.464  19.617   1.776
44539W        W16964  36.076  11.372  11.520
44540W        W16965   8.731  38.467  14.896
44541W        W16966   4.916  36.494  14.388
44542W        W16967  43.009  16.252   3.777
44543W        W16968  35.884  13.241   1.850
44544W        W16969  44.951  33.017  10.608
44545W        W16970  44.977  20.219   2.184
44546W        W16971  24.018  39.533  12.023
44547W        W16972  39.827  38.337  11.920
44548W        W16973  10.782   8.821  14.428
44549W        W16974  17.748   2.443   0.965
44550W        W16975  31.008  37.459   4.257
44551W        W16976  16.229  21.718   4.813
44552W        W16977   7.385  43.962   2.391
44553W        W16978  11.690  14.797   4.616
44554W        W16979   6.206  35.594  13.533
44555W        W16980  29.585  15.720  13.448
44556W        W16981  15.170   4.929  11.542
44557W        W16982   3.846  42.309   1.427
44558W        W16983  33.932  35.885   2.223
44559W        W16984  36.996  42.888   4.196
44560W        W16985  13.600  36.561   3.255
44561W        W16986  22.583  25.063  13.414
44562W        W16987  22.234  10.814  12.549
44563W        W16988  31.402  44.388  10.436
44564W        W16989  16.078  15.665  11.401
44565W        W16990  31.046  18.237  14.337
44566W        W16991  12.638  20.565   4.130
44567W        W16992  39.909  10.264   3.178
44568W        W16993  43.963   3.732  13.997
44569W        W16994  10.825  10.678  10.445
44570W        W16995  15.603  13.238   1.426
44571W        W16996  10.777   4.830  10.928
44572W        W16997   7.306   9.342   4.640
44573W        W16998  29.424  17.642  10.602
44574W        W16999   6.696  31.515   1.355
44575W        W17000  43.773  13.237   2.694
44576W        W17001  15.762   5.205   1.282
44577W        W17002   7.723  15.766  12.357
44578W        W17003  43.306  39.446  10.973
44579W        W17004  24.989  28.488  11.862
44580W        W17005  25.473  25.065   0.741
44581W        W17006  21.092  16.798   5.312
44582W        W17007  39.975   9.854  12.479
44583W        W17008  24.611   5.728   3.834
44584W        W17009  28.549  41.373  14.499
44585W        W17010  30.513  18.248   3.229
44586W        W17011  34.580  17.741   4.297
44587W        W17012  44.366   5.405  10.520
44588W        W17013  27.624  31.111  10.567
44589W        W17014  44.785   3.281  14.910
44590W        W17015  39.548  13.777  13.437
44591W        W17016  22.038   5.812  10.517
44592W        W17017  28.452  15.611   2.281
44593W        W17018  23.645  12.339   3.216
44594W        W17019  20.621  31.969   3.740
44595W        W17020  13.827   3.348  10.106
44596W        W17021  11.263  32.066   4.816
44597W        W17022   3.358  22.526   1.914
44598W        W17023  24.017  20.159   0.445
44599W        W17024  12.787  44.863  11.387
44600W        W17025  24.142  41.908   1.282
44601W        W17026  19.616  25.030   3.207
44602W        W17027  33.894  28.476  13.991
44603W        W17028  43.008   7.278   2.325
44604W        W17029   3.785  38.961  12.942
44605W        W17030  13.190   9.678  13.502
44606W        W17031   2.246  26.556   3.841
44607W        W17032  41.029  12.324  14.290
44608W        W17033  23.503  24.088   2.399
44609W        W17034   4.385  31.625   1.444
44610W        W17035  37.525  15.291   3.203
44611W        W17036  11.710  22.072   4.808
44612W        W17037  41.022  40.518   3.739
44613W        W17038  30.579  42.423  10.930
44614W        W17039  36.545  44.295  14.298
44615W        W17040  15.789  44.490  11.565
44616W        W17041  24.052  39.521  12.967
44617W        W17042  43.823  33.070   4.763
44618W        W17043  16.662  13.163   1.318
44619W        W17044  43.390   5.256  12.516
44620W        W17045  14.191  25.595   5.116
44621W        W17046   8.837  20.665  14.975
44622W        W17047  20.171   3.214  14.875
44623W        W17048  11.829   1.879  11.990
44624W        W17049  29.946  12.646  13.830
44625W        W17050   6.413  42.018  13.438
44626W        W17051  29.429  15.677   2.870
44627W        W17052  38.875  13.779   1.734
44628W        W17053  38.979  14.774   2.408
44629W        W17054  33.586   6.264   1.424
44630W        W17055  43.893  40.476   1.289
44631W        W17056  37.984  17.628  10.587
44632W        W17057  20.206   2.443   2.864
44633W        W17058  42.919  40.975   3.826
44634W        W17059  41.831  36.443   1.250
44635W        W17060  24.541  20.213   3.788
44636W        W17061  29.510   6.824  13.007
44637W        W17062  40.504  27.592  14.962
44638W        W17063   2.781  35.052  11.572
44639W        W17064  41.004  36.422   4.794
44640W        W17065   8.279  28.156   3.241
44641W        W17066  43.767   4.227  14.452
44642W        W17067  25.096  13.834  12.369
44643W        W17068  37.436  16.265   2.370
44644W        W17069  15.102   9.256   0.358
44645W        W17070  43.953  12.767   2.684
44646W        W17071   2.960  44.001  11.425
44647W        W17072  11.856  28.133   1.431
44648W        W17073   1.827   1.927   0.933
44649W        W17074  27.056  15.329   3.816
44650W        W17075  34.984  12.800  13.836
44651W        W17076  39.823  33.959   1.441
44652W        W17077  41.950   0.266   1.708
44653W        W17078  41.965  39.536   0.779
44654W        W17079   4.268  15.195   2.667
44655W        W17080  16.101  14.100  12.475
44656W        W17081  17.710  41.293  11.448
44657W        W17082  18.280   8.769   3.667
44658W        W17083  24.531   6.887   2.709
44659W        W17084   3.253  25.566   1.886
44660W        W17085  13.822  27.944  13.455
44661W        W17086  42.368  30.974   4.691
44662W        W17087  16.655  15.625   3.171
44663W        W17088  42.328   0.391   4.759
44664W        W17089  20.241   3.340   2.291
44665W        W17090  20.114  10.202  10.457
44666W        W17091  32.610  41.876   2.240
44667W        W17092  11.254  41.497   3.289
44668W        W17093  40.433   1.906  13.485
44669W        W17094   3.356  31.484  13.324
44670W        W17095  26.592   2.910   1.702
44671W        W17096   8.388   2.240   4.804
44672W        W17097  30.484  38.557  14.358
44673W        W17098  25.613  37.550   0.295
44674W        W17099  38.933  21.746  13.486
44675W        W17100  39.326  15.314  12.404
44676W        W17101  24.080  20.031  10.496
44677W        W17102  20.624  35.576  14.848
44678W        W17103   0.860   4.240   4.829
44679W        W17104   6.738  12.728   2.354
44680W        W17105  21.198  37.045  14.942
44681W        W17106  36.425  15.720   4.115
44682W        W17107  22.035  20.263   3.330
44683W        W17108  27.567  35.492  12.528
44684W        W17109  17.266  37.554   4.322
44685W        W17110  30.477  40.840   5.650
44686W        W17111  12.271  32.894   4.770
44687W        W17112   0.858  39.933   1.749
44688W        W17113  16.299  34.966  13.866
44689W        W17114  19.584  13.340  13.993
44690W        W17115  18.613  17.764   2.805
44691W        W17116  36.483  38.957  11.412
44692W        W17117   0.753  22.194   3.769
44693W        W17118   7.699  40.311   1.807
44694W        W17119  36.562  32.029  14.352
44695W        W17120  21.150   4.877   5.186
44696W        W17121  13.131   5.302   2.697
44697W        W17122   4.833   4.830   3.748
44698W        W17123  41.495  23.013  10.508
44699W        W17124   0.779  39.036   4.235
44700W        W17125   4.916  12.225   1.314
44701W        W17126   5.775  37.395  12.558
44702W        W17127  20.642  31.440  14.312
44703W        W17128  11.765  10.868  11.099
44704W        W17129  39.481  14.773   1.212
44705W        W17130  44.342  17.227   3.769
44706W        W17131   8.253  29.115   0.837
44707W        W17132  28.981  36.589   0.248
44708W        W17133  23.056  11.331   2.822
44709W        W17134  42.520   4.844   3.637
44710W        W17135   8.285  13.161   1.761
44711W        W17136  13.188  10.861   3.245
44712W        W17137  42.287  24.575  14.425
44713W        W17138  36.006  31.641   4.265
44714W        W17139   6.340  33.601   1.740
44715W        W17140  12.780  12.287  11.534
44716W        W17141  16.782  19.064  14.346
44717W        W17142  44.771   6.731  12.853
44718W        W17143  43.311  36.460   2.812
44719W        W17144  19.725   5.210  11.067
44720W        W17145   8.825   8.233   3.751
44721W        W17146  27.455  11.322  13.418
44722W        W17147  10.729   5.818  13.942
44723W        W17148  38.565  18.623  13.005
44724W        W17149  23.991  23.116  13.812
44725W        W17150  15.729  38.411   0.922
44726W        W17151  40.410  31.037  10.586
44727W        W17152  29.520  25.100  11.041
44728W        W17153  19.252  18.157   3.198
44729W        W17154  17.251  32.096  11.517
44730W        W17155  23.510  42.500  10.406
44731W        W17156   2.783   4.447  12.371
44732W        W17157  20.541  30.045  14.355
44733W        W17158  22.094  17.725  14.496
44734W        W17159  25.603  37.491   1.314
44735W        W17160  25.502   7.235   1.313
44736W        W17161  17.743  35.948   1.290
44737W        W17162  13.642  12.187  13.961
44738W        W17163  39.374  21.514   2.278
44739W        W17164  18.242  20.207   3.752
44740W        W17165   4.396   9.849  10.599
44741W        W17166  42.327  30.575   0.887
44742W        W17167  39.548  31.499  13.504
44743W        W17168  35.993  37.033   1.758
44744W        W17169   8.862  20.030   4.654
44745W        W17170  15.210  26.609   1.882
44746W        W17171  37.998  44.424   4.617
44747W        W17172   1.791  39.541   1.812
44748W        W17173  28.141   4.375   2.234
44749W        W17174  10.210  14.212   2.838
44750W        W17175  23.087   4.877   0.910
44751W        W17176  27.171  30.435   3.816
44752W        W17177  10.825  14.785   0.356
44753W        W17178  43.274  22.585   4.838
44754W        W17179   8.890  35.580  11.592
44755W        W17180  13.141  36.388  11.484
44756W        W17181  18.610   4.805  10.554
44757W        W17182  41.525  18.563   3.706
44758W        W17183   5.306  11.806  10.111
44759W        W17184   2.242   0.389   3.271
44760W        W17185  27.006  20.204   2.806
44761W        W17186  15.112  12.250  11.508
44762W        W17187   7.785  21.163  14.432
44763W        W17188  25.565   0.780   9.932
44764W        W17189   3.780  20.719  13.455
44765W        W17190  30.008  18.152   2.839
44766W        W17191  40.523  14.727  11.016
44767W        W17192   6.238   6.378   0.900
44768W        W17193   1.806  29.947  10.890
44769W        W17194  40.391  25.170   0.836
44770W        W17195  31.022  27.121   0.913
44771W        W17196  15.585  36.574  13.820
44772W        W17197  42.875  42.023   0.838
44773W        W17198  26.020  15.291   3.235
44774W        W17199  44.867  11.642   3.387
44775W        W17200  28.545  19.179  13.522
44776W        W17201  25.525  42.373   1.791
44777W        W17202  13.260  44.000   4.243
44778W        W17203   2.245   0.874  14.766
44779W        W17204  21.694  14.784  10.542
44780W        W17205  40.400   6.846  12.994
44781W        W17206   7.311  40.861   1.849
44782W        W17207   7.252  12.651   0.789
44783W        W17208  26.644  38.982   3.865
44784W        W17209  16.788   9.273   1.266
44785W        W17210  39.516  27.636   4.307
44786W        W17211  15.089   3.449  10.947
44787W        W17212  44.971  24.154   4.636
44788W        W17213  16.266  33.945   3.204
44789W        W17214   7.718  31.455  10.543
44790W        W17215  37.355  23.608   3.280
44791W        W17216  12.753  30.636   0.352
44792W        W17217  29.591   8.166  12.950
44793W        W17218  28.553  11.712   4.297
44794W        W17219  12.267  39.481  11.513
44795W        W17220  33.943  41.423   3.354
44796W        W17221   3.343   4.786   3.358
44797W        W17222  34.091   6.394  13.943
44798W        W17223  27.542  29.560  14.921
44799W        W17224  26.059  36.900  10.951
44800W        W17225   0.477   1.912  13.043
44801W        W17226  11.204  16.238   2.210
44802W        W17227  13.818   0.890   1.780
44803W        W17228   7.698  12.160   1.901
44804W        W17229  43.783  23.728  10.945
44805W        W17230   1.315  13.748   3.644
44806W        W17231  12.151  28.187   2.322
44807W        W17232  22.014  10.193  11.069
44808W        W17233  22.668   0.424   3.702
44809W        W17234  24.984   5.903  14.372
44810W        W17235   3.328  20.101  13.914
44811W        W17236   0.906   2.948   0.912
44812W        W17237  42.375  24.145  14.343
44813W        W17238  16.594  10.168  14.408
44814W        W17239  22.660  28.528  11.076
44815W        W17240   4.887  18.630   0.753
44816W        W17241  40.986  13.641   4.288
44817W        W17242   8.173   5.217   0.387
44818W        W17243  38.992  19.655  10.632
44819W        W17244  23.553   7.314   0.316
44820W        W17245  27.628  29.469   2.769
44821W        W17246   9.277   2.924   0.330
44822W        W17247   6.386  10.820   1.314
44823W        W17248   3.910  28.047  12.004
44824W        W17249  10.862  35.938  12.011
44825W        W17250  40.997   1.348   4.807
44826W        W17251  32.428  37.857  12.083
44827W        W17252   3.934  13.121   0.279
44828W        W17253  27.682  28.141  13.045
44829W        W17254  15.142  24.625   4.215
44830W        W17255   0.748  26.071  14.832
44831W        W17256  26.498  42.012   3.699
44832W        W17257  26.092  29.967  11.400
44833W        W17258   7.789  28.054   2.336
44834W        W17259   3.246   7.865   1.276
44835W        W17260  42.342  13.788   2.858
44836W        W17261  29.544  14.697  13.457
44837W        W17262  27.673  16.195   3.311
44838W        W17263  28.943  40.023   0.778
44839W        W17264  17.595  11.155   2.250
44840W        W17265  11.314  41.438  12.543
44841W        W17266  12.822  31.123  10.600
44842W        W17267  42.839  31.145  11.080
44843W        W17268  11.230  36.392   3.681
44844W        W17269  29.598  18.694   0.801
44845W        W17270  32.492  42.790   1.708
44846W        W17271  19.094  41.921  12.973
44847W        W17272  38.894   7.383  12.493
44848W        W17273   9.259  38.022  12.479
44849W        W17274  11.731  16.201   4.745
44850W        W17275   8.344  24.715   4.704
44851W        W17276  15.724  25.107   2.254
44852W        W17277   3.406  31.641  14.310
44853W        W17278  28.060   6.325   1.430
44854W        W17279  32.512   8.169  11.384
44855W        W17280  27.109  18.126  14.001
44856W        W17281  35.477   7.910   3.766
44857W        W17282   5.900  18.071  13.397
44858W        W17283  36.558  30.443   5.143
44859W        W17284  36.347  20.569  13.002
44860W        W17285  13.128  34.899   3.242
44861W        W17286  18.740  18.257  13.350
44862W        W17287  43.475  26.046  14.500
44863W        W17288  29.011  29.619  13.017
44864W        W17289  33.387  43.338  11.879
44865W        W17290  24.997  26.191   3.715
44866W        W17291  44.870  22.059   1.766
44867W        W17292  21.223   9.174  12.955
44868W        W17293  27.023  26.518  14.453
44869W        W17294  34.495  35.408   2.700
44870W        W17295  18.746  39.516   0.913
44871W        W17296  44.395   9.682  11.059
44872W        W17297   7.355  16.096   0.243
44873W        W17298  31.069  19.115   0.463
44874W        W17299  23.525  19.242  14.957
44875W        W17300   5.211  40.998  11.864
44876W        W17301  28.044  22.070   4.243
44877W        W17302   9.158  20.218  10.899
44878W        W17303  30.023  42.800   0.414
44879W        W17304  25.074   2.827   1.759
44880W        W17305  31.633  42.308   3.805
44881W        W17306  36.875  28.177   0.788
44882W        W17307  28.553   6.748  12.023
44883W        W17308   0.453   1.927  12.515
44884W        W17309   4.411  34.002   2.789
44885W        W17310   9.739   4.778  12.882
44886W        W17311  19.772  28.630  14.812
44887W        W17312   9.194  15.614   1.803
44888W        W17313  42.991  44.418   4.693
44889W        W17314  37.475   5.881   4.230
44890W        W17315  25.546  43.962  14.883
44891W        W17316  30.105  17.673   3.384
44892W        W17317  39.044  20.195  14.490
44893W        W17318  41.882  19.143   0.902
44894W        W17319  13.801  41.380  10.625
44895W        W17320   4.329  27.609   2.691
44896W        W17321   4.376   9.332   4.265
44897W        W17322   7.686  16.647   0.828
44898W        W17323  12.643  43.497  10.536
44899W        W17324  12.148   2.965  12.060
44900W        W17325  14.327  24.722  10.499
44901W        W17326  33.980  25.071  12.020
44902W        W17327  24.485  34.433   1.741
44903W        W17328  37.478  44.434  12.489
44904W        W17329   0.812  34.067  12.867
44905W        W17330   4.734  15.689   0.947
44906W        W17331  18.780  38.430  11.470
44907W        W17332  25.585  13.116  12.352
44908W        W17333  24.629   7.301  13.941
44909W        W17334  14.189   2.370  12.029
44910W        W17335  28.599  22.043   2.347
44911W        W17336  11.280  29.165   2.705
44912W        W17337  10.835  42.973  12.408
44913W        W17338  19.753  44.831  10.907
44914W        W17339   8.861  33.025  12.036
44915W        W17340   2.744  25.212   3.638
44916W        W17341  19.590  34.079  12.579
44917W        W17342  28.451  18.220   2.357
44918W        W17343  14.677   3.920  13.044
44919W        W17344  44.313  28.078  13.048
44920W        W17345  29.474   5.866   4.140
44921W        W17346  15.824  43.887   4.613
44922W        W17347  21.236  18.224   1.874
44923W        W17348  20.720  13.307   1.450
44924W        W17349  18.739   1.824  14.314
44925W        W17350   4.798  21.158  11.976
44926W        W17351  18.218  15.805  14.785
44927W        W17352  28.554  17.202  11.923
44928W        W17353  35.422  26.989  10.506
44929W        W17354  29.437  34.524   2.762
44930W        W17355  40.938   1.344   1.893
44931W        W17356  38.350  10.342  10.599
44932W        W17357  15.321  32.591  14.430
44933W        W17358  43.890  12.309   4.330
44934W        W17359  25.190  39.421   0.345
44935W        W17360  13.735  23.529   0.846
44936W        W17361  12.842  30.929  13.411
44937W        W17362  32.501   1.438   1.784
44938W        W17363  24.204   4.941   2.880
44939W        W17364  15.129  35.515  13.009
44940W        W17365  15.156   9.773   4.223
44941W        W17366  12.675  27.080   2.765
44942W        W17367   9.743  12.133   3.253
44943W        W17368  25.979  28.633   3.196
44944W        W17369  42.313  10.767   3.243
44945W        W17370  21.222  41.940   3.670
44946W        W17371  15.645  21.136  10.947
44947W        W17372  33.618  31.513   1.420
44948W        W17373  33.446  33.102   3.652
44949W        W17374  44.345  22.036  11.489
44950W        W17375  22.247  24.153   4.335
44951W        W17376  35.387  23.006   4.281
44952W        W17377  26.011  39.364   0.248
44953W        W17378  29.976  18.178  11.111
44954W        W17379  26.681  31.438  12.397
44955W        W17380  20.039  43.830   0.414
44956W        W17381  38.459  12.214  10.579
44957W        W17382  27.579  40.520   5.192
44958W        W17383  35.374  39.394   0.469
44959W        W17384  34.379  41.486   1.336
44960W        W17385   2.420  22.188   2.358
44961W        W17386  42.964  29.598   4.816
44962W        W17387  23.013  11.723  11.928
44963W        W17388  31.977  28.130  14.789
44964W        W17389  12.758  28.975  14.971
44965W        W17390  21.241  39.427  10.511
44966W        W17391  16.216  43.314  12.526
44967W        W17392  10.724  29.455   9.959
44968W        W17393  40.988  12.197   4.816
44969W        W17394  30.122  39.538   1.342
44970W        W17395  34.399  36.065  12.006
44971W        W17396   1.783  30.523   1.823
44972W        W17397  40.472   5.258   3.771
44973W        W17398  34.552  41.962   1.443
44974W        W17399  17.142  18.225  10.108
44975W        W17400  31.097  18.226   0.902
44976W        W17401  41.877  22.570   2.283
44977W        W17402   0.895  43.498  12.951
44978W        W17403  19.049  15.321   2.721
44979W        W17404  37.959  42.889  12.508
44980W        W17405  10.251  13.204  10.996
44981W        W17406  38.398  14.181   4.775
44982W        W17407  36.359  35.432   3.331
44983W        W17408  44.399  20.746  13.857
44984W        W17409  14.327  42.006  10.998
44985W        W17410  28.010  18.633   2.729
44986W        W17411   1.817  30.647   0.913
44987W        W17412  25.540  37.898  13.324
44988W        W17413  18.256  24.088  13.364
44989W        W17414  41.303   0.298  12.864
44990W        W17415  13.231  44.438  14.493
44991W        W17416  14.128   9.750  12.433
44992W        W17417   1.776  30.580   0.390
44993W        W17418  29.585   1.838   1.879
44994W        W17419  37.011   3.357  14.796
44995W        W17420  20.688  28.952  11.109
44996W        W17421  33.501   9.690   4.701
44997W        W17422  24.572  41.444  14.889
44998W        W17423   9.794  19.109  14.925
44999W        W17424  14.811  15.312   4.756
45000W        W17425  32.545  44.917  12.041
45001W        W17426   4.333  20.086   2.296
45002W        W17427  14.621  16.180   0.374
45003W        W17428  11.285  19.744  12.551
45004W        W17429  20.163  32.411   3.310
45005W        W17430  41.889  32.121  14.921
45006W        W17431  26.965  39.368  12.379
45007W        W17432  19.280   4.312  14.910
45008W        W17433  10.778  24.204   4.789
45009W        W17434  33.559  35.964   3.171
45010W        W17435   8.219  12.240   4.708
45011W        W17436  19.199  21.595   1.278
45012W        W17437   0.448  28.036  11.608
45013W        W17438  36.001   5.276  13.479
45014W        W17439  28.073  43.837  10.550
45015W        W17440  39.039  32.570   4.597
45016W        W17441  29.074   8.314  14.005
45017W        W17442   1.903  10.693   2.261
45018W        W17443  38.419  11.331  11.085
45019W        W17444  43.479  44.783  14.444
45020W        W17445   3.440   1.239   1.931
45021W        W17446  32.425   6.416   3.807
45022W        W17447   2.403  39.950  14.322
45023W        W17448  19.283  25.669  12.916
45024W        W17449  23.141  42.989  10.923
45025W        W17450  20.666  40.474   4.633
45026W        W17451  39.436  24.029  13.448
45027W        W17452   3.791  21.216   3.835
45028W        W17453  25.587  33.448   3.754
45029W        W17454  14.630  13.745  13.449
45030W        W17455  22.139  30.096   1.213
45031W        W17456   9.696  28.441   4.346
45032W        W17457  35.922   6.218  12.045
45033W        W17458  43.865   9.824  12.376
45034W        W17459   9.293   1.738  12.007
45035W        W17460   4.269  25.052   0.740
45036W        W17461  15.804   5.380  10.895
45037W        W17462  20.698   9.805   2.753
45038W        W17463  44.955   5.423   0.964
45039W        W17464  26.621   6.421  12.576
45040W        W17465  39.050   6.394  11.887
45041W        W17466  41.934  34.107  12.464
45042W        W17467  25.194  22.599  12.406
45043W        W17468  31.929  31.618   3.330
45044W        W17469  38.537  40.013   3.330
45045W        W17470  15.228  12.143  14.945
45046W        W17471   1.316  35.582  11.856
45047W        W17472  36.866  14.703   2.696
45048W        W17473   0.884  21.222  10.615
45049W        W17474   4.416  23.548  13.821
45050W        W17475  43.304  33.986  14.986
45051W        W17476   0.748   2.727  14.997
45052W        W17477  37.054  42.482  14.281
45053W        W17478  19.045   6.240  11.001
45054W        W17479   7.273  23.515   3.346
45055W        W17480  19.109  18.662  12.845
45056W        W17481  13.752  44.450  11.511
45057W        W17482  42.015  30.944  11.047
45058W        W17483  20.236   8.209  13.844
45059W        W17484  21.532  28.497  13.533
45060W        W17485  43.374  17.759  13.536
45061W        W17486  32.029  34.040   1.703
45062W        W17487   5.689  34.601   3.308
45063W        W17488  14.801  26.157   2.184
45064W        W17489  35.494   4.853  13.923
45065W        W17490  28.969  20.183   4.178
45066W        W17491   2.811  36.953  11.128
45067W        W17492  38.553  22.576   0.859
45068W        W17493  14.766  17.212  11.482
45069W        W17494  14.095   2.735   4.143
45070W        W17495   0.449   9.155   4.197
45071W        W17496  21.066  24.704   3.210
45072W        W17497  11.810   1.371   0.336
45073W        W17498  23.506   9.838  11.524
45074W        W17499   8.177  10.184  14.879
45075W        W17500  18.743  31.955   2.881
45076W        W17501   6.914  10.801   0.915
45077W        W17502  30.922   4.749   2.257
45078W        W17503  29.591  40.334   3.641
45079W        W17504  26.969  13.180   4.813
45080W        W17505  29.103  12.163   3.216
45081W        W17506  24.645  36.527  14.874
45082W        W17507  39.452  30.494  11.032
45083W        W17508  14.770   7.286   0.465
45084W        W17509  21.548  12.773   1.405
45085W        W17510   7.404   7.264   4.285
45086W        W17511  16.689  23.240  11.032
45087W        W17512  34.610   5.764   3.757
45088W        W17513  38.922   1.313  10.468
45089W        W17514   9.293   2.839  13.867
45090W        W17515  12.851  44.760   3.672
45091W        W17516  42.000  44.306   3.291
45092W        W17517   6.793  20.567  12.027
45093W        W17518  39.910  14.106   3.266
45094W        W17519  21.233  34.107   1.875
45095W        W17520  12.804  44.414  12.935
45096W        W17521   5.241  15.318  14.888
45097W        W17522  24.171  17.558   2.185
45098W        W17523  32.590  38.500  10.591
45099W        W17524  31.646   2.408  13.012
45100W        W17525  22.522  28.523   0.743
45101W        W17526  40.414  36.433   0.357
45102W        W17527  43.360  41.984  12.063
45103W        W17528  17.152  26.505   3.160
45104W        W17529  30.922  10.234  11.564
45105W        W17530   8.896  28.993   4.826
45106W        W17531  18.219  22.678  12.954
45107W        W17532  38.852  44.753  14.980
45108W        W17533  26.110  36.943  13.807
45109W        W17534  33.990  41.456   1.918
45110W        W17535  18.147   1.890   0.420
45111W        W17536  36.493  12.779   1.407
45112W        W17537   7.779   9.164  13.979
45113W        W17538  32.439  14.281  12.851
45114W        W17539  44.891   3.301   1.933
45115W        W17540  36.425  13.647   4.147
45116W        W17541  31.034  28.490   2.190
45117W        W17542  42.967  36.984  13.879
45118W        W17543  13.690  43.514  14.882
45119W        W17544   3.220   3.833   4.642
45120W        W17545  36.878  39.543   0.340
45121W        W17546  23.099  11.702   4.247
45122W        W17547  38.382  27.496  11.048
45123W        W17548  14.602   2.347   2.267
45124W        W17549  15.261  26.182  10.575
45125W        W17550  33.601  12.649  13.941
45126W        W17551  24.698  11.660   5.295
45127W        W17552  19.043  25.586  12.580
45128W        W17553  21.081   2.394  14.926
45129W        W17554   1.265  42.815  11.050
45130W        W17555   4.235  44.324  12.958
45131W        W17556   8.302   6.377  11.938
45132W        W17557  34.440  44.997  14.415
45133W        W17558  23.085  23.595   1.210
45134W        W17559  28.532  28.998  10.941
45135W        W17560   5.829  16.770  11.975
45136W        W17561  10.248  14.204   1.902
45137W        W17562   3.417  15.240   3.332
45138W        W17563  22.199  24.170   1.892
45139W        W17564   0.306  32.615   3.651
45140W        W17565  31.508  12.265  10.432
45141W        W17566  13.343  14.594  11.027
45142W        W17567  44.498  32.949   5.320
45143W        W17568  35.416  44.767  14.424
45144W        W17569  20.068   3.860   4.297
45145W        W17570  38.424   3.848   0.349
45146W        W17571   8.710  10.359  10.035
45147W        W17572  16.194  44.837  11.060
45148W        W17573  11.234  42.315  14.437
45149W        W17574  21.125  42.777  14.501
45150W        W17575  39.944  17.214   2.233
45151W        W17576  30.943  37.886   0.285
45152W        W17577   4.346   2.756   1.217
45153W        W17578  24.498  44.776   4.783
45154W        W17579  20.673  42.998  11.431
45155W        W17580   6.196  18.760   0.966
45156W        W17581   1.916  24.506   4.286
45157W        W17582  16.779  28.033   1.260
45158W        W17583   0.976  31.046   3.745
45159W        W17584  10.642  15.277   1.788
45160W        W17585  34.437   2.930   1.825
45161W        W17586   0.951  41.039  11.976
45162W        W17587  21.655  20.622   0.763
45163W        W17588  27.491  15.120  11.539
45164W        W17589  20.595   4.244  11.381
45165W        W17590   3.786  28.172   1.754
45166W        W17591  39.988   6.307   2.732
45167W        W17592  42.906   2.726   0.476
45168W        W17593  18.084  24.554   1.352
45169W        W17594  17.306  15.182   1.214
45170W        W17595  17.193  16.098   4.282
45171W        W17596  41.963  25.695   4.291
45172W        W17597  40.380  25.652  12.888
45173W        W17598  20.076  20.665   4.259
45174W        W17599  29.501  38.365  13.412
45175W        W17600  18.772  17.213   3.277
45176W        W17601  34.027  44.315  13.337
45177W        W17602  34.040  14.718   0.842
45178W        W17603   2.296  42.981  11.863
45179W        W17604  28.984  11.799   1.755
45180W        W17605  15.277   7.392  11.000
45181W        W17606  13.814  38.977  12.369
45182W        W17607  14.813  10.703  11.857
45183W        W17608  16.283  38.064   3.688
45184W        W17609  43.446   7.851  13.063
45185W        W17610  36.874  25.986   4.806
45186W        W17611  24.999  11.141  11.032
45187W        W17612  15.680  19.682  13.885
45188W        W17613   4.313  40.371  14.817
45189W        W17614  13.160  10.317  11.944
45190W        W17615  26.010  38.013  13.512
45191W        W17616  20.205  39.560  13.328
45192W        W17617  33.005   7.905  14.832
45193W        W17618  16.652  31.973  12.864
45194W        W17619  25.210   1.759   3.246
45195W        W17620  18.544  10.804  13.990
45196W        W17621  30.503  19.246  11.075
45197W        W17622  43.417  34.500   1.252
45198W        W17623   7.199  24.148  14.284
45199W        W17624  38.953  24.111   1.415
45200W        W17625   5.307  40.809  14.778
45201W        W17626  39.515  27.179  12.496
45202W        W17627  35.868  41.897   2.773
45203W        W17628  33.048   7.720   1.437
45204W        W17629  30.163   5.245  11.596
45205W        W17630  44.317  19.687  11.855
45206W        W17631  12.657  16.727   4.615
45207W        W17632  29.165  25.095  11.003
45208W        W17633  21.172   0.449  11.061
45209W        W17634  42.427  14.788   1.340
45210W        W17635   3.802  20.650   2.791
45211W        W17636   0.369  40.838   3.327
45212W        W17637  38.001   6.875  13.798
45213W        W17638   8.737  33.524  13.337
45214W        W17639  24.653  43.475  11.913
45215W        W17640  43.485  30.610  11.467
45216W        W17641  15.722  37.473   5.177
45217W        W17642  22.223   7.699   0.894
45218W        W17643  33.562  19.688   5.273
45219W        W17644  13.780   7.380   2.826
45220W        W17645  20.668  18.195  13.965
45221W        W17646  28.437  26.505  13.328
45222W        W17647  32.602   4.268   3.732
45223W        W17648   7.219  15.280  12.825
45224W        W17649  13.223  20.603   3.159
45225W        W17650  33.059  41.832  10.406
45226W        W17651  17.124  29.505  10.415
45227W        W17652  29.621  36.537  11.990
45228W        W17653  44.485  40.039   2.413
45229W        W17654  18.750   0.951   3.230
45230W        W17655  37.995  12.796   5.261
45231W        W17656   6.863  22.519   2.313
45232W        W17657  14.158  19.042  12.838
45233W        W17658  31.111  11.816  11.085
45234W        W17659  17.604  39.348   0.310
45235W        W17660  23.103  37.365  11.581
45236W        W17661  13.303  31.591  10.990
45237W        W17662  18.225  16.281   3.834
45238W        W17663  20.557   7.188  11.987
45239W        W17664  15.640  15.754  12.872
45240W        W17665  34.986  23.596   1.389
45241W        W17666  12.239  17.799   2.777
45242W        W17667  41.386   9.192   4.115
45243W        W17668  42.384   1.383   4.762
45244W        W17669  41.834  38.480  10.436
45245W        W17670  28.530  21.563   9.645
45246W        W17671  21.228  11.293   3.316
45247W        W17672   6.406  31.039  12.371
45248W        W17673  42.470  38.953   3.304
45249W        W17674  32.565  37.991  14.781
45250W        W17675  30.128  41.375   2.401
45251W        W17676  43.425  44.299   2.191
45252W        W17677  20.184  22.716  14.976
45253W        W17678  23.127   4.789  11.916
45254W        W17679  44.794  22.721  11.387
45255W        W17680  32.953   2.440  10.554
45256W        W17681  11.328  40.876   2.798
45257W        W17682  31.633  23.989   2.745
45258W        W17683  42.816  33.077  11.563
45259W        W17684  32.894  41.399   2.887
45260W        W17685  19.709  37.875  13.806
45261W        W17686  30.440   2.833  10.539
45262W        W17687  43.352  33.079   4.824
45263W        W17688  26.539  26.981  13.024
45264W        W17689  24.175   6.284  13.536
45265W        W17690  35.370  43.280   2.186
45266W        W17691   4.344  34.985  12.931
45267W        W17692  34.508  17.789  10.888
45268W        W17693  19.533   1.963  10.425
45269W        W17694   8.184  28.031  13.856
45270W        W17695   0.772   9.782  11.484
45271W        W17696   4.771   8.352  13.815
45272W        W17697  23.029  23.658  11.388
45273W        W17698  44.840  25.594   3.784
45274W        W17699   0.255  24.024  10.909
45275W        W17700  18.166  10.317   2.292
45276W        W17701  28.642   2.740  14.003
45277W        W17702   5.302  38.828  11.082
45278W        W17703  23.601   9.362  13.337
45279W        W17704  35.452  11.621  14.415
45280W        W17705  32.908  33.411   1.322
45281W        W17706   3.325   5.296  13.450
45282W        W17707  24.605  33.988  10.428
45283W        W17708  15.197   3.235   0.459
45284W        W17709  43.494  14.724  13.913
45285W        W17710  15.653  26.079   2.308
45286W        W17711  33.002  19.679  14.805
45287W        W17712  40.960   5.892   2.755
45288W        W17713  18.121  26.049  11.574
45289W        W17714  40.015  41.368   3.263
45290W        W17715   3.249  21.057   3.303
45291W        W17716   2.951  29.541  14.360
45292W        W17717  29.939  44.907  14.022
45293W        W17718   5.714  39.376   3.794
45294W        W17719   0.382  17.607   1.366
45295W        W17720  16.682   3.437   1.843
45296W        W17721  39.849  40.438   0.917
45297W        W17722  44.285   2.720   0.252
45298W        W17723  33.396   6.747   0.942
45299W        W17724  19.196   2.813  10.926
45300W        W17725  39.556   4.834   3.162
45301W        W17726  13.238   2.954   1.800
45302W        W17727   5.321  27.627  13.906
45303W        W17728  41.809  41.405   2.244
45304W        W17729   7.775  18.194   3.869
45305W        W17730  32.625  29.022   0.463
45306W        W17731  32.929  44.911  14.900
45307W        W17732  29.968  33.504  13.051
45308W        W17733  25.583  41.391   0.250
45309W        W17734  29.168  30.053   2.811
45310W        W17735  37.017  41.973  11.596
45311W        W17736  10.730  23.057   0.460
45312W        W17737  37.866  18.773  13.503
45313W        W17738  28.163  43.819  13.319
45314W        W17739  30.553  14.705   2.338
45315W        W17740  32.472  15.174   3.229
45316W        W17741   6.210   1.450  14.485
45317W        W17742  44.311   4.924  11.495
45318W        W17743  20.613  42.407   4.625
45319W        W17744  20.660  30.004  10.463
45320W        W17745   2.292  29.518  14.766
45321W        W17746  11.708  41.837   0.338
45322W        W17747  24.628  26.029  12.028
45323W        W17748   3.325  40.355   3.844
45324W        W17749  33.925  42.937  11.497
45325W        W17750  43.010  39.966   4.736
45326W        W17751   9.683  15.815   0.467
45327W        W17752  20.034   1.844  13.909
45328W        W17753  26.978  16.280  12.054
45329W        W17754  14.730   8.698   2.825
45330W        W17755  37.841  19.605   3.239
45331W        W17756  26.018  23.497   3.150
45332W        W17757  25.525  30.416  10.994
45333W        W17758  38.343  31.020  12.427
45334W        W17759  27.044  38.844   2.407
45335W        W17760  22.149  44.806  11.442
45336W        W17761  14.652  14.283  12.037
45337W        W17762  32.458  12.316  13.346
45338W        W17763  43.460  28.546  14.780
45339W        W17764  15.282  23.651   0.773
45340W        W17765  14.142  21.122   5.125
45341W        W17766  40.839  32.475   4.672
45342W        W17767  19.716  29.942   3.643
45343W        W17768  16.264  38.053  11.548
45344W        W17769  29.444  18.783   3.800
45345W        W17770  31.950  35.482  12.435
45346W        W17771  43.493  38.386   3.855
45347W        W17772  42.374  41.902   3.194
45348W        W17773  39.034   3.340   0.899
45349W        W17774  18.268  35.941   1.339
45350W        W17775  25.010  25.184  10.979
45351W        W17776  12.815  13.740  14.400
45352W        W17777  37.885   1.247  13.535
45353W        W17778  44.819   8.263  11.935
45354W        W17779  17.561  36.933   3.782
45355W        W17780  19.732  43.975   0.249
45356W        W17781  19.285  31.414  10.935
45357W        W17782  44.796   2.232  11.603
45358W        W17783  12.783  42.385  11.902
45359W        W17784  21.574  41.504  10.549
45360W        W17785  18.182   8.307   2.846
45361W        W17786  27.686  40.382  14.768
45362W        W17787   9.321  34.996   0.296
45363W        W17788  10.766  32.082   2.790
45364W        W17789  40.463  43.416  11.398
45365W        W17790  33.017   8.355  12.909
45366W        W17791  29.464  24.539   9.450
45367W        W17792   5.398  15.661  12.947
45368W        W17793  20.661  32.633  13.438
45369W        W17794  42.330   4.450  11.558
45370W        W17795  31.453  37.043   2.891
45371W        W17796  33.974  32.897   4.177
45372W        W17797   1.436  10.333   0.954
45373W        W17798  19.739  21.179   1.763
45374W        W17799  31.131  28.562  10.945
45375W        W17800  15.127  19.067   0.246
45376W        W17801   7.876  16.758   4.733
45377W        W17802  26.572  35.489   1.887
45378W        W17803  11.829  14.165   5.102
45379W        W17804   3.940   5.345   4.730
45380W        W17805  37.580   5.356  12.526
45381W        W17806   3.361  40.442  14.307
45382W        W17807  28.068  34.065   3.803
45383W        W17808  28.049   8.826   4.822
45384W        W17809  21.697  14.819   0.768
45385W        W17810  25.018  11.130   1.429
45386W        W17811  18.609  41.015   3.280
45387W        W17812  35.090   7.356  10.040
45388W        W17813  24.683  23.657  11.900
45389W        W17814  24.606   0.987  12.952
45390W        W17815  35.436  36.423   2.369
45391W        W17816  39.891   6.199  11.856
45392W        W17817  29.044  21.052  14.296
45393W        W17818  17.588   2.285   4.603
45394W        W17819  10.235   7.715   3.643
45395W        W17820  33.984  35.921   4.720
45396W        W17821  39.883  29.545  11.038
45397W        W17822  43.430   7.173  12.012
45398W        W17823  41.887  17.219  13.833
45399W        W17824  11.640  15.737  10.470
45400W        W17825  36.991   6.415  11.402
45401W        W17826  28.126  32.415  13.911
45402W        W17827  21.584  14.131   3.270
45403W        W17828   8.708  29.435  10.505
45404W        W17829  34.484  12.307   0.405
45405W        W17830   0.363   7.804   0.832
45406W        W17831  25.558  10.377   2.368
45407W        W17832  14.761   6.839  12.557
45408W        W17833  24.089  14.764   2.212
45409W        W17834  11.795   9.683   4.656
45410W        W17835  41.011  15.777  12.576
45411W        W17836   8.824  40.480   3.660
45412W        W17837   7.222  33.111   3.792
45413W        W17838  33.514  18.119  13.803
45414W        W17839   0.964  16.608  13.911
45415W        W17840  12.785  33.877  12.079
45416W        W17841  41.391   0.799  13.311
45417W        W17842   1.854  27.057   1.408
45418W        W17843  43.999  15.690  11.434
45419W        W17844   0.892  40.001  13.489
45420W        W17845   0.829  27.679  11.050
45421W        W17846  30.148  44.403  14.838
45422W        W17847  38.052  34.887  12.475
45423W        W17848  10.800  18.234  14.032
45424W        W17849  37.917   1.878   0.433
45425W        W17850  31.100  36.067  12.041
45426W        W17851  43.391  20.685   1.754
45427W        W17852   5.243  15.268  10.486
45428W        W17853  15.673  23.122  13.392
45429W        W17854  24.132  20.083  13.821
45430W        W17855  25.584  27.518   0.313
45431W        W17856  40.519  31.609   0.321
45432W        W17857   6.852  36.982  14.458
45433W        W17858   5.688   2.366   2.797
45434W        W17859  43.375   9.790  14.925
45435W        W17860  38.942  10.767   3.301
45436W        W17861  29.638  15.144   1.766
45437W        W17862  31.952  26.129   3.182
45438W        W17863   0.864  11.826  11.958
45439W        W17864  44.419  23.177   3.831
45440W        W17865  23.582  38.911   0.795
45441W        W17866  34.081  15.216   1.424
45442W        W17867  35.049  35.980  11.559
45443W        W17868  43.302  29.431  12.493
45444W        W17869  10.778  33.127  11.396
45445W        W17870  20.259  42.323  12.037
45446W        W17871  19.555   8.230  14.369
45447W        W17872   7.195  27.063  13.879
45448W        W17873   2.786  22.149  12.077
45449W        W17874   5.286  32.019   0.735
45450W        W17875  10.255  38.385  10.475
45451W        W17876  22.174  12.847   4.700
45452W        W17877  32.589  19.235   1.308
45453W        W17878  33.925  28.944  11.433
45454W        W17879  37.934  16.671  12.399
45455W        W17880  25.088   1.331   0.314
45456W        W17881  29.613   6.428   2.711
45457W        W17882  12.810  22.699   0.420
45458W        W17883  37.012  37.502   3.656
45459W        W17884   5.895  38.939  11.060
45460W        W17885  13.657  22.684  11.428
45461W        W17886  16.793  42.302  13.056
45462W        W17887  38.034  40.892  14.345
45463W        W17888  23.701  15.756  12.055
45464W        W17889  33.008  32.398  10.966
45465W        W17890   2.846  43.865  12.350
45466W        W17891  22.024  42.939   4.338
45467W        W17892  40.054  20.191   0.764
45468W        W17893   0.402  39.438  11.410
45469W        W17894  32.106  25.468   2.244
45470W        W17895   1.864  44.860   1.385
45471W        W17896  37.910  11.750  11.448
45472W        W17897  31.471  20.226   2.178
45473W        W17898  21.261  34.407   0.930
45474W        W17899  30.508  30.021  14.798
45475W        W17900  23.120  22.162   1.249
45476W        W17901   6.742  31.573   4.671
45477W        W17902  11.330  29.063  13.946
45478W        W17903  14.258   4.396   3.162
45479W        W17904  42.930  43.949  12.459
45480W        W17905  20.225  10.141   4.259
45481W        W17906  16.143  38.558   2.673
45482W        W17907   7.281   9.287  14.761
45483W        W17908   9.358  13.825   0.385
45484W        W17909  37.386  19.644   1.926
45485W        W17910  26.632   3.871   4.725
45486W        W17911  17.222  22.680   4.310
45487W        W17912   6.291  37.975  13.047
45488W        W17913   2.470  43.290   3.306
45489W        W17914  25.116  21.621  12.363
45490W        W17915  16.256  30.646   2.849
45491W        W17916  11.746  36.373  13.482
45492W        W17917  13.138   6.815   1.776
45493W        W17918  29.525  11.304   0.446
45494W        W17919  19.607   4.919   1.366
45495W        W17920   5.905  28.525   2.418
45496W        W17921  35.054  42.801  11.864
45497W        W17922  16.117  31.412   9.630
45498W        W17923  29.074  20.048  12.528
45499W        W17924  41.462   8.211   4.320
45500W        W17925  36.960  20.712   1.216
45501W        W17926  22.566  43.891  14.285
45502W        W17927  19.277   1.977   3.685
45503W        W17928  30.940   8.674  14.472
45504W        W17929  18.167  15.101   4.257
45505W        W17930  23.127  39.963   2.775
45506W        W17931  42.939  37.067  14.873
45507W        W17932  21.074  14.149  12.019
45508W        W17933  11.221   4.248   4.658
45509W        W17934  39.974  30.482  13.327
45510W        W17935  40.934   6.701   0.442
45511W        W17936  17.632  15.266  10.983
45512W        W17937  33.467  31.541   1.929
45513W        W17938  34.968  33.992  11.097
45514W        W17939  23.151  18.259  10.531
45515W        W17940  36.370  12.730  10.414
45516W        W17941  42.427  23.201  11.087
45517W        W17942   0.957  10.203  12.569
45518W        W17943  18.629   9.810  11.082
45519W        W17944  38.832   6.213   4.150
45520W        W17945   3.858  13.344   1.318
45521W        W17946   8.382  24.112   1.359
45522W        W17947   4.753   5.867   1.216
45523W        W17948   8.752  43.290   1.350
45524W        W17949  26.016  20.246  10.484
45525W        W17950  41.392  11.749  13.962
45526W        W17951  20.679  31.564   3.207
45527W        W17952  28.006  37.978  13.055
45528W        W17953  20.108  29.537   1.908
45529W        W17954  36.912  31.448  13.023
45530W        W17955  26.694  18.765   5.244
45531W        W17956  26.531  12.807   4.263
45532W        W17957  28.598  11.280   4.330
45533W        W17958  32.926  13.179   2.215
45534W        W17959  19.537  18.777  11.985
45535W        W17960   1.460  43.454   1.924
45536W        W17961  44.773  19.682  11.546
45537W        W17962  23.655  12.708   3.734
45538W        W17963  25.124   0.868   2.698
45539W        W17964  11.374   2.767  14.391
45540W        W17965  12.651  12.623  12.008
45541W        W17966  17.214  38.899   2.709
45542W        W17967  17.242  43.931   0.866
45543W        W17968  12.252  24.206  11.442
45544W        W17969   7.303  23.693   0.443
45545W        W17970  40.303   8.690  13.847
45546W        W17971  26.474  22.529   0.812
45547W        W17972  36.396  25.489  11.603
45548W        W17973   3.915  26.480  12.343
45549W        W17974  27.942   1.483   4.308
45550W        W17975  26.138  32.115  11.488
45551W        W17976  26.128  34.379  14.816
45552W        W17977  19.268  33.065  11.041
45553W        W17978   2.852  14.626   3.868
45554W        W17979  38.408  26.667  11.129
45555W        W17980  32.475  21.214   2.334
45556W        W17981  44.372  18.552   1.802
45557W        W17982  18.169  42.014   1.431
45558W        W17983  25.519  36.992   3.383
45559W        W17984  36.393  29.611  12.866
45560W        W17985  40.327  30.081   0.731
45561W        W17986   3.828  11.731  13.898
45562W        W17987  31.968  13.728   0.323
45563W        W17988  22.705   5.841   3.870
45564W        W17989  21.132  25.624   4.790
45565W        W17990  37.843  25.067   3.677
45566W        W17991   9.741   8.736  11.920
45567W        W17992   3.275  38.536   2.207
45568W        W17993  41.891  26.547  10.559
45569W        W17994  43.479  12.171   4.836
45570W        W17995  19.561  31.150  10.566
45571W        W17996  19.547  39.486   2.774
45572W        W17997  15.620   4.901   3.771
45573W        W17998   6.241  37.954  13.497
45574W        W17999  37.865   9.349  10.023
45575W        W18000  16.594   4.385   0.876
45576W        W18001  29.433  11.306  11.933
45577W        W18002   8.755  43.780   1.349
45578W        W18003  39.557  22.563   0.243
45579W        W18004  29.431  13.719  10.502
45580W        W18005  18.280  28.536  13.808
45581W        W18006   6.842  37.952   3.692
45582W        W18007   0.495  33.910  10.077
45583W        W18008  27.061  25.113   2.685
45584W        W18009  12.310   3.398   9.475
45585W        W18010  19.695  17.606  10.559
45586W        W18011  30.157   8.750  13.309
45587W        W18012  38.367  38.957  10.640
45588W        W18013  24.199  26.633   2.332
45589W        W18014  19.285  26.575   1.821
45590W        W18015  19.730  20.188  10.528
45591W        W18016  19.748  42.011  12.021
45592W        W18017  43.334  27.019  12.973
45593W        W18018   5.868  14.628  10.409
45594W        W18019  41.496  34.447  14.989
45595W        W18020   8.313  12.189  11.071
45596W        W18021  14.257  36.554   0.424
45597W        W18022  36.071   0.353  14.491
45598W        W18023   1.975  10.280   3.149
45599W        W18024  14.157  19.278   1.743
45600W        W18025  23.496  23.153   1.348
45601W        W18026   6.198  36.928  11.069
45602W        W18027  23.079   4.774  10.965
45603W        W18028  31.018  27.492   1.324
45604W        W18029  11.749   2.775  11.895
45605W        W18030   2.953   4.875  13.391
45606W        W18031  24.185  36.926  10.430
45607W        W18032  33.921  23.554  12.434
45608W        W18033  43.993  33.121  14.832
45609W        W18034  36.524   7.710   2.895
45610W        W18035  14.234   4.421   0.743
45611W        W18036  35.054  26.565   2.774
45612W        W18037  40.945  27.567  13.454
45613W        W18038  20.692  12.630   3.170
45614W        W18039  23.036  25.064  13.446
45615W        W18040   9.207  16.615   1.835
45616W        W18041  37.449  20.217  14.772
45617W        W18042  22.683  13.168  10.902
45618W        W18043  27.949   6.746   9.932
45619W        W18044  42.017  17.108   4.157
45620W        W18045   5.404  13.750  11.993
45621W        W18046   5.733  40.509   1.391
45622W        W18047  15.244  25.526   2.748
45623W        W18048  27.464  15.776   1.308
45624W        W18049   5.923  23.671  11.499
45625W        W18050  36.476  27.658  11.971
45626W        W18051  44.914  26.599   0.441
45627W        W18052  29.029  39.356   3.675
45628W        W18053  36.518   8.668   1.448
45629W        W18054  19.236  21.027   0.892
45630W        W18055   1.471  40.030   4.598
45631W        W18056  16.144  41.862  13.420
45632W        W18057  24.724   9.392   0.448
45633W        W18058  44.767   3.746  14.444
45634W        W18059  30.589  23.687   5.234
45635W        W18060   7.906  10.746  12.085
45636W        W18061   9.761  37.052  11.512
45637W        W18062  38.515  29.582   1.261
45638W        W18063  42.817  34.960  10.429
45639W        W18064  20.648   3.330  10.409
45640W        W18065  12.723  18.694   4.212
45641W        W18066  14.825  39.868  11.978
45642W        W18067  21.545   5.342  12.081
45643W        W18068  29.435   1.815   5.160
45644W        W18069  25.146  43.860   0.280
45645W        W18070   8.733  12.313  12.943
45646W        W18071  32.921  15.822   0.728
45647W        W18072  41.534  28.097   1.213
45648W        W18073  21.616  16.256   4.810
45649W        W18074   5.414  15.591   3.847
45650W        W18075  15.649  44.313  13.843
45651W        W18076  41.960  34.102   4.680
45652W        W18077  41.848  16.752  10.077
45653W        W18078   8.865  16.242   1.746
45654W        W18079  24.222  27.669  14.415
45655W        W18080  24.140  43.378   1.287
45656W        W18081  43.488   0.767  13.058
45657W        W18082  26.026  23.713   4.331
45658W        W18083  21.675  33.089  14.475
45659W        W18084   9.300  33.989   1.781
45660W        W18085  39.863  14.142  13.796
45661W        W18086   2.729  37.936  13.812
45662W        W18087   4.801  10.363   0.369
45663W        W18088  14.280  15.326  12.573
45664W        W18089   0.288  30.956  11.485
45665W        W18090  21.628   9.378  10.594
45666W        W18091   5.853  27.586  12.530
45667W        W18092  43.875  38.534   4.123
45668W        W18093  28.929  31.933   4.705
45669W        W18094  16.714  35.967  12.524
45670W        W18095  29.114  27.152  13.476
45671W        W18096  24.720  40.314   4.245
45672W        W18097  38.865  22.544   2.240
45673W        W18098  25.491  27.564  13.323
45674W        W18099  38.002  16.235  10.434
45675W        W18100  19.151  40.027  14.831
45676W        W18101   3.721  29.437  10.063
45677W        W18102  16.146   4.760  12.343
45678W        W18103  39.814  40.892   1.803
45679W        W18104  17.595  37.078  14.499
45680W        W18105  33.610  13.743  11.412
45681W        W18106   6.277  41.471  10.641
45682W        W18107  14.655  35.076  12.411
45683W        W18108  30.988  10.696  11.996
45684W        W18109  38.487  37.954   1.371
45685W        W18110   8.662  40.321  12.404
45686W        W18111  39.511  35.006  11.023
45687W        W18112  27.492  17.752  12.992
45688W        W18113  26.679  34.997   4.732
45689W        W18114  22.068  25.554   2.694
45690W        W18115  31.433  10.169  14.386
45691W        W18116  30.995  40.831   9.594
45692W        W18117  19.141  41.999   4.692
45693W        W18118  39.812  14.303  11.938
45694W        W18119  38.875   4.749  10.912
45695W        W18120  43.879  10.209   9.980
45696W        W18121   5.852  15.258   3.288
45697W        W18122  37.518  40.921   3.169
45698W        W18123  25.692  42.382   4.788
45699W        W18124  31.990   0.819  12.009
45700W        W18125  12.197  18.735  13.047
45701W        W18126  30.638  41.351   3.330
45702W        W18127  43.827  39.015  14.872
45703W        W18128  22.088   5.347  12.492
45704W        W18129   7.892  13.695   0.326
45705W        W18130  22.537  39.522   4.289
45706W        W18131  31.401  23.051   4.330
45707W        W18132  18.752   2.790  12.408
45708W        W18133  23.593  28.972   2.344
45709W        W18134  42.809  36.579   3.662
45710W        W18135  13.719   0.470   2.886
45711W        W18136  10.376   0.831   2.835
45712W        W18137  20.088  42.854  12.954
45713W        W18138  11.723   7.895   3.149
45714W        W18139   0.788  10.246  14.941
45715W        W18140  38.023   4.929  11.075
45716W        W18141  43.508   9.851   2.823
45717W        W18142  25.099  32.108   1.848
45718W        W18143  32.471  15.727  11.984
45719W        W18144  11.297  39.918   3.231
45720W        W18145  22.128  17.188   3.147
45721W        W18146  24.537  31.137   1.853
45722W        W18147   0.424  33.536   3.766
45723W        W18148  24.063  30.458   3.213
45724W        W18149  37.997  28.495   2.736
45725W        W18150   8.673  16.735  10.100
45726W        W18151   9.647  25.057  11.111
45727W        W18152  19.707   0.813  11.011
45728W        W18153  19.232   9.703  11.016
45729W        W18154  18.100  43.398  12.398
45730W        W18155   5.745   4.327   0.258
45731W        W18156   4.825  16.074   2.190
45732W        W18157  36.412   8.275   1.440
45733W        W18158   9.767  14.814   1.446
45734W        W18159   8.702  18.704  11.590
45735W        W18160   3.429  19.746  14.451
45736W        W18161  38.980   0.453  13.798
45737W        W18162  23.183   1.927   3.276
45738W        W18163   6.203  26.682  10.553
45739W        W18164  17.624  10.262   9.956
45740W        W18165  44.464   9.778   0.299
45741W        W18166  14.634  31.040  11.041
45742W        W18167  21.177  41.038   0.282
45743W        W18168  20.718  39.913  10.470
45744W        W18169  27.070  25.069  10.548
45745W        W18170  25.192  24.547   3.360
45746W        W18171  10.187  29.075  10.100
45747W        W18172  42.495  37.969   1.247
45748W        W18173  22.654  33.526  14.899
45749W        W18174   0.894  38.504   1.419
45750W        W18175  17.671  22.742   1.891
45751W        W18176  17.763  32.612   5.589
45752W        W18177  38.826  42.879  12.368
45753W        W18178  23.137  24.700  12.002
45754W        W18179   0.751  39.454   3.255
45755W        W18180  42.833  39.526  11.569
45756W        W18181  31.017   0.361   2.819
45757W        W18182  15.680   4.300   1.911
45758W        W18183  30.444  30.099   0.759
45759W        W18184   0.352   4.924  11.895
45760W        W18185  22.186   1.879  11.121
45761W        W18186  21.645  24.584  12.959
45762W        W18187  40.879  23.212  11.475
45763W        W18188   5.393   7.686  11.005
45764W        W18189  10.800  21.727   3.336
45765W        W18190  21.151  42.463  14.389
45766W        W18191  25.542   9.713   1.893
45767W        W18192  40.351  18.147   4.653
45768W        W18193  27.455  19.261   4.282
45769W        W18194  30.957   8.298  14.387
45770W        W18195  37.549  43.993   0.940
45771W        W18196  30.572   8.358  13.844
45772W        W18197  10.296  22.699  12.065
45773W        W18198   4.247  42.868  13.965
45774W        W18199  34.569  31.498   0.815
45775W        W18200  14.589  34.901  13.309
45776W        W18201  28.969  22.078   3.710
45777W        W18202  41.428  36.012   1.356
45778W        W18203  38.554   4.753  11.569
45779W        W18204  31.030   5.288  12.086
45780W        W18205  44.763  39.373  14.480
45781W        W18206  32.444  10.217   2.836
45782W        W18207  35.593  27.458   3.719
45783W        W18208  31.991  27.955  11.609
45784W        W18209  28.996  27.183   4.125
45785W        W18210  32.590  29.981  14.290
45786W        W18211  36.872  13.234   4.658
45787W        W18212  24.180  36.354   3.653
45788W        W18213  36.462  27.514  14.824
45789W        W18214  31.514   8.675  12.886
45790W        W18215  24.524   5.337  14.776
45791W        W18216  11.164  17.705  13.410
45792W        W18217  32.568  23.085   3.372
45793W        W18218  14.654  36.392   4.197
45794W        W18219   3.388  16.291  14.949
45795W        W18220   6.387  17.613   1.801
45796W        W18221  43.870  23.638   2.182
45797W        W18222   4.364   1.827   0.300
45798W        W18223  18.112   0.253   1.403
45799W        W18224  37.400   1.282   3.802
45800W        W18225  20.684  39.335  12.054
45801W        W18226  41.501  34.902  11.120
45802W        W18227  33.094  25.132  10.554
45803W        W18228  39.363   8.160  13.425
45804W        W18229  24.479   3.913  10.524
45805W        W18230  18.700  31.969   3.704
45806W        W18231  39.361   1.745  12.840
45807W        W18232  21.524  39.412  13.005
45808W        W18233   3.447   4.352  10.599
45809W        W18234  43.447  39.553  14.873
45810W        W18235   4.852  17.753   2.314
45811W        W18236  30.916  29.080   2.805
45812W        W18237  43.372  25.691   3.684
45813W        W18238   5.726  12.612   1.698
45814W        W18239  32.422  31.898  11.397
45815W        W18240  43.880  20.142  12.484
45816W        W18241  12.321   4.772  10.616
45817W        W18242  15.304  22.199  10.630
45818W        W18243  34.611   2.828  12.897
45819W        W18244   2.807  39.340   4.632
45820W        W18245  43.961  16.191  10.937
45821W        W18246  29.145  12.138  12.509
45822W        W18247   8.687   9.654   4.315
45823W        W18248   1.286   6.248  12.407
45824W        W18249   7.375   8.245   1.312
45825W        W18250   8.689   9.359  10.486
45826W        W18251  25.031   7.208   0.383
45827W        W18252  19.212  15.245   4.221
45828W        W18253  32.553  22.608   3.798
45829W        W18254  26.135   7.781  12.066
45830W        W18255  43.381  22.555  11.473
45831W        W18256  20.073  31.118   0.472
45832W        W18257  22.207  11.183   0.833
45833W        W18258  19.700  21.219   2.250
45834W        W18259  32.403  41.010  11.029
45835W        W18260  31.972   9.839  10.462
45836W        W18261  11.761  14.237   1.301
45837W        W18262  11.284   9.764  11.598
45838W        W18263   3.259   1.959  10.473
45839W        W18264  11.749   5.205   4.639
45840W        W18265   4.832  24.600   0.333
45841W        W18266  16.742  12.734   2.397
45842W        W18267   5.780  16.250  11.879
45843W        W18268  10.265  19.111   3.189
45844W        W18269  11.794  12.242  13.324
45845W        W18270  21.159   9.801  11.084
45846W        W18271  42.963  15.733  14.989
45847W        W18272  43.022   1.240   1.373
45848W        W18273  13.242  34.924   4.738
45849W        W18274  34.489  28.178  13.414
45850W        W18275  16.080  21.739   3.645
45851W        W18276  40.826  16.233  11.122
45852W        W18277  30.151  29.542   4.781
45853W        W18278  38.029  41.957  10.419
45854W        W18279   8.683  20.750  12.066
45855W        W18280  30.466  20.600  12.846
45856W        W18281   3.422  18.066  10.992
45857W        W18282  30.962   3.839  10.960
45858W        W18283  38.030  11.679  14.860
45859W        W18284  29.961  11.718  11.610
45860W        W18285  44.344   7.269  11.396
45861W        W18286  22.592  19.179  12.479
45862W        W18287  43.924  22.722   1.873
45863W        W18288  11.208  42.778   0.773
45864W        W18289  26.187  36.088   4.703
45865W        W18290  29.128  16.696   2.769
45866W        W18291   9.237  37.886   3.867
45867W        W18292   8.273  20.626  12.056
45868W        W18293  10.285  39.435  12.388
45869W        W18294   3.366  22.553   2.319
45870W        W18295   9.390  39.963   1.412
45871W        W18296  31.062  43.942  12.372
45872W        W18297  27.579   8.699   2.340
45873W        W18298  37.892  37.384   2.397
45874W        W18299  25.219  14.106   2.245
45875W        W18300  38.856  33.033   0.273
45876W        W18301   9.718  39.063  11.884
45877W        W18302  29.016  44.315  11.906
45878W        W18303   0.936   7.844   5.233
45879W        W18304  44.934  21.704  11.936
45880W        W18305  35.503   5.303  11.549
45881W        W18306   6.807  10.663  14.326
45882W        W18307  13.118  10.189   4.279
45883W        W18308  16.607  30.018  11.409
45884W        W18309  21.728  22.655   4.277
45885W        W18310  43.339  14.809  11.859
45886W        W18311  34.512   5.856  14.022
45887W        W18312  22.567  32.105  14.789
45888W        W18313  29.433   8.365  12.006
45889W        W18314  41.829  25.137  12.866
45890W        W18315  28.660  38.394  11.414
45891W        W18316   8.231   0.327   4.209
45892W        W18317  13.349  34.468   4.813
45893W        W18318  11.309  18.185  13.466
45894W        W18319  39.908  24.210   3.792
45895W        W18320   7.237  19.176  12.997
45896W        W18321   4.793   1.362   2.334
45897W        W18322  16.691  36.917   2.779
45898W        W18323   2.751  19.586  13.357
45899W        W18324  31.648  23.014   3.753
45900W        W18325  38.954  21.639  10.417
45901W        W18326   0.328   7.286  12.474
45902W        W18327  10.658  38.959  10.632
45903W        W18328  25.500   1.277   1.791
45904W        W18329   3.726  36.034  13.972
45905W        W18330  34.512  32.901  14.327
45906W        W18331  38.549  32.012  13.816
45907W        W18332   5.257  42.775  11.942
45908W        W18333  42.426  37.392   5.306
45909W        W18334  27.144  28.070   2.401
45910W        W18335   9.388  38.382  12.985
45911W        W18336  36.578  34.082   3.705
45912W        W18337  20.177  37.996  13.448
45913W        W18338  35.869   7.258  14.793
45914W        W18339   0.970  40.486   9.980
45915W        W18340   3.444  15.607   2.306
45916W        W18341   6.771  18.062   1.449
45917W        W18342  26.085  29.097   0.961
45918W        W18343  33.966  14.702   4.236
45919W        W18344  34.093   1.331   4.659
45920W        W18345  31.609   8.207  13.449
45921W        W18346   1.483  34.435  12.986
45922W        W18347  37.881   0.813   1.362
45923W        W18348   9.376   3.887   4.217
45924W        W18349   3.345  14.783   0.770
45925W        W18350  29.525  33.471   0.786
45926W        W18351   5.837  18.621  10.993
45927W        W18352   4.778  23.589   0.796
45928W        W18353  12.645   6.283   0.245
45929W        W18354  41.817   6.905   3.145
45930W        W18355  33.894  15.123  13.457
45931W        W18356  44.769   8.348   2.842
45932W        W18357  36.977  33.386   3.719
45933W        W18358  38.539  11.648  10.976
45934W        W18359  42.383   8.266  13.448
45935W        W18360  27.964  25.178  11.375
45936W        W18361  37.002  27.053   4.604
45937W        W18362   9.326   8.782  12.364
45938W        W18363  35.989  20.636   2.872
45939W        W18364  22.519   8.335  14.424
45940W        W18365  34.998   8.748  10.001
45941W        W18366  12.676  23.736   3.335
45942W        W18367   4.841  32.053   3.313
45943W        W18368  26.168   7.902  13.869
45944W        W18369  38.896  12.744  12.006
45945W        W18370  29.102   4.346   2.300
45946W        W18371  19.134  16.591  12.952
45947W        W18372  33.064   0.435  10.613
45948W        W18373  19.534   2.735   0.337
45949W        W18374  27.145  20.633   3.372
45950W        W18375  31.630   8.783  14.867
45951W        W18376   9.184  18.696  11.120
45952W        W18377   7.279  24.002  11.438
45953W        W18378  27.532   1.446   2.895
45954W        W18379   5.907   6.838   4.796
45955W        W18380  21.745  27.622  11.592
45956W        W18381  25.208   0.933   4.835
45957W        W18382  36.539  42.004  10.440
45958W        W18383   9.773   4.376   3.353
45959W        W18384   2.363  18.682   3.657
45960W        W18385  18.607  20.029  11.410
45961W        W18386  28.526  39.967  11.604
45962W        W18387  35.000  14.134  10.421
45963W        W18388  13.344  19.273   2.776
45964W        W18389  17.746  25.045   1.419
45965W        W18390  39.813  33.618   3.227
45966W        W18391  36.975  39.944   3.268
45967W        W18392  19.579   8.371   0.305
45968W        W18393  39.533  44.358   2.191
45969W        W18394  41.013  39.376  13.493
45970W        W18395  36.504  34.981  11.909
45971W        W18396   9.393  31.617   3.637
45972W        W18397   3.719  19.564  10.901
45973W        W18398  20.032  22.212   4.763
45974W        W18399  19.646  25.489   0.277
45975W        W18400  43.461   1.404   4.790
45976W        W18401  24.099  15.114  14.887
45977W        W18402  38.525  32.532  12.374
45978W        W18403  12.326  23.525   0.782
45979W        W18404  25.212   1.846  14.476
45980W        W18405   3.852  17.188  13.376
45981W        W18406   0.351   2.330   1.363
45982W        W18407  13.339   7.714  12.385
45983W        W18408  41.821  37.431  13.425
45984W        W18409  24.716  13.263  13.840
45985W        W18410  43.980  37.465  13.409
45986W        W18411  28.992  14.739   4.786
45987W        W18412  22.720  11.301   2.242
45988W        W18413   9.339   7.363  10.956
45989W        W18414  20.678  36.434  13.313
45990W        W18415  22.111  35.973  11.571
45991W        W18416  25.979  44.403   1.234
45992W        W18417  26.045  29.072  14.933
45993W        W18418  40.861  38.529   2.763
45994W        W18419  38.962  31.070  14.505
45995W        W18420  25.650   8.734   4.820
45996W        W18421  13.337  25.141   0.412
45997W        W18422  24.223   5.854  12.082
45998W        W18423   6.800  26.521  12.547
45999W        W18424  26.045  15.615   3.231
46000W        W18425  35.594  37.033  13.989
46001W        W18426  42.830  44.367  14.450
46002W        W18427  21.708  40.334   4.113
46003W        W18428  15.638  32.051   0.913
46004W        W18429  27.946  42.973  11.012
46005W        W18430   2.875  19.589   2.868
46006W        W18431  28.562   6.784  14.315
46007W        W18432  38.999  25.669   0.897
46008W        W18433  26.599  40.523   3.686
46009W        W18434  37.398  15.657  12.364
46010W        W18435  41.910  20.097  11.129
46011W        W18436  25.150  20.047   3.266
46012W        W18437   7.275  17.564  11.377
46013W        W18438  35.866  32.553  14.989
46014W        W18439  44.398  39.836   4.297
46015W        W18440  28.666   2.297  13.441
46016W        W18441  41.310  42.825   1.710
46017W        W18442   0.833  28.171  11.076
46018W        W18443  30.477  22.676   0.299
46019W        W18444  21.046  31.128   2.346
46020W        W18445  35.866   9.692   9.933
46021W        W18446  10.237  40.799   2.833
46022W        W18447  17.666  19.647   2.226
46023W        W18448   4.382  44.355   1.884
46024W        W18449  22.210   3.927  10.898
46025W        W18450   3.460  18.790   3.151
46026W        W18451  37.454  24.656  13.061
46027W        W18452  15.313   4.281   5.114
46028W        W18453  35.910  37.021   0.965
46029W        W18454  13.297  27.627  11.400
46030W        W18455  17.074  43.457  11.040
46031W        W18456   0.282  13.186   2.226
46032W        W18457  36.062  16.188  11.879
46033W        W18458  17.723  37.579  13.433
46034W        W18459   6.765   2.237  11.406
46035W        W18460  31.534   8.309  11.972
46036W        W18461   8.801  28.515  14.508
46037W        W18462  21.158  11.696   0.964
46038W        W18463  30.604  41.357  13.026
46039W        W18464  19.719  14.333  14.327
46040W        W18465  20.668  13.618  11.930
46041W        W18466   5.857  36.853  13.854
46042W        W18467  18.087  29.123   1.813
46043W        W18468  38.369  23.615   1.388
46044W        W18469  12.287  21.598   5.753
46045W        W18470  11.632   9.884   1.776
46046W        W18471  10.300  20.689  14.311
46047W        W18472  21.150  13.161  14.787
46048W        W18473  35.576   0.390  13.339
46049W        W18474  36.560   5.770   0.851
46050W        W18475  20.758  11.340   4.323
46051W        W18476  30.579  15.092  11.387
46052W        W18477   8.374  21.054   4.325
46053W        W18478  20.077  44.384   4.643
46054W        W18479  12.788   2.349   1.723
46055W        W18480  34.046  15.697   3.838
46056W        W18481   3.295  13.721   1.877
46057W        W18482  40.858   7.351  11.898
46058W        W18483   1.354  11.208   4.157
46059W        W18484  22.670   3.752  14.023
46060W        W18485   3.736  16.674  13.395
46061W        W18486  20.145  43.406  13.037
46062W        W18487  21.017  11.304  14.411
46063W        W18488  15.313  42.410  13.980
46064W        W18489  35.987  33.468   1.437
46065W        W18490   0.804  42.837  13.518
46066W        W18491  32.614  37.569   3.867
46067W        W18492  22.525  39.999   4.762
46068W        W18493   5.362  22.031  13.533
46069W        W18494  44.938   0.326  11.450
46070W        W18495  13.722   4.922  12.869
46071W        W18496  43.460  13.119  12.340
46072W        W18497  31.990  26.611   5.248
46073W        W18498  19.172  16.117  10.455
46074W        W18499  39.395  10.294   3.675
46075W        W18500  30.931  22.556  13.896
46076W        W18501  12.210   1.336   3.189
46077W        W18502   1.440   8.290   4.626
46078W        W18503  14.691   9.707   1.912
46079W        W18504  20.181   8.761  12.041
46080W        W18505   3.844   9.291  13.955
46081W        W18506   0.456  39.981  10.522
46082W        W18507  33.594  41.296  13.936
46083W        W18508   3.341  37.536  11.420
46084W        W18509   4.928  21.244   4.160
46085W        W18510  26.643  42.511  12.960
46086W        W18511  38.422  19.696   2.851
46087W        W18512   8.385  41.446   2.716
46088W        W18513  36.511  20.762   0.363
46089W        W18514  39.008  37.908  11.908
46090W        W18515  11.253  17.239   0.889
46091W        W18516  18.230  38.539   3.785
46092W        W18517  11.779  26.125   1.934
46093W        W18518  25.114  17.732   3.776
46094W        W18519  10.685   8.199   2.775
46095W        W18520  21.663  36.350   4.229
46096W        W18521   1.824   3.447   0.254
46097W        W18522  23.020  35.548   4.812
46098W        W18523  41.341  27.582  12.035
46099W        W18524  31.003  35.561   4.743
46100W        W18525   4.391  29.637  12.059
46101W        W18526  18.084  33.915  11.050
46102W        W18527  26.622   8.670  10.605
46103W        W18528  19.730  41.867   0.783
46104W        W18529   4.826  32.054  14.858
46105W        W18530  32.597   9.331   1.271
46106W        W18531  13.209  38.054  14.809
46107W        W18532  40.446  27.143  13.923
46108W        W18533  11.294   2.358   3.356
46109W        W18534   8.285   8.314  11.444
46110W        W18535  19.630  16.599  12.987
46111W        W18536  13.138  18.746  10.406
46112W        W18537  13.259  12.731  10.458
46113W        W18538   8.286  11.759  12.866
46114W        W18539  43.433   8.204  13.326
46115W        W18540  22.540   3.243  10.417
46116W        W18541  39.026  26.129   4.344
46117W        W18542   9.869  27.993  12.434
46118W        W18543   6.863  25.138  13.908
46119W        W18544  15.672  30.986   1.273
46120W        W18545   7.373  25.624   0.812
46121W        W18546  39.985  22.155   3.835
46122W        W18547  35.990  18.254   2.252
46123W        W18548   5.812  43.019   5.272
46124W        W18549  24.484  37.915   3.679
46125W        W18550  22.182  28.970   1.811
46126W        W18551   4.227  36.524  11.859
46127W        W18552  43.476  15.186  14.965
46128W        W18553  40.354  20.664  11.862
46129W        W18554  40.353  28.479   0.307
46130W        W18555  36.057  22.239   0.482
46131W        W18556  33.044  39.983   0.836
46132W        W18557  37.935  35.580  12.949
46133W        W18558  44.805  25.492   0.891
46134W        W18559  37.023  32.137   3.800
46135W        W18560   2.370   3.323  13.318
46136W        W18561  15.712   9.827   4.284
46137W        W18562  22.061   5.726   1.410
46138W        W18563  36.579  20.588   4.649
46139W        W18564  22.618  15.706   2.796
46140W        W18565   4.733  39.468  14.345
46141W        W18566   5.921  30.479   1.887
46142W        W18567  39.452   8.332   0.369
46143W        W18568  21.125  25.562  14.856
46144W        W18569  42.864   6.375  12.378
46145W        W18570  13.263  26.204   4.774
46146W        W18571  33.915  31.081   3.371
46147W        W18572   9.763   0.876  10.636
46148W        W18573  33.918  34.112   4.702
46149W        W18574  20.638  19.759  10.552
46150W        W18575  13.239  17.067   1.828
46151W        W18576  31.917  33.122   4.806
46152W        W18577  44.789  42.366   1.900
46153W        W18578   8.359  27.984   1.262
46154W        W18579  10.859  30.435   3.265
46155W        W18580  36.959  17.742   2.378
46156W        W18581  43.960  37.557  13.061
46157W        W18582  26.701  18.124   9.931
46158W        W18583  15.169  27.560   0.328
46159W        W18584  31.624  24.725  10.939
46160W        W18585  10.244  39.444  13.468
46161W        W18586   6.208  13.335   3.259
46162W        W18587  28.442  29.567  11.940
46163W        W18588  37.463   3.815  10.582
46164W        W18589  36.415  44.303   4.259
46165W        W18590  38.044  37.522  12.407
46166W        W18591  40.911  20.723   0.361
46167W        W18592  28.085  11.709   0.822
46168W        W18593  37.363  25.470   4.731
46169W        W18594  20.126  31.476   1.244
46170W        W18595  25.669   1.299  13.470
46171W        W18596  20.622   6.287   4.813
46172W        W18597   4.245   4.256  10.912
46173W        W18598  38.850  38.930   1.314
46174W        W18599   2.268  29.640   1.827
46175W        W18600  33.878  32.484  10.534
46176W        W18601  13.229  35.910   3.662
46177W        W18602  43.934  20.240   0.959
46178W        W18603   2.256  10.817   0.870
46179W        W18604  11.770  42.997  12.994
46180W        W18605  13.680   1.862   0.906
46181W        W18606  19.629   6.239  14.900
46182W        W18607  35.852  24.703   0.936
46183W        W18608  40.866  35.516  12.378
46184W        W18609  10.848  24.684  14.464
46185W        W18610   9.187  34.863   1.934
46186W        W18611  30.486   7.316   1.735
46187W        W18612  42.015  44.314  13.425
46188W        W18613  27.447  44.784   3.195
46189W        W18614  12.652  33.545   0.775
46190W        W18615   6.285   2.898  14.817
46191W        W18616  40.509  15.203  11.467
46192W        W18617  30.546  13.254   0.759
46193W        W18618  10.284  11.172   0.340
46194W        W18619   8.865  39.438  11.594
46195W        W18620  12.192  19.184  14.887
46196W        W18621  24.541  17.595   0.939
46197W        W18622   6.732  28.609  11.401
46198W        W18623  43.342  16.139  13.878
46199W        W18624  29.929  26.633  12.843
46200W        W18625  25.577  24.126   3.334
46201W        W18626  17.765  34.527  11.534
46202W        W18627  28.553   6.253   1.324
46203W        W18628  29.012  25.028   1.814
46204W        W18629   9.787   0.334  11.059
46205W        W18630  23.563  17.793  13.859
46206W        W18631   7.814  20.072  11.916
46207W        W18632  34.374  35.010   2.367
46208W        W18633  25.019   6.913   2.695
46209W        W18634   7.231   2.231   4.258
46210W        W18635  18.101  20.568  14.830
46211W        W18636  30.966  22.062   3.163
46212W        W18637   5.369   1.266   2.824
46213W        W18638  39.867  35.493  13.906
46214W        W18639   0.444   9.286   1.858
46215W        W18640  20.111  19.560   3.346
46216W        W18641  28.495  38.367   1.809
46217W        W18642  22.166  14.174   1.787
46218W        W18643  14.623   4.757   0.479
46219W        W18644  31.550  19.644  10.617
46220W        W18645   9.679  27.989   3.793
46221W        W18646   7.332  38.939   4.649
46222W        W18647  34.092   9.712   0.751
46223W        W18648  13.214   0.899   4.815
46224W        W18649  28.998   1.280  14.427
46225W        W18650  20.528  30.651  12.468
46226W        W18651  22.144  16.723   2.264
46227W        W18652  43.926  23.671   3.726
46228W        W18653  16.688  14.735  13.959
46229W        W18654  14.777   8.771  12.477
46230W        W18655   7.726  43.492  14.900
46231W        W18656  26.046  17.569  11.006
46232W        W18657  42.955  36.882  12.946
46233W        W18658  21.554   8.319   3.241
46234W        W18659  24.654  34.984  11.126
46235W        W18660   7.674  14.306   4.251
46236W        W18661  41.527  19.211  14.014
46237W        W18662  19.619  15.723   5.289
46238W        W18663  30.932  16.752   3.690
46239W        W18664   3.285  43.362  12.344
46240W        W18665  26.207   8.217   3.642
46241W        W18666   6.376  17.279   9.974
46242W        W18667  22.217  23.138   3.250
46243W        W18668  21.526  35.527  14.330
46244W        W18669  38.467  36.990  11.972
46245W        W18670  19.651  10.875   0.466
46246W        W18671   0.359  28.629   4.152
46247W        W18672  26.957   1.947   4.335
46248W        W18673  24.204  31.052   5.086
46249W        W18674  31.113   5.270  14.386
46250W        W18675  26.581  28.969  14.897
46251W        W18676  23.692   9.354   0.953
46252W        W18677  17.607  28.509  14.464
46253W        W18678  16.705   1.845  11.025
46254W        W18679   4.804   8.728  12.948
46255W        W18680  42.462   9.207   3.724
46256W        W18681  43.837  10.855   4.675
46257W        W18682  37.837  12.198   2.730
46258W        W18683  15.309  12.271   4.225
46259W        W18684  24.505  27.621  12.030
46260W        W18685   0.474  16.790  13.456
46261W        W18686   4.737   4.912   2.824
46262W        W18687  26.641  21.518   3.677
46263W        W18688   2.286  33.444   4.339
46264W        W18689   6.275  10.279   3.346
46265W        W18690  42.852  18.586  14.510
46266W        W18691  19.575  34.915  14.905
46267W        W18692  15.091  18.657   0.260
46268W        W18693   7.809  44.948  11.609
46269W        W18694  22.564  41.525   0.366
46270W        W18695  35.101   6.694  10.102
46271W        W18696   4.405  42.518  12.858
46272W        W18697  33.504  17.094  11.064
46273W        W18698   5.197   3.955  14.944
46274W        W18699  18.232  35.563   0.956
46275W        W18700  26.639  19.622  12.830
46276W        W18701  22.595   3.838   2.803
46277W        W18702   7.748  20.183  12.829
46278W        W18703  30.006   9.689   0.321
46279W        W18704  42.348  18.757   0.853
46280W        W18705   5.880  29.092  13.412
46281W        W18706   7.326  25.081   0.420
46282W        W18707  31.036   9.206  11.518
46283W        W18708  15.772   4.364   2.760
46284W        W18709   5.819   8.874   3.793
46285W        W18710  16.231  20.575  12.872
46286W        W18711  34.462  10.370  12.899
46287W        W18712  29.595  42.487  13.461
46288W        W18713  28.475  18.642   3.820
46289W        W18714   4.916  24.078   2.849
46290W        W18715  16.670  42.376   1.704
46291W        W18716   2.899  18.099  10.592
46292W        W18717   9.778  35.066   0.409
46293W        W18718  17.116  26.104   0.910
46294W        W18719  41.363  19.671   0.877
46295W        W18720  35.497  44.905   0.914
46296W        W18721  15.181  20.120  13.458
46297W        W18722  13.781   1.858  14.313
46298W        W18723  41.397  42.029  14.898
46299W        W18724   9.211  30.146   4.787
46300W        W18725  26.046  32.886   5.687
46301W        W18726  22.107  43.864  14.834
46302W        W18727  10.634  13.706  14.834
46303W        W18728  36.878   4.351   0.428
46304W        W18729  37.087  43.334  13.466
46305W        W18730  15.707  34.544   5.260
46306W        W18731  30.125  40.414   2.716
46307W        W18732  37.578  19.104   2.292
46308W        W18733  16.799  24.604  14.370
46309W        W18734  37.864   8.678  10.544
46310W        W18735  29.625  10.374  10.433
46311W        W18736  44.812  30.643   0.856
46312W        W18737  43.409  15.284   2.734
46313W        W18738   4.825  26.200  12.020
46314W        W18739   5.339  20.621  12.019
46315W        W18740  20.655  10.264   1.290
46316W        W18741  43.953   7.904  11.924
46317W        W18742   1.932  13.318  14.995
46318W        W18743  44.342  44.864  14.347
46319W        W18744  39.825  12.299   1.771
46320W        W18745   0.431  15.292  14.001
46321W        W18746  44.004  32.405  11.923
46322W        W18747  39.545  19.086  10.916
46323W        W18748  20.623  35.499  10.557
46324W        W18749  37.473   9.798   2.881
46325W        W18750  16.260  27.065  11.402
46326W        W18751  43.851  39.060   1.396
46327W        W18752   8.818  14.112   2.869
46328W        W18753  24.490  25.566  11.498
46329W        W18754  25.142  13.244  14.515
46330W        W18755   6.872   4.297  11.055
46331W        W18756  43.954  31.037  14.340
46332W        W18757  16.616   6.360  14.314
46333W        W18758  38.828  41.472   1.410
46334W        W18759   9.877  31.601  11.071
46335W        W18760  34.973  39.460   2.391
46336W        W18761  21.739   7.298  10.514
46337W        W18762  10.382  21.687   4.655
46338W        W18763   3.787  19.708  13.000
46339W        W18764  44.449  26.034  13.992
46340W        W18765  28.176  35.859  11.874
46341W        W18766  18.788   9.807   0.473
46342W        W18767  25.669  36.357   2.395
46343W        W18768  36.538   5.737  11.590
46344W        W18769  25.066  15.729   3.230
46345W        W18770   2.780  11.289  14.500
46346W        W18771  36.542  11.636  10.537
46347W        W18772  14.106  14.158  12.917
46348W        W18773  44.990  14.233   2.880
46349W        W18774  44.763   3.421   4.280
46350W        W18775   8.892  19.630  10.519
46351W        W18776   5.747  36.392   0.911
46352W        W18777   1.845  13.110   1.727
46353W        W18778   4.900  24.024  13.360
46354W        W18779  16.579  43.315  10.967
46355W        W18780  40.354  36.378   2.846
46356W        W18781   1.435   7.808  14.966
46357W        W18782  17.584  23.568   2.337
46358W        W18783  29.942  25.212  13.327
46359W        W18784  22.513  43.770   0.821
46360W        W18785   2.934  10.805   1.722
46361W        W18786  41.292  43.989   0.948
46362W        W18787   6.919  25.078   0.775
46363W        W18788  33.400   7.358   1.298
46364W        W18789  16.107  17.704   3.731
46365W        W18790  22.527   3.902  13.406
46366W        W18791  35.079   4.406   1.727
46367W        W18792  14.256  38.337  10.558
46368W        W18793   2.950   4.303   3.654
46369W        W18794  42.416  23.105  12.916
46370W        W18795  27.547  22.710  12.039
46371W        W18796  34.993  21.065   3.638
46372W        W18797  42.941  17.278   4.195
46373W        W18798  11.670  30.477   0.353
46374W        W18799  44.947  28.133  10.514
46375W        W18800   2.962  35.872   4.770
46376W        W18801  33.433  44.310  14.823
46377W        W18802   2.457  19.226   0.398
46378W        W18803   9.780  39.463  13.475
46379W        W18804  13.186  44.987   4.729
46380W        W18805  27.062  43.491  10.614
46381W        W18806  23.236  22.654   0.253
46382W        W18807  39.447  25.616  14.794
46383W        W18808  36.540  40.378  12.416
46384W        W18809   6.192  28.137   2.678
46385W        W18810  34.379  16.796   0.369
46386W        W18811  44.463  24.062  13.950
46387W        W18812  27.594  16.176   1.761
46388W        W18813  42.853  11.745   2.765
46389W        W18814  23.524  38.040   2.216
46390W        W18815  14.713  10.851  11.517
46391W        W18816  12.290  42.984  10.554
46392W        W18817  16.729  20.549   4.291
46393W        W18818  39.421  29.657   0.880
46394W        W18819  44.900  14.141  13.834
46395W        W18820  29.970  28.508  13.817
46396W        W18821  44.302   4.858  11.060
46397W        W18822  39.010  28.045   0.297
46398W        W18823  13.137  10.641  11.497
46399W        W18824  38.911  12.776  11.392
46400W        W18825  14.733  22.656   9.995
46401W        W18826  23.126   9.313   2.672
46402W        W18827  33.474  23.101  12.439
46403W        W18828  29.960  37.527  13.000
46404W        W18829   9.755   6.367  13.822
46405W        W18830  29.143   5.895  13.364
46406W        W18831  19.676   5.930  11.882
46407W        W18832  18.104  10.846  12.030
46408W        W18833  26.139  13.831  14.860
46409W        W18834   0.844  41.907   4.714
46410W        W18835  15.312  41.514  13.057
46411W        W18836  19.173   5.841  12.449
46412W        W18837  34.890  37.581   0.425
46413W        W18838  20.539  39.474   2.203
46414W        W18839  16.753   7.816   2.390
46415W        W18840  27.460  10.195  10.908
46416W        W18841   3.329  13.719  14.978
46417W        W18842  41.867   1.303   4.640
46418W        W18843  43.378  15.687   0.757
46419W        W18844  29.583  16.227   3.207
46420W        W18845  14.257  15.283  11.394
46421W        W18846  15.766  20.247   5.306
46422W        W18847  19.571  16.761   1.859
46423W        W18848  32.529  15.733  14.866
46424W        W18849  27.155  26.534   3.631
46425W        W18850  27.607  10.199  11.924
46426W        W18851  36.932  19.591   2.190
46427W        W18852  21.567   3.417   2.778
46428W        W18853  41.313  36.896   0.330
46429W        W18854   4.240   6.252   0.453
46430W        W18855   0.770  30.133  12.900
46431W        W18856  23.064   3.290   0.462
46432W        W18857  18.550  16.157   0.344
46433W        W18858  13.694  29.173   3.173
46434W        W18859   6.892  36.532  14.934
46435W        W18860   3.316  35.405   2.740
46436W        W18861   4.803  19.153   0.945
46437W        W18862  19.592   9.221   3.758
46438W        W18863  19.184  44.358   1.869
46439W        W18864  43.500  32.550   2.395
46440W        W18865  12.712  24.214  10.008
46441W        W18866  30.560   1.324  12.922
46442W        W18867  19.537  38.006   3.358
46443W        W18868   9.743   6.423  11.935
46444W        W18869  11.848  24.202  11.479
46445W        W18870   2.257   9.367   0.333
46446W        W18871   0.839   6.857   4.704
46447W        W18872   3.829  31.625  13.045
46448W        W18873   4.375  23.639   3.183
46449W        W18874  41.796  11.244   9.920
46450W        W18875  34.592  18.198  10.642
46451W        W18876  20.068   3.823   4.795
46452W        W18877  37.500  11.731  14.503
46453W        W18878  44.824  40.360  14.960
46454W        W18879   2.923  28.084  14.790
46455W        W18880  16.763   5.435  12.937
46456W        W18881  18.571  44.969   0.258
46457W        W18882  30.587  24.122   5.805
46458W        W18883  29.108   1.478   4.208
46459W        W18884  37.924  22.590  10.479
46460W        W18885  26.537  44.981  13.867
46461W        W18886  43.400  31.926   3.202
46462W        W18887  13.627  24.131  11.396
46463W        W18888  17.632  11.138  10.430
46464W        W18889  28.946  19.705   1.403
46465W        W18890  27.601  23.237  12.544
46466W        W18891  31.930   2.329  10.991
46467W        W18892  20.057  34.383   2.196
46468W        W18893  14.633  21.543  12.551
46469W        W18894  33.075  27.666   2.359
46470W        W18895  22.211   5.746   2.224
46471W        W18896  34.108  30.548   3.285
46472W        W18897  20.534  13.166   4.291
46473W        W18898  24.058  31.121   5.668
46474W        W18899  39.048   1.968   1.450
46475W        W18900  15.219   8.812  14.941
46476W        W18901   5.317  29.473  14.393
46477W        W18902  25.664  42.862  13.393
46478W        W18903  24.683  43.876  11.942
46479W        W18904  18.091   2.363  13.851
46480W        W18905  28.069   3.951  10.532
46481W        W18906  17.229  19.731   2.392
46482W        W18907  24.628   9.710   3.162
46483W        W18908  44.925   0.258  12.095
46484W        W18909  24.187  43.439  10.463
46485W        W18910  29.935   3.315  12.369
46486W        W18911   8.353  16.200   2.334
46487W        W18912  12.191  12.289  12.506
46488W        W18913  39.439  34.568  14.923
46489W        W18914   7.240  26.191   2.214
46490W        W18915  16.743  11.321   4.165
46491W        W18916  13.128  21.027  14.923
46492W        W18917  29.994  18.716   3.830
46493W        W18918  17.090  32.065   4.663
46494W        W18919  14.599  17.564   3.300
46495W        W18920   1.425  11.689   4.339
46496W        W18921  42.831  18.748   0.386
46497W        W18922  39.510  11.735  12.837
46498W        W18923  35.054  24.098   4.613
46499W        W18924  44.265   0.789   3.259
46500W        W18925  32.138  34.538   3.829
46501W        W18926  21.210  10.225  14.977
46502W        W18927   6.358  27.978  13.333
46503W        W18928  30.528  10.328  11.497
46504W        W18929  15.243   8.874   3.255
46505W        W18930  33.397   7.326  13.367
46506W        W18931   0.945  37.432   0.390
46507W        W18932  18.275  31.628   1.933
46508W        W18933  14.602   5.745   3.366
46509W        W18934  44.805  42.494  12.976
46510W        W18935  32.913  15.768   0.258
46511W        W18936  39.011  25.141  11.930
46512W        W18937  14.786   9.365  12.497
46513W        W18938  27.941  15.281   0.343
46514W        W18939  26.550  33.969  13.902
46515W        W18940  29.573  17.270   1.866
46516W        W18941  13.292  11.129   3.154
46517W        W18942   4.839   9.660   0.925
46518W        W18943  12.201  12.721  14.462
46519W        W18944  28.490  36.852  11.378
46520W        W18945   5.323   6.733  10.561
46521W        W18946  36.952  24.568   0.777
46522W        W18947  28.082   9.252   0.919
46523W        W18948  25.009  36.532   1.235
46524W        W18949  18.667  42.890  10.135
46525W        W18950  21.702   4.264  13.418
46526W        W18951  19.713  38.913   4.678
46527W        W18952  14.157  18.164  12.079
46528W        W18953  18.780  43.815  11.066
46529W        W18954  40.998  44.831  11.969
46530W        W18955  25.041   5.284  14.994
46531W        W18956  38.346  38.516  11.929
46532W        W18957  24.049  19.074   1.240
46533W        W18958  29.518  22.709   1.928
46534W        W18959  29.637   7.805   4.673
46535W        W18960   2.905  31.643   4.137
46536W        W18961  34.118  23.696   0.344
46537W        W18962  17.140   1.302  12.845
46538W        W18963  28.638  37.964  13.459
46539W        W18964  23.081  35.359   0.308
46540W        W18965   2.912  40.037   4.619
46541W        W18966  38.421  34.521  14.310
46542W        W18967   8.859  12.694   2.758
46543W        W18968  15.597  39.440   0.726
46544W        W18969  39.874  30.044   3.712
46545W        W18970   9.357   0.467  13.990
46546W        W18971  27.551   0.828   2.754
46547W        W18972  21.158  37.871   0.879
46548W        W18973   8.873  29.155  11.913
46549W        W18974  12.152  23.557  11.520
46550W        W18975  14.256   5.870   2.361
46551W        W18976  27.035  23.722   4.345
46552W        W18977  16.129  33.592  10.100
46553W        W18978  41.463  10.161  13.949
46554W        W18979   9.667  15.665   3.240
46555W        W18980   5.295  38.422  11.000
46556W        W18981  35.534  27.608  13.481
46557W        W18982  16.197  18.154  13.844
46558W        W18983   7.299  19.209  11.456
46559W        W18984  27.075  37.394  14.353
46560W        W18985  13.286  11.639   4.268
46561W        W18986  26.167  13.604   2.749
46562W        W18987  23.631  14.304  12.459
46563W        W18988  22.541   4.819   4.287
46564W        W18989  38.018   7.854  13.365
46565W        W18990  20.188  31.944   2.265
46566W        W18991  39.526  21.640  14.424
46567W        W18992   5.235  16.698  12.919
46568W        W18993  37.550  10.697   1.759
46569W        W18994   1.272  38.004  11.400
46570W        W18995  10.167  23.517  14.441
46571W        W18996   2.347  17.237   3.210
46572W        W18997  10.830  12.779   1.835
46573W        W18998  25.607  31.419  10.559
46574W        W18999  39.052   3.373   1.387
46575W        W19000  25.220   1.415   1.211
46576W        W19001  22.624  26.973  13.914
46577W        W19002   2.910  26.617  11.029
46578W        W19003   2.336  20.540   1.927
46579W        W19004  35.041  16.636  11.448
46580W        W19005  33.067  32.580   2.190
46581W        W19006  26.583  37.909  11.901
46582W        W19007  15.606  29.449  13.510
46583W        W19008  33.968   4.355   4.285
46584W        W19009  19.667  43.472  11.859
46585W        W19010   8.773  29.597  11.443
46586W        W19011  42.864  17.801   4.830
46587W        W19012  35.110  12.627   4.223
46588W        W19013  32.000  29.489  13.996
46589W        W19014   7.748   5.803   1.343
46590W        W19015  40.303  20.204  10.455
46591W        W19016  23.718  37.971   2.864
46592W        W19017  25.985  25.620  13.446
46593W        W19018   3.738  16.235  12.068
46594W        W19019   4.344   7.261   4.300
46595W        W19020   7.854  28.581   0.252
46596W        W19021  32.121   9.232  13.323
46597W        W19022  15.719  44.326   2.257
46598W        W19023  39.451  22.703  11.902
46599W        W19024   6.320  41.789  12.033
46600W        W19025  29.117  17.281  13.490
46601W        W19026   9.167   8.860  13.052
46602W        W19027  13.311   7.293   5.103
46603W        W19028  22.511  12.788  11.975
46604W        W19029   5.793  31.634   0.400
46605W        W19030   2.241  10.315  14.439
46606W        W19031  32.470  41.872   2.697
46607W        W19032  10.735  44.874   2.308
46608W        W19033  10.815   3.806  10.925
46609W        W19034   8.802  28.627  13.950
46610W        W19035  37.352   4.271   2.191
46611W        W19036  21.737  30.621   4.293
46612W        W19037   5.220   0.859  12.514
46613W        W19038  32.124  11.260  12.018
46614W        W19039  42.811  35.601   0.342
46615W        W19040  16.742  32.117   1.779
46616W        W19041  35.859  42.861   1.326
46617W        W19042  26.029  43.289   4.323
46618W        W19043  17.689   7.259   4.257
46619W        W19044  39.979  43.329   3.234
46620W        W19045   9.166  27.666   4.815
46621W        W19046  17.744  15.767   1.401
46622W        W19047  23.120   9.855   1.855
46623W        W19048  21.741  14.760  14.500
46624W        W19049  42.814  12.188   0.315
46625W        W19050  32.486  26.609   4.217
46626W        W19051  10.382  33.601  12.048
46627W        W19052  42.313  34.982  10.513
46628W        W19053   7.814  36.392   0.756
46629W        W19054   9.328   4.751  12.834
46630W        W19055  15.249  23.530   1.913
46631W        W19056  36.357  26.168  14.879
46632W        W19057   0.468   4.361   1.918
46633W        W19058  15.252  12.659   0.383
46634W        W19059   6.869  33.619  14.984
46635W        W19060  12.624  24.680  14.497
46636W        W19061   9.366  15.604  10.096
46637W        W19062  25.713  32.909   2.706
46638W        W19063   3.950  21.665   4.144
46639W        W19064  24.046  27.959  13.407
46640W        W19065  33.027   8.298   3.238
46641W        W19066   0.249  21.211  14.981
46642W        W19067   5.210  25.584  11.967
46643W        W19068  39.831  31.493   4.320
46644W        W19069  15.323   4.879   2.191
46645W        W19070  31.938  27.991   5.169
46646W        W19071  22.163   0.929   1.806
46647W        W19072  15.264  32.593   5.192
46648W        W19073  20.222   9.670  11.048
46649W        W19074  38.571  11.816  12.348
46650W        W19075  39.363  16.718  12.825
46651W        W19076  34.064   3.285   0.780
46652W        W19077   2.437   2.369  12.341
46653W        W19078  37.513   3.250  10.030
46654W        W19079  13.763  13.237   1.826
46655W        W19080  22.008  40.961  11.889
46656W        W19081  17.751  12.705  13.984
46657W        W19082  19.270   0.482  11.608
46658W        W19083  25.061  44.930  13.880
46659W        W19084  31.500  41.516  14.506
46660W        W19085  34.389  16.789   0.877
46661W        W19086  40.436  11.858   1.806
46662W        W19087   6.350  17.732   3.171
46663W        W19088  17.795  24.510   2.851
46664W        W19089  43.994   8.788  10.639
46665W        W19090  38.998  17.690   0.926
46666W        W19091  30.628  41.810   9.980
46667W        W19092  15.780  39.371  12.996
46668W        W19093  13.339  34.465   0.475
46669W        W19094  12.328  26.105   0.739
46670W        W19095  36.428   5.236   0.478
46671W        W19096  21.093  25.472   0.261
46672W        W19097  16.628  15.643   1.271
46673W        W19098  34.432  20.145   1.425
46674W        W19099  27.045   9.738  10.621
46675W        W19100   1.461  32.498  14.024
46676W        W19101   1.971  16.213  11.088
46677W        W19102   5.902  19.280  13.904
46678W        W19103  33.549  22.644  12.849
46679W        W19104  26.197  11.141  13.042
46680W        W19105  26.495  33.555  12.991
46681W        W19106  17.234  21.758  12.499
46682W        W19107  38.568  21.745   1.399
46683W        W19108  12.780  27.009   0.363
46684W        W19109  15.813  22.519   4.790
46685W        W19110  15.686   3.954  10.551
46686W        W19111  30.103   4.890   0.261
46687W        W19112  27.092  21.131   4.174
46688W        W19113  10.685   2.966  11.872
46689W        W19114   8.376  13.143  11.880
46690W        W19115  10.153  32.456  11.479
46691W        W19116  19.708  44.338   3.206
46692W        W19117  34.908   5.394   4.132
46693W        W19118  10.181  39.864  10.414
46694W        W19119  35.885  43.993  12.861
46695W        W19120  27.590  28.676  13.385
46696W        W19121  16.131  37.995  13.388
46697W        W19122  10.842  27.085   1.281
46698W        W19123   2.364  34.386  14.421
46699W        W19124   1.388  33.538  11.441
46700W        W19125  17.087  31.930   1.851
46701W        W19126   5.818   0.880  13.416
46702W        W19127   9.775  32.572   0.732
46703W        W19128  28.956  14.754   1.272
46704W        W19129  16.813  14.116   1.247
46705W        W19130  39.858  23.130  11.926
46706W        W19131  37.382  25.030  14.936
46707W        W19132   5.732  17.237   2.347
46708W        W19133   4.308  35.070  12.521
46709W        W19134  36.445  24.564   3.665
46710W        W19135  37.428  11.275   0.893
46711W        W19136  35.908  26.462   2.885
46712W        W19137   3.882  20.664   1.878
46713W        W19138  16.080  21.102   2.769
46714W        W19139  41.872   1.934   3.648
46715W        W19140  36.977  42.991   4.807
46716W        W19141  25.156  32.919  10.033
46717W        W19142  23.991   3.420  13.343
46718W        W19143   8.752  24.095  12.438
46719W        W19144  30.465  44.321  14.430
46720W        W19145  24.546  28.178  13.993
46721W        W19146  25.678  14.144  14.838
46722W        W19147   3.711  44.307  12.048
46723W        W19148   6.223  33.033   2.820
46724W        W19149  16.133  35.403   2.242
46725W        W19150  30.497  23.590   3.864
46726W        W19151  10.211  34.045   0.320
46727W        W19152  28.559  20.693   4.263
46728W        W19153  41.406  20.211   2.803
46729W        W19154   9.191  17.254   1.820
46730W        W19155  15.198  13.785   4.809
46731W        W19156  30.616  24.566  10.478
46732W        W19157  42.333   3.282   4.694
46733W        W19158  28.115  27.134   3.812
46734W        W19159  12.723  37.497  14.389
46735W        W19160  36.498  31.011   2.315
46736W        W19161  42.936  43.904   0.911
46737W        W19162  18.655  30.074   0.447
46738W        W19163  29.064   3.285   0.277
46739W        W19164  29.663  20.659   2.374
46740W        W19165  20.152   8.303   3.233
46741W        W19166  42.804  38.558   2.277
46742W        W19167   0.401  24.711   0.395
46743W        W19168   3.324  39.808   4.762
46744W        W19169  22.520  27.953   3.274
46745W        W19170   2.352  15.754  13.794
46746W        W19171  40.421  36.073   2.748
46747W        W19172  10.670  42.434  11.992
46748W        W19173  39.944  21.100  14.819
46749W        W19174  19.086  27.604   1.811
46750W        W19175   2.411  29.169   4.313
46751W        W19176  18.210  17.216   2.714
46752W        W19177   7.303  25.638   2.823
46753W        W19178  40.877   1.353   3.713
46754W        W19179   1.248  29.511   2.723
46755W        W19180  32.495  43.870   4.775
46756W        W19181  31.415   6.246  14.400
46757W        W19182  24.185  29.999  11.603
46758W        W19183  24.527   0.451   1.449
46759W        W19184  21.026   2.398   1.699
46760W        W19185  10.383  41.354   4.349
46761W        W19186  13.768  20.686   4.353
46762W        W19187  22.629  43.993   3.746
46763W        W19188  33.449   3.262   5.130
46764W        W19189  36.029  13.842   0.436
46765W        W19190  37.847  15.581  12.865
46766W        W19191  36.961   2.317   2.285
46767W        W19192  44.453  34.956   3.294
46768W        W19193  10.178  43.455  11.948
46769W        W19194   6.350   2.274   0.356
46770W        W19195  30.593   0.256  12.018
46771W        W19196  12.287  37.969  12.872
46772W        W19197  13.700  30.507  12.452
46773W        W19198   1.240  16.810  10.995
46774W        W19199  33.567  13.756  10.437
46775W        W19200  27.069  43.886   4.720
46776W        W19201  22.607  10.828   3.779
46777W        W19202  39.918  22.246   4.165
46778W        W19203   2.774  23.597  13.340
46779W        W19204  14.138   5.783   3.305
46780W        W19205  16.110  12.774   4.600
46781W        W19206  30.428  40.483   0.751
46782W        W19207  42.288  17.188  11.582
46783W        W19208   5.381   5.245   3.244
46784W        W19209  25.699  33.922  11.549
46785W        W19210  19.554  32.089  14.951
46786W        W19211   8.738  39.551  12.070
46787W        W19212  29.443  14.279   3.778
46788W        W19213  42.355  37.520   3.700
46789W        W19214  12.321  10.247   1.373
46790W        W19215  30.136  34.944  12.433
46791W        W19216  10.690   1.341   0.957
46792W        W19217  11.281   6.722  11.120
46793W        W19218  36.981  39.338   4.317
46794W        W19219   1.801  29.040   3.769
46795W        W19220  10.140   3.393   2.782
46796W        W19221  28.035  44.501  12.449
46797W        W19222  12.356  25.108   2.186
46798W        W19223  23.556   4.220   2.900
46799W        W19224   9.189  26.054   0.255
46800W        W19225  43.398  32.444   0.416
46801W        W19226  12.258  22.087   9.967
46802W        W19227   3.348   5.904   2.858
46803W        W19228  33.111  34.067   3.338
46804W        W19229   9.326  11.854  12.570
46805W        W19230   5.430  40.407   3.859
46806W        W19231  33.592  44.407  14.015
46807W        W19232  11.863  13.306   1.697
46808W        W19233  16.206   6.687   1.265
46809W        W19234  20.607   6.219   0.374
46810W        W19235   7.253  20.685  14.402
46811W        W19236  40.995   9.218   1.695
46812W        W19237   2.801  10.721   3.269
46813W        W19238  21.640  40.814  12.938
46814W        W19239  32.488  29.937   1.867
46815W        W19240  10.820  25.031  11.457
46816W        W19241  26.500  42.920   3.173
46817W        W19242  44.472  28.517  11.907
46818W        W19243  24.094  42.346  11.524
46819W        W19244  31.090  29.175   2.375
46820W        W19245  40.007  39.512   1.421
46821W        W19246  42.333  34.982  14.408
46822W        W19247  26.594  24.611   3.148
46823W        W19248  28.108  41.830   4.219
46824W        W19249  38.952  38.504   1.281
46825W        W19250  14.652  44.988   0.413
46826W        W19251  38.338  42.965   0.860
46827W        W19252  40.398  31.929   0.905
46828W        W19253  36.047  31.403  14.319
46829W        W19254  38.966  37.008   4.344
46830W        W19255  42.293   7.368  13.944
46831W        W19256  31.013  16.262   3.707
46832W        W19257  31.128  31.014  13.389
46833W        W19258  40.531  24.993   2.397
46834W        W19259   7.871  20.051   3.707
46835W        W19260  41.478   7.302   4.776
46836W        W19261  12.249  43.408   4.774
46837W        W19262  40.801  23.585   1.301
46838W        W19263  43.876   6.816  13.458
46839W        W19264  42.883  10.852   2.270
46840W        W19265  25.702  31.492   2.399
46841W        W19266   5.253  36.352   2.679
46842W        W19267  41.944  20.062  14.894
46843W        W19268  23.522  16.590   3.157
46844W        W19269  33.476  34.408  12.866
46845W        W19270   1.455  38.464  13.387
46846W        W19271   9.252  34.532  10.508
46847W        W19272  29.633  14.326   0.405
46848W        W19273  42.031   7.700   3.232
46849W        W19274  23.113   0.429  11.855
46850W        W19275  26.090  41.450  13.415
46851W        W19276  18.270   9.225   1.839
46852W        W19277   6.250  23.576   4.678
46853W        W19278  26.594  12.151   1.798
46854W        W19279  37.464  37.576  10.921
46855W        W19280  31.514  38.032  11.063
46856W        W19281   7.729  25.170   5.092
46857W        W19282  17.076  36.500   2.744
46858W        W19283  23.579  24.573   2.257
46859W        W19284  22.506  20.630   4.828
46860W        W19285  38.401  28.951   4.251
46861W        W19286   1.909  27.590   3.668
46862W        W19287   5.392   7.283  14.311
46863W        W19288  43.799  26.519  12.926
46864W        W19289  32.404  22.677   0.860
46865W        W19290  34.518  35.890  10.575
46866W        W19291  15.119   0.272   1.371
46867W        W19292  33.449  26.596   5.222
46868W        W19293  28.578  12.330   1.332
46869W        W19294  22.191  41.852   4.671
46870W        W19295  42.899  27.689  10.418
46871W        W19296  35.393  31.506   3.752
46872W        W19297  39.338  27.504   1.406
46873W        W19298  19.181  20.234  13.371
46874W        W19299   1.431  17.571   4.706
46875W        W19300   3.806   1.802  10.413
46876W        W19301  29.995  44.488   3.743
46877W        W19302  29.651  14.146  13.439
46878W        W19303   9.771  16.642  11.443
46879W        W19304   9.262  35.979   2.715
46880W        W19305   8.768  14.728   0.921
46881W        W19306   0.390  41.300  11.532
46882W        W19307  27.997  42.418   1.319
46883W        W19308  26.654   9.279  14.836
46884W        W19309  34.917   2.394   4.777
46885W        W19310  35.366  37.942   3.830
46886W        W19311  19.211  37.436   4.617
46887W        W19312  26.007  36.078   0.746
46888W        W19313  21.617  39.918   2.252
46889W        W19314  15.152  29.627  12.823
46890W        W19315  10.161  35.536   0.439
46891W        W19316  16.714  25.176  11.560
46892W        W19317  23.059   5.781  13.906
46893W        W19318  22.601  41.527   4.160
46894W        W19319   6.371  44.903  13.523
46895W        W19320   0.984  42.916  14.984
46896W        W19321  35.011   9.858   0.251
46897W        W19322   5.222  35.855   0.819
46898W        W19323   4.364   3.771  10.992
46899W        W19324  39.337  13.780   4.185
46900W        W19325  43.005  11.308  11.874
46901W        W19326  16.127  11.767  13.363
46902W        W19327  32.986  21.721  13.534
46903W        W19328  26.554   8.735   0.861
46904W        W19329  37.882  27.099  10.911
46905W        W19330   5.377  41.367  14.854
46906W        W19331  13.205  10.637   1.857
46907W        W19332  26.084   3.919   1.809
46908W        W19333  44.498  10.751   4.721
46909W        W19334   4.399  11.785  14.473
46910W        W19335  10.732  23.702   4.312
46911W        W19336  33.017  39.026  13.900
46912W        W19337  35.498  13.295   2.839
46913W        W19338  26.625   3.828  11.442
46914W        W19339  28.535   5.887  10.494
46915W        W19340  11.246  16.077   3.178
46916W        W19341  40.443  41.990  14.841
46917W        W19342  18.130   5.733  14.477
46918W        W19343  30.483   6.793  11.433
46919W        W19344  37.405   7.822  13.479
46920W        W19345  26.544   4.818   3.154
46921W        W19346   5.426  14.729   4.184
46922W        W19347  23.734  26.141   1.391
46923W        W19348  32.940   8.394   2.193
46924W        W19349  21.598  27.032  12.866
46925W        W19350  40.830  28.182  11.053
46926W        W19351   5.197  18.150   3.674
46927W        W19352  40.817   5.700  14.477
46928W        W19353  41.373  39.554   1.246
46929W        W19354  21.618  16.759  14.365
46930W        W19355  43.777  43.499  12.526
46931W        W19356  22.046  39.051  11.466
46932W        W19357  36.916   9.834  10.421
46933W        W19358   4.308   1.419  12.365
46934W        W19359  18.699   5.773  11.988
46935W        W19360  10.667   6.303   3.194
46936W        W19361  10.765  29.144  10.569
46937W        W19362  19.577   5.840   1.882
46938W        W19363  28.623  26.006   3.765
46939W        W19364   5.404  23.043   0.803
46940W        W19365  27.181   3.316  13.814
46941W        W19366  14.603  10.863   1.395
46942W        W19367  44.979  31.530   3.764
46943W        W19368  23.721  44.825   2.858
46944W        W19369   3.257  41.794   2.745
46945W        W19370  36.885  43.820   4.325
46946W        W19371  15.102   7.290   1.830
46947W        W19372   0.459  17.793  10.467
46948W        W19373  20.222   2.289   3.235
46949W        W19374   7.261  19.585   0.297
46950W        W19375  35.520   4.314  10.495
46951W        W19376   4.919  16.616  10.906
46952W        W19377  41.319  19.678  10.887
46953W        W19378  41.478  38.958   3.795
46954W        W19379   7.826  36.522   2.179
46955W        W19380  19.600  10.180   1.896
46956W        W19381   3.869  42.327   0.941
46957W        W19382  44.960  34.387  11.912
46958W        W19383   9.650  42.950   1.778
46959W        W19384  41.938  39.876  10.948
46960W        W19385  12.273  22.065  11.475
46961W        W19386  35.557  33.383  11.911
46962W        W19387  38.968  31.447  10.636
46963W        W19388  43.981  30.609   1.322
46964W        W19389  19.159  22.630   4.739
46965W        W19390  13.267  39.358   2.899
46966W        W19391   8.182  15.160  10.565
46967W        W19392  13.664   8.313  11.037
46968W        W19393  24.528  16.785  14.806
46969W        W19394  35.407  27.545  14.366
46970W        W19395  22.503  15.325  13.532
46971W        W19396  26.548  44.816   2.712
46972W        W19397  27.183   2.810  13.936
46973W        W19398  33.056   3.453  14.431
46974W        W19399  44.996  32.512  11.943
46975W        W19400  11.353  17.222   4.644
46976W        W19401  24.640   8.775   3.735
46977W        W19402  12.740  16.608   4.309
46978W        W19403  32.460  13.831   3.790
46979W        W19404  30.957  29.560   0.837
46980W        W19405  18.243  26.190   0.835
46981W        W19406  10.844   2.916   2.811
46982W        W19407  11.288   3.251  13.375
46983W        W19408  44.274   7.888  13.007
46984W        W19409  35.949  31.087   0.407
46985W        W19410  39.523  37.544  13.956
46986W        W19411   0.424  29.160  12.372
46987W        W19412   0.979  17.114  14.329
46988W        W19413   7.321  29.980  13.804
46989W        W19414  12.319   3.421   0.841
46990W        W19415  16.135  38.531  11.941
46991W        W19416   3.842  41.825   1.370
46992W        W19417  15.223   0.742   0.477
46993W        W19418   0.897  43.827   1.246
46994W        W19419  16.731  28.946  13.531
46995W        W19420   9.251  10.859   4.732
46996W        W19421   9.290   8.707  11.061
46997W        W19422   3.395  26.148   3.716
46998W        W19423   7.231   6.254  12.421
46999W        W19424  14.730  22.239  12.375
47000W        W19425  19.766   7.672   0.944
47001W        W19426  23.073   2.909   1.346
47002W        W19427   5.739  34.082  10.419
47003W        W19428  18.248  42.424  11.042
47004W        W19429  42.794  18.050  14.797
47005W        W19430  42.339  10.299   0.925
47006W        W19431   4.864  44.796  12.006
47007W        W19432   2.871  17.796  13.888
47008W        W19433  26.577  33.395  13.341
47009W        W19434  28.044  16.315  11.927
47010W        W19435  28.102  23.614   0.308
47011W        W19436  31.913  10.810  13.454
47012W        W19437   9.698   7.744   0.840
47013W        W19438  13.698   1.858  10.986
47014W        W19439  23.735  20.248  10.447
47015W        W19440  24.033  37.062  11.122
47016W        W19441  38.529   3.436   1.450
47017W        W19442  40.413  43.899  11.091
47018W        W19443  29.070  34.962  12.057
47019W        W19444   6.414  28.997  14.311
47020W        W19445   3.375  40.940   0.247
47021W        W19446  37.424   3.398  13.365
47022W        W19447   2.861   3.764  12.449
47023W        W19448  30.908   3.932   0.903
47024W        W19449   8.180  37.545   2.869
47025W        W19450  12.331   7.760   0.844
47026W        W19451  11.841  23.154   0.245
47027W        W19452   9.862   5.304  14.286
47028W        W19453   4.342  28.057   2.706
47029W        W19454  44.007  14.831   2.237
47030W        W19455  36.406  35.890   1.244
47031W        W19456  21.685  23.728   1.222
47032W        W19457  14.620   9.651   4.804
47033W        W19458  28.537  10.800   1.895
47034W        W19459  20.179  25.689   4.619
47035W        W19460  10.281  15.659   2.177
47036W        W19461  28.086  39.408  14.844
47037W        W19462  16.710   1.265  10.939
47038W        W19463  37.539   6.398  10.905
47039W        W19464  27.632  19.108   2.296
47040W        W19465  41.502  37.360  12.987
47041W        W19466   2.329  43.452  12.514
47042W        W19467  37.522  14.175  11.513
47043W        W19468  36.408  32.446   3.219
47044W        W19469  21.602  38.385  13.416
47045W        W19470   2.772  40.981   3.248
47046W        W19471  24.545   9.756  13.330
47047W        W19472  32.551  30.488   2.350
47048W        W19473   2.298  22.552   1.770
47049W        W19474  42.828  15.788  11.388
47050W        W19475  43.831   4.297  14.862
47051W        W19476  29.122  38.959   2.377
47052W        W19477  41.331  14.313   2.318
47053W        W19478  25.617  41.356   1.451
47054W        W19479  42.006  17.062  13.034
47055W        W19480  39.864  23.682  12.535
47056W        W19481  14.194  41.424   4.605
47057W        W19482  22.714  43.451  13.507
47058W        W19483  24.036  17.072  10.478
47059W        W19484   7.172  43.974   4.714
47060W        W19485  35.043  23.183   2.416
47061W        W19486  15.093  43.511  13.333
47062W        W19487  43.936   6.309  12.977
47063W        W19488  11.853   7.780   2.345
47064W        W19489  43.943  33.592  11.860
47065W        W19490  40.337  35.569   3.354
47066W        W19491  38.568  36.075   4.607
47067W        W19492  19.777   8.658   2.229
47068W        W19493   1.929  42.320  12.883
47069W        W19494  16.205  21.689  13.334
47070W        W19495  12.706   2.434   0.779
47071W        W19496  28.992  28.960   3.775
47072W        W19497  39.523  21.600   3.756
47073W        W19498  17.765  31.133   2.301
47074W        W19499  44.770   4.803  14.970
47075W        W19500  33.598   7.901  12.028
47076W        W19501   3.226  16.142   1.855
47077W        W19502   2.736  17.789  12.055
47078W        W19503  26.094  13.845   0.967
47079W        W19504  12.279  26.636   3.669
47080W        W19505  40.493  25.152  12.493
47081W        W19506  32.579  22.683  13.471
47082W        W19507  43.961  38.035   1.854
47083W        W19508   6.421  41.885   0.322
47084W        W19509   6.233   1.780   3.828
47085W        W19510   6.679  27.976   4.755
47086W        W19511  31.049  14.112   5.181
47087W        W19512  36.894  25.998  12.571
47088W        W19513   4.274   8.789   5.283
47089W        W19514   7.702  30.155  11.386
47090W        W19515  22.615  14.203  11.903
47091W        W19516   0.267   3.425   4.752
47092W        W19517  28.950  37.992  11.073
47093W        W19518   3.863  26.204   3.187
47094W        W19519   8.825  41.810   1.916
47095W        W19520  18.665   1.892   1.321
47096W        W19521   9.194  42.886  12.505
47097W        W19522  25.099  37.557  11.440
47098W        W19523  30.613  41.902  12.903
47099W        W19524  41.302  44.323  11.538
47100W        W19525  19.594  19.672   1.360
47101W        W19526   9.669  18.678   1.715
47102W        W19527  23.108  27.979   4.288
47103W        W19528  15.693  40.004   1.337
47104W        W19529  18.071  43.834  11.080
47105W        W19530  12.294   0.350  13.973
47106W        W19531  11.624  17.670  14.914
47107W        W19532   4.760   9.828   3.277
47108W        W19533  26.663   0.775  12.020
47109W        W19534  12.711  29.533  14.479
47110W        W19535   8.379  36.057   3.718
47111W        W19536  15.698  39.369  13.891
47112W        W19537  32.084  34.507   1.780
47113W        W19538  36.095  37.447   2.259
47114W        W19539  36.532   9.847  13.496
47115W        W19540  32.465  28.050  14.974
47116W        W19541  13.135  23.692  12.547
47117W        W19542  20.095  38.493   1.802
47118W        W19543  15.238  37.522  12.886
47119W        W19544  42.304  24.666  11.559
47120W        W19545  25.155  34.110  11.460
47121W        W19546  30.437  39.517  12.875
47122W        W19547  23.719  40.425   1.229
47123W        W19548   1.340  44.987   3.774
47124W        W19549  13.216  30.093  14.313
47125W        W19550   7.258  27.066  14.965
47126W        W19551   4.815  39.314   2.790
47127W        W19552  27.092   8.172   2.211
47128W        W19553  32.084  27.183  12.952
47129W        W19554  30.121  20.208   1.920
47130W        W19555  29.641  32.090  10.605
47131W        W19556  35.091  30.537  11.072
47132W        W19557  39.980  27.512   0.454
47133W        W19558  39.375  17.692  13.315
47134W        W19559  17.562  25.561  12.491
47135W        W19560  33.924  16.304   3.176
47136W        W19561  43.980  35.086   2.218
47137W        W19562  21.026   1.482  14.872
47138W        W19563   2.400   9.279   2.347
47139W        W19564  42.403  14.228   0.298
47140W        W19565  15.086  39.964   1.776
47141W        W19566  37.486  11.296  12.912
47142W        W19567  38.907  44.381  11.965
47143W        W19568  38.852  40.023   1.716
47144W        W19569  13.122  27.959   1.740
47145W        W19570   3.833  33.979  12.031
47146W        W19571  10.702   7.830   1.329
47147W        W19572  16.806   6.839   4.821
47148W        W19573  25.702   2.732   1.708
47149W        W19574   8.855  28.996  10.640
47150W        W19575  10.240   1.250   4.348
47151W        W19576  33.950  27.476  12.485
47152W        W19577  24.041  33.886  14.291
47153W        W19578  13.793  14.263  12.380
47154W        W19579   7.680   6.414   0.739
47155W        W19580  17.146   5.293  12.395
47156W        W19581  15.315   2.261   4.183
47157W        W19582  17.155  22.181  11.534
47158W        W19583   4.347  21.139  10.973
47159W        W19584  10.374   7.367   1.713
47160W        W19585   7.283  39.034   0.471
47161W        W19586  11.212  34.424  11.483
47162W        W19587  40.420  32.140   2.767
47163W        W19588  40.341   6.715   0.783
47164W        W19589  16.271  19.059  14.770
47165W        W19590  12.825  23.169  14.920
47166W        W19591   0.378  42.412  12.524
47167W        W19592  34.082  18.556  10.897
47168W        W19593   5.703   2.933   1.751
47169W        W19594   4.806   4.329  10.520
47170W        W19595  37.851  19.211  14.472
47171W        W19596  13.669  31.144  13.428
47172W        W19597  40.329  44.974  14.897
47173W        W19598  17.624  20.246  13.323
47174W        W19599  44.839  10.203   4.700
47175W        W19600   0.315   9.265  14.327
47176W        W19601   9.298  10.378  11.553
47177W        W19602   6.719  14.174   0.965
47178W        W19603  12.765  38.408  13.467
47179W        W19604   1.364  15.297   2.790
47180W        W19605  14.126  41.878   3.294
47181W        W19606   1.260  24.645  14.922
47182W        W19607  24.662  28.599   0.762
47183W        W19608  20.630   0.913  15.000
47184W        W19609  12.196   2.819  14.424
47185W        W19610   8.210   7.678  14.427
47186W        W19611  10.856  24.599   4.276
47187W        W19612  23.734  35.971   0.482
47188W        W19613   7.796  43.356   2.879
47189W        W19614  34.073   2.455   1.320
47190W        W19615  26.501  44.465   2.197
47191W        W19616  11.788  18.256  14.769
47192W        W19617   6.369  26.179  12.868
47193W        W19618  36.043  11.835  14.439
47194W        W19619  20.255   0.937   3.753
47195W        W19620  21.688   5.390   2.709
47196W        W19621   3.288  43.905   0.262
47197W        W19622   9.183  24.557  10.611
47198W        W19623  11.662  36.403   2.772
47199W        W19624  37.503   4.389  11.124
47200W        W19625  37.463   4.841   4.705
47201W        W19626  35.055  12.626   0.472
47202W        W19627  11.282  20.066  12.488
47203W        W19628  11.658  13.657   1.921
47204W        W19629   9.731   8.382  13.380
47205W        W19630  43.011  44.263   1.728
47206W        W19631  10.371  27.692   1.706
47207W        W19632  11.674   9.384  12.989
47208W        W19633  38.376  10.795  14.455
47209W        W19634  34.571   0.414  12.552
47210W        W19635  20.089  34.501  14.894
47211W        W19636   1.756  37.419   0.897
47212W        W19637  35.471   9.345   4.305
47213W        W19638  16.801  17.272   0.473
47214W        W19639  28.153  17.653  11.524
47215W        W19640   4.816   4.815  13.851
47216W        W19641  15.736   6.303  11.527
47217W        W19642   8.890  39.482  14.324
47218W        W19643   3.905  18.247   2.710
47219W        W19644  31.471  10.651  13.479
47220W        W19645  44.992  29.503  12.858
47221W        W19646   3.452  11.712  10.425
47222W        W19647   4.888   6.262  12.446
47223W        W19648   2.798  42.910   3.685
47224W        W19649   1.839  20.576  12.394
47225W        W19650  32.454  17.596   3.772
47226W        W19651  24.499  44.283  10.126
47227W        W19652  23.524   1.889  12.577
47228W        W19653  25.035   8.802  10.089
47229W        W19654  20.566  15.245   0.457
47230W        W19655   2.866  36.886   2.693
47231W        W19656   0.774  21.589   0.944
47232W        W19657  24.017  32.542  14.957
47233W        W19658  21.054   5.899   4.260
47234W        W19659  37.481  31.581   0.967
47235W        W19660  21.629  37.365   2.208
47236W        W19661  38.451  42.313   1.288
47237W        W19662   9.790   7.845  10.523
47238W        W19663  34.913  15.166   0.369
47239W        W19664  35.377  21.199  12.514
47240W        W19665   5.258  30.977  10.632
47241W        W19666  27.619  21.566  12.524
47242W        W19667  11.351  21.608  14.896
47243W        W19668  22.145  25.146  12.908
47244W        W19669   7.338  16.605  11.086
47245W        W19670   2.920  44.778  11.377
47246W        W19671  33.907  23.545   4.632
47247W        W19672  35.595   2.895   1.403
47248W        W19673  32.497  10.313   3.210
47249W        W19674   5.789  31.912   2.825
47250W        W19675  36.404   9.333   9.470
47251W        W19676  31.914  20.532   4.311
47252W        W19677  40.513  37.565  14.336
47253W        W19678  36.847  21.208  12.561
47254W        W19679   0.964  32.994  13.350
47255W        W19680  28.178  25.667   2.773
47256W        W19681  38.998  11.237   2.238
47257W        W19682  26.549  23.036  12.461
47258W        W19683  15.722   0.263   3.181
47259W        W19684  24.688  33.462   0.872
47260W        W19685  16.296  19.193   0.414
47261W        W19686  28.975  11.627   4.826
47262W        W19687   4.907   5.243  13.919
47263W        W19688   9.182  23.727   0.385
47264W        W19689  29.078  43.771   3.306
47265W        W19690  26.024  40.833   2.283
47266W        W19691  12.180  33.032  11.420
47267W        W19692  17.246  43.311  12.022
47268W        W19693  16.677   2.319   3.836
47269W        W19694   9.202  30.133   1.744
47270W        W19695  38.928   4.719   2.662
47271W        W19696  35.997  19.708   4.628
47272W        W19697   3.800  41.878  13.988
47273W        W19698  15.737  30.477  11.916
47274W        W19699  22.220  15.644  10.064
47275W        W19700  11.128  21.113   1.297
47276W        W19701  29.484  32.978   4.760
47277W        W19702  20.733  20.200  11.105
47278W        W19703  23.520   1.924  14.826
47279W        W19704  32.940  25.101  14.801
47280W        W19705  35.488  14.671  14.924
47281W        W19706  36.007  16.732  12.504
47282W        W19707  30.020   2.780  13.010
47283W        W19708   4.877  14.698  13.973
47284W        W19709  30.946  21.247  13.930
47285W        W19710  36.089  32.018   2.277
47286W        W19711   6.268  41.338   3.677
47287W        W19712  15.806   0.353   2.825
47288W        W19713  41.924   7.821  11.004
47289W        W19714  25.511  14.103   5.155
47290W        W19715  11.790  42.342   0.362
47291W        W19716  23.034  20.764  13.534
47292W        W19717  20.674  28.603  14.276
47293W        W19718  40.479   9.357   1.898
47294W        W19719  25.544   8.322   0.750
47295W        W19720  17.769   2.905  11.981
47296W        W19721  25.024   3.384   2.849
47297W        W19722  30.065  17.221   4.741
47298W        W19723  38.010   0.380   4.663
47299W        W19724  17.746  25.170  11.882
47300W        W19725  30.541  42.900  14.971
47301W        W19726  15.203  29.957  11.976
47302W        W19727  17.074  18.588  13.027
47303W        W19728  16.641  33.485  11.970
47304W        W19729   9.740  42.424  14.345
47305W        W19730   5.890   7.366  11.424
47306W        W19731  30.039  41.451  11.550
47307W        W19732  37.490  35.078   1.920
47308W        W19733  13.745  27.040  10.607
47309W        W19734  12.183  32.035   1.226
47310W        W19735  36.868   7.343  10.524
47311W        W19736  42.440  21.680   3.253
47312W        W19737   3.954  37.545   3.330
47313W        W19738  23.638  14.184  14.446
47314W        W19739   2.292  35.501  10.540
47315W        W19740  24.724  43.318  13.808
47316W        W19741  33.118  30.946   3.802
47317W        W19742  14.632  16.807   0.752
47318W        W19743  23.102  21.701   0.788
47319W        W19744  42.287  11.644  13.501
47320W        W19745   9.662   9.750   2.224
47321W        W19746  41.032  39.966  12.553
47322W        W19747  20.050  36.989  13.386
47323W        W19748  26.067   0.386   4.697
47324W        W19749  36.048   5.411   0.747
47325W        W19750  26.981   6.298   3.842
47326W        W19751  28.989  32.598  10.907
47327W        W19752  24.552  32.890  10.934
47328W        W19753  14.317  22.600  12.953
47329W        W19754  24.181  37.529   0.473
47330W        W19755  13.819   4.278  14.924
47331W        W19756  18.157  26.122   2.179
47332W        W19757   2.336  30.575   2.783
47333W        W19758  38.993  19.183   4.608
47334W        W19759  33.619  12.761   2.722
47335W        W19760   2.307  11.791   1.449
47336W        W19761  10.373   9.323   2.726
47337W        W19762  35.919  41.866   0.900
47338W        W19763  21.709  35.909   5.269
47339W        W19764   9.759  33.038  11.936
47340W        W19765  25.175  14.797  10.949
47341W        W19766  44.823  19.551  11.129
47342W        W19767  43.423  42.837   5.098
47343W        W19768  32.513  44.845   3.295
47344W        W19769   2.392  27.513  10.574
47345W        W19770  33.508  42.477  12.479
47346W        W19771  10.669  26.165   4.678
47347W        W19772   1.970  15.234   2.844
47348W        W19773  18.152   7.392  11.434
47349W        W19774  15.821  39.062  10.555
47350W        W19775  15.236  36.399  13.010
47351W        W19776  38.515  29.428  12.094
47352W        W19777   2.336  29.504   3.842
47353W        W19778   7.742   7.778  12.051
47354W        W19779  42.410   7.408   0.405
47355W        W19780  42.335  18.229  14.904
47356W        W19781   3.255  23.536   0.359
47357W        W19782   8.314  17.222   2.248
47358W        W19783  27.466  22.077   5.223
47359W        W19784  28.439  13.291  12.449
47360W        W19785  11.155   0.308   2.889
47361W        W19786   2.874  41.934   1.708
47362W        W19787   6.413  21.652   3.814
47363W        W19788   8.815  21.097  14.030
47364W        W19789  21.592  13.685  13.402
47365W        W19790  19.201  29.534   1.802
47366W        W19791  42.802  42.476   0.784
47367W        W19792  41.428  33.609  14.834
47368W        W19793  12.154  42.343  10.463
47369W        W19794  28.978  22.108   4.319
47370W        W19795  42.824   0.902   1.448
47371W        W19796  34.544  24.102  12.923
47372W        W19797  20.144  26.654  12.859
47373W        W19798   2.853  27.529  12.389
47374W        W19799  17.743  30.917   0.886
47375W        W19800  37.972  11.745  13.316
47376W        W19801  32.013  24.986  13.364
47377W        W19802  26.556   3.782   2.317
47378W        W19803  31.600  43.930  12.465
47379W        W19804  33.536  32.130   0.411
47380W        W19805  40.421  25.683  10.560
47381W        W19806  25.075  16.753   1.303
47382W        W19807  40.382   2.289   3.181
47383W        W19808  30.489   6.811  12.934
47384W        W19809  32.111   6.381  10.588
47385W        W19810  44.336  36.485  10.908
47386W        W19811  19.638  18.182  12.938
47387W        W19812  15.820  34.611  10.464
47388W        W19813  33.624  17.142  10.014
47389W        W19814   5.879  44.365   3.809
47390W        W19815  17.624  29.159  13.042
47391W        W19816  27.084  31.097  13.455
47392W        W19817   7.771   1.817   1.395
47393W        W19818   0.979  31.027   0.326
47394W        W19819  31.990  13.615   4.647
47395W        W19820  28.624  41.925   4.776
47396W        W19821  39.886  22.713   1.730
47397W        W19822  28.619  34.415  11.961
47398W        W19823  32.982  16.132   1.386
47399W        W19824  12.625  32.457  12.058
47400W        W19825  35.994   3.798   2.367
47401W        W19826  43.820   6.408  14.300
47402W        W19827  15.719  14.657   0.932
47403W        W19828  37.377  40.442  14.791
47404W        W19829  44.894   7.286   4.226
47405W        W19830  24.136  40.477  14.941
47406W        W19831  23.501   3.773   0.927
47407W        W19832   9.361  43.931  13.327
47408W        W19833  27.122  12.660   1.280
47409W        W19834  26.079   8.870   3.723
47410W        W19835  14.280  11.768  10.547
47411W        W19836  29.983  31.037  10.442
47412W        W19837  44.941   1.274   0.837
47413W        W19838  19.220   0.879  11.527
47414W        W19839  22.134  11.188   3.167
47415W        W19840  33.941  13.350   4.232
47416W        W19841  24.040  39.920   0.481
47417W        W19842  18.210  23.569  14.759
47418W        W19843  21.074  27.196  12.535
47419W        W19844   1.451  40.452  10.450
47420W        W19845  27.976   3.428  13.884
47421W        W19846  33.420  29.021   1.859
47422W        W19847   2.324  14.334  13.976
47423W        W19848  30.983   3.342  12.460
47424W        W19849  25.694   3.418   4.311
47425W        W19850  15.277  34.595   5.600
47426W        W19851  39.475  25.107  13.796
47427W        W19852  16.634  25.019  13.028
47428W        W19853   9.651  20.681   3.170
47429W        W19854  42.987  16.145  11.076
47430W        W19855  32.019  32.935   9.996
47431W        W19856  40.897  28.022   0.275
47432W        W19857  40.494   6.183   0.964
47433W        W19858  18.613   3.922   0.726
47434W        W19859  35.106   6.840  12.396
47435W        W19860  11.771  22.506  14.275
47436W        W19861  38.997  25.162  12.388
47437W        W19862  38.507   0.811  12.383
47438W        W19863  16.763  15.586  14.304
47439W        W19864  21.610  21.569  10.411
47440W        W19865  16.738  17.764   0.390
47441W        W19866  32.895  11.684   1.871
47442W        W19867   0.470  16.705  12.983
47443W        W19868  18.545   8.325  13.376
47444W        W19869   5.819  26.052   0.851
47445W        W19870  12.785  34.101  10.507
47446W        W19871  18.747  28.017   3.740
47447W        W19872  41.959  23.540   0.398
47448W        W19873  24.573   2.838  11.942
47449W        W19874   1.798   0.290  10.571
47450W        W19875  41.299   3.935  13.351
47451W        W19876  23.548  23.197  12.477
47452W        W19877  12.360  37.874   3.646
47453W        W19878   8.323  19.755   1.324
47454W        W19879  36.494  35.007  11.543
47455W        W19880  24.049  24.034   1.700
47456W        W19881  27.036  30.650   0.321
47457W        W19882  14.603  34.370   4.697
47458W        W19883   4.343  44.802   2.377
47459W        W19884  30.537  28.166  11.435
47460W        W19885  37.356  42.383   4.648
47461W        W19886  39.907   4.750  11.866
47462W        W19887   4.769  16.221   0.828
47463W        W19888  44.280   4.731   0.420
47464W        W19889  33.114  28.454  12.895
47465W        W19890   9.189   7.203  12.843
47466W        W19891  37.913  29.058  12.494
47467W        W19892  33.063  35.563  14.976
47468W        W19893  33.128  43.007  14.010
47469W        W19894  15.663  32.496  13.307
47470W        W19895   2.723  44.493   1.297
47471W        W19896  36.917  29.494  10.992
47472W        W19897  29.604  40.928  12.565
47473W        W19898  41.800  23.181   3.705
47474W        W19899  33.087  22.704  14.793
47475W        W19900  24.538  35.602   2.404
47476W        W19901   2.259  17.171  10.047
47477W        W19902  23.127  24.490   0.740
47478W        W19903  19.757  32.130  13.422
47479W        W19904  20.614  36.005   1.410
47480W        W19905  23.123  31.121  11.371
47481W        W19906  43.781  26.142   2.281
47482W        W19907  23.104  42.980   0.443
47483W        W19908  25.974  29.133   1.212
47484W        W19909  29.585  12.728  10.517
47485W        W19910  24.177   5.691   4.808
47486W        W19911   8.337   8.221   0.322
47487W        W19912  32.489  20.032  13.312
47488W        W19913  23.558  20.124   3.635
47489W        W19914  10.685   7.395   3.277
47490W        W19915  31.979  16.644  10.127
47491W        W19916  44.454  39.503  14.427
47492W        W19917  31.958  24.011   2.825
47493W        W19918  18.217  17.597   1.409
47494W        W19919  28.050  19.243  13.851
47495W        W19920  23.082  40.005   2.290
47496W        W19921   4.860   8.739   2.804
47497W        W19922   8.865  29.037   4.242
47498W        W19923  20.534  42.480  13.501
47499W        W19924  36.361  41.792  14.869
47500W        W19925  43.279  34.485   2.792
47501W        W19926   0.356  36.950  12.946
47502W        W19927  35.070  10.206   1.312
47503W        W19928  44.844   9.722  14.287
47504W        W19929   9.720   8.705   1.751
47505W        W19930  12.707  35.020   4.167
47506W        W19931  14.277  44.889  10.951
47507W        W19932  16.149   7.744   4.631
47508W        W19933  11.203  24.220   0.481
47509W        W19934   7.235   4.349   0.758
47510W        W19935  26.971  18.635   0.279
47511W        W19936  33.466  35.070   1.719
47512W        W19937   4.852   6.832   1.731
47513W        W19938  42.029  35.507  12.890
47514W        W19939  40.401  20.623  12.388
47515W        W19940  30.980   9.819   1.909
47516W        W19941  34.932  26.502  13.886
47517W        W19942   7.887   8.187   3.374
47518W        W19943  43.271  33.098   5.219
47519W        W19944  10.344   6.325   1.701
47520W        W19945  27.636   4.897  13.451
47521W        W19946  17.171  16.803  13.849
47522W        W19947  17.282  17.239  11.961
47523W        W19948  40.515  20.034  11.046
47524W        W19949   8.388  33.406   3.174
47525W        W19950  33.548  22.737  10.932
47526W        W19951  28.642  12.241  11.611
47527W        W19952  29.649  33.432  10.040
47528W        W19953   6.217  43.940  14.448
47529W        W19954  21.030  14.670  10.955
47530W        W19955  39.392  33.939   2.795
47531W        W19956  38.886   0.951  11.550
47532W        W19957  16.569  42.936  13.900
47533W        W19958  15.095  18.707  13.960
47534W        W19959  24.205  39.061  13.356
47535W        W19960  18.668   0.844   4.140
47536W        W19961   3.452  11.206   1.794
47537W        W19962   9.752   7.792  10.895
47538W        W19963  41.515   7.731  12.869
47539W        W19964  39.317  11.843  14.927
47540W        W19965  15.788  41.965  13.523
47541W        W19966  18.049  23.210   0.360
47542W        W19967  17.094   7.356   0.319
47543W        W19968  23.037  42.458   0.875
47544W        W19969  11.341  14.824  11.104
47545W        W19970  24.535  32.601   5.680
47546W        W19971  21.713  31.988   4.316
47547W        W19972   6.681  32.974   4.731
47548W        W19973   9.783  14.310  14.885
47549W        W19974  34.112  43.405  14.513
47550W        W19975  21.094  40.937   0.830
47551W        W19976  41.997  30.480  12.363
47552W        W19977  33.041  27.942   2.738
47553W        W19978  13.693  28.650   2.219
47554W        W19979  43.441  38.977  11.936
47555W        W19980  36.981  29.940   3.830
47556W        W19981  41.349   2.815  13.952
47557W        W19982   3.743  19.721   5.123
47558W        W19983  30.006  31.986   3.790
47559W        W19984  27.503  16.136   2.816
47560W        W19985  40.946  41.434  13.952
47561W        W19986  29.427  44.857  13.378
47562W        W19987   4.785  25.064  12.454
47563W        W19988  43.275  35.362   1.234
47564W        W19989  29.149  42.426   1.220
47565W        W19990   1.876  17.121   2.685
47566W        W19991  42.453  39.810  13.440
47567W        W19992  24.478  30.954   2.804
47568W        W19993   0.390  15.286  11.857
47569W        W19994  11.369   8.849   1.706
47570W        W19995  18.695  34.099  14.936
47571W        W19996   4.876  13.692  12.842
47572W        W19997  18.152   4.887   3.197
47573W        W19998  40.946   0.339  13.832
47574W        W19999  27.537  23.541  14.493
47575W        W20000  27.482  20.554   2.181
47576W        W20001   5.363  24.635   1.928
47577W        W20002  41.371  30.649  14.979
47578W        W20003   9.299  43.406   0.834
47579W        W20004  13.263  13.198   1.214
47580W        W20005  41.295  14.731   2.396
47581W        W20006  19.275  42.377   2.855
47582W        W20007   8.798  36.065  10.919
47583W        W20008  37.403  40.490  10.903
47584W        W20009  43.451  21.230  10.616
47585W        W20010   9.394   2.955   0.775
47586W        W20011  30.116  29.983  12.525
47587W        W20012  36.929  18.751  11.920
47588W        W20013   0.845  35.509  14.339
47589W        W20014   3.740  24.489  13.032
47590W        W20015   3.323  39.522  12.985
47591W        W20016  20.525  26.646  12.410
47592W        W20017  38.979   5.332  12.873
47593W        W20018  15.090  15.691  11.505
47594W        W20019  41.965   9.860   0.875
47595W        W20020  42.838  25.693   3.237
47596W        W20021  17.592  11.289   3.380
47597W        W20022  42.906  15.173  14.484
47598W        W20023  24.113  32.086  12.431
47599W        W20024   9.326  11.142   2.318
47600W        W20025  36.515  24.202   0.748
47601W        W20026   2.470   8.897   0.435
47602W        W20027   6.396   2.228  14.350
47603W        W20028  16.178   8.851  14.503
47604W        W20029   7.750   4.443   0.457
47605W        W20030   9.247  12.196   1.290
47606W        W20031  25.494   0.342   0.736
47607W        W20032  20.549  11.305  14.780
47608W        W20033  41.861  41.447  14.846
47609W        W20034  11.701  20.182  13.443
47610W        W20035  41.848   2.918  10.606
47611W        W20036   5.912  19.112   4.274
47612W        W20037   8.161   7.851   0.342
47613W        W20038  27.100  36.418  13.457
47614W        W20039   0.890  39.324  12.042
47615W        W20040   2.293  22.006  10.632
47616W        W20041  17.073  37.559   2.725
47617W        W20042  27.544  44.930  14.470
47618W        W20043   9.179  38.877  10.115
47619W        W20044  37.868   8.839   0.786
47620W        W20045  35.359  27.007  11.100
47621W        W20046  10.230  25.213  12.865
47622W        W20047  42.923  42.416  11.521
47623W        W20048  36.989  29.595   0.368
47624W        W20049  37.967  35.359   3.802
47625W        W20050   6.760  32.098   4.644
47626W        W20051  12.788  42.519   4.766
47627W        W20052  27.947  23.115  10.442
47628W        W20053  19.052  11.287   0.872
47629W        W20054  42.802  40.450  14.451
47630W        W20055  15.783   8.267  12.934
47631W        W20056   3.802  18.161   0.942
47632W        W20057  25.650  13.642   3.720
47633W        W20058  12.152  32.988  11.941
47634W        W20059  25.504  24.998  11.015
47635W        W20060  31.139  29.966   2.767
47636W        W20061  14.208  31.528   3.255
47637W        W20062  39.549  29.481  13.993
47638W        W20063   1.394   0.404  12.416
47639W        W20064   9.244  25.152  11.530
47640W        W20065   7.239  30.604  13.947
47641W        W20066  12.300  26.196  11.597
47642W        W20067  27.160  31.482  14.293
47643W        W20068   2.371  31.550  13.378
47644W        W20069  10.878  17.626  12.536
47645W        W20070  44.827  34.429   0.774
47646W        W20071  10.299  42.872   1.812
47647W        W20072  37.958  41.399  10.426
47648W        W20073   3.354  33.089  13.976
47649W        W20074  32.611  26.567   0.376
47650W        W20075  17.801   1.385  14.477
47651W        W20076  35.563  18.268  14.486
47652W        W20077  34.941  32.959   3.206
47653W        W20078  12.797   9.719  13.506
47654W        W20079  25.570  20.096   4.773
47655W        W20080  23.083  24.212   0.925
47656W        W20081   9.883  39.818   2.799
47657W        W20082  22.026  28.662   1.396
47658W        W20083  39.416   3.813  14.354
47659W        W20084  42.008  19.656  11.454
47660W        W20085  11.778   3.334   4.804
47661W        W20086   9.854  29.588   3.243
47662W        W20087  40.446  29.560  13.938
47663W        W20088  34.978  31.507   4.744
47664W        W20089  23.197  41.011   3.168
47665W        W20090  32.020  25.211  10.927
47666W        W20091  34.899  29.481   0.264
47667W        W20092   3.247  10.317   3.816
47668W        W20093  29.157  31.153  14.312
47669W        W20094  11.725  19.171  13.938
47670W        W20095   3.291  27.674  12.418
47671W        W20096  36.509  31.943  14.025
47672W        W20097   4.290  42.941   3.309
47673W        W20098  41.506   4.781   3.720
47674W        W20099  44.299  11.719   5.214
47675W        W20100   4.901  11.829  11.048
47676W        W20101  44.405  44.978   1.930
47677W        W20102  22.999   1.483  13.461
47678W        W20103  21.640   1.424   4.261
47679W        W20104   3.403   8.229  10.479
47680W        W20105  39.934  17.591  14.779
47681W        W20106  29.620   7.307   1.862
47682W        W20107  20.159  14.632   2.368
47683W        W20108   4.762  25.014  12.884
47684W        W20109  17.169  36.386  10.604
47685W        W20110  13.790  12.695  11.585
47686W        W20111   4.218  24.679   3.180
47687W        W20112   5.349  40.527  12.385
47688W        W20113   3.749  17.300  13.957
47689W        W20114  19.048  38.997  11.878
47690W        W20115  34.592  26.971   1.401
47691W        W20116   4.914  38.493  13.829
47692W        W20117  32.072  41.308   0.792
47693W        W20118  34.959  31.066   0.743
47694W        W20119  39.436   6.736   3.786
47695W        W20120  20.106  24.490   1.835
47696W        W20121   3.745  38.555  12.883
47697W        W20122  28.111  33.574   1.299
47698W        W20123   9.176  30.431  12.870
47699W        W20124  12.335  24.081  12.926
47700W        W20125  37.840  34.874  14.975
47701W        W20126  30.143  37.928   4.163
47702W        W20127  38.534  34.936  10.645
47703W        W20128  11.171  20.720   4.311
47704W        W20129  44.917   0.412   1.740
47705W        W20130  17.584  19.740   1.268
47706W        W20131   7.699  42.880  13.991
47707W        W20132  31.976  36.447   0.828
47708W        W20133  39.408  20.689  14.022
47709W        W20134   0.786  31.478   1.394
47710W        W20135  42.785  30.086  10.968
47711W        W20136  27.041  31.948   0.768
47712W        W20137   7.317  29.946  14.326
47713W        W20138   5.709   0.834  11.909
47714W        W20139  30.536   9.846  11.372
47715W        W20140  36.568  21.152  13.405
47716W        W20141   2.813  35.902  12.449
47717W        W20142   9.873  30.578  10.501
47718W        W20143  26.641  34.872  13.814
47719W        W20144  14.745   1.902  13.816
47720W        W20145  40.035  42.459  14.337
47721W        W20146  39.535  21.576  13.893
47722W        W20147  29.485   9.705  11.411
47723W        W20148   0.940   0.438  10.567
47724W        W20149   3.309  25.057   1.322
47725W        W20150  25.596  21.137   9.966
47726W        W20151  26.955  31.016   1.266
47727W        W20152  18.756  14.285  13.464
47728W        W20153  15.107   2.861  13.317
47729W        W20154  21.179  23.085  14.806
47730W        W20155  32.122   5.221   2.813
47731W        W20156  29.016  44.330  14.280
47732W        W20157  30.523  17.746  11.073
47733W        W20158  10.714  37.501   3.700
47734W        W20159  35.540  10.199  12.473
47735W        W20160   5.230  18.696   4.783
47736W        W20161  24.115  41.806  10.470
47737W        W20162  28.043  37.499  10.550
47738W        W20163  10.211  18.289  11.906
47739W        W20164  39.002  33.562   3.743
47740W        W20165  40.516  44.411   2.208
47741W        W20166  37.359  29.139   0.346
47742W        W20167  11.701   8.786   2.728
47743W        W20168   6.880  40.991   1.696
47744W        W20169  35.939  31.440   1.211
47745W        W20170   4.911  12.781   9.948
47746W        W20171   9.228   8.700  14.389
47747W        W20172   8.185  25.978   4.207
47748W        W20173   0.908  15.153  14.317
47749W        W20174  24.105  15.594  10.502
47750W        W20175  34.885   8.879   3.804
47751W        W20176  36.998  35.873  11.006
47752W        W20177  11.334  44.440   1.920
47753W        W20178  31.963  11.795   4.623
47754W        W20179  40.346  19.097   3.702
47755W        W20180   7.235   1.761   2.262
47756W        W20181  25.656  14.293  10.891
47757W        W20182   4.419   2.275   2.244
47758W        W20183  12.725  27.688  12.924
47759W        W20184  12.122   4.395   0.340
47760W        W20185  35.557   0.347   3.652
47761W        W20186   0.768  17.771  11.014
47762W        W20187  18.069  40.526  12.403
47763W        W20188  21.641  17.752  11.022
47764W        W20189  22.150  33.621  12.964
47765W        W20190  42.324   0.372   4.272
47766W        W20191   0.976  14.131  12.991
47767W        W20192  36.017  27.549   0.732
47768W        W20193   2.462  11.745  10.095
47769W        W20194  33.125   3.272   1.779
47770W        W20195   6.893  28.004  14.503
47771W        W20196   9.869  43.486   2.678
47772W        W20197  38.567   2.943   4.235
47773W        W20198   5.763  39.908   3.370
47774W        W20199  12.612  32.392   2.261
47775W        W20200  23.584  24.088  10.428
47776W        W20201   0.751  38.503  11.943
47777W        W20202  12.321  14.598  11.018
47778W        W20203   8.777  15.284  12.883
47779W        W20204  35.438   7.195   0.950
47780W        W20205   4.889  39.016  11.063
47781W        W20206   6.408  30.530   2.718
47782W        W20207  21.549   8.217  13.816
47783W        W20208  21.151  27.456  12.015
47784W        W20209  13.292   8.406   4.714
47785W        W20210   3.800   7.180  10.906
47786W        W20211   5.910  24.514  12.472
47787W        W20212  11.786  12.612  14.855
47788W        W20213   1.932   6.813  12.545
47789W        W20214   0.393   6.810  13.327
47790W        W20215  30.478  36.932  14.886
47791W        W20216   0.926  41.818  11.976
47792W        W20217  37.523  39.537  13.859
47793W        W20218  37.468  38.480   0.308
47794W        W20219   7.231  23.602  12.465
47795W        W20220   8.269  17.733  12.068
47796W        W20221  41.445  19.543  12.362
47797W        W20222  10.750   3.750  13.502
47798W        W20223   7.233  34.905   3.325
47799W        W20224  36.037   0.982  11.443
47800W        W20225  41.437   8.341   0.931
47801W        W20226   0.389  38.332   2.864
47802W        W20227  38.843  17.296  13.392
47803W        W20228  19.646  15.279   4.169
47804W        W20229  40.027  23.202   4.791
47805W        W20230  25.615  15.219   4.681
47806W        W20231   3.746  34.024   1.296
47807W        W20232   1.250   9.290   1.859
47808W        W20233   1.474  31.923  10.560
47809W        W20234  16.797  16.281   4.252
47810W        W20235   1.779  42.321  14.896
47811W        W20236  42.320  38.479   3.310
47812W        W20237  28.142  41.495  10.097
47813W        W20238  43.834  32.054   0.936
47814W        W20239  37.060  41.436  13.520
47815W        W20240  15.290  36.551  11.382
47816W        W20241  19.541   4.794  13.448
47817W        W20242  23.634  29.022   0.901
47818W        W20243  10.848  30.008  14.351
47819W        W20244   9.702  17.279   0.923
47820W        W20245   8.377   4.921   1.831
47821W        W20246   4.242  40.052  10.558
47822W        W20247  40.045  20.696  11.930
47823W        W20248  17.192   6.195   0.889
47824W        W20249  25.014  14.682   1.358
47825W        W20250   1.409  12.710   0.916
47826W        W20251   6.405   6.873   3.362
47827W        W20252  36.913  36.374   0.947
47828W        W20253  24.200   7.380   0.912
47829W        W20254  29.053  22.617   4.710
47830W        W20255  22.201   1.926  10.561
47831W        W20256   2.351  24.171   0.343
47832W        W20257  39.337  32.476   4.152
47833W        W20258   1.444   1.915  12.910
47834W        W20259  12.715  23.537  13.870
47835W        W20260  27.486  38.374  14.866
47836W        W20261  41.457  41.511   4.689
47837W        W20262   4.754  33.555   4.309
47838W        W20263  34.614   1.763   2.889
47839W        W20264  39.523  15.256  13.052
47840W        W20265  25.668  24.221  11.931
47841W        W20266  44.309   9.308  11.922
47842W        W20267  33.459  19.170  11.879
47843W        W20268   0.492  36.086  14.444
47844W        W20269  23.594  15.745  10.462
47845W        W20270  25.179  39.349  13.518
47846W        W20271  32.568  11.273  10.905
47847W        W20272  32.011  38.919   3.290
47848W        W20273  24.201  17.777  12.824
47849W        W20274   8.390  25.112  10.523
47850W        W20275  43.968  27.155  12.510
47851W        W20276  21.699   0.288   1.308
47852W        W20277  27.688  16.193   3.741
47853W        W20278  13.726   2.828  10.500
47854W        W20279   2.879  14.675  12.423
47855W        W20280   9.751  15.084   4.621
47856W        W20281  28.004  41.418   1.807
47857W        W20282  13.806  19.683   3.689
47858W        W20283  12.183  28.091   0.324
47859W        W20284   3.903  24.674   4.252
47860W        W20285   8.318   1.287   1.239
47861W        W20286  36.853   3.827  12.987
47862W        W20287  13.816  24.715  12.428
47863W        W20288   7.286   2.832   4.734
47864W        W20289   0.316  29.601  13.895
47865W        W20290   4.865  19.147   4.603
47866W        W20291   0.248  12.230  10.418
47867W        W20292  31.041   8.220   0.278
47868W        W20293  20.227  12.803   2.338
47869W        W20294  30.074  22.039   3.709
47870W        W20295   4.753  28.122   2.318
47871W        W20296   5.240  35.460   0.462
47872W        W20297  16.631  26.001  13.990
47873W        W20298  23.619   3.822   1.429
47874W        W20299  20.192  22.219  10.547
47875W        W20300  36.077  26.693   3.716
47876W        W20301  12.139   6.233   4.272
47877W        W20302  10.179  31.126  13.010
47878W        W20303  17.714  21.067   4.765
47879W        W20304  37.009  39.035   0.297
47880W        W20305  41.813  30.526  10.498
47881W        W20306  11.232  13.834  12.067
47882W        W20307  32.913   7.364   2.408
47883W        W20308  38.073   8.864  14.365
47884W        W20309  24.199  32.057   2.802
47885W        W20310  36.028  29.610  10.532
47886W        W20311  16.758  36.554  10.598
47887W        W20312  19.737  17.121   1.704
47888W        W20313  32.923  38.365  11.410
47889W        W20314   4.239  26.081   4.821
47890W        W20315  35.540  14.145   0.336
47891W        W20316   4.927   4.419   1.290
47892W        W20317  19.553  35.012   5.084
47893W        W20318  33.043  36.082   2.346
47894W        W20319   2.863   7.205   3.303
47895W        W20320  18.562  34.425  14.443
47896W        W20321  30.567  28.639   0.946
47897W        W20322  26.597   2.467   5.292
47898W        W20323  22.041  35.033  10.528
47899W        W20324  29.614  14.708  14.422
47900W        W20325  25.167   0.764   1.400
47901W        W20326  26.505  44.373   4.332
47902W        W20327  30.589  27.502  14.310
47903W        W20328  18.158   0.889  11.475
47904W        W20329  11.222  35.486  13.053
47905W        W20330   0.960  20.540   4.342
47906W        W20331  21.137  14.200  10.988
47907W        W20332  31.024  44.777  10.432
47908W        W20333  38.538  27.474  11.479
47909W        W20334   0.964  16.717   2.403
47910W        W20335  39.004  36.517   0.837
47911W        W20336  41.863  18.555  12.526
47912W        W20337  33.131  12.129   2.860
47913W        W20338   8.319   4.325   3.272
47914W        W20339  31.485  22.673   3.806
47915W        W20340  24.218  31.643  13.397
47916W        W20341   6.716  39.063   0.411
47917W        W20342   5.360  39.816   0.857
47918W        W20343  14.594  33.407   5.661
47919W        W20344  43.804  14.748   3.817
47920W        W20345  43.342  22.235  10.061
47921W        W20346   0.386  19.623   1.402
47922W        W20347   9.678  43.453  11.382
47923W        W20348   8.324  18.776  14.379
47924W        W20349  35.486  22.559  14.007
47925W        W20350  32.462   9.809  14.901
47926W        W20351  22.219  37.041   3.191
47927W        W20352  21.254  34.961   1.313
47928W        W20353  12.125  41.318   3.738
47929W        W20354  20.203  43.873  12.379
47930W        W20355  38.969   5.304  12.486
47931W        W20356  39.856  32.436  12.887
47932W        W20357  16.172  13.228  12.964
47933W        W20358  42.342  41.835  11.448
47934W        W20359  25.195  34.463   0.776
47935W        W20360  33.878  30.054  13.936
47936W        W20361   3.233  19.169  12.823
47937W        W20362  17.304  38.519  11.047
47938W        W20363  17.270   7.815   3.824
47939W        W20364  25.043  19.630   1.236
47940W        W20365  44.406   7.404   5.238
47941W        W20366   4.326  13.613   1.436
47942W        W20367  20.262  30.440   2.270
47943W        W20368  33.980  30.483  11.540
47944W        W20369  43.354  15.690  11.573
47945W        W20370  37.448   0.924  11.541
47946W        W20371  39.933   0.334   2.240
47947W        W20372  23.696  35.523  11.073
47948W        W20373  33.077  22.197   0.830
47949W        W20374  37.343   1.453   1.898
47950W        W20375  24.591  15.663  12.012
47951W        W20376  21.076  25.986   2.417
47952W        W20377   0.809  25.658   2.374
47953W        W20378  44.002  13.784  14.933
47954W        W20379  42.852  26.548   4.831
47955W        W20380  36.489  37.904   2.291
47956W        W20381   9.845  21.262  11.934
47957W        W20382  19.768   0.436   2.714
47958W        W20383  24.578  11.290   5.141
47959W        W20384   0.478  30.152   4.321
47960W        W20385  28.548  22.998  14.289
47961W        W20386  42.891  42.966  11.581
47962W        W20387  41.876  36.575   4.731
47963W        W20388  42.508  39.024   3.814
47964W        W20389  22.614  36.983  13.388
47965W        W20390  29.135   2.766   3.167
47966W        W20391   5.886  29.967  12.919
47967W        W20392  44.390   3.886   1.892
47968W        W20393  43.355   2.722   4.633
47969W        W20394  35.931   0.936   2.678
47970W        W20395  26.575  30.001  10.605
47971W        W20396  22.048   4.282  10.898
47972W        W20397   5.818  24.034   0.326
47973W        W20398   7.274  29.643   3.334
47974W        W20399  30.111   7.798  10.476
47975W        W20400   8.782   0.263   0.806
47976W        W20401   7.344  32.432   0.956
47977W        W20402  15.790  37.364  13.325
47978W        W20403  42.358  17.121  14.904
47979W        W20404  29.919  25.057   1.372
47980W        W20405  35.566  40.469  13.318
47981W        W20406  20.650   7.744  10.997
47982W        W20407  18.752   4.353  10.971
47983W        W20408  11.750   3.266  14.022
47984W        W20409  28.952  43.925   4.193
47985W        W20410   5.708  35.897   1.405
47986W        W20411  24.001  23.703   4.814
47987W        W20412  19.750  27.182   3.161
47988W        W20413  41.796   3.231   4.216
47989W        W20414   5.293   2.288  12.874
47990W        W20415  16.618  21.562   0.789
47991W        W20416  19.061  36.538  10.408
47992W        W20417  24.217  39.003  12.374
47993W        W20418  19.067  17.602   0.445
47994W        W20419  17.306  21.031  12.478
47995W        W20420  13.687  31.945   1.318
47996W        W20421  41.955  14.822  13.951
47997W        W20422   9.347  27.094   1.787
47998W        W20423   1.371  29.949  11.931
47999W        W20424  29.561  15.594  14.961
48000W        W20425  17.144   4.251   4.311
48001W        W20426  33.058  14.677   0.829
48002W        W20427  15.797  32.084   1.911
48003W        W20428  39.815  20.232  11.439
48004W        W20429  25.148  23.990   3.237
48005W        W20430  38.032  12.164  13.857
48006W        W20431  20.099  25.537   4.291
48007W        W20432   3.340  31.569   0.963
48008W        W20433   9.161   9.711   0.809
48009W        W20434  29.952  29.089   1.710
48010W        W20435   1.868   8.318   0.758
48011W        W20436   4.385  13.653  11.049
48012W        W20437  19.284  14.318   0.950
48013W        W20438  20.155  31.139  10.449
48014W        W20439  30.568  34.962   5.267
48015W        W20440  25.107   8.731  10.618
48016W        W20441   1.972  25.646   0.294
48017W        W20442  16.710  26.049   2.238
48018W        W20443  20.166  14.236   2.212
48019W        W20444  37.842   0.844  10.001
48020W        W20445  20.249  37.455  13.468
48021W        W20446  18.711  13.347  13.391
48022W        W20447  34.588  43.879   1.784
48023W        W20448  26.537  11.134   3.374
48024W        W20449  11.151  26.643   2.894
48025W        W20450  38.063   9.839   1.737
48026W        W20451  36.079  23.525  12.446
48027W        W20452  22.551  37.488  11.573
48028W        W20453  15.118  17.061  10.579
48029W        W20454  35.571  37.340  11.863
48030W        W20455  13.735  30.446  11.885
48031W        W20456  43.819  24.603   4.140
48032W        W20457   4.412  30.085  11.072
48033W        W20458  37.431  16.083   4.298
48034W        W20459  10.185  38.953   3.693
48035W        W20460  32.066  14.776  11.606
48036W        W20461  26.525   6.736  10.639
48037W        W20462  21.558  35.402   0.271
48038W        W20463  33.125  12.849  12.457
48039W        W20464  28.512   1.448  14.321
48040W        W20465  39.942  26.671   2.413
48041W        W20466  19.655  35.594  13.012
48042W        W20467  25.184  38.036  13.363
48043W        W20468  26.509   9.834   4.706
48044W        W20469  39.357  10.208   0.825
48045W        W20470   6.322  42.881   1.870
48046W        W20471  18.573   9.265   4.699
48047W        W20472  16.266  39.839   4.219
48048W        W20473  19.182   4.287   0.917
48049W        W20474  18.059  14.333   2.331
48050W        W20475  31.626  14.172  13.794
48051W        W20476  39.512  23.126  14.938
48052W        W20477   1.472  44.875   2.817
48053W        W20478  18.290   6.393  14.933
48054W        W20479  42.401  22.232   4.256
48055W        W20480   9.337  16.812  12.921
48056W        W20481  25.996  12.362   2.237
48057W        W20482  42.437  38.339  14.470
48058W        W20483  29.530  25.055  13.538
48059W        W20484  14.252  32.043  14.853
48060W        W20485  14.152   1.335   3.273
48061W        W20486  37.833  16.634  11.562
48062W        W20487  39.056  24.082   0.415
48063W        W20488   6.892  34.985   0.387
48064W        W20489  32.436  13.656  13.960
48065W        W20490   1.392  38.565   2.888
48066W        W20491  25.014   7.200   1.225
48067W        W20492  19.264  27.069   3.702
48068W        W20493  15.688  37.909  11.559
48069W        W20494  39.889  20.651  10.568
48070W        W20495   4.211  26.990   4.690
48071W        W20496  15.670  30.016   3.653
48072W        W20497   0.299  32.406   3.297
48073W        W20498  44.268   0.337  13.854
48074W        W20499  25.598  11.809   4.829
48075W        W20500  22.575  36.984   4.247
48076W        W20501  39.837  11.685  11.586
48077W        W20502  44.901  28.937   3.280
48078W        W20503  32.464  13.640   3.209
48079W        W20504  40.001  30.576  10.553
48080W        W20505   7.867  32.990  10.587
48081W        W20506  44.352  41.838   0.819
48082W        W20507  29.990   5.739   1.787
48083W        W20508  28.999  17.068  11.978
48084W        W20509  34.411  34.377   1.407
48085W        W20510  21.034  34.431   3.682
48086W        W20511   7.375  35.377   2.890
48087W        W20512  14.273  27.032  11.508
48088W        W20513  26.668  33.114  14.955
48089W        W20514  33.964  33.477   3.847
48090W        W20515  13.843  23.158   1.865
48091W        W20516  16.231  20.657   1.275
48092W        W20517  43.839  34.374  12.498
48093W        W20518  29.139  12.324   1.911
48094W        W20519   7.182  26.039  13.935
48095W        W20520   7.257  22.070  12.415
48096W        W20521  28.120  18.079   0.730
48097W        W20522  13.153  22.169  13.355
48098W        W20523  36.910  24.497  10.978
48099W        W20524   1.406  34.953   2.193
48100W        W20525   5.269  22.608   4.283
48101W        W20526  14.803  39.509  14.485
48102W        W20527  38.942  33.611   0.402
48103W        W20528   9.654  12.720  11.046
48104W        W20529  39.314  31.117   4.718
48105W        W20530   2.319  23.727  11.070
48106W        W20531  29.578  44.346  14.507
48107W        W20532   2.235  14.666  13.914
48108W        W20533  35.885  34.050  13.414
48109W        W20534  40.827  28.441  13.000
48110W        W20535  16.122  21.750   4.146
48111W        W20536  31.933  28.512   2.327
48112W        W20537  28.513  31.567  14.796
48113W        W20538   8.303  15.126   4.289
48114W        W20539  13.688  12.153  11.867
48115W        W20540  21.065  15.701  14.458
48116W        W20541  44.416  26.011   1.401
48117W        W20542   0.859  32.520  14.867
48118W        W20543  39.880  41.995   4.779
48119W        W20544   0.926   6.693   0.891
48120W        W20545  31.054  22.703  14.287
48121W        W20546   3.915  24.107  13.063
48122W        W20547  16.187  40.803   4.810
48123W        W20548   6.870  21.564   4.159
48124W        W20549  32.593  19.717  14.796
48125W        W20550  17.255  22.671  13.021
48126W        W20551  33.020  18.184  10.461
48127W        W20552  24.619  13.164  14.914
48128W        W20553  22.553   1.951  11.857
48129W        W20554  36.068   9.361  14.867
48130W        W20555  28.489  32.991   2.673
48131W        W20556  17.602  15.126   0.958
48132W        W20557  24.651  28.958   4.290
48133W        W20558  25.563  40.029  13.920
48134W        W20559  31.936  24.155   4.680
48135W        W20560  15.628  43.974  14.284
48136W        W20561   3.800   0.445  12.387
48137W        W20562   1.340  13.697   4.670
48138W        W20563  44.338   1.862   3.195
48139W        W20564  28.162   6.378  14.392
48140W        W20565  36.366  36.353   2.192
48141W        W20566  35.018  30.971  14.763
48142W        W20567  24.077   4.340  13.811
48143W        W20568  44.830  40.475   1.405
48144W        W20569  31.107  44.356   3.711
48145W        W20570   7.417  28.104  14.489
48146W        W20571  31.015  40.898   5.740
48147W        W20572  14.226   7.833  12.886
48148W        W20573  28.946  25.994   1.787
48149W        W20574  25.092  24.539   0.885
48150W        W20575  29.552   2.317  14.006
48151W        W20576  24.143  10.229  12.023
48152W        W20577   5.381  30.990  11.525
48153W        W20578  38.070  25.051  14.289
48154W        W20579  30.010  30.484  11.003
48155W        W20580  17.584  23.557   4.783
48156W        W20581  44.764  19.759   3.820
48157W        W20582  43.919  34.052   1.698
48158W        W20583  33.407  11.224   2.416
48159W        W20584  23.239  16.200  11.046
48160W        W20585   4.381   9.681  11.069
48161W        W20586   8.205  10.806   0.758
48162W        W20587  42.429  20.260  11.518
48163W        W20588  36.410  20.089  12.489
48164W        W20589   0.986  13.611  13.019
48165W        W20590   5.750  20.660  12.342
48166W        W20591  33.524   3.453   4.317
48167W        W20592  12.759  17.734   4.231
48168W        W20593   9.847  25.128   0.388
48169W        W20594  19.596   5.868  14.444
48170W        W20595  35.921  13.115  10.980
48171W        W20596   0.802  22.566   0.781
48172W        W20597  27.572  18.275   0.728
48173W        W20598  10.720  40.336   2.671
48174W        W20599  15.671   7.295  13.895
48175W        W20600  37.006  25.020   3.331
48176W        W20601  18.187  24.597   0.311
48177W        W20602   6.356  22.076   0.352
48178W        W20603  38.451   3.849   0.888
48179W        W20604   9.848   3.709  12.530
48180W        W20605  14.233  22.725  11.497
48181W        W20606   8.825  13.313  11.976
48182W        W20607  39.492   1.455  13.389
48183W        W20608  29.447  14.634  14.979
48184W        W20609  23.234  40.483   2.375
48185W        W20610  18.717  42.921   1.382
48186W        W20611   6.245  34.403  10.582
48187W        W20612  13.263   6.279   2.745
48188W        W20613   7.174  22.179   2.692
48189W        W20614  14.220  13.653  10.497
48190W        W20615  33.018  10.247  12.873
48191W        W20616   1.260  38.527   1.275
48192W        W20617   2.393  23.712  14.373
48193W        W20618  13.834   1.376  12.855
48194W        W20619   0.479   5.275   1.781
48195W        W20620  10.769  33.126  13.483
48196W        W20621  17.091  24.530  14.352
48197W        W20622  12.746  11.265  12.828
48198W        W20623  22.217   5.777  13.461
48199W        W20624  16.100   9.344  13.884
48200W        W20625  19.690  32.615  10.899
48201W        W20626  11.828  30.055   1.414
48202W        W20627  37.027   1.790  10.972
48203W        W20628  27.016  24.025  14.373
48204W        W20629   8.351  33.516  12.039
48205W        W20630   8.675  23.719   0.411
48206W        W20631  12.793   6.824   0.391
48207W        W20632   2.353  15.309  10.546
48208W        W20633  24.179  21.689   2.373
48209W        W20634  34.976  15.704  13.462
48210W        W20635   0.372   7.799   4.837
48211W        W20636  11.709  43.798  11.884
48212W        W20637  35.523   2.782  10.897
48213W        W20638  22.092  10.735  11.384
48214W        W20639   5.401  43.764   4.622
48215W        W20640   2.274  11.274   3.386
48216W        W20641   6.793  40.957  13.363
48217W        W20642  22.177  35.871   3.291
48218W        W20643  11.155  32.964  11.948
48219W        W20644  27.492  24.025  14.291
48220W        W20645  44.898  21.216  12.526
48221W        W20646  39.340  25.122   4.189
48222W        W20647   3.329   4.317   0.315
48223W        W20648  20.074  21.068   2.245
48224W        W20649  13.183  39.470  13.860
48225W        W20650  27.635  43.500  12.493
48226W        W20651   5.259   7.826  12.353
48227W        W20652  25.972  24.677  14.436
48228W        W20653   6.252  32.892   0.448
48229W        W20654  19.745  25.489   4.157
48230W        W20655  12.627  27.967   2.246
48231W        W20656  23.693  26.556   2.199
48232W        W20657   0.266   5.882  10.413
48233W        W20658  30.639  10.247   2.784
48234W        W20659  28.073  19.216  10.892
48235W        W20660   8.782  38.935  14.332
48236W        W20661   8.880  14.616   4.172
48237W        W20662   5.812  24.175  13.934
48238W        W20663   6.308  19.711   5.176
48239W        W20664  21.719  41.946   0.745
48240W        W20665  43.914  17.597   1.387
48241W        W20666  30.504   7.731  13.433
48242W        W20667   9.852  24.590   0.897
48243W        W20668  20.045  25.004   0.766
48244W        W20669  23.141  24.543   2.191
48245W        W20670  40.426  29.437  10.468
48246W        W20671  40.406  28.096  14.011
48247W        W20672  34.510  26.551  10.642
48248W        W20673   2.391  39.844   4.113
48249W        W20674   6.824   2.879  10.406
48250W        W20675  24.066  39.826  10.624
48251W        W20676  17.646  39.887   3.184
48252W        W20677   3.765   1.743   2.178
48253W        W20678  23.053   6.426  14.496
48254W        W20679  22.741  41.000   3.645
48255W        W20680  23.204  43.392   1.284
48256W        W20681   2.923  28.542  10.904
48257W        W20682  25.200   7.189   3.172
48258W        W20683  24.491  41.385  11.380
48259W        W20684   3.895  30.572   3.737
48260W        W20685   6.207  25.192  10.068
48261W        W20686  22.113   3.844  13.933
48262W        W20687  17.245  44.339   0.769
48263W        W20688  40.855  25.521   2.730
48264W        W20689   8.756  17.099  11.549
48265W        W20690  43.368  11.326   2.823
48266W        W20691   9.775  16.306   4.339
48267W        W20692  13.240  41.470  12.438
48268W        W20693   9.701  29.664  10.512
48269W        W20694   3.370  36.867  13.920
48270W        W20695  10.226  30.480  13.459
48271W        W20696   7.886  34.611  12.082
48272W        W20697  26.183  16.805   2.868
48273W        W20698  17.751   1.442  10.945
48274W        W20699  14.608  25.127  12.028
48275W        W20700  19.282  13.204   1.349
48276W        W20701  26.139  38.530  14.284
48277W        W20702  25.701  10.638   1.904
48278W        W20703  20.712  11.300   3.227
48279W        W20704  37.009   4.749  13.449
48280W        W20705  17.797  42.367  14.420
48281W        W20706  24.058  11.730   1.751
48282W        W20707   2.245  17.712  12.849
48283W        W20708   5.783  24.575   1.281
48284W        W20709  40.389  16.209   0.828
48285W        W20710  37.415  18.565  12.382
48286W        W20711   1.844  33.987  12.346
48287W        W20712  22.654   5.301   4.321
48288W        W20713   2.375  34.061   0.427
48289W        W20714  32.994   2.238   2.347
48290W        W20715   7.257  31.447  11.541
48291W        W20716  37.870  19.731   2.381
48292W        W20717  22.636  11.701   4.244
48293W        W20718  25.150  12.292   1.797
48294W        W20719  33.072  27.103   0.271
48295W        W20720  17.162  36.433  14.791
48296W        W20721  35.548  30.610   1.402
48297W        W20722   1.321   7.695  10.912
48298W        W20723   9.260   2.279  13.994
48299W        W20724  12.260  14.268  12.902
48300W        W20725   7.854  24.139   3.630
48301W        W20726  29.585   0.976  14.770
48302W        W20727  35.868  28.441  12.911
48303W        W20728   1.880  37.842  10.433
48304W        W20729  34.390   3.345  14.342
48305W        W20730  16.567   9.822   1.284
48306W        W20731  23.676  34.084   2.747
48307W        W20732  19.174  12.122  12.851
48308W        W20733  33.055  24.702  12.060
48309W        W20734  29.628  25.001  15.000
48310W        W20735  38.845  12.280   1.442
48311W        W20736   6.740  30.108   2.897
48312W        W20737  43.877  29.576  13.801
48313W        W20738   9.335  30.617   4.707
48314W        W20739   7.751   5.747   0.336
48315W        W20740   8.268  25.690   4.762
48316W        W20741   4.744  35.012  12.978
48317W        W20742  17.198  12.127  13.344
48318W        W20743   4.365  43.767   1.309
48319W        W20744  28.932  37.464   0.383
48320W        W20745  24.640  44.777   2.221
48321W        W20746  10.140  29.521  12.888
48322W        W20747  27.022  18.185  12.352
48323W        W20748  12.278  19.274  11.390
48324W        W20749  42.889  31.099  11.433
48325W        W20750  22.062   3.784  11.464
48326W        W20751  28.089   3.385   1.819
48327W        W20752   7.414  15.690  11.020
48328W        W20753   2.255  15.259  11.529
48329W        W20754   0.811  11.333   2.402
48330W        W20755   9.877  35.518  14.865
48331W        W20756  41.457  18.279   4.815
48332W        W20757  19.086  11.261   4.269
48333W        W20758  43.928   8.341   4.183
48334W        W20759  42.372  24.673   0.481
48335W        W20760  44.771  18.131   1.432
48336W        W20761  11.683  25.708  11.927
48337W        W20762  38.996   5.296   1.753
48338W        W20763  21.173  25.522  12.403
48339W        W20764  40.861  25.108  14.423
48340W        W20765  13.263  25.065  12.039
48341W        W20766  44.492  33.506  10.464
48342W        W20767  29.654  29.576   1.790
48343W        W20768  28.488   6.403   0.863
48344W        W20769   5.707   7.214  12.852
48345W        W20770  42.992  14.194  14.345
48346W        W20771  28.520  12.726   3.841
48347W        W20772  30.045  16.757   1.314
48348W        W20773  39.934  19.693   0.764
48349W        W20774   9.806  19.681   3.811
48350W        W20775  42.943  20.531   3.745
48351W        W20776  42.356  21.521   4.602
48352W        W20777  30.421  40.489   4.676
48353W        W20778  17.113  31.133   1.283
48354W        W20779  34.520   3.257  12.566
48355W        W20780  16.295   3.774   4.630
48356W        W20781  17.646  14.659  14.790
48357W        W20782  29.643  31.595   0.889
48358W        W20783  17.206  39.961  11.534
48359W        W20784  36.092  32.411   0.439
48360W        W20785   2.876  20.126  12.564
48361W        W20786   6.736  42.515   2.224
48362W        W20787   0.271  33.966   2.231
48363W        W20788  44.928  24.662   4.659
48364W        W20789  28.068  40.853  11.024
48365W        W20790  13.636  42.868   2.327
48366W        W20791  21.595  35.853   2.766
48367W        W20792   4.207  14.704  14.460
48368W        W20793  29.142  12.629  11.590
48369W        W20794   0.330  42.826  10.954
48370W        W20795  43.384  38.513   1.872
48371W        W20796  26.564  14.623  11.936
48372W        W20797  26.482  10.634  13.347
48373W        W20798  24.546  31.484  10.891
48374W        W20799   8.809  25.037   3.805
48375W        W20800  40.459   8.814  12.082
48376W        W20801   3.259  19.655  14.865
48377W        W20802  15.814  25.162  14.871
48378W        W20803  28.628  38.065  13.031
48379W        W20804  44.444   2.869  14.445
48380W        W20805  22.056  32.424  13.366
48381W        W20806  40.359  42.429   3.384
48382W        W20807  20.711   9.717  12.395
48383W        W20808  19.072  17.561   3.272
48384W        W20809  10.248   2.873   4.235
48385W        W20810  40.527   2.847  14.979
48386W        W20811  43.288  27.456   0.452
48387W        W20812  18.698  30.072   2.179
48388W        W20813  18.270  26.619  12.384
48389W        W20814  22.611  41.968   0.805
48390W        W20815  41.842  42.377  12.080
48391W        W20816   2.756  12.351  13.352
48392W        W20817   6.763   4.292   2.825
48393W        W20818  41.028  42.477  11.567
48394W        W20819  20.638  44.813  12.342
48395W        W20820  20.651  31.571   3.779
48396W        W20821  30.532  11.866   0.886
48397W        W20822  15.797   6.387   2.383
48398W        W20823  27.184  24.576   3.764
48399W        W20824   0.876   6.864  13.026
48400W        W20825   3.283  11.200   4.152
48401W        W20826  17.141  16.112   3.681
48402W        W20827  35.097  31.088  10.643
48403W        W20828   7.289  29.448   3.667
48404W        W20829   0.832   0.387  11.008
48405W        W20830  13.786   3.812  11.878
48406W        W20831  23.511  43.974  13.536
48407W        W20832  33.495  41.993  12.936
48408W        W20833  25.518  11.238  12.477
48409W        W20834  18.562  42.033  10.973
48410W        W20835  13.700   4.267   3.279
48411W        W20836  34.563  21.255  14.414
48412W        W20837  14.691   8.884   2.193
48413W        W20838   6.390  42.902  12.088
48414W        W20839  22.704  18.106  10.082
48415W        W20840  30.565  44.916   2.763
48416W        W20841  31.122  19.225  11.551
48417W        W20842  28.458  38.887  12.039
48418W        W20843  18.056  35.098   0.910
48419W        W20844  32.913  28.672   3.232
48420W        W20845  22.233  13.269  14.330
48421W        W20846  16.184  35.922  12.849
48422W        W20847  23.173   4.361  12.567
48423W        W20848  15.604   0.319   0.922
48424W        W20849   9.861  29.970  14.328
48425W        W20850  12.731   1.965   5.092
48426W        W20851  34.094  28.001   1.931
48427W        W20852   9.227  16.689   4.265
48428W        W20853  44.895  35.399  12.532
48429W        W20854  36.402  18.197   2.677
48430W        W20855  28.508  32.594  10.612
48431W        W20856   7.374  13.776  14.863
48432W        W20857  24.158  23.551  14.834
48433W        W20858  29.611  41.808   5.238
48434W        W20859  36.079   4.740   0.912
48435W        W20860  16.601  17.784  10.576
48436W        W20861  29.534  12.657  10.038
48437W        W20862  25.614  35.557   4.733
48438W        W20863  36.074   1.409   0.800
48439W        W20864   0.927  18.569   1.425
48440W        W20865  15.803  20.263   0.932
48441W        W20866  34.569  19.643  10.408
48442W        W20867  32.576  25.478   0.820
48443W        W20868  16.588  16.154  12.938
48444W        W20869  40.858  35.440   2.347
48445W        W20870  27.117  36.015  13.441
48446W        W20871  32.480  27.449   0.898
48447W        W20872  13.151  38.546   4.212
48448W        W20873  25.138  23.570  12.479
48449W        W20874   0.855   1.417   3.187
48450W        W20875  35.368  33.086   0.862
48451W        W20876  10.811  31.979  13.411
48452W        W20877  31.105  18.656   4.601
48453W        W20878  25.637   6.702   2.697
48454W        W20879   1.873  35.960   4.249
48455W        W20880  44.846  33.501  11.595
48456W        W20881  15.774  35.967  13.392
48457W        W20882  40.345  41.805  14.382
48458W        W20883   0.259  18.286   0.737
48459W        W20884  37.441   3.325  10.639
48460W        W20885  40.544  13.714  11.512
48461W        W20886  40.054   7.902  14.284
48462W        W20887  31.439  42.420  12.554
48463W        W20888  27.556   2.762   3.330
48464W        W20889  13.316  21.156   1.296
48465W        W20890  26.529  40.462   5.110
48466W        W20891  37.486   5.791  13.054
48467W        W20892  30.558   9.663  14.003
48468W        W20893  40.933  14.281   4.210
48469W        W20894  28.056  39.521  10.594
48470W        W20895  26.041  15.801   1.822
48471W        W20896  40.356  38.899   0.813
48472W        W20897  38.847  44.853  13.963
48473W        W20898  33.984  36.992  10.606
48474W        W20899  31.125  11.305   0.765
48475W        W20900  28.455  24.685  11.009
48476W        W20901  40.445   2.411   1.256
48477W        W20902  24.987  18.074  14.352
48478W        W20903  43.494  13.649  13.335
48479W        W20904  14.644  22.709  12.395
48480W        W20905  20.665  26.187  13.320
48481W        W20906  27.052  28.645  13.316
48482W        W20907  36.899  43.289   4.768
48483W        W20908  35.402  39.519  14.944
48484W        W20909  15.191  32.529  13.004
48485W        W20910  13.257  35.596  13.840
48486W        W20911  15.143  14.828  13.828
48487W        W20912   7.223   0.293  14.775
48488W        W20913   3.797  11.189   1.764
48489W        W20914  43.950  11.725  12.484
48490W        W20915  28.946  34.039  12.495
48491W        W20916   5.318  31.461  11.376
48492W        W20917  37.380  26.562  13.307
48493W        W20918  33.454  40.053   2.892
48494W        W20919  13.754  13.301   2.260
48495W        W20920  14.712   1.825   0.448
48496W        W20921  32.923  27.060  10.607
48497W        W20922  23.547  10.721  14.821
48498W        W20923   2.438  36.856  13.828
48499W        W20924  23.136  27.482  14.917
48500W        W20925   0.452  11.195  13.819
48501W        W20926  37.554   2.414   1.405
48502W        W20927  30.637  42.330  12.558
48503W        W20928   8.764  35.597  10.970
48504W        W20929  39.867   8.803   1.763
48505W        W20930  41.003  28.948   1.348
48506W        W20931  23.604   7.226   0.819
48507W        W20932  10.825  18.676   3.154
48508W        W20933  20.563   2.781  13.419
48509W        W20934   7.883   2.270   4.246
48510W        W20935  23.540  31.500   5.786
48511W        W20936  19.553   4.446   1.727
48512W        W20937  33.918  11.766  14.813
48513W        W20938  35.962  33.876   3.229
48514W        W20939  24.117  41.361  11.597
48515W        W20940  25.067  34.532   4.262
48516W        W20941   3.340  40.836  10.980
48517W        W20942  28.002  39.510   5.726
48518W        W20943   1.446   2.250   0.306
48519W        W20944  10.799  44.313  12.576
48520W        W20945  33.875   5.924   1.337
48521W        W20946  29.006  17.645   3.772
48522W        W20947  34.536  23.648  13.060
48523W        W20948   7.773  38.873  12.014
48524W        W20949  41.396  22.108   5.291
48525W        W20950  19.217  35.065   3.733
48526W        W20951   0.941  35.022  10.113
48527W        W20952  10.778  38.535  13.344
48528W        W20953  20.669  32.987  14.433
48529W        W20954   8.755  16.220   4.600
48530W        W20955  17.294   7.813  13.919
48531W        W20956  31.639   6.747  14.870
48532W        W20957  28.072  32.513   2.696
48533W        W20958  40.479  13.240  14.932
48534W        W20959  39.442  21.246  12.914
48535W        W20960  41.412   6.768  14.498
48536W        W20961  14.753  37.934  12.837
48537W        W20962  40.332  28.028  12.535
48538W        W20963  22.072  29.046  11.104
48539W        W20964   8.863  41.983   5.236
48540W        W20965  35.066  13.662   4.675
48541W        W20966  14.797  17.181  10.608
48542W        W20967  25.183  15.734  12.906
48543W        W20968  21.742   4.852  11.885
48544W        W20969   1.897  29.634   1.736
48545W        W20970   0.421  41.820  14.292
48546W        W20971  24.975  24.613  13.987
48547W        W20972  31.542   5.370  12.464
48548W        W20973   4.733  23.724  11.950
48549W        W20974  44.468  31.636  14.941
48550W        W20975  35.589  29.075  10.893
48551W        W20976  16.681  40.994   2.728
48552W        W20977  27.195   8.867  13.822
48553W        W20978  35.444   0.833   4.211
48554W        W20979  16.278  23.006   1.827
48555W        W20980   6.317   7.780  12.841
48556W        W20981  13.200  44.415   4.731
48557W        W20982   6.241  20.763   1.806
48558W        W20983  14.816  10.764  10.556
48559W        W20984  34.424  43.805   3.786
48560W        W20985  34.921  35.448  14.356
48561W        W20986  29.996  12.345   0.883
48562W        W20987   0.261  28.628  12.974
48563W        W20988  27.674  34.046  13.507
48564W        W20989  35.900  21.032  11.452
48565W        W20990   3.365  44.759   0.410
48566W        W20991  24.605  25.677   4.279
48567W        W20992  30.022  39.835   3.651
48568W        W20993  15.617  20.683   2.741
48569W        W20994  29.116   1.248  13.353
48570W        W20995   3.313   2.227  14.859
48571W        W20996  23.042  12.362   0.394
48572W        W20997  13.248  43.404  14.927
48573W        W20998  20.201  15.679   0.793
48574W        W20999  28.676   9.807   3.705
48575W        W21000  26.092  24.047   3.757
48576W        W21001  30.637  39.448   2.704
48577W        W21002  36.871  32.530   1.769
48578W        W21003  41.462  20.249  11.964
48579W        W21004   5.825  35.536  14.439
48580W        W21005  31.130  39.874   9.583
48581W        W21006  32.076   8.894   2.741
48582W        W21007  24.118  24.539  13.974
48583W        W21008  39.958   3.808  10.985
48584W        W21009  21.692   8.669   5.272
48585W        W21010  26.584  31.528  14.999
48586W        W21011  22.701   9.204   5.692
48587W        W21012  33.122   6.686  14.446
48588W        W21013   7.840  14.630   1.736
48589W        W21014  19.149  18.270  11.024
48590W        W21015  10.633  17.704  10.633
48591W        W21016  26.199  21.515   1.419
48592W        W21017   1.966  30.440  14.836
48593W        W21018  30.932  26.681   9.924
48594W        W21019   4.384   3.364  14.969
48595W        W21020  12.212  13.739  11.985
48596W        W21021  25.105  35.939  13.023
48597W        W21022   0.306  34.884   5.085
48598W        W21023   3.906  40.459   4.201
48599W        W21024  25.106  10.788  11.913
48600W        W21025  19.187  33.923   3.858
48601W        W21026  14.831  34.492   9.597
48602W        W21027  29.535  36.361   4.308
48603W        W21028  27.638  40.011   5.629
48604W        W21029  11.172  13.789   1.704
48605W        W21030  14.205  35.506   0.754
48606W        W21031  44.451  44.818   0.472
48607W        W21032   6.691   2.781   1.444
48608W        W21033  26.111  43.779   4.268
48609W        W21034  26.568  16.247  14.814
48610W        W21035  18.644  38.010   1.348
48611W        W21036  14.238  34.926   0.341
48612W        W21037   0.460  25.014  11.128
48613W        W21038   7.731  17.685  12.450
48614W        W21039  28.139  12.841  10.623
48615W        W21040  21.125  35.556  11.119
48616W        W21041  25.615   9.821  12.972
48617W        W21042   7.212  32.580  13.942
48618W        W21043   7.785  42.984   4.647
48619W        W21044   9.733  13.647   4.144
48620W        W21045  33.031  43.003   5.237
48621W        W21046  33.488  14.776  13.436
48622W        W21047  12.621   0.905   0.919
48623W        W21048  17.121  31.584   1.448
48624W        W21049  14.765  22.046  10.482
48625W        W21050  25.521  41.371   3.206
48626W        W21051  38.901  18.283   1.760
48627W        W21052   8.734  22.722  10.604
48628W        W21053  20.256  13.780   3.699
48629W        W21054   7.399  14.806   3.223
48630W        W21055  33.593  37.550   4.159
48631W        W21056  13.715  21.017   0.788
48632W        W21057  34.420  35.541   3.331
48633W        W21058  26.104  44.983  10.598
48634W        W21059   4.259   7.853   2.847
48635W        W21060  44.297  28.585   1.924
48636W        W21061  43.419  33.518  11.608
48637W        W21062  13.224  19.216   3.333
48638W        W21063   1.964  29.127  12.526
48639W        W21064  11.767  16.667   4.226
48640W        W21065   1.323  35.422   0.248
48641W        W21066  13.823   4.422   0.851
48642W        W21067  23.539  34.113   3.293
48643W        W21068  35.901  16.733   3.816
48644W        W21069  28.619  25.118  12.052
48645W        W21070   8.766  33.919  12.368
48646W        W21071  33.077  24.699  14.967
48647W        W21072   2.829   9.309   0.340
48648W        W21073  14.733  44.455   0.457
48649W        W21074  40.890  32.919  10.427
48650W        W21075  17.632  25.189  14.448
48651W        W21076  21.525  25.982  14.327
48652W        W21077  44.772  35.884  14.281
48653W        W21078  32.426  15.127  12.433
48654W        W21079  36.077  15.193   4.158
48655W        W21080  40.918  36.068  10.593
48656W        W21081   6.834   5.843   1.809
48657W        W21082   0.269  32.446  12.502
48658W        W21083  31.968  15.590   0.916
48659W        W21084  16.800  30.999  12.009
48660W        W21085   5.690  32.072  12.065
48661W        W21086  29.017   4.351   0.880
48662W        W21087  29.165  44.473  10.997
48663W        W21088  24.062  17.084  10.977
48664W        W21089   7.821  11.711  12.542
48665W        W21090   5.812  13.327   0.884
48666W        W21091  20.661   0.349  10.404
48667W        W21092  12.345  33.048  11.001
48668W        W21093  39.499  35.404  10.953
48669W        W21094  11.702  31.543   0.847
48670W        W21095  43.987  44.781   0.772
48671W        W21096  39.317  10.267   1.293
48672W        W21097  20.702  14.603  13.964
48673W        W21098   5.209  13.159   2.210
48674W        W21099   1.330  10.198   1.915
48675W        W21100   3.926   9.320   2.894
48676W        W21101  12.282  12.728   2.316
48677W        W21102  31.485   2.454   3.688
48678W        W21103   9.307  30.968  12.023
48679W        W21104  37.342  26.168  13.489
48680W        W21105  39.318  23.032  10.425
48681W        W21106   6.799  42.318  10.917
48682W        W21107   4.911  40.361   3.377
48683W        W21108  13.259  36.416   1.839
48684W        W21109  20.221  26.461  11.017
48685W        W21110  42.880  24.076  13.395
48686W        W21111  31.912  18.681  12.904
48687W        W21112  43.474   6.715   1.887
48688W        W21113  23.560  22.720  10.427
48689W        W21114  38.352  17.147  11.409
48690W        W21115  37.902  23.634   0.329
48691W        W21116  20.664   9.267  12.856
48692W        W21117   8.290  29.127   4.738
48693W        W21118  22.009  14.817  12.911
48694W        W21119  18.113  35.479  11.454
48695W        W21120  37.942  27.457   2.740
48696W        W21121  40.374  33.918   1.784
48697W        W21122   4.734  38.825   2.807
48698W        W21123  32.504  19.683  14.402
48699W        W21124   1.941   4.395   2.837
48700W        W21125  22.541  40.469   3.360
48701W        W21126  39.981  38.384   1.367
48702W        W21127  21.721  41.486   5.114
48703W        W21128  37.362  20.221  11.863
48704W        W21129  10.832  32.575   4.639
48705W        W21130  25.044  41.991   0.921
48706W        W21131  26.643  34.068  11.524
48707W        W21132  24.609   6.204   2.841
48708W        W21133  32.001   2.736   3.726
48709W        W21134  40.453   8.787   3.230
48710W        W21135   7.858  42.811   3.727
48711W        W21136  19.167  14.725   2.887
48712W        W21137  18.289  19.118   1.880
48713W        W21138   1.928  25.571  14.945
48714W        W21139  40.457  27.474  11.050
48715W        W21140   2.834   3.366  12.459
48716W        W21141  39.038  25.087   2.818
48717W        W21142   4.408  44.929   3.308
48718W        W21143  40.902  13.265  13.354
48719W        W21144  16.642  30.506   0.265
48720W        W21145   5.250  24.548  10.931
48721W        W21146  31.612  28.961  14.363
48722W        W21147  29.083  17.764  13.820
48723W        W21148   2.777   5.212  11.445
48724W        W21149  36.049   3.941   4.682
48725W        W21150   6.923  36.495   1.881
48726W        W21151  31.953   0.937   0.863
48727W        W21152  15.655   1.962   3.180
48728W        W21153  32.886   4.421   3.226
48729W        W21154  44.349  38.970   2.213
48730W        W21155  31.069  14.834  13.510
48731W        W21156   8.799  40.006   3.792
48732W        W21157  18.593  36.954   0.737
48733W        W21158   6.238   6.211  10.045
48734W        W21159  42.907  21.090   1.896
48735W        W21160  22.996  43.329  10.639
48736W        W21161  10.712   2.399   3.656
48737W        W21162  38.354  26.196  12.513
48738W        W21163   5.328  18.642  11.996
48739W        W21164  44.293   5.870   2.897
48740W        W21165  39.424  32.894   1.747
48741W        W21166  29.061  40.878   5.577
48742W        W21167   7.832   6.683  13.511
48743W        W21168   0.277   0.307  14.433
48744W        W21169  15.307  20.088   2.413
48745W        W21170  25.645  23.590   5.276
48746W        W21171   6.816  15.156  13.469
48747W        W21172  18.675  18.625   1.302
48748W        W21173   0.290  38.978  11.935
48749W        W21174  36.094  34.082   0.823
48750W        W21175  26.480  27.673   3.782
48751W        W21176  38.074  40.443   2.861
48752W        W21177  36.444  36.062  12.028
48753W        W21178  34.036  31.109   1.717
48754W        W21179  36.029  17.202   2.257
48755W        W21180  27.676  36.004  14.333
48756W        W21181   6.353  29.111   1.842
48757W        W21182  22.668  43.362  11.024
48758W        W21183  13.174  31.083   4.630
48759W        W21184  12.630  16.771   0.282
48760W        W21185   1.850   3.808   2.737
48761W        W21186  36.466  10.312   5.140
48762W        W21187  32.513  28.674   1.701
48763W        W21188  25.053  15.274   1.892
48764W        W21189  11.179   4.935   3.346
48765W        W21190  20.046  29.485  13.944
48766W        W21191  32.566  16.152  13.976
48767W        W21192  11.743  44.758   3.756
48768W        W21193  16.153  26.477   4.757
48769W        W21194  21.176   8.250   4.135
48770W        W21195  31.905  32.005  12.433
48771W        W21196  17.073  26.629   5.171
48772W        W21197  16.275  26.160  11.927
48773W        W21198  22.062   8.728  13.534
48774W        W21199  22.501   8.298  11.001
48775W        W21200  12.786  31.600   2.825
48776W        W21201  15.265  29.087  11.013
48777W        W21202  10.224   4.774   1.905
48778W        W21203  26.155  30.051   3.636
48779W        W21204   1.822  24.564   2.756
48780W        W21205  13.644  36.074  13.501
48781W        W21206  12.295  38.394   2.289
48782W        W21207  20.623  22.197  14.473
48783W        W21208  18.632  28.952  14.413
48784W        W21209   6.306  42.994  10.531
48785W        W21210  24.482  29.581  10.616
48786W        W21211  13.251   5.397   1.833
48787W        W21212  23.644  19.620  11.030
48788W        W21213   1.782   4.711  11.443
48789W        W21214   9.384  32.941   3.786
48790W        W21215  30.447   7.215  12.353
48791W        W21216  19.276  15.803  14.486
48792W        W21217  17.753  36.555   0.351
48793W        W21218  38.023  15.759  14.451
48794W        W21219   7.744   0.873  14.467
48795W        W21220  14.760   4.425   3.311
48796W        W21221  42.282   9.656   2.730
48797W        W21222   1.377   6.780   2.347
48798W        W21223  39.496  18.127  10.595
48799W        W21224  26.027  35.871  12.943
48800W        W21225  12.749   2.744  14.283
48801W        W21226   2.789  10.668   0.948
48802W        W21227   8.842  13.686   2.773
48803W        W21228   6.271  39.462  13.406
48804W        W21229  39.446   7.819   2.765
48805W        W21230   4.701  24.011   4.716
48806W        W21231  29.030  24.540  10.975
48807W        W21232   9.644  35.003  12.422
48808W        W21233  20.140  36.093   0.914
48809W        W21234  41.831   0.774   0.346
48810W        W21235   3.286  34.429   3.161
48811W        W21236  40.891  36.424   4.228
48812W        W21237  15.801   8.894   0.483
48813W        W21238   2.257  35.089   1.761
48814W        W21239  36.098   9.215  12.869
48815W        W21240  41.319  41.878   4.756
48816W        W21241   0.415  35.043  11.470
48817W        W21242  40.354  15.280   1.928
48818W        W21243  16.096  19.681   0.356
48819W        W21244  36.364  13.817  12.080
48820W        W21245   7.298  11.153  12.925
48821W        W21246  22.610  20.168   1.304
48822W        W21247  21.110  43.321   4.324
48823W        W21248  26.951  44.375  10.056
48824W        W21249  23.150  14.191  14.320
48825W        W21250  43.996   9.779   2.723
48826W        W21251  34.016  29.533   2.692
48827W        W21252  15.126  43.990   3.850
48828W        W21253  26.955   1.905  12.914
48829W        W21254  25.481  26.526   4.732
48830W        W21255  22.247  34.459   3.243
48831W        W21256  20.166  12.856  10.025
48832W        W21257  44.817  41.423  12.492
48833W        W21258  31.501  18.752  12.511
48834W        W21259   2.441  30.015  10.935
48835W        W21260  29.164  40.350   2.267
48836W        W21261   0.885   9.308   1.400
48837W        W21262  44.433  37.367   3.233
48838W        W21263  29.052  12.686   4.717
48839W        W21264   6.808  11.186  11.086
48840W        W21265  18.596  27.686  14.774
48841W        W21266  34.423  38.330  13.460
48842W        W21267   8.822   1.937  14.001
48843W        W21268   5.193  36.382  10.420
48844W        W21269  36.863  11.843  12.849
48845W        W21270  34.567  37.514  12.344
48846W        W21271  22.526  26.203   4.230
48847W        W21272  32.585  41.004   2.705
48848W        W21273  22.510  40.024   0.938
48849W        W21274  43.499   3.339  13.888
48850W        W21275  23.690   1.395   2.672
48851W        W21276   4.699  31.051  11.588
48852W        W21277  16.310  32.070  14.424
48853W        W21278  17.264  43.343   1.261
48854W        W21279  15.097   2.308   2.341
48855W        W21280  29.047  17.776   1.821
48856W        W21281   4.928  10.844  10.607
48857W        W21282   4.241  37.481   2.683
48858W        W21283  44.840  30.922   4.620
48859W        W21284  41.518  36.971   1.212
48860W        W21285  36.030  23.092   0.257
48861W        W21286  24.091   8.832   1.920
48862W        W21287  41.341  11.239  14.295
48863W        W21288  36.841  31.098  13.443
48864W        W21289  21.597  15.636  10.596
48865W        W21290  26.676  31.984   3.828
48866W        W21291   7.303  31.609  13.515
48867W        W21292  31.002  16.289   4.298
48868W        W21293  44.004  35.532  13.417
48869W        W21294  26.542  40.848   4.351
48870W        W21295  40.979  16.147   1.807
48871W        W21296  28.656  35.008   3.299
48872W        W21297  38.527   7.893  12.072
48873W        W21298   0.257  37.995  12.497
48874W        W21299  28.490  26.990   1.810
48875W        W21300   4.896  35.477   0.820
48876W        W21301  24.133  35.956   2.224
48877W        W21302  12.706  43.999  11.870
48878W        W21303   6.681   7.803  14.887
48879W        W21304  24.516  20.722   3.723
48880W        W21305  20.053  36.551  11.125
48881W        W21306   5.708  17.279  14.922
48882W        W21307  11.807  15.796   3.788
48883W        W21308  41.820  36.963  12.968
48884W        W21309   0.751  17.065  14.822
48885W        W21310  43.789  32.131  13.510
48886W        W21311  17.225  25.133   0.320
48887W        W21312  31.930  22.187   0.312
48888W        W21313  19.777  38.872   1.770
48889W        W21314  39.886  21.733  12.828
48890W        W21315  37.843  22.032   0.451
48891W        W21316  40.808  37.034   4.119
48892W        W21317  34.946  44.960  11.574
48893W        W21318  43.789  38.857   2.681
48894W        W21319  22.205  12.776   3.237
48895W        W21320  28.648  17.284   4.331
48896W        W21321   5.911  39.017  10.492
48897W        W21322  40.498  30.988  12.484
48898W        W21323   1.263   6.908   4.338
48899W        W21324  35.053  17.601   2.265
48900W        W21325  30.491  27.585  14.798
48901W        W21326   0.930  42.294  13.322
48902W        W21327  34.613  26.593   1.892
48903W        W21328  42.904  38.074   3.741
48904W        W21329  28.057  41.026  11.537
48905W        W21330  17.606  38.975  11.000
48906W        W21331  44.303  31.438  12.553
48907W        W21332  11.805   5.337  12.490
48908W        W21333  13.307  31.967  12.522
48909W        W21334  22.567  38.833   1.311
48910W        W21335  38.362  29.057  14.989
48911W        W21336  22.196   6.354  11.098
48912W        W21337   7.174  24.143   4.122
48913W        W21338  36.053  19.737  11.856
48914W        W21339  25.128  35.565   1.776
48915W        W21340  27.577  25.538  12.019
48916W        W21341   9.369   3.350   4.263
48917W        W21342  11.847  18.247  14.507
48918W        W21343  10.149   7.818   3.339
48919W        W21344  15.747  40.548  11.043
48920W        W21345  36.059  39.526  14.495
48921W        W21346  20.594  26.576   2.823
48922W        W21347  27.568  43.978  11.020
48923W        W21348  19.220   2.426   0.874
48924W        W21349  23.104  33.000  10.923
48925W        W21350  13.108   9.859   4.314
48926W        W21351  24.531  41.526   4.815
48927W        W21352  29.609  10.147   2.688
48928W        W21353  21.026  28.585   0.404
48929W        W21354  21.169  31.466   0.327
48930W        W21355  16.178   2.430  11.076
48931W        W21356  23.592  34.976  14.441
48932W        W21357  19.568   3.927  12.906
48933W        W21358   7.837  26.047  13.317
48934W        W21359  18.149  15.100  11.584
48935W        W21360  22.706   4.356  14.298
48936W        W21361  10.359  16.697  13.959
48937W        W21362   6.857  38.978   4.807
48938W        W21363  16.636  31.039  13.397
48939W        W21364  21.243  34.572  10.526
48940W        W21365  33.518   7.385   4.292
48941W        W21366   7.341  33.411  12.860
48942W        W21367  21.204  30.007  13.456
48943W        W21368   8.337  42.980   3.740
48944W        W21369  40.922  26.654   0.303
48945W        W21370  20.106  28.534   4.678
48946W        W21371  25.532  29.083   1.840
48947W        W21372   7.740  30.911  13.805
48948W        W21373  40.813  43.764  14.450
48949W        W21374  42.432  31.053  10.505
48950W        W21375  17.580  40.898  13.319
48951W        W21376  19.653  27.653   1.845
48952W        W21377  18.791   0.860  14.336
48953W        W21378   4.392  25.067   0.368
48954W        W21379  42.795  14.164   0.751
48955W        W21380   6.241  13.695   1.280
48956W        W21381  42.433  19.134  10.427
48957W        W21382  26.046   5.759  14.875
48958W        W21383  43.408   3.308   0.259
48959W        W21384   8.794  19.680  12.919
48960W        W21385  34.442  11.355   0.869
48961W        W21386   8.732  13.233   0.837
48962W        W21387  23.112  41.966  13.862
48963W        W21388  15.714   5.827   4.321
48964W        W21389  41.940  23.148   9.676
48965W        W21390  26.054  25.693  11.129
48966W        W21391  31.532  13.263  12.037
48967W        W21392  12.693   6.351   1.736
48968W        W21393  15.582  34.569   2.301
48969W        W21394  42.869   4.767   2.731
48970W        W21395  29.057  34.412   2.751
48971W        W21396   4.336  39.024   1.302
48972W        W21397  28.538  37.901  10.946
48973W        W21398  24.100   2.406   2.396
48974W        W21399  41.986  12.235   2.348
48975W        W21400   7.769  36.559   4.749
48976W        W21401  27.609  22.048   9.611
48977W        W21402  44.837  31.436   5.295
48978W        W21403  38.022   0.750   2.684
48979W        W21404  33.924  27.081  11.963
48980W        W21405  43.855   2.279  13.365
48981W        W21406  23.232  17.134   3.711
48982W        W21407  35.069  24.229   2.702
48983W        W21408  13.129  15.772  14.303
48984W        W21409   8.370  34.904   3.771
48985W        W21410  41.475  22.526  10.914
48986W        W21411  18.236  15.744   4.718
48987W        W21412  25.641  18.693   0.905
48988W        W21413  11.628   6.288  12.040
48989W        W21414   6.375  20.053  10.960
48990W        W21415   3.750   6.816  13.420
48991W        W21416  11.806  22.081   2.332
48992W        W21417  39.970  38.918  14.814
48993W        W21418  15.732  37.909   5.135
48994W        W21419  44.446  15.730   2.692
48995W        W21420  17.662  16.269   4.184
48996W        W21421  34.438  16.639  10.482
48997W        W21422  23.051  42.830   3.230
48998W        W21423  29.157  33.591  11.887
48999W        W21424  19.644  14.606  12.893
49000W        W21425   1.264  20.208   3.200
49001W        W21426   9.350  10.270  12.846
49002W        W21427   6.819  39.526   3.740
49003W        W21428  42.369  14.827   2.778
49004W        W21429  11.862  16.087   2.339
49005W        W21430  15.186  17.080  10.921
49006W        W21431  16.243  24.006   0.745
49007W        W21432  43.951  29.056  11.589
49008W        W21433  19.599  43.799   2.728
49009W        W21434  28.463  43.270   0.877
49010W        W21435   0.387  20.692   1.420
49011W        W21436  29.984  35.369   2.879
49012W        W21437  28.004   2.747  14.445
49013W        W21438  22.567  26.579  14.287
49014W        W21439  28.020  25.655  13.360
49015W        W21440  33.381  42.813  14.478
49016W        W21441  35.485   8.349   5.246
49017W        W21442  23.674  44.494   3.829
49018W        W21443  19.091  35.920  10.889
49019W        W21444  41.373  16.668  14.394
49020W        W21445  22.514   9.841   2.820
49021W        W21446  31.044  19.106   4.837
49022W        W21447   6.192  10.384  11.087
49023W        W21448  44.807  22.008  14.455
49024W        W21449  42.810  40.467   2.254
49025W        W21450  25.037  33.088  14.930
49026W        W21451  44.812  10.349   1.707
49027W        W21452  20.143  22.521   4.775
49028W        W21453  19.540  15.276   1.234
49029W        W21454  15.744  23.035   2.837
49030W        W21455  24.548  21.146  12.843
49031W        W21456  30.502  11.640  12.846
49032W        W21457  24.996  27.023   1.420
49033W        W21458   4.773   5.354  12.852
49034W        W21459  37.580  15.737  11.869
49035W        W21460  32.008  24.198   5.132
49036W        W21461   4.285  26.693   2.668
49037W        W21462  15.181  26.508  14.296
49038W        W21463  40.046  21.136  11.969
49039W        W21464  36.992   0.943   1.412
49040W        W21465  43.391  13.155  14.779
49041W        W21466   7.838  23.654   2.824
49042W        W21467  23.724   7.864  11.558
49043W        W21468   8.740  33.060  14.765
49044W        W21469  40.939  20.104   2.315
49045W        W21470  22.043  26.498   3.857
49046W        W21471   9.272  41.316   2.841
49047W        W21472  39.886   4.393  11.066
49048W        W21473  38.483  41.357  10.504
49049W        W21474  36.092  26.101   2.662
49050W        W21475  11.684  20.537   0.797
49051W        W21476  37.581  38.492  11.383
49052W        W21477  38.055  42.969  14.945
49053W        W21478  44.395  19.075   4.823
49054W        W21479   1.260  16.098   0.799
49055W        W21480  34.458   0.774   0.756
49056W        W21481  38.408  30.932   4.699
49057W        W21482  20.144  12.798   1.272
49058W        W21483  35.481  13.181   0.379
49059W        W21484  13.137  22.637   5.185
49060W        W21485  42.325  11.657  12.082
49061W        W21486  30.155   2.386  13.478
49062W        W21487  11.643  14.638  13.962
49063W        W21488  10.748  21.036  13.943
49064W        W21489  25.510  38.915  10.489
49065W        W21490  24.043   2.774  12.515
49066W        W21491  34.495  39.050   3.781
49067W        W21492  24.664  14.169  11.445
49068W        W21493  34.925   8.861   0.886
49069W        W21494  37.337  14.720  10.424
49070W        W21495   8.691   6.200  10.572
49071W        W21496  23.163  13.177   0.949
49072W        W21497  22.039  24.500  14.801
49073W        W21498   4.849  41.928  14.494
49074W        W21499   9.889  11.818  12.422
49075W        W21500  10.294  26.037   0.865
49076W        W21501  40.441  16.256  13.004
49077W        W21502  28.590  16.740   4.712
49078W        W21503  21.721   0.780   2.801
49079W        W21504   5.891  25.081   1.217
49080W        W21505   6.287   4.869  12.957
49081W        W21506   6.224  44.814   4.804
49082W        W21507  22.071  26.505   5.145
49083W        W21508   9.232  19.578   1.800
49084W        W21509  38.382   2.897  11.587
49085W        W21510   1.748  14.098  12.033
49086W        W21511  30.976  12.795   1.872
49087W        W21512  16.111  23.203  14.897
49088W        W21513   0.928  40.519   4.236
49089W        W21514  35.930  24.152   0.341
49090W        W21515  40.326  19.589  12.469
49091W        W21516  12.808  18.638  12.017
49092W        W21517  28.132  30.084  13.955
49093W        W21518  37.454  11.367  14.332
49094W        W21519  26.628  37.506   2.388
49095W        W21520  22.206  23.097  13.530
49096W        W21521  19.544  34.097  11.507
49097W        W21522  41.506  31.912  10.100
49098W        W21523  13.165  26.963  14.818
49099W        W21524   1.751  18.137  10.570
49100W        W21525  10.373  16.315   2.782
49101W        W21526  27.660  27.960  14.024
49102W        W21527  19.615  22.107  11.908
49103W        W21528  24.999  43.431   2.751
49104W        W21529  14.688  20.551  10.489
49105W        W21530  13.175  26.681   0.964
49106W        W21531  41.404  24.700  13.429
49107W        W21532  42.391  26.599  14.428
49108W        W21533   9.312  23.523   2.414
49109W        W21534  26.566  18.131   1.923
49110W        W21535   6.356   7.404   0.894
49111W        W21536  32.901  23.216   1.312
49112W        W21537  33.934  22.061  14.389
49113W        W21538  23.115  16.261  12.375
49114W        W21539   3.377   9.268  12.504
49115W        W21540  11.721  44.400  13.325
49116W        W21541   1.458  21.673  13.899
49117W        W21542   9.703  15.701  14.904
49118W        W21543  16.572  39.001  11.476
49119W        W21544  37.059  27.494  10.967
49120W        W21545  30.459  38.860   1.327
49121W        W21546  30.528  31.590   4.119
49122W        W21547   7.806  27.612  14.951
49123W        W21548  30.627  26.121  13.352
49124W        W21549  44.892   0.856   4.192
49125W        W21550   9.724  15.145   4.202
49126W        W21551  39.518  21.052   2.664
49127W        W21552  23.142  11.300   4.635
49128W        W21553  30.579  24.001   2.237
49129W        W21554  38.510  31.411  13.923
49130W        W21555  36.994  40.947   2.193
49131W        W21556   8.788  26.531  10.423
49132W        W21557  40.451   6.202   1.855
49133W        W21558  33.059   6.321  13.983
49134W        W21559  31.646  21.697   3.264
49135W        W21560  19.096  40.342   4.146
49136W        W21561   9.856  20.200   1.931
49137W        W21562  23.520  18.100   2.840
49138W        W21563   0.449  39.973   3.844
49139W        W21564  33.625  16.202   1.326
49140W        W21565   1.400  44.959  12.051
49141W        W21566  26.012  42.364  10.522
49142W        W21567  40.001  11.633   0.891
49143W        W21568  18.603  37.364   9.960
49144W        W21569   9.277  11.193  14.969
49145W        W21570  20.049  21.189   0.329
49146W        W21571  11.814  27.488  14.421
49147W        W21572  34.576  31.486  13.988
49148W        W21573  30.459  40.964  13.948
49149W        W21574  23.058  29.044   4.311
49150W        W21575  44.880  32.037   0.862
49151W        W21576  42.433  42.017  12.900
49152W        W21577   2.926   8.347  14.780
49153W        W21578  41.879  40.381  11.064
49154W        W21579   5.354  36.910  12.493
49155W        W21580  26.502   3.399  14.000
49156W        W21581  12.758  37.053   4.612
49157W        W21582  44.496   2.948   4.310
49158W        W21583   6.320  16.696  10.615
49159W        W21584   3.262  15.625   2.894
49160W        W21585  20.613  15.764  14.461
49161W        W21586   8.230  12.769   3.262
49162W        W21587  35.906  35.368  10.607
49163W        W21588  30.503   9.207   2.685
49164W        W21589  40.900  34.893  12.386
49165W        W21590   8.752   2.953   3.719
49166W        W21591  39.402  17.082   2.837
49167W        W21592   6.869  30.914  13.532
49168W        W21593  20.585  10.640   9.492
49169W        W21594  35.015  19.574  11.510
49170W        W21595   5.318  23.157   3.336
49171W        W21596  22.684  34.033   3.848
49172W        W21597  41.397   9.236  10.620
49173W        W21598  38.931  15.602   2.278
49174W        W21599  42.348   2.426  14.981
49175W        W21600  22.998   6.342  11.505
49176W        W21601   1.928  11.296   1.365
49177W        W21602  22.599   2.766   0.753
49178W        W21603   5.880  16.183  14.421
49179W        W21604   8.256  15.114   1.723
49180W        W21605   7.765  17.691  14.303
49181W        W21606  12.788   4.917  12.449
49182W        W21607  16.298  21.085   1.919
49183W        W21608  37.846  34.561   2.792
49184W        W21609  19.549  13.738  11.439
49185W        W21610  37.484  34.423   2.208
49186W        W21611  35.074  25.628   4.647
49187W        W21612  44.829   0.856   1.272
49188W        W21613  28.178  15.086  14.443
49189W        W21614  39.395   8.288  10.499
49190W        W21615  22.206  11.205   1.850
49191W        W21616   7.778  22.247  13.342
49192W        W21617  16.140   9.706  13.052
49193W        W21618   3.893  24.186  11.018
49194W        W21619   4.699  44.370   3.219
49195W        W21620  33.611   7.310   2.736
49196W        W21621  44.448  44.005  12.448
49197W        W21622  42.026  12.745  14.484
49198W        W21623  34.021  33.973  12.865
49199W        W21624  13.778  39.002  13.062
49200W        W21625  32.005  18.728   1.335
49201W        W21626  23.239   1.451   0.932
49202W        W21627  40.476  36.897  14.958
49203W        W21628  27.943  11.254   0.838
49204W        W21629  37.418   3.723  13.045
49205W        W21630  19.751  28.579  14.459
49206W        W21631  27.163   7.779  11.029
49207W        W21632  20.062  11.170   2.683
49208W        W21633   5.893  19.604  12.029
49209W        W21634  18.294  38.948   0.470
49210W        W21635  43.373  30.548  12.988
49211W        W21636  10.636  20.611  10.928
49212W        W21637  28.184   3.938   2.249
49213W        W21638  26.532   7.699   1.382
49214W        W21639  44.989  25.074   0.953
49215W        W21640  41.001   7.377  10.537
49216W        W21641  39.387  14.815   4.726
49217W        W21642   2.279   5.887   3.684
49218W        W21643  37.913   5.356   1.419
49219W        W21644  27.161  27.657  13.816
49220W        W21645  34.480  36.980   2.372
49221W        W21646  41.010  43.310   1.734
49222W        W21647  33.957  25.083  11.552
49223W        W21648   6.254  16.239   0.331
49224W        W21649  28.543  33.566   2.259
49225W        W21650  41.412  22.555   5.610
49226W        W21651  32.013  43.461  13.900
49227W        W21652  18.059  16.178  11.458
49228W        W21653  34.440  21.669  11.063
49229W        W21654  34.081  27.113   1.916
49230W        W21655  43.435   6.887   0.876
49231W        W21656  23.061   5.705  13.446
49232W        W21657  15.150  19.760  12.541
49233W        W21658  16.153  11.168  12.858
49234W        W21659  12.156  26.983   3.864
49235W        W21660  38.489  38.542  11.468
49236W        W21661   6.771  37.067   1.341
49237W        W21662  24.128  15.113  13.325
49238W        W21663  18.258   4.914   2.357
49239W        W21664   8.379  25.516   3.240
49240W        W21665  37.500   2.958  14.374
49241W        W21666  36.902  44.970  11.050
49242W        W21667  35.966  33.097  11.050
49243W        W21668  22.601  43.455   0.847
49244W        W21669  26.571   9.159  11.948
49245W        W21670  33.567  20.052   3.640
49246W        W21671  10.856  20.060  10.546
49247W        W21672  11.720  40.956  10.900
49248W        W21673  15.273  12.836   4.301
49249W        W21674  18.124  39.395  11.483
49250W        W21675  40.831  26.529   2.829
49251W        W21676  35.579  24.527  12.044
49252W        W21677  41.798  21.548  10.461
49253W        W21678  34.986  15.134  14.507
49254W        W21679  29.592  16.084   0.880
49255W        W21680  34.931  39.463  12.932
49256W        W21681   2.781   4.878   3.273
49257W        W21682   8.735   1.274   3.322
49258W        W21683  25.575  38.436  13.513
49259W        W21684  14.792  13.831   1.250
49260W        W21685  30.594  13.285   0.455
49261W        W21686   3.435   9.690  12.863
49262W        W21687  14.656  41.952  14.371
49263W        W21688  17.732  31.593   2.344
49264W        W21689   4.938  15.149   2.774
49265W        W21690  12.619  25.971   0.840
49266W        W21691  13.743   5.817   4.229
49267W        W21692  10.830   4.899   4.131
49268W        W21693  29.034  33.562  14.855
49269W        W21694  44.341  20.105  10.449
49270W        W21695  24.601  36.491   0.476
49271W        W21696  31.009  42.986   5.294
49272W        W21697  13.119  13.186   4.149
49273W        W21698  13.718  28.488  13.861
49274W        W21699   7.220  11.680  12.982
49275W        W21700  44.356  39.961   3.649
49276W        W21701  24.016  33.485   0.423
49277W        W21702  21.559  32.469   2.201
49278W        W21703  19.640  19.645   0.859
49279W        W21704  39.981  43.394  14.314
49280W        W21705  42.827  37.952  11.882
49281W        W21706  11.772   7.372   0.291
49282W        W21707  25.573  21.642   2.410
49283W        W21708   9.699  34.406   4.796
49284W        W21709  39.882  14.258   0.281
49285W        W21710  27.960   0.986   5.158
49286W        W21711  42.950  37.468  13.997
49287W        W21712  23.560  13.189  13.828
49288W        W21713  29.570  17.294   4.690
49289W        W21714  15.789  41.911  14.951
49290W        W21715   2.806  36.381  11.874
49291W        W21716  44.840  38.497   4.777
49292W        W21717  20.094  25.107   3.839
49293W        W21718  28.675  21.153  11.512
49294W        W21719  31.996   6.258   3.246
49295W        W21720  10.269  39.840  11.560
49296W        W21721  40.983   3.422   0.301
49297W        W21722   7.338  11.263   3.821
49298W        W21723  44.354   9.664  12.920
49299W        W21724  26.157  31.135  13.414
49300W        W21725  17.638   8.179   4.615
49301W        W21726  17.092  33.088  12.847
49302W        W21727  16.802  43.863  11.373
49303W        W21728  22.176  34.475  14.776
49304W        W21729  13.682  26.586  11.882
49305W        W21730   4.706  12.241  10.531
49306W        W21731  41.030  38.902   1.766
49307W        W21732   3.825  37.971  11.037
49308W        W21733  34.076  25.219  14.977
49309W        W21734  26.026  17.235  13.028
49310W        W21735  34.049  16.139   4.324
49311W        W21736  10.153  28.985   4.162
49312W        W21737  10.148  42.019   3.219
49313W        W21738  41.316   2.306  12.342
49314W        W21739   0.369  21.555   1.307
49315W        W21740  10.153  17.152  14.345
49316W        W21741  19.702  40.492  14.779
49317W        W21742  18.627  28.474  11.006
49318W        W21743  29.063  30.496  10.429
49319W        W21744  37.873   1.964  12.430
49320W        W21745  35.592  27.142   0.323
49321W        W21746  17.201  42.306  12.960
49322W        W21747  31.113  23.660  11.456
49323W        W21748  19.138  37.547   0.738
49324W        W21749  42.456  29.602  14.341
49325W        W21750  19.617  16.663  10.999
49326W        W21751  12.276  33.622  12.352
49327W        W21752  35.020  23.005   1.894
49328W        W21753  38.869   6.801   2.900
49329W        W21754  23.186  40.419  14.512
49330W        W21755  33.442  43.001  10.142
49331W        W21756  39.857  26.062   3.242
49332W        W21757  36.971   1.283   1.447
49333W        W21758   1.906  43.980  13.865
49334W        W21759  40.974   9.269   3.747
49335W        W21760   8.792   7.744  14.505
49336W        W21761  39.848  41.996  14.282
49337W        W21762  20.532  20.135  13.062
49338W        W21763  22.051  23.691   1.855
49339W        W21764  23.732  28.439  11.896
49340W        W21765  25.633  38.468   4.347
49341W        W21766  28.179  36.367   2.865
49342W        W21767  25.058   5.250  12.561
49343W        W21768  16.278  36.958  14.435
49344W        W21769   0.802  17.174  13.394
49345W        W21770  11.795  11.232  13.899
49346W        W21771  33.538  39.395   1.840
49347W        W21772   2.729  41.852  13.835
49348W        W21773   7.257  39.906   2.758
49349W        W21774  10.853  21.523   0.296
49350W        W21775   6.832   3.793  13.325
49351W        W21776  27.019  25.663  11.579
49352W        W21777   3.351  15.289   2.684
49353W        W21778   2.340   1.886   4.735
49354W        W21779  29.617  32.449   2.791
49355W        W21780  39.886  37.967   3.380
49356W        W21781   6.201   9.664   0.482
49357W        W21782  19.742  16.190  10.509
49358W        W21783  34.475  20.205   1.906
49359W        W21784  36.088  27.568  11.533
49360W        W21785  24.700  22.541   4.317
49361W        W21786  30.607  20.072  10.579
49362W        W21787  19.756  19.233  12.482
49363W        W21788  44.302  38.860  13.963
49364W        W21789  28.442  27.604   1.794
49365W        W21790   0.920  34.920   4.700
49366W        W21791  28.178  20.674  12.408
49367W        W21792   2.872  39.459  11.536
49368W        W21793  41.871  13.746   4.719
49369W        W21794  31.150   8.349   3.285
49370W        W21795  34.870  21.080   0.327
49371W        W21796  22.717  27.588   4.638
49372W        W21797  34.995  39.871   1.781
49373W        W21798  18.674  38.820  10.074
49374W        W21799   8.882  20.647   0.955
49375W        W21800   2.816  10.750  10.951
49376W        W21801  20.273  20.084  14.896
49377W        W21802  24.663  26.533  14.883
49378W        W21803   2.872  13.721   4.165
49379W        W21804  24.715  17.133  13.525
49380W        W21805  37.366   8.403  13.002
49381W        W21806  10.681  41.020  14.485
49382W        W21807  39.997   2.446   3.258
49383W        W21808  22.239  32.985   2.759
49384W        W21809   7.265   1.393  11.913
49385W        W21810   5.728  24.691   0.818
49386W        W21811  38.460  13.688   3.329
49387W        W21812  27.043   3.736  14.909
49388W        W21813  26.108  34.571   4.692
49389W        W21814  19.142  33.541  13.924
49390W        W21815   4.206  31.139  13.989
49391W        W21816  24.563   0.433  11.002
49392W        W21817  26.702  30.110  14.850
49393W        W21818   6.378  39.831   2.303
49394W        W21819  36.937  20.111   4.832
49395W        W21820   0.383  33.095   3.280
49396W        W21821   6.739  17.103  13.044
49397W        W21822  10.871  39.387  11.099
49398W        W21823  28.656  34.569  13.306
49399W        W21824  19.668   7.845  12.869
49400W        W21825  42.802  23.644  13.437
49401W        W21826   8.803  21.237   3.789
49402W        W21827  42.841  12.269  12.916
49403W        W21828  32.478  26.559   3.375
49404W        W21829  33.606  36.480   2.328
49405W        W21830   4.363  35.094   1.753
49406W        W21831   9.705   4.267  13.366
49407W        W21832  19.097  20.086   4.335
49408W        W21833  42.437  16.690   4.229
49409W        W21834  34.885   7.676  13.016
49410W        W21835  44.437  11.180  13.361
49411W        W21836  40.498  20.768   4.638
49412W        W21837   9.678  35.950   1.360
49413W        W21838  14.739  25.005  13.011
49414W        W21839  24.552  26.572  13.004
49415W        W21840   7.707  23.724   4.667
49416W        W21841  15.148  33.599   4.642
49417W        W21842  25.667  28.011   4.268
49418W        W21843  17.289   8.277  14.454
49419W        W21844   2.938  36.553   3.740
49420W        W21845  11.716  33.466  11.581
49421W        W21846  14.801  23.575   2.338
49422W        W21847  17.155  19.174   4.680
49423W        W21848   2.412   8.779   9.920
49424W        W21849  25.647   4.856  14.399
49425W        W21850  25.049   8.181   0.743
49426W        W21851   7.398  44.500   3.675
49427W        W21852  12.266   1.740   2.218
49428W        W21853  23.189  28.131   2.757
49429W        W21854   9.388   4.427   2.271
49430W        W21855   0.762  39.052   3.673
49431W        W21856  22.029  36.413  13.398
49432W        W21857  32.104  37.972   2.816
49433W        W21858  29.126   1.907   3.177
49434W        W21859  29.528  17.110   3.634
49435W        W21860  35.917   4.732  10.438
49436W        W21861  37.932  14.704   4.174
49437W        W21862  43.513  19.671  14.904
49438W        W21863  37.889  12.245   4.651
49439W        W21864  21.647  24.690   3.861
49440W        W21865  11.626   8.175  12.887
49441W        W21866  36.424   9.666  10.083
49442W        W21867  14.681  44.883  14.325
49443W        W21868   4.229  35.075  13.942
49444W        W21869  23.581  10.155   3.678
49445W        W21870   6.761   4.728  14.322
49446W        W21871   9.188   7.228   1.884
49447W        W21872   9.373   1.811  14.919
49448W        W21873  24.187  11.134   0.414
49449W        W21874  39.823   1.756  10.977
49450W        W21875   9.372  11.860   3.363
49451W        W21876  29.640  32.474  14.859
49452W        W21877  29.434   0.286   4.726
49453W        W21878  34.061  41.527  14.021
49454W        W21879  39.874  27.449  14.276
49455W        W21880   2.465  26.001  12.400
49456W        W21881  18.640  32.517   1.321
49457W        W21882  21.713  19.590   0.449
49458W        W21883  38.492  25.058  11.496
49459W        W21884  17.193  39.531  13.859
49460W        W21885  10.867  40.508   0.846
49461W        W21886  15.316  14.622   1.702
49462W        W21887   3.909  16.284  14.762
49463W        W21888  13.821   9.779   2.806
49464W        W21889  42.329  29.937   1.777
49465W        W21890   7.314  44.893  13.498
49466W        W21891   2.238  23.164   3.315
49467W        W21892  32.451  24.199   1.918
49468W        W21893   0.788   1.455   1.852
49469W        W21894   4.792  39.939  12.965
49470W        W21895  30.495  31.424  10.561
49471W        W21896  41.894  14.765  11.956
49472W        W21897  18.268  23.232  10.537
49473W        W21898   4.401  38.331   2.781
49474W        W21899  10.847  44.394  13.464
49475W        W21900  24.569  33.526  12.938
49476W        W21901  34.517  13.777   1.832
49477W        W21902  34.479  43.940  14.894
49478W        W21903  26.199  41.366   4.327
49479W        W21904  44.759  23.641   4.323
49480W        W21905  20.229  28.549  10.972
49481W        W21906   1.877   7.257  14.903
49482W        W21907  44.837  42.323  10.893
49483W        W21908  27.079  38.330   1.818
49484W        W21909   8.830  36.386   1.378
49485W        W21910  22.547  36.542  12.568
49486W        W21911  29.605   5.694  12.438
49487W        W21912  16.624  20.523  14.406
49488W        W21913  22.224   5.933   4.250
49489W        W21914  29.163  23.525   5.298
49490W        W21915  32.914   7.201   1.290
49491W        W21916  26.996  43.774  10.535
49492W        W21917  26.588  31.631   0.369
49493W        W21918  33.595  33.551  12.852
49494W        W21919  31.632  39.381  13.018
49495W        W21920   8.214  28.958  11.412
49496W        W21921  25.989  20.631   3.718
49497W        W21922  26.465  12.691  10.145
49498W        W21923  44.396   9.279   4.343
49499W        W21924  32.099   7.232  12.038
49500W        W21925  22.543  25.026  13.024
49501W        W21926   7.334  35.103   0.453
49502W        W21927  25.576  43.402   1.782
49503W        W21928  21.071   4.895   2.301
49504W        W21929  24.679  31.641   1.700
49505W        W21930  18.294  22.209  11.434
49506W        W21931  30.091  27.011  14.379
49507W        W21932   4.414  18.636   2.299
49508W        W21933  44.280  11.304  12.390
49509W        W21934   2.939  20.037   0.817
49510W        W21935  21.128  27.983   4.742
49511W        W21936   0.821  35.072   1.330
49512W        W21937   4.294  10.634  13.374
49513W        W21938  21.569  37.029   3.783
49514W        W21939  15.166  16.278  12.966
49515W        W21940  42.865  19.212   0.346
49516W        W21941   8.820  41.495  13.448
49517W        W21942  32.118  26.994  12.036
49518W        W21943  30.582   5.743  12.072
49519W        W21944   2.721  14.744  14.282
49520W        W21945  39.481   3.843   1.914
49521W        W21946   8.376  25.079  14.328
49522W        W21947  41.876   3.747  11.875
49523W        W21948  19.697  28.647   3.206
49524W        W21949  36.470  35.558   4.762
49525W        W21950  40.470  27.988   3.146
49526W        W21951  42.836  12.334  13.519
49527W        W21952  35.572  24.624  13.489
49528W        W21953  41.963  37.943  12.955
49529W        W21954  36.858  25.019   2.184
49530W        W21955  44.466  14.098  11.016
49531W        W21956  26.671  10.773   3.838
49532W        W21957  19.110  15.241  11.051
49533W        W21958  15.259  25.160   4.127
49534W        W21959   3.892  17.209   2.204
49535W        W21960   7.893  20.250   3.273
49536W        W21961  16.270   4.935   4.175
49537W        W21962  30.101  23.063  12.874
49538W        W21963  20.619  41.383   0.965
49539W        W21964  26.954  17.743   1.337
49540W        W21965  11.320  37.439   1.303
49541W        W21966  43.893   6.228  11.018
49542W        W21967   8.876   2.925  13.845
49543W        W21968  23.151   2.262   4.253
49544W        W21969  30.432  27.142  11.493
49545W        W21970  10.728  12.840  10.493
49546W        W21971  29.040  41.531  11.061
49547W        W21972  22.621  42.994  13.379
49548W        W21973  39.815   2.255   2.395
49549W        W21974  26.674  26.639  12.380
49550W        W21975   6.322  38.496  14.314
49551W        W21976   8.751   7.300   2.219
49552W        W21977  29.024  39.020  10.963
49553W        W21978  33.986  33.416   2.310
49554W        W21979  39.541  14.597  13.466
49555W        W21980  22.065  11.688   9.967
49556W        W21981   9.171   4.705  13.858
49557W        W21982  33.062   1.381   1.325
49558W        W21983  17.305  25.665  12.470
49559W        W21984  21.513  39.522  11.952
49560W        W21985   1.751   1.815  12.450
49561W        W21986   9.377  28.959   2.889
49562W        W21987  22.676  26.141   3.323
49563W        W21988  41.020  26.650  14.003
49564W        W21989  23.649  22.579   3.637
49565W        W21990  42.352  43.987   0.726
49566W        W21991  22.025   0.988   4.674
49567W        W21992  11.240  40.542   1.889
49568W        W21993  19.675  40.546  11.396
49569W        W21994  26.610  40.328   1.374
49570W        W21995  26.471  35.402   1.433
49571W        W21996  15.792  29.946   2.249
49572W        W21997  13.144   7.211  13.492
49573W        W21998   8.699  24.163   2.410
49574W        W21999   3.398   2.821  11.923
49575W        W22000   2.763   6.238   0.831
49576W        W22001  34.421   6.731  14.848
49577W        W22002  31.926   1.404  12.433
49578W        W22003  27.504  38.011   3.260
49579W        W22004   1.361  35.888   4.606
49580W        W22005  19.680  12.816   2.821
49581W        W22006  42.853  21.214   0.899
49582W        W22007  24.717  39.537   0.295
49583W        W22008  23.076   6.863   2.191
49584W        W22009  30.543  12.628  14.329
49585W        W22010  28.499  23.001   3.837
49586W        W22011   0.401  25.560  12.976
49587W        W22012  40.440  17.623  13.435
49588W        W22013  15.193  34.494  12.858
49589W        W22014  25.638  27.127  11.060
49590W        W22015  39.439  30.130   3.665
49591W        W22016  19.274  24.040   3.163
49592W        W22017  38.458  29.622   2.737
49593W        W22018  34.498  34.070  10.630
49594W        W22019  41.294   2.378   0.862
49595W        W22020  34.916  22.006   3.246
49596W        W22021  28.484  39.549   2.230
49597W        W22022   1.254  11.636   0.858
49598W        W22023  43.292  32.026   2.724
49599W        W22024  23.732   7.738  12.957
49600W        W22025   8.386  25.973   2.234
49601W        W22026  42.345  41.833   4.621
49602W        W22027   7.811  34.391  10.115
49603W        W22028   9.286  32.393  11.596
49604W        W22029  40.973  14.634   2.191
49605W        W22030  33.621  25.008   2.310
49606W        W22031  31.079   5.388  13.822
49607W        W22032  33.947  41.514  12.432
49608W        W22033  42.440   1.937   0.804
49609W        W22034  19.263  39.386   2.317
49610W        W22035  30.062  12.761  13.031
49611W        W22036   9.215  21.189   3.385
49612W        W22037   8.849  39.984  12.869
49613W        W22038  38.063  21.150  14.988
49614W        W22039  30.465  36.055  12.364
49615W        W22040  10.815  44.396   0.890
49616W        W22041  22.126  35.017  12.011
49617W        W22042   3.831   8.702  11.500
49618W        W22043  15.321  38.953   0.831
49619W        W22044  43.970   1.318  10.510
49620W        W22045   3.947   3.920  14.371
49621W        W22046  24.992  43.319   0.728
49622W        W22047  41.374  11.726   3.298
49623W        W22048   2.391  38.031   4.162
49624W        W22049  39.941  11.300   3.776
49625W        W22050   3.757  33.043  12.479
49626W        W22051  30.630  24.006   4.174
49627W        W22052  13.821   3.244  14.878
49628W        W22053  42.427  22.535   0.863
49629W        W22054  19.725  31.125  14.298
49630W        W22055  41.483  42.847  12.042
49631W        W22056  30.594   5.413  14.929
49632W        W22057  16.199  25.038  12.017
49633W        W22058  38.043  24.544   0.457
49634W        W22059   0.490  41.463   0.825
49635W        W22060   2.289  11.762  13.398
49636W        W22061  12.823   1.757  13.894
49637W        W22062  22.501  37.983   1.888
49638W        W22063  29.095  33.007  14.907
49639W        W22064  43.019  18.548  11.922
49640W        W22065  21.075  39.905   1.698
49641W        W22066  42.939  28.973   1.322
49642W        W22067  32.601  14.644   4.818
49643W        W22068  32.050  35.919  13.923
49644W        W22069  37.514  39.051  14.769
49645W        W22070  25.579  15.726   2.187
49646W        W22071  26.985  21.520  14.487
49647W        W22072  39.858  26.463  12.480
49648W        W22073  33.535  11.867   2.259
49649W        W22074  20.715  33.515  13.014
49650W        W22075  16.598   4.445  14.336
49651W        W22076  40.404  17.699  10.896
49652W        W22077   3.233  19.279   3.861
49653W        W22078  27.507   0.965  14.439
49654W        W22079  39.940  23.152  12.571
49655W        W22080   9.356  33.971   4.696
49656W        W22081  38.064   6.766  10.574
49657W        W22082   8.304  26.131  11.562
49658W        W22083   0.326   3.425   0.465
49659W        W22084  28.150  43.859   1.434
49660W        W22085   7.377  24.172   3.174
49661W        W22086  44.901  20.130  11.932
49662W        W22087   7.712   0.915  14.844
49663W        W22088   5.807  40.948   3.831
49664W        W22089  34.024  35.011   4.336
49665W        W22090  32.525   6.825  10.901
49666W        W22091   3.266  29.047  13.823
49667W        W22092  25.507  36.485  11.921
49668W        W22093  29.647   5.238   4.831
49669W        W22094   5.918  37.982  14.886
49670W        W22095  11.763  19.587   2.852
49671W        W22096  22.533  10.368   1.354
49672W        W22097  42.982   9.254  11.586
49673W        W22098  27.978  42.409   0.414
49674W        W22099  25.698  20.132   3.279
49675W        W22100  24.976  29.113   0.373
49676W        W22101  40.306  38.029   0.309
49677W        W22102  30.921  31.959  10.567
49678W        W22103  36.587  19.073  14.958
49679W        W22104  13.687   0.339  14.976
49680W        W22105  24.489  19.283   3.865
49681W        W22106  41.434  12.135   1.354
49682W        W22107  43.899  15.670  13.881
49683W        W22108   1.246   9.739  14.472
49684W        W22109  44.370  24.714   4.163
49685W        W22110  35.604  34.919   2.790
49686W        W22111  27.959  26.652  13.384
49687W        W22112  29.960  41.009   5.275
49688W        W22113  14.301  23.211   1.904
49689W        W22114  36.560   0.973  12.366
49690W        W22115  25.608  35.093   4.710
49691W        W22116  14.303  40.509   3.191
49692W        W22117  19.171  42.470   1.796
49693W        W22118   4.293  38.417  13.808
49694W        W22119  30.427  28.482   2.336
49695W        W22120  43.958   5.827   3.732
49696W        W22121  31.412  41.939   0.268
49697W        W22122  41.486  22.745   1.900
49698W        W22123  15.632   6.346   0.458
49699W        W22124  17.678  38.961  11.865
49700W        W22125  26.966  40.390   1.793
49701W        W22126  33.116   8.897   0.293
49702W        W22127  42.906   8.880   0.803
49703W        W22128   6.705  18.684   4.127
49704W        W22129  35.371  27.572   4.667
49705W        W22130  31.412  38.380  11.962
49706W        W22131  42.803  10.278   2.853
49707W        W22132  33.461  23.624   0.255
49708W        W22133   5.915  39.945   3.782
49709W        W22134   2.721  35.883   0.728
49710W        W22135  41.367   9.250   2.290
49711W        W22136  24.533  20.030   3.224
49712W        W22137  12.618  40.029  13.951
49713W        W22138  10.163  20.255   5.117
49714W        W22139  16.642  25.051  12.535
49715W        W22140  14.243  24.213  12.377
49716W        W22141  13.606  39.930  13.329
49717W        W22142  13.629  11.185   3.731
49718W        W22143  26.120  41.536   2.864
49719W        W22144  12.187  15.310  12.360
49720W        W22145  37.945  20.597   2.376
49721W        W22146   2.942   0.345  11.113
49722W        W22147  33.092  16.577   4.312
49723W        W22148   1.368  14.180  12.559
49724W        W22149  23.593  44.759  11.554
49725W        W22150  24.977  39.865   2.839
49726W        W22151   2.933  23.143  13.971
49727W        W22152  16.653   8.338   0.916
49728W        W22153  16.186  33.070  13.451
49729W        W22154  26.172   7.409  10.895
49730W        W22155  38.874  35.435   4.244
49731W        W22156  43.882  13.794   0.963
49732W        W22157   2.809  42.417  13.319
49733W        W22158   2.867  35.503  11.524
49734W        W22159   4.243  15.676   1.269
49735W        W22160  13.235  38.985   0.928
49736W        W22161  32.125   7.788  11.933
49737W        W22162  25.627   9.664   3.835
49738W        W22163  37.451   0.324   3.147
49739W        W22164  18.087  28.601  11.546
49740W        W22165  26.561  40.489   2.311
49741W        W22166  42.863  10.733   0.332
49742W        W22167   4.205   0.859  11.395
49743W        W22168  40.525  32.551   4.158
49744W        W22169  37.570   3.773   4.819
49745W        W22170  14.291  13.227   0.389
49746W        W22171  33.127   0.835   0.937
49747W        W22172  11.854  25.702   2.351
49748W        W22173  18.239  11.352  14.805
49749W        W22174   3.347   2.874   0.469
49750W        W22175  18.573  23.596   4.123
49751W        W22176   3.306  43.854  14.288
49752W        W22177  39.872  25.649   2.393
49753W        W22178  38.512  27.495   2.762
49754W        W22179  38.399  26.669  13.826
49755W        W22180   7.863  26.967   1.298
49756W        W22181  19.610   5.694   3.843
49757W        W22182   0.293   3.879   1.717
49758W        W22183  25.072   3.312  13.530
49759W        W22184   8.365  19.227  10.412
49760W        W22185  22.156  32.031   1.338
49761W        W22186   9.369  39.855  11.925
49762W        W22187   9.245   7.413  14.821
49763W        W22188  36.904  44.275  11.521
49764W        W22189  12.343  44.844   1.848
49765W        W22190  40.463   1.818   2.284
49766W        W22191  26.044  33.991  11.073
49767W        W22192  39.985  14.821  12.516
49768W        W22193  38.552  24.584   1.791
49769W        W22194  10.226  26.599   3.229
49770W        W22195   0.927  43.002   5.094
49771W        W22196  30.471  30.981  12.047
49772W        W22197  17.719  41.808   2.204
49773W        W22198  31.484  29.657  14.510
49774W        W22199  19.275   0.342   1.866
49775W        W22200  31.570  31.990  12.347
49776W        W22201  37.957  34.480   4.163
49777W        W22202  12.358   9.810   2.726
49778W        W22203  15.138  11.766  14.473
49779W        W22204  39.035  35.037   2.735
49780W        W22205  28.938   7.803   0.318
49781W        W22206  10.194  39.481   2.277
49782W        W22207   2.901   0.302   0.361
49783W        W22208  44.389  18.780  12.514
49784W        W22209   6.210  17.145  11.387
49785W        W22210  12.225  10.330   0.353
49786W        W22211  14.107   5.407  13.452
49787W        W22212  23.027  25.989  13.979
49788W        W22213  14.308  30.149   3.162
49789W        W22214  40.399  34.038  14.015
49790W        W22215   6.920  38.432   0.883
49791W        W22216  26.680  33.458  14.303
49792W        W22217  21.624  12.642  13.046
49793W        W22218   2.862  17.610  12.403
49794W        W22219  29.622  27.552   3.272
49795W        W22220  34.456   7.760  10.616
49796W        W22221  42.937  14.776   1.864
49797W        W22222  26.499  39.995   0.844
49798W        W22223  40.531  22.688   3.307
49799W        W22224  13.318  27.968  13.391
49800W        W22225  22.090   2.379  11.976
49801W        W22226  29.030  21.677  14.939
49802W        W22227   9.785  16.200   3.289
49803W        W22228   5.710  21.217   1.727
49804W        W22229   5.332  16.280   0.856
49805W        W22230  18.160  12.313  10.454
49806W        W22231   3.946  15.747  11.096
49807W        W22232   0.276  38.356   0.945
49808W        W22233  14.774  18.672   1.933
49809W        W22234  30.421  16.247   4.254
49810W        W22235  35.059  15.750   0.377
49811W        W22236  17.645   3.273  13.809
49812W        W22237  18.584  34.036  11.039
49813W        W22238  27.081  10.364  12.489
49814W        W22239  18.553  20.643  11.531
49815W        W22240  13.140  40.886   0.866
49816W        W22241  41.434  20.029  12.837
49817W        W22242   5.905  19.243   3.235
49818W        W22243  37.067  17.209  11.488
49819W        W22244  42.287  33.054   2.257
49820W        W22245   6.231   1.347   0.470
49821W        W22246   0.964  36.484  14.358
49822W        W22247  39.420  33.416  12.836
49823W        W22248  34.525   4.890  11.037
49824W        W22249  41.025  39.870   3.197
49825W        W22250  10.168  27.145  10.567
49826W        W22251  29.588  36.083   1.847
49827W        W22252  30.066  19.588   4.311
49828W        W22253  34.953  16.283  12.372
49829W        W22254  31.020  15.093   3.867
49830W        W22255  13.170  26.691   1.257
49831W        W22256   1.247  36.943   4.215
49832W        W22257  21.214   3.751  12.975
49833W        W22258   1.935  31.517   3.380
49834W        W22259   9.764   8.313   0.482
49835W        W22260  18.147  35.965  12.506
49836W        W22261  24.552   0.451  12.905
49837W        W22262  12.263  17.244  13.311
49838W        W22263   6.393  32.018  11.063
49839W        W22264  42.778  10.726  14.912
49840W        W22265   0.468  32.444  12.045
49841W        W22266  12.708  29.950   1.849
49842W        W22267   1.280  38.045   2.733
49843W        W22268  16.611   4.348   1.274
49844W        W22269  30.506  33.958  14.014
49845W        W22270  31.607  43.408  12.071
49846W        W22271  43.347   1.365  11.375
49847W        W22272   2.910  40.313   2.824
49848W        W22273  44.921  11.300  11.522
49849W        W22274  22.999  12.612   3.377
49850W        W22275  42.360  21.158  10.474
49851W        W22276  31.554  29.977  10.950
49852W        W22277  39.384  23.207   2.734
49853W        W22278   6.234   3.231   3.174
49854W        W22279  22.073  44.417  13.894
49855W        W22280  13.836  29.918   4.773
49856W        W22281  12.287  19.057  12.918
49857W        W22282  26.509  11.824   1.763
49858W        W22283   4.890  13.127   3.266
49859W        W22284  36.005  44.849  13.462
49860W        W22285   3.393  10.249  11.928
49861W        W22286  22.717  27.143   4.667
49862W        W22287  17.287  24.492   3.193
49863W        W22288  31.521  20.228  11.591
49864W        W22289   7.766   4.283   4.243
49865W        W22290  29.084  20.275  10.892
49866W        W22291  40.516  28.952   1.781
49867W        W22292  28.605  37.553   3.169
49868W        W22293  44.834  36.848  12.978
49869W        W22294  35.580  41.875   3.353
49870W        W22295  18.231  17.691   4.802
49871W        W22296  23.984  16.082  11.863
49872W        W22297  13.752   4.840   4.636
49873W        W22298   8.781  42.872   0.837
49874W        W22299  23.539   3.449   1.382
49875W        W22300  38.422  16.649  13.808
49876W        W22301   1.830  16.665  11.915
49877W        W22302  18.767  37.885   2.876
49878W        W22303  23.689  23.652  12.085
49879W        W22304   2.282  26.073   1.306
49880W        W22305   2.263  14.731  13.402
49881W        W22306   8.395   7.825   4.297
49882W        W22307  32.578   6.285  11.048
49883W        W22308   1.874   5.258   2.340
49884W        W22309  11.276  37.544   2.885
49885W        W22310  15.210  43.891   0.927
49886W        W22311  12.685   3.328  14.791
49887W        W22312  24.606  13.754   3.310
49888W        W22313   2.948  28.066  12.390
49889W        W22314   6.793   6.897  14.416
49890W        W22315  26.660  28.546   3.845
49891W        W22316  33.907   7.885  14.455
49892W        W22317   2.840  33.982   0.360
49893W        W22318  32.436  11.372  10.563
49894W        W22319  22.104  38.403  11.857
49895W        W22320   9.811  22.126   1.426
49896W        W22321   3.434   2.791   3.641
49897W        W22322   4.722  29.517  14.495
49898W        W22323   2.370  31.952   1.758
49899W        W22324  23.183   3.712  11.529
49900W        W22325  23.636  13.642   4.716
49901W        W22326  24.494  29.515  12.018
49902W        W22327   2.810  40.054   3.804
49903W        W22328  26.994   4.830   2.373
49904W        W22329  19.731  23.211   1.262
49905W        W22330  36.385  42.776  12.035
49906W        W22331   0.800  35.580  14.867
49907W        W22332  31.583   3.875  12.548
49908W        W22333  36.847  27.616  11.999
49909W        W22334  12.678  23.554  14.364
49910W        W22335  40.448  26.997   1.911
49911W        W22336  18.259   0.906  11.873
49912W        W22337  14.650   2.748  10.977
49913W        W22338  33.535   3.224   3.288
49914W        W22339  43.274   6.367  12.464
49915W        W22340  25.171  44.342   3.657
49916W        W22341  18.626  32.588   1.778
49917W        W22342  41.430  13.773  13.358
49918W        W22343  34.063   3.742   3.815
49919W        W22344  37.430  26.107  10.936
49920W        W22345  18.555  36.536   0.273
49921W        W22346  43.945  37.396   2.724
49922W        W22347   1.801  38.375   2.771
49923W        W22348  12.715  30.477  13.359
49924W        W22349  17.796  22.170  14.775
49925W        W22350  41.922  17.673  13.934
49926W        W22351  42.355  18.273   2.775
49927W        W22352  10.633  15.815   0.465
49928W        W22353  22.025  26.152  12.368
49929W        W22354  39.446   5.745  14.844
49930W        W22355  23.235   8.657  13.841
49931W        W22356  14.163  26.462  12.999
49932W        W22357   9.349   4.403   4.154
49933W        W22358  32.556  19.159  13.029
49934W        W22359  29.467  14.164  10.632
49935W        W22360   9.320  14.164  13.411
49936W        W22361  21.169  12.342  13.348
49937W        W22362   2.394  38.839   3.299
49938W        W22363  39.419  43.403   0.472
49939W        W22364  16.804  16.657  14.324
49940W        W22365  44.409  18.062   1.325
49941W        W22366   0.747  32.562   2.833
49942W        W22367  38.956   6.206   5.279
49943W        W22368  13.137  37.345  14.281
49944W        W22369  33.581   8.816  13.016
49945W        W22370   3.239  35.553  10.551
49946W        W22371   8.715  13.143  12.457
49947W        W22372   8.259  38.842   2.726
49948W        W22373  29.454   6.243   3.234
49949W        W22374   0.803  32.584  12.863
49950W        W22375   6.271  19.592  14.482
49951W        W22376   5.796  22.550   2.341
49952W        W22377  44.470   6.304  12.482
49953W        W22378   7.690  10.860  13.527
49954W        W22379   5.809  23.197  10.891
49955W        W22380  28.126  20.111  10.536
49956W        W22381  33.888  18.677  14.982
49957W        W22382  14.151  26.701   4.338
49958W        W22383   9.739  35.428  13.404
49959W        W22384  18.236   8.894   2.841
49960W        W22385  17.098  37.373   9.927
49961W        W22386   9.763  20.028  12.557
49962W        W22387  39.378  15.731   0.248
49963W        W22388  39.820  26.583  11.877
49964W        W22389  33.568   7.770  14.499
49965W        W22390  20.061  13.620  10.994
49966W        W22391  40.482  30.970   0.910
49967W        W22392   9.274  10.294   2.668
49968W        W22393  24.990   3.793  11.451
49969W        W22394   9.288  27.610  13.796
49970W        W22395  32.446  41.910  12.357
49971W        W22396  13.730   8.711   1.408
49972W        W22397  22.243  38.564  14.310
49973W        W22398  35.504  36.456   1.247
49974W        W22399  18.147  44.939  11.505
49975W        W22400  44.278   5.870  12.373
49976W        W22401  21.529  35.538   2.242
49977W        W22402   7.392  38.364  12.523
49978W        W22403  39.031  29.022  10.156
49979W        W22404  10.153  12.632  12.047
49980W        W22405  31.100  43.314  11.128
49981W        W22406  25.130  39.053   1.916
49982W        W22407  41.028  25.686   0.482
49983W        W22408  13.679   0.295   5.632
49984W        W22409   4.408  37.386  13.517
49985W        W22410  23.501   8.818   2.192
49986W        W22411  30.968  42.514  11.050
49987W        W22412  42.992  25.970  11.874
49988W        W22413  39.054  30.154  11.858
49989W        W22414  15.814  38.503  13.825
49990W        W22415  41.500   2.933  12.894
49991W        W22416  14.289  20.640  10.426
49992W        W22417  41.041   2.447  11.605
49993W        W22418  20.643   4.762   0.437
49994W        W22419  37.946  22.063  12.342
49995W        W22420   2.736  21.576  11.907
49996W        W22421  16.277  44.988   2.388
49997W        W22422  16.714  26.697  10.432
49998W        W22423  41.000  43.839  11.523
49999W        W22424  30.099   1.873  14.888
50000W        W22425  41.509  31.574  10.540
50001W        W22426  27.115   5.379   4.168
50002W        W22427  14.297   9.750   4.807
50003W        W22428  18.703  19.720  13.994
50004W        W22429  37.537  12.254   2.780
50005W        W22430  43.935   4.717  14.825
50006W        W22431   8.826  43.509   1.803
50007W        W22432   2.460  35.442  13.430
50008W        W22433   9.822   3.422   4.344
50009W        W22434  13.636   0.745  14.981
50010W        W22435  11.782  15.160  13.476
50011W        W22436  22.064  12.322  10.461
50012W        W22437  35.465  32.448  14.022
50013W        W22438  22.007  21.645   4.271
50014W        W22439  28.669  24.691  14.441
50015W        W22440  36.492  36.043  10.569
50016W        W22441  29.166  31.978  12.971
50017W        W22442  22.084  40.851  13.380
50018W        W22443   9.260  22.650   0.302
50019W        W22444  26.677  32.394   3.826
50020W        W22445  37.441   7.284  10.905
50021W        W22446  18.780  25.218  14.361
50022W        W22447  24.527  11.827   3.832
50023W        W22448   9.739   9.833  12.450
50024W        W22449  26.012  24.201  11.905
50025W        W22450  16.748   5.242   3.766
50026W        W22451  12.737  13.150  14.810
50027W        W22452  23.652  26.092   3.805
50028W        W22453  11.340  17.169  11.857
50029W        W22454  43.435  37.880  13.375
50030W        W22455   9.681  14.671  12.567
50031W        W22456   5.351  40.962  12.430
50032W        W22457  15.598  33.619  12.911
50033W        W22458  36.418  33.404   1.334
50034W        W22459  30.969  10.295  13.497
50035W        W22460  20.640  44.004  13.448
50036W        W22461  21.063  36.897   5.097
50037W        W22462  43.290  36.078  11.930
50038W        W22463   4.229  14.655   2.669
50039W        W22464   4.862  33.535  10.587
50040W        W22465   5.889  36.398  13.364
50041W        W22466   8.881  36.843   3.217
50042W        W22467  17.284   1.415  14.487
50043W        W22468  33.874  32.534   2.368
50044W        W22469   3.397  35.872  14.785
50045W        W22470  24.555  24.061   2.324
50046W        W22471  36.085  29.531   2.327
50047W        W22472   1.331   5.845  13.380
50048W        W22473  19.772  30.081  13.320
50049W        W22474  16.304  30.119   1.254
50050W        W22475  31.478  27.031  13.335
50051W        W22476  30.934  39.547  12.066
50052W        W22477  42.807  33.517   3.767
50053W        W22478  19.191  13.284  14.301
50054W        W22479  31.000   3.456  13.946
50055W        W22480  30.014  42.918   4.732
50056W        W22481   6.241  20.249  13.026
50057W        W22482  24.011  33.958   1.258
50058W        W22483  36.449  25.642   2.224
50059W        W22484   2.732  27.492  13.356
50060W        W22485  16.113  41.446   3.165
50061W        W22486  29.549  17.092   1.384
50062W        W22487  31.024   7.231  14.352
50063W        W22488  22.625  10.289  12.375
50064W        W22489  22.006   0.924   3.651
50065W        W22490  24.117  37.389  12.018
50066W        W22491   4.817   1.249   1.283
50067W        W22492  31.991   5.810   2.294
50068W        W22493  27.689   2.962  13.894
50069W        W22494  36.001  25.030  12.858
50070W        W22495  17.248  42.414   0.387
50071W        W22496  34.467  13.162   0.920
50072W        W22497  13.760  21.121   2.393
50073W        W22498  27.943  12.727   0.839
50074W        W22499  37.569  36.857  11.556
50075W        W22500  17.764   4.943  13.514
50076W        W22501   3.813  33.956  13.329
50077W        W22502   7.749  30.121   0.817
50078W        W22503  32.115  44.909  13.854
50079W        W22504  27.644   0.871   4.178
50080W        W22505  21.124   7.811   4.777
50081W        W22506   5.362   4.864  11.433
50082W        W22507  38.505  22.031   1.701
50083W        W22508  11.805  34.042   0.856
50084W        W22509   7.734   1.907   3.777
50085W        W22510   4.227  41.934   4.608
50086W        W22511  30.483  41.393  10.632
50087W        W22512   1.854  36.364  14.468
50088W        W22513  36.573  10.632   1.739
50089W        W22514   5.765  15.787  13.392
50090W        W22515   0.977  10.712  10.519
50091W        W22516  37.343  14.643   2.687
50092W        W22517  10.834   7.306  10.472
50093W        W22518  39.932  24.171  13.875
50094W        W22519  24.721  44.263   4.742
50095W        W22520  29.077   1.755   0.934
50096W        W22521  13.285   8.340   2.299
50097W        W22522  15.320  32.963  14.981
50098W        W22523  11.635  24.062  10.052
50099W        W22524  30.506  39.849  11.067
50100W        W22525  43.795  34.546   2.272
50101W        W22526  12.738  28.463   0.835
50102W        W22527   4.856  42.316   4.310
50103W        W22528  18.668  27.458  14.010
50104W        W22529  22.653   2.459   3.179
50105W        W22530  43.881   2.943   3.671
50106W        W22531  43.960  35.077  14.417
50107W        W22532  19.101  35.983  13.988
50108W        W22533   2.366  17.202   5.086
50109W        W22534  36.477  21.207   2.289
50110W        W22535  21.616  34.077   0.767
50111W        W22536   2.434  42.492  13.027
50112W        W22537  11.148  32.401   2.887
50113W        W22538  22.660  26.980  12.945
50114W        W22539  25.146  37.499   2.270
50115W        W22540  21.558  11.758  14.440
50116W        W22541  40.465  31.950  13.908
50117W        W22542  33.511  33.456  14.824
50118W        W22543  28.479  41.886   5.267
50119W        W22544   2.826   3.845   0.328
50120W        W22545  38.571   8.227  10.421
50121W        W22546  26.968  10.713  13.455
50122W        W22547  18.603  30.555  10.008
50123W        W22548  25.987  11.134  10.947
50124W        W22549  12.660  42.948  13.954
50125W        W22550  36.384  20.526   2.797
50126W        W22551   4.781  22.202   4.294
50127W        W22552  22.082  38.860   3.770
50128W        W22553   1.848   9.857  14.359
50129W        W22554  38.351  23.725  11.970
50130W        W22555  43.804  14.254  14.773
50131W        W22556  15.182  11.654  12.941
50132W        W22557   7.279  34.917   0.772
50133W        W22558  27.998   8.241  14.294
50134W        W22559  33.533   5.213  12.579
50135W        W22560   2.733  42.864  11.027
50136W        W22561  21.033   3.761   4.681
50137W        W22562  16.252  30.096  13.415
50138W        W22563  18.257  27.550  13.468
50139W        W22564   3.820  19.081   2.185
50140W        W22565  41.794  11.689   4.673
50141W        W22566  43.494  31.481   0.823
50142W        W22567  43.408  22.155  13.403
50143W        W22568  43.822   5.736   1.242
50144W        W22569  34.535  14.311  11.960
50145W        W22570  43.880   4.388   3.358
50146W        W22571  12.791  31.615  12.054
50147W        W22572  35.492  16.651   3.175
50148W        W22573  21.616   6.753  13.461
50149W        W22574  42.526   1.245  10.939
50150W        W22575  21.667  16.675   3.774
50151W        W22576  44.469  14.804  11.929
50152W        W22577  18.229  27.541   2.670
50153W        W22578   9.829  13.248  14.008
50154W        W22579  42.908  26.183   1.252
50155W        W22580   9.842  31.575  10.595
50156W        W22581   1.967  11.685  11.551
50157W        W22582  21.242  28.556  13.523
50158W        W22583  34.085  39.019  13.046
50159W        W22584  42.817  35.409   4.741
50160W        W22585  17.297  39.347  12.430
50161W        W22586   2.944   7.215   1.785
50162W        W22587   8.716  13.744  13.460
50163W        W22588  30.067   0.958   1.443
50164W        W22589  29.631  18.692  10.617
50165W        W22590   2.348  43.481   2.761
50166W        W22591  21.514  35.436  14.938
50167W        W22592   7.729  44.404  14.929
50168W        W22593  39.943  35.603   0.852
50169W        W22594  14.201   3.757   5.179
50170W        W22595  40.023  17.759  11.549
50171W        W22596  34.608  18.184   4.764
50172W        W22597  16.690  30.136  10.539
50173W        W22598   0.761  28.131   3.223
50174W        W22599  19.537  27.576   3.809
50175W        W22600  16.113  15.647  14.295
50176W        W22601  17.624  15.086   0.373
50177W        W22602  30.434  28.586   1.902
50178W        W22603  23.493  22.192  13.929
50179W        W22604  19.551  23.637  13.835
50180W        W22605  33.557   6.416  13.938
50181W        W22606   2.271  39.045   1.359
50182W        W22607  38.031  34.406  11.974
50183W        W22608  39.550  30.025   0.456
50184W        W22609  14.751  24.021   4.316
50185W        W22610  36.079  41.316  14.897
50186W        W22611  43.887  18.664   4.235
50187W        W22612  15.204   7.861   0.286
50188W        W22613   4.433  28.620  13.836
50189W        W22614  11.149  20.660   2.666
50190W        W22615  25.019  44.762  12.353
50191W        W22616  44.898   2.353   3.163
50192W        W22617  38.527  27.949  14.349
50193W        W22618  14.218  36.521   2.788
50194W        W22619   5.919  16.301  11.392
50195W        W22620  35.428   6.323   3.226
50196W        W22621  28.619   7.358   1.356
50197W        W22622  22.018  15.264  14.801
50198W        W22623  25.182  41.388   3.638
50199W        W22624  26.594  41.032   0.926
50200W        W22625   4.792  17.719  11.417
50201W        W22626   1.438  15.237   4.135
50202W        W22627  24.069   8.900   2.262
50203W        W22628   2.815  36.976   0.292
50204W        W22629  35.568  38.449  14.818
50205W        W22630  10.379   0.466  13.543
50206W        W22631  42.945  44.409  13.343
50207W        W22632  19.247  18.760  12.385
50208W        W22633  43.448  42.380  10.996
50209W        W22634  24.687  38.904  11.875
50210W        W22635  37.841  30.108  14.861
50211W        W22636  16.111  29.066   2.265
50212W        W22637  23.035  20.546  11.093
50213W        W22638  31.411  33.001   0.434
50214W        W22639  29.066   7.728   2.804
50215W        W22640  24.163  27.975  10.019
50216W        W22641  26.145   7.869   3.373
50217W        W22642  12.841  34.466  14.784
50218W        W22643  21.704   6.253  13.324
50219W        W22644   9.369   7.340  10.126
50220W        W22645  21.643  24.095  14.431
50221W        W22646  13.240  11.648   0.263
50222W        W22647  10.298   9.668   0.270
50223W        W22648  41.438   8.741  10.526
50224W        W22649  27.621  39.480  14.454
50225W        W22650  41.898  23.572   1.334
50226W        W22651   1.408   8.686  14.455
50227W        W22652   0.831   0.306   3.814
50228W        W22653  44.913  42.890   2.817
50229W        W22654   5.721  27.984  13.512
50230W        W22655  17.569  12.782   4.599
50231W        W22656  39.554  15.166   3.356
50232W        W22657  19.281  22.652  14.816
50233W        W22658  36.424  33.509  11.587
50234W        W22659   4.296  40.948   3.675
50235W        W22660  19.200  21.076  11.099
50236W        W22661  25.979  33.554  14.957
50237W        W22662  12.759  25.546   2.704
50238W        W22663   9.320  19.696  11.933
50239W        W22664  24.490  26.119   4.689
50240W        W22665   2.878  14.717   2.398
50241W        W22666  30.490  15.818  13.904
50242W        W22667  17.161  29.560  11.978
50243W        W22668   5.202  30.039  12.021
50244W        W22669  13.770  27.159   3.245
50245W        W22670  32.553  39.438   4.188
50246W        W22671  19.160  24.193  14.482
50247W        W22672  43.332   8.784   4.739
50248W        W22673  32.109  20.567   4.808
50249W        W22674   0.456  42.908   4.678
50250W        W22675  41.970  15.232   2.333
50251W        W22676  26.692  10.157  11.602
50252W        W22677  21.254  27.012   2.238
50253W        W22678  39.553   4.401  14.374
50254W        W22679  29.589  37.358   2.395
50255W        W22680  33.099  39.982  10.586
50256W        W22681   8.395  19.552   0.813
50257W        W22682   5.268  15.326   3.663
50258W        W22683  12.788  29.127   2.812
50259W        W22684   0.281  29.157   3.744
50260W        W22685  28.128  36.880  10.605
50261W        W22686  17.213  24.181   1.920
50262W        W22687  26.084  27.136   2.732
50263W        W22688  21.613   0.752  11.610
50264W        W22689   9.149  21.595   2.831
50265W        W22690   0.905  12.340  10.954
50266W        W22691  30.519  40.802  11.518
50267W        W22692  40.873  25.522  14.400
50268W        W22693  29.526  41.369   9.527
50269W        W22694  28.662  14.787  11.470
50270W        W22695  29.042  13.126  12.895
50271W        W22696  40.431   7.289   4.661
50272W        W22697  24.162  43.396   0.834
50273W        W22698  22.526  23.106   0.322
50274W        W22699  36.554   1.344   0.451
50275W        W22700  30.593  41.950   1.720
50276W        W22701  10.717  42.983   1.924
50277W        W22702   5.922   6.886  12.898
50278W        W22703  18.561  10.382  10.422
50279W        W22704  18.232  41.329  11.593
50280W        W22705  40.922  12.145  12.580
50281W        W22706  12.747  36.397   4.611
50282W        W22707  37.348  37.967  11.591
50283W        W22708  20.537  30.007   3.266
50284W        W22709  21.110  25.713   1.331
50285W        W22710  38.510  19.701   0.352
50286W        W22711  16.181  39.004   2.779
50287W        W22712  14.636  12.341  11.938
50288W        W22713   4.904  23.214   1.384
50289W        W22714  16.586  28.559   1.211
50290W        W22715  26.504   2.772  11.400
50291W        W22716  19.056  34.554   3.219
50292W        W22717  25.019  13.204   3.679
50293W        W22718  42.341   9.705   0.461
50294W        W22719  41.902  37.840   2.381
50295W        W22720  33.045  36.414   2.407
50296W        W22721  19.612  36.929  13.500
50297W        W22722  10.269  19.091  12.025
50298W        W22723  12.731  25.536   0.873
50299W        W22724  36.865   8.763   3.204
50300W        W22725  41.039   0.743  11.995
50301W        W22726  40.843  27.180  10.619
50302W        W22727  36.032  25.110   1.265
50303W        W22728  24.120  13.737   2.282
50304W        W22729  22.113   3.226  14.285
50305W        W22730  44.978  28.469  14.507
50306W        W22731   0.409  14.281   0.367
50307W        W22732  35.535  38.363  14.358
50308W        W22733   4.809  19.041   0.284
50309W        W22734   4.210   7.233   1.695
50310W        W22735   8.817  14.693   4.641
50311W        W22736  16.198  44.767   2.840
50312W        W22737  26.023  41.839   4.333
50313W        W22738  38.454  10.671   1.432
50314W        W22739  40.858  24.197   3.234
50315W        W22740   4.403  34.493   3.238
50316W        W22741  43.008  19.138   2.231
50317W        W22742  33.534  27.506  14.964
50318W        W22743   3.218  25.999  14.422
50319W        W22744   3.868  43.317  10.894
50320W        W22745  34.038  26.535   5.312
50321W        W22746  33.486   3.402  14.356
50322W        W22747   4.902  18.253  14.852
50323W        W22748  29.452  28.555  14.466
50324W        W22749   2.725  37.846  13.436
50325W        W22750  16.618  39.486  10.894
50326W        W22751   4.423   2.226   4.180
50327W        W22752  21.146  28.591   2.801
50328W        W22753   6.250  15.700   1.809
50329W        W22754   3.743  24.199  14.366
50330W        W22755   3.236   4.401  14.293
50331W        W22756  13.651  29.953  13.527
50332W        W22757  20.049  25.111  10.619
50333W        W22758  39.931  28.027   2.356
50334W        W22759  15.083   3.827  13.471
50335W        W22760   8.696  23.678   4.321
50336W        W22761  38.074  11.194  14.284
50337W        W22762  25.059  15.753  14.899
50338W        W22763  15.202  35.878   4.792
50339W        W22764   1.345  20.641  13.047
50340W        W22765  11.326  30.528   4.715
50341W        W22766  41.806  16.626  11.563
50342W        W22767  35.395  33.012   3.646
50343W        W22768  28.124  38.520  11.962
50344W        W22769  14.768  33.086   3.678
50345W        W22770  39.428  20.217   0.262
50346W        W22771  22.090  33.389  13.310
50347W        W22772   4.302   4.848  12.560
50348W        W22773  41.405  11.160  10.503
50349W        W22774   2.274  39.945   1.278
50350W        W22775  34.544  29.004  10.916
50351W        W22776   0.457   1.397  10.551
50352W        W22777  26.610  42.436   3.330
50353W        W22778  40.491  25.507  13.464
50354W        W22779   6.737  39.412  14.432
50355W        W22780  11.661   3.883   4.194
50356W        W22781  20.547  38.432  13.423
50357W        W22782  20.190  25.201   2.334
50358W        W22783  23.994  24.983   3.209
50359W        W22784   6.182   3.297   1.379
50360W        W22785  31.057  33.124  13.456
50361W        W22786  30.107  19.625   0.845
50362W        W22787  30.505  20.648  14.814
50363W        W22788  25.143  20.593   0.257
50364W        W22789  17.723   6.859   1.859
50365W        W22790  18.747  44.258  12.437
50366W        W22791   0.915   1.910   5.243
50367W        W22792  40.337  22.065   0.285
50368W        W22793   7.880  33.406  14.454
50369W        W22794  26.641  40.848  12.549
50370W        W22795  28.171  20.235   2.888
50371W        W22796   9.732  36.580  11.917
50372W        W22797   5.857  24.590  11.866
50373W        W22798  35.579  14.144  11.024
50374W        W22799  42.918  16.776  12.513
50375W        W22800  11.266   3.344  13.882
50376W        W22801  35.377  23.005  13.806
50377W        W22802  26.980  28.992  14.499
50378W        W22803  29.927  11.215   1.873
50379W        W22804   6.250  27.047   4.632
50380W        W22805  42.417  35.077  10.979
50381W        W22806  24.149  15.606   4.684
50382W        W22807   6.760  24.686   4.700
50383W        W22808  35.875   5.829   2.878
50384W        W22809  11.353  14.701   3.805
50385W        W22810   0.453  10.714  14.372
50386W        W22811  14.172   4.898  14.310
50387W        W22812  19.726  15.257  11.537
50388W        W22813  41.892  44.386   2.226
50389W        W22814  11.724  24.069  14.399
50390W        W22815  30.954  40.308   4.714
50391W        W22816  20.551  27.067   0.812
50392W        W22817  15.777  33.059  13.328
50393W        W22818  27.002  32.463  12.909
50394W        W22819  22.531  26.499   3.785
50395W        W22820   8.739  22.612   3.221
50396W        W22821  36.906   3.240   3.843
50397W        W22822  22.682  25.135   2.411
50398W        W22823  12.619  19.669  12.946
50399W        W22824  24.666  24.169  14.422
50400W        W22825  21.243   2.900   1.803
50401W        W22826  33.523  23.226   1.272
50402W        W22827   2.381  23.106  14.347
50403W        W22828   7.368  24.137  12.406
50404W        W22829  26.204  41.917   0.961
50405W        W22830  31.589  40.353   4.251
50406W        W22831  33.900  10.860   4.237
50407W        W22832  20.094  42.891   5.106
50408W        W22833  28.046  21.056   5.234
50409W        W22834  41.515  32.607   4.176
50410W        W22835  37.462  32.495   1.231
50411W        W22836  27.017  26.533  12.518
50412W        W22837  28.564   7.305   1.902
50413W        W22838  39.397  22.728  14.807
50414W        W22839  40.368  20.086   2.181
50415W        W22840  19.777  33.094  10.583
50416W        W22841   9.837  37.345   3.288
50417W        W22842  14.805  22.164   2.277
50418W        W22843  17.773   4.775   1.805
50419W        W22844  34.991  28.987  11.475
50420W        W22845  36.408  23.719  10.905
50421W        W22846  17.168   8.730   5.312
50422W        W22847  17.758  26.061  14.376
50423W        W22848  22.513  17.144  13.454
50424W        W22849  28.146  29.480   3.178
50425W        W22850  14.764  16.767  12.564
50426W        W22851  29.610  36.430   2.848
50427W        W22852  16.261   1.771  12.990
50428W        W22853  18.569   5.716  12.848
50429W        W22854  44.289  33.021  14.389
50430W        W22855  22.091  23.075  13.812
50431W        W22856  44.331   0.466  11.899
50432W        W22857  29.660  27.460   1.840
50433W        W22858  41.383  22.727  12.469
50434W        W22859  16.655  38.963  14.296
50435W        W22860  32.606  21.116  10.473
50436W        W22861   1.900  13.810  13.321
50437W        W22862  28.453  13.169  13.430
50438W        W22863   5.415  12.769   0.449
50439W        W22864  34.880  30.147   2.840
50440W        W22865  39.444   4.207   0.812
50441W        W22866  14.630  18.135   5.202
50442W        W22867   7.280  26.960   2.411
50443W        W22868  26.620  10.850  12.961
50444W        W22869  12.830  32.554  14.407
50445W        W22870  16.763  12.701   0.443
50446W        W22871  23.550  18.720   2.311
50447W        W22872  33.544   4.913  12.071
50448W        W22873  19.620  36.915   0.907
50449W        W22874  34.051  40.046   0.931
50450W        W22875  15.579  14.813  14.793
50451W        W22876  30.470   6.859  14.383
50452W        W22877  27.517  16.566  11.546
50453W        W22878   3.417  43.012   4.333
50454W        W22879   8.819  13.723   1.233
50455W        W22880  16.608  38.562   4.322
50456W        W22881  19.217  36.384  12.886
50457W        W22882  29.622  11.216   4.648
50458W        W22883   0.920  22.159   1.321
50459W        W22884   7.339  43.435   0.826
50460W        W22885   4.729  17.248   3.845
50461W        W22886  11.260  34.488  12.564
50462W        W22887  25.614  19.727  12.063
50463W        W22888  21.164  31.432  14.913
50464W        W22889   0.293   7.738  11.429
50465W        W22890  13.290  27.547  10.931
50466W        W22891  36.044   8.338  14.509
50467W        W22892  20.620  29.647  12.915
50468W        W22893  17.232  24.143  12.462
50469W        W22894  30.658  20.099  14.867
50470W        W22895  34.947  23.688  13.543
50471W        W22896   2.915  23.016  10.993
50472W        W22897  44.390   4.924  12.471
50473W        W22898  12.312   4.798  11.384
50474W        W22899   5.359   2.469  11.402
50475W        W22900  21.534  21.678   1.271
50476W        W22901  17.789   6.203  14.899
50477W        W22902   5.854   5.323   1.380
50478W        W22903  12.216  31.503  10.548
50479W        W22904  11.269   1.850   2.856
50480W        W22905  30.422  20.568  12.064
50481W        W22906  36.027   7.725  14.490
50482W        W22907  34.931  37.927   0.962
50483W        W22908  17.727   6.869   2.289
50484W        W22909  27.011  29.943  14.891
50485W        W22910   2.847  24.983   4.620
50486W        W22911  14.319  38.474  12.880
50487W        W22912  36.382  16.656   2.838
50488W        W22913  41.444  18.081   3.153
50489W        W22914  12.211  15.325   4.656
50490W        W22915   7.893  14.283   4.604
50491W        W22916   6.205  25.199   2.731
50492W        W22917   7.818   1.388   2.391
50493W        W22918  23.999  19.598   1.773
50494W        W22919  15.270  35.017  12.459
50495W        W22920  39.994   4.440   2.191
50496W        W22921  21.557  13.836   2.328
50497W        W22922   2.242  42.995   1.440
50498W        W22923  16.705   5.724   3.664
50499W        W22924  32.924  21.246  10.574
50500W        W22925  15.781  38.860   3.822
50501W        W22926  37.531  24.031  11.085
50502W        W22927  27.170  33.487   3.768
50503W        W22928  43.943  26.472  14.476
50504W        W22929   0.254   1.813   3.148
50505W        W22930   0.278  17.138  12.524
50506W        W22931  10.677  16.191  13.948
50507W        W22932  10.741   5.321  14.958
50508W        W22933  16.744  44.922   2.679
50509W        W22934  21.657  37.042  13.445
50510W        W22935  28.505  19.161   1.858
50511W        W22936   2.326   9.178   3.313
50512W        W22937  44.298   7.696  14.409
50513W        W22938   4.719  26.522   1.934
50514W        W22939  37.921  12.615   1.932
50515W        W22940   9.844  28.975   4.806
50516W        W22941  23.021  24.995  10.561
50517W        W22942  42.291   5.312   2.356
50518W        W22943  13.692  10.350   4.636
50519W        W22944   8.357   1.482   2.757
50520W        W22945  15.653  10.254  14.795
50521W        W22946  36.583  21.026  12.095
50522W        W22947   2.758  17.604   4.302
50523W        W22948  23.653  36.968   3.343
50524W        W22949  30.943  21.619   0.298
50525W        W22950  34.409   0.857  14.335
50526W        W22951   7.187  25.686  12.397
50527W        W22952  33.099  13.685   1.440
50528W        W22953  38.537  10.255  14.331
50529W        W22954  24.204  20.121   0.943
50530W        W22955  41.805  29.472  11.031
50531W        W22956  32.013  21.135   3.779
50532W        W22957  14.743  21.618  10.946
50533W        W22958   9.202  34.021   2.747
50534W        W22959  33.902  17.716   3.163
50535W        W22960  26.478  34.392  13.364
50536W        W22961  38.824  27.940   9.999
50537W        W22962   8.369  26.170   3.175
50538W        W22963   8.762  41.013  11.121
50539W        W22964  12.765  32.591  14.840
50540W        W22965  14.313   4.771  10.078
50541W        W22966  37.081  18.728   4.622
50542W        W22967  17.082  25.218   5.255
50543W        W22968  19.169   9.650   4.178
50544W        W22969  10.806  43.808  11.449
50545W        W22970  17.787  25.990   0.294
50546W        W22971  44.997  20.662  11.070
50547W        W22972  38.435   3.814   4.291
50548W        W22973   9.887  41.864  14.327
50549W        W22974  30.072   3.754   3.783
50550W        W22975  12.758  30.433  11.868
50551W        W22976  16.149   4.738   4.822
50552W        W22977   0.493   9.338  12.926
50553W        W22978  26.053  17.191   0.300
50554W        W22979  22.199  20.068   4.315
50555W        W22980  10.770  32.626  14.872
50556W        W22981  10.811   4.229  14.459
50557W        W22982  44.430  35.972   1.365
50558W        W22983  33.014  41.381   1.408
50559W        W22984  19.241  34.102  11.521
50560W        W22985  21.115  24.493  11.581
50561W        W22986  25.062  30.465   3.220
50562W        W22987   1.344  33.599  10.445
50563W        W22988  32.554   1.385  13.855
50564W        W22989   5.324  20.271   2.231
50565W        W22990  30.005  17.603   1.376
50566W        W22991  30.122  36.578   4.811
50567W        W22992  22.580   2.291   4.265
50568W        W22993  24.564  15.774   0.956
50569W        W22994  39.375  24.579  13.061
50570W        W22995   2.335  25.689   1.329
50571W        W22996   9.230  24.186  12.875
50572W        W22997  15.162  44.891  11.467
50573W        W22998   1.839  32.021  14.378
50574W        W22999  34.042   2.811  11.537
50575W        W23000  44.428  24.151  13.509
50576W        W23001  17.691   1.311   2.261
50577W        W23002  38.861  42.884  11.488
50578W        W23003  24.113  12.767  10.410
50579W        W23004  27.667  35.403   0.278
50580W        W23005  33.564   9.375   0.412
50581W        W23006  30.492  11.270   2.880
50582W        W23007  20.271  43.795   3.220
50583W        W23008  18.296  10.195   4.789
50584W        W23009   7.385   0.835   2.860
50585W        W23010   7.792   4.378   2.751
50586W        W23011  36.084  28.123   4.711
50587W        W23012  36.450  25.473   3.164
50588W        W23013   8.172  16.184   3.275
50589W        W23014   5.758   1.262   3.362
50590W        W23015  31.976  41.853   4.267
50591W        W23016  13.605  41.955  11.483
50592W        W23017  26.554   8.729  13.949
50593W        W23018  41.013  43.979  13.538
50594W        W23019  16.185  39.500  14.388
50595W        W23020  30.935  39.878   0.456
50596W        W23021  25.044  42.976  10.568
50597W        W23022  35.436  41.813   3.842
50598W        W23023  32.508   3.327  12.482
50599W        W23024  38.933  16.291   3.743
50600W        W23025  41.827   8.183  12.897
50601W        W23026   4.277   9.862   0.820
50602W        W23027  14.154   0.777   4.693
50603W        W23028  19.090  16.771  11.985
50604W        W23029   3.308   7.852  14.325
50605W        W23030   1.898  31.908   2.417
50606W        W23031   1.923  28.186   2.671
50607W        W23032   1.935  25.551   3.732
50608W        W23033  29.167   3.750   0.948
50609W        W23034  33.123   0.332   4.250
50610W        W23035  36.573  20.234  14.903
50611W        W23036  24.663  37.452   1.377
50612W        W23037  20.529  34.922  14.361
50613W        W23038   2.467  29.960   1.393
50614W        W23039  24.653  19.150  14.009
50615W        W23040  19.625  30.969   1.407
50616W        W23041  36.376  30.158   0.812
50617W        W23042  11.192  29.640   4.170
50618W        W23043  25.966  24.147   1.211
50619W        W23044   0.289  37.899  14.312
50620W        W23045  18.765  15.729   0.259
50621W        W23046  22.632  37.457   0.871
50622W        W23047  40.048  31.504  11.594
50623W        W23048  42.308  40.808  14.765
50624W        W23049  33.956  15.645  10.592
50625W        W23050  26.627   2.826   4.837
50626W        W23051  38.996  36.363  13.866
50627W        W23052  34.912   3.371  11.906
50628W        W23053  16.102  35.953   4.778
50629W        W23054   2.418   3.941  12.934
50630W        W23055  28.458  32.036  11.514
50631W        W23056  11.752  21.623   2.301
50632W        W23057  19.702  11.297   3.639
50633W        W23058  37.981   8.866   1.698
50634W        W23059  42.936  34.385  11.988
50635W        W23060   1.341  10.877  13.865
50636W        W23061  25.684  19.232   3.229
50637W        W23062  15.824   7.905  10.932
50638W        W23063  36.363  34.475  14.975
50639W        W23064  20.646   6.182  11.579
50640W        W23065  26.160   6.267  12.471
50641W        W23066   0.959  44.974   3.145
50642W        W23067  15.168  37.421   3.228
50643W        W23068  33.529   2.360   1.758
50644W        W23069  25.204  29.502  14.960
50645W        W23070  32.507   7.693  14.761
50646W        W23071  30.053   7.285   3.345
50647W        W23072  17.207  34.373   2.385
50648W        W23073  14.661  42.337  14.850
50649W        W23074  28.029  15.647  13.417
50650W        W23075  43.953  11.691   2.881
50651W        W23076  41.898  32.890   3.696
50652W        W23077   7.255  19.242   4.713
50653W        W23078  29.922  30.584   1.272
50654W        W23079  37.018   9.751  12.578
50655W        W23080  37.433  33.574   0.324
50656W        W23081  40.984  17.118   0.304
50657W        W23082  42.437  17.248  13.855
50658W        W23083  21.224  37.915   4.332
50659W        W23084   9.382   0.867   3.380
50660W        W23085  13.229  34.118  13.927
50661W        W23086   9.216   9.298  10.532
50662W        W23087  39.527  24.048   3.839
50663W        W23088  24.575   0.921   0.303
50664W        W23089  16.656  42.407  14.456
50665W        W23090  18.223   8.852   1.789
50666W        W23091  31.498   4.774   1.886
50667W        W23092   6.786  32.451  13.532
50668W        W23093  41.388  34.948   1.786
50669W        W23094   8.187  22.095   1.914
50670W        W23095  30.479   2.721   4.642
50671W        W23096   7.690  36.075  10.955
50672W        W23097  29.124  15.131  12.088
50673W        W23098  44.846  44.980   4.236
50674W        W23099   2.240  16.258   0.283
50675W        W23100  40.979   9.745   0.738
50676W        W23101  38.568   1.386  14.923
50677W        W23102  43.990  37.942   2.746
50678W        W23103  20.599  29.493  12.045
50679W        W23104  44.433  41.451  12.011
50680W        W23105  35.535   8.311  10.974
50681W        W23106  38.959  29.937   0.304
50682W        W23107  25.693   6.742  11.029
50683W        W23108  17.217   3.713   1.381
50684W        W23109   2.263   7.396   2.374
50685W        W23110  41.985  44.424   1.264
50686W        W23111  41.860  41.970  14.915
50687W        W23112  37.897  33.047   0.748
50688W        W23113  16.263  19.188  11.452
50689W        W23114  15.218  26.520  10.149
50690W        W23115  37.965  42.910   2.266
50691W        W23116  38.565  23.174   1.341
50692W        W23117  26.601  17.739   3.691
50693W        W23118  12.359  38.928  11.001
50694W        W23119  13.617  33.544  14.482
50695W        W23120  34.943  18.225  13.404
50696W        W23121  16.316   7.783  13.833
50697W        W23122   1.303  42.464  13.434
50698W        W23123  40.473  41.482  13.437
50699W        W23124  13.305  25.641  14.000
50700W        W23125  25.613  23.622  14.960
50701W        W23126  40.534  36.933   3.309
50702W        W23127  22.205  29.146   3.779
50703W        W23128   4.449  44.315   3.650
50704W        W23129   2.797  37.490  10.635
50705W        W23130  44.366  43.833   0.881
50706W        W23131  25.147  22.220   2.332
50707W        W23132  24.724  39.345  14.494
50708W        W23133  18.258  17.215  11.386
50709W        W23134  35.478  44.489   2.241
50710W        W23135  29.136  21.249   2.758
50711W        W23136  12.265   3.890  13.340
50712W        W23137  17.126  10.269  12.339
50713W        W23138  24.055  24.559  14.808
50714W        W23139  15.742  15.276   3.196
50715W        W23140  38.372   3.450   1.724
50716W        W23141   3.406  19.600   9.986
50717W        W23142  15.143  21.579  13.968
50718W        W23143  25.096  21.178   3.241
50719W        W23144   0.982  18.754   1.839
50720W        W23145  37.006   0.840  11.554
50721W        W23146  26.584  44.948  12.881
50722W        W23147  17.747  31.975  13.372
50723W        W23148  41.339  12.791   2.404
50724W        W23149  26.690  37.373  13.965
50725W        W23150  14.175  35.047  14.759
50726W        W23151  38.002   9.744  12.949
50727W        W23152  32.080  19.596  13.900
50728W        W23153  15.760  40.882   3.735
50729W        W23154  27.578  40.921  11.942
50730W        W23155   8.223   8.665   2.750
50731W        W23156  30.119   2.388  11.907
50732W        W23157  21.629  35.888   0.795
50733W        W23158  34.472  21.127  14.992
50734W        W23159  30.977  33.087   0.291
50735W        W23160   2.766  15.800   4.685
50736W        W23161  38.442  36.356  11.611
50737W        W23162  44.324  36.865  14.983
50738W        W23163  29.922  41.532  14.423
50739W        W23164  14.250  34.453   2.902
50740W        W23165  31.412  33.550  13.506
50741W        W23166   9.307   6.856  12.826
50742W        W23167  18.739  10.147   1.906
50743W        W23168  23.213  27.156  11.914
50744W        W23169  27.089  25.017   3.747
50745W        W23170   7.305  40.892   0.924
50746W        W23171  22.527   8.209   0.921
50747W        W23172   8.244   7.859  10.961
50748W        W23173  10.369  33.051  13.536
50749W        W23174  36.511  14.127   4.115
50750W        W23175   0.472  38.870  10.522
50751W        W23176  38.397  16.755   2.352
50752W        W23177  39.820  29.466   4.821
50753W        W23178  24.535  44.302   1.801
50754W        W23179  26.100  22.644   1.229
50755W        W23180   1.344  26.691  13.333
50756W        W23181  39.514   0.876   4.675
50757W        W23182   0.856  11.827  12.468
50758W        W23183   7.797  16.135   4.613
50759W        W23184   8.747   8.780  12.387
50760W        W23185  35.531   1.239  13.956
50761W        W23186  18.231   0.891  12.870
50762W        W23187  28.945  41.013   4.251
50763W        W23188  44.797  44.949  14.847
50764W        W23189  20.248  39.976   2.769
50765W        W23190  42.497  33.003   2.824
50766W        W23191  29.539  22.072   4.340
50767W        W23192   2.741  27.102   4.686
50768W        W23193  19.696  32.440   4.264
50769W        W23194   2.895  25.096  13.543
50770W        W23195  43.299  38.327   0.298
50771W        W23196  24.707   8.691   0.964
50772W        W23197  14.659   8.213   3.372
50773W        W23198   1.802  25.551   4.288
50774W        W23199  35.385  19.270  13.994
50775W        W23200  24.048  30.989  10.572
50776W        W23201  26.087   9.221   0.746
50777W        W23202   4.860   1.425   0.823
50778W        W23203   2.299  32.027   9.949
50779W        W23204  41.364  16.728  13.053
50780W        W23205  39.975  31.138   1.934
50781W        W23206  41.948  15.652  13.932
50782W        W23207  20.721   7.887  12.557
50783W        W23208   8.365  33.566  12.909
50784W        W23209  25.567   7.221   4.220
50785W        W23210  24.592  38.547  10.467
50786W        W23211  28.539  27.649   4.283
50787W        W23212  11.355   9.652   4.205
50788W        W23213  31.520   4.933   2.210
50789W        W23214   7.391   7.320  13.486
50790W        W23215  26.104   5.892   1.924
50791W        W23216   1.419   7.853   2.241
50792W        W23217   3.837  43.850  11.106
50793W        W23218  33.408  29.568  13.914
50794W        W23219  34.431  39.406   0.254
50795W        W23220  17.620  22.226  12.077
50796W        W23221  21.076   8.664   1.405
50797W        W23222   7.194  12.852  12.842
50798W        W23223  12.757  11.370  13.828
50799W        W23224  38.046  33.580   1.841
50800W        W23225  34.063   9.760  11.531
50801W        W23226  38.041  20.551  11.056
50802W        W23227  31.109  25.550   0.437
50803W        W23228  17.237   7.291  13.454
50804W        W23229   6.790  36.358  13.502
50805W        W23230   2.938   9.151   3.229
50806W        W23231  14.255  21.106  11.457
50807W        W23232  43.366  25.574  11.916
50808W        W23233  41.329  31.624  13.870
50809W        W23234  41.426  38.017   1.773
50810W        W23235   0.480  32.072   1.731
50811W        W23236  18.734  31.442  12.953
50812W        W23237  38.013   3.845  14.873
50813W        W23238   6.218   2.777   3.633
50814W        W23239  35.929  43.317   4.661
50815W        W23240  14.783  20.551   3.230
50816W        W23241  41.941   0.369   0.852
50817W        W23242  43.804  27.974  11.906
50818W        W23243  39.057   6.766   3.147
50819W        W23244  11.718  12.786  14.329
50820W        W23245  24.990  27.592  14.479
50821W        W23246  25.051  11.765  14.813
50822W        W23247  27.644  32.432  13.858
50823W        W23248  23.528  41.031   1.253
50824W        W23249  12.611  42.355   3.720
50825W        W23250  17.282  25.593   1.450
50826W        W23251   9.887  38.849  13.439
50827W        W23252   1.416  22.517   2.406
50828W        W23253  10.682  27.031   4.671
50829W        W23254  18.693  14.325  14.454
50830W        W23255  40.532  32.572  13.916
50831W        W23256  27.013  23.240  10.988
50832W        W23257  41.006  41.473  13.357
50833W        W23258  24.978  33.888  10.513
50834W        W23259  15.790  32.119   3.750
50835W        W23260  30.037  21.262   2.809
50836W        W23261  44.498  29.117   3.296
50837W        W23262  25.675  34.946  11.899
50838W        W23263   3.824  33.535   2.858
50839W        W23264  21.067  18.658   2.402
50840W        W23265  12.289   8.823  14.031
50841W        W23266   7.784   9.884  11.496
50842W        W23267  23.228  26.590   4.631
50843W        W23268  18.760  25.964   3.779
50844W        W23269  22.550  32.468   3.745
50845W        W23270  24.189  40.948  13.419
50846W        W23271   5.910  27.628  11.858
50847W        W23272  12.628  35.935   4.328
50848W        W23273  21.142  36.442  10.889
50849W        W23274  17.169  16.585  14.995
50850W        W23275  43.901  25.513  12.032
50851W        W23276  27.155  37.936   0.305
50852W        W23277  36.848  15.243   3.295
50853W        W23278   3.372  33.057   1.235
50854W        W23279  21.657   0.792   2.374
50855W        W23280  17.190  23.066  14.994
50856W        W23281  14.309   0.847   2.682
50857W        W23282  29.055   9.346   4.754
50858W        W23283  34.058  37.401  14.968
50859W        W23284  33.388  30.953   4.225
50860W        W23285  11.373  29.948   2.846
50861W        W23286  11.781  39.861   0.816
50862W        W23287  10.857  19.726   0.381
50863W        W23288  21.148  36.400  11.531
50864W        W23289  32.052  15.317  12.036
50865W        W23290  10.156  34.558   2.270
50866W        W23291  18.748   7.217   1.746
50867W        W23292  19.200  26.066   1.340
50868W        W23293  21.191  29.133   0.271
50869W        W23294   3.744  36.843  13.363
50870W        W23295  12.695   7.324   3.215
50871W        W23296  32.023  19.113  10.564
50872W        W23297  20.273  17.741  11.995
50873W        W23298  41.382   7.682  14.856
50874W        W23299  43.883  42.504  11.881
50875W        W23300  12.118  25.063   2.662
50876W        W23301  10.357   6.236  10.050
50877W        W23302  12.322  39.524  10.945
50878W        W23303  21.536  28.594   2.287
50879W        W23304  40.353  32.110  10.037
50880W        W23305   1.274  28.618   3.636
50881W        W23306  30.595  22.055   1.932
50882W        W23307  42.447  44.497  13.851
50883W        W23308  14.286  18.586  13.849
50884W        W23309  35.001  11.358   4.308
50885W        W23310  27.002  44.789   1.377
50886W        W23311  19.222  21.139  10.101
50887W        W23312  32.992  43.442   3.302
50888W        W23313  13.217   6.282   1.861
50889W        W23314  30.017   7.872  13.808
50890W        W23315  42.810  19.151   3.632
50891W        W23316  20.055   0.248   0.817
50892W        W23317  16.812  20.558  11.538
50893W        W23318  34.546  21.188   3.266
50894W        W23319  31.120  14.233   3.156
50895W        W23320  28.511  23.505  12.512
50896W        W23321  41.895  30.554  11.994
50897W        W23322  28.088  26.112  14.441
50898W        W23323  24.006  36.941  12.430
50899W        W23324   0.858  28.492  12.083
50900W        W23325  41.970   4.285  12.856
50901W        W23326  23.667   6.788   1.392
50902W        W23327   3.839  15.220   4.256
50903W        W23328  18.176  43.419   0.358
50904W        W23329   4.754   6.247   5.157
50905W        W23330  22.563  39.522   3.711
50906W        W23331  32.509   4.885  10.098
50907W        W23332   6.282  20.038  11.445
50908W        W23333  43.355  11.847   4.284
50909W        W23334  36.995  16.666  12.491
50910W        W23335  34.433   7.882  14.801
50911W        W23336  33.388  22.705   4.721
50912W        W23337  20.685  43.364   0.766
50913W        W23338  19.558  21.171   3.759
50914W        W23339  38.992  18.612   4.739
50915W        W23340  17.637   9.706   4.618
50916W        W23341  17.223   1.808   0.379
50917W        W23342  28.510  29.956  10.412
50918W        W23343  13.119  40.880   3.255
50919W        W23344  21.213  31.928  14.902
50920W        W23345   1.768   7.878   0.402
50921W        W23346  44.945  22.174   2.761
50922W        W23347  15.308  27.547  10.553
50923W        W23348  31.430  23.240  14.327
50924W        W23349  26.581  33.535  11.005
50925W        W23350  44.279  30.542   3.865
50926W        W23351  15.634  21.582   4.783
50927W        W23352   0.464  32.011  10.612
50928W        W23353  39.942  39.523   1.902
50929W        W23354  12.702  11.820   1.849
50930W        W23355  32.631  29.138  11.425
50931W        W23356  28.583  10.871  12.376
50932W        W23357   2.751  32.102  13.475
50933W        W23358  38.567  21.535  12.464
50934W        W23359  27.574  33.126   2.673
50935W        W23360  21.612  20.724  11.085
50936W        W23361   7.845  24.053   2.811
50937W        W23362  14.341  23.162   2.737
50938W        W23363  11.828   7.399   3.746
50939W        W23364  32.898  12.313   3.780
50940W        W23365  11.349   7.179  14.494
50941W        W23366  23.720  13.221  11.462
50942W        W23367  41.460  13.340  13.429
50943W        W23368  31.038  38.368   2.884
50944W        W23369  23.072  25.081  14.805
50945W        W23370  32.495   9.881  12.930
50946W        W23371  11.789  41.023  13.473
50947W        W23372  30.581   1.285   4.195
50948W        W23373  33.573  18.145   1.884
50949W        W23374   5.777  28.047   1.832
50950W        W23375  23.720   1.837  13.452
50951W        W23376  30.924   0.830  12.342
50952W        W23377  12.340   6.706   1.792
50953W        W23378  16.133   4.259   4.142
50954W        W23379   1.295  36.555   1.730
50955W        W23380  25.151  33.885  12.042
50956W        W23381  32.114  13.300   3.164
50957W        W23382  23.728  44.414   2.681
50958W        W23383   3.883  18.200   1.724
50959W        W23384  26.005  14.699   3.784
50960W        W23385   2.237  39.394  11.943
50961W        W23386   2.267  25.992  11.528
50962W        W23387  35.896   6.919   2.766
50963W        W23388  36.032  44.872  12.824
50964W        W23389   7.353  18.717  13.985
50965W        W23390  22.006  26.652  12.561
50966W        W23391  17.295   9.312   1.352
50967W        W23392  31.599  21.711  12.086
50968W        W23393  23.016  40.944   2.272
50969W        W23394   4.752  40.417  13.039
50970W        W23395  29.025   6.705   3.765
50971W        W23396  41.986  38.381   4.724
50972W        W23397  24.695  39.929   2.754
50973W        W23398  38.373  26.646  11.382
50974W        W23399  34.486  33.094   0.838
50975W        W23400   3.760   8.844   0.436
50976W        W23401  21.101  32.397   4.768
50977W        W23402   9.322   1.467  13.837
50978W        W23403  24.108  30.164   4.755
50979W        W23404  16.742  34.400   0.261
50980W        W23405   8.863   8.699  10.983
50981W        W23406   0.772   1.427   3.661
50982W        W23407  13.702  26.628   1.739
50983W        W23408  36.089  26.156  14.922
50984W        W23409  19.229  28.568  13.395
50985W        W23410  36.526  16.273  14.362
50986W        W23411  35.070  34.586  10.152
50987W        W23412  41.795  31.012   4.803
50988W        W23413  42.899  25.580  13.856
50989W        W23414   0.791  13.600  14.301
50990W        W23415   2.270  41.361  12.855
50991W        W23416  29.548  30.552  13.397
50992W        W23417  22.585  38.819   2.848
50993W        W23418  42.368  16.207   4.682
50994W        W23419  40.529  42.482  13.409
50995W        W23420   3.955  34.561  12.355
50996W        W23421  38.967   4.835   0.440
50997W        W23422  17.623   9.850   2.205
50998W        W23423   5.341  31.481  14.425
50999W        W23424  32.627  36.094   0.362
51000W        W23425  17.725  31.053  10.480
51001W        W23426  13.136  37.070  13.063
51002W        W23427  32.906  23.214  11.574
51003W        W23428   4.865  17.236   4.278
51004W        W23429  20.709  23.691   2.311
51005W        W23430  43.990  16.695   0.865
51006W        W23431  27.055  36.922  13.318
51007W        W23432  35.933  39.326  12.392
51008W        W23433  41.951  28.674  11.611
51009W        W23434  25.176   7.892   1.430
51010W        W23435  43.360  20.620  11.559
51011W        W23436  31.074   5.893  12.063
51012W        W23437  30.050  30.481   3.308
51013W        W23438  13.273  37.377   0.732
51014W        W23439  20.595  15.641   3.245
51015W        W23440  23.153  12.787   3.709
51016W        W23441  28.134   2.408   4.129
51017W        W23442  18.197   5.772  13.348
51018W        W23443  34.544  18.197   4.218
51019W        W23444  38.935  25.691   2.680
51020W        W23445   6.344   5.828  10.953
51021W        W23446  24.097  10.809  12.909
51022W        W23447  31.050   9.211   0.398
51023W        W23448  27.557  35.432   4.725
51024W        W23449  37.527  18.703   0.317
51025W        W23450  16.701  12.143   0.948
51026W        W23451  42.350  44.879   4.280
51027W        W23452   2.939  44.964   3.235
51028W        W23453   6.691  12.730   4.316
51029W        W23454  34.104   7.840   4.714
51030W        W23455  39.426  33.982   0.472
51031W        W23456  16.706  41.843  11.572
51032W        W23457  44.493  10.325  10.607
51033W        W23458   3.790   3.324  14.010
51034W        W23459  30.937  15.606  10.630
51035W        W23460  32.922   8.845   2.203
51036W        W23461  16.220   1.950   1.831
51037W        W23462  38.888   1.781  11.398
51038W        W23463  16.800  29.551  13.032
51039W        W23464  33.004  34.078  11.038
51040W        W23465  43.765  16.710   4.129
51041W        W23466  24.988  25.654  12.863
51042W        W23467  26.952  24.518  10.431
51043W        W23468  11.301  37.419   1.909
51044W        W23469  29.595  30.047   4.835
51045W        W23470  17.235  42.514   0.899
51046W        W23471  11.823  29.497   0.255
51047W        W23472   8.885  12.748   4.625
51048W        W23473  19.589  33.955  13.952
51049W        W23474  28.516   9.831  12.423
51050W        W23475   3.232  15.178   2.395
51051W        W23476   6.288  20.588  12.050
51052W        W23477  11.242  28.954   3.731
51053W        W23478  20.229   5.715   3.807
51054W        W23479  22.724  16.102   3.308
51055W        W23480  31.627  39.442   0.941
51056W        W23481   9.215  13.260   4.774
51057W        W23482  37.386   2.759   3.841
51058W        W23483  29.031   5.242   1.742
51059W        W23484   9.186  35.531   0.847
51060W        W23485  21.705  37.966  14.314
51061W        W23486  33.095  15.752  14.895
51062W        W23487  19.163  35.546  10.560
51063W        W23488  19.661   6.754  13.350
51064W        W23489   7.182  29.431   1.395
51065W        W23490  12.325  13.113  11.930
51066W        W23491  38.984  22.575  14.005
51067W        W23492  17.567   5.216   4.622
51068W        W23493   5.849  22.058  12.919
51069W        W23494   6.408  15.248  11.043
51070W        W23495  10.831  25.681  10.454
51071W        W23496  37.875  13.105  10.956
51072W        W23497  28.679  22.738  13.444
51073W        W23498   1.271  20.745  11.945
51074W        W23499  29.972  25.130  14.926
51075W        W23500  25.703  26.677   3.189
51076W        W23501  32.061   3.930  12.523
51077W        W23502  17.224   7.244  14.972
51078W        W23503  32.000   5.905   4.723
51079W        W23504  11.717   3.434   5.222
51080W        W23505  27.101  12.286  14.775
51081W        W23506  18.248  38.047  11.564
51082W        W23507  19.727  30.019   1.818
51083W        W23508   2.792  38.468   0.896
51084W        W23509  39.378  44.760   4.222
51085W        W23510  33.471   3.446  14.766
51086W        W23511  12.624   7.262  13.482
51087W        W23512  14.627  23.547   1.784
51088W        W23513  28.028  19.583  11.596
51089W        W23514  15.322  41.310   0.809
51090W        W23515  26.556  40.858   1.245
51091W        W23516  18.092  21.248  13.454
51092W        W23517  25.578  15.677  13.321
51093W        W23518  42.511   9.354  13.940
51094W        W23519  30.105  12.709   0.905
51095W        W23520   5.739  28.990   3.723
51096W        W23521  36.942   1.778  12.093
51097W        W23522   6.426  30.937   4.736
51098W        W23523   9.389  30.046  13.911
51099W        W23524  43.941  32.507  14.775
51100W        W23525  32.480  36.510  14.448
51101W        W23526  22.531  23.672  13.018
51102W        W23527   0.784  37.427   1.784
51103W        W23528  27.499  31.114  10.050
51104W        W23529  16.120  25.209  14.765
51105W        W23530  27.982  32.111  12.935
51106W        W23531  23.046   5.357  13.534
51107W        W23532   2.262  35.969   1.396
51108W        W23533   8.316  26.143  14.976
51109W        W23534   4.244  21.072   2.760
51110W        W23535  22.635  18.091   1.220
51111W        W23536  42.297  39.354  13.825
51112W        W23537  13.196  28.575  13.886
51113W        W23538  37.493  41.489  12.468
51114W        W23539  40.508  38.015  14.460
51115W        W23540  41.498  26.476  13.381
51116W        W23541  29.154  23.517   2.735
51117W        W23542   5.751  38.971   2.416
51118W        W23543  15.209  19.542   4.632
51119W        W23544  15.152   9.676   4.743
51120W        W23545  21.202  12.213   3.233
51121W        W23546  24.161  42.840   3.841
51122W        W23547  19.176  33.908   2.256
51123W        W23548  11.351  40.330  10.462
51124W        W23549  15.267  28.476   3.656
51125W        W23550  33.510  29.533   3.743
51126W        W23551  23.130  40.961  12.957
51127W        W23552  26.042   6.290  13.360
51128W        W23553  35.979  41.337  12.061
51129W        W23554  25.975   2.467  10.964
51130W        W23555  32.993   9.180   4.332
51131W        W23556  32.549  35.901   1.753
51132W        W23557   2.341  12.147   2.300
51133W        W23558  22.738  11.192   9.936
51134W        W23559   6.344  38.892   0.773
51135W        W23560  38.435  10.189  12.873
51136W        W23561   8.398   9.810   3.177
51137W        W23562  40.034  34.935  14.781
51138W        W23563  43.960  41.411   0.328
51139W        W23564  19.738  25.970   3.757
51140W        W23565  44.952  19.722  12.938
51141W        W23566  29.175  14.095   3.795
51142W        W23567  29.575  35.970   0.924
51143W        W23568   8.786  35.854  13.861
51144W        W23569  37.572  39.815   1.836
51145W        W23570  26.127  33.944  12.449
51146W        W23571  16.206   6.923  12.960
51147W        W23572  26.953  37.030   3.222
51148W        W23573  10.648   1.811  12.433
51149W        W23574  33.952  30.419  12.997
51150W        W23575  20.261  22.723   3.754
51151W        W23576  19.578  17.204   0.922
51152W        W23577  25.173  26.485  13.384
51153W        W23578  11.776  30.978   2.757
51154W        W23579  23.230  32.969  13.334
51155W        W23580   9.280  21.110   2.706
51156W        W23581  30.479   8.789   2.402
51157W        W23582  31.522  19.686  14.365
51158W        W23583  30.025  42.823   0.942
51159W        W23584  13.761   1.969  10.066
51160W        W23585  11.181  33.937   1.737
51161W        W23586  23.612  11.207  12.352
51162W        W23587  25.530  42.314  12.096
51163W        W23588   9.177   0.272   4.242
51164W        W23589  12.632   6.366   2.750
51165W        W23590  29.113  26.153   3.649
51166W        W23591  39.017  15.144   4.327
51167W        W23592  43.956  16.727  11.567
51168W        W23593  18.777   9.651   1.740
51169W        W23594  34.496   0.310   4.346
51170W        W23595   2.383  11.271  11.612
51171W        W23596  14.704  23.527   5.630
51172W        W23597  14.593  32.458  13.867
51173W        W23598  33.962  28.024   2.857
51174W        W23599  36.412  32.587   1.293
51175W        W23600  23.122  24.606   2.763
51176W        W23601  29.569  20.101   1.368
51177W        W23602  33.484  34.925   0.365
51178W        W23603  14.149   3.417  14.796
51179W        W23604   6.885  28.619   4.762
51180W        W23605  27.655  38.992  13.514
51181W        W23606  37.365   1.798   0.385
51182W        W23607  35.933  36.985  12.918
51183W        W23608  12.833  11.372  11.924
51184W        W23609  20.604  44.840  11.581
51185W        W23610  27.551  35.470  10.600
51186W        W23611  26.673  14.684  11.477
51187W        W23612  35.921  30.457   3.371
51188W        W23613   9.384  35.380  13.501
51189W        W23614   8.890  35.379  12.378
51190W        W23615  25.474   5.799  14.314
51191W        W23616  30.518  25.215  14.831
51192W        W23617  30.155   1.427  13.792
51193W        W23618  30.550  24.516  13.995
51194W        W23619   4.293  41.827   4.284
51195W        W23620  34.455   8.201   1.365
51196W        W23621  25.573  11.203   2.204
51197W        W23622   9.673   7.332   4.722
51198W        W23623  33.511  30.126  14.946
51199W        W23624  32.134  26.469   4.640
51200W        W23625  25.071   2.944  12.941
51201W        W23626  16.570  30.605  13.935
51202W        W23627  16.313  38.932  11.426
51203W        W23628  13.723  37.999   4.676
51204W        W23629  42.840  26.971  11.999
51205W        W23630  22.524   4.874  10.933
51206W        W23631  39.555   5.261   4.742
51207W        W23632   3.243  35.532  10.902
51208W        W23633   3.396  44.982  12.394
51209W        W23634  36.969  39.983  13.884
51210W        W23635  11.625  19.204   2.872
51211W        W23636   9.862  28.160   1.781
51212W        W23637   4.786  35.990  11.001
51213W        W23638  10.213  18.704   5.101
51214W        W23639  38.886  32.485  14.403
51215W        W23640  23.532   6.720   3.730
51216W        W23641  38.863  41.911  14.491
51217W        W23642  31.449  42.295  12.950
51218W        W23643  41.816  30.984   3.268
51219W        W23644  17.639   8.708  14.507
51220W        W23645  18.616  16.117   3.670
51221W        W23646  35.917  26.535  14.447
51222W        W23647  12.725   6.696  12.426
51223W        W23648  23.689  11.207   9.587
51224W        W23649  44.322  17.158   2.848
51225W        W23650  24.685  43.458  14.923
51226W        W23651   3.238   5.915  10.012
51227W        W23652  26.699  28.453   3.300
51228W        W23653  18.172  16.719  10.636
51229W        W23654  29.973  42.303  12.979
51230W        W23655  28.043  37.438   4.289
51231W        W23656  22.500   2.344  14.470
51232W        W23657  21.542  23.991  10.506
51233W        W23658  33.534  25.671  14.331
51234W        W23659  23.013  23.581  12.414
51235W        W23660  33.096   7.892   0.359
51236W        W23661  32.418  36.495  14.802
51237W        W23662  22.221   7.911  13.876
51238W        W23663  25.051  23.004   3.261
51239W        W23664  17.709  26.564  10.495
51240W        W23665  10.696  40.459   1.370
51241W        W23666  30.107   7.361  11.508
51242W        W23667  16.776  41.369   2.686
51243W        W23668  38.408  25.570   4.141
51244W        W23669  13.333  31.961   2.716
51245W        W23670   1.414  40.331  11.069
51246W        W23671   6.690  16.312   1.903
51247W        W23672   9.270   1.794  13.369
51248W        W23673   1.749  10.335   3.856
51249W        W23674   1.860  29.114   2.214
51250W        W23675  15.615  29.594   9.960
51251W        W23676  38.374  10.763  11.029
51252W        W23677  42.985  11.302  12.889
51253W        W23678   0.481  29.616   4.168
51254W        W23679  33.904  13.265   1.905
51255W        W23680  20.701  35.044   3.797
51256W        W23681   2.830  11.654  14.917
51257W        W23682  10.762  28.061   3.249
51258W        W23683  12.183  23.586   2.773
51259W        W23684   2.467  13.733   3.694
51260W        W23685  10.754   4.861   4.657
51261W        W23686  25.192  18.252   2.892
51262W        W23687  19.634  20.567   1.822
51263W        W23688  23.609  43.301   3.738
51264W        W23689  33.420  43.344   1.913
51265W        W23690  40.907  27.554   2.776
51266W        W23691   2.366  31.070  11.079
51267W        W23692  25.533  11.821   2.297
51268W        W23693   6.267  10.226  10.470
51269W        W23694  24.195  27.589   0.874
51270W        W23695  39.820  23.687  13.049
51271W        W23696   6.265  21.749   1.235
51272W        W23697  28.996  20.187   4.655
51273W        W23698  15.615  17.737   2.698
51274W        W23699  31.013  32.599   0.751
51275W        W23700  36.941  22.080  14.766
51276W        W23701   1.254   5.352  10.408
51277W        W23702   7.869   0.932   1.252
51278W        W23703  38.528  13.241   0.464
51279W        W23704  28.478  32.082   4.666
51280W        W23705  42.840  16.213   1.696
51281W        W23706  15.733  32.898   3.849
51282W        W23707   4.431  36.908   4.279
51283W        W23708  41.524  16.133  13.546
51284W        W23709  15.122  41.388  13.863
51285W        W23710  36.391   4.906   0.797
51286W        W23711  17.118   0.935   0.448
51287W        W23712   7.761  12.219  12.555
51288W        W23713  18.189  35.857  12.026
51289W        W23714  24.682  23.232  13.836
51290W        W23715   8.374  23.540   1.911
51291W        W23716  39.326   7.241   3.359
51292W        W23717   1.920   4.741   1.826
51293W        W23718  38.950   3.247  11.956
51294W        W23719  34.588   1.801   0.301
51295W        W23720  21.607  33.009  14.769
51296W        W23721  38.963  26.029   3.684
51297W        W23722  10.750  39.012   4.824
51298W        W23723   5.366  39.331   3.869
51299W        W23724  13.689  18.621  12.448
51300W        W23725  16.249  13.763   1.739
51301W        W23726  36.928  43.333   3.288
51302W        W23727  11.723  39.315  14.919
51303W        W23728   6.914  27.658  11.053
51304W        W23729   3.408  29.144   0.908
51305W        W23730  20.253  31.529  11.442
51306W        W23731  21.546  10.150   4.191
51307W        W23732  25.526  26.644  12.546
51308W        W23733  33.400  10.795  13.987
51309W        W23734  44.313  43.009   1.884
51310W        W23735  23.549  26.612  14.337
51311W        W23736  27.580  10.838   4.266
51312W        W23737  20.034  25.604  11.568
51313W        W23738  41.520   6.693   4.659
51314W        W23739  17.280  13.674  10.926
51315W        W23740  27.015  41.933  11.888
51316W        W23741  37.895  29.442   0.375
51317W        W23742   0.804   8.820  12.044
51318W        W23743  38.331  14.735   1.804
51319W        W23744  22.209   7.215   4.816
51320W        W23745   1.764  21.036  11.872
51321W        W23746  26.595  43.464   3.188
51322W        W23747  44.947  18.740   4.831
51323W        W23748  17.672  21.517   0.807
51324W        W23749  13.145  42.018   4.221
51325W        W23750  13.207  44.777  11.985
51326W        W23751  36.072  25.115  11.573
51327W        W23752  23.712  16.185  12.038
51328W        W23753   2.772  31.469   0.774
51329W        W23754  21.045   8.183   1.243
51330W        W23755   8.870   3.855   1.780
51331W        W23756  23.662  33.613   4.713
51332W        W23757   4.717  23.656  14.951
51333W        W23758  22.719   9.749   1.422
51334W        W23759  10.154  34.889  11.061
51335W        W23760  28.670  34.917  11.547
51336W        W23761  43.816   0.465   2.207
51337W        W23762  12.713   1.470   2.341
51338W        W23763  31.965  29.502  10.486
51339W        W23764  17.107   4.888   9.933
51340W        W23765  29.462  20.659  11.395
51341W        W23766  22.653  27.169  14.775
51342W        W23767  18.776  31.059  12.032
51343W        W23768  15.101  16.200  11.540
51344W        W23769  37.886  20.675  11.606
51345W        W23770  35.909  15.739  14.462
51346W        W23771  41.998  23.066   0.770
51347W        W23772   7.721  25.151  11.468
51348W        W23773  39.504  33.094  12.918
51349W        W23774   0.982   4.397   0.351
51350W        W23775  43.303  27.104  14.467
51351W        W23776  33.886  33.880   1.257
51352W        W23777  37.538  33.947   3.250
51353W        W23778  15.797  26.975   3.670
51354W        W23779  32.451  38.982  14.437
51355W        W23780  14.099  22.026  11.554
51356W        W23781  24.991  38.539  12.909
51357W        W23782  23.065  26.133  14.402
51358W        W23783   6.687  24.102   0.462
51359W        W23784  26.598  10.243   4.325
51360W        W23785   5.276   1.882  11.493
51361W        W23786  33.469  40.457   5.322
51362W        W23787  26.168  29.052  11.020
51363W        W23788  11.818  44.477  12.352
51364W        W23789  32.033  13.621  14.352
51365W        W23790   1.257  43.837  12.952
51366W        W23791  18.152  20.190   2.705
51367W        W23792  12.714  13.730   0.918
51368W        W23793  12.151   6.208   1.758
51369W        W23794  36.525  26.487  11.874
51370W        W23795  43.996  15.138   1.229
51371W        W23796  21.573  16.810  11.524
51372W        W23797   2.226  11.207   1.908
51373W        W23798  15.682  42.836  14.824
51374W        W23799   4.231   2.885   2.262
51375W        W23800   8.742  23.542   4.623
51376W        W23801  40.001  24.132  11.598
51377W        W23802  44.335   2.841   1.753
51378W        W23803   4.847  22.178  13.541
51379W        W23804  44.975  15.646  11.962
51380W        W23805  28.942  14.757  11.585
51381W        W23806  12.736  10.669  13.420
51382W        W23807  11.360  37.833  10.574
51383W        W23808   4.899  39.993   2.738
51384W        W23809   9.390  17.243   4.140
51385W        W23810  32.135  18.573   1.856
51386W        W23811  41.508   3.419   4.613
51387W        W23812  37.888  10.219   1.391
51388W        W23813  17.781  33.405   5.288
51389W        W23814  29.129  42.019   3.357
51390W        W23815  11.346  34.490   3.694
51391W        W23816   6.847   7.767  10.902
51392W        W23817   1.795   8.759  12.424
51393W        W23818   6.727  18.602  13.508
51394W        W23819   1.746  35.001   0.946
51395W        W23820  41.534   4.723  12.485
51396W        W23821  29.635  12.153   3.351
51397W        W23822  12.826  10.792  11.994
51398W        W23823  32.979  33.619  14.440
51399W        W23824  34.087  22.232  11.098
51400W        W23825  27.689  22.564   4.113
51401W        W23826  25.494  35.076   1.370
51402W        W23827  29.619  11.760   4.198
51403W        W23828  27.479  39.510   2.334
51404W        W23829  36.954  16.582  12.850
51405W        W23830  42.857  30.118   2.701
51406W        W23831   4.707   7.376   1.297
51407W        W23832  17.139  36.844   0.279
51408W        W23833  25.586   6.225  12.555
51409W        W23834  15.757  17.295  14.493
51410W        W23835  37.393   7.886   0.396
51411W        W23836  34.461  23.133  12.350
51412W        W23837  18.236  15.797  12.048
51413W        W23838  21.632  35.533  11.884
51414W        W23839  42.358  20.237   3.828
51415W        W23840  33.384  31.010   0.461
51416W        W23841  10.260   5.300  14.329
51417W        W23842   2.347  10.217  10.631
51418W        W23843  21.663  24.057  12.550
51419W        W23844   6.261   7.321  10.958
51420W        W23845  37.545  25.619   4.121
51421W        W23846   7.361   3.764   4.118
51422W        W23847   1.423   3.272  13.837
51423W        W23848  28.181  24.060  10.571
51424W        W23849  12.676   6.366   4.298
51425W        W23850  43.472  27.591   3.636
51426W        W23851   0.838  21.538   3.858
51427W        W23852  37.963   5.316  12.494
51428W        W23853  32.583  34.066  11.402
51429W        W23854  38.564   3.887   2.842
51430W        W23855  44.425  27.562   2.318
51431W        W23856   8.297  21.122  10.940
51432W        W23857  20.601   8.684  13.328
51433W        W23858  37.365  43.815  11.994
51434W        W23859   1.366  28.101  12.832
51435W        W23860  33.518   5.883  11.523
51436W        W23861  27.450   5.728   4.352
51437W        W23862  41.839   7.860   2.732
51438W        W23863   7.751  14.775  12.955
51439W        W23864  22.164  13.625  13.831
51440W        W23865  24.059  31.532   3.666
51441W        W23866  21.639  23.164   4.744
51442W        W23867  21.749  18.715   2.415
51443W        W23868  18.606  33.465   0.258
51444W        W23869  21.187  42.444   3.361
51445W        W23870  36.037  10.788   0.264
51446W        W23871  12.726   0.814  13.916
51447W        W23872  31.053  24.043  10.124
51448W        W23873   4.285  32.472  14.465
51449W        W23874  34.039  44.924  11.995
51450W        W23875  26.205   4.440  12.892
51451W        W23876  11.664  17.561   4.179
51452W        W23877  19.771  32.059  12.457
51453W        W23878  41.911  34.514   2.318
51454W        W23879  35.960  38.824   4.638
51455W        W23880   2.784  42.428  14.450
51456W        W23881   1.274   8.169   3.788
51457W        W23882  34.426  29.922  13.383
51458W        W23883  27.076  15.276  12.021
51459W        W23884   0.899  12.642  10.111
51460W        W23885  24.627  15.807  14.911
51461W        W23886   4.320  43.890  13.854
51462W        W23887  44.297  30.953   0.302
51463W        W23888  34.424  19.220  10.982
51464W        W23889  30.482  23.067  12.468
51465W        W23890  26.539   5.289  14.929
51466W        W23891  40.333  30.092  11.954
51467W        W23892  21.719  25.519   0.881
51468W        W23893  12.755  10.637   2.396
51469W        W23894  34.528   4.250   4.170
51470W        W23895  24.146  26.473  13.378
51471W        W23896  42.796   8.768  10.521
51472W        W23897  13.627   2.732  14.927
51473W        W23898  36.993  37.350   1.819
51474W        W23899  33.917  36.007  12.027
51475W        W23900  29.538   2.266   3.763
51476W        W23901  32.135  32.436  11.457
51477W        W23902  11.294  40.815  11.941
51478W        W23903  39.952  17.083   3.159
51479W        W23904  43.307   8.859  12.937
51480W        W23905  11.325  39.842   2.870
51481W        W23906   2.808   6.325   2.181
51482W        W23907  21.680  24.652   3.384
51483W        W23908  25.089  39.834   4.786
51484W        W23909  32.538  37.579  10.028
51485W        W23910  36.436   3.761   4.808
51486W        W23911  12.169  40.362   2.874
51487W        W23912  23.996  22.062  11.076
51488W        W23913  26.974  13.731   3.742
51489W        W23914   7.889   0.371  11.060
51490W        W23915  33.520  43.892   3.669
51491W        W23916  36.532  41.817  13.850
51492W        W23917  30.956   3.952  13.962
51493W        W23918   3.453  37.359  14.030
51494W        W23919  36.377  31.608   3.351
51495W        W23920   4.908  44.489   2.319
51496W        W23921  21.130  43.928  12.888
51497W        W23922   8.895   1.895  12.096
51498W        W23923  17.660   6.348  10.577
51499W        W23924  22.559  28.172   1.426
51500W        W23925  35.096  10.641  10.924
51501W        W23926   8.729  31.517  14.811
51502W        W23927  32.970  35.492  12.372
51503W        W23928  25.567  32.075  14.941
51504W        W23929  40.925  24.507  11.926
51505W        W23930  10.670  39.967   5.227
51506W        W23931  43.958  12.351  13.406
51507W        W23932  39.839   9.233  14.790
51508W        W23933  12.356  30.933   4.662
51509W        W23934  30.504  41.307   3.764
51510W        W23935   4.824   5.392   3.162
51511W        W23936  35.582  17.177   1.365
51512W        W23937   6.302   7.747  14.464
51513W        W23938  21.074  42.343  12.864
51514W        W23939  16.258  15.712   4.261
51515W        W23940  32.412  13.833  13.507
51516W        W23941  41.990  27.092  13.365
51517W        W23942  16.155  36.013  14.448
51518W        W23943  27.032  25.137  13.012
51519W        W23944   9.850  18.177   1.423
51520W        W23945  38.042   8.387   5.714
51521W        W23946  40.925   4.916   0.430
51522W        W23947   3.898  32.584  13.923
51523W        W23948  36.467  37.537  10.576
51524W        W23949  16.100  23.686   2.757
51525W        W23950  26.697  11.242  14.898
51526W        W23951   6.300  27.945   1.222
51527W        W23952  29.544  16.082  13.862
51528W        W23953  21.243  13.839   0.341
51529W        W23954   9.889   8.270  12.417
51530W        W23955  38.367  11.217   3.215
51531W        W23956   1.395   3.265   4.683
51532W        W23957  29.645  38.897  11.568
51533W        W23958  17.604  24.105   3.222
51534W        W23959   7.379  28.993   0.334
51535W        W23960  13.839  31.015  10.534
51536W        W23961  34.566  36.094   2.239
51537W        W23962   5.850   0.768   2.748
51538W        W23963  37.961  28.622  14.396
51539W        W23964  17.789  17.612  13.852
51540W        W23965  35.928  17.583   3.350
51541W        W23966  11.799  10.267  10.921
51542W        W23967  13.113   2.843   0.788
51543W        W23968  14.095  32.444  12.462
51544W        W23969  21.148  11.140   5.140
51545W        W23970  16.586   6.720  10.946
51546W        W23971  10.318  24.528  12.997
51547W        W23972  21.252  15.228  11.601
51548W        W23973  31.086  19.705   2.715
51549W        W23974  16.126   6.875   0.305
51550W        W23975  11.314  19.668   4.286
51551W        W23976   8.737  43.839   3.786
51552W        W23977  37.374  14.131   2.869
51553W        W23978  30.066  44.843   3.184
51554W        W23979   8.207   9.646  12.389
51555W        W23980   9.720  32.620  10.980
51556W        W23981  37.020   4.219  12.844
51557W        W23982  15.805  23.647  14.473
51558W        W23983  38.409   3.220  12.833
51559W        W23984  13.253  37.840   2.754
51560W        W23985  21.151  42.945  11.440
51561W        W23986   1.464  25.107  13.035
51562W        W23987  34.432  10.704   2.354
51563W        W23988  41.470   9.860   3.654
51564W        W23989  24.105  30.123  14.843
51565W        W23990  28.500  17.655  12.854
51566W        W23991   8.860  28.186   5.130
51567W        W23992  31.638  39.427   3.844
51568W        W23993  23.217   2.808  12.490
51569W        W23994  21.250  41.336   0.916
51570W        W23995   8.318  38.842  13.399
51571W        W23996  22.660  12.204   9.632
51572W        W23997  33.493  22.728  11.980
51573W        W23998  31.626  24.694   2.403
51574W        W23999  37.511  28.102  14.303
51575W        W24000   7.727  32.026   0.343
51576W        W24001  41.901  16.684   2.397
51577W        W24002  10.163   9.673   3.779
51578W        W24003  31.963   1.325   2.700
51579W        W24004  32.084  36.928   4.287
51580W        W24005  17.633  35.071   3.838
51581W        W24006  42.501  41.847  10.585
51582W        W24007  37.864  24.619   0.965
51583W        W24008  38.536  18.169   3.364
51584W        W24009  16.137   0.397   4.326
51585W        W24010  35.432  39.931   2.282
51586W        W24011  31.565  29.127  13.893
51587W        W24012  14.704  36.984   3.763
51588W        W24013  25.058  39.840   3.737
51589W        W24014   3.830  28.520  13.508
51590W        W24015   6.405  28.568   3.633
51591W        W24016  16.605  22.236  11.970
51592W        W24017  27.015  42.943   3.226
51593W        W24018   6.806  44.453  14.975
51594W        W24019  26.201  38.998   1.802
51595W        W24020   7.208  44.950  12.094
51596W        W24021  43.337   4.723   0.839
51597W        W24022  39.504  38.014  14.867
51598W        W24023   5.293   5.733   3.178
51599W        W24024  43.021   6.376   5.203
51600W        W24025  33.465  19.039  12.904
51601W        W24026  15.681  28.163   4.289
51602W        W24027  31.513  30.035  13.970
51603W        W24028  17.072  36.445  13.887
51604W        W24029  44.894  32.443   2.331
51605W        W24030  19.194   8.765   2.846
51606W        W24031  42.973  22.080  12.433
51607W        W24032  44.288  37.919   3.814
51608W        W24033  21.519  30.074  13.802
51609W        W24034   7.360  31.970  13.881
51610W        W24035  44.488  36.872  11.582
51611W        W24036  15.259  15.261   2.880
51612W        W24037  15.814  29.493  11.079
51613W        W24038   6.326   0.807   0.365
51614W        W24039  13.155  29.038  14.310
51615W        W24040   3.387   9.717   4.807
51616W        W24041   0.315  28.997   2.791
51617W        W24042   6.345  19.209   2.379
51618W        W24043   4.769  22.566  11.878
51619W        W24044  41.868  13.350   1.704
51620W        W24045  32.040   2.368  11.874
51621W        W24046  20.057  37.895   2.774
51622W        W24047  13.724  41.938  13.512
51623W        W24048   1.275  44.283  11.857
51624W        W24049  28.027  34.388   0.295
51625W        W24050   2.473  26.015  14.843
51626W        W24051  21.204   4.260   0.431
51627W        W24052  22.544  18.571   4.718
51628W        W24053  20.602  27.041  10.974
51629W        W24054  15.677  17.148  13.968
51630W        W24055   2.343  26.976  13.395
51631W        W24056  19.200  26.612   0.287
51632W        W24057  28.067  25.609  11.510
51633W        W24058  28.574  20.108   2.667
51634W        W24059  26.966  13.188   1.373
51635W        W24060   7.390  30.515   3.287
51636W        W24061  22.622  44.895   0.875
51637W        W24062  27.048  43.882  13.402
51638W        W24063  18.734  16.711   3.338
51639W        W24064   5.797  43.374  14.312
51640W        W24065  16.168  32.507  12.862
51641W        W24066  25.575   5.322  12.936
51642W        W24067   3.854  33.409  13.514
51643W        W24068  32.602  40.865  13.443
51644W        W24069  42.010   0.263   4.304
51645W        W24070  13.766  43.473  13.054
51646W        W24071  29.665  20.630   4.265
51647W        W24072  43.988  21.243  14.878
51648W        W24073   0.833  43.924  11.607
51649W        W24074  34.534  22.075  11.894
51650W        W24075   6.831   6.246  11.073
51651W        W24076   7.726  10.804  14.766
51652W        W24077  10.674   6.215   1.305
51653W        W24078  13.748  15.315  10.616
51654W        W24079  39.361  19.762  14.277
51655W        W24080  41.795  37.507   4.299
51656W        W24081  42.335  37.460   3.347
51657W        W24082  43.871  26.208  13.544
51658W        W24083  27.587  29.085  13.005
51659W        W24084   6.776  23.161  12.090
51660W        W24085  22.164  43.414  12.977
51661W        W24086  11.688   0.361  13.022
51662W        W24087  11.796   8.381  10.450
51663W        W24088  40.303  38.981   2.290
51664W        W24089  43.886   6.254  10.588
51665W        W24090   2.882  17.641   2.263
51666W        W24091  35.972  44.895  14.867
51667W        W24092  32.929  33.473  13.867
51668W        W24093  18.097   9.387  13.484
51669W        W24094  42.368  34.525  10.955
51670W        W24095  40.871  13.687   2.415
51671W        W24096  22.230   1.277  11.399
51672W        W24097  29.144  44.392  13.030
51673W        W24098  14.232  25.159   4.301
51674W        W24099  32.041  20.644  14.501
51675W        W24100   6.721  20.107  14.510
51676W        W24101  44.963  25.111  10.615
51677W        W24102  27.640  38.474  12.038
51678W        W24103  44.879  31.445   0.447
51679W        W24104  10.670  37.930  13.376
51680W        W24105  42.405  16.750  14.944
51681W        W24106  42.456  37.925  13.011
51682W        W24107  35.571  33.616  10.407
51683W        W24108   8.215   2.954   2.719
51684W        W24109  16.711  32.115   5.257
51685W        W24110  35.396  31.081   2.748
51686W        W24111  30.478  35.524   4.275
51687W        W24112  37.952  41.427  10.921
51688W        W24113  39.465  12.328   2.770
51689W        W24114  22.578  34.894   3.350
51690W        W24115  22.021  28.440  11.966
51691W        W24116  39.953  11.684  12.535
51692W        W24117   5.250  36.400   3.655
51693W        W24118  36.083  36.016  12.003
51694W        W24119   6.743  17.728  13.437
51695W        W24120  11.164   8.347  12.929
51696W        W24121  32.905  15.101   2.277
51697W        W24122  15.165  12.817  12.479
51698W        W24123  17.581   9.317   4.312
51699W        W24124  37.939  25.083   0.253
51700W        W24125  41.042   6.727   1.901
51701W        W24126  20.241  21.676  14.802
51702W        W24127  20.197  22.575  11.484
51703W        W24128  44.418  33.934  13.449
51704W        W24129   4.286  18.134  12.932
51705W        W24130  30.954  44.808   2.867
51706W        W24131  33.410   8.712   3.254
51707W        W24132  16.639   5.325  12.096
51708W        W24133  29.610  31.456   1.920
51709W        W24134  25.565  44.779  11.529
51710W        W24135   1.940  42.328  11.123
51711W        W24136  40.923   9.794  14.434
51712W        W24137  18.595  14.736   3.757
51713W        W24138  14.709   4.314   3.656
51714W        W24139   9.819  10.737  10.907
51715W        W24140   7.204  18.295  11.561
51716W        W24141   7.410  42.373  11.114
51717W        W24142   6.901  16.246   2.295
51718W        W24143  21.554  28.571   0.871
51719W        W24144  44.477  36.976   0.341
51720W        W24145  20.183  15.226  13.823
51721W        W24146  32.441  27.472   0.300
51722W        W24147  29.135  24.711  12.863
51723W        W24148   4.269  30.107   4.600
51724W        W24149  13.666   3.709   3.271
51725W        W24150  27.557  28.109   3.315
51726W        W24151   1.329  36.474  10.510
51727W        W24152  13.212  36.479   4.131
51728W        W24153   0.929  30.031   3.730
51729W        W24154  39.928  34.869   3.833
51730W        W24155  35.090  24.607  11.580
51731W        W24156  41.874  10.361   2.366
51732W        W24157   7.899   8.223   2.699
51733W        W24158  37.346   3.257   2.275
51734W        W24159  43.978   3.776  10.979
51735W        W24160  38.977  13.329   4.327
51736W        W24161  43.343  35.973  13.410
51737W        W24162  34.570  25.646   0.482
51738W        W24163   0.457  13.171  11.525
51739W        W24164  43.970  44.288  14.507
51740W        W24165  40.390  28.539  14.506
51741W        W24166  25.691   4.944  11.583
51742W        W24167  36.017  35.080  11.422
51743W        W24168   2.377  32.898   1.420
51744W        W24169  29.501  38.955  12.536
51745W        W24170  16.102  26.034  11.436
51746W        W24171  41.847   0.275  11.085
51747W        W24172  31.990   6.231  14.452
51748W        W24173   1.273  16.141  13.982
51749W        W24174  36.950  12.201   2.232
51750W        W24175  34.533  25.997  14.380
51751W        W24176  13.344   8.176  14.873
51752W        W24177  40.387  25.470   4.778
51753W        W24178  43.766  26.496   0.320
51754W        W24179   8.228  35.507   1.351
51755W        W24180  39.812  22.116   2.727
51756W        W24181  14.728  30.950  14.391
51757W        W24182  35.906  42.356   2.703
51758W        W24183  41.956  32.548   4.245
51759W        W24184  26.473  31.051  11.028
51760W        W24185  40.351  28.487   3.194
51761W        W24186  43.333  31.456   4.214
51762W        W24187  25.471  15.819   4.753
51763W        W24188  35.500  34.511  14.986
51764W        W24189  20.638  24.053   4.797
51765W        W24190  37.038  18.245   4.130
51766W        W24191  13.154  37.458  11.383
51767W        W24192  16.177  21.179   3.195
51768W        W24193  17.582  27.525  10.427
51769W        W24194  23.582   3.713  12.041
51770W        W24195  29.158   8.235   3.281
51771W        W24196  38.571  30.472   1.840
51772W        W24197  43.516  13.683  12.503
51773W        W24198  36.466  20.125   4.655
51774W        W24199  31.635  41.493  10.924
51775W        W24200  36.949   7.774  10.566
51776W        W24201  29.665  12.298   0.746
51777W        W24202  42.972  44.858   2.678
51778W        W24203  32.530  32.983   0.357
51779W        W24204  34.565  33.470  12.544
51780W        W24205  38.421  43.814   2.749
51781W        W24206   0.861   1.284   4.712
51782W        W24207  30.026  23.617  11.073
51783W        W24208  31.433  27.074  13.957
51784W        W24209  43.359  32.099  12.998
51785W        W24210  40.874  34.521   0.452
51786W        W24211   5.711  11.361  13.933
51787W        W24212  20.606  38.354  11.415
51788W        W24213  33.986  10.685   4.789
51789W        W24214  25.178  38.846  11.425
51790W        W24215  36.358  30.453  13.313
51791W        W24216  13.698  31.907   4.719
51792W        W24217  24.023  39.898  12.084
51793W        W24218  12.671  42.970   1.721
51794W        W24219  31.912  23.020  12.463
51795W        W24220  24.520  39.951  11.888
51796W        W24221  28.122  22.684  13.517
51797W        W24222  16.705  20.135  10.450
51798W        W24223  20.657   6.377   3.707
51799W        W24224  16.281  35.398   0.321
51800W        W24225  25.470  15.269   3.683
51801W        W24226  27.550  37.457   4.268
51802W        W24227  31.474  19.168   2.406
51803W        W24228  37.969  14.246  11.520
51804W        W24229  32.484  20.664  12.861
51805W        W24230  22.508  28.087  12.488
51806W        W24231  17.661  16.300   1.742
51807W        W24232  24.655  44.380  13.005
51808W        W24233  25.124  25.674   4.323
51809W        W24234  14.234  42.407   3.828
51810W        W24235  44.908  38.565   0.409
51811W        W24236  20.672  34.564  12.576
51812W        W24237  38.422  26.040  14.998
51813W        W24238  40.843  38.889  13.344
51814W        W24239   4.800  13.627  11.594
51815W        W24240  39.545  38.980  14.372
51816W        W24241   3.275  16.733  12.344
51817W        W24242  15.795  22.248  11.896
51818W        W24243  44.980  11.698  13.948
51819W        W24244  13.625  37.851   1.239
51820W        W24245  10.300   0.900   3.784
51821W        W24246  40.486  15.778   0.250
51822W        W24247  22.110  29.029   0.396
51823W        W24248  34.483  38.507   3.797
51824W        W24249  42.888   2.329   1.251
51825W        W24250  11.762  21.662   4.154
51826W        W24251  16.666  26.664  10.989
51827W        W24252  27.131  21.756   2.405
51828W        W24253  33.424  17.066  11.952
51829W        W24254  19.156   7.876  11.587
51830W        W24255   0.929  36.537   1.819
51831W        W24256  21.182  24.700   4.207
51832W        W24257  37.074  37.501   2.325
51833W        W24258  27.989  26.103  14.781
51834W        W24259  36.577  42.784   2.814
51835W        W24260  25.005   9.223   5.277
51836W        W24261  15.252  31.083  11.438
51837W        W24262  30.946  31.063   3.311
51838W        W24263  12.614  15.100  13.808
51839W        W24264  21.217  22.128   3.708
51840W        W24265  37.047  17.119   3.269
51841W        W24266  13.770  10.304   3.642
51842W        W24267  38.551  18.590   4.212
51843W        W24268  15.304  38.887  10.571
51844W        W24269  10.153   3.742  14.763
51845W        W24270  22.161  40.806  11.545
51846W        W24271   2.955  33.385   1.892
51847W        W24272  44.444  40.442   1.746
51848W        W24273  37.579  30.950   1.367
51849W        W24274  15.776  24.533   1.928
51850W        W24275  37.074   7.877  11.911
51851W        W24276   8.772  42.363  14.506
51852W        W24277  32.470  25.030  14.010
51853W        W24278  40.918  42.969  14.400
51854W        W24279  34.532  19.103   3.258
51855W        W24280  32.009  27.052  10.590
51856W        W24281  16.198  42.313  12.967
51857W        W24282  31.628  28.537  13.393
51858W        W24283  36.042  13.650   4.790
51859W        W24284  28.508  31.023   3.830
51860W        W24285  12.749  31.485  14.511
51861W        W24286  13.808  30.587  11.550
51862W        W24287  20.659  33.505   0.358
51863W        W24288  19.282  31.609   4.774
51864W        W24289  37.081  21.747  11.459
51865W        W24290  43.443  25.712   2.347
51866W        W24291  34.418  32.540  11.909
51867W        W24292   3.810  35.568   0.841
51868W        W24293   0.427  38.920   4.309
51869W        W24294  24.602  44.312   0.369
51870W        W24295  34.088  31.440   0.246
51871W        W24296   5.241  42.876   2.217
51872W        W24297  30.576  10.716   2.693
51873W        W24298  15.259  19.067   4.761
51874W        W24299  17.089   7.295  13.815
51875W        W24300   0.964   6.379   2.311
51876W        W24301  12.745  37.914   3.185
51877W        W24302  41.042  22.033   4.718
51878W        W24303  31.554  28.638   0.957
51879W        W24304   7.179  29.482   2.680
51880W        W24305   4.833  25.100   3.703
51881W        W24306  24.557  37.915   4.731
51882W        W24307  32.481  44.370   0.366
51883W        W24308   8.351   1.732  13.936
51884W        W24309  28.954   6.321  10.560
51885W        W24310  30.449  42.868  11.032
51886W        W24311  23.635  38.031  14.829
51887W        W24312   1.479   2.916   2.251
51888W        W24313  24.670  22.564   1.789
51889W        W24314  42.958   4.843  11.871
51890W        W24315  30.127   1.338   3.823
51891W        W24316  34.592  23.640  13.450
51892W        W24317  25.575  32.409   4.250
51893W        W24318  20.245  33.480  14.857
51894W        W24319  30.142  30.507  10.445
51895W        W24320   6.726  23.119  12.387
51896W        W24321  15.686   1.397   3.746
51897W        W24322  36.469  32.046  11.495
51898W        W24323  25.588  12.737   4.701
51899W        W24324  34.551  14.164  14.330
51900W        W24325   8.389  32.416   2.249
51901W        W24326  35.410  13.753  13.368
51902W        W24327  30.020  39.538  12.436
51903W        W24328  24.643  24.995   0.926
51904W        W24329  38.922  43.407   0.358
51905W        W24330   5.801  27.634   0.260
51906W        W24331  32.141  12.186  11.974
51907W        W24332   1.935  29.545  12.924
51908W        W24333  25.549  14.732   3.758
51909W        W24334  13.109   1.359  14.496
51910W        W24335  13.169   9.669   2.404
51911W        W24336  24.017  26.057  11.014
51912W        W24337  17.656  11.804  11.035
51913W        W24338  23.202  15.581   4.274
51914W        W24339  24.082  29.639  12.441
51915W        W24340  36.525   0.967  11.552
51916W        W24341   6.267  22.232  11.463
51917W        W24342  43.997   3.408   4.341
51918W        W24343   0.463   6.223  11.394
51919W        W24344  29.568  43.495   2.243
51920W        W24345  38.335   7.359  11.373
51921W        W24346  37.894  18.079  12.538
51922W        W24347   5.351   1.952  14.332
51923W        W24348   2.354  25.509  11.476
51924W        W24349  34.376   2.238   3.654
51925W        W24350  44.956  12.350  14.368
51926W        W24351  36.978  36.405  13.923
51927W        W24352   5.749   0.464   0.807
51928W        W24353   5.701  27.177  13.023
51929W        W24354  31.412   6.877   3.157
51930W        W24355  23.106  36.392  12.413
51931W        W24356  30.912   4.931  14.897
51932W        W24357  35.359  25.482  13.978
51933W        W24358  12.758  10.374  14.473
51934W        W24359   4.931   3.910   0.897
51935W        W24360  14.757   3.913   3.672
51936W        W24361   6.902  19.590   1.334
51937W        W24362  20.167  32.576   3.651
51938W        W24363  13.264  38.009   4.222
51939W        W24364   4.327  27.046  14.295
51940W        W24365   2.455  16.675   1.770
51941W        W24366  22.543  24.100   4.837
51942W        W24367   2.299  34.539  14.792
51943W        W24368  34.003  15.712   4.765
51944W        W24369  14.195   1.870  10.901
51945W        W24370  24.146   5.310  12.002
51946W        W24371  16.241   1.449   0.457
51947W        W24372   7.304   3.247   4.630
51948W        W24373  15.167  32.587  13.394
51949W        W24374  39.924  20.129   1.930
51950W        W24375  18.149   6.388   2.687
51951W        W24376  37.528  36.478  14.345
51952W        W24377  26.570  25.522   0.952
51953W        W24378  40.805  19.205   1.780
51954W        W24379  42.920   8.253   1.879
51955W        W24380  38.010  31.002   3.193
51956W        W24381  31.519  15.682  12.854
51957W        W24382  35.583  44.286   0.768
51958W        W24383  11.369  36.470  13.809
51959W        W24384  35.520   8.655  13.000
51960W        W24385   4.355   2.890   1.811
51961W        W24386  37.082  32.057  10.538
51962W        W24387  28.555  15.209   4.732
51963W        W24388  38.348  16.731  14.397
51964W        W24389   3.820   7.377  12.970
51965W        W24390   8.745  18.284   0.317
51966W        W24391  20.127  27.659  11.009
51967W        W24392  35.996  39.375   4.341
51968W        W24393  37.569  44.294  11.570
51969W        W24394  15.222  11.213   4.795
51970W        W24395  28.598  14.241   1.724
51971W        W24396  14.148  44.477  11.606
51972W        W24397  41.004  22.733  14.474
51973W        W24398   8.306   5.333   1.439
51974W        W24399   5.320  40.945   3.273
51975W        W24400   2.779  44.417  13.991
51976W        W24401  31.544  10.741   0.876
51977W        W24402  19.166  28.933   1.905
51978W        W24403   4.334  27.633   0.369
51979W        W24404  30.580  37.561  11.537
51980W        W24405  36.923  27.080   2.329
51981W        W24406  38.513  28.464  11.077
51982W        W24407  23.687  23.595  11.076
51983W        W24408  33.032   1.242   3.692
51984W        W24409  13.200  41.025   4.166
51985W        W24410  31.091  42.303  14.458
51986W        W24411  17.272  18.290   5.161
51987W        W24412  31.136  23.190  14.970
51988W        W24413  17.115  34.444  13.374
51989W        W24414   1.769  11.824  14.498
51990W        W24415  39.433  42.985   2.412
51991W        W24416  11.214  30.620   1.823
51992W        W24417   5.200  11.305   4.730
51993W        W24418  26.991  25.543  10.427
51994W        W24419  19.730  36.932   0.283
51995W        W24420  40.038  13.153  14.387
51996W        W24421  25.550   9.884  11.960
51997W        W24422  44.905   0.745  14.462
51998W        W24423  13.115   6.706   0.810
51999W        W24424  30.479  28.600   1.444
52000W        W24425  10.357  33.424  12.855
52001W        W24426  34.507  10.184   4.651
52002W        W24427  37.018  36.094   1.242
52003W        W24428   0.840  11.239   3.201
52004W        W24429  40.952  18.602  14.003
52005W        W24430  32.887  17.736   2.396
52006W        W24431  14.279  37.578  13.926
52007W        W24432  35.986  35.450   0.899
52008W        W24433  34.914   6.261   2.220
52009W        W24434  43.368  42.991   1.304
52010W        W24435   4.371  10.799  14.904
52011W        W24436  30.526  12.275   3.690
52012W        W24437  29.544   1.941  10.638
52013W        W24438  18.560  19.175  13.833
52014W        W24439  25.665  43.831  12.486
52015W        W24440  42.820  26.604  11.940
52016W        W24441   9.245  26.695   0.392
52017W        W24442  37.469   8.184   1.733
52018W        W24443  28.931  28.664   3.733
52019W        W24444  10.260  35.095   3.856
52020W        W24445  25.126  44.975   3.724
52021W        W24446  28.940  41.465   3.680
52022W        W24447  29.600  15.162   3.270
52023W        W24448  13.171   6.354   4.824
52024W        W24449  11.198  20.685  14.965
52025W        W24450   2.307  39.872   3.720
52026W        W24451   3.352   5.347  14.825
52027W        W24452  42.936  16.628  11.448
52028W        W24453   2.822  13.842   3.694
52029W        W24454   2.294  21.132  13.424
52030W        W24455  20.055  26.031  11.008
52031W        W24456   9.188   5.819   2.836
52032W        W24457   1.888   2.398   4.831
52033W        W24458  31.114  40.902   3.640
52034W        W24459  41.304  38.833  11.104
52035W        W24460  27.646  15.203   0.879
52036W        W24461   6.879  24.725  13.329
52037W        W24462  38.999  32.528  10.057
52038W        W24463  32.039  17.227  14.363
52039W        W24464   8.718  26.674   0.761
52040W        W24465  10.646  32.413   2.687
52041W        W24466  40.010  29.623  13.955
52042W        W24467  31.913   1.793   2.252
52043W        W24468  19.235  12.773  13.489
52044W        W24469  18.626  18.622   0.248
52045W        W24470  25.095  24.193   0.881
52046W        W24471   2.425  25.977   4.200
52047W        W24472  10.693  24.975  13.887
52048W        W24473   9.307  31.539   1.390
52049W        W24474  16.788  21.726  14.398
52050W        W24475  20.085  36.923   0.359
52051W        W24476  31.150  12.753   3.687
52052W        W24477  20.156  21.624   1.393
52053W        W24478  38.532  30.080  13.807
52054W        W24479  42.934  31.580   1.318
52055W        W24480  19.069  23.071  10.982
52056W        W24481  38.500  10.827  11.456
52057W        W24482  34.967  30.533  14.942
52058W        W24483  19.588   9.179   0.361
52059W        W24484  27.173  14.657   3.705
52060W        W24485  33.018  25.600   0.275
52061W        W24486  24.113  13.338  10.441
52062W        W24487  16.079   5.828  11.077
52063W        W24488   6.209   5.225  14.321
52064W        W24489   8.866  21.739   1.339
52065W        W24490  25.482  37.055   2.830
52066W        W24491   9.174  44.810  13.953
52067W        W24492  43.289   8.804  14.459
52068W        W24493  25.692  12.780   0.754
52069W        W24494  38.544  30.138  12.040
52070W        W24495   3.842  38.003   2.679
52071W        W24496  31.909  18.224   1.282
52072W        W24497   4.865  35.522  12.344
52073W        W24498   9.876  40.884  12.992
52074W        W24499   3.898  34.594   1.830
52075W        W24500  13.184  12.729  14.806
52076W        W24501   6.864  16.810  11.381
52077W        W24502   8.385   2.961  10.417
52078W        W24503  17.090   8.219   1.922
52079W        W24504  30.474  42.862   0.257
52080W        W24505  13.664  24.629  10.439
52081W        W24506   4.212  20.109  14.316
52082W        W24507  10.141   6.234   0.445
52083W        W24508  12.775   9.201   3.250
52084W        W24509   2.396  24.481   1.755
52085W        W24510  33.406  25.667   2.690
52086W        W24511  44.475  28.149  10.520
52087W        W24512  42.441  21.230   3.292
52088W        W24513  20.253  27.517   2.329
52089W        W24514  38.539  35.893   2.844
52090W        W24515  30.600  14.785   1.246
52091W        W24516  23.635  13.254  12.414
52092W        W24517  35.494  35.990   2.740
52093W        W24518  43.438  13.298   3.629
52094W        W24519  27.649   0.802   1.431
52095W        W24520   4.240  18.174   3.867
52096W        W24521  28.053  25.620  14.353
52097W        W24522  35.095   9.654  10.954
52098W        W24523  30.524  12.178  12.829
52099W        W24524  34.577  22.644   1.360
52100W        W24525  41.914   0.382  11.390
52101W        W24526  17.589   3.932  13.399
52102W        W24527  36.417   2.297  10.508
52103W        W24528  10.197  10.211  13.904
52104W        W24529   5.437  18.137  12.936
52105W        W24530   8.332  28.983  10.939
52106W        W24531   4.429  29.611  12.529
52107W        W24532  35.538  42.881  13.056
52108W        W24533  27.677  44.268  11.876
52109W        W24534  25.160  21.749  12.067
52110W        W24535   7.690  23.681  12.052
52111W        W24536  11.254  12.246  13.843
52112W        W24537  10.296  12.206  12.504
52113W        W24538   7.382  31.058   3.217
52114W        W24539  35.530  42.986   3.682
52115W        W24540  14.197   2.954   2.772
52116W        W24541  12.698  28.622  12.045
52117W        W24542  24.531  34.453  11.020
52118W        W24543   8.371   8.685   1.425
52119W        W24544  38.897   7.240   3.746
52120W        W24545  30.553  42.935  10.601
52121W        W24546  42.007   8.191  10.536
52122W        W24547   4.254  32.105  10.940
52123W        W24548  39.849  32.608   3.703
52124W        W24549  35.917  26.610  12.349
52125W        W24550  29.614  16.210  13.308
52126W        W24551  25.675  37.558  11.963
52127W        W24552  22.673  23.159  13.016
52128W        W24553  27.039  36.526   2.358
52129W        W24554  33.382  13.745  11.099
52130W        W24555   7.779  14.142  13.964
52131W        W24556  13.172  34.064  13.484
52132W        W24557  17.583   1.454   4.686
52133W        W24558  20.536  30.034   1.224
52134W        W24559  24.695  15.183   4.706
52135W        W24560  28.480  16.241   2.198
52136W        W24561  25.580  16.116  13.428
52137W        W24562  19.192   6.877  10.913
52138W        W24563  28.586   6.715  13.803
52139W        W24564  27.626   3.265  11.008
52140W        W24565  43.901  42.281  14.825
52141W        W24566   7.202  33.892  13.451
52142W        W24567  42.395   5.271  13.904
52143W        W24568  15.612  15.271  12.533
52144W        W24569   6.223  41.812  10.588
52145W        W24570  10.845  22.615  11.924
52146W        W24571  17.159  21.071   2.847
52147W        W24572  40.011  42.893   2.300
52148W        W24573   9.707  16.758   2.223
52149W        W24574  30.582  24.975  13.488
52150W        W24575  10.232  34.470  12.345
52151W        W24576  11.177   9.234  14.280
52152W        W24577  34.603   2.303  11.122
52153W        W24578   0.446  19.550   0.845
52154W        W24579  25.968   4.300  14.926
52155W        W24580  20.629   8.833   2.317
52156W        W24581  23.734  34.542  11.433
52157W        W24582  21.557  35.986  12.461
52158W        W24583   0.311  36.010   2.359
52159W        W24584  33.016   3.277   3.850
52160W        W24585  21.724  41.976  10.434
52161W        W24586  20.072  35.396   0.744
52162W        W24587  32.500  42.433  13.455
52163W        W24588  40.905   4.848  14.278
52164W        W24589  14.113  29.445   5.270
52165W        W24590   9.335  17.216  14.019
52166W        W24591  17.623  29.992   1.912
52167W        W24592  21.183  14.129   1.313
52168W        W24593   5.225   0.372   4.132
52169W        W24594  20.115   9.665   2.830
52170W        W24595  37.483  36.427  13.035
52171W        W24596  36.399  21.135  14.866
52172W        W24597  30.599   5.373   0.473
52173W        W24598  29.064   7.833   3.317
52174W        W24599  30.494  19.725   5.144
52175W        W24600  39.484  16.232   1.903
52176W        W24601  22.710  43.482  14.869
52177W        W24602  38.936   7.278   3.386
52178W        W24603   3.284  13.623  13.971
52179W        W24604  43.808  32.433   3.865
52180W        W24605  34.486  15.257   1.727
52181W        W24606  29.107  14.114  10.546
52182W        W24607  31.073  10.839   4.711
52183W        W24608  11.317  26.573   1.927
52184W        W24609   8.829  16.314   2.757
52185W        W24610  11.185  42.962   3.370
52186W        W24611  36.514  33.555   3.349
52187W        W24612  22.666  44.396  11.901
52188W        W24613  22.237  28.553  14.848
52189W        W24614  24.982  25.590   1.736
52190W        W24615   6.754  10.322   3.698
52191W        W24616  36.922   5.193   1.763
52192W        W24617  10.772  39.399   3.267
52193W        W24618  21.728  30.930  14.382
52194W        W24619  13.741  29.980  11.865
52195W        W24620   5.731  10.218  13.851
52196W        W24621  42.353  36.847   1.373
52197W        W24622   6.886  40.997   3.717
52198W        W24623  25.692  30.100  10.489
52199W        W24624  16.293  39.841   0.857
52200W        W24625  25.175  43.797  12.393
52201W        W24626   9.844   6.708   0.892
52202W        W24627  40.349   8.250   4.150
52203W        W24628  29.502  23.102  14.866
52204W        W24629  20.206  26.994  11.903
52205W        W24630   1.388  31.991  11.491
52206W        W24631   0.749   5.352  12.845
52207W        W24632  27.984   5.271  11.064
52208W        W24633  40.514  21.512   4.281
52209W        W24634   8.231  39.546  14.001
52210W        W24635  29.597  10.816  11.594
52211W        W24636   2.922  18.566   2.827
52212W        W24637  34.076  27.475   2.709
52213W        W24638  18.291  27.656  12.046
52214W        W24639  10.317  22.589  13.542
52215W        W24640   0.428  35.928   3.716
52216W        W24641   0.447  41.493   4.762
52217W        W24642  40.386   6.286  13.333
52218W        W24643  21.257  30.969  11.120
52219W        W24644  21.597   1.791  11.412
52220W        W24645  30.591  13.166  10.425
52221W        W24646  20.099  44.963   2.205
52222W        W24647  33.022  35.067   2.401
52223W        W24648   1.915  33.436   2.403
52224W        W24649  29.175  14.823   1.888
52225W        W24650  27.997   8.849   4.301
52226W        W24651   0.455  10.294   3.864
52227W        W24652  27.470  34.052  12.550
52228W        W24653  43.325  17.075   0.296
52229W        W24654  38.434  31.024   2.318
52230W        W24655  36.931  34.507  14.918
52231W        W24656  37.432  35.862  13.949
52232W        W24657  24.100  12.157  13.793
52233W        W24658  25.520  38.041  12.378
52234W        W24659  36.037  35.962   1.853
52235W        W24660   8.878  34.418  11.070
52236W        W24661   0.370  41.900  11.430
52237W        W24662  39.855  10.805   4.268
52238W        W24663  29.076  11.168   1.224
52239W        W24664  24.987  10.837  14.963
52240W        W24665   4.846   0.884  12.946
52241W        W24666  38.975   9.386  10.440
52242W        W24667  17.747   1.800   1.406
52243W        W24668  38.963  10.778  11.023
52244W        W24669  31.579  43.449  12.348
52245W        W24670  33.979   6.759  13.001
52246W        W24671   1.415  21.048   0.322
52247W        W24672  18.603  34.484  13.474
52248W        W24673   2.749  35.579   0.481
52249W        W24674  16.729  43.959  11.871
52250W        W24675  12.358   2.399   5.635
52251W        W24676  16.261  32.958   2.790
52252W        W24677   2.779   1.969  14.857
52253W        W24678  42.008  19.630   1.869
52254W        W24679   0.988  10.195   1.265
52255W        W24680  30.527  14.713   4.340
52256W        W24681  12.268  17.199  12.448
52257W        W24682  37.460   0.487   4.295
52258W        W24683  15.746   8.394   0.803
52259W        W24684  30.966   4.719   1.410
52260W        W24685  21.051   9.187   2.365
52261W        W24686  16.738  17.272  10.950
52262W        W24687  38.388  30.423   3.869
52263W        W24688   4.806  27.477  11.011
52264W        W24689  24.196  28.081   3.785
52265W        W24690  17.556  30.570   3.782
52266W        W24691  32.953  26.127   4.301
52267W        W24692  37.344  31.077   0.787
52268W        W24693  32.077   9.289   4.707
52269W        W24694  23.130  17.228   4.294
52270W        W24695  26.528   2.310  14.474
52271W        W24696  44.462  27.664   2.899
52272W        W24697  38.542  44.862  10.936
52273W        W24698   6.297  18.247  11.112
52274W        W24699   3.899  12.676  13.792
52275W        W24700   3.872  44.757  10.609
52276W        W24701   3.872  32.635  13.032
52277W        W24702  31.588  14.593  12.412
52278W        W24703  31.477   8.831   4.239
52279W        W24704  27.109  42.481  12.407
52280W        W24705  42.904   9.387   3.760
52281W        W24706  44.486  18.709  13.954
52282W        W24707  12.311  28.645  11.894
52283W        W24708  12.854   9.726   2.707
52284W        W24709  40.942   5.308   1.230
52285W        W24710   0.834  28.049  14.797
52286W        W24711  42.484   5.205   4.808
52287W        W24712  17.227  18.280   4.732
52288W        W24713  32.435  28.945   1.363
52289W        W24714  39.831  18.668  14.024
52290W        W24715  23.643   7.682  11.963
52291W        W24716   4.255   7.847  11.003
52292W        W24717  42.930  13.168  13.408
52293W        W24718   0.487  18.724   1.282
52294W        W24719  25.635   5.866   1.748
52295W        W24720   8.869   0.978   1.756
52296W        W24721  25.964  18.630  10.542
52297W        W24722  40.960  21.642   4.705
52298W        W24723  23.548  14.111   3.159
52299W        W24724   8.350  13.704   0.881
52300W        W24725  37.395  32.513   3.272
52301W        W24726   8.669  37.853  11.397
52302W        W24727  38.053  10.281  11.062
52303W        W24728  38.460  31.421  10.617
52304W        W24729  23.532   6.253  13.970
52305W        W24730  27.469   7.866  14.785
52306W        W24731  11.193  12.734  12.396
52307W        W24732   2.318  35.926   9.995
52308W        W24733  23.146   3.280   3.863
52309W        W24734  13.629  43.837  12.045
52310W        W24735  39.825  34.867  11.561
52311W        W24736  25.993   3.863  13.363
52312W        W24737  16.809  26.961   3.809
52313W        W24738  23.521  10.359   4.752
52314W        W24739  42.957  21.240   4.764
52315W        W24740  44.897  40.042   3.343
52316W        W24741  44.903  14.663   2.218
52317W        W24742  43.484  40.542   0.476
52318W        W24743  23.154  18.205  11.429
52319W        W24744  16.191  18.225   1.303
52320W        W24745  30.606  23.705  13.491
52321W        W24746  34.962   9.259   4.250
52322W        W24747   7.693  19.174  10.904
52323W        W24748  14.172  13.607   3.866
52324W        W24749  17.296  37.341  11.887
52325W        W24750   1.421  21.633  13.312
52326W        W24751  26.669  15.230   2.750
52327W        W24752  38.552  24.061  10.913
52328W        W24753  39.414  19.205  14.325
52329W        W24754  28.107  25.568   4.189
52330W        W24755  29.140  34.423  13.339
52331W        W24756  17.753  14.202  14.823
52332W        W24757   3.836   0.423  10.503
52333W        W24758  34.084  14.827   2.209
52334W        W24759  26.658  12.274   5.162
52335W        W24760  29.057  28.640   4.648
52336W        W24761  39.890  44.414   4.199
52337W        W24762  38.909  43.424   2.417
52338W        W24763  32.069  39.478  14.467
52339W        W24764  43.821  11.356  14.300
52340W        W24765  25.604  26.959   0.285
52341W        W24766  34.580   6.756  12.068
52342W        W24767  14.747   1.831  12.445
52343W        W24768  21.684  30.430  12.055
52344W        W24769  43.348  22.137   4.709
52345W        W24770  16.667  12.668   1.292
52346W        W24771  44.365   3.291  11.946
52347W        W24772  36.460  43.351   1.791
52348W        W24773   7.230   3.251  14.486
52349W        W24774   6.385  44.333  12.835
52350W        W24775  14.828  42.923  12.578
52351W        W24776  17.155   7.905  11.523
52352W        W24777  29.611   6.856  10.993
52353W        W24778   6.232  16.120   2.208
52354W        W24779  11.799  10.830   1.843
52355W        W24780  34.600  42.347  13.855
52356W        W24781  37.533  39.985   3.308
52357W        W24782  17.766  19.746  10.907
52358W        W24783  25.082   4.444  12.832
52359W        W24784  11.221  36.921   3.800
52360W        W24785  25.129  40.825   1.925
52361W        W24786  26.124  37.086  14.402
52362W        W24787  40.901   2.387  10.459
52363W        W24788  22.695  22.574  11.451
52364W        W24789   7.856   3.413  14.289
52365W        W24790   8.383  20.565  14.400
52366W        W24791  37.078  23.985  14.313
52367W        W24792   0.309  38.850   2.335
52368W        W24793  11.635  16.298  14.425
52369W        W24794   4.442  22.148  11.111
52370W        W24795  27.539  28.160   0.329
52371W        W24796  41.409  29.511   3.223
52372W        W24797   5.368  11.126   2.899
52373W        W24798  28.066  33.046   1.271
52374W        W24799   9.800  41.408  14.917
52375W        W24800   1.337  25.176   4.772
52376W        W24801  17.145   7.870  11.002
52377W        W24802  41.363   5.896  10.953
52378W        W24803  27.006  28.444   3.858
52379W        W24804  39.399  37.020  13.995
52380W        W24805  27.040  18.267   2.834
52381W        W24806   4.387   0.789   2.416
52382W        W24807   2.792  12.254  13.934
52383W        W24808   7.347   8.340  14.923
52384W        W24809  25.964   6.416  11.571
52385W        W24810  43.377  43.824   2.739
52386W        W24811  20.047   7.752  11.481
52387W        W24812   3.380  40.869  12.996
52388W        W24813  26.103  15.596  11.889
52389W        W24814  39.360  32.392  11.994
52390W        W24815  18.077  42.443  13.929
52391W        W24816   1.885   6.359  12.845
52392W        W24817   2.967   6.211  14.451
52393W        W24818  22.213  23.535   4.173
52394W        W24819  26.645  38.858   2.239
52395W        W24820  31.506  39.917   2.776
52396W        W24821  17.637  27.631   3.750
52397W        W24822  30.642   7.834  12.878
52398W        W24823   4.239  14.285   0.809
52399W        W24824  16.257  27.532   1.901
52400W        W24825  25.526   1.418  14.769
52401W        W24826  31.464  31.005  10.630
52402W        W24827  11.340   2.930   2.723
52403W        W24828   6.693  25.157  14.393
52404W        W24829  29.498  18.708   1.227
52405W        W24830   7.410  17.639  11.882
52406W        W24831  15.752  37.368  11.100
52407W        W24832  15.581  29.117   3.185
52408W        W24833  12.647   2.876  13.806
52409W        W24834   8.707   0.812  12.907
52410W        W24835  24.639  40.499  13.899
52411W        W24836  18.758  20.631  11.032
52412W        W24837  22.008  15.275  13.870
52413W        W24838  17.569  11.666   1.391
52414W        W24839   4.412  30.467  11.452
52415W        W24840  27.961   9.164  15.000
52416W        W24841  41.828  21.537  10.916
52417W        W24842  29.510  13.260  13.482
52418W        W24843   3.361  13.308   2.891
52419W        W24844   6.910  20.118   2.316
52420W        W24845  14.246  23.230  12.901
52421W        W24846  32.124  38.397  10.444
52422W        W24847   9.302   5.865  13.853
52423W        W24848   7.878  37.872  11.587
52424W        W24849  24.587  34.599   2.776
52425W        W24850  43.864   6.197  13.831
52426W        W24851  17.605  41.982  14.821
52427W        W24852  40.027  14.758  13.400
52428W        W24853  32.069  43.952  10.138
52429W        W24854  18.187   5.714  12.518
52430W        W24855   2.733   9.266  12.469
52431W        W24856  40.923  43.501  11.426
52432W        W24857  12.857  24.021   2.772
52433W        W24858  20.646   5.918  13.951
52434W        W24859   0.473  16.189  13.967
52435W        W24860  20.743   4.241   3.222
52436W        W24861  41.516   2.807  12.067
52437W        W24862  35.031  44.811  11.057
52438W        W24863   4.417  17.655   0.862
52439W        W24864  22.678  15.130   0.849
52440W        W24865  40.804   0.404   2.887
52441W        W24866  31.576  28.006  13.311
52442W        W24867  39.046  35.018  13.017
52443W        W24868  35.999   5.317   2.308
52444W        W24869  33.081  41.431   2.190
52445W        W24870  33.413  37.867   2.696
52446W        W24871  23.237  19.259  12.021
52447W        W24872  44.320   1.263   4.173
52448W        W24873  21.240  14.669  14.876
52449W        W24874  30.988   5.433   4.718
52450W        W24875  16.777  43.906   3.287
52451W        W24876  28.014  16.122  12.501
52452W        W24877  43.941  33.622   3.258
52453W        W24878  22.566  41.476  13.944
52454W        W24879  25.470   7.715   3.671
52455W        W24880  11.301  40.507  11.545
52456W        W24881  30.035  27.941  14.310
52457W        W24882  11.735  10.850   3.227
52458W        W24883  36.917  39.424   3.648
52459W        W24884  11.242  38.927   1.397
52460W        W24885  38.006  14.097   2.197
52461W        W24886  15.793  14.742   0.401
52462W        W24887  17.170  17.081   0.259
52463W        W24888  10.789   1.960  12.825
52464W        W24889  15.787  42.454   3.794
52465W        W24890   0.818  44.359   9.960
52466W        W24891  43.367  38.846   1.428
52467W        W24892  40.009   3.726  11.890
52468W        W24893   2.280  16.636  11.884
52469W        W24894  17.304  20.038   3.823
52470W        W24895  15.655  24.554  12.499
52471W        W24896   1.920  24.664  13.436
52472W        W24897  39.047  36.433   3.682
52473W        W24898   5.274   7.861  11.379
52474W        W24899   2.786  41.956  11.419
52475W        W24900  44.762  24.594  13.017
52476W        W24901  12.651  26.004   0.343
52477W        W24902  11.861  32.964   2.206
52478W        W24903  32.410  10.157  13.519
52479W        W24904  43.902  21.591  10.484
52480W        W24905   3.292  15.197  12.498
52481W        W24906  13.613  27.128  12.416
52482W        W24907   3.320  31.034  12.538
52483W        W24908  29.583  33.624  12.512
52484W        W24909  18.180  21.066   3.300
52485W        W24910  41.006  22.084   9.525
52486W        W24911   1.917  16.644   0.375
52487W        W24912  19.187  43.471  14.804
52488W        W24913   5.286   0.257  11.389
52489W        W24914   2.950  17.301   1.803
52490W        W24915  35.384  37.946  10.445
52491W        W24916  31.480   4.286  12.952
52492W        W24917  29.649  31.530   2.260
52493W        W24918   5.203  39.479  11.019
52494W        W24919   9.840  24.521   0.411
52495W        W24920  10.188   1.880   0.278
52496W        W24921  16.241  35.591   3.667
52497W        W24922  36.845  17.762  12.952
52498W        W24923  16.092  21.569   0.884
52499W        W24924   7.338  14.695  14.353
52500W        W24925  36.425   2.411   0.939
52501W        W24926  24.045  15.700  11.025
52502W        W24927  24.046   6.701  12.370
52503W        W24928  22.680  16.783  14.359
52504W        W24929  41.914  11.677  12.076
52505W        W24930   4.343  38.011   4.718
52506W        W24931   5.203  18.245   0.740
52507W        W24932   4.804  36.385  12.876
52508W        W24933   7.376  25.116   0.812
52509W        W24934  11.183  28.444  11.483
52510W        W24935   7.815  39.866  14.485
52511W        W24936  32.535  33.920   0.394
52512W        W24937  19.736  37.907   2.349
52513W        W24938  16.295  14.825   1.744
52514W        W24939   6.322  42.381   4.162
52515W        W24940  42.351   7.771   2.306
52516W        W24941   3.867   9.796   4.775
52517W        W24942  33.560  32.081  14.003
52518W        W24943  11.746   4.384   3.273
52519W        W24944   3.268  18.651  11.410
52520W        W24945  37.399  14.293  12.941
52521W        W24946  36.590  43.776   3.279
52522W        W24947   8.318   5.861  14.361
52523W        W24948  14.594  22.130  12.071
52524W        W24949  11.657  41.009  13.038
52525W        W24950  21.560  33.066  10.418
52526W        W24951   4.832   1.925   2.317
52527W        W24952  17.226  30.438   5.109
52528W        W24953  44.797  18.124  12.925
52529W        W24954  11.334  27.985  11.004
52530W        W24955  42.011  37.558  11.537
52531W        W24956  33.456  42.807  10.434
52532W        W24957  16.142  17.084   4.835
52533W        W24958   0.751  36.931   1.828
52534W        W24959  33.070   5.273  14.824
52535W        W24960  11.216  38.005   0.422
52536W        W24961  34.511  33.070   1.845
52537W        W24962  10.185   9.876  11.984
52538W        W24963   7.243  24.105   0.925
52539W        W24964  28.017  28.142   3.719
52540W        W24965  38.411  17.697   3.655
52541W        W24966  10.253   7.177  14.856
52542W        W24967  40.807  12.777   0.850
52543W        W24968  38.964  12.779   9.966
52544W        W24969  31.540  27.519  12.042
52545W        W24970  38.984   1.404   4.798
52546W        W24971  13.322  21.515  12.560
52547W        W24972  21.105  32.014   2.679
52548W        W24973  29.462  36.080  14.466
52549W        W24974  42.327  19.655   5.726
52550W        W24975  24.145   7.358   0.294
52551W        W24976  33.451  41.385   4.640
52552W        W24977  16.272  27.168  13.459
52553W        W24978  24.675   3.803  13.062
52554W        W24979  33.936   3.836   2.847
52555W        W24980  14.150   6.809  10.430
52556W        W24981  34.024   9.687  14.502
52557W        W24982  34.395   5.355  13.360
52558W        W24983   5.835   2.447  14.999
52559W        W24984  38.849  11.226   1.315
52560W        W24985  12.787  16.296  14.793
52561W        W24986  44.285  43.364   2.781
52562W        W24987  37.832  40.518   0.291
52563W        W24988  23.031  35.888  14.965
52564W        W24989  29.982  44.335  12.884
52565W        W24990  34.906  38.883  10.997
52566W        W24991  39.480  28.485   4.735
52567W        W24992   1.766  24.627   2.406
52568W        W24993  18.191  17.585   1.814
52569W        W24994  41.887  44.259   4.182
52570W        W24995  11.694  39.022   3.792
52571W        W24996  35.884  36.564   4.159
52572W        W24997  43.474  14.239  10.611
52573W        W24998  23.728  31.997  12.421
52574W        W24999  43.807   9.890   1.285
52575W        W25000  16.717   3.307   2.679
52576W        W25001  21.218  30.598  14.361
52577W        W25002  40.029  34.533   0.853
52578W        W25003  40.849  29.028   2.847
52579W        W25004  13.711  29.060  13.421
52580W        W25005  27.099  21.158  12.956
52581W        W25006   1.311  34.598   1.717
52582W        W25007   2.827   4.761  11.073
52583W        W25008  25.085   3.773   3.307
52584W        W25009  38.387  43.852  13.832
52585W        W25010   1.914  44.786   4.318
52586W        W25011  21.582  41.457  14.304
52587W        W25012  25.650  31.632  12.871
52588W        W25013  32.071  29.589  14.425
52589W        W25014  24.647   7.848  12.838
52590W        W25015  39.935   2.870  13.317
52591W        W25016   6.904  35.057  13.497
52592W        W25017  11.702  44.839   3.207
52593W        W25018  21.243  23.541  10.511
52594W        W25019   3.228  38.830  13.443
52595W        W25020  37.384   4.733  10.481
52596W        W25021  25.689  18.677   3.866
52597W        W25022  38.891  25.602  12.578
52598W        W25023   3.427   0.437   1.378
52599W        W25024  30.046  35.481   2.266
52600W        W25025  14.727   2.846   1.910
52601W        W25026  26.673  28.664   2.184
52602W        W25027   3.241  30.092   4.604
52603W        W25028  41.954  39.478  14.306
52604W        W25029   6.407  31.500  14.913
52605W        W25030  30.533  34.461   1.272
52606W        W25031  28.565   7.911   3.321
52607W        W25032  26.491  14.722  14.432
52608W        W25033  19.599  36.032   0.462
52609W        W25034  40.839  13.105   3.828
52610W        W25035  17.176   1.894  11.450
52611W        W25036  25.975   9.233   4.694
52612W        W25037  15.309  27.057   0.836
52613W        W25038  40.023  23.499   0.361
52614W        W25039  39.841   7.821   1.796
52615W        W25040  44.503  12.237  13.993
52616W        W25041  28.118  27.450  10.947
52617W        W25042  10.237   6.353  12.038
52618W        W25043  10.662   5.705   1.423
52619W        W25044  36.382   9.696  12.015
52620W        W25045   9.749  26.497  14.940
52621W        W25046  15.647   7.684   1.882
52622W        W25047  23.695  17.081   4.350
52623W        W25048  15.095   3.329  13.367
52624W        W25049  12.187  40.318  13.411
52625W        W25050  14.112  34.115   4.774
52626W        W25051  38.949  39.957  12.389
52627W        W25052   6.225  43.773   1.426
52628W        W25053   7.763  44.782  13.020
52629W        W25054  15.709  27.632  12.045
52630W        W25055  27.095  19.245  10.910
52631W        W25056  42.403  17.204   2.317
52632W        W25057  20.701  22.110   1.781
52633W        W25058   4.234  12.149   0.779
52634W        W25059   4.729  37.938  13.026
52635W        W25060   7.210   1.414  11.543
52636W        W25061   6.890  41.947   4.648
52637W        W25062  11.144  41.991  11.372
52638W        W25063   2.284  10.697   3.807
52639W        W25064  29.480  20.733  13.821
52640W        W25065  16.244  17.686  12.889
52641W        W25066  17.703  23.171  13.998
52642W        W25067  17.093  19.584  13.505
52643W        W25068  43.851  38.472  12.928
52644W        W25069  16.719  11.769  12.065
52645W        W25070  43.779  16.148  12.402
52646W        W25071  26.589  43.939   3.700
52647W        W25072  33.959  26.152   1.347
52648W        W25073  15.604  31.076   3.342
52649W        W25074  30.507  25.174   3.843
52650W        W25075   4.915  44.881  11.379
52651W        W25076  34.382  32.127  10.483
52652W        W25077  16.649  17.765   2.411
52653W        W25078   4.899  40.428  12.376
52654W        W25079  29.614  19.276   4.211
52655W        W25080  31.974   8.278   1.739
52656W        W25081  12.336   0.764   1.787
52657W        W25082  14.730   7.270  14.935
52658W        W25083   2.821  39.401   2.760
52659W        W25084  43.330  41.802  10.472
52660W        W25085  10.660  28.052   4.734
52661W        W25086  11.201  37.037  13.521
52662W        W25087  35.475  21.126  11.590
52663W        W25088  30.469  13.133  14.334
52664W        W25089   1.828  35.373  12.558
52665W        W25090  24.675  34.894  10.575
52666W        W25091  32.624  19.717   3.666
52667W        W25092  28.966  21.666   1.776
52668W        W25093  36.976  12.680  12.566
52669W        W25094  16.694   0.773   2.200
52670W        W25095  32.075   0.352  10.143
52671W        W25096  24.686  22.653  14.768
52672W        W25097  22.679   2.822   3.770
52673W        W25098  28.553  18.099   0.376
52674W        W25099  25.002   7.671   0.367
52675W        W25100  33.090  17.096  14.771
52676W        W25101  26.667  37.474  12.918
52677W        W25102   1.267  18.737  11.514
52678W        W25103  23.736   2.455   4.183
52679W        W25104  15.587  37.905  10.511
52680W        W25105  26.189  37.077   4.187
52681W        W25106  31.066  17.288   2.794
52682W        W25107  14.144  17.265  13.824
52683W        W25108  28.671  13.237   3.847
52684W        W25109  15.085  31.062  12.389
52685W        W25110  18.271   3.807   4.277
52686W        W25111   9.286  36.451   1.313
52687W        W25112   8.764  26.109   0.417
52688W        W25113  24.659  27.981  13.318
52689W        W25114  19.166  22.524  13.927
52690W        W25115  16.188  39.951  12.051
52691W        W25116  38.932  12.783   2.200
52692W        W25117  23.646  33.548  11.865
52693W        W25118   9.664  14.692   3.726
52694W        W25119  29.610  30.466  11.128
52695W        W25120  24.103  18.734  14.026
52696W        W25121  31.542  12.229   2.338
52697W        W25122  12.782  38.041  12.408
52698W        W25123   9.809  24.699  13.970
52699W        W25124  25.636  15.584   3.743
52700W        W25125  35.946   3.812   0.943
52701W        W25126  28.575  27.670  13.822
52702W        W25127  25.105  27.019   3.327
52703W        W25128  39.053   8.358   3.677
52704W        W25129   6.780  16.728  13.351
52705W        W25130  22.084   7.854  11.000
52706W        W25131  22.214  18.745   0.274
52707W        W25132   8.829  41.399   3.160
52708W        W25133  17.693   0.447   3.172
52709W        W25134  15.680  17.245  12.973
52710W        W25135   6.682   6.681  10.906
52711W        W25136  25.549  17.566   1.449
52712W        W25137   6.307   1.274   3.206
52713W        W25138   7.187  10.824  13.026
52714W        W25139  25.555  22.555   3.688
52715W        W25140  26.457  42.824   0.842
52716W        W25141  29.601  11.367   3.645
52717W        W25142  44.262  11.801   2.274
52718W        W25143   2.329  19.672   2.290
52719W        W25144  22.718   8.806   5.300
52720W        W25145   7.388  28.004   3.157
52721W        W25146  32.440  19.594   3.385
52722W        W25147  26.089  27.022  11.415
52723W        W25148  39.509  36.873  11.005
52724W        W25149  16.604   2.429   4.606
52725W        W25150  42.024  41.335   4.283
52726W        W25151  40.354  32.029  12.930
52727W        W25152   5.363   7.762   2.205
52728W        W25153  21.021  12.324  12.004
52729W        W25154  24.506  43.294   4.221
52730W        W25155  25.096   5.751   2.198
52731W        W25156  31.109  30.582   1.694
52732W        W25157  38.484  11.754   0.734
52733W        W25158  16.797  33.611   2.208
52734W        W25159  23.239   8.192  14.389
52735W        W25160   2.441  22.068   3.659
52736W        W25161  22.167  18.064   3.677
52737W        W25162  22.251  36.025   1.276
52738W        W25163  38.379  21.051   3.866
52739W        W25164  44.461  19.270  10.966
52740W        W25165  27.029  30.004  13.867
52741W        W25166   3.406  33.879   1.389
52742W        W25167  34.011  15.161  14.327
52743W        W25168  31.967  28.546   1.757
52744W        W25169   2.720  15.581   3.667
52745W        W25170  13.759  26.597  14.389
52746W        W25171  16.133   0.983   0.947
52747W        W25172  15.787  36.467  11.596
52748W        W25173   7.758  33.625   2.413
52749W        W25174   7.403  44.841   3.811
52750W        W25175  32.060   3.757   1.874
52751W        W25176  12.330   2.808  13.811
52752W        W25177  40.442  27.079   2.792
52753W        W25178  31.447  28.069  14.923
52754W        W25179  35.993  15.620   5.259
52755W        W25180  15.777  10.725  12.552
52756W        W25181  40.531   6.300  13.890
52757W        W25182   4.859  39.354  11.492
52758W        W25183  17.764  40.820  13.897
52759W        W25184  38.992  38.998  11.883
52760W        W25185  20.732  35.525   4.211
52761W        W25186  18.601  44.960   4.283
52762W        W25187  36.472  37.001  13.854
52763W        W25188  30.121   2.401  10.445
52764W        W25189  13.233  25.669   4.796
52765W        W25190  14.154  39.888  14.795
52766W        W25191  23.018  16.602   0.931
52767W        W25192  17.620  41.381  10.437
52768W        W25193  42.432   3.305  12.432
52769W        W25194  23.663  35.464  11.942
52770W        W25195  41.881   8.888  14.515
52771W        W25196   4.879  17.183  13.912
52772W        W25197   6.427   0.783  14.351
52773W        W25198   7.329  20.528  12.906
52774W        W25199  34.891  23.546  14.338
52775W        W25200  26.499  19.162  13.544
52776W        W25201   6.874  44.469  12.390
52777W        W25202  26.133  20.564   0.287
52778W        W25203   7.886  14.278   0.256
52779W        W25204  35.526  14.289   4.152
52780W        W25205  38.012  43.800  11.901
52781W        W25206  34.022  10.289  10.988
52782W        W25207  28.668  16.309  11.073
52783W        W25208   7.687  35.557  11.389
52784W        W25209  20.265  16.299  11.415
52785W        W25210  14.622  13.642  14.789
52786W        W25211  17.663  33.615   1.702
52787W        W25212  37.515  19.661  14.428
52788W        W25213  43.506  35.917  11.498
52789W        W25214   2.793  42.336   3.189
52790W        W25215   5.863  10.341   2.393
52791W        W25216  44.378  23.124  13.925
52792W        W25217  35.903   8.756  13.450
52793W        W25218  12.624  26.972   2.309
52794W        W25219  20.272  13.246  13.548
52795W        W25220  18.775  31.945  11.473
52796W        W25221  14.768  43.909  13.839
52797W        W25222   5.359   2.251   2.406
52798W        W25223  29.542   5.263  12.064
52799W        W25224  43.510  36.925   4.186
52800W        W25225  35.871  24.704  12.012
52801W        W25226  17.182  10.641   0.949
52802W        W25227   7.211  28.150   3.634
52803W        W25228  18.744  26.672  11.432
52804W        W25229   3.928  28.976   0.912
52805W        W25230  30.923  37.050  12.082
52806W        W25231  17.100  13.212   3.733
52807W        W25232  25.513   1.386  11.932
52808W        W25233  41.436  29.169  10.427
52809W        W25234   3.914   7.355  11.479
52810W        W25235  33.427  42.946   5.317
52811W        W25236  29.530  29.469  14.011
52812W        W25237   4.344  22.249  13.959
52813W        W25238  20.107  41.384  14.030
52814W        W25239  11.164  31.565   1.400
52815W        W25240   8.688   3.383  12.417
52816W        W25241  41.523  38.973  12.425
52817W        W25242  36.405  32.968  12.540
52818W        W25243   0.862  27.660   4.615
52819W        W25244  43.827  11.168  14.957
52820W        W25245  11.642  13.112  12.088
52821W        W25246  26.541  32.032   5.215
52822W        W25247  41.955  41.529   3.735
52823W        W25248  40.892  19.170   0.253
52824W        W25249  14.142   7.356   0.282
52825W        W25250  25.583  17.277   1.427
52826W        W25251  14.735   7.303   0.809
52827W        W25252  26.181  16.258  10.975
52828W        W25253  12.148  42.526   2.725
52829W        W25254   9.168  32.620   2.412
52830W        W25255   4.772  23.551   3.353
52831W        W25256  42.501  30.993   3.235
52832W        W25257   0.826  22.740  10.605
52833W        W25258  25.196  34.419   4.611
52834W        W25259  31.562   1.357  10.504
52835W        W25260  41.369  38.827   4.131
52836W        W25261  14.235  28.076   3.222
52837W        W25262  11.685  19.718  14.276
52838W        W25263  40.843  17.638  11.881
52839W        W25264   4.851  38.534   1.431
52840W        W25265  24.200  41.345   0.244
52841W        W25266  29.520  28.536   4.606
52842W        W25267   3.745  36.997  10.473
52843W        W25268  34.979  24.556  11.877
52844W        W25269  36.520  13.332  11.519
52845W        W25270  34.544  26.584  12.398
52846W        W25271  37.482  22.027  14.870
52847W        W25272  29.527  16.250  12.055
52848W        W25273  21.260  35.583  12.041
52849W        W25274  44.876  34.891  13.020
52850W        W25275  27.960  41.381  14.931
52851W        W25276  11.308  13.768   2.231
52852W        W25277  30.063   3.855   1.362
52853W        W25278   3.394  23.111  14.505
52854W        W25279  36.956  14.803  13.929
52855W        W25280  29.517  41.383  14.374
52856W        W25281  26.489  43.395   0.911
52857W        W25282   5.381  38.384  11.473
52858W        W25283  39.820  26.626   0.455
52859W        W25284   9.362  23.083  14.008
52860W        W25285   8.392  37.073   1.817
52861W        W25286   3.444  41.313   3.633
52862W        W25287  37.406  31.043  12.393
52863W        W25288  21.590  40.007  11.583
52864W        W25289  33.475   4.324  11.399
52865W        W25290   2.327  23.491   5.249
52866W        W25291   9.771  16.575  14.354
52867W        W25292  18.764  43.496   0.962
52868W        W25293   4.801  13.298   0.261
52869W        W25294   4.874   5.255   3.646
52870W        W25295  41.039   6.410   3.823
52871W        W25296  33.046  35.995  12.876
52872W        W25297   7.353  32.437   3.354
52873W        W25298   4.410  33.106  12.458
52874W        W25299  35.392  43.456   3.655
52875W        W25300  10.165  11.779  14.957
52876W        W25301   6.301  15.133  11.554
52877W        W25302  14.641  17.683   1.406
52878W        W25303   0.951  10.834   1.293
52879W        W25304   2.321  35.590  12.346
52880W        W25305   1.793   8.392  10.459
52881W        W25306  30.917  19.148  13.323
52882W        W25307  18.674  31.587  10.915
52883W        W25308  41.956  40.480  12.405
52884W        W25309   6.308  24.043   0.373
52885W        W25310  24.481  41.414   2.821
52886W        W25311   9.231  14.784   1.294
52887W        W25312  36.522  27.953   3.780
52888W        W25313  42.418  23.072   5.782
52889W        W25314  16.666   8.746  14.313
52890W        W25315  23.212  32.594  14.845
52891W        W25316  17.658  12.177  11.612
52892W        W25317  10.779   8.774  14.032
52893W        W25318  37.405  20.165   3.288
52894W        W25319  41.358  26.047  10.449
52895W        W25320   7.763  26.701  11.058
52896W        W25321   3.910   1.957   1.908
52897W        W25322  19.066  31.943  10.891
52898W        W25323  17.701  13.763  13.828
52899W        W25324  27.139   1.751   2.416
52900W        W25325  16.174  33.466   5.259
52901W        W25326   9.844  14.125   2.672
52902W        W25327  12.838   9.160   0.402
52903W        W25328  25.508   0.904   2.884
52904W        W25329  11.324   3.923   3.689
52905W        W25330   0.814  29.046  12.445
52906W        W25331  44.872  34.899   4.720
52907W        W25332  18.558  33.075   3.237
52908W        W25333  23.568  26.012   4.184
52909W        W25334  37.420  35.443   4.138
52910W        W25335  41.462  11.718  14.302
52911W        W25336   7.333  42.915  11.454
52912W        W25337  44.901  20.709   2.332
52913W        W25338  12.638  43.987  13.501
52914W        W25339  17.294   4.818   3.203
52915W        W25340  11.324  19.230   0.759
52916W        W25341  38.415  19.651  11.438
52917W        W25342  39.540   2.268   1.412
52918W        W25343  31.049   1.834  13.044
52919W        W25344  21.153   8.184  12.933
52920W        W25345   6.227  44.926   1.808
52921W        W25346  38.031  40.048   4.283
52922W        W25347  37.525  22.678  11.403
52923W        W25348  20.195  25.182   1.383
52924W        W25349  28.590  16.635  14.378
52925W        W25350   6.906  34.428   4.765
52926W        W25351  39.379  36.533   0.815
52927W        W25352  16.257  33.555  10.957
52928W        W25353  19.544  39.009   0.341
52929W        W25354  25.002   6.375  14.463
52930W        W25355   7.690  39.421   4.306
52931W        W25356   7.700  34.541  13.854
52932W        W25357  25.095   2.797   4.179
52933W        W25358  27.027   8.670  14.454
52934W        W25359  11.329  30.651  11.869
52935W        W25360  24.066  41.448   2.325
52936W        W25361  36.035  32.464   1.898
52937W        W25362  31.048  14.761   2.269
52938W        W25363  27.570  17.212  10.892
52939W        W25364  15.182  29.624   2.775
52940W        W25365   7.700   8.701  13.867
52941W        W25366  40.486  17.150   0.444
52942W        W25367   2.895  29.485   3.379
52943W        W25368   9.677  43.790   0.479
52944W        W25369  41.921   6.377   2.184
52945W        W25370  29.937  31.954   1.897
52946W        W25371  20.680  43.346  13.348
52947W        W25372  31.135  43.414   3.643
52948W        W25373  13.238  34.021   1.905
52949W        W25374  36.507   0.376  12.863
52950W        W25375  11.206  14.765  11.475
52951W        W25376  16.179  17.623   0.807
52952W        W25377  16.652  18.686   1.727
52953W        W25378  41.018  32.064   0.854
52954W        W25379  24.724  31.565  11.949
52955W        W25380  31.938  32.120  11.953
52956W        W25381   8.371   4.705   3.741
52957W        W25382  12.680  41.934   3.814
52958W        W25383  28.015  37.519   1.234
52959W        W25384  28.589  27.572  11.416
52960W        W25385  39.018  41.958  14.822
52961W        W25386  17.614  44.277   4.301
52962W        W25387  42.935   3.772  10.939
52963W        W25388  16.637  17.746   1.297
52964W        W25389  17.251  33.965   5.670
52965W        W25390  26.670  14.728   2.833
52966W        W25391  35.419  31.544   0.765
52967W        W25392  40.900  20.526   0.932
52968W        W25393  31.435  28.484   3.334
52969W        W25394   9.815  10.267  13.865
52970W        W25395  11.321  18.171  14.422
52971W        W25396  29.580   1.822   4.660
52972W        W25397   6.285  19.720   3.650
52973W        W25398  36.864  43.862   0.292
52974W        W25399  36.090  18.077   4.827
52975W        W25400  43.966   9.811  11.909
52976W        W25401  23.691  15.092   1.410
52977W        W25402   5.209  10.156  10.618
52978W        W25403  10.250  37.838   2.839
52979W        W25404  34.605   1.426  13.818
52980W        W25405  38.874  31.591   2.310
52981W        W25406  21.644  29.990  12.439
52982W        W25407  25.621  33.895  14.955
52983W        W25408  41.828  23.079  12.414
52984W        W25409  20.537   8.269  11.377
52985W        W25410   9.327  12.811   4.297
52986W        W25411  42.522   5.306   3.177
52987W        W25412   9.186  36.490   3.761
52988W        W25413  17.739   1.786  12.028
52989W        W25414  10.268  11.769   0.318
52990W        W25415  15.588  39.961  11.401
52991W        W25416   8.896  35.863   2.685
52992W        W25417  31.407  30.992   3.320
52993W        W25418  26.104   1.340  11.573
52994W        W25419  10.811  10.823  12.947
52995W        W25420  38.855  23.125   3.158
52996W        W25421   4.895  42.933  10.637
52997W        W25422  25.043  41.472   4.731
52998W        W25423  37.012   0.891  11.040
52999W        W25424  29.440  33.606  13.351
53000W        W25425  42.292  25.651   4.649
53001W        W25426  40.367   9.308  14.451
53002W        W25427   5.748  35.464  10.631
53003W        W25428  42.333  19.696  10.421
53004W        W25429  21.090  23.179   1.888
53005W        W25430   6.676  22.161   2.384
53006W        W25431  23.232  13.217  11.865
53007W        W25432  17.100   6.842   4.240
53008W        W25433  42.809  42.465   2.235
53009W        W25434  37.494  28.039   4.349
53010W        W25435   5.767  23.501   3.816
53011W        W25436  33.978  25.475  12.048
53012W        W25437  35.547   6.885  12.993
53013W        W25438  24.629  19.058  12.856
53014W        W25439  26.970  44.950  11.101
53015W        W25440  38.862  18.254   3.748
53016W        W25441  37.933   8.729  11.475
53017W        W25442  32.518  27.527   2.665
53018W        W25443  26.063  21.091  11.406
53019W        W25444  18.213   5.721   3.250
53020W        W25445  41.912   2.420   2.382
53021W        W25446  30.117   9.233  13.826
53022W        W25447  15.583  38.983   4.117
53023W        W25448   7.815  30.105   3.315
53024W        W25449   8.308   8.763  12.511
53025W        W25450   8.668  28.480  10.614
53026W        W25451  13.153  38.335  10.980
53027W        W25452  23.091  21.226  10.107
53028W        W25453   1.935   5.725  14.305
53029W        W25454   6.695  25.186   4.755
53030W        W25455  32.430  22.141   3.860
53031W        W25456  36.579  22.216   0.955
53032W        W25457   5.692  22.199  14.464
53033W        W25458  17.694  30.980  13.974
53034W        W25459  23.539   9.785  10.096
53035W        W25460  27.956   4.825   3.693
53036W        W25461   1.891  21.620   0.321
53037W        W25462  41.393  25.165   0.411
53038W        W25463  33.596  31.102  13.493
53039W        W25464   5.808  34.113   4.643
53040W        W25465  11.327  24.655   1.812
53041W        W25466   0.778  33.079  13.882
53042W        W25467  44.475   0.944  14.468
53043W        W25468   4.420  14.328  11.979
53044W        W25469  20.562  40.969  12.418
53045W        W25470  26.002  33.044   2.881
53046W        W25471  28.495  32.944  13.849
53047W        W25472  21.239   6.846  10.406
53048W        W25473  42.020  31.144   3.670
53049W        W25474  15.616  20.218  14.951
53050W        W25475  24.111  29.941  11.896
53051W        W25476  38.555  26.056   4.349
53052W        W25477  42.501  43.442  11.947
53053W        W25478  43.469  24.719   4.130
53054W        W25479  42.784  15.099  10.511
53055W        W25480  26.037  19.685   4.614
53056W        W25481  21.659  43.908  12.355
53057W        W25482  23.985   1.334   2.250
53058W        W25483  38.971  41.920   1.838
53059W        W25484  11.715   1.471   4.797
53060W        W25485   6.204  25.056   1.709
53061W        W25486  40.365  36.554  14.973
53062W        W25487  23.736   7.889   3.166
53063W        W25488  24.229  12.707   1.788
53064W        W25489  15.804  11.729   0.303
53065W        W25490  12.285  40.825  13.548
53066W        W25491  42.459  14.774   0.460
53067W        W25492  22.586   8.245  13.946
53068W        W25493  21.598  34.923  13.943
53069W        W25494   6.696   9.333  10.621
53070W        W25495  28.118  10.768  14.304
53071W        W25496  11.740  38.515   2.266
53072W        W25497  23.197  26.465  13.398
53073W        W25498  19.231  23.722   4.208
53074W        W25499  12.729  28.105  14.330
53075W        W25500   1.404  42.496  14.774
53076W        W25501  32.561  40.499   2.264
53077W        W25502  34.544  34.979   4.681
53078W        W25503  32.098   6.891   4.729
53079W        W25504  11.330  25.569  14.437
53080W        W25505  29.989  14.245   0.810
53081W        W25506   5.231  26.550   3.160
53082W        W25507   2.339  41.324   4.759
53083W        W25508  27.494  23.124  11.070
53084W        W25509  43.345  17.206   3.751
53085W        W25510  27.037   0.333   0.833
53086W        W25511  22.216  27.977  11.049
53087W        W25512   3.785  32.571  10.563
53088W        W25513  20.149   4.856   1.320
53089W        W25514  28.525  14.239   0.284
53090W        W25515   0.801  31.490  10.622
53091W        W25516  39.548  31.915  11.882
53092W        W25517   6.270  35.531   2.256
53093W        W25518  39.972  13.118  13.040
53094W        W25519  33.062  26.995  11.990
53095W        W25520  11.270  32.487  10.922
53096W        W25521  36.565  35.003  12.569
53097W        W25522  15.186  22.542   4.133
53098W        W25523  16.752  11.127   1.928
53099W        W25524  22.145   0.284  14.336
53100W        W25525   9.338   3.911   4.685
53101W        W25526  26.186  38.050  14.296
53102W        W25527  15.200   1.948  13.329
53103W        W25528   7.221  37.365   3.261
53104W        W25529  22.007  36.923   4.210
53105W        W25530  42.846  26.133   0.842
53106W        W25531  43.437   8.313  13.833
53107W        W25532  29.936  23.051   4.232
53108W        W25533  44.260  16.263   4.794
53109W        W25534  36.868   1.959  14.002
53110W        W25535   3.414   7.722   4.689
53111W        W25536   7.740  32.624  11.068
53112W        W25537  21.161   9.850  13.421
53113W        W25538   4.307  18.723   1.266
53114W        W25539  30.021  35.058   4.795
53115W        W25540  31.136  26.977   2.308
53116W        W25541  42.384   1.405  12.969
53117W        W25542  23.653   7.299   1.752
53118W        W25543  25.041   1.442  13.960
53119W        W25544  35.983  22.130  13.971
53120W        W25545  15.773   5.735  12.829
53121W        W25546   7.374  10.300   4.166
53122W        W25547   1.301  13.620  10.430
53123W        W25548  24.151  34.069   4.805
53124W        W25549  15.222  30.426   3.157
53125W        W25550  17.190  43.274  13.367
53126W        W25551  24.533   4.381   1.408
53127W        W25552  23.545   6.691  13.520
53128W        W25553  44.954  20.630   2.751
53129W        W25554  31.975   3.367  14.375
53130W        W25555  42.991  24.678  10.901
53131W        W25556  38.030  10.689  14.763
53132W        W25557  23.179  31.972  13.854
53133W        W25558  15.734  27.679  10.947
53134W        W25559   7.312  43.952   1.312
53135W        W25560  34.504   0.978   2.272
53136W        W25561  21.221  16.650   4.834
53137W        W25562  30.926   5.343  13.012
53138W        W25563  17.148  16.143   4.769
53139W        W25564  24.127   2.330  11.110
53140W        W25565  30.088  38.983  12.962
53141W        W25566  27.946  42.413  11.922
53142W        W25567  11.203   9.228   2.305
53143W        W25568  24.119  35.471  11.519
53144W        W25569  32.992  42.516   2.352
53145W        W25570  35.929  26.481  10.558
53146W        W25571  41.412  30.079  14.415
53147W        W25572   1.365  19.102   0.761
53148W        W25573  34.974  27.000   4.340
53149W        W25574  39.966  21.193  14.316
53150W        W25575   9.265  41.861   0.752
53151W        W25576  16.096  34.875   0.838
53152W        W25577   6.203  23.160   3.186
53153W        W25578   6.872  20.042  13.310
53154W        W25579   5.848  15.747   2.897
53155W        W25580  35.983   8.210  11.513
53156W        W25581  33.394  40.941  10.418
53157W        W25582   6.688  19.603  11.534
53158W        W25583  35.530   8.387   1.322
53159W        W25584  24.693  22.536  14.382
53160W        W25585  37.549  23.549   0.400
53161W        W25586  13.700  24.512  10.932
53162W        W25587  25.638  31.429   4.611
53163W        W25588  13.297  19.085   1.247
53164W        W25589  31.118  24.587   0.939
53165W        W25590  17.296  39.339   2.701
53166W        W25591  18.080  14.114  10.590
53167W        W25592  29.987   0.838  13.340
53168W        W25593  22.551  36.867  14.336
53169W        W25594   8.833  26.058  14.759
53170W        W25595   7.774  34.117  13.047
53171W        W25596   1.825  12.275  11.060
53172W        W25597  31.079  11.304   0.470
53173W        W25598  24.044  33.406  11.971
53174W        W25599   1.799   1.434   0.265
53175W        W25600  16.587   1.367  14.853
53176W        W25601  12.618  22.512   1.272
53177W        W25602  44.889  32.463  14.345
53178W        W25603   6.864  12.180  11.408
53179W        W25604  19.533  16.095   4.772
53180W        W25605  17.113  18.745  14.813
53181W        W25606  22.588  23.674  14.970
53182W        W25607  38.048  31.492  10.604
53183W        W25608   1.451  11.165   0.914
53184W        W25609  25.093   4.717   4.274
53185W        W25610  37.500  24.705   0.371
53186W        W25611  11.650  12.653   1.299
53187W        W25612  12.222  39.344  14.498
53188W        W25613   5.814  25.086  12.571
53189W        W25614   3.381  33.480   4.778
53190W        W25615  24.698  25.179   1.773
53191W        W25616   6.786  42.340  13.543
53192W        W25617  16.725  19.051   3.333
53193W        W25618  26.627   5.715   3.835
53194W        W25619  32.964  34.911   4.645
53195W        W25620  44.827  36.589  10.592
53196W        W25621   8.693   1.887   3.690
53197W        W25622   3.910   1.475  11.471
53198W        W25623   1.358  23.614  11.102
53199W        W25624  33.420  14.254   3.826
53200W        W25625  11.852  15.329  14.330
53201W        W25626  44.265  33.396   4.726
53202W        W25627  39.817  21.544   9.961
53203W        W25628  12.693  21.652   2.739
53204W        W25629  25.211  39.921   0.358
53205W        W25630  37.938  31.450   3.792
53206W        W25631  34.897  39.508  14.005
53207W        W25632  11.727  40.921  11.380
53208W        W25633  27.030  10.743  12.895
53209W        W25634  13.806  23.704  11.973
53210W        W25635   0.949  37.080   0.294
53211W        W25636   1.312   0.881  13.338
53212W        W25637  37.009   1.466   1.894
53213W        W25638   4.350  44.938  14.389
53214W        W25639   2.865  19.092   1.242
53215W        W25640  28.647  14.662  11.061
53216W        W25641  22.545   8.163   4.825
53217W        W25642  41.015  21.181  10.069
53218W        W25643  37.527  37.379   3.787
53219W        W25644  25.063  12.171  11.084
53220W        W25645  26.693  14.630  12.921
53221W        W25646  25.690   0.277   2.867
53222W        W25647  38.432  36.395   2.682
53223W        W25648   3.763  19.153  11.109
53224W        W25649   3.824  11.202   4.250
53225W        W25650   6.260   2.402   2.854
53226W        W25651  36.361  11.658  12.942
53227W        W25652   3.427  30.129   1.708
53228W        W25653  37.836   2.857   1.406
53229W        W25654  43.327  40.870  13.872
53230W        W25655  18.698  15.607   4.125
53231W        W25656  16.764  24.662  14.834
53232W        W25657  40.040  41.294  12.953
53233W        W25658  29.462  15.112   2.747
53234W        W25659   6.271  31.474   1.360
53235W        W25660  41.401  19.668  13.000
53236W        W25661  37.881  11.189   2.860
53237W        W25662   9.775  24.091  14.371
53238W        W25663  31.039   6.407  10.028
53239W        W25664   5.288  19.264   3.266
53240W        W25665  43.985  23.122   1.210
53241W        W25666  27.556  22.502  13.960
53242W        W25667  42.906  36.591  14.463
53243W        W25668  23.044  35.567   1.226
53244W        W25669   9.358  23.182   2.317
53245W        W25670  25.513   8.287   1.746
53246W        W25671  31.021  13.165   0.264
53247W        W25672  12.183  41.427   0.352
53248W        W25673  25.659  41.918  14.409
53249W        W25674  17.642   4.388  11.894
53250W        W25675  41.934  28.586   4.135
53251W        W25676   6.250  38.408  12.528
53252W        W25677  19.224  43.768  11.892
53253W        W25678  27.966   1.882  10.644
53254W        W25679  29.918  27.963   4.601
53255W        W25680  19.116  17.275   3.646
53256W        W25681  44.429  21.064  12.456
53257W        W25682   9.375  12.283   2.898
53258W        W25683  29.628  39.860  13.393
53259W        W25684  41.357  30.923  10.890
53260W        W25685  12.241  13.777   1.798
53261W        W25686  10.859  22.555  11.021
53262W        W25687  10.834  40.969  10.914
53263W        W25688  15.240  26.537  13.870
53264W        W25689   5.691  44.363   4.321
53265W        W25690  23.555  41.898  14.336
53266W        W25691  26.643  27.590   4.284
53267W        W25692  13.779   3.347   0.324
53268W        W25693   4.299   1.351   1.926
53269W        W25694  35.444  39.873   3.358
53270W        W25695  36.985  28.034  14.951
53271W        W25696  27.962   8.285  12.000
53272W        W25697  32.066  43.271  10.974
53273W        W25698  44.826   8.162  11.582
53274W        W25699   8.194  31.911  12.911
53275W        W25700   0.420  12.164  13.059
53276W        W25701  10.276  38.055   1.697
53277W        W25702   1.284  15.750   4.701
53278W        W25703  14.136  19.715  11.563
53279W        W25704  14.757  28.437   3.329
53280W        W25705  11.623  41.820  14.364
53281W        W25706  44.986  40.493  14.418
53282W        W25707  21.606  33.601   2.817
53283W        W25708   2.723  27.496  14.898
53284W        W25709  32.564   7.742   3.793
53285W        W25710  25.026   9.366  11.606
53286W        W25711  36.911  21.218   4.802
53287W        W25712  24.055  28.954  12.897
53288W        W25713   3.311  35.068   4.218
53289W        W25714  20.035   5.932   9.969
53290W        W25715  18.667  27.027   2.758
53291W        W25716   9.660   5.393   0.357
53292W        W25717  35.485  41.797  12.069
53293W        W25718  32.601  39.867   0.914
53294W        W25719  18.092   7.203   2.765
53295W        W25720  37.395  11.165  14.861
53296W        W25721   6.862   2.896  14.822
53297W        W25722   6.376  34.071   0.436
53298W        W25723  25.216  36.576  10.918
53299W        W25724  35.394  38.026   2.321
53300W        W25725  25.114  34.529   2.728
53301W        W25726  43.275  38.370  10.892
53302W        W25727  22.710  37.958  13.410
53303W        W25728  44.484  17.622  13.943
53304W        W25729  32.458   7.888  12.483
53305W        W25730  10.247  12.856  10.109
53306W        W25731  10.688   5.326  12.432
53307W        W25732  14.700  30.413   5.217
53308W        W25733  43.873  14.665  10.521
53309W        W25734  21.626  24.634  12.427
53310W        W25735  27.623  18.123  10.408
53311W        W25736  24.678  43.477   0.339
53312W        W25737  28.035  15.124   0.825
53313W        W25738  22.522   8.847  14.967
53314W        W25739   4.371  26.698   0.286
53315W        W25740  23.493  21.125   3.172
53316W        W25741   3.407  21.153  10.933
53317W        W25742  24.580  42.393   1.271
53318W        W25743  39.879  16.199   1.742
53319W        W25744   0.286  26.162   4.186
53320W        W25745  21.560  41.792  13.431
53321W        W25746  15.144  42.990  13.419
53322W        W25747  35.543  38.040  12.390
53323W        W25748  29.141   7.870   0.961
53324W        W25749  44.815  40.940   3.744
53325W        W25750  19.683  20.076  13.013
53326W        W25751  22.105   5.932  14.470
53327W        W25752  33.462  42.420  13.455
53328W        W25753  15.142   9.774  11.878
53329W        W25754  27.510   5.867  11.877
53330W        W25755   1.834  44.477  13.509
53331W        W25756  29.135   8.219   0.951
53332W        W25757  42.831  38.459  10.485
53333W        W25758  26.200  34.540   1.289
53334W        W25759  42.507  31.013  13.479
53335W        W25760  34.550  32.986  13.389
53336W        W25761   1.773  34.972  12.850
53337W        W25762  29.552  41.344   3.266
53338W        W25763   0.294  28.480  11.962
53339W        W25764  36.045  28.139  11.567
53340W        W25765  15.201   0.471  11.922
53341W        W25766  15.173  28.550   1.387
53342W        W25767   3.774  40.053   2.665
53343W        W25768  20.691  37.506  13.322
53344W        W25769  10.816   6.750  12.553
53345W        W25770  39.045  36.476  11.437
53346W        W25771  44.776  32.573   4.751
53347W        W25772  12.251  15.701   3.849
53348W        W25773   2.919  15.297   4.149
53349W        W25774  34.555  44.813   0.827
53350W        W25775   7.294  35.966   3.385
53351W        W25776  22.041  42.293  10.974
53352W        W25777  10.661  44.399   3.174
53353W        W25778  43.383  28.641  13.397
53354W        W25779  13.622  42.396  14.284
53355W        W25780  13.846  15.723  11.943
53356W        W25781   6.244   7.911  10.427
53357W        W25782  27.993  22.632   2.241
53358W        W25783   3.906  14.707  11.980
53359W        W25784  36.392   5.760   9.968
53360W        W25785  25.984   2.397  14.453
53361W        W25786  22.113  44.918   1.297
53362W        W25787  37.452  20.109   2.339
53363W        W25788  22.562  23.076  11.379
53364W        W25789  19.090   2.401  14.297
53365W        W25790  29.597   3.885   2.296
53366W        W25791  39.393  44.947   2.289
53367W        W25792   1.471  31.492   4.224
53368W        W25793  34.036   8.310  13.501
53369W        W25794  33.413  27.024  13.818
53370W        W25795  38.497  44.498   3.715
53371W        W25796  26.652  26.552  14.461
53372W        W25797  38.037   5.769   4.340
53373W        W25798  26.041   4.303  13.383
53374W        W25799  27.985  39.982  13.866
53375W        W25800   2.267  17.644   3.328
53376W        W25801   2.908   3.888   2.788
53377W        W25802   0.403  26.091  10.509
53378W        W25803  39.443   7.749  12.534
53379W        W25804  27.457  31.037  13.852
53380W        W25805  39.975  20.690  11.420
53381W        W25806   3.279  24.186   3.169
53382W        W25807   4.891  30.550  12.879
53383W        W25808  42.408   8.295   0.914
53384W        W25809  10.644   8.325   2.341
53385W        W25810  41.981   6.233  13.367
53386W        W25811   1.380  32.932   1.430
53387W        W25812   9.688  28.174   3.262
53388W        W25813   9.884  31.488   1.253
53389W        W25814  41.844   9.815  10.982
53390W        W25815  36.438  31.152   1.328
53391W        W25816  37.007  24.519  12.980
53392W        W25817  19.283  32.019   0.354
53393W        W25818  39.475  43.360   3.298
53394W        W25819   3.289   4.440  11.100
53395W        W25820  12.177   6.380  12.979
53396W        W25821  40.936  13.115  11.870
53397W        W25822   4.418  13.721   0.736
53398W        W25823  23.061  34.539   2.337
53399W        W25824  10.749  34.100   3.863
53400W        W25825  33.389  29.956   2.383
53401W        W25826  26.542  18.770   0.365
53402W        W25827   0.248   4.408   4.141
53403W        W25828   0.272  35.360   3.798
53404W        W25829   4.804  42.822   2.768
53405W        W25830  21.667  15.330  11.057
53406W        W25831  20.269  12.765   2.878
53407W        W25832  26.661  38.840   1.373
53408W        W25833  11.136  39.422   3.868
53409W        W25834   2.298  38.872   0.417
53410W        W25835  22.111   5.918  11.035
53411W        W25836  42.526  33.497  12.536
53412W        W25837  15.656  20.255   1.834
53413W        W25838   8.336  42.977   0.326
53414W        W25839  43.315  14.121   0.764
53415W        W25840  40.437  23.196  10.404
53416W        W25841  13.805  17.782  14.296
53417W        W25842  37.478  25.606  13.837
53418W        W25843  39.035  37.948  14.790
53419W        W25844   1.389   3.835   0.816
53420W        W25845  26.006   4.735   4.167
53421W        W25846  33.598  40.921   4.193
53422W        W25847  36.375  41.816  13.342
53423W        W25848  33.972  26.653   2.203
53424W        W25849  28.439   7.903   1.698
53425W        W25850   0.780   8.203  13.994
53426W        W25851   3.217  12.220  14.313
53427W        W25852  22.996  38.334   2.180
53428W        W25853   3.947  37.081   3.328
53429W        W25854   6.829  22.562  14.465
53430W        W25855   2.461  21.117   0.821
53431W        W25856  37.464  39.367   1.423
53432W        W25857  32.127  38.015   0.266
53433W        W25858  24.076  15.641   3.815
53434W        W25859  18.145  10.305   0.884
53435W        W25860   8.343  25.640  11.473
53436W        W25861  36.577  22.595  13.820
53437W        W25862  20.072  36.351  14.916
53438W        W25863  25.193  16.723  13.028
53439W        W25864  18.183  39.028   2.790
53440W        W25865  20.054   9.163   4.263
53441W        W25866   4.254  22.210  13.309
53442W        W25867  41.815  27.163   1.830
53443W        W25868  36.979  35.093   4.122
53444W        W25869  14.650  25.994   0.929
53445W        W25870  18.105   9.300   3.688
53446W        W25871  15.771  30.147   0.331
53447W        W25872  37.022  36.472   3.323
53448W        W25873   5.340   8.277   3.196
53449W        W25874  10.293  24.981  13.829
53450W        W25875  38.991   7.895  13.868
53451W        W25876  38.453  42.926  14.859
53452W        W25877  37.482   2.418   3.639
53453W        W25878  35.101  11.624  11.914
53454W        W25879  32.128  29.541   2.386
53455W        W25880   3.290  17.077   2.309
53456W        W25881  40.548  30.594  10.938
53457W        W25882  21.209   7.902   1.774
53458W        W25883  39.886   8.301  10.967
53459W        W25884   5.283  35.988   0.274
53460W        W25885   1.284  25.643   0.921
53461W        W25886  20.631  31.070  14.409
53462W        W25887  44.786  35.878  10.933
53463W        W25888  41.506  16.740  10.938
53464W        W25889  30.539   3.298   0.308
53465W        W25890  30.628  43.322  12.463
53466W        W25891  11.350  22.535   1.805
53467W        W25892  39.991  41.886   0.955
53468W        W25893  43.780  34.996   0.792
53469W        W25894  22.635  36.056  12.398
53470W        W25895   1.903  29.146  14.399
53471W        W25896  27.159  16.142  13.809
53472W        W25897   3.827  40.441   0.777
53473W        W25898   4.425  19.114  13.470
53474W        W25899   2.740   9.720   0.754
53475W        W25900  38.840  31.998   4.640
53476W        W25901  27.592  39.430   3.191
53477W        W25902  42.347  35.006   0.869
53478W        W25903   4.234  11.230   3.275
53479W        W25904  30.591  37.027   4.311
53480W        W25905   7.739   4.349  10.961
53481W        W25906  34.072  41.871   3.292
53482W        W25907  12.714   5.396  11.115
53483W        W25908   0.363  29.172  13.031
53484W        W25909  40.019  22.687  11.520
53485W        W25910  44.443   7.806   0.399
53486W        W25911   2.892  20.073   1.223
53487W        W25912   5.420  43.315  10.911
53488W        W25913   6.788  32.548  14.832
53489W        W25914  15.083  33.414   1.840
53490W        W25915   7.310   9.284  13.971
53491W        W25916  35.566  20.254   1.784
53492W        W25917   2.231   5.418  14.846
53493W        W25918  27.584   4.419   1.324
53494W        W25919   6.250  24.678  12.943
53495W        W25920  32.434  40.804   1.399
53496W        W25921   1.326  21.730   1.830
53497W        W25922  24.603  30.514  14.925
53498W        W25923  44.293  10.808   4.170
53499W        W25924  31.538  17.211  12.363
53500W        W25925   7.836  18.125  13.905
53501W        W25926   3.441  16.672  10.441
53502W        W25927   6.195  26.038  12.042
53503W        W25928  17.679  39.906  11.567
53504W        W25929  24.078   8.718  13.968
53505W        W25930  43.924  15.705  14.331
53506W        W25931   4.847  28.599   1.841
53507W        W25932  22.644  21.562  11.488
53508W        W25933  25.010  12.152  10.587
53509W        W25934  26.545  13.705   2.701
53510W        W25935  34.077  32.134   4.260
53511W        W25936  26.954  13.198   1.800
53512W        W25937  22.141   1.738  11.986
53513W        W25938  24.533  32.953  12.988
53514W        W25939  18.667  31.459  12.567
53515W        W25940   7.667  41.845  11.962
53516W        W25941  29.632  18.705   2.189
53517W        W25942   2.394  24.562   1.334
53518W        W25943  22.597  39.434   0.316
53519W        W25944  37.435  28.080   3.221
53520W        W25945   9.197  40.305  11.875
53521W        W25946   3.941  43.506  14.356
53522W        W25947  18.711  40.951   4.703
53523W        W25948  14.702  27.508  11.516
53524W        W25949  30.928   4.367  14.324
53525W        W25950  10.286  22.030   5.298
53526W        W25951  35.426   4.887  10.947
53527W        W25952   2.804  19.270  13.360
53528W        W25953  26.997  29.559   0.756
53529W        W25954  25.995  33.035   0.467
53530W        W25955  25.075  18.696   0.257
53531W        W25956  23.204  10.663   3.173
53532W        W25957  11.203  44.358  12.912
53533W        W25958  13.781  24.994  14.926
53534W        W25959  38.994  21.216  13.809
53535W        W25960  31.432  40.864   1.241
53536W        W25961  10.280  29.595  11.550
53537W        W25962  18.054  11.140   4.183
53538W        W25963   9.720  23.691  14.346
53539W        W25964  35.937  30.971  10.495
53540W        W25965  17.214  35.499  13.513
53541W        W25966  42.337   6.201  13.965
53542W        W25967  36.995   5.425   0.253
53543W        W25968  16.605  44.961   3.207
53544W        W25969  22.690  24.568  14.409
53545W        W25970  13.262  41.035  11.538
53546W        W25971  24.184  11.364  13.491
53547W        W25972  33.493   3.801  12.827
53548W        W25973  19.550   5.366  12.496
53549W        W25974  33.579  12.235  13.442
53550W        W25975  37.970  12.269   0.880
53551W        W25976  30.439  34.969   2.333
53552W        W25977  11.298  10.305   1.731
53553W        W25978  18.288   1.282  13.949
53554W        W25979   3.894   7.848   0.769
53555W        W25980  41.418  26.013  13.903
53556W        W25981  27.025  35.503   3.334
53557W        W25982   7.380   5.756   0.406
53558W        W25983  25.567   5.264  11.374
53559W        W25984  11.634  13.674   0.413
53560W        W25985  29.599  17.289  12.507
53561W        W25986  28.650  38.032  14.940
53562W        W25987   6.259  36.558   4.279
53563W        W25988  40.010   6.821   3.172
53564W        W25989  11.672  34.524  14.808
53565W        W25990  26.486  43.831  12.395
53566W        W25991  23.701  22.542  13.323
53567W        W25992  12.810  43.913   1.420
53568W        W25993  13.812   5.228   0.965
53569W        W25994  43.370  43.869   4.622
53570W        W25995  44.903  23.555   0.279
53571W        W25996  30.568  43.934   1.742
53572W        W25997  44.909  41.985  10.471
53573W        W25998  21.646  20.219   3.162
53574W        W25999  28.130  33.079   2.204
53575W        W26000   4.212  11.193   0.438
53576W        W26001  23.730  31.616   0.298
53577W        W26002  41.004  24.174   1.779
53578W        W26003  10.766  20.604   1.706
53579W        W26004  32.494  42.815  12.940
53580W        W26005  38.365  15.287  11.920
53581W        W26006  31.491  38.461   2.827
53582W        W26007  17.640  14.217   2.768
53583W        W26008  13.719  16.628  13.056
53584W        W26009  22.530  44.327   1.698
53585W        W26010  38.478  19.148  13.414
53586W        W26011  13.739  32.986   0.922
53587W        W26012  22.167  21.190   4.687
53588W        W26013   4.277   4.418   1.376
53589W        W26014  44.951  19.727  10.570
53590W        W26015  37.353  12.218   0.293
53591W        W26016  33.001   8.366  12.392
53592W        W26017  31.088   7.910   1.340
53593W        W26018  25.033  41.896   1.777
53594W        W26019  22.158  15.191   2.846
53595W        W26020  22.616  26.172  10.112
53596W        W26021  43.388  31.042  12.951
53597W        W26022  29.557  35.930  10.895
53598W        W26023  38.844  27.051   3.209
53599W        W26024  44.777  40.846  13.981
53600W        W26025  31.542  35.950   4.231
53601W        W26026  19.733  34.867   2.670
53602W        W26027  13.178  33.956  11.012
53603W        W26028  14.134  44.928  13.003
53604W        W26029  16.670   9.681  13.991
53605W        W26030  43.884  42.986  12.347
53606W        W26031  41.298  40.440   0.249
53607W        W26032  19.662  24.540  12.836
53608W        W26033  35.965  11.697  10.492
53609W        W26034  17.074  42.359   3.697
53610W        W26035  33.921  33.442  12.526
53611W        W26036  37.024   3.816   0.833
53612W        W26037  14.232  21.722   0.804
53613W        W26038  19.642  33.921  12.044
53614W        W26039  39.977  24.109  10.429
53615W        W26040  44.457  29.552  14.796
53616W        W26041   5.285  31.437   4.120
53617W        W26042  23.110   2.873  10.989
53618W        W26043   3.268  26.693   0.436
53619W        W26044  44.447   4.421  14.369
53620W        W26045   0.757   5.376  13.514
53621W        W26046  39.057  14.098   0.298
53622W        W26047  44.821  13.278  11.001
53623W        W26048  15.123  31.539   1.365
53624W        W26049  42.363  32.072   2.178
53625W        W26050   2.823  12.205   4.725
53626W        W26051  23.630   9.295  14.883
53627W        W26052   6.773  34.430  13.994
53628W        W26053   4.745  37.358  14.811
53629W        W26054  28.986  33.033   2.675
53630W        W26055   4.351  39.346  12.846
53631W        W26056  27.593  38.044   1.443
53632W        W26057  11.621  11.808  10.454
53633W        W26058  25.016   5.905   4.128
53634W        W26059  43.323   2.900   3.197
53635W        W26060   7.270  15.288   1.250
53636W        W26061  18.761   7.852  11.101
53637W        W26062  40.864  29.139   4.696
53638W        W26063  31.994  26.692   3.815
53639W        W26064   7.859   2.909   3.680
53640W        W26065  26.647  12.168  13.437
53641W        W26066  41.475  38.525   3.254
53642W        W26067  44.502  28.992  12.079
53643W        W26068   6.256  28.540  13.056
53644W        W26069  19.597   1.784   1.748
53645W        W26070  32.109  20.038  13.533
53646W        W26071  30.631  10.350   0.778
53647W        W26072  30.137   1.944  12.981
53648W        W26073   7.766  26.559   5.149
53649W        W26074  39.911   5.880  12.051
53650W        W26075   0.342  25.610  13.832
53651W        W26076  44.799  15.583   0.913
53652W        W26077  34.517  16.678  13.383
53653W        W26078  44.378   1.397   1.705
53654W        W26079  41.814  29.948   1.707
53655W        W26080  41.959  38.422  13.969
53656W        W26081  36.590  27.448  10.587
53657W        W26082  13.607  35.964  14.956
53658W        W26083  20.118  15.279   4.336
53659W        W26084  23.155  42.376   2.233
53660W        W26085  38.921  25.569   2.259
53661W        W26086   4.320  15.138   4.218
53662W        W26087  32.559  31.541  13.447
53663W        W26088  35.551  43.419  12.533
53664W        W26089  27.947  19.611   4.812
53665W        W26090  39.033  39.509   4.344
53666W        W26091  23.102  23.118  14.944
53667W        W26092  42.465   7.370  12.879
53668W        W26093   1.749  13.203   2.861
53669W        W26094  43.775  30.585   2.347
53670W        W26095  31.937  26.973   4.257
53671W        W26096   9.723  30.645   2.769
53672W        W26097  27.002  37.448   2.320
53673W        W26098  17.258   4.354   1.862
53674W        W26099   0.977  27.557   0.900
53675W        W26100  43.389  15.213   1.414
53676W        W26101  29.104  25.652  14.472
53677W        W26102  18.260  13.713   1.248
53678W        W26103  26.627  17.070   0.962
53679W        W26104  15.684  15.240  11.540
53680W        W26105  20.625  40.458  14.979
53681W        W26106   7.844  32.996  11.561
53682W        W26107  28.598  19.568  12.931
53683W        W26108   2.327  17.094  12.057
53684W        W26109  24.981  19.246  10.959
53685W        W26110  44.347   8.344   0.910
53686W        W26111   3.288  12.202   0.309
53687W        W26112  26.188   9.295   2.341
53688W        W26113   3.398   9.386  10.545
53689W        W26114  15.686  41.466   0.955
53690W        W26115  28.563  33.522   4.197
53691W        W26116   3.420  39.822  13.852
53692W        W26117  36.013   9.354   1.902
53693W        W26118  13.155   1.732  13.058
53694W        W26119  29.167  32.446   1.705
53695W        W26120  40.549  30.521  11.398
53696W        W26121  24.079  32.430   2.851
53697W        W26122  41.800  11.803  12.913
53698W        W26123   5.708  38.055  12.082
53699W        W26124  24.723   0.298   4.723
53700W        W26125  15.615  23.512   0.278
53701W        W26126  13.341  43.457  12.000
53702W        W26127  22.509  29.945  11.380
53703W        W26128  31.152  33.428  14.883
53704W        W26129  13.148  12.697   0.355
53705W        W26130  23.183  17.286   0.778
53706W        W26131   9.263  26.545   3.791
53707W        W26132  18.690  10.226  12.425
53708W        W26133  37.398   8.402   3.780
53709W        W26134  41.800  30.966  14.389
53710W        W26135  44.969  11.748   1.438
53711W        W26136   5.418   0.747  12.061
53712W        W26137  15.091   6.319   2.723
53713W        W26138  41.360  17.692  13.422
53714W        W26139  33.588  22.582  14.972
53715W        W26140   0.486  34.454   2.773
53716W        W26141  11.777  24.717   3.667
53717W        W26142  23.578  42.783   1.827
53718W        W26143  23.705  11.323  14.413
53719W        W26144  25.518  13.125   0.895
53720W        W26145   2.931  41.333   1.842
53721W        W26146  40.835   9.214  11.026
53722W        W26147  37.914  28.474  11.057
53723W        W26148  33.611  28.446  12.416
53724W        W26149  18.074  44.979  13.932
53725W        W26150  43.278   9.188   3.183
53726W        W26151   9.216   5.411   4.276
53727W        W26152  21.651   1.835  13.916
53728W        W26153  24.153   3.875   1.212
53729W        W26154  30.029   2.835   2.813
53730W        W26155  30.095  26.087   1.260
53731W        W26156   2.862  25.969   0.792
53732W        W26157  19.772  24.087  14.028
53733W        W26158   4.707   3.366  10.157
53734W        W26159  22.727  36.480  10.936
53735W        W26160   0.260  36.412   1.930
53736W        W26161   8.356  20.239   4.664
53737W        W26162  39.943   1.454   4.817
53738W        W26163  26.076  30.024   3.371
53739W        W26164   7.864   9.250   3.850
53740W        W26165  13.703   5.206  10.056
53741W        W26166  21.107  30.965  11.528
53742W        W26167  23.110  11.189   1.927
53743W        W26168  43.785  12.618   4.277
53744W        W26169  27.018  13.197  12.470
53745W        W26170  29.155   3.799   4.801
53746W        W26171   0.387   5.699   2.835
53747W        W26172  26.574  31.133   3.709
53748W        W26173  19.062   1.460   1.845
53749W        W26174  40.430  40.326   3.191
53750W        W26175  14.624  34.535  12.364
53751W        W26176  16.158  44.782  14.994
53752W        W26177   4.257  43.438  14.317
53753W        W26178  40.516  26.035   1.319
53754W        W26179  37.064  19.137  14.798
53755W        W26180   5.335  35.400   3.664
53756W        W26181  18.584  38.394  15.000
53757W        W26182  20.655  14.768  14.306
53758W        W26183  12.806   8.301   4.811
53759W        W26184  19.263   5.704  10.621
53760W        W26185  18.725  40.840  14.376
53761W        W26186  34.057  39.039  14.307
53762W        W26187  23.650  19.273   2.756
53763W        W26188  31.460  28.530   0.322
53764W        W26189   1.906  10.347  12.004
53765W        W26190   4.246  39.033   2.693
53766W        W26191  25.214  13.769  14.947
53767W        W26192  21.097  20.030  13.496
53768W        W26193  23.688  44.882   0.905
53769W        W26194  12.223   9.235   0.853
53770W        W26195  42.820  33.423  12.869
53771W        W26196  28.681   4.879  10.926
53772W        W26197  16.779  18.157  12.949
53773W        W26198  42.398  16.078  12.426
53774W        W26199  34.581  38.399   0.875
53775W        W26200  27.019   1.477   0.914
53776W        W26201  41.791  37.989  13.468
53777W        W26202  21.135  29.529  11.991
53778W        W26203  33.978  43.985   0.919
53779W        W26204  10.717  41.350   3.351
53780W        W26205  24.062  35.904   4.133
53781W        W26206  40.997  42.948   3.659
53782W        W26207  40.403  18.165  13.829
53783W        W26208   2.790  25.058   3.187
53784W        W26209  19.253  19.265  10.993
53785W        W26210  14.596   0.407   2.731
53786W        W26211  16.083  28.170  13.510
53787W        W26212  11.764  35.368  11.556
53788W        W26213  44.821   2.753   4.306
53789W        W26214  18.106  26.667   2.854
53790W        W26215  30.912   9.297   0.885
53791W        W26216  12.361   9.216  10.460
53792W        W26217   0.925  36.457  12.453
53793W        W26218  29.103  29.450   1.716
53794W        W26219  29.083  31.971  14.507
53795W        W26220  30.587  40.447  14.001
53796W        W26221  38.328  30.582   3.149
53797W        W26222  31.132  41.514  10.059
53798W        W26223  33.959  15.604   0.293
53799W        W26224   2.434  31.554  13.034
53800W        W26225  20.262  32.479   2.766
53801W        W26226  36.090  19.121  14.932
53802W        W26227   2.384  22.603   4.801
53803W        W26228   6.898  37.551   4.188
53804W        W26229  29.004   1.321   1.424
53805W        W26230   9.643  20.120  13.973
53806W        W26231  14.167  30.016   1.751
53807W        W26232   2.257   4.767   2.783
53808W        W26233  24.024  17.133  12.064
53809W        W26234  13.221  28.027   0.945
53810W        W26235  19.124   5.372   3.705
53811W        W26236  12.173  10.728   1.707
53812W        W26237  33.490  43.272  11.005
53813W        W26238  14.652  19.595   5.194
53814W        W26239  28.573  43.011   4.347
53815W        W26240  20.173   2.396   0.726
53816W        W26241  13.827  37.371  13.533
53817W        W26242  26.146  35.080  10.449
53818W        W26243  40.329  21.708   0.730
53819W        W26244  10.197   6.729   2.711
53820W        W26245  26.556  20.212   3.649
53821W        W26246  31.926  42.408   3.718
53822W        W26247  22.747  21.719  14.300
53823W        W26248  44.924  32.890   2.757
53824W        W26249  38.439   4.818   2.302
53825W        W26250  37.578  10.873  10.629
53826W        W26251  38.994   9.873  10.567
53827W        W26252  10.236  34.609  12.977
53828W        W26253   8.339  23.991   3.331
53829W        W26254  22.549  28.150  13.454
53830W        W26255  22.037  40.430   1.916
53831W        W26256  24.521  39.467   4.680
53832W        W26257  32.616   5.299   0.789
53833W        W26258  19.119  15.142  10.427
53834W        W26259  40.431   2.291  11.958
53835W        W26260  12.233   8.273   0.959
53836W        W26261  15.783  37.953  14.797
53837W        W26262  35.517  43.285  14.821
53838W        W26263  27.156  35.453   3.727
53839W        W26264  24.590  10.298  14.965
53840W        W26265  44.906  17.670  14.980
53841W        W26266  32.043   0.296  12.961
53842W        W26267  43.839  17.248   4.316
53843W        W26268   9.889  26.579   1.884
53844W        W26269  29.963  40.471  14.331
53845W        W26270   1.367  33.927   2.889
53846W        W26271  13.800  11.132   2.301
53847W        W26272  22.614   0.421  14.409
53848W        W26273  23.220  39.897  13.458
53849W        W26274   1.264   9.659  11.108
53850W        W26275  24.039  44.303   4.740
53851W        W26276  27.582  10.284   9.967
53852W        W26277  42.349   9.827  12.432
53853W        W26278  15.618  15.809   1.700
53854W        W26279  34.375  27.191   3.806
53855W        W26280   2.874  40.518   0.462
53856W        W26281  35.090  28.577   3.840
53857W        W26282  24.065  22.619   0.775
53858W        W26283  21.039  16.582   0.285
53859W        W26284  19.122  20.036   3.146
53860W        W26285   2.380  25.962   3.330
53861W        W26286   5.215  21.205   4.829
53862W        W26287   2.241   3.344   0.247
53863W        W26288  39.922  31.532   4.617
53864W        W26289   3.851  32.951   4.661
53865W        W26290  35.964  30.539   2.281
53866W        W26291  12.771  30.056   2.663
53867W        W26292   3.277  15.790   4.606
53868W        W26293   0.464  33.101   4.338
53869W        W26294  19.638  27.010  10.572
53870W        W26295  41.922   3.458  13.501
53871W        W26296  33.434  32.074   2.344
53872W        W26297  41.386  11.140  13.798
53873W        W26298  40.958  44.297   4.183
53874W        W26299  35.382  28.486   2.692
53875W        W26300   5.334  40.810  10.552
53876W        W26301   3.387  43.892   0.908
53877W        W26302  17.123  32.905  14.916
53878W        W26303  30.929  29.159  12.370
53879W        W26304  19.559  34.547  13.396
53880W        W26305  19.562  30.415   4.724
53881W        W26306  15.608   4.774   1.251
53882W        W26307  42.337  40.548   2.825
53883W        W26308   2.819  37.566   3.199
53884W        W26309  43.847  25.643   1.354
53885W        W26310   2.361  21.747  13.347
53886W        W26311  42.444  24.647   1.272
53887W        W26312  33.117  15.127   1.895
53888W        W26313  38.961  21.159  10.932
53889W        W26314  10.721  10.318   0.351
53890W        W26315  28.666  44.870   3.324
53891W        W26316  28.981   6.697   4.221
53892W        W26317  10.359  29.037  10.474
53893W        W26318  33.381  37.359  11.999
53894W        W26319  25.027  44.408   0.454
53895W        W26320   3.345  13.701  10.611
53896W        W26321  19.123  19.232   0.389
53897W        W26322  13.185  20.710   2.707
53898W        W26323  33.508  14.199   1.833
53899W        W26324  38.996  28.024   4.783
53900W        W26325  44.987  20.268   4.640
53901W        W26326  13.731  18.140  13.463
53902W        W26327  16.200  19.133   4.176
53903W        W26328  36.891  34.089  11.598
53904W        W26329  23.560   1.377  10.510
53905W        W26330  14.635  43.948   3.701
53906W        W26331  38.978  21.630   4.312
53907W        W26332  12.309  32.621   3.364
53908W        W26333   2.874   4.377  10.477
53909W        W26334   4.307   3.309   0.783
53910W        W26335  12.730   4.303  14.350
53911W        W26336  35.020   8.297   3.723
53912W        W26337  43.894  44.353  12.028
53913W        W26338  32.632   6.230   4.695
53914W        W26339  43.360  11.746  11.024
53915W        W26340  26.605  14.598  10.919
53916W        W26341   6.752  35.460  11.959
53917W        W26342  10.293   8.184   4.269
53918W        W26343  33.477   2.245  14.882
53919W        W26344   7.786  20.255  11.022
53920W        W26345  43.345  10.316  13.999
53921W        W26346  29.982  14.164  12.523
53922W        W26347  28.971  41.417   9.641
53923W        W26348  42.858  29.036  10.591
53924W        W26349  13.171   8.660   3.207
53925W        W26350   0.851   0.393   1.241
53926W        W26351  28.617  15.750   0.739
53927W        W26352  11.340  36.496  10.494
53928W        W26353  41.984  44.856   1.883
53929W        W26354  27.187   7.398  14.820
53930W        W26355  43.875  39.347   1.701
53931W        W26356  34.445   7.894   0.344
53932W        W26357  18.209   8.766   3.344
53933W        W26358   4.437  10.855  13.825
53934W        W26359  27.680  28.072  14.812
53935W        W26360  22.597  34.986  10.067
53936W        W26361   6.797  41.386  12.007
53937W        W26362  31.970   1.777   3.793
53938W        W26363  21.545  27.630  10.422
53939W        W26364  29.476   3.785   2.740
53940W        W26365   6.372  16.202   1.223
53941W        W26366   9.720  20.712  12.072
53942W        W26367  29.043   3.852  13.940
53943W        W26368  27.124  22.503  14.891
53944W        W26369  21.241   9.257   3.632
53945W        W26370  24.028  32.619  13.903
53946W        W26371  22.008  35.603  10.582
53947W        W26372   8.333  44.825   4.791
53948W        W26373  36.980  29.509  14.916
53949W        W26374  16.176  43.317  10.580
53950W        W26375   6.387  39.904  14.770
53951W        W26376  22.229   9.149  11.015
53952W        W26377   9.374  10.698  11.550
53953W        W26378  21.192  37.889   3.273
53954W        W26379  15.619   5.354   0.378
53955W        W26380   1.268  22.525   0.885
53956W        W26381  30.567  44.887  12.082
53957W        W26382  37.483  22.560   3.317
53958W        W26383  33.601   2.233  13.337
53959W        W26384  16.611   0.453  13.915
53960W        W26385  37.508   0.487   3.650
53961W        W26386  35.367   9.354  10.111
53962W        W26387   1.465  22.118  10.614
53963W        W26388  35.407   4.275   0.884
53964W        W26389  38.882  24.984   1.230
53965W        W26390  18.604   3.793  13.872
53966W        W26391  35.929  37.551   3.631
53967W        W26392  17.260  39.558  14.912
53968W        W26393   1.845   7.276  12.479
53969W        W26394  10.795  44.875  13.000
53970W        W26395  14.127  15.795  11.606
53971W        W26396  41.313  28.507  14.325
53972W        W26397   5.266  20.554   4.747
53973W        W26398  41.935  31.530  12.087
53974W        W26399  29.636  12.314   4.231
53975W        W26400  16.710  38.896   0.761
53976W        W26401  23.068  24.038  13.534
53977W        W26402  43.503  44.429  14.315
53978W        W26403   7.383   6.325  11.506
53979W        W26404  26.468   9.843   0.469
53980W        W26405  14.297  14.148   3.310
53981W        W26406  32.053   4.936   1.425
53982W        W26407  15.601  14.690  14.458
53983W        W26408  35.575  16.270   4.734
53984W        W26409  37.844  28.650  10.557
53985W        W26410  36.995  11.739   1.265
53986W        W26411  32.416  42.413  10.568
53987W        W26412   7.366  11.786   0.295
53988W        W26413  26.103  20.029  11.591
53989W        W26414  10.829  25.580  13.961
53990W        W26415  30.143  17.064   4.296
53991W        W26416  12.762  18.134  10.439
53992W        W26417  41.316   9.724   0.421
53993W        W26418  36.473  32.570  14.860
53994W        W26419  44.901  31.058   9.617
53995W        W26420   2.350  39.998  13.512
53996W        W26421  35.364   5.352  10.460
53997W        W26422  11.651  30.144   4.818
53998W        W26423   3.277  17.573  13.903
53999W        W26424  32.464  26.527  11.947
54000W        W26425   7.767  23.218   4.330
54001W        W26426  27.667  21.139  10.635
54002W        W26427  14.153  13.706  14.022
54003W        W26428  30.060  13.344  10.441
54004W        W26429  27.038  31.450   2.900
54005W        W26430  31.044   3.946   4.213
54006W        W26431  33.576  22.511   0.931
54007W        W26432  17.249  26.693  12.421
54008W        W26433   1.842  34.506   0.955
54009W        W26434  35.868  27.058   2.334
54010W        W26435  30.999  11.660   0.461
54011W        W26436  12.729  23.594   2.884
54012W        W26437   7.897   3.808  13.398
54013W        W26438  40.967  19.218   2.367
54014W        W26439  31.057  42.810   4.242
54015W        W26440  25.093   6.699  10.496
54016W        W26441  16.094   5.374   3.221
54017W        W26442  44.365   9.192  12.994
54018W        W26443   4.276  32.578   1.386
54019W        W26444  35.087   5.213  12.034
54020W        W26445  44.994  32.971   0.362
54021W        W26446  32.966  41.371  13.359
54022W        W26447   8.317  38.361  12.562
54023W        W26448  19.125  33.912  10.926
54024W        W26449   2.465  15.584  14.439
54025W        W26450  10.718  41.386  11.092
54026W        W26451  12.651  27.117   4.645
54027W        W26452  10.871  17.777   3.339
54028W        W26453   2.835  39.417   1.703
54029W        W26454  25.127  33.101   5.138
54030W        W26455  26.175  32.993   9.663
54031W        W26456  34.115  20.080   1.757
54032W        W26457  20.255  27.538  13.828
54033W        W26458  27.032  30.929   9.981
54034W        W26459  18.608  32.029  14.853
54035W        W26460  28.557  16.658  13.939
54036W        W26461  44.986  41.449  10.560
54037W        W26462  36.915   8.798   4.613
54038W        W26463  20.084   9.151  12.394
54039W        W26464   8.196  42.299   1.286
54040W        W26465  29.968  23.490   3.200
54041W        W26466  19.224  34.996  12.447
54042W        W26467   5.320  43.414  10.643
54043W        W26468  39.848  11.251  12.396
54044W        W26469   8.872   2.246  12.855
54045W        W26470   7.260   5.917   1.441
54046W        W26471  13.724   3.854   1.766
54047W        W26472   5.884  30.572  10.533
54048W        W26473  15.624   3.322  10.998
54049W        W26474  22.179  18.623  14.834
54050W        W26475   5.885  43.333  13.471
54051W        W26476   2.731  44.267  11.107
54052W        W26477   9.226  31.569  13.439
54053W        W26478  40.315  44.787   0.452
54054W        W26479  22.996   9.387   9.601
54055W        W26480  43.368  25.590   1.429
54056W        W26481   8.292  24.499  11.023
54057W        W26482  21.051  36.381   1.336
54058W        W26483  11.249  23.680  14.311
54059W        W26484   7.235  27.130  12.009
54060W        W26485   2.785  15.773   1.880
54061W        W26486  35.980  42.933  12.495
54062W        W26487  42.409   5.247   0.869
54063W        W26488  13.317  42.497   2.270
54064W        W26489  29.154  10.651  13.395
54065W        W26490  42.941  23.641  13.961
54066W        W26491  39.017  30.547  13.426
54067W        W26492  12.229  25.167   9.460
54068W        W26493  16.717  34.924   0.909
54069W        W26494  38.379  28.075  13.907
54070W        W26495  19.123   1.373  11.497
54071W        W26496  33.050  21.591   0.391
54072W        W26497  16.721   8.679   4.810
54073W        W26498  14.787   3.422   5.092
54074W        W26499  40.530  24.093   2.884
54075W        W26500  13.131  29.927  11.390
54076W        W26501  44.843  34.414  10.492
54077W        W26502  10.294  43.447  13.858
54078W        W26503  30.041  31.942  11.929
54079W        W26504  28.125  15.321  13.520
54080W        W26505  37.381   6.200  12.404
54081W        W26506  43.831  41.301   2.414
54082W        W26507  28.581  31.502  11.415
54083W        W26508  43.814   5.373  14.317
54084W        W26509  38.428  38.513   4.262
54085W        W26510  29.135  27.165  11.016
54086W        W26511   2.283  18.123   2.738
54087W        W26512  33.022  29.519   1.341
54088W        W26513   7.687  38.906  10.046
54089W        W26514  28.632  31.541   2.679
54090W        W26515  42.454  29.430  11.947
54091W        W26516  16.639  38.045   3.278
54092W        W26517  34.878   9.393  11.586
54093W        W26518  33.458  21.202   1.706
54094W        W26519   9.851   6.406   1.238
54095W        W26520   3.409   9.237   3.715
54096W        W26521  43.992   5.778   1.731
54097W        W26522  22.733  16.653  12.963
54098W        W26523  26.112  38.407   0.750
54099W        W26524  35.968  16.117  14.816
54100W        W26525   5.327  27.081  12.051
54101W        W26526   1.796  26.563  12.405
54102W        W26527  24.602  44.005   2.277
54103W        W26528  35.967   6.344  10.060
54104W        W26529  12.337  41.823   3.823
54105W        W26530  34.431  10.670   3.656
54106W        W26531   1.923  16.207  10.416
54107W        W26532  29.166  37.525  13.320
54108W        W26533  13.256  30.585   3.767
54109W        W26534  33.091   8.772  12.978
54110W        W26535   6.726  33.006  13.006
54111W        W26536  36.893  22.252   2.885
54112W        W26537  41.032  44.976  13.980
54113W        W26538   4.843  14.190  12.531
54114W        W26539  29.993   2.470   0.865
54115W        W26540  36.536   8.186  10.443
54116W        W26541  32.000   6.305  14.808
54117W        W26542  12.274  15.185   2.239
54118W        W26543  25.103  26.598   1.740
54119W        W26544  40.934  10.666   4.789
54120W        W26545   9.796   1.389  11.122
54121W        W26546  44.768  10.372   0.290
54122W        W26547  26.960  24.509   1.326
54123W        W26548  13.836   2.395  13.867
54124W        W26549   5.838  43.955  12.427
54125W        W26550  24.633  45.000  10.561
54126W        W26551  17.188  16.246  12.860
54127W        W26552  41.918  31.502   1.858
54128W        W26553  40.419   8.881  13.318
54129W        W26554  44.772  11.254   1.341
54130W        W26555   4.764   1.410  10.496
54131W        W26556  11.247  14.639   4.320
54132W        W26557  21.184  13.335   0.917
54133W        W26558  44.945  18.243   1.935
54134W        W26559  42.020  23.993  12.367
54135W        W26560   0.329   4.772  13.792
54136W        W26561  43.410   5.870  13.857
54137W        W26562  42.907  28.045  10.902
54138W        W26563  38.382  13.701  13.446
54139W        W26564   0.833  13.785   0.801
54140W        W26565  41.434  32.089   3.818
54141W        W26566   0.271  15.310   3.778
54142W        W26567  21.042  21.245  13.521
54143W        W26568  43.421  23.681  13.349
54144W        W26569  15.329  13.272  13.958
54145W        W26570  35.412   8.685   0.359
54146W        W26571  39.016  42.506   0.312
54147W        W26572  24.513  19.039  12.556
54148W        W26573  12.260   3.215   1.405
54149W        W26574   8.258  36.973  14.778
54150W        W26575  19.604  25.505  14.489
54151W        W26576   2.266  33.991   2.246
54152W        W26577  28.058   1.784  12.929
54153W        W26578   2.417  43.455  13.485
54154W        W26579  29.645  30.476   4.147
54155W        W26580  40.914  22.681   4.245
54156W        W26581  19.043  39.341  11.045
54157W        W26582  28.100  10.728   4.317
54158W        W26583  39.494  36.845  12.901
54159W        W26584  39.939   9.651   1.902
54160W        W26585  36.576  37.941  14.412
54161W        W26586  25.471  41.356   5.312
54162W        W26587  19.044  36.949   1.218
54163W        W26588  39.470  16.694   4.158
54164W        W26589  21.030  11.694  11.564
54165W        W26590  37.449   6.426  12.878
54166W        W26591   5.344  24.534   1.338
54167W        W26592  35.059  36.469   4.145
54168W        W26593   0.832  26.593   4.162
54169W        W26594  41.390   0.411  14.790
54170W        W26595  31.609  44.500  11.126
54171W        W26596  42.912  28.983   0.318
54172W        W26597  11.184  11.129  14.298
54173W        W26598   9.815  44.856  11.127
54174W        W26599  29.027  21.032  13.924
54175W        W26600  30.527  31.906  10.009
54176W        W26601  15.644  37.007   1.731
54177W        W26602  36.922  42.359   0.352
54178W        W26603  16.610  16.633   1.885
54179W        W26604  11.287  36.919  11.513
54180W        W26605  12.846  23.152   0.864
54181W        W26606  35.497   4.335  13.383
54182W        W26607  10.226  26.497  12.406
54183W        W26608  19.738  15.099  11.055
54184W        W26609  43.857  34.495   4.764
54185W        W26610   0.343  27.599  11.928
54186W        W26611  11.249  15.583  10.613
54187W        W26612  18.560   4.786   0.919
54188W        W26613  43.779  28.099   0.243
54189W        W26614  21.240  18.275  11.100
54190W        W26615   2.876   9.343   1.390
54191W        W26616  21.134  34.407  12.016
54192W        W26617  24.070  21.610   4.161
54193W        W26618  35.394  10.752   1.695
54194W        W26619   3.918  22.010  10.467
54195W        W26620  27.509  24.109  10.950
54196W        W26621  27.036  37.459   2.756
54197W        W26622   5.355  34.875   3.683
54198W        W26623  11.282  35.991   0.870
54199W        W26624  27.189  18.555   2.338
54200W        W26625  13.666  39.958  13.967
54201W        W26626  35.933   4.318  13.863
54202W        W26627   3.297  11.760   3.344
54203W        W26628  17.696  22.662   2.367
54204W        W26629  15.683  36.582   0.778
54205W        W26630  32.900  22.182   1.746
54206W        W26631   7.334  28.031   0.274
54207W        W26632   4.436  22.007  10.432
54208W        W26633  35.371  29.567  10.422
54209W        W26634  17.623  35.454   0.758
54210W        W26635   6.815  37.028   4.211
54211W        W26636  21.526   9.227  14.964
54212W        W26637  25.177  12.845   0.406
54213W        W26638  15.305  31.042   0.460
54214W        W26639   5.255  25.180   2.851
54215W        W26640  29.147   9.709   2.882
54216W        W26641  33.401  29.025  14.502
54217W        W26642  17.061  11.829   1.439
54218W        W26643  28.014   5.232   1.229
54219W        W26644  18.788  29.491   0.427
54220W        W26645  38.523  29.955   1.797
54221W        W26646   7.385  14.202   4.174
54222W        W26647  44.828  36.011   1.401
54223W        W26648  30.923  35.502  14.867
54224W        W26649  29.093  16.573   3.248
54225W        W26650  31.608  43.924   1.239
54226W        W26651  35.880  18.766  14.312
54227W        W26652  36.880  36.052  12.993
54228W        W26653   5.235  27.977   9.977
54229W        W26654  28.571  26.602   1.211
54230W        W26655  21.638   7.393   3.365
54231W        W26656  20.078   7.410  10.515
54232W        W26657  20.156  30.506  13.535
54233W        W26658  14.713  10.183   4.211
54234W        W26659   6.286   7.358   3.167
54235W        W26660   3.783  30.486   4.804
54236W        W26661  34.393  32.094  11.868
54237W        W26662  30.617  37.973   4.245
54238W        W26663   6.203  38.004  14.931
54239W        W26664  38.533  43.783   0.947
54240W        W26665   1.417  17.153  13.393
54241W        W26666   1.780  19.542  11.522
54242W        W26667  41.512  24.156  12.877
54243W        W26668  26.667  38.829   4.738
54244W        W26669   0.435  27.042   0.756
54245W        W26670   8.360  16.715  13.346
54246W        W26671  28.463  18.082   3.323
54247W        W26672   3.763  22.570   1.341
54248W        W26673  42.906  24.635   2.300
54249W        W26674   3.268  30.031   4.181
54250W        W26675  34.415  38.338   2.857
54251W        W26676   9.252  32.934  14.770
54252W        W26677  28.100  38.970  13.463
54253W        W26678  16.301  15.667   1.335
54254W        W26679  10.780  41.880  10.995
54255W        W26680  23.018  37.404  14.976
54256W        W26681   7.298  14.746   2.287
54257W        W26682  21.156  12.751   2.307
54258W        W26683   6.740  44.903   2.306
54259W        W26684  38.026  24.100   1.756
54260W        W26685  40.052  28.120   4.301
54261W        W26686  39.956  37.384   1.433
54262W        W26687  31.584   5.204   1.810
54263W        W26688  16.214  32.523  13.315
54264W        W26689  12.726   1.953   3.354
54265W        W26690  24.644  11.297  11.440
54266W        W26691  11.795   8.389  10.967
54267W        W26692  21.733  26.631  10.601
54268W        W26693  42.302  12.191  10.950
54269W        W26694  43.317  24.574   2.690
54270W        W26695  31.496   4.748  13.452
54271W        W26696  34.887  15.791   5.104
54272W        W26697  37.482  38.336   3.325
54273W        W26698  38.890  15.668   2.838
54274W        W26699  15.307  40.840   0.905
54275W        W26700  20.104  30.506   1.716
54276W        W26701  40.884  27.063   0.762
54277W        W26702   3.911  31.571  12.483
54278W        W26703   0.958  34.509  10.423
54279W        W26704  10.783   1.893  14.408
54280W        W26705  20.164  16.298   3.228
54281W        W26706  44.262  16.146  13.438
54282W        W26707  22.092   1.389   4.247
54283W        W26708  30.912   3.304  12.903
54284W        W26709  30.975  42.887  13.857
54285W        W26710   9.718  37.552  13.999
54286W        W26711  25.116  41.458   0.874
54287W        W26712  17.265  32.142  13.039
54288W        W26713  43.404  36.016   5.142
54289W        W26714  16.609  19.109   0.473
54290W        W26715  31.099  43.831   3.774
54291W        W26716  27.512  20.587  11.124
54292W        W26717  18.613  39.559  12.999
54293W        W26718  33.888  13.177   3.380
54294W        W26719  28.001   5.713   1.775
54295W        W26720  12.169  17.217  11.530
54296W        W26721  24.641  37.995   0.768
54297W        W26722   9.656   0.382   0.380
54298W        W26723  11.724  15.820   4.717
54299W        W26724   2.946  33.011   2.787
54300W        W26725  10.850  33.030  12.034
54301W        W26726   0.317  44.911  11.422
54302W        W26727  30.421   7.377  10.995
54303W        W26728  32.958  29.532  12.476
54304W        W26729  20.761   6.700   4.785
54305W        W26730  35.992  25.015  11.098
54306W        W26731   5.394  37.581  13.434
54307W        W26732  34.908  12.304  12.910
54308W        W26733  42.313  27.005   2.185
54309W        W26734  25.116   8.670  13.448
54310W        W26735  25.674  44.349  12.914
54311W        W26736  32.943  16.186   4.163
54312W        W26737  36.425  10.713   3.189
54313W        W26738  20.069  28.005   3.853
54314W        W26739  28.463   1.956   1.405
54315W        W26740  23.001  24.540   4.116
54316W        W26741   4.416  35.042   4.341
54317W        W26742  41.036  34.887  13.477
54318W        W26743  36.056  14.798  13.420
54319W        W26744  16.159  44.372  13.460
54320W        W26745  25.654   8.703  11.028
54321W        W26746  37.037  42.956  13.965
54322W        W26747  12.652  42.520   0.364
54323W        W26748  22.639  43.384  12.458
54324W        W26749  38.349  26.495  12.058
54325W        W26750  27.461  31.934  14.400
54326W        W26751  16.263  12.832   3.746
54327W        W26752  17.138  35.430   9.949
54328W        W26753  44.404  16.104  13.047
54329W        W26754  35.914  23.547  11.416
54330W        W26755  35.934  39.862  14.341
54331W        W26756  17.220   1.759  13.825
54332W        W26757  40.866  35.578  13.390
54333W        W26758  12.172  12.252  11.020
54334W        W26759  33.459  42.378   4.317
54335W        W26760  43.285  14.758  12.511
54336W        W26761  12.117  27.026  12.973
54337W        W26762  24.676  11.711  10.096
54338W        W26763  32.457  43.300   1.859
54339W        W26764   1.896  15.658  14.482
54340W        W26765   4.709   1.841  10.054
54341W        W26766  23.512  26.587  10.511
54342W        W26767  34.528   9.728   4.627
54343W        W26768  14.772  29.007   2.709
54344W        W26769  33.568  13.117  13.945
54345W        W26770  41.405  33.010   0.927
54346W        W26771  18.631   3.396  12.554
54347W        W26772  20.749   7.693  14.353
54348W        W26773  24.695  35.559  12.498
54349W        W26774  22.101  30.553   4.597
54350W        W26775  44.265  21.055   1.335
54351W        W26776  30.164  29.046   3.677
54352W        W26777  10.776  34.450   5.260
54353W        W26778  12.727  15.807  13.939
54354W        W26779  10.176  36.861   3.781
54355W        W26780  33.947  39.550   1.278
54356W        W26781   8.246  22.731  10.556
54357W        W26782   7.735  11.632   0.889
54358W        W26783  29.515  10.780  14.898
54359W        W26784   7.358   4.346  11.607
54360W        W26785  35.883   3.807   4.252
54361W        W26786  34.940  15.749  10.562
54362W        W26787   5.733  29.136   4.692
54363W        W26788  43.286   2.860   0.393
54364W        W26789  26.672  26.676  11.882
54365W        W26790  17.679  15.647  11.067
54366W        W26791  40.529   7.908  13.813
54367W        W26792   8.242  15.697   2.295
54368W        W26793   9.679  11.295   1.214
54369W        W26794   2.411  37.012  14.472
54370W        W26795  32.423  38.019   2.889
54371W        W26796   0.358  33.626   4.117
54372W        W26797  27.023  24.064  13.858
54373W        W26798   4.777  36.943   2.357
54374W        W26799  15.291  40.482   2.294
54375W        W26800  21.629  36.084   4.256
54376W        W26801  40.822  39.862  12.944
54377W        W26802  15.218   6.216  14.383
54378W        W26803  33.891  20.034  12.559
54379W        W26804  11.313  23.676   3.368
54380W        W26805  23.505  15.105   3.651
54381W        W26806  18.210  44.503  13.383
54382W        W26807  24.094  44.439   3.826
54383W        W26808   8.273  21.113  11.415
54384W        W26809   0.926  31.063  13.008
54385W        W26810  31.569  35.947   0.962
54386W        W26811  27.123  39.509  11.048
54387W        W26812  33.463  23.650   3.739
54388W        W26813  35.916  22.011  13.465
54389W        W26814   1.325  16.287   2.722
54390W        W26815  43.270  27.186  10.432
54391W        W26816  22.161   9.816   4.615
54392W        W26817   3.783  26.522   2.252
54393W        W26818  15.738  14.315  12.487
54394W        W26819  11.156  18.105   1.741
54395W        W26820   1.873  40.981   0.483
54396W        W26821  23.547  18.732   0.828
54397W        W26822  20.238  14.710   2.828
54398W        W26823  25.183  19.174   1.890
54399W        W26824   2.725   1.812   0.275
54400W        W26825  44.476  36.925   4.686
54401W        W26826  29.479  10.149   3.153
54402W        W26827  40.417  35.455  11.506
54403W        W26828  27.164  24.708  12.423
54404W        W26829  25.574  19.585  11.536
54405W        W26830  23.989  14.722   1.887
54406W        W26831  44.427  20.179  12.452
54407W        W26832  10.145  10.750   4.202
54408W        W26833  42.871   3.327  14.972
54409W        W26834  16.193  24.501  11.581
54410W        W26835  30.160  36.586  13.972
54411W        W26836  44.010  22.186  14.410
54412W        W26837  39.976  32.060  11.016
54413W        W26838   9.855  28.442  13.320
54414W        W26839  25.027  41.320  13.053
54415W        W26840  28.021  41.950   1.307
54416W        W26841   8.179  31.129  13.465
54417W        W26842  44.427  38.911  11.059
54418W        W26843  37.336  20.223   5.268
54419W        W26844   5.808  33.551  14.368
54420W        W26845  33.609  15.285  14.983
54421W        W26846  12.205   0.424  12.837
54422W        W26847  34.574  14.799  12.508
54423W        W26848  18.268   9.770  11.982
54424W        W26849  28.600  44.854  11.567
54425W        W26850  11.149  38.562  14.903
54426W        W26851  31.638  44.279   1.815
54427W        W26852   6.277  23.060   2.875
54428W        W26853  16.237  25.666  12.936
54429W        W26854   1.772  18.243   0.250
54430W        W26855  35.877  29.072  10.956
54431W        W26856  16.112  39.488   4.298
54432W        W26857  12.239  38.385  11.117
54433W        W26858  36.389  29.998  14.321
54434W        W26859  44.940  37.475  10.463
54435W        W26860  39.314  20.243  13.906
54436W        W26861  36.923  22.710  12.895
54437W        W26862   2.385  28.961  12.885
54438W        W26863   7.880   2.877   1.384
54439W        W26864   4.859  33.386  11.391
54440W        W26865   0.360  18.182  13.992
54441W        W26866   4.854  35.944   2.749
54442W        W26867  25.079   4.851   1.830
54443W        W26868  24.115  35.082  12.478
54444W        W26869  19.122   0.908  14.798
54445W        W26870  22.086  15.591   4.628
54446W        W26871  22.584  18.236   4.240
54447W        W26872  14.760   2.327  12.451
54448W        W26873   1.868   3.397  13.516
54449W        W26874  15.681   5.374  13.826
54450W        W26875  32.533  39.961  12.020
54451W        W26876  26.569  28.105   2.869
54452W        W26877  18.785  15.628  10.943
54453W        W26878  23.720  21.586   0.769
54454W        W26879  39.547  31.962  10.407
54455W        W26880   3.449  33.910  13.000
54456W        W26881  34.091  33.090  14.497
54457W        W26882  13.626  16.585   4.152
54458W        W26883  32.616  31.028   2.250
54459W        W26884   0.956  39.909  11.458
54460W        W26885   9.198   7.411  12.074
54461W        W26886  41.350  32.428  13.944
54462W        W26887  30.629  12.263  13.862
54463W        W26888  15.313  13.285  11.385
54464W        W26889  29.932  38.498  13.911
54465W        W26890  22.030  24.499   4.687
54466W        W26891  37.344   0.775   3.279
54467W        W26892   9.744   4.419  13.977
54468W        W26893   6.342  41.349  14.931
54469W        W26894  29.520   7.866  11.467
54470W        W26895  37.386   4.711  11.978
54471W        W26896  32.429  13.256  11.586
54472W        W26897   6.290  40.937   0.852
54473W        W26898  19.267  30.123  14.300
54474W        W26899  13.633  27.505  13.425
54475W        W26900  35.390  32.520   0.459
54476W        W26901   7.314  13.756  12.371
54477W        W26902  24.573  44.504  12.568
54478W        W26903  35.520  33.564  14.398
54479W        W26904  27.973   6.393   4.169
54480W        W26905  19.145  25.009  13.534
54481W        W26906  43.349  38.904   4.636
54482W        W26907  43.416  33.444  14.839
54483W        W26908  27.192   1.736   5.265
54484W        W26909  36.943  11.341  12.838
54485W        W26910  21.164  25.597  11.960
54486W        W26911   3.372  29.477   0.450
54487W        W26912  38.563  23.021   1.785
54488W        W26913   6.794   5.373  10.898
54489W        W26914  33.009  26.547  12.038
54490W        W26915   5.302  35.500   4.818
54491W        W26916  22.210  19.672  10.590
54492W        W26917  35.011   1.877   4.811
54493W        W26918  24.507  22.562   0.800
54494W        W26919  43.900  24.565  10.614
54495W        W26920   0.415  43.437   1.738
54496W        W26921  22.141  41.815   3.725
54497W        W26922  13.290   1.770  12.381
54498W        W26923  17.669  28.553  10.505
54499W        W26924   2.324  21.646  12.892
54500W        W26925   5.900  37.029  14.452
54501W        W26926  44.355  22.227   2.895
54502W        W26927  25.569  22.229  13.388
54503W        W26928  31.988  42.891  12.085
54504W        W26929  39.877  32.898  14.321
54505W        W26930  16.598  20.563   1.917
54506W        W26931  30.062   9.172  12.448
54507W        W26932  38.051  24.220   4.329
54508W        W26933  23.665  21.081  13.017
54509W        W26934  22.145  16.600  13.475
54510W        W26935  26.149  36.972   1.921
54511W        W26936  21.668  36.486  12.862
54512W        W26937  22.644  29.134  10.948
54513W        W26938  26.039  28.645   4.158
54514W        W26939  27.126   0.366  13.802
54515W        W26940  14.817   8.695  13.834
54516W        W26941  30.132   5.825   3.209
54517W        W26942  21.080  13.324  11.438
54518W        W26943   7.203  13.805   4.269
54519W        W26944  31.148  39.835  10.503
54520W        W26945  19.237   4.848  10.555
54521W        W26946   0.989  31.069   4.798
54522W        W26947   0.823   9.738   0.923
54523W        W26948  35.525  16.771  10.584
54524W        W26949  27.091   8.706   0.307
54525W        W26950  35.946  38.009  14.488
54526W        W26951  44.896  28.664  13.881
54527W        W26952  41.345   5.736  13.449
54528W        W26953  36.021   9.867  12.977
54529W        W26954  39.897   2.921   0.826
54530W        W26955   5.859  36.864   3.160
54531W        W26956  42.910  37.338  11.472
54532W        W26957  39.329  16.740   2.380
54533W        W26958  16.730  39.516  13.814
54534W        W26959  16.635  11.280  10.962
54535W        W26960   4.414  14.258   3.287
54536W        W26961  24.715  37.415  14.996
54537W        W26962  16.582  22.235  14.924
54538W        W26963  12.639  14.622   4.157
54539W        W26964   3.333  26.107   4.271
54540W        W26965  42.381  10.739   3.662
54541W        W26966   5.726  38.867   1.711
54542W        W26967  19.716   9.703  12.978
54543W        W26968  42.326  20.535   2.294
54544W        W26969  20.535  11.633  11.085
54545W        W26970   6.836  15.283   2.854
54546W        W26971  27.018  10.214   2.228
54547W        W26972   6.328  15.208  13.033
54548W        W26973  43.787  43.797  12.994
54549W        W26974  25.148  36.505   0.810
54550W        W26975  33.921   9.748  13.362
54551W        W26976  30.008  39.434  11.386
54552W        W26977  38.326  31.996   1.927
54553W        W26978   5.334  28.001   0.802
54554W        W26979   3.828   8.245  14.811
54555W        W26980  17.077  44.823  12.348
54556W        W26981  23.596   9.825  14.805
54557W        W26982  12.243  36.514   0.398
54558W        W26983   9.747  29.958  10.633
54559W        W26984  17.790  32.901   5.696
54560W        W26985  39.897  25.042  13.885
54561W        W26986  39.455   3.241  14.968
54562W        W26987  18.632  20.158   2.382
54563W        W26988  35.361  36.093   1.698
54564W        W26989   2.384  34.577   2.250
54565W        W26990   4.904  31.424   3.848
54566W        W26991  32.553  21.242  10.086
54567W        W26992  18.674  21.683   3.270
54568W        W26993  34.524  16.283  11.072
54569W        W26994  43.938  11.309  13.064
54570W        W26995   5.311  43.915   2.313
54571W        W26996  44.991   4.841  11.003
54572W        W26997   4.271  17.579  11.106
54573W        W26998  37.390  34.420  11.050
54574W        W26999  34.991  36.423  12.884
54575W        W27000   7.865  38.554  12.007
54576W        W27001   1.376  44.878   0.748
54577W        W27002  44.374  16.190   2.321
54578W        W27003  42.872  37.379   0.810
54579W        W27004  40.815  19.544   2.385
54580W        W27005  38.461  13.125   4.184
54581W        W27006  36.910  36.440   2.664
54582W        W27007  26.023  26.462   3.741
54583W        W27008  43.838   4.380   3.714
54584W        W27009   2.415  27.571  11.009
54585W        W27010  28.057  22.663  10.451
54586W        W27011  34.925  30.452   0.805
54587W        W27012  41.995  25.509  14.977
54588W        W27013   0.290   2.316  11.901
54589W        W27014  34.022  21.065  14.995
54590W        W27015   8.367  27.673  10.434
54591W        W27016  39.874  27.191  11.485
54592W        W27017  14.121  32.393   3.245
54593W        W27018  37.875  44.789  11.456
54594W        W27019   8.883  20.616   1.291
54595W        W27020  42.525  37.060  10.579
54596W        W27021  41.819   8.362  11.556
54597W        W27022  39.005  32.993   4.663
54598W        W27023   6.681  11.843  12.366
54599W        W27024  21.682  27.689   1.222
54600W        W27025  22.555  30.075  10.611
54601W        W27026  44.820  25.044   1.772
54602W        W27027  42.821  20.249  14.326
54603W        W27028  22.086  40.446  13.317
54604W        W27029  19.691   9.661   4.220
54605W        W27030  36.560  23.025  12.910
54606W        W27031   3.743  16.743   1.930
54607W        W27032  33.896   9.838   3.308
54608W        W27033   8.242  15.721  14.415
54609W        W27034   2.841  38.456   0.368
54610W        W27035   6.214  22.724   9.933
54611W        W27036  26.535  44.469   5.269
54612W        W27037   0.393   9.857   3.769
54613W        W27038  39.890  26.959   3.714
54614W        W27039  34.878   3.896  14.414
54615W        W27040   7.820  39.962  11.980
54616W        W27041  30.018   8.260  13.031
54617W        W27042  36.375  21.745  10.488
54618W        W27043   9.195  12.792  13.817
54619W        W27044  13.110  43.939   2.324
54620W        W27045  38.874  33.014   0.927
54621W        W27046  37.956  19.567   3.843
54622W        W27047  26.471  28.445  11.469
54623W        W27048  35.970   7.372   1.403
54624W        W27049  37.486  41.862   3.760
54625W        W27050  15.105  27.619   3.841
54626W        W27051  30.075   2.385   3.659
54627W        W27052  30.092  38.916  11.570
54628W        W27053   3.375  19.768  11.069
54629W        W27054   4.383   9.166   1.732
54630W        W27055  27.676  17.113   2.709
54631W        W27056  40.868  17.122   0.895
54632W        W27057  20.108  35.017  14.777
54633W        W27058  42.818  19.601   4.173
54634W        W27059  11.623  27.059   1.835
54635W        W27060  32.895  24.210   2.363
54636W        W27061   3.870   8.831   4.161
54637W        W27062  25.538  39.412   0.773
54638W        W27063  41.301  23.035  12.867
54639W        W27064   9.307  25.041  11.892
54640W        W27065  31.085  39.848  14.438
54641W        W27066  18.149   9.352  12.354
54642W        W27067   4.311   0.859  12.545
54643W        W27068  21.741  20.698   4.131
54644W        W27069  34.376  26.065   0.395
54645W        W27070  18.165  25.130   3.227
54646W        W27071  43.413  17.772  10.562
54647W        W27072   1.845  22.527  11.383
54648W        W27073   5.390  29.963   1.745
54649W        W27074  12.720  21.041   2.338
54650W        W27075   9.806  16.204   0.345
54651W        W27076  17.153  35.521  13.015
54652W        W27077  19.254  30.449  11.398
54653W        W27078  34.948  44.896  13.932
54654W        W27079  33.022   6.354   1.771
54655W        W27080   1.900  29.984   4.826
54656W        W27081  32.629  29.128   3.682
54657W        W27082  27.972  35.568   1.881
54658W        W27083  44.326  30.056   3.239
54659W        W27084  11.168  18.766  12.094
54660W        W27085  22.198  33.972  11.454
54661W        W27086  11.345  34.389  13.916
54662W        W27087   9.232  17.104   1.277
54663W        W27088  17.186  17.219   1.911
54664W        W27089  39.811  40.480   0.257
54665W        W27090  41.873  13.285   1.304
54666W        W27091  32.927  36.042  11.884
54667W        W27092   2.451  17.771  14.397
54668W        W27093  13.689  20.170  11.566
54669W        W27094  15.665   7.276   4.309
54670W        W27095  11.157   2.848   3.756
54671W        W27096   9.231  20.590  13.981
54672W        W27097  39.006  29.993   4.659
54673W        W27098  25.654  19.688   3.150
54674W        W27099  15.798  38.868   0.959
54675W        W27100  34.920  43.768   4.653
54676W        W27101  32.580  23.679   0.245
54677W        W27102  27.531  26.695   4.603
54678W        W27103  11.218  36.499  13.415
54679W        W27104   1.411  26.134  13.857
54680W        W27105  32.048  39.503  11.897
54681W        W27106  12.815  41.297  14.462
54682W        W27107  23.139  13.802  10.950
54683W        W27108  37.570  11.631   1.844
54684W        W27109  39.050  15.722  12.068
54685W        W27110   1.778  22.522  11.889
54686W        W27111   5.919  41.498  13.967
54687W        W27112  37.974  28.457   3.267
54688W        W27113  23.011  41.816  14.864
54689W        W27114  24.039  10.223  10.597
54690W        W27115  27.969  10.872   4.679
54691W        W27116  12.786   2.466   5.217
54692W        W27117  29.024  29.619   2.869
54693W        W27118  34.936  32.521   2.743
54694W        W27119  32.611   1.280  10.937
54695W        W27120  33.579  10.301   3.232
54696W        W27121   4.422  34.033   1.769
54697W        W27122  16.667  21.224   2.792
54698W        W27123  23.985  33.026   4.718
54699W        W27124   5.860  12.281  11.518
54700W        W27125  23.714  18.223  14.366
54701W        W27126  17.611  16.639  12.038
54702W        W27127  25.476  23.605  12.875
54703W        W27128  39.013   4.726   2.260
54704W        W27129  14.191  19.107   2.886
54705W        W27130  41.827   1.429   1.792
54706W        W27131   7.839  26.632  13.848
54707W        W27132  42.308  16.734   1.893
54708W        W27133  11.215   6.707  13.849
54709W        W27134  29.515  19.657   3.249
54710W        W27135  21.144  11.149   0.303
54711W        W27136   5.420  37.834  12.906
54712W        W27137  35.359   1.286   0.946
54713W        W27138  25.552  21.131  11.082
54714W        W27139  34.036   3.849  14.776
54715W        W27140  35.105  40.798  13.049
54716W        W27141   3.762  20.715   1.305
54717W        W27142   5.389   8.199   1.212
54718W        W27143  39.401  22.747   3.314
54719W        W27144  18.643  11.833   3.329
54720W        W27145  39.856  22.158   2.310
54721W        W27146  16.190   5.895   3.369
54722W        W27147   0.344   6.827  12.864
54723W        W27148   5.887  24.202  14.419
54724W        W27149  10.219  17.211   2.691
54725W        W27150   6.704  10.205  14.778
54726W        W27151  30.514  24.004  14.838
54727W        W27152  19.690   3.381   4.222
54728W        W27153   7.247  32.095  10.976
54729W        W27154   9.246   0.487  10.888
54730W        W27155  20.183  33.888   0.882
54731W        W27156  28.137   9.868  14.022
54732W        W27157  22.042  14.804   4.756
54733W        W27158   4.819  25.190  11.519
54734W        W27159  33.416  42.957   4.775
54735W        W27160  11.244  31.903   3.276
54736W        W27161  13.769  30.491  13.370
54737W        W27162  44.269  20.160   3.696
54738W        W27163  13.654  31.083   4.206
54739W        W27164  12.725  26.666  14.984
54740W        W27165  23.000  15.678   3.661
54741W        W27166  28.435  27.054  11.050
54742W        W27167  30.520  22.208   2.831
54743W        W27168   1.957   6.298   0.894
54744W        W27169   1.378  36.003   1.298
54745W        W27170  14.106   6.239  14.833
54746W        W27171   0.454  10.656   3.325
54747W        W27172   1.750   1.872  12.926
54748W        W27173  34.594  34.075  12.568
54749W        W27174   6.749  29.024  11.590
54750W        W27175  36.985  10.817  14.309
54751W        W27176  31.448  17.064  14.303
54752W        W27177  20.237  20.761  13.801
54753W        W27178  26.698  26.663   0.256
54754W        W27179   5.230  37.358   2.873
54755W        W27180  34.026  42.286   4.826
54756W        W27181  26.985   3.431  11.555
54757W        W27182  36.941  26.564  13.996
54758W        W27183  39.881  41.406   0.289
54759W        W27184  16.801  15.786   9.959
54760W        W27185   9.206  35.405   3.216
54761W        W27186  20.708  26.172  12.511
54762W        W27187  34.578  33.596   0.823
54763W        W27188   4.907  27.468  11.945
54764W        W27189   2.825  33.009   2.203
54765W        W27190  44.809  15.271   2.334
54766W        W27191  14.309  33.467  13.540
54767W        W27192  15.218  17.567  12.864
54768W        W27193  10.347   2.424  12.839
54769W        W27194  34.039  29.661  14.292
54770W        W27195  36.565  22.735  14.370
54771W        W27196  41.934  38.002  12.341
54772W        W27197   5.335  44.771   4.724
54773W        W27198   2.407  34.088   4.161
54774W        W27199  25.668  23.698   0.777
54775W        W27200  21.155  11.151   4.245
54776W        W27201   9.701  35.370   0.295
54777W        W27202   5.287  38.934  14.786
54778W        W27203   8.200  10.339   0.251
54779W        W27204  10.781  12.334   2.723
54780W        W27205  30.946  11.350   2.663
54781W        W27206  12.300  31.091  13.795
54782W        W27207  37.348  41.928  10.519
54783W        W27208  23.143  22.574   2.811
54784W        W27209  21.668  37.928   3.247
54785W        W27210   0.450  10.200  14.849
54786W        W27211  14.830  30.535  11.532
54787W        W27212  35.585  10.798  10.467
54788W        W27213  33.991  26.967   2.231
54789W        W27214   1.409   7.767   2.885
54790W        W27215  25.538  13.750   4.823
54791W        W27216  39.870  24.004   4.759
54792W        W27217  38.072  18.268   2.247
54793W        W27218  43.830  44.942  12.410
54794W        W27219  15.176  39.400   4.625
54795W        W27220  27.175  16.296  10.561
54796W        W27221  30.516  24.507   2.294
54797W        W27222   2.891   5.359  12.351
54798W        W27223  32.549  12.745   1.441
54799W        W27224  15.687  22.237   2.779
54800W        W27225  42.335  38.924   1.325
54801W        W27226   5.707   8.768   2.815
54802W        W27227  17.792  26.199   3.733
54803W        W27228   4.804  27.118   2.715
54804W        W27229  21.663  35.537  13.381
54805W        W27230   1.277   6.780   2.718
54806W        W27231  21.692  41.971  12.470
54807W        W27232  13.264  12.305   2.895
54808W        W27233  22.501  41.505   2.353
54809W        W27234  35.910  24.152  12.925
54810W        W27235   1.254  40.397   0.390
54811W        W27236  34.055  27.576  11.408
54812W        W27237  17.148   3.733   2.793
54813W        W27238  42.875   4.208   4.339
54814W        W27239  34.580  28.007  12.458
54815W        W27240  18.211  17.229  13.983
54816W        W27241  12.336  43.986   1.761
54817W        W27242  39.811  34.426  11.949
54818W        W27243  44.984   9.274  14.880
54819W        W27244  44.338  40.363  14.901
54820W        W27245  26.582   4.706  12.948
54821W        W27246   8.838   7.735  12.896
54822W        W27247   2.806  40.865  14.322
54823W        W27248  41.002   7.352   2.750
54824W        W27249   3.814  25.563   4.223
54825W        W27250  18.628  30.454  10.566
54826W        W27251  40.540  16.598  10.633
54827W        W27252  35.401  20.188   2.674
54828W        W27253  18.595  39.553  12.356
54829W        W27254  38.066   9.867   4.834
54830W        W27255  32.472   2.376   0.959
54831W        W27256  39.314  10.282   4.274
54832W        W27257  19.175  38.344  13.834
54833W        W27258  40.348  10.861  12.571
54834W        W27259   2.408  17.145   0.245
54835W        W27260  14.132  24.549   2.306
54836W        W27261   9.879  36.911   2.376
54837W        W27262   3.710  36.485  12.841
54838W        W27263  44.772  25.520   0.382
54839W        W27264  14.097   5.889   4.158
54840W        W27265  34.101   7.859  11.858
54841W        W27266  20.694  26.019  14.864
54842W        W27267  31.055  42.494   1.871
54843W        W27268  39.041  35.958  13.939
54844W        W27269  17.565  18.190  14.477
54845W        W27270  12.231   4.238   1.295
54846W        W27271  34.914  29.597  11.906
54847W        W27272  35.936  38.886  14.364
54848W        W27273   3.816   5.872   2.754
54849W        W27274  14.591  15.195   0.798
54850W        W27275   7.387  24.039  13.520
54851W        W27276  13.659  37.927   0.435
54852W        W27277   6.792  15.624  12.421
54853W        W27278   4.352  26.592  11.063
54854W        W27279  35.080   3.321  12.866
54855W        W27280  33.497  38.010  12.508
54856W        W27281   1.444  20.584   2.673
54857W        W27282  14.779  15.117  14.307
54858W        W27283  13.674  26.100   2.872
54859W        W27284   7.189  17.077   4.285
54860W        W27285   3.851  26.590  11.609
54861W        W27286  44.341  38.373   0.464
54862W        W27287  29.072   9.661   0.328
54863W        W27288   5.766  26.515  11.551
54864W        W27289  22.093  32.925   1.450
54865W        W27290  32.513  17.182   1.331
54866W        W27291   5.920  36.000  11.589
54867W        W27292  26.581  35.995   0.328
54868W        W27293  17.151  40.841   2.891
54869W        W27294   6.227  21.545   4.741
54870W        W27295  35.391  34.406   4.236
54871W        W27296   0.490  11.362   1.895
54872W        W27297  40.369  26.987  13.026
54873W        W27298   7.245  35.898  14.405
54874W        W27299  36.446  37.469   3.647
54875W        W27300  28.086  35.077  11.993
54876W        W27301  24.030   1.364   2.737
54877W        W27302   0.452  32.926   1.427
54878W        W27303  12.677  12.804   0.854
54879W        W27304  27.953  15.657   0.360
54880W        W27305  30.576   5.346  12.960
54881W        W27306  18.171  34.096   0.865
54882W        W27307  33.874  21.547   3.321
54883W        W27308  21.622   6.848   2.295
54884W        W27309  29.494  30.914  14.940
54885W        W27310  13.266  37.864   4.638
54886W        W27311  13.728   0.967  10.932
54887W        W27312  18.183  22.043  13.501
54888W        W27313  31.483  37.433   4.206
54889W        W27314  29.522  31.002  14.488
54890W        W27315  18.672   6.725  11.597
54891W        W27316   4.727  41.458   0.770
54892W        W27317  21.136  40.900   2.243
54893W        W27318  16.740  27.602  12.572
54894W        W27319  19.272   7.770  13.419
54895W        W27320   1.351  44.872  12.934
54896W        W27321   2.791  24.530   2.705
54897W        W27322  13.789   7.696   1.906
54898W        W27323  16.268  16.803   0.749
54899W        W27324  25.191  23.688  12.031
54900W        W27325  28.019  27.605  11.961
54901W        W27326  40.857  38.325   1.311
54902W        W27327  38.392  24.616   1.406
54903W        W27328  10.237  41.878  11.418
54904W        W27329  11.813  17.225  10.005
54905W        W27330  27.551  42.290   1.814
54906W        W27331   8.660   0.864   2.206
54907W        W27332  28.029  43.867  11.402
54908W        W27333  39.481  34.418   4.179
54909W        W27334  33.469  12.784   0.466
54910W        W27335   7.910   1.271  12.484
54911W        W27336   9.247   5.892  14.443
54912W        W27337  23.225  39.930   1.746
54913W        W27338   7.345  30.592   1.375
54914W        W27339   7.193  27.451   2.238
54915W        W27340   4.842  30.530  11.886
54916W        W27341   3.922   6.379   2.274
54917W        W27342   6.879  12.637  13.529
54918W        W27343  18.683  36.532  12.044
54919W        W27344  35.062   9.151  12.541
54920W        W27345  15.755   3.720   3.214
54921W        W27346  42.525  18.118   1.261
54922W        W27347  24.983  33.419  10.139
54923W        W27348   8.215  42.961   2.255
54924W        W27349  29.655  24.709  14.763
54925W        W27350  20.085   4.859  10.535
54926W        W27351  31.933  16.086   1.403
54927W        W27352  39.861  22.600  11.881
54928W        W27353  24.523  22.102  14.815
54929W        W27354  29.615  21.721  11.083
54930W        W27355  14.826  15.788  12.344
54931W        W27356   8.762  15.144  10.474
54932W        W27357  29.026  40.801  13.061
54933W        W27358   9.340  39.808   2.858
54934W        W27359  11.239  33.482   1.894
54935W        W27360  29.579  25.072  14.309
54936W        W27361   3.340  30.443  14.463
54937W        W27362   0.809  24.638  10.605
54938W        W27363  42.323  37.883  10.982
54939W        W27364  26.695  23.058   2.862
54940W        W27365  21.188  43.997   2.222
54941W        W27366  12.263  14.701  13.047
54942W        W27367  38.981  24.661   3.301
54943W        W27368  18.630  28.606  12.000
54944W        W27369  18.638  19.096  11.600
54945W        W27370  40.307  15.237  11.954
54946W        W27371  37.559   7.791   3.673
54947W        W27372  43.009  38.470   1.441
54948W        W27373  22.225   1.884   1.312
54949W        W27374  40.047  14.109  11.105
54950W        W27375  10.320  17.123   1.883
54951W        W27376  32.918  30.420  10.915
54952W        W27377  43.875  27.500   1.232
54953W        W27378  18.128  18.277  11.437
54954W        W27379  33.877  41.490  12.927
54955W        W27380  18.721   9.172  12.088
54956W        W27381   7.844  33.430  12.953
54957W        W27382  36.506  10.786  10.474
54958W        W27383   9.270  14.279  12.886
54959W        W27384  30.066  19.661   3.638
54960W        W27385  44.318  27.950   3.336
54961W        W27386  11.658  18.221  10.496
54962W        W27387   0.464  42.872   0.874
54963W        W27388   5.234   4.823  12.076
54964W        W27389  24.161  14.165   1.325
54965W        W27390  21.183  36.391  11.898
54966W        W27391  33.602  12.359   3.321
54967W        W27392   5.310  25.710  10.539
54968W        W27393  43.378  38.061  13.900
54969W        W27394  40.514  12.344  10.419
54970W        W27395  15.629   8.312   2.284
54971W        W27396   6.194  37.576   0.800
54972W        W27397  32.962  12.678  13.964
54973W        W27398  22.073  14.646   0.832
54974W        W27399   5.690  29.110   4.269
54975W        W27400  15.118  24.103   4.775
54976W        W27401   0.984  17.239  10.436
54977W        W27402  18.761   8.812   0.909
54978W        W27403  33.415  27.507   2.368
54979W        W27404  12.830  25.661  13.956
54980W        W27405  11.647  32.952  12.396
54981W        W27406  36.557  28.479   3.283
54982W        W27407  17.732  10.248   1.414
54983W        W27408   8.350  10.742  13.019
54984W        W27409  16.723  36.002  13.823
54985W        W27410  18.162  12.308  12.843
54986W        W27411  18.122  19.724  13.319
54987W        W27412  42.435  24.116   1.427
54988W        W27413  16.315   8.758  10.042
54989W        W27414  39.039  43.889   1.845
54990W        W27415   3.315  31.586  13.958
54991W        W27416  25.677   0.313  14.485
54992W        W27417  10.678  43.292  14.317
54993W        W27418  15.770   7.853  13.526
54994W        W27419  19.066  33.107   2.900
54995W        W27420  27.001  17.645   3.862
54996W        W27421  17.246   5.303   3.669
54997W        W27422   6.261  14.603  11.512
54998W        W27423  11.700  30.481  10.561
54999W        W27424   7.416   8.184   3.361
55000W        W27425  42.966  44.879  13.886
55001W        W27426  39.398  28.490   1.349
55002W        W27427  22.599   9.831  12.465
55003W        W27428   3.810  22.251  11.522
55004W        W27429  21.063  11.713  14.944
55005W        W27430  38.467   7.672  10.622
55006W        W27431  17.723  24.221   0.910
55007W        W27432  25.581  23.025  13.048
55008W        W27433  19.245  30.423  12.065
55009W        W27434   3.929  24.010   1.376
55010W        W27435  16.218  33.571   0.965
55011W        W27436  37.953  10.155  14.366
55012W        W27437  30.547  39.357  11.056
55013W        W27438   8.875   1.382  14.795
55014W        W27439  16.086  43.849  10.572
55015W        W27440   4.407  29.429  11.508
55016W        W27441  23.082  43.455   2.852
55017W        W27442  20.174  15.329  12.442
55018W        W27443   7.888  10.800  14.343
55019W        W27444  18.115  28.130  13.899
55020W        W27445  44.349   3.828   1.364
55021W        W27446  10.683  27.062  14.976
55022W        W27447  12.116  26.971  14.297
55023W        W27448  40.353   8.270  12.073
55024W        W27449  34.003   6.279   0.804
55025W        W27450  29.566  40.889   5.648
55026W        W27451   9.245  43.819   1.406
55027W        W27452   5.224  39.406   0.869
55028W        W27453  20.599  23.556  12.494
55029W        W27454  42.980  39.055  11.469
55030W        W27455  34.955  11.820  10.512
55031W        W27456  25.627  25.061  12.499
55032W        W27457  21.096  36.991  12.096
55033W        W27458   6.748   1.964   4.268
55034W        W27459  42.916  40.437  11.004
55035W        W27460  17.132  40.375   5.259
55036W        W27461  33.044  23.151  11.052
55037W        W27462   5.368   4.270   1.913
55038W        W27463  26.055   9.674   3.759
55039W        W27464  18.591  40.965   2.195
55040W        W27465  13.687  15.302  13.443
55041W        W27466  23.028  44.969   0.856
55042W        W27467  32.437  18.737   2.286
55043W        W27468  38.984  43.908  13.465
55044W        W27469  18.275  16.739  13.411
55045W        W27470  12.712  32.071  13.410
55046W        W27471  28.497  11.661  10.920
55047W        W27472  38.421  29.106  11.967
55048W        W27473  42.792  21.257  12.379
55049W        W27474  13.759  31.016   3.346
55050W        W27475  11.167  39.023   2.325
55051W        W27476  34.993   0.444   2.414
55052W        W27477  44.803  41.948  13.466
55053W        W27478  22.651  34.958  14.834
55054W        W27479  25.028   3.275   3.745
55055W        W27480  19.588  24.699  13.534
55056W        W27481  43.005  19.133   9.578
55057W        W27482   3.368  22.558  11.098
55058W        W27483  14.665  10.853   2.874
55059W        W27484  29.656  40.441   0.404
55060W        W27485  43.822  36.471  13.471
55061W        W27486   0.975  17.219  11.911
55062W        W27487  16.779   4.807   1.392
55063W        W27488  26.591  36.518   4.327
55064W        W27489  33.082   4.271   2.665
55065W        W27490  14.099  33.456  10.012
55066W        W27491  27.535  33.897   2.698
55067W        W27492  28.115  11.163  14.498
55068W        W27493  39.453  12.815  14.846
55069W        W27494  21.535  28.502  14.778
55070W        W27495  13.742  38.553  11.409
55071W        W27496  39.526   6.262   4.796
55072W        W27497  16.791  34.965   1.395
55073W        W27498  12.148   8.715  11.534
55074W        W27499  23.215   8.266   3.775
55075W        W27500  15.085   1.338  12.874
55076W        W27501  14.719  26.521   4.206
55077W        W27502   9.300  14.269  11.535
55078W        W27503  19.254  20.570   1.852
55079W        W27504   4.870   3.837   5.223
55080W        W27505  34.012  17.154   4.238
55081W        W27506  23.175  42.394  11.538
55082W        W27507  29.433  30.417  10.637
55083W        W27508  25.689  19.676  13.029
55084W        W27509  32.098  35.508  11.075
55085W        W27510  31.591  22.020  14.283
55086W        W27511  36.048  32.428   3.832
55087W        W27512  17.291   8.758  11.973
55088W        W27513   2.847  12.163  14.391
55089W        W27514   2.393  24.482   2.290
55090W        W27515  44.488   6.370   1.730
55091W        W27516  29.147  13.611   3.305
55092W        W27517  20.260  17.271  10.407
55093W        W27518  17.222  26.691  13.877
55094W        W27519  42.848   0.359  13.519
55095W        W27520  26.040   5.269  11.580
55096W        W27521   1.761  13.697  10.980
55097W        W27522   2.415   3.418  12.887
55098W        W27523   9.188  31.897   3.820
55099W        W27524  31.075  23.142  12.503
55100W        W27525  29.458  12.266   2.885
55101W        W27526  15.088  38.427  11.448
55102W        W27527   5.797  32.017   4.647
55103W        W27528  22.627  24.549   0.344
55104W        W27529  37.845  25.531  14.800
55105W        W27530  12.734  35.469  14.906
55106W        W27531   4.396  31.569   4.302
55107W        W27532  19.173  23.221   0.335
55108W        W27533   1.936  23.523  11.055
55109W        W27534  38.409  42.460   0.822
55110W        W27535  23.506  29.545   0.837
55111W        W27536  30.655  24.082   1.839
55112W        W27537  16.073  16.592  14.412
55113W        W27538  13.805  16.146   1.347
55114W        W27539  35.860  10.844  12.532
55115W        W27540  43.927   9.308  10.619
55116W        W27541   4.836  27.577   5.271
55117W        W27542  44.278  43.418  14.781
55118W        W27543  24.036   9.257   2.284
55119W        W27544   0.477   4.261  13.440
55120W        W27545  27.685  40.351  10.409
55121W        W27546  16.588  10.756  14.809
55122W        W27547   6.830  36.539  13.904
55123W        W27548  14.694  12.705  11.606
55124W        W27549  14.292  22.219  14.343
55125W        W27550  31.956  17.654   2.322
55126W        W27551  28.945  20.608   9.513
55127W        W27552  31.427  30.111  13.461
55128W        W27553  10.872  11.328  10.505
55129W        W27554   2.370  33.560   4.626
55130W        W27555  14.170   2.377  13.915
55131W        W27556  23.546   6.417  12.087
55132W        W27557  32.957  15.188   3.227
55133W        W27558  44.298   4.288   0.277
55134W        W27559  12.766  38.019   1.906
55135W        W27560  16.711  33.070   4.765
55136W        W27561  15.725  14.167  11.525
55137W        W27562  16.208  37.487  10.608
55138W        W27563  12.323  31.488   4.177
55139W        W27564  10.722   3.920  13.903
55140W        W27565  25.599  11.173   1.834
55141W        W27566  25.603   1.904  12.855
55142W        W27567  34.886  44.362   4.311
55143W        W27568  35.852   4.822  12.555
55144W        W27569  17.278  40.939   3.842
55145W        W27570  11.644   6.760   4.729
55146W        W27571   3.857  42.939   2.899
55147W        W27572  34.557  30.550  11.127
55148W        W27573  22.137  21.669   0.337
55149W        W27574  24.570  30.568  13.530
55150W        W27575  16.252  29.936  12.969
55151W        W27576  26.627   3.300  10.430
55152W        W27577  40.378  23.653   1.881
55153W        W27578  15.185   7.869  11.395
55154W        W27579  40.894  14.743   0.849
55155W        W27580  11.764  11.854  14.839
55156W        W27581  20.589  27.644   4.236
55157W        W27582  18.708   5.885  14.003
55158W        W27583  40.337  24.502   4.217
55159W        W27584  14.253  42.948   0.897
55160W        W27585  18.174  43.451  14.931
55161W        W27586  16.228  17.068   0.796
55162W        W27587  37.552   3.443   1.710
55163W        W27588  11.720  23.055   2.715
55164W        W27589   8.891  42.981  12.978
55165W        W27590  16.258   2.918  11.120
55166W        W27591  13.160   2.355   4.179
55167W        W27592  27.999  25.047   1.267
55168W        W27593   6.851  35.878  13.508
55169W        W27594  29.933   7.720  12.927
55170W        W27595  10.813  19.536  11.507
55171W        W27596  28.582  14.795   0.735
55172W        W27597   9.778   5.278  11.898
55173W        W27598  40.421  34.081   3.361
55174W        W27599   2.438  35.104  12.540
55175W        W27600  38.990   0.844   3.677
55176W        W27601   0.362  26.475   1.698
55177W        W27602  32.525  22.174   2.179
55178W        W27603  19.065  43.790   1.414
55179W        W27604  20.634  41.536   2.896
55180W        W27605  35.109  27.514   1.351
55181W        W27606   4.344  43.905   0.812
55182W        W27607  14.104  13.635   2.865
55183W        W27608  31.065  23.084   0.920
55184W        W27609   7.299   2.746   2.339
55185W        W27610  26.998  32.963  13.465
55186W        W27611  33.991  34.596  12.881
55187W        W27612  33.910  16.756   2.848
55188W        W27613  21.737  21.723   4.324
55189W        W27614  13.183   4.212  12.541
55190W        W27615  36.962  13.137   4.160
55191W        W27616  24.679  38.340   0.734
55192W        W27617  11.169  21.156  13.956
55193W        W27618  29.427  35.470   2.181
55194W        W27619   0.284  35.065   0.835
55195W        W27620  17.143  43.913   3.733
55196W        W27621  38.507  35.500  11.080
55197W        W27622  14.685   4.936  11.611
55198W        W27623   3.432  44.899   4.839
55199W        W27624   8.847  22.191   3.755
55200W        W27625  44.305   0.818   3.802
55201W        W27626  23.168   5.922   4.192
55202W        W27627  21.573  12.324   2.418
55203W        W27628  44.837   4.347  13.382
55204W        W27629  33.407   1.481  13.991
55205W        W27630  24.219  11.147   0.803
55206W        W27631  20.126  20.055  10.487
55207W        W27632   9.787  30.553   1.777
55208W        W27633  34.956   1.799  14.280
55209W        W27634  30.933  42.838  10.432
55210W        W27635  25.176  18.659  13.886
55211W        W27636  20.119  19.584   1.782
55212W        W27637   9.169  42.507  14.423
55213W        W27638  10.245  30.618  14.018
55214W        W27639  32.494  26.616   2.901
55215W        W27640  32.485  14.131   4.338
55216W        W27641  26.613  18.623   0.830
55217W        W27642  40.522  14.815  14.288
55218W        W27643  18.225   5.865  14.871
55219W        W27644  25.036  20.730  14.287
55220W        W27645  20.535  25.073  12.511
55221W        W27646  44.772  42.007   0.880
55222W        W27647  30.504  15.704   9.957
55223W        W27648  21.188  31.957   3.789
55224W        W27649  37.456  20.232  12.908
55225W        W27650   8.809  28.129   3.154
55226W        W27651  20.189   7.345   3.270
55227W        W27652  12.788   1.240   3.754
55228W        W27653  21.079  32.457  14.300
55229W        W27654   1.732  12.127  11.953
55230W        W27655   8.867  15.662  14.937
55231W        W27656  26.631   2.748  11.107
55232W        W27657  21.554  35.365   4.769
55233W        W27658  37.579   2.237  11.933
55234W        W27659   7.402  18.217   3.849
55235W        W27660  20.549  10.170  13.415
55236W        W27661  14.273  12.166   4.671
55237W        W27662  39.880  27.611  12.996
55238W        W27663  37.871  39.341  10.618
55239W        W27664  37.505  13.808   4.249
55240W        W27665  23.152  34.943   4.736
55241W        W27666  27.979  39.408  14.024
55242W        W27667  28.041  42.831  12.092
55243W        W27668  39.469  29.625  10.523
55244W        W27669  29.594   3.764  10.597
55245W        W27670   8.723  26.061  11.927
55246W        W27671  15.788  42.378  12.576
55247W        W27672  44.976  40.545   2.706
55248W        W27673  34.492  41.352  11.036
55249W        W27674  43.828  13.146   1.782
55250W        W27675   1.866  28.035  10.487
55251W        W27676  23.104  13.725  11.414
55252W        W27677  11.844  41.432   1.436
55253W        W27678  38.076  44.807   3.801
55254W        W27679  42.354  35.905  10.556
55255W        W27680  30.427  24.639  11.078
55256W        W27681  35.410  41.413   0.284
55257W        W27682  21.026  30.530  11.061
55258W        W27683   1.271  38.331  12.949
55259W        W27684   5.915   1.479  12.080
55260W        W27685   7.811  10.735   2.412
55261W        W27686  11.738   6.316   3.147
55262W        W27687  36.431  14.774   3.253
55263W        W27688  37.437  43.920   3.252
55264W        W27689   2.409  39.476  11.487
55265W        W27690   8.713  20.028  14.300
55266W        W27691  43.287   2.385   1.231
55267W        W27692   9.682  28.185  11.478
55268W        W27693  10.184   8.313  10.419
55269W        W27694  26.070  26.991   0.370
55270W        W27695  43.781   7.763  11.532
55271W        W27696  10.356  10.737  10.540
55272W        W27697   8.338   4.918  14.513
55273W        W27698   9.827   0.776   2.369
55274W        W27699   0.850  10.213  11.538
55275W        W27700  30.158  16.644  14.285
55276W        W27701  39.415  22.699  13.020
55277W        W27702  12.158  36.540  13.506
55278W        W27703  20.030  35.555   2.334
55279W        W27704  19.160  27.000   2.264
55280W        W27705  35.428  23.135  11.403
55281W        W27706   4.374  13.322   4.253
55282W        W27707  42.328  17.668  13.403
55283W        W27708  26.702  37.491   4.200
55284W        W27709  41.967  11.142  13.882
55285W        W27710  35.108  17.191   1.804
55286W        W27711  25.481  33.000   9.976
55287W        W27712  36.368   0.351   0.416
55288W        W27713   1.737  25.500  13.923
55289W        W27714  38.881  28.500  11.096
55290W        W27715  31.949  25.046   3.691
55291W        W27716  25.985   3.440  13.894
55292W        W27717  20.745  17.121  12.053
55293W        W27718  19.718   7.849   1.279
55294W        W27719  15.759  32.483   4.619
55295W        W27720   8.202  38.902  13.989
55296W        W27721  19.609  27.574   3.169
55297W        W27722   4.889  34.588  13.810
55298W        W27723  19.060  36.485   0.458
55299W        W27724  38.012  23.003  10.485
55300W        W27725   6.256  16.197   0.733
55301W        W27726  19.244  13.774   3.695
55302W        W27727  37.955   8.774  12.967
55303W        W27728  15.180  23.112   2.769
55304W        W27729   5.821  43.503   1.245
55305W        W27730   4.874  13.816  13.438
55306W        W27731  31.457  30.529   1.812
55307W        W27732  10.163  40.353  11.441
55308W        W27733  34.524   2.264  13.884
55309W        W27734  18.065  43.864   3.242
55310W        W27735  37.447  12.308  13.959
55311W        W27736   1.404  34.420   4.738
55312W        W27737   9.853  31.547  11.945
55313W        W27738  14.712   1.745  14.491
55314W        W27739  24.505  29.040  13.336
55315W        W27740  31.961  12.832  13.364
55316W        W27741   5.751  41.818   2.865
55317W        W27742  10.313  41.537  13.381
55318W        W27743  27.148   2.801  12.544
55319W        W27744  13.257  20.181   3.386
55320W        W27745  33.434  38.336  13.383
55321W        W27746   9.849  25.084  13.001
55322W        W27747   6.268  29.576  10.625
55323W        W27748  16.103  40.895  10.530
55324W        W27749  14.314   1.379  13.891
55325W        W27750   5.326  24.725  14.278
55326W        W27751   3.722  21.257   2.774
55327W        W27752  14.770  14.322  13.861
55328W        W27753  28.513  20.687   2.290
55329W        W27754  19.561   7.394   4.693
55330W        W27755  31.402  29.501  13.010
55331W        W27756  16.183  27.659  12.827
55332W        W27757  24.715  42.448  12.473
55333W        W27758  24.524  28.552  11.077
55334W        W27759  29.154  21.106   5.651
55335W        W27760  14.693  21.698   2.179
55336W        W27761  29.586  27.974  12.013
55337W        W27762   8.772   0.939   4.140
55338W        W27763  34.437  23.062   0.333
55339W        W27764   7.766   3.431  10.461
55340W        W27765  11.627  39.004  11.055
55341W        W27766  13.828  42.420   1.877
55342W        W27767   0.449  28.042   3.356
55343W        W27768  11.794  38.878   3.179
55344W        W27769  35.094  27.657  11.426
55345W        W27770  24.500   3.924   3.743
55346W        W27771  23.720   1.352   0.922
55347W        W27772   9.687  25.206  14.777
55348W        W27773  35.089  14.101   2.868
55349W        W27774  39.861  22.732  14.488
55350W        W27775   3.242  24.654  13.436
55351W        W27776  12.334  24.607  10.487
55352W        W27777   3.801  35.864  13.486
55353W        W27778  36.927  38.565   1.359
55354W        W27779  29.486   6.272  12.834
55355W        W27780  36.041  29.591   1.274
55356W        W27781  37.914  36.967  13.892
55357W        W27782  15.701  17.796   0.433
55358W        W27783  29.939  15.803   3.293
55359W        W27784   2.377   5.258   0.915
55360W        W27785   8.675  42.892  10.564
55361W        W27786  28.555  25.696  12.469
55362W        W27787  32.000  19.651  13.011
55363W        W27788   9.883  23.200  12.096
55364W        W27789  12.637  38.875  13.330
55365W        W27790  44.441  36.391   2.255
55366W        W27791   6.871   1.301   0.461
55367W        W27792  37.085  19.653  10.481
55368W        W27793   1.301  34.462  13.432
55369W        W27794  26.657  33.415   1.811
55370W        W27795   6.375  41.360   1.275
55371W        W27796  13.797  24.526   0.411
55372W        W27797   8.292  12.224  11.377
55373W        W27798  18.156   2.722   3.205
55374W        W27799   0.266  34.920   4.714
55375W        W27800  42.907   6.345  10.507
55376W        W27801  29.171  22.698  10.458
55377W        W27802  35.894  15.598   2.348
55378W        W27803  21.733   3.420   4.302
55379W        W27804  25.657  39.853   0.299
55380W        W27805  14.099  10.772  12.872
55381W        W27806  30.942  25.045   0.464
55382W        W27807   8.371  26.624  11.576
55383W        W27808  38.944  33.889   4.797
55384W        W27809  24.088   2.342   1.754
55385W        W27810  18.674  26.543   0.373
55386W        W27811  40.029   4.914   3.829
55387W        W27812   7.276  38.347  12.923
55388W        W27813  32.600  44.463   2.263
55389W        W27814  43.304  24.171   0.276
55390W        W27815  31.641  40.398   3.175
55391W        W27816  17.156  42.911  13.320
55392W        W27817  23.513   7.747   4.705
55393W        W27818  33.457  22.602  10.003
55394W        W27819  29.123  12.707  12.976
55395W        W27820  38.021  12.262   1.314
55396W        W27821  37.355  16.806   1.753
55397W        W27822   8.835  11.321   1.718
55398W        W27823  28.523  26.005  10.613
55399W        W27824   7.331   1.790  12.853
55400W        W27825   3.410  37.372   2.684
55401W        W27826  11.686  42.412  13.028
55402W        W27827  25.592  16.253   1.307
55403W        W27828   9.345  35.464  14.374
55404W        W27829  23.573  13.172  13.454
55405W        W27830  33.586   9.312   4.753
55406W        W27831  13.604  20.524  13.885
55407W        W27832  32.513   9.807  11.025
55408W        W27833  14.177  22.194  10.443
55409W        W27834  34.091  10.291   2.368
55410W        W27835   7.703  11.213  10.537
55411W        W27836   8.693  23.536  12.889
55412W        W27837   6.696  16.601  12.528
55413W        W27838  10.290  31.991   0.820
55414W        W27839  30.516   7.862  10.508
55415W        W27840  36.017   8.384   5.138
55416W        W27841  38.907  24.125  10.478
55417W        W27842  34.880  10.164   1.710
55418W        W27843  23.236  31.459  12.027
55419W        W27844  32.634   9.842  11.995
55420W        W27845   6.364  19.767  13.023
55421W        W27846  33.907  11.351  14.782
55422W        W27847  29.548  36.994   4.346
55423W        W27848  41.007  31.950  12.834
55424W        W27849  30.432  20.555  10.042
55425W        W27850  15.130  35.046  14.995
55426W        W27851  20.543  33.979  12.064
55427W        W27852   0.978  37.578  11.498
55428W        W27853  36.441  15.116   1.315
55429W        W27854  34.105  38.068   3.765
55430W        W27855  40.946  34.066   0.783
55431W        W27856   2.885  22.710   4.222
55432W        W27857  33.926  43.437   3.781
55433W        W27858  25.630  28.988   2.712
55434W        W27859  20.757  21.237  11.406
55435W        W27860  42.848  16.277  14.970
55436W        W27861  20.215  41.363   3.344
55437W        W27862  38.883  14.596  14.027
55438W        W27863  21.589  37.400   2.695
55439W        W27864  11.660  22.099  12.960
55440W        W27865  13.631  27.448   0.481
55441W        W27866  39.483  30.127  12.837
55442W        W27867   2.247  36.479   3.817
55443W        W27868  37.931  36.053   1.220
55444W        W27869  24.680   3.331  12.928
55445W        W27870   9.686  40.879  14.840
55446W        W27871  33.903  11.322   0.425
55447W        W27872  31.977  13.116   0.789
55448W        W27873  16.086   1.262   1.908
55449W        W27874  17.647   3.366  13.491
55450W        W27875  39.030  44.395  12.897
55451W        W27876  44.307   6.759  11.376
55452W        W27877  29.623   1.394   4.315
55453W        W27878   8.170   8.363  14.976
55454W        W27879  13.315  40.396   5.308
55455W        W27880  16.699  36.926   4.291
55456W        W27881  22.041  32.627  10.632
55457W        W27882  36.432  32.074  10.565
55458W        W27883  12.154  23.168   1.398
55459W        W27884  32.086  10.711   0.929
55460W        W27885   7.730  39.511  12.393
55461W        W27886   4.322  15.119  13.932
55462W        W27887  38.361  32.917  11.529
55463W        W27888  37.421   4.870  13.938
55464W        W27889   4.785  40.828  13.418
55465W        W27890  12.643  40.384   4.267
55466W        W27891  26.562  26.116   1.371
55467W        W27892  43.906  19.731  11.862
55468W        W27893   2.340   2.915  13.909
55469W        W27894   2.417   9.719  10.637
55470W        W27895  10.355  22.192  12.455
55471W        W27896  18.069  23.142  12.371
55472W        W27897   8.337  43.938  13.504
55473W        W27898  37.539  37.036  13.032
55474W        W27899  16.587   0.922  12.453
55475W        W27900   0.378  22.715   2.297
55476W        W27901   8.328  20.180  13.335
55477W        W27902  19.664  33.446   0.935
55478W        W27903   1.404  11.151   4.630
55479W        W27904  43.475  25.978   0.429
55480W        W27905  24.062  20.746  12.963
55481W        W27906   8.735  13.601   0.960
55482W        W27907  12.148  30.615   2.299
55483W        W27908  42.355  44.382   0.819
55484W        W27909  35.396  16.702  12.024
55485W        W27910  30.534  32.122   2.895
55486W        W27911   8.774  13.225   2.880
55487W        W27912  31.090   4.397  12.423
55488W        W27913   8.174   7.296   2.723
55489W        W27914   5.834   0.345   1.214
55490W        W27915  23.023  41.293   0.422
55491W        W27916  43.841  32.108   3.371
55492W        W27917  33.085   9.227  14.439
55493W        W27918  39.849  42.304   4.142
55494W        W27919  22.538  35.432  13.803
55495W        W27920  25.168   8.816   4.718
55496W        W27921   2.378  17.227  11.465
55497W        W27922  16.646  12.179  10.504
55498W        W27923  23.071  20.658   0.772
55499W        W27924  39.520  17.292  12.419
55500W        W27925  15.637   2.790   2.744
55501W        W27926  27.564  19.212   4.764
55502W        W27927   4.319  42.827   2.861
55503W        W27928  12.221   1.395  12.558
55504W        W27929  23.673  13.697   0.846
55505W        W27930   4.912  25.151   3.168
55506W        W27931  23.125  24.579   4.663
55507W        W27932  21.072  20.268  12.026
55508W        W27933  24.654  21.687  11.887
55509W        W27934  34.005  31.093  12.468
55510W        W27935  32.121  30.430  10.498
55511W        W27936  37.034   4.433  14.007
55512W        W27937  35.051  22.619  12.074
55513W        W27938  36.076  21.625  14.391
55514W        W27939  30.636  12.309   2.184
55515W        W27940  24.081  24.031  14.464
55516W        W27941  14.783  29.132  12.522
55517W        W27942  22.716   6.719  13.499
55518W        W27943  21.696   4.847  13.834
55519W        W27944  44.302  21.629  11.996
55520W        W27945  39.479  16.718   3.146
55521W        W27946   8.164  10.347   3.821
55522W        W27947  30.597   1.814  11.580
55523W        W27948  32.051  16.162  13.330
55524W        W27949  17.764  42.941  10.448
55525W        W27950  13.301  33.925   0.435
55526W        W27951   4.832  13.795   2.291
55527W        W27952  10.146   2.835  13.932
55528W        W27953  34.476  37.420  10.932
55529W        W27954  42.920  28.963   2.684
55530W        W27955  26.037  32.994  12.502
55531W        W27956  32.948  42.375  12.386
55532W        W27957  26.044  15.760  13.523
55533W        W27958  25.654  27.583   2.776
55534W        W27959  31.930  14.308  10.569
55535W        W27960  29.425  40.034  12.938
55536W        W27961  28.657  10.207  14.275
55537W        W27962  27.449  36.551   1.843
55538W        W27963  11.218  30.426   3.646
55539W        W27964   4.410  24.592   3.810
55540W        W27965  14.752  13.290  14.326
55541W        W27966   5.348  41.917   0.466
55542W        W27967  24.035  10.185  11.383
55543W        W27968  43.766  23.069   2.407
55544W        W27969  33.994  13.756   1.785
55545W        W27970  15.652  30.936   2.824
55546W        W27971  17.264  19.115   3.260
55547W        W27972  15.814  12.229  13.038
55548W        W27973  21.529  22.512   0.310
55549W        W27974   4.381   0.359   3.159
55550W        W27975  36.470  31.061   0.845
55551W        W27976  34.584   9.328  12.500
55552W        W27977   3.234  39.942   4.237
55553W        W27978  42.810  36.878  11.389
55554W        W27979   4.262  39.933  14.025
55555W        W27980  13.832  22.616  11.865
55556W        W27981  33.622  39.471  14.301
55557W        W27982  31.543  36.011  13.844
55558W        W27983   0.760   9.655  12.044
55559W        W27984  32.415   8.395   4.789
55560W        W27985  28.085  42.000  14.820
55561W        W27986  26.016  17.186   3.664
55562W        W27987  26.483   7.732  10.925
55563W        W27988  37.964  30.048  11.113
55564W        W27989  41.953   4.874   3.333
55565W        W27990  18.618  16.637   3.827
55566W        W27991  27.650   1.826   1.926
55567W        W27992  14.697  34.563   9.984
55568W        W27993  30.023   3.867  13.357
55569W        W27994   3.328  31.079   2.690
55570W        W27995  35.458  25.058   2.743
55571W        W27996  29.089  29.059  11.494
55572W        W27997  43.783  40.413  11.862
55573W        W27998  42.450  34.007  12.053
55574W        W27999  28.136   2.423  14.975
55575W        W28000  40.943   6.351  12.023
55576W        W28001  28.160  35.012  14.852
55577W        W28002  11.653  14.142  11.397
55578W        W28003  13.119  12.261  12.837
55579W        W28004   7.263  42.406  14.513
55580W        W28005  27.635  17.293   4.630
55581W        W28006  35.528   2.417  13.925
55582W        W28007  20.709   4.430   0.409
55583W        W28008  36.975   9.368  12.005
55584W        W28009  29.065  15.630  12.357
55585W        W28010  31.093  23.639   4.241
55586W        W28011  29.634  31.925   0.727
55587W        W28012  13.759  19.114   2.258
55588W        W28013   2.465   7.667   3.240
55589W        W28014  15.269  20.758  13.391
55590W        W28015  23.715  25.082  14.763
55591W        W28016  20.621  24.546  14.019
55592W        W28017  38.520  31.547   0.918
55593W        W28018  16.230  22.541   1.410
55594W        W28019   0.987  14.756   4.634
55595W        W28020  33.445  33.559  11.376
55596W        W28021  36.356  17.611   2.694
55597W        W28022  10.256  38.870   1.242
55598W        W28023  23.114  27.691   1.888
55599W        W28024  11.647  36.999  12.370
55600W        W28025  38.340  23.636   2.844
55601W        W28026   7.340  24.659   1.734
55602W        W28027  40.860   2.260   4.335
55603W        W28028  20.069  39.437  11.947
55604W        W28029   2.730  28.974   1.830
55605W        W28030   4.778  30.094   3.261
55606W        W28031   0.405   8.383   1.798
55607W        W28032  33.609   8.366  12.552
55608W        W28033   4.864  44.954   1.896
55609W        W28034  38.424  40.962  12.571
55610W        W28035   7.398  21.741  12.579
55611W        W28036  15.086  20.665   0.335
55612W        W28037  35.044  26.657   0.834
55613W        W28038  34.388  24.988  13.922
55614W        W28039  22.134   9.672   5.662
55615W        W28040  41.907   3.820   4.717
55616W        W28041   0.767  41.034   1.919
55617W        W28042  12.355   9.298  14.382
55618W        W28043  17.135  41.437   0.837
55619W        W28044  14.774  14.741   4.706
55620W        W28045  42.953  31.004  10.552
55621W        W28046   5.424  27.502  11.912
55622W        W28047  22.619  18.688   2.802
55623W        W28048  21.262   2.942   2.710
55624W        W28049   1.295  41.442   3.639
55625W        W28050  11.834  26.127   3.363
55626W        W28051  27.592  23.659   2.828
55627W        W28052  41.370  17.703   2.419
55628W        W28053  27.680  27.517  13.889
55629W        W28054  31.943  25.595  14.012
55630W        W28055  43.955   2.434   1.298
55631W        W28056  16.080   7.382   5.133
55632W        W28057  14.784  16.569   3.307
55633W        W28058   0.381  13.839  12.920
55634W        W28059  37.012  23.494  12.943
55635W        W28060  12.312  31.927   5.302
55636W        W28061  26.029  36.470   4.118
55637W        W28062  29.628  25.030   3.248
55638W        W28063  36.076  10.218  14.434
55639W        W28064  37.893  21.520   2.289
55640W        W28065  30.066   8.756   4.684
55641W        W28066   3.314  16.301   4.202
55642W        W28067  30.608  30.597  14.303
55643W        W28068  37.860  20.161   3.201
55644W        W28069  17.648  22.530   3.631
55645W        W28070  10.781  41.340   2.678
55646W        W28071  37.931  25.979   3.744
55647W        W28072  16.731  33.997  12.073
55648W        W28073  24.190  36.862  13.949
55649W        W28074  14.753   3.800  10.516
55650W        W28075   1.341   3.279  11.536
55651W        W28076  21.202  41.919   0.315
55652W        W28077  43.464  44.885   0.784
55653W        W28078  21.105  13.116  14.305
55654W        W28079   2.765  10.366   1.293
55655W        W28080  24.008  41.521   3.329
55656W        W28081   4.205  32.599  14.854
55657W        W28082  10.277  34.422  11.949
55658W        W28083  37.442  37.017  10.950
55659W        W28084  35.875  27.136   1.249
55660W        W28085  23.679  11.218  10.889
55661W        W28086  16.698  30.571   4.610
55662W        W28087  41.800  18.073   3.762
55663W        W28088   6.390   1.749   4.803
55664W        W28089  24.067   1.764  14.512
55665W        W28090  41.839  21.108   0.793
55666W        W28091   7.896   4.310   1.445
55667W        W28092  20.186  19.044   4.278
55668W        W28093  21.029  40.983   2.783
55669W        W28094  40.884  38.854   0.842
55670W        W28095  25.196   9.345  10.904
55671W        W28096  13.759  17.112   1.848
55672W        W28097   7.686  24.556   2.350
55673W        W28098  43.854  20.625   2.718
55674W        W28099  12.649  22.189  12.003
55675W        W28100   8.896  13.706  10.981
55676W        W28101  16.213   9.352  11.115
55677W        W28102   4.875   8.337  12.065
55678W        W28103  19.255  31.010  13.383
55679W        W28104  36.389  32.608  11.044
55680W        W28105  24.164  10.278   9.929
55681W        W28106   6.764  29.597  13.807
55682W        W28107  10.162  18.290   0.872
55683W        W28108  43.951  10.655  11.878
55684W        W28109  42.465  27.168  11.090
55685W        W28110  41.829   1.314   2.828
55686W        W28111  26.699  29.525  11.893
55687W        W28112  34.442  11.677  13.938
55688W        W28113  27.639  26.672  11.593
55689W        W28114  29.092  23.212   1.301
55690W        W28115  10.300  20.261   0.759
55691W        W28116  16.086  29.133  12.826
55692W        W28117  26.547  16.171  12.063
55693W        W28118  15.207  18.218  12.500
55694W        W28119  34.887  21.178  10.445
55695W        W28120  19.137  18.731  13.502
55696W        W28121   8.258  14.281  12.523
55697W        W28122  36.879  13.192   0.736
55698W        W28123  35.022  21.600  10.558
55699W        W28124  14.638  30.574  12.485
55700W        W28125  14.655  34.063  14.485
55701W        W28126  43.877   7.874  12.374
55702W        W28127  20.244  31.429  13.840
55703W        W28128   1.447   7.225  14.851
55704W        W28129  38.038  37.869  11.021
55705W        W28130  43.496  19.218   1.411
55706W        W28131   0.469  33.109   0.805
55707W        W28132  28.939  19.158  12.823
55708W        W28133  36.978   1.327  13.057
55709W        W28134  37.406  11.351   3.348
55710W        W28135  24.197   1.867   1.329
55711W        W28136  43.401   6.683   2.379
55712W        W28137  38.916   7.798  12.952
55713W        W28138  31.002  13.673   0.281
55714W        W28139  18.722  15.619  13.913
55715W        W28140  23.693   3.353   2.708
55716W        W28141  24.211  30.445  11.924
55717W        W28142   5.870  41.451  13.347
55718W        W28143  33.107  17.701  11.468
55719W        W28144  35.063   5.828  14.470
55720W        W28145   0.818  10.144   9.936
55721W        W28146   3.241  42.376  13.545
55722W        W28147  34.533   7.190   5.316
55723W        W28148  35.998  39.888  11.868
55724W        W28149   9.264   9.180  12.096
55725W        W28150   1.356  29.023  13.435
55726W        W28151  44.504  35.577   1.283
55727W        W28152  35.544  36.432  10.892
55728W        W28153  40.342   0.959   2.693
55729W        W28154   4.326  28.492   1.437
55730W        W28155  40.861  37.869   2.879
55731W        W28156   8.826   6.361   0.962
55732W        W28157  23.032  42.454  11.063
55733W        W28158  23.610  10.140   9.958
55734W        W28159  22.523  29.033   2.257
55735W        W28160  26.987  19.713  14.362
55736W        W28161  15.100  29.628   3.770
55737W        W28162  30.104  34.101  11.384
55738W        W28163   8.839  33.017  13.461
55739W        W28164  20.556   1.779  12.514
55740W        W28165  25.593  10.379  13.895
55741W        W28166   5.883  31.452  14.815
55742W        W28167  40.979  33.600   0.755
55743W        W28168  33.009  33.003  12.960
55744W        W28169   5.818  43.016   1.736
55745W        W28170  14.657  40.387   4.823
55746W        W28171  13.293  30.524  14.029
55747W        W28172  40.888   6.720  11.882
55748W        W28173  27.479  33.543  10.479
55749W        W28174  39.433  35.981   3.868
55750W        W28175  41.502  33.123  13.346
55751W        W28176  36.050  34.899  11.955
55752W        W28177   9.345  38.981  10.926
55753W        W28178  37.985   0.392  13.479
55754W        W28179   3.315  38.328   1.221
55755W        W28180  25.154   5.375   2.856
55756W        W28181  34.084   0.362  13.806
55757W        W28182  40.803  24.596  13.510
55758W        W28183  41.368  38.879  13.506
55759W        W28184  27.994  30.092  11.433
55760W        W28185  18.558  26.976  13.398
55761W        W28186  17.121  25.205  11.974
55762W        W28187  36.979  30.095  14.380
55763W        W28188  30.546  23.231  14.416
55764W        W28189  36.070  26.500   5.095
55765W        W28190   2.795  36.408  10.436
55766W        W28191  24.167  35.995  12.022
55767W        W28192   8.738   1.278   3.781
55768W        W28193  17.293  20.688  12.464
55769W        W28194  30.094  31.915   3.364
55770W        W28195  13.808  26.613   4.196
55771W        W28196  15.285  11.184   2.827
55772W        W28197  36.919  26.990  10.506
55773W        W28198   3.872  43.019  12.526
55774W        W28199  23.644  25.055   3.182
55775W        W28200   1.466  42.017   0.874
55776W        W28201  20.606  25.670   2.729
55777W        W28202  37.378  21.061  13.026
55778W        W28203  42.935   5.244  13.529
55779W        W28204   8.836  44.832  13.340
55780W        W28205  20.709  38.487  12.986
55781W        W28206  17.209   9.653  11.529
55782W        W28207  26.980  43.310  13.380
55783W        W28208   0.845  22.249   1.909
55784W        W28209  33.453   6.819   4.223
55785W        W28210  38.956  32.949   1.355
55786W        W28211   3.873  28.976   0.416
55787W        W28212   3.812  27.461   1.433
55788W        W28213  36.568  21.562  13.814
55789W        W28214  30.596  25.657  12.473
55790W        W28215  35.420  26.070  12.438
55791W        W28216   9.817  37.386  12.859
55792W        W28217  43.284  21.237  11.444
55793W        W28218  31.590   8.845  13.382
55794W        W28219  34.116  26.104  11.983
55795W        W28220  24.717   7.824  13.506
55796W        W28221  14.687  43.292   3.208
55797W        W28222  13.668  34.115  12.400
55798W        W28223  26.012   5.903   0.905
55799W        W28224  30.152   0.894  12.421
55800W        W28225   6.922   3.796  11.934
55801W        W28226  30.994  22.999  10.413
55802W        W28227  38.493   3.873   3.862
55803W        W28228  39.848  12.815   3.375
55804W        W28229   4.254   6.754   1.221
55805W        W28230  24.073  17.734  10.996
55806W        W28231  29.661  17.123   0.964
55807W        W28232  30.598  11.625  13.809
55808W        W28233   2.257  35.012  12.994
55809W        W28234   2.322  43.839   0.765
55810W        W28235  18.728  32.612   2.759
55811W        W28236  22.690  32.509   2.714
55812W        W28237  19.681   2.440  12.579
55813W        W28238  26.489   3.262   3.662
55814W        W28239  35.095  38.859   3.840
55815W        W28240  34.438   9.735   1.813
55816W        W28241   8.316  35.035  12.562
55817W        W28242  42.288  33.528  14.789
55818W        W28243  16.085  30.091  12.466
55819W        W28244  25.189  25.103  12.470
55820W        W28245  31.926  37.561   1.874
55821W        W28246  35.020  44.905  12.396
55822W        W28247  17.587  24.534   0.382
55823W        W28248  44.298  21.627   4.116
55824W        W28249  43.893  20.161   1.708
55825W        W28250   4.752  14.677  13.339
55826W        W28251   4.788   5.430   1.848
55827W        W28252  40.344   2.856  13.316
55828W        W28253   2.358  25.120  11.396
55829W        W28254  35.581  38.535   1.875
55830W        W28255   3.424  37.969  14.985
55831W        W28256  31.043  13.632   1.228
55832W        W28257   4.732  23.035  11.036
55833W        W28258  40.844  30.605   0.744
55834W        W28259  10.211  17.299  12.914
55835W        W28260  12.320  15.194  13.927
55836W        W28261  20.242  39.435  10.411
55837W        W28262   3.761  12.270  10.536
55838W        W28263  14.135  38.070   3.299
55839W        W28264  25.562  27.530   3.265
55840W        W28265  10.870  29.564  12.985
55841W        W28266  34.033  23.984   4.353
55842W        W28267  26.994   3.879   3.247
55843W        W28268   3.367  30.644   1.737
55844W        W28269  40.415  19.143   3.305
55845W        W28270  29.492  27.017  11.570
55846W        W28271  25.679  28.497  12.956
55847W        W28272  27.956  10.222  14.864
55848W        W28273  33.017  29.949   3.820
55849W        W28274  38.512  33.029   1.749
55850W        W28275  39.532  23.152   3.824
55851W        W28276  23.661  29.620  12.566
55852W        W28277  32.897  44.440   4.680
55853W        W28278  10.671  31.057   2.262
55854W        W28279   5.413  16.177   1.240
55855W        W28280   2.964   7.887  10.891
55856W        W28281  35.011   9.341   0.867
55857W        W28282  11.359   1.742   9.988
55858W        W28283  43.471  32.949   0.914
55859W        W28284  30.608  24.089  10.460
55860W        W28285  29.067  13.134  13.368
55861W        W28286   9.218   3.883   2.215
55862W        W28287  42.981  10.826   0.874
55863W        W28288   0.838  23.721  12.395
55864W        W28289   1.876  20.626   0.766
55865W        W28290  16.115   5.879  12.487
55866W        W28291  30.096  37.062  11.870
55867W        W28292  28.116  28.052   0.771
55868W        W28293   8.241  39.957   1.728
55869W        W28294   6.722   4.292   4.242
55870W        W28295  11.681  18.729   3.735
55871W        W28296  24.132  31.025   2.871
55872W        W28297   3.322   7.214  13.378
55873W        W28298  15.184  42.380   3.736
55874W        W28299   8.801  34.890  13.311
55875W        W28300  42.351  17.699  13.826
55876W        W28301   5.882  15.082   1.219
55877W        W28302  11.817  30.154   2.341
55878W        W28303   6.276   6.258   1.718
55879W        W28304  17.217  22.099  14.818
55880W        W28305  21.066  22.696   2.199
55881W        W28306   0.459  35.498   3.233
55882W        W28307  11.854  23.608  14.440
55883W        W28308  33.590  27.517  11.410
55884W        W28309  22.112  26.020   1.746
55885W        W28310  43.417  38.410  13.409
55886W        W28311  16.755  29.132   4.253
55887W        W28312  39.924  23.704  14.870
55888W        W28313  16.786   7.883  13.812
55889W        W28314  27.673  10.863   0.848
55890W        W28315   2.871  39.965  11.028
55891W        W28316  34.474  13.268   4.351
55892W        W28317  32.396  35.468   3.227
55893W        W28318   8.198   3.370  13.868
55894W        W28319  28.994  10.635  12.955
55895W        W28320  18.594   5.765   0.387
55896W        W28321  40.972  43.766  13.976
55897W        W28322   5.776  16.286   4.776
55898W        W28323  35.420  21.524  10.600
55899W        W28324  36.947  31.427   1.327
55900W        W28325  32.008   4.876  10.158
55901W        W28326  13.750  39.452   0.743
55902W        W28327  28.542  33.120  11.559
55903W        W28328  42.387   7.184  10.403
55904W        W28329  34.489  10.730   4.761
55905W        W28330  20.645  39.007   1.885
55906W        W28331  30.479  37.897  14.315
55907W        W28332   6.237   9.306   2.374
55908W        W28333   7.374  18.724   4.808
55909W        W28334  16.754  39.872   1.429
55910W        W28335  23.681   6.346   2.671
55911W        W28336   2.932   7.381  13.341
55912W        W28337  18.062   1.921  11.034
55913W        W28338  14.748  17.269  14.985
55914W        W28339  19.717  40.826   2.724
55915W        W28340   3.890  43.899   2.714
55916W        W28341  32.923  14.234  13.316
55917W        W28342  12.134  13.626   2.210
55918W        W28343  12.660  25.714  11.987
55919W        W28344  19.145  17.285   2.732
55920W        W28345  39.946   0.486   4.238
55921W        W28346  18.296  13.627   2.890
55922W        W28347  10.799   7.387  14.396
55923W        W28348  11.646  29.502   5.275
55924W        W28349  42.374  23.194   4.718
55925W        W28350  28.476   5.733   3.820
55926W        W28351  34.099   7.174  13.037
55927W        W28352  41.505  11.635  12.941
55928W        W28353  40.503  20.602  11.609
55929W        W28354   3.827  27.583  12.545
55930W        W28355  23.664  18.710  11.002
55931W        W28356  12.278  38.404   2.797
55932W        W28357  11.271  23.162  11.613
55933W        W28358  34.529  37.499  11.476
55934W        W28359   6.851   2.726  12.865
55935W        W28360  26.101  15.755  11.069
55936W        W28361  22.724   4.390   1.867
55937W        W28362  31.104  36.998   1.783
55938W        W28363   5.861  11.828   0.254
55939W        W28364  44.956  22.174  10.444
55940W        W28365  17.723  33.937  14.400
55941W        W28366  41.420   5.400   4.601
55942W        W28367  37.442  12.689   2.418
55943W        W28368  35.532   0.946  10.609
55944W        W28369  24.610  36.049  14.817
55945W        W28370   1.744  33.117   4.664
55946W        W28371  31.526   7.783   4.774
55947W        W28372   1.747  19.094   1.266
55948W        W28373  30.086  40.504   4.209
55949W        W28374  40.479  11.290   2.411
55950W        W28375   4.896  30.968   2.768
55951W        W28376  23.129  38.471   1.932
55952W        W28377  32.906  33.089   0.803
55953W        W28378  22.701  12.285  14.837
55954W        W28379  23.651  26.699   0.316
55955W        W28380   7.822  23.238  12.905
55956W        W28381  44.871  33.077   4.213
55957W        W28382  43.443  39.536  11.494
55958W        W28383  25.086  18.577   3.210
55959W        W28384   7.773  16.198  13.396
55960W        W28385  15.265  33.568  13.391
55961W        W28386  31.538  20.654   0.479
55962W        W28387   6.802  16.284   3.706
55963W        W28388  23.240  34.419  11.506
55964W        W28389  11.809  24.579  13.406
55965W        W28390  29.442  34.957   4.639
55966W        W28391  20.562  11.742  12.363
55967W        W28392  21.756  44.990  14.469
55968W        W28393  20.250  32.560  11.951
55969W        W28394  37.491  41.834  11.858
55970W        W28395  37.359  37.893  14.340
55971W        W28396  14.167  18.740   1.740
55972W        W28397   9.376  41.401  10.986
55973W        W28398  25.490   9.161   2.830
55974W        W28399  27.500   2.314   1.801
55975W        W28400  44.808  10.179   1.385
55976W        W28401  29.485  44.938  14.865
55977W        W28402  26.686  22.690   4.144
55978W        W28403  17.602  42.831  13.498
55979W        W28404   4.252  30.161  12.921
55980W        W28405  17.238  34.548   2.793
55981W        W28406  23.104  23.609   2.381
55982W        W28407  35.459  12.736   2.852
55983W        W28408   0.273  44.311  12.976
55984W        W28409  26.484  40.346  14.021
55985W        W28410  12.356  35.887   2.821
55986W        W28411  29.994  39.818   4.276
55987W        W28412  36.484   1.309   1.802
55988W        W28413  22.642  38.550  14.762
55989W        W28414   1.922   4.738  10.535
55990W        W28415  13.770  34.920  11.037
55991W        W28416   3.387  30.971   3.857
55992W        W28417  10.766  23.128  13.034
55993W        W28418  36.366  35.869  11.423
55994W        W28419  25.109   8.169  13.547
55995W        W28420  32.899  29.996  12.566
55996W        W28421  28.930  26.197  13.386
55997W        W28422   6.253  44.854   2.304
55998W        W28423  34.112  10.169  13.411
55999W        W28424  10.319  42.940  11.104
56000W        W28425  11.843   7.911  11.545
56001W        W28426  38.474   7.671   4.119
56002W        W28427   2.844  10.650   1.256
56003W        W28428  43.326  14.158  12.887
56004W        W28429  35.937  18.597   2.369
56005W        W28430   4.351  21.214   4.792
56006W        W28431  19.196  27.646  13.534
56007W        W28432   1.312  29.105  12.003
56008W        W28433  19.778  39.416   4.286
56009W        W28434  10.375  35.025  10.574
56010W        W28435  17.590  43.888   0.773
56011W        W28436  11.312   4.450   3.868
56012W        W28437  20.107   5.399  11.387
56013W        W28438  19.284  20.522   3.852
56014W        W28439   5.394  24.525  10.498
56015W        W28440  23.112  22.535   1.396
56016W        W28441  36.908  20.592   3.775
56017W        W28442  30.033  21.642  14.332
56018W        W28443  44.911   5.339  12.994
56019W        W28444  10.774  11.737  12.402
56020W        W28445  19.076  14.115  14.994
56021W        W28446  20.116   0.484   4.294
56022W        W28447   1.480  34.525   4.242
56023W        W28448  16.766  24.979   2.367
56024W        W28449  11.137  13.231   2.374
56025W        W28450  12.134  28.537   2.319
56026W        W28451   5.350   2.351   0.439
56027W        W28452  28.035  35.018   2.828
56028W        W28453  11.224  41.806   3.679
56029W        W28454  16.619  43.385   3.243
56030W        W28455   7.783  19.218  12.406
56031W        W28456  27.560  36.935   3.701
56032W        W28457  31.500  14.667  13.987
56033W        W28458  38.058  17.282  11.472
56034W        W28459  31.444  22.638  12.390
56035W        W28460  25.035  34.490   3.315
56036W        W28461   4.426  27.538  12.385
56037W        W28462  14.126  38.544  14.814
56038W        W28463  33.460  17.083  14.030
56039W        W28464  10.196   2.948  12.854
56040W        W28465   3.774  19.165   0.732
56041W        W28466  32.036  29.066  11.050
56042W        W28467  22.054  12.158  13.063
56043W        W28468   6.758  20.272  11.946
56044W        W28469  21.727  16.711   4.627
56045W        W28470  29.029   4.899  13.923
56046W        W28471  13.343   9.387   4.683
56047W        W28472  30.491  15.727  10.485
56048W        W28473  31.139  35.393  12.431
56049W        W28474  33.608  37.012   3.158
56050W        W28475  24.552  42.938  12.556
56051W        W28476  12.755  44.825   0.392
56052W        W28477  27.491  38.409  10.640
56053W        W28478  24.109  39.889  13.837
56054W        W28479  39.899  16.243  11.591
56055W        W28480  30.509   4.311  13.944
56056W        W28481  15.703  40.345   4.829
56057W        W28482  35.006  36.945  13.501
56058W        W28483  41.417  19.051   3.737
56059W        W28484  20.722  11.787  11.919
56060W        W28485  38.830  39.996  12.048
56061W        W28486  16.110  40.400   0.909
56062W        W28487  40.030   8.405  13.366
56063W        W28488  22.064  36.502   2.314
56064W        W28489  30.952  29.979  10.922
56065W        W28490  29.105   8.773   2.258
56066W        W28491   8.236  21.137  10.054
56067W        W28492  29.105  18.239   0.850
56068W        W28493  17.589  41.817   1.705
56069W        W28494   8.302  15.644  14.869
56070W        W28495  14.725   8.317  12.909
56071W        W28496   1.799  16.224   0.377
56072W        W28497  32.047  21.111  14.993
56073W        W28498  32.989  14.744  10.898
56074W        W28499   8.215   4.816  11.943
56075W        W28500  17.251  32.047   2.691
56076W        W28501  22.231  20.684  11.040
56077W        W28502  38.361   8.759   0.869
56078W        W28503  16.736  10.267  12.446
56079W        W28504  33.486  13.203   1.332
56080W        W28505  43.807   0.277   0.859
56081W        W28506  32.554  42.315   4.179
56082W        W28507   1.478   0.797   0.478
56083W        W28508  41.447  40.928  14.798
56084W        W28509  30.563  36.028  13.007
56085W        W28510  40.536  41.496  12.013
56086W        W28511  17.217  12.303  14.286
56087W        W28512  25.031  15.645   5.141
56088W        W28513   3.314   5.345   3.151
56089W        W28514  32.007  23.539   2.679
56090W        W28515   7.808  20.612  11.025
56091W        W28516  34.875   1.897   1.852
56092W        W28517  29.663  32.947   4.150
56093W        W28518  35.096  34.528  14.380
56094W        W28519   3.901  30.593   5.283
56095W        W28520  21.548  36.968  10.483
56096W        W28521  29.119  33.980   0.874
56097W        W28522  43.367  33.044  13.844
56098W        W28523  11.208  42.789  14.006
56099W        W28524  33.043  18.069   3.698
56100W        W28525  14.262  44.777  11.892
56101W        W28526   0.787   8.349   4.786
56102W        W28527   4.783  19.256  12.364
56103W        W28528  34.545  17.601   2.210
56104W        W28529   9.730   4.207  11.478
56105W        W28530  32.524  27.522   3.782
56106W        W28531  42.828  27.513  13.828
56107W        W28532  33.403  16.664  10.569
56108W        W28533  13.229   7.372  11.443
56109W        W28534  14.795  17.759  12.991
56110W        W28535   4.728  15.210  12.847
56111W        W28536  37.475  42.004   1.325
56112W        W28537  11.651  41.933   3.255
56113W        W28538   5.888  28.638   4.798
56114W        W28539  17.609   4.255  12.888
56115W        W28540   5.412  28.573   0.391
56116W        W28541  15.689  32.955   2.699
56117W        W28542  21.033   9.854  10.617
56118W        W28543  12.705   6.335   3.230
56119W        W28544  24.033   1.294   0.369
56120W        W28545  13.684  20.169   2.306
56121W        W28546   6.732  35.495  11.007
56122W        W28547  42.478  30.939  12.047
56123W        W28548  23.666   0.956   2.262
56124W        W28549   1.925  24.543  14.872
56125W        W28550  25.632  17.560   2.724
56126W        W28551  42.924  37.912  13.941
56127W        W28552  35.552  24.210  10.982
56128W        W28553  25.533   1.945  13.934
56129W        W28554  40.391  29.023  11.017
56130W        W28555  34.378  11.347   3.795
56131W        W28556  13.119  13.788  13.462
56132W        W28557   3.721  32.022  10.984
56133W        W28558  27.470  42.011  10.540
56134W        W28559  36.586  34.982   3.250
56135W        W28560   0.928   4.914   1.436
56136W        W28561  38.891  28.941   0.736
56137W        W28562  30.512   1.294   4.673
56138W        W28563   7.183  42.801   1.709
56139W        W28564  27.115   2.300   3.359
56140W        W28565   8.304  18.255   3.379
56141W        W28566  40.461  42.842  12.340
56142W        W28567  20.553  25.988   0.387
56143W        W28568  20.055  38.906  13.375
56144W        W28569   5.203  42.390   0.731
56145W        W28570  11.866  31.964  11.039
56146W        W28571  34.924   7.786  12.067
56147W        W28572  37.387   5.202  12.012
56148W        W28573  10.354   4.871  14.872
56149W        W28574   0.774  33.619  12.922
56150W        W28575  24.560  15.774   2.715
56151W        W28576   7.846  37.490  11.980
56152W        W28577  36.993   6.898  14.772
56153W        W28578  40.547  32.953   2.718
56154W        W28579  33.402  29.478  13.492
56155W        W28580   1.378   8.892   3.857
56156W        W28581  21.571  39.527  14.765
56157W        W28582  27.945  20.079   0.260
56158W        W28583  32.476  19.765  13.945
56159W        W28584  40.800  19.572  10.588
56160W        W28585   7.211  40.879   4.696
56161W        W28586  11.627  16.745  13.445
56162W        W28587   5.725   7.811   4.786
56163W        W28588  36.574   0.489   0.851
56164W        W28589  32.498  21.099   0.754
56165W        W28590  22.203  33.444   2.749
56166W        W28591  38.075  39.820   3.276
56167W        W28592  23.021  27.487   2.854
56168W        W28593  42.839  32.098  14.901
56169W        W28594  35.430  14.599  14.029
56170W        W28595  29.667  35.004   1.777
56171W        W28596   8.401  39.853  14.940
56172W        W28597   0.934  19.568  13.986
56173W        W28598   3.358  34.485  14.295
56174W        W28599   5.701  12.844   3.230
56175W        W28600  13.633   4.375  13.352
56176W        W28601  40.462  33.470   4.126
56177W        W28602   2.243  31.487  11.594
56178W        W28603  22.140   6.760  11.549
56179W        W28604  28.522  36.943  11.005
56180W        W28605  40.942  28.160   0.749
56181W        W28606  24.089  42.809   4.326
56182W        W28607  24.045  10.808  13.352
56183W        W28608  22.100   9.223   9.527
56184W        W28609  16.123  44.832   4.701
56185W        W28610  13.650  41.478  11.873
56186W        W28611  30.565  32.637   3.831
56187W        W28612  28.451  17.114  14.806
56188W        W28613  30.932  36.517  11.013
56189W        W28614   6.733  28.563   3.658
56190W        W28615  39.967  27.164  12.052
56191W        W28616   0.316   3.745   3.209
56192W        W28617  33.126   2.954   3.836
56193W        W28618  14.094  28.595  14.337
56194W        W28619  11.810  29.097   3.637
56195W        W28620  31.055  12.830  14.827
56196W        W28621   2.467  13.305   3.182
56197W        W28622   2.940  31.597   3.820
56198W        W28623  10.159  14.687   2.683
56199W        W28624  37.359  10.262  10.404
56200W        W28625  25.526  27.975  10.136
56201W        W28626   9.812   1.423   0.946
56202W        W28627  31.152  39.032   2.349
56203W        W28628  42.820   4.928   4.114
56204W        W28629  23.509   1.406   1.909
56205W        W28630  23.559   5.418  12.938
56206W        W28631   1.454  32.088  14.803
56207W        W28632  38.879  38.464  13.429
56208W        W28633  44.913  32.583  13.028
56209W        W28634  12.116  21.191  10.542
56210W        W28635  33.471  20.063  10.001
56211W        W28636  15.755  25.045  10.635
56212W        W28637  24.480   6.221  13.033
56213W        W28638  21.185  24.682   2.792
56214W        W28639  23.087  29.169  13.426
56215W        W28640  13.793  22.110   2.361
56216W        W28641  24.547  20.183  13.439
56217W        W28642  23.224  14.293  12.998
56218W        W28643   2.378  22.046  14.927
56219W        W28644  20.091  39.416  14.976
56220W        W28645  15.822  21.108   5.265
56221W        W28646  14.299  12.330  14.360
56222W        W28647  12.718  24.697   3.798
56223W        W28648  20.199   9.356   3.327
56224W        W28649  14.744  25.035  13.386
56225W        W28650  39.471  15.258  11.886
56226W        W28651  39.537  27.057   4.773
56227W        W28652  29.013   9.201  10.888
56228W        W28653   8.876  15.622  11.099
56229W        W28654  40.039  41.518  11.571
56230W        W28655  35.571  32.608  11.123
56231W        W28656  17.793   9.680  12.370
56232W        W28657  40.990  26.700  11.495
56233W        W28658  22.615  28.457   4.290
56234W        W28659  32.006  19.561  10.585
56235W        W28660  32.448  35.100   4.811
56236W        W28661   0.817  43.419   2.232
56237W        W28662   7.286  20.732  11.377
56238W        W28663  25.552  28.099   4.795
56239W        W28664  16.089  30.085   2.724
56240W        W28665  12.342  37.977  13.381
56241W        W28666  31.604   7.855  13.846
56242W        W28667  32.584   3.942   3.255
56243W        W28668   4.338  13.713  12.573
56244W        W28669  25.497   5.412  14.012
56245W        W28670  37.987  13.226   0.911
56246W        W28671  22.182  11.833  11.417
56247W        W28672  28.937  21.706   5.305
56248W        W28673  16.737  35.071   0.287
56249W        W28674  19.779  13.129  11.428
56250W        W28675  41.387  19.226  12.003
56251W        W28676  40.352  11.697   1.277
56252W        W28677  16.135  12.297  12.422
56253W        W28678   2.743   8.877  14.369
56254W        W28679  24.121  41.933  14.003
56255W        W28680  28.121  20.615   2.280
56256W        W28681  11.333  31.506  13.354
56257W        W28682  21.661  33.130   2.347
56258W        W28683  13.130  43.290   1.436
56259W        W28684   0.791  14.599   1.736
56260W        W28685  13.746  23.042  14.483
56261W        W28686  32.408  19.137   3.742
56262W        W28687   6.744  27.534   4.726
56263W        W28688   6.383  41.033   0.374
56264W        W28689  38.433   1.941  12.511
56265W        W28690  21.193   9.694  13.978
56266W        W28691  24.687   5.880   0.940
56267W        W28692   6.736  39.554  11.490
56268W        W28693  28.157  18.277   0.426
56269W        W28694  11.686  19.121   1.370
56270W        W28695  35.379  43.829   4.660
56271W        W28696  43.442   3.225   5.142
56272W        W28697  12.173  41.329  10.465
56273W        W28698  12.150  22.512   2.372
56274W        W28699  16.735   5.704  10.489
56275W        W28700  43.344  26.189  11.562
56276W        W28701  40.412   4.441  13.413
56277W        W28702  24.100   5.407   1.740
56278W        W28703  25.054   7.907  13.522
56279W        W28704  39.920   6.324   1.927
56280W        W28705  18.260   8.166  12.539
56281W        W28706   6.192  32.513   2.382
56282W        W28707  44.767  30.463  14.779
56283W        W28708   6.399  22.659  13.433
56284W        W28709   1.360  11.226   2.745
56285W        W28710  19.187  12.345  13.313
56286W        W28711  24.121   3.289  11.577
56287W        W28712  17.294  11.145   2.361
56288W        W28713  20.616  39.378   3.840
56289W        W28714   2.920  43.811   2.688
56290W        W28715  19.746  37.469   0.437
56291W        W28716  33.396  15.794  13.060
56292W        W28717   2.238  40.977  14.862
56293W        W28718  21.052  16.158   0.804
56294W        W28719  26.464  42.870  12.383
56295W        W28720  15.737  11.825   4.350
56296W        W28721   3.408  29.980   2.820
56297W        W28722  12.328  26.111  10.556
56298W        W28723  42.944  44.932  14.833
56299W        W28724  14.169  39.020  13.792
56300W        W28725   4.725  12.344  13.025
56301W        W28726   3.320  43.399  13.960
56302W        W28727  30.074   8.741   1.906
56303W        W28728   5.434  33.394  12.838
56304W        W28729  30.931  21.617   1.698
56305W        W28730  31.495   9.168  11.587
56306W        W28731  23.590  24.703   4.614
56307W        W28732  25.615  36.954   1.344
56308W        W28733  41.026  40.901  12.544
56309W        W28734   1.310  42.870   1.808
56310W        W28735  32.587  26.602   3.820
56311W        W28736  12.241   0.803  13.894
56312W        W28737  24.569   3.345  10.449
56313W        W28738  12.654  39.868   0.878
56314W        W28739  37.948  28.465  14.937
56315W        W28740   2.885  32.915  14.368
56316W        W28741  26.972   1.939  10.501
56317W        W28742  38.392  34.035  12.931
56318W        W28743   7.267  28.593   1.259
56319W        W28744  38.427  27.984   0.775
56320W        W28745   6.374  35.452   3.698
56321W        W28746  40.312  13.603  12.499
56322W        W28747  18.620  28.148   9.957
56323W        W28748  12.283  23.208  13.869
56324W        W28749  20.203  23.117   1.368
56325W        W28750   9.817   2.319  13.898
56326W        W28751   2.321  33.888   3.693
56327W        W28752   2.967  10.210   2.300
56328W        W28753  19.749  29.622  11.070
56329W        W28754  23.017  39.019   3.663
56330W        W28755  38.821   5.750   0.255
56331W        W28756   5.270  33.543   4.640
56332W        W28757  39.850  11.671   2.188
56333W        W28758  12.625  42.917  11.605
56334W        W28759  26.648  12.254   3.257
56335W        W28760  23.090  18.729  10.477
56336W        W28761  32.955  42.870  12.383
56337W        W28762  25.011  22.564   1.894
56338W        W28763  30.079   4.372   2.282
56339W        W28764  16.599  23.694  14.888
56340W        W28765  12.168  12.201   1.786
56341W        W28766  40.485  12.350  14.987
56342W        W28767  32.094   4.857   1.894
56343W        W28768  16.735  23.641  14.353
56344W        W28769  29.032  26.592   0.805
56345W        W28770  10.757   3.861   0.286
56346W        W28771  35.433   8.400  13.501
56347W        W28772  28.039  20.718   0.295
56348W        W28773  13.333   0.775  10.501
56349W        W28774  42.841  31.026  14.950
56350W        W28775   3.910   6.295  13.935
56351W        W28776   0.456  15.236  14.933
56352W        W28777  32.451  15.778  14.491
56353W        W28778  14.637   4.745   3.645
56354W        W28779  27.645  20.156  14.910
56355W        W28780  18.580  28.637   4.279
56356W        W28781   5.829  20.706  12.843
56357W        W28782  40.528  17.260   3.209
56358W        W28783  11.250  23.636  11.963
56359W        W28784  42.018  31.474  14.816
56360W        W28785   7.252  36.482  11.410
56361W        W28786  22.194  39.960   3.183
56362W        W28787  44.952  12.698  13.488
56363W        W28788   0.359  32.907  14.971
56364W        W28789  10.733  30.474  13.461
56365W        W28790  29.490  28.523  12.421
56366W        W28791  11.633  29.073  11.936
56367W        W28792  10.736  33.502  11.443
56368W        W28793   4.916  43.911   2.193
56369W        W28794  38.944  11.308   0.289
56370W        W28795   3.919  18.284  14.766
56371W        W28796  28.561  38.838   5.637
56372W        W28797  12.646  18.195  12.436
56373W        W28798   9.345  36.002  13.547
56374W        W28799   2.917  11.248   2.285
56375W        W28800   5.774  20.052   2.869
56376W        W28801  12.300  44.855   2.870
56377W        W28802  42.434  29.052   1.831
56378W        W28803  41.315  18.708  14.789
56379W        W28804  37.504   5.908   3.267
56380W        W28805  40.911   5.419   0.267
56381W        W28806  11.240  22.034  11.396
56382W        W28807  44.756   8.890   4.784
56383W        W28808  12.786   9.696   1.817
56384W        W28809  16.661  11.340  12.079
56385W        W28810  26.995  19.578   4.680
56386W        W28811  23.626  35.583  10.583
56387W        W28812  12.285  16.610   0.907
56388W        W28813  31.486  35.935  11.912
56389W        W28814   7.869  35.015  10.468
56390W        W28815  16.179  30.955  14.007
56391W        W28816  37.072  38.367   1.732
56392W        W28817  16.746   0.460  12.930
56393W        W28818  38.383  20.160   3.688
56394W        W28819  39.477   3.430  12.375
56395W        W28820  32.060  15.722   3.810
56396W        W28821  10.747  42.971   2.237
56397W        W28822  11.812  34.120   0.257
56398W        W28823   6.300  38.441  10.492
56399W        W28824  38.039  32.089   4.338
56400W        W28825  16.697  15.751   0.728
56401W        W28826  26.035  14.208   3.216
56402W        W28827   5.693  29.973   0.791
56403W        W28828  33.882  44.262   2.306
56404W        W28829   4.726  17.781  13.930
56405W        W28830  27.529   4.782  14.283
56406W        W28831  39.527  44.987  11.504
56407W        W28832  40.447  24.480  14.438
56408W        W28833  42.297  17.234   1.819
56409W        W28834  17.210  13.759  14.299
56410W        W28835  23.730  37.569  11.404
56411W        W28836  26.103   7.901  11.444
56412W        W28837  24.499  32.546   3.669
56413W        W28838  33.885  11.699  11.907
56414W        W28839  30.573  28.626  13.543
56415W        W28840  13.230  21.732   0.762
56416W        W28841  30.469  29.483   3.801
56417W        W28842   9.293  37.512  11.956
56418W        W28843  37.861   2.450  11.043
56419W        W28844  23.183  26.987  10.503
56420W        W28845  40.461   7.789   2.800
56421W        W28846  41.012   0.386  13.058
56422W        W28847  20.074  18.650  13.452
56423W        W28848   7.361   8.850   5.264
56424W        W28849   7.773  42.028  13.022
56425W        W28850  36.077   5.232  12.875
56426W        W28851  33.051  41.506  13.050
56427W        W28852  33.932  15.686   0.956
56428W        W28853  30.151  13.784  10.971
56429W        W28854  11.299  17.129   3.301
56430W        W28855  31.142  31.420  12.387
56431W        W28856  25.614  37.517   3.370
56432W        W28857  14.750  31.971   0.333
56433W        W28858  43.004  40.047  12.983
56434W        W28859  22.504   8.184  13.430
56435W        W28860   6.408  15.252   0.339
56436W        W28861  41.356  30.104   1.224
56437W        W28862  15.094  35.471   2.699
56438W        W28863  32.504  34.904   1.739
56439W        W28864  29.473  44.436   1.870
56440W        W28865  23.641  20.057  11.600
56441W        W28866  31.614  30.015   4.825
56442W        W28867  13.326  35.391  11.542
56443W        W28868  23.492  25.478  10.508
56444W        W28869  32.116  39.039   4.665
56445W        W28870  37.963   1.887   3.206
56446W        W28871  23.689  24.646   2.794
56447W        W28872  10.788  36.506   4.716
56448W        W28873  32.061  16.639   2.298
56449W        W28874  20.049   7.214   2.793
56450W        W28875   9.831   7.360   0.913
56451W        W28876   3.401  14.298  11.979
56452W        W28877  12.241  15.607  10.998
56453W        W28878  15.701  24.057   3.294
56454W        W28879  42.312  18.685   2.728
56455W        W28880  38.499   2.877   0.383
56456W        W28881  28.123  29.119  13.387
56457W        W28882  18.214  37.550   0.334
56458W        W28883  24.562  23.205  12.929
56459W        W28884  14.743  36.976  12.877
56460W        W28885  35.572  11.154  11.112
56461W        W28886  32.056  10.320  11.977
56462W        W28887  12.662  36.016  12.884
56463W        W28888  16.124  42.010  11.124
56464W        W28889  44.346  29.113  12.466
56465W        W28890  39.390  41.861   1.220
56466W        W28891  26.471  19.249  14.944
56467W        W28892  41.942  26.461   2.826
56468W        W28893  21.602  22.157   4.350
56469W        W28894  35.508   1.808   1.847
56470W        W28895  44.429  36.573  10.625
56471W        W28896  44.820   6.804  14.385
56472W        W28897  20.528   5.845   0.882
56473W        W28898  32.008  38.350   0.456
56474W        W28899  20.238  33.977   1.800
56475W        W28900  34.089   3.722  13.397
56476W        W28901   3.726  19.551   1.237
56477W        W28902  14.332  34.528  10.915
56478W        W28903  31.004  33.063  13.947
56479W        W28904   7.292  33.059   4.809
56480W        W28905  38.929  24.223   3.266
56481W        W28906  29.125  35.981  14.945
56482W        W28907  41.458  41.368  14.794
56483W        W28908  21.100  21.232   2.330
56484W        W28909  24.607  40.956   0.884
56485W        W28910   3.894  27.089  14.906
56486W        W28911  38.390  28.651   3.835
56487W        W28912  22.648  14.260  12.968
56488W        W28913   3.749   6.912   3.341
56489W        W28914  35.566   1.737   3.284
56490W        W28915  24.487  43.387   4.745
56491W        W28916   4.707  40.481   0.270
56492W        W28917   7.890  35.967  12.879
56493W        W28918  42.294  30.460   0.262
56494W        W28919  13.286  39.457  11.996
56495W        W28920  29.479  11.697  13.859
56496W        W28921   5.436  18.612   1.834
56497W        W28922  40.545  42.819   4.335
56498W        W28923  17.282  26.154   1.879
56499W        W28924   7.208   8.859  11.433
56500W        W28925  34.119  16.772   4.284
56501W        W28926  23.100  21.106  14.871
56502W        W28927  31.954  42.794  13.322
56503W        W28928  21.746  24.564   0.282
56504W        W28929   1.249  23.204  13.922
56505W        W28930  22.528  38.867   4.828
56506W        W28931   3.353  27.516   3.868
56507W        W28932   8.238  17.729   1.257
56508W        W28933  23.117  16.097  11.916
56509W        W28934  12.192  25.632   2.190
56510W        W28935  34.019  13.841  12.905
56511W        W28936  21.572  43.271   3.722
56512W        W28937   2.378  39.825  10.135
56513W        W28938  15.671  28.581  10.482
56514W        W28939  40.906  20.742   5.084
56515W        W28940  14.237   5.259   1.901
56516W        W28941   4.864  30.954  14.388
56517W        W28942   9.779   9.746  14.442
56518W        W28943  21.706  13.194   4.307
56519W        W28944  37.562  24.640   3.179
56520W        W28945  40.348   9.386   4.599
56521W        W28946  36.422  39.985   4.818
56522W        W28947   1.327  22.616  14.886
56523W        W28948  18.081  38.006  12.439
56524W        W28949  41.415  25.587   3.168
56525W        W28950  20.611  16.286  14.855
56526W        W28951   9.712  23.016   3.852
56527W        W28952   7.822  12.166  10.524
56528W        W28953  19.181   5.809  12.063
56529W        W28954  19.698  30.523   3.282
56530W        W28955  39.972  33.903  10.416
56531W        W28956  24.042   8.729  13.530
56532W        W28957  22.071  21.094  13.511
56533W        W28958  38.355  38.376   1.848
56534W        W28959   1.305  34.546   3.823
56535W        W28960  26.680   2.438  11.856
56536W        W28961   3.879   2.955   1.367
56537W        W28962  39.966  41.919   2.243
56538W        W28963  41.025  44.981  10.469
56539W        W28964  12.198  17.802  14.811
56540W        W28965  18.115  44.480  11.986
56541W        W28966  33.411  21.117  11.407
56542W        W28967  42.443   8.758  13.525
56543W        W28968  33.904  13.783   1.296
56544W        W28969  31.983   4.932  14.002
56545W        W28970  44.373  34.047  12.088
56546W        W28971  39.440  16.714   3.851
56547W        W28972  30.641   3.220   2.287
56548W        W28973  29.037  37.409  14.460
56549W        W28974  21.527  27.646   0.788
56550W        W28975   7.211  33.571   4.813
56551W        W28976  21.610  25.493  13.933
56552W        W28977  10.780   0.896  14.491
56553W        W28978  33.119  18.190  13.987
56554W        W28979  41.851   5.429   2.834
56555W        W28980  25.579  24.120   4.813
56556W        W28981   6.889   2.313   1.378
56557W        W28982   7.320   1.474   2.185
56558W        W28983   8.737   8.701   3.756
56559W        W28984  16.137   1.381  11.902
56560W        W28985  41.492   6.695   1.926
56561W        W28986  32.457  21.130  11.433
56562W        W28987  18.173   9.652   4.747
56563W        W28988  11.310  19.756  13.032
56564W        W28989  29.096  43.507   1.808
56565W        W28990  19.711  36.967  11.123
56566W        W28991   2.286  34.010  13.410
56567W        W28992  19.723   0.788   3.694
56568W        W28993  16.787  36.903   0.781
56569W        W28994  29.485  14.725   3.801
56570W        W28995   9.272  34.007  11.903
56571W        W28996  42.913  25.596   4.142
56572W        W28997  20.267  28.460  14.017
56573W        W28998  36.350  43.344   1.361
56574W        W28999  36.484  37.964   2.716
56575W        W29000  40.023  16.306   2.206
56576W        W29001  39.557  11.642   4.286
56577W        W29002  39.473  43.395  14.882
56578W        W29003  44.807   4.917   3.717
56579W        W29004  22.515  13.107   0.413
56580W        W29005  31.971   7.374   1.253
56581W        W29006   7.237  16.260  12.077
56582W        W29007  33.383  43.453  13.948
56583W        W29008  16.168  31.484   5.566
56584W        W29009  29.139  42.872   1.365
56585W        W29010  41.873  16.098   1.249
56586W        W29011  39.504  15.673  12.538
56587W        W29012  21.049  25.600   4.164
56588W        W29013  28.104   4.851   5.303
56589W        W29014  11.636  15.644  12.854
56590W        W29015  10.304  22.126  10.440
56591W        W29016  19.637   1.475  14.996
56592W        W29017  18.625   4.887   4.823
56593W        W29018  43.800  25.674  14.499
56594W        W29019  39.383   2.255  13.823
56595W        W29020  43.512  33.957  10.037
56596W        W29021  41.391  24.495   2.247
56597W        W29022  18.735  18.624  13.368
56598W        W29023   7.224   1.361   4.782
56599W        W29024  44.906  27.030   0.333
56600W        W29025  19.044  19.259   1.804
56601W        W29026  26.090  16.100   2.807
56602W        W29027   6.746  19.611   4.605
56603W        W29028  33.910   5.402  11.896
56604W        W29029  27.180  43.942  12.865
56605W        W29030  10.865  25.710  10.890
56606W        W29031  40.349  26.552  12.935
56607W        W29032  23.541  28.494   2.684
56608W        W29033  44.840  27.190   1.799
56609W        W29034  17.289   0.370   2.837
56610W        W29035  27.464  44.373  12.883
56611W        W29036  33.611  31.114  14.874
56612W        W29037   8.786   0.439  12.913
56613W        W29038  36.443   4.803  14.294
56614W        W29039  21.721  35.948   1.816
56615W        W29040  40.443  22.111   1.450
56616W        W29041  26.152   6.234   2.399
56617W        W29042  13.274  32.558   2.245
56618W        W29043  11.162  25.964  12.947
56619W        W29044  20.645   4.934  12.368
56620W        W29045  21.023  13.609  10.636
56621W        W29046  30.084  37.868  14.867
56622W        W29047   0.435  14.748   3.210
56623W        W29048  39.944  28.098  13.863
56624W        W29049   4.367  23.231  11.562
56625W        W29050  23.734  24.202  12.341
56626W        W29051  21.019  15.785  11.409
56627W        W29052  41.943   5.396  13.360
56628W        W29053  33.380  44.775   3.184
56629W        W29054  32.469   3.443   2.380
56630W        W29055  25.180  22.583  11.396
56631W        W29056   4.737  14.146   1.734
56632W        W29057  22.057   8.400  14.893
56633W        W29058  22.244  34.537   0.792
56634W        W29059  10.170  15.674   3.161
56635W        W29060  19.270  19.775   4.709
56636W        W29061  18.191   3.368   3.344
56637W        W29062  32.425  44.765  14.332
56638W        W29063   6.715   6.875   1.400
56639W        W29064  25.620  20.586   3.654
56640W        W29065  43.470   1.249  11.022
56641W        W29066  23.041  25.575   4.637
56642W        W29067  14.177  40.546   4.643
56643W        W29068  29.552  37.897   3.840
56644W        W29069  10.867   4.237  14.994
56645W        W29070   2.334  39.345  13.487
56646W        W29071  16.730  42.970  10.949
56647W        W29072   6.715  29.519  11.043
56648W        W29073  42.390   1.361  14.374
56649W        W29074   6.750   2.334   1.754
56650W        W29075  38.460   8.773  14.987
56651W        W29076  36.363  14.320   3.829
56652W        W29077  41.009  31.104   0.932
56653W        W29078  15.624  13.195  13.870
56654W        W29079  39.877  43.921   0.339
56655W        W29080  28.160  22.202  10.081
56656W        W29081  35.973  18.690  12.906
56657W        W29082   5.796  37.853   3.769
56658W        W29083   3.775   4.250  12.387
56659W        W29084  25.645   0.971   2.260
56660W        W29085  32.622  18.112  11.378
56661W        W29086  20.560  37.053  14.277
56662W        W29087  16.103  10.178   1.757
56663W        W29088   6.195   5.354   3.853
56664W        W29089  42.331  32.510  12.888
56665W        W29090  33.495  43.360  10.422
56666W        W29091  44.346  29.600   1.399
56667W        W29092   7.822   7.408   2.744
56668W        W29093  31.138  21.724  10.609
56669W        W29094  30.095  37.908  13.869
56670W        W29095  15.622  40.914   4.188
56671W        W29096  18.199  29.509   1.427
56672W        W29097  12.165  24.491   3.673
56673W        W29098  29.969  23.631  11.933
56674W        W29099  16.214  31.457  11.030
56675W        W29100  11.669   6.784  14.400
56676W        W29101   1.943  10.738  13.829
56677W        W29102  15.236  13.675  13.506
56678W        W29103  12.790  34.904   1.855
56679W        W29104   3.753  42.911   4.329
56680W        W29105  11.202  28.645   2.221
56681W        W29106   4.203  37.850   2.209
56682W        W29107  20.585   0.388   0.453
56683W        W29108  29.054  14.833   2.334
56684W        W29109  31.010  37.081   3.344
56685W        W29110  18.693   5.928   0.834
56686W        W29111  28.044  36.995  14.948
56687W        W29112  14.242   6.236   4.754
56688W        W29113  11.837  16.238  13.426
56689W        W29114  12.311  11.190   4.297
56690W        W29115  14.178   4.403  13.900
56691W        W29116  31.470  39.948  13.938
56692W        W29117  41.455  14.197   4.631
56693W        W29118  30.554  29.471  12.859
56694W        W29119  37.938  38.951  14.796
56695W        W29120   3.344   1.274   1.249
56696W        W29121   7.253  13.299  14.285
56697W        W29122  34.543  44.904   2.292
56698W        W29123   1.351   0.860  10.969
56699W        W29124  26.653  37.414  14.295
56700W        W29125  12.807   0.428   3.692
56701W        W29126   7.307  22.726   3.255
56702W        W29127  31.616   0.946   2.744
56703W        W29128  33.105   4.940   1.257
56704W        W29129  24.693  38.431   4.136
56705W        W29130   9.247  44.818  12.941
56706W        W29131  13.186   2.439   3.375
56707W        W29132  25.999  33.572   3.662
56708W        W29133   6.909  22.106   2.771
56709W        W29134  19.703   0.465  11.097
56710W        W29135  34.024  34.383  10.409
56711W        W29136  20.631   0.975  14.304
56712W        W29137   0.853  37.985   3.658
56713W        W29138  27.641  35.918   2.214
56714W        W29139  18.665   3.362   4.331
56715W        W29140  36.439  28.555  13.806
56716W        W29141  24.535  37.047  13.388
56717W        W29142  32.990  19.672   2.851
56718W        W29143   2.959  10.842   3.799
56719W        W29144  20.089  13.763  13.895
56720W        W29145  23.165   7.329  12.403
56721W        W29146  28.440  42.990  10.493
56722W        W29147  18.776  42.012   3.383
56723W        W29148  12.728  39.421  10.933
56724W        W29149  21.691  16.223  12.491
56725W        W29150  18.768  31.447   1.443
56726W        W29151  30.951  10.720  13.347
56727W        W29152  30.057  33.622   3.150
56728W        W29153   5.892  34.991   0.842
56729W        W29154  39.323  17.571   2.213
56730W        W29155  27.447  27.668  14.417
56731W        W29156  20.070  32.081   1.906
56732W        W29157  40.443   1.474   0.326
56733W        W29158  43.363  38.541  12.830
56734W        W29159   6.887  36.028  12.023
56735W        W29160   1.812  35.016  10.453
56736W        W29161  38.539  29.153   0.925
56737W        W29162  16.611   4.445  12.032
56738W        W29163  23.525  29.558   1.915
56739W        W29164  17.289  22.674   5.321
56740W        W29165   9.243  16.238  11.122
56741W        W29166  25.540   9.324   4.182
56742W        W29167  19.623  19.601   0.420
56743W        W29168  33.397  39.928  12.572
56744W        W29169  34.437  30.923   2.898
56745W        W29170  25.535  27.564   4.685
56746W        W29171  39.515  23.083  12.345
56747W        W29172  17.251   7.303   3.630
56748W        W29173  35.407  33.887   0.930
56749W        W29174  36.416   7.368  12.580
56750W        W29175  33.072   3.736   4.686
56751W        W29176   7.740  43.341  11.966
56752W        W29177  34.473  15.192   2.689
56753W        W29178  21.645   7.749  13.951
56754W        W29179   4.370  10.810   2.772
56755W        W29180  16.755  34.420   4.153
56756W        W29181  12.213  26.658  11.960
56757W        W29182  23.196  29.530   4.174
56758W        W29183  19.047  18.569  12.011
56759W        W29184  44.279  24.998  12.419
56760W        W29185  34.920  28.058  10.949
56761W        W29186  31.547  20.244  14.903
56762W        W29187  19.123  42.878  12.439
56763W        W29188  38.979  10.719   3.780
56764W        W29189  44.998  10.700   2.402
56765W        W29190  22.212  35.096   3.809
56766W        W29191  18.154  34.498  13.879
56767W        W29192  28.499  30.054  13.993
56768W        W29193  31.021   8.660  11.036
56769W        W29194  33.468  34.512  14.029
56770W        W29195  35.040  26.636   5.214
56771W        W29196  41.918  27.968   4.195
56772W        W29197  10.296  25.152  12.013
56773W        W29198  33.925  19.134   1.879
56774W        W29199  12.189   6.771   3.788
56775W        W29200  14.779  40.862   0.438
56776W        W29201  18.204  19.733   3.314
56777W        W29202   1.937  32.471   2.204
56778W        W29203  23.658  27.006   0.891
56779W        W29204  26.489  27.065   3.795
56780W        W29205  23.724  39.375   2.778
56781W        W29206  25.003  36.418  14.945
56782W        W29207  28.466  39.324   3.695
56783W        W29208  18.647  38.888  11.437
56784W        W29209  14.192  43.938   4.673
56785W        W29210   8.734  12.857   4.136
56786W        W29211   3.264  18.153   2.775
56787W        W29212  28.993  36.009   2.185
56788W        W29213  13.659  37.441   0.920
56789W        W29214  40.404  32.068   1.842
56790W        W29215  33.962  22.728  13.437
56791W        W29216  36.966  26.016  12.949
56792W        W29217   7.259  18.199   0.932
56793W        W29218  11.667  34.866  14.904
56794W        W29219  23.120   6.760   1.912
56795W        W29220  16.802   1.785  13.040
56796W        W29221  17.719  44.305  13.345
56797W        W29222  43.783  22.708  12.048
56798W        W29223  42.994  32.422  14.277
56799W        W29224  40.491  31.581   3.803
56800W        W29225  15.163  28.939  12.449
56801W        W29226  28.610   0.457  14.786
56802W        W29227  24.616  33.484   2.222
56803W        W29228   8.184  37.018  12.382
56804W        W29229  18.734  38.485   0.853
56805W        W29230   5.396  39.368  14.806
56806W        W29231  24.020  24.517   0.444
56807W        W29232  42.791  12.305  11.992
56808W        W29233  11.311   4.853   1.816
56809W        W29234  42.454  27.485   3.773
56810W        W29235   4.713  23.056   0.274
56811W        W29236  35.577  41.978  13.495
56812W        W29237  25.593  34.597   3.744
56813W        W29238   6.892  14.769  12.945
56814W        W29239  27.167  18.141   1.758
56815W        W29240  26.154  44.825  13.386
56816W        W29241  40.538  35.529   3.860
56817W        W29242  30.580  14.650   4.803
56818W        W29243  28.644  25.545  11.481
56819W        W29244  24.550  13.818  14.926
56820W        W29245   2.790  43.384  13.475
56821W        W29246  16.621  33.545  14.409
56822W        W29247  32.561   3.776  14.473
56823W        W29248  44.767  17.706   3.190
56824W        W29249  19.079  42.510  14.503
56825W        W29250  19.082  39.056   9.991
56826W        W29251  14.700  28.532   1.726
56827W        W29252  27.022  21.196  11.026
56828W        W29253  39.352  13.783  13.996
56829W        W29254  21.227   6.798   0.796
56830W        W29255   4.370   6.829   0.341
56831W        W29256  17.710  37.047  13.870
56832W        W29257  31.543  18.555   2.392
56833W        W29258   3.220  26.192   1.383
56834W        W29259  24.512  18.564   2.680
56835W        W29260  20.050  29.524   4.776
56836W        W29261   0.962  41.011  13.445
56837W        W29262  20.139  21.175  14.381
56838W        W29263  21.072  21.687  11.916
56839W        W29264  30.567  21.514   2.688
56840W        W29265  28.035  32.397  11.053
56841W        W29266  43.948  27.098  13.356
56842W        W29267  13.668  41.971   1.345
56843W        W29268  34.892  15.617  10.969
56844W        W29269  16.101  31.535   0.903
56845W        W29270  14.294  34.454  13.893
56846W        W29271  15.603   2.453  12.010
56847W        W29272   0.340  12.705  12.567
56848W        W29273  36.571  14.159   1.360
56849W        W29274  39.372  14.621   0.744
56850W        W29275   0.891  10.689   0.243
56851W        W29276  15.242  38.475  13.494
56852W        W29277  25.613   4.716   2.262
56853W        W29278  32.481  36.099  10.403
56854W        W29279   0.898  22.564   3.859
56855W        W29280  23.005  18.726   3.319
56856W        W29281   3.427   1.812   2.377
56857W        W29282  44.829  16.669   2.403
56858W        W29283  42.013  26.147   2.685
56859W        W29284   7.688  33.606   0.886
56860W        W29285   0.369   5.375   4.133
56861W        W29286  23.719  35.992   2.728
56862W        W29287   0.786  41.372   3.172
56863W        W29288  39.896  41.017  13.791
56864W        W29289   0.908   2.232  11.982
56865W        W29290  43.491  20.647  10.890
56866W        W29291  44.799  34.482  14.450
56867W        W29292  15.601  33.404   3.854
56868W        W29293   3.900  42.866  10.463
56869W        W29294  11.153  29.052   4.327
56870W        W29295  25.040   2.904   2.231
56871W        W29296  20.739   8.893   2.839
56872W        W29297   7.895  15.090   1.360
56873W        W29298   4.931   4.804   0.967
56874W        W29299  19.223  43.010  12.863
56875W        W29300   1.274   7.383   2.714
56876W        W29301  24.091  34.403   2.276
56877W        W29302  22.688  19.545   3.638
56878W        W29303   3.369  22.116  10.064
56879W        W29304  23.621  11.794  10.052
56880W        W29305  38.019  27.653   3.666
56881W        W29306  39.868  26.108   3.738
56882W        W29307  38.891  10.147  12.409
56883W        W29308  36.947  13.827  14.499
56884W        W29309  43.838  32.947   1.730
56885W        W29310  14.101  19.151  13.444
56886W        W29311  40.917  43.480  14.406
56887W        W29312  35.869   2.356   3.193
56888W        W29313   0.254  18.054   4.725
56889W        W29314   6.863  41.492  14.355
56890W        W29315  16.218   0.970  12.996
56891W        W29316  37.923   7.370  12.442
56892W        W29317  17.764  18.290  11.465
56893W        W29318  22.210  29.045   3.387
56894W        W29319  32.413  31.119  11.858
56895W        W29320  27.056   0.807   2.189
56896W        W29321  23.115   2.953  11.884
56897W        W29322  24.591   4.873   3.287
56898W        W29323  34.974  19.553   1.824
56899W        W29324   9.321   9.689  13.051
56900W        W29325  29.016  32.987  10.504
56901W        W29326  11.787   1.915  11.523
56902W        W29327  21.205   3.925   2.693
56903W        W29328   0.818  14.111   4.793
56904W        W29329  22.166  37.955  14.962
56905W        W29330  28.974   6.699  11.432
56906W        W29331  32.068  11.209  13.395
56907W        W29332  13.214  23.701   4.777
56908W        W29333  28.123  26.648   3.651
56909W        W29334  20.715   7.678   2.253
56910W        W29335  12.850  32.424  12.413
56911W        W29336  10.276  16.216   3.181
56912W        W29337   5.213  32.139   1.405
56913W        W29338  14.222  29.465  14.862
56914W        W29339   4.438  36.384   1.215
56915W        W29340  15.645  16.784  14.409
56916W        W29341  41.433  35.538  12.827
56917W        W29342  26.183  15.642  12.967
56918W        W29343  22.658  44.408   4.597
56919W        W29344  36.097   0.982  10.443
56920W        W29345  33.058  18.647   4.727
56921W        W29346  26.034   2.892   0.855
56922W        W29347  42.458  10.327  11.870
56923W        W29348  14.300  36.464   0.937
56924W        W29349  18.292  33.956   1.378
56925W        W29350  34.434  24.608  11.967
56926W        W29351  39.937   2.255   2.799
56927W        W29352  41.868  10.231   1.288
56928W        W29353  29.460  26.126   0.932
56929W        W29354  39.833  41.958  12.538
56930W        W29355   3.380  18.679   1.751
56931W        W29356  22.718   1.909  14.428
56932W        W29357  20.599  12.754   1.213
56933W        W29358  32.473  22.203   0.434
56934W        W29359  19.685  40.924   0.780
56935W        W29360  36.056  31.627   0.800
56936W        W29361  44.756  38.943   3.333
56937W        W29362   3.897   5.348   1.762
56938W        W29363  43.358  22.667   1.729
56939W        W29364  22.657   8.225  10.482
56940W        W29365  12.188  44.434  11.908
56941W        W29366  14.800   9.342   2.786
56942W        W29367  28.538  31.015   4.245
56943W        W29368  22.583  18.680  11.106
56944W        W29369  15.803   8.291  11.059
56945W        W29370  23.549  20.076  13.053
56946W        W29371  13.321  14.827  14.920
56947W        W29372   0.474   5.870  11.611
56948W        W29373   8.303  31.641  12.347
56949W        W29374  14.211  30.152   1.325
56950W        W29375  33.971  24.984  12.577
56951W        W29376  33.611  34.994  13.535
56952W        W29377  33.012  40.803   0.935
56953W        W29378  23.093  22.109   3.188
56954W        W29379  11.700   2.425  12.013
56955W        W29380  36.527  18.577  14.390
56956W        W29381   7.766  29.468   0.940
56957W        W29382  34.096  18.647  13.005
56958W        W29383  10.798  33.476   3.187
56959W        W29384  34.047  28.514   1.745
56960W        W29385   1.806   4.294   4.637
56961W        W29386  35.909   8.377   0.381
56962W        W29387   4.909   0.882  13.946
56963W        W29388  30.473  42.461   4.323
56964W        W29389  18.722  28.511   3.792
56965W        W29390  37.053  42.384  12.021
56966W        W29391   1.784  21.125   3.667
56967W        W29392  17.245  39.983   4.272
56968W        W29393  20.047  30.597  13.928
56969W        W29394  34.076  32.104  10.503
56970W        W29395  25.484  38.526  10.548
56971W        W29396  16.685   0.278  11.405
56972W        W29397   5.297  16.644  11.565
56973W        W29398   8.674  30.520   3.648
56974W        W29399   8.850  31.526   2.411
56975W        W29400  43.512  24.564   1.709
56976W        W29401  16.693  30.092  14.281
56977W        W29402  12.140  29.154   1.428
56978W        W29403  20.618  24.481  14.386
56979W        W29404  28.511   4.329   4.152
56980W        W29405  44.418   6.334   4.261
56981W        W29406  30.527  26.048   0.295
56982W        W29407  22.602  17.236   0.797
56983W        W29408   1.319  15.171  12.921
56984W        W29409   1.314  10.263   3.176
56985W        W29410  26.557  21.020  11.411
56986W        W29411  35.416  21.213   3.815
56987W        W29412  36.391   3.409  14.428
56988W        W29413  12.744  24.481   3.290
56989W        W29414   9.292  28.113   1.266
56990W        W29415  14.729  16.216   0.757
56991W        W29416  29.564  24.067   4.158
56992W        W29417  22.545  11.273   4.778
56993W        W29418  22.525   6.870   0.254
56994W        W29419  44.820  38.558  13.025
56995W        W29420  35.923  10.768  14.510
56996W        W29421  44.003  17.232   1.865
56997W        W29422  38.341  25.504   3.194
56998W        W29423   6.286  10.379  12.506
56999W        W29424   6.325  30.074   2.755
57000W        W29425  44.284   2.330  13.307
57001W        W29426  43.853   8.387   4.835
57002W        W29427   4.419  20.655  10.986
57003W        W29428  32.978   3.385   3.308
57004W        W29429   4.867  27.463  11.564
57005W        W29430  20.693  19.616  12.379
57006W        W29431  41.864  12.264  12.858
57007W        W29432   1.280  11.147  11.393
57008W        W29433  26.671  30.471   3.163
57009W        W29434  28.016   4.423  13.888
57010W        W29435  29.592  44.264   5.209
57011W        W29436  18.545   7.249  12.456
57012W        W29437  22.517   9.197   9.570
57013W        W29438   3.951  12.316   3.779
57014W        W29439  16.243   4.845   2.667
57015W        W29440  10.164  15.245  13.024
57016W        W29441  21.142  33.975   2.895
57017W        W29442  37.850  37.409   4.284
57018W        W29443  22.142  33.123  12.052
57019W        W29444  22.238  18.203  12.400
57020W        W29445  44.763  15.604   1.812
57021W        W29446   8.864  34.882  14.880
57022W        W29447  27.045   1.772  12.007
57023W        W29448  31.951   1.244   4.353
57024W        W29449  24.126  42.367   1.232
57025W        W29450  41.457  14.639   4.213
57026W        W29451  41.334  43.270   3.341
57027W        W29452  42.291  10.338   1.864
57028W        W29453   6.200  38.537   3.346
57029W        W29454   3.802  16.771  14.839
57030W        W29455  12.286  33.896   0.415
57031W        W29456  38.059  29.143  12.075
57032W        W29457  31.114  13.117   4.686
57033W        W29458  38.013  35.069  14.013
57034W        W29459   9.662  38.832   1.840
57035W        W29460  33.078  22.687   2.685
57036W        W29461  38.063   2.452   2.419
57037W        W29462  38.044  21.186  11.495
57038W        W29463  31.996  20.274   2.226
57039W        W29464   5.412   0.775  11.466
57040W        W29465  42.461  34.055   4.636
57041W        W29466   9.243   4.265  13.036
57042W        W29467   9.391   0.316   2.683
57043W        W29468  35.036  24.582   3.857
57044W        W29469   5.285  33.599  10.493
57045W        W29470  23.671  43.872  14.329
57046W        W29471  29.989  33.504   1.715
57047W        W29472  29.481  28.079   4.208
57048W        W29473  14.625   0.461  14.453
57049W        W29474  22.598  29.025  13.945
57050W        W29475   4.222  19.681  12.500
57051W        W29476  13.794   3.817   2.830
57052W        W29477  25.702  28.495  12.020
57053W        W29478   7.875  27.511  12.833
57054W        W29479  13.324   6.919  13.540
57055W        W29480  13.211  18.697  14.495
57056W        W29481  26.968  22.739  11.973
57057W        W29482  16.228  29.545   4.664
57058W        W29483   7.339  25.003  11.586
57059W        W29484  20.690  23.119   1.922
57060W        W29485  42.013   1.331   1.285
57061W        W29486  26.480  10.868   2.243
57062W        W29487   3.934  39.987  11.900
57063W        W29488  30.004  21.737   2.870
57064W        W29489   4.411  42.905  11.567
57065W        W29490   2.850  43.272   4.737
57066W        W29491  16.179  29.495  14.479
57067W        W29492  39.989   0.967   0.873
57068W        W29493   8.404  38.916   1.925
57069W        W29494  23.110  16.286   0.866
57070W        W29495  27.179  33.091   3.717
57071W        W29496  44.374   2.236   4.267
57072W        W29497  30.031  12.612   3.317
57073W        W29498   0.821  14.100  13.426
57074W        W29499   3.832   1.476  13.525
57075W        W29500  21.253  31.529  14.509
57076W        W29501  34.937  42.443  11.456
57077W        W29502   4.364   6.246  12.419
57078W        W29503   6.288  41.437  11.061
57079W        W29504   9.359  44.892   1.806
57080W        W29505  36.927  14.600   4.226
57081W        W29506  21.601   1.914   4.240
57082W        W29507  21.627   5.374   2.371
57083W        W29508   6.819   1.246   3.347
57084W        W29509   2.927  39.503  10.540
57085W        W29510   8.188  41.466  13.380
57086W        W29511  18.145  26.482  12.930
57087W        W29512  12.797  32.497   1.225
57088W        W29513  24.581  26.171   4.268
57089W        W29514  34.023  31.909  11.955
57090W        W29515  20.138  18.054   5.221
57091W        W29516  11.773  35.917  10.955
57092W        W29517  25.176  17.794  11.877
57093W        W29518  26.470  30.581  12.551
57094W        W29519  17.600  38.975  12.916
57095W        W29520  19.171  34.428  11.542
57096W        W29521  29.171   2.399   2.839
57097W        W29522  16.642  24.137  12.033
57098W        W29523  12.833   5.773  12.562
57099W        W29524  37.404  34.924  12.478
57100W        W29525  39.495   1.935  14.369
57101W        W29526  30.600  12.132  14.924
57102W        W29527  35.922  39.022  13.926
57103W        W29528  14.249  38.880  12.933
57104W        W29529   8.254  38.017   3.194
57105W        W29530  23.710   2.935  11.985
57106W        W29531  22.657   5.263   4.701
57107W        W29532  44.345  20.138   2.756
57108W        W29533  35.034  31.936   3.654
57109W        W29534  17.655  38.401  11.859
57110W        W29535  41.793   1.476   4.236
57111W        W29536  13.221  21.046  13.349
57112W        W29537  32.624  21.671   3.196
57113W        W29538  15.249  23.645   3.361
57114W        W29539  19.224  23.144   3.194
57115W        W29540   8.293  21.749  11.436
57116W        W29541  25.172   5.195   2.315
57117W        W29542  11.626  33.437  14.365
57118W        W29543  22.537   3.257   3.306
57119W        W29544  43.306   7.194  14.840
57120W        W29545   8.358  15.711  13.055
57121W        W29546   0.924  34.109   2.308
57122W        W29547  29.020  21.100  11.090
57123W        W29548   9.251  41.420   0.876
57124W        W29549  36.091  17.730   4.248
57125W        W29550   3.867  41.021  12.508
57126W        W29551  34.079   3.743  13.833
57127W        W29552  34.954  38.483   0.833
57128W        W29553   8.807  22.562   3.766
57129W        W29554  24.047   5.818  11.605
57130W        W29555  17.688  43.861  12.565
57131W        W29556   0.489  28.135  11.888
57132W        W29557  40.374  31.037  14.436
57133W        W29558  38.397  31.107  12.958
57134W        W29559  37.963  26.137  12.904
57135W        W29560  17.561  36.378  14.989
57136W        W29561  31.901  37.400   4.604
57137W        W29562  38.376  43.913   0.430
57138W        W29563  12.195  19.604   0.278
57139W        W29564  37.931  37.448   3.164
57140W        W29565  28.043  31.946  12.387
57141W        W29566  25.990  33.914   2.385
57142W        W29567  27.957  27.996  13.426
57143W        W29568  21.243  43.882  10.556
57144W        W29569   0.810  36.983  10.616
57145W        W29570  32.028  41.298   3.657
57146W        W29571   5.233   2.254   1.837
57147W        W29572  30.960  29.633  14.376
57148W        W29573  21.168  32.993  12.477
57149W        W29574  44.931  26.024   1.869
57150W        W29575  12.837  39.022   3.747
57151W        W29576  38.852  12.657   0.831
57152W        W29577  32.931   7.911  14.293
57153W        W29578  29.514   3.859  12.429
57154W        W29579  41.375  44.829  14.818
57155W        W29580  42.862  44.872   2.311
57156W        W29581  37.556   4.208   4.602
57157W        W29582  37.993  42.888   3.779
57158W        W29583  36.491  42.864   9.996
57159W        W29584  16.715   8.729   2.236
57160W        W29585  13.831  11.764  14.889
57161W        W29586  39.947  14.299   0.889
57162W        W29587   1.950   3.862  13.482
57163W        W29588  16.759  35.930  11.587
57164W        W29589  25.518  33.469   1.237
57165W        W29590  22.656  34.093  12.963
57166W        W29591   5.907  31.548  12.966
57167W        W29592  23.193   4.846   1.727
57168W        W29593  44.356   3.332  13.871
57169W        W29594  23.163  17.583  12.860
57170W        W29595  29.978  10.781   2.844
57171W        W29596  37.912  44.989   3.351
57172W        W29597  11.864   9.676  14.864
57173W        W29598  35.453  36.881  11.564
57174W        W29599  22.564  40.862  13.518
57175W        W29600   4.907  26.025   1.837
57176W        W29601  44.346  13.278   3.658
57177W        W29602  36.045  16.096   3.331
57178W        W29603  23.527   0.861  11.955
57179W        W29604  25.711   4.284   1.415
57180W        W29605   2.803  27.110  13.426
57181W        W29606   8.692   2.768   3.321
57182W        W29607  20.633  22.635   2.831
57183W        W29608  23.730  25.569  12.534
57184W        W29609   0.909   5.280  11.546
57185W        W29610   0.987  13.603  13.819
57186W        W29611  40.029  23.077   2.307
57187W        W29612   1.322  41.002  14.464
57188W        W29613  34.436  35.059  12.473
57189W        W29614  29.169  17.306  13.837
57190W        W29615  41.889   4.732  11.019
57191W        W29616  36.065  18.267   1.253
57192W        W29617  40.999   8.178  12.548
57193W        W29618  30.909  14.201   2.314
57194W        W29619  14.659  28.563  11.002
57195W        W29620   4.407  21.095  14.292
57196W        W29621   8.198   1.445  14.879
57197W        W29622  16.685  25.147  14.839
57198W        W29623   7.326   4.940  11.382
57199W        W29624  32.411  42.515  13.917
57200W        W29625  30.100   2.248  10.943
57201W        W29626  25.195   3.953   2.400
57202W        W29627  31.606   9.342   2.190
57203W        W29628   1.884  40.386  13.884
57204W        W29629   1.736  28.556  13.397
57205W        W29630  40.804  10.698   1.763
57206W        W29631   1.276  35.006  12.092
57207W        W29632  25.970  17.302  11.548
57208W        W29633   6.309  24.169  11.946
57209W        W29634  26.577  27.501   3.331
57210W        W29635   2.366  13.249  12.061
57211W        W29636   4.928  33.013   4.603
57212W        W29637   1.745  11.756   2.301
57213W        W29638  21.038   2.847   2.364
57214W        W29639   8.376  14.326   2.208
57215W        W29640   9.803  30.508   4.234
57216W        W29641  23.491  25.064   2.699
57217W        W29642  18.573  25.983   0.384
57218W        W29643  38.345  41.043   1.771
57219W        W29644  39.046   7.288   0.921
57220W        W29645  10.273  28.577  13.991
57221W        W29646  41.004  39.843  11.014
57222W        W29647   2.261  37.549  14.868
57223W        W29648  32.477  13.679  11.118
57224W        W29649  35.977  33.116  11.472
57225W        W29650  41.934  44.952   2.249
57226W        W29651  37.555  33.536  14.924
57227W        W29652  33.450  31.604  14.455
57228W        W29653  33.114  17.223   4.711
57229W        W29654   9.239  28.072  14.377
57230W        W29655  34.529  11.801   3.311
57231W        W29656  29.002  29.997   3.354
57232W        W29657   9.204  19.167  14.808
57233W        W29658  30.927  10.772  10.483
57234W        W29659  19.749   9.181   2.799
57235W        W29660  19.700  28.152  10.899
57236W        W29661  16.667  33.427   0.777
57237W        W29662  13.759  42.291   4.789
57238W        W29663  13.705  29.014  14.336
57239W        W29664  30.604  17.171  11.475
57240W        W29665  33.466  22.244  10.928
57241W        W29666  36.495  27.190   2.759
57242W        W29667   6.809  12.752  10.566
57243W        W29668  40.941  42.349   4.724
57244W        W29669  13.312   3.355   3.384
57245W        W29670  11.669  22.181   0.746
57246W        W29671  39.515  13.743   1.395
57247W        W29672  12.647  25.168  13.371
57248W        W29673  39.925  26.132  14.845
57249W        W29674  42.940   3.375  11.863
57250W        W29675  30.548   5.314   1.766
57251W        W29676  14.240  15.149  13.448
57252W        W29677  37.950  42.497  14.863
57253W        W29678  30.611  31.055   2.831
57254W        W29679   8.897  33.024  10.634
57255W        W29680  35.931  27.528   3.372
57256W        W29681  23.156  32.439  10.495
57257W        W29682  44.992   4.235   4.651
57258W        W29683  12.656   4.738   2.371
57259W        W29684   9.207  22.715   4.146
57260W        W29685  32.065  23.731  12.032
57261W        W29686  42.820  31.622   0.765
57262W        W29687  37.957  29.057   0.881
57263W        W29688   6.761  30.162  11.593
57264W        W29689  14.255  44.301   3.784
57265W        W29690  29.513  20.121   2.205
57266W        W29691  21.730   3.751   0.927
57267W        W29692  24.587  32.058  12.462
57268W        W29693  27.599   9.159   4.824
57269W        W29694  24.689   9.348  13.382
57270W        W29695  21.169   9.647   9.527
57271W        W29696  40.957  37.860  11.023
57272W        W29697  23.691   1.845   1.894
57273W        W29698  23.188  20.102   4.684
57274W        W29699  37.048  11.708   3.680
57275W        W29700  35.598   3.269   4.272
57276W        W29701  28.522  10.707   0.880
57277W        W29702  42.297  23.052  12.383
57278W        W29703  42.310  23.109  10.645
57279W        W29704  22.614  27.669  10.412
57280W        W29705   8.301   3.762   4.718
57281W        W29706  37.435  20.536  10.476
57282W        W29707   0.258   0.928  10.992
57283W        W29708  33.877  34.097  11.073
57284W        W29709  28.072  22.238   3.375
57285W        W29710  37.889  41.801  14.965
57286W        W29711  11.152  32.108   4.256
57287W        W29712  13.838   8.749  14.514
57288W        W29713  15.318  15.616   0.349
57289W        W29714  13.802  22.528   2.688
57290W        W29715  30.610  19.653  12.556
57291W        W29716   1.803   2.438  11.904
57292W        W29717   0.409  22.120  12.923
57293W        W29718  33.495  33.070  12.962
57294W        W29719  37.507  12.201   0.829
57295W        W29720  26.135   0.367  10.987
57296W        W29721  34.554   7.414   4.324
57297W        W29722   2.791  15.751  10.514
57298W        W29723  34.997   5.403   2.830
57299W        W29724  37.511  10.803  12.864
57300W        W29725   8.178   0.441   2.787
57301W        W29726  26.701  34.390   2.412
57302W        W29727  14.716   0.965  12.964
57303W        W29728   1.972   2.797   0.772
57304W        W29729   8.803  21.132  11.964
57305W        W29730  30.542  22.023  12.931
57306W        W29731  32.930  27.992   3.803
57307W        W29732  29.436   6.223  13.814
57308W        W29733  44.893  36.412   3.181
57309W        W29734  35.374  37.993   1.275
57310W        W29735  24.109  31.513   4.635
57311W        W29736  39.871  35.559   4.162
57312W        W29737  31.487  24.976  10.990
57313W        W29738  44.391   2.444   2.692
57314W        W29739   1.769   5.221   3.332
57315W        W29740  10.368  22.735  12.834
57316W        W29741  34.055  20.534  10.442
57317W        W29742  24.167  28.181  10.432
57318W        W29743  26.181  32.545   1.894
57319W        W29744  20.269  38.854   1.845
57320W        W29745  41.392  14.708   2.827
57321W        W29746   8.851   7.301  14.339
57322W        W29747  17.156  15.682  11.004
57323W        W29748  36.996  12.639   2.177
57324W        W29749  34.397  18.680   0.454
57325W        W29750   4.922  35.982   4.748
57326W        W29751  18.709   2.774  14.479
57327W        W29752  21.530  22.660  10.486
57328W        W29753  27.087  41.437  13.433
57329W        W29754   2.750  43.951  13.011
57330W        W29755  36.984  18.653  14.023
57331W        W29756  38.349  29.981   1.390
57332W        W29757   6.380  38.368   0.302
57333W        W29758  14.135  26.691   1.451
57334W        W29759  32.480   4.252   3.279
57335W        W29760  25.619  10.796  13.468
57336W        W29761  32.910  37.525  13.541
57337W        W29762  35.966  15.299  13.511
57338W        W29763   4.806   8.295  11.441
57339W        W29764  16.726  25.689  12.077
57340W        W29765  32.140   3.820  11.552
57341W        W29766  17.588  36.885   4.122
57342W        W29767  39.335  41.958   3.836
57343W        W29768  35.997  31.046  12.998
57344W        W29769  43.825  10.742   3.764
57345W        W29770  31.505  17.782   1.309
57346W        W29771  38.385  18.595   3.148
57347W        W29772  36.431  29.542  10.986
57348W        W29773  35.863   4.733  11.013
57349W        W29774   9.754  30.026   4.339
57350W        W29775  14.669  31.104  13.897
57351W        W29776  22.183  29.620   3.814
57352W        W29777  39.536  35.558   2.305
57353W        W29778  43.339  29.964  13.862
57354W        W29779  19.215  19.115   2.875
57355W        W29780  21.066  17.109  10.522
57356W        W29781  41.482  32.894  13.800
57357W        W29782   3.436  12.209   4.707
57358W        W29783  39.406  10.235  14.486
57359W        W29784  15.234  31.536   2.369
57360W        W29785  38.559   2.846   4.775
57361W        W29786  24.550   8.663  13.491
57362W        W29787   2.438  30.511  13.972
57363W        W29788  12.736   7.346   3.684
57364W        W29789   1.742   7.399   0.316
57365W        W29790  12.242  40.481   1.358
57366W        W29791  40.871  43.905   2.363
57367W        W29792   7.764  29.645  11.976
57368W        W29793  13.197  20.707   4.597
57369W        W29794   9.184  31.014   3.770
57370W        W29795  20.194  27.997   2.290
57371W        W29796  36.083  23.722   4.618
57372W        W29797  38.472  43.788   1.310
57373W        W29798  13.325   3.844  13.061
57374W        W29799  21.543  35.385   3.750
57375W        W29800  26.575  37.081   1.700
57376W        W29801  14.632   3.283   1.226
57377W        W29802  25.140  41.490  13.876
57378W        W29803   9.333   4.838  11.111
57379W        W29804  20.078  16.663  10.508
57380W        W29805  25.099   9.814  10.583
57381W        W29806  13.614  18.765   4.772
57382W        W29807  34.985  28.937   3.199
57383W        W29808  38.945  40.313   1.386
57384W        W29809  24.494  27.028   1.923
57385W        W29810  23.137  21.593   3.647
57386W        W29811  21.143  32.601  13.025
57387W        W29812  41.361  11.835   1.388
57388W        W29813  19.579  23.682   3.239
57389W        W29814  17.134  30.911  14.494
57390W        W29815  29.034  22.180   2.825
57391W        W29816  34.515  21.752   3.634
57392W        W29817   9.327   4.246   1.363
57393W        W29818   4.702  29.135  13.315
57394W        W29819  36.095   6.296  11.554
57395W        W29820   7.195   7.865   4.718
57396W        W29821  23.624   9.871  12.524
57397W        W29822  17.670  16.225   4.674
57398W        W29823  41.035  30.092  11.394
57399W        W29824  36.398  22.560   1.291
57400W        W29825  42.345   3.824   2.774
57401W        W29826   9.807  28.073  14.326
57402W        W29827  25.612  18.263   1.335
57403W        W29828  16.661  44.367   1.906
57404W        W29829   0.824  24.186  14.002
57405W        W29830  34.898  18.270  12.433
57406W        W29831   1.308   4.943   0.267
57407W        W29832  23.217  13.809   1.813
57408W        W29833  24.536   4.423  11.518
57409W        W29834  44.354  43.349  13.833
57410W        W29835  36.401   7.784   4.312
57411W        W29836  10.282   6.193  13.509
57412W        W29837  19.133   1.743  12.462
57413W        W29838  29.440  17.582  12.824
57414W        W29839  33.938  18.721  14.501
57415W        W29840  35.555  30.551  11.070
57416W        W29841  27.502  42.780  11.880
57417W        W29842  12.718   7.215  10.625
57418W        W29843   3.229   9.820  11.421
57419W        W29844  23.548  26.534   2.883
57420W        W29845   8.781  24.079   1.380
57421W        W29846  31.967  43.467   3.844
57422W        W29847  34.588  24.133   4.242
57423W        W29848   4.387   0.752   0.311
57424W        W29849  21.666   3.907   0.283
57425W        W29850  35.424  35.079  10.567
57426W        W29851  15.731   9.232  13.441
57427W        W29852  27.530   4.741  13.844
57428W        W29853  30.643  10.255   3.778
57429W        W29854   9.819  35.549  11.894
57430W        W29855  17.560  14.301  13.796
57431W        W29856  33.415  42.851   2.799
57432W        W29857  14.640  14.637   4.146
57433W        W29858  11.336  32.425   3.313
57434W        W29859  36.473   9.758   2.846
57435W        W29860  26.117  28.655   0.433
57436W        W29861  12.749  25.677   3.788
57437W        W29862  10.342  26.678   0.404
57438W        W29863  44.841  15.754   2.872
57439W        W29864   6.209  15.100  10.403
57440W        W29865   7.779  35.906  11.959
57441W        W29866   8.875   6.195   0.317
57442W        W29867  32.910  41.991   2.181
57443W        W29868  10.855  41.302   2.266
57444W        W29869  27.470   2.409   4.232
57445W        W29870  32.940  35.423  12.075
57446W        W29871  21.597   7.383  14.339
57447W        W29872   2.461  21.160  11.872
57448W        W29873   7.893   5.916   2.872
57449W        W29874  27.996  31.598   3.230
57450W        W29875  29.632  15.777   3.300
57451W        W29876  38.487   9.151   4.303
57452W        W29877   5.800  21.098  13.887
57453W        W29878  31.528  10.198  13.027
57454W        W29879  40.870   9.877   1.329
57455W        W29880  44.430  27.129   0.812
57456W        W29881  44.902  44.771  13.355
57457W        W29882  14.251  26.125   1.901
57458W        W29883   2.357  40.455   1.798
57459W        W29884   7.903  44.946   0.340
57460W        W29885  35.513   3.931  12.894
57461W        W29886  38.557  28.178   4.260
57462W        W29887  43.910  12.226   0.271
57463W        W29888  41.305  29.982   2.318
57464W        W29889  16.721  24.647   4.167
57465W        W29890   2.291  37.411   1.894
57466W        W29891  39.897  29.994  12.395
57467W        W29892   0.921  30.164  13.851
57468W        W29893  21.149   4.338   3.384
57469W        W29894   3.279  38.027  14.017
57470W        W29895  31.029  10.252   1.218
57471W        W29896  35.031  23.165  13.852
57472W        W29897  43.848  25.672  12.970
57473W        W29898  34.610  17.717   0.915
57474W        W29899  41.040  13.652  12.469
57475W        W29900  31.417  42.301   4.669
57476W        W29901   3.252  11.361  10.622
57477W        W29902   0.263  41.040  11.465
57478W        W29903  36.495   8.852  10.610
57479W        W29904  22.029  16.808  10.515
57480W        W29905  30.079  14.709  11.414
57481W        W29906   3.746   6.262   4.284
57482W        W29907  22.633  16.277   0.286
57483W        W29908  17.570   8.793  12.927
57484W        W29909  14.203  43.785  12.899
57485W        W29910  24.483  32.032   3.380
57486W        W29911  18.759   6.224  14.313
57487W        W29912  14.333  24.977  11.109
57488W        W29913   6.760  29.640   4.833
57489W        W29914  17.119  26.585  14.333
57490W        W29915  31.508   1.402  14.316
57491W        W29916  30.567   0.397  11.057
57492W        W29917  31.457  41.970   2.257
57493W        W29918  10.279  43.813   1.378
57494W        W29919  33.416  31.419  11.436
57495W        W29920  14.329  30.474  13.517
57496W        W29921  31.564  26.497  12.898
57497W        W29922  39.854  44.829   1.293
57498W        W29923   2.283  41.328  14.851
57499W        W29924  25.524  43.878  10.624
57500W        W29925   0.771  38.996   1.710
57501W        W29926  34.105  28.621  10.902
57502W        W29927  24.085  40.850  14.347
57503W        W29928  28.949  26.103  12.535
57504W        W29929  10.767  26.122  13.037
57505W        W29930  38.990   0.902  14.994
57506W        W29931  42.356   8.384  11.422
57507W        W29932   4.366   1.913   2.737
57508W        W29933  25.653   6.254   5.133
57509W        W29934  11.718   0.456   1.222
57510W        W29935  27.634  36.463  13.847
57511W        W29936  29.539   5.690   3.290
57512W        W29937  40.818  10.357  14.423
57513W        W29938  20.540  30.647   0.834
57514W        W29939  17.681  35.486  12.557
57515W        W29940  21.595   7.846   2.808
57516W        W29941  12.677  23.600  10.564
57517W        W29942  38.847  33.909  11.534
57518W        W29943  33.937  31.930  14.503
57519W        W29944  20.136  33.098  14.313
57520W        W29945  20.273  14.255   0.750
57521W        W29946   1.832  22.734  10.437
57522W        W29947  44.455  42.937  10.933
57523W        W29948  26.669  29.047   3.239
57524W        W29949  32.409  20.656   1.390
57525W        W29950  28.666  40.934   5.691
57526W        W29951  36.592   9.702   5.641
57527W        W29952   1.916  10.325  10.960
57528W        W29953  24.003  14.633   0.745
57529W        W29954  44.943  12.808   3.651
57530W        W29955  35.992  44.000   4.138
57531W        W29956  25.540  11.647  12.077
57532W        W29957  32.430   5.356   4.296
57533W        W29958  33.987  43.777  13.355
57534W        W29959  14.230  12.729   4.203
57535W        W29960  38.482  31.005  10.996
57536W        W29961  13.720   2.862   0.765
57537W        W29962  40.409   9.859  13.501
57538W        W29963  25.532   4.775  11.109
57539W        W29964   5.869  26.145  11.576
57540W        W29965  10.781  13.740   4.312
57541W        W29966   7.409  19.213  11.896
57542W        W29967  25.569  37.511   0.790
57543W        W29968   2.439  29.510   0.926
57544W        W29969  31.057  32.633   3.715
57545W        W29970  44.365  25.515   4.115
57546W        W29971  43.488  15.579   3.310
57547W        W29972  22.605  28.537   3.686
57548W        W29973  38.523  29.594  12.341
57549W        W29974   4.936  22.142  10.574
57550W        W29975   0.250  21.626   2.792
57551W        W29976  42.974  17.236   3.235
57552W        W29977  25.651  40.934   2.232
57553W        W29978  31.628  36.047   4.827
57554W        W29979  11.353  24.674  12.572
57555W        W29980  10.830  25.087   4.672
57556W        W29981  33.954  43.994  10.602
57557W        W29982  23.662  18.055   2.223
57558W        W29983  33.385  16.240  11.869
57559W        W29984  39.356  11.312  13.462
57560W        W29985   1.975   8.249   2.898
57561W        W29986  44.948  42.000   4.119
57562W        W29987  12.763  41.478  10.590
57563W        W29988  29.024  41.533   0.475
57564W        W29989  43.915  17.175  11.882
57565W        W29990  39.953   4.311   3.754
57566W        W29991  39.884  29.058  14.913
57567W        W29992   2.909  22.178  12.828
57568W        W29993  37.873  36.455  10.928
57569W        W29994  16.299  29.669   0.856
57570W        W29995  38.570  25.580   0.952
57571W        W29996  22.017  39.349   3.817
57572W        W29997  35.032   3.256   0.448
57573W        W29998  13.147   2.433  11.862
57574W        W29999  17.659  22.513  13.500
57575W        W30000  44.362  17.179  14.970
57576W        W30001  27.055  40.511   0.379
57577W        W30002  27.030  44.881  13.019
57578W        W30003   9.882  12.329   4.298
57579W        W30004  37.375  23.676   4.234
57580W        W30005  23.129   6.696  12.473
57581W        W30006  40.824  36.509   0.795
57582W        W30007  37.852   0.460   3.371
57583W        W30008  37.906  26.099   1.386
57584W        W30009   0.278  22.577   0.292
57585W        W30010  16.118  37.357  11.996
57586W        W30011  35.517   9.861  14.758
57587W        W30012  22.657  22.732  11.957
57588W        W30013  38.858  32.596  11.538
57589W        W30014  11.651  17.647  12.523
57590W        W30015  23.146  38.956  10.622
57591W        W30016  10.829  36.427  13.846
57592W        W30017  21.248  10.150   3.755
57593W        W30018  16.239  35.558   3.234
57594W        W30019  19.220  12.218  11.987
57595W        W30020  43.397   8.328   4.828
57596W        W30021  32.493   2.833   1.721
57597W        W30022  38.878  28.000  13.343
57598W        W30023  16.158  10.811   2.681
57599W        W30024  12.716   7.312   4.344
57600W        W30025   2.874   1.281  13.476
57601W        W30026  11.692  39.026   4.121
57602W        W30027  37.018  21.537  13.400
57603W        W30028  28.670  20.032  12.513
57604W        W30029  38.833   8.306   0.874
57605W        W30030  42.465   7.326   2.879
57606W        W30031  40.396  23.685  12.429
57607W        W30032  10.303  14.716  12.481
57608W        W30033  17.665   2.278   2.412
57609W        W30034  36.526  12.243  12.070
57610W        W30035  33.954  39.886  12.915
57611W        W30036  23.044  17.612   3.359
57612W        W30037  35.027  29.557   2.678
57613W        W30038  41.934   0.901   4.803
57614W        W30039   5.352  35.587   0.918
57615W        W30040  41.844   5.288  11.462
57616W        W30041  12.262  12.310  13.888
57617W        W30042  28.004  30.136  14.841
57618W        W30043  28.678  20.713   2.876
57619W        W30044   3.278  37.030  14.981
57620W        W30045   6.832  23.158   2.339
57621W        W30046   3.816  16.647   1.307
57622W        W30047  27.035  16.610  12.578
57623W        W30048   1.874   8.382   4.667
57624W        W30049  13.121  12.746   2.715
57625W        W30050  22.575  11.622  13.458
57626W        W30051  15.780  18.669  12.460
57627W        W30052  21.090  13.266   5.247
57628W        W30053  23.240  24.178   3.781
57629W        W30054  39.351  37.580  13.421
57630W        W30055  28.669   0.775  14.937
57631W        W30056   9.845   0.365  13.840
57632W        W30057  28.150   4.809  11.026
57633W        W30058  37.075  24.484   4.199
57634W        W30059  33.912  44.001  11.534
57635W        W30060  21.070   5.319  10.411
57636W        W30061  17.081  40.927   4.804
57637W        W30062  20.106  21.629  12.990
57638W        W30063  24.605  30.160   0.748
57639W        W30064  38.989  20.651   3.691
57640W        W30065  39.353  14.229   1.819
57641W        W30066  10.346  29.665  13.532
57642W        W30067   2.728  14.234   4.673
57643W        W30068  22.651  19.206  12.995
57644W        W30069   5.866   8.723  14.305
57645W        W30070  15.212   1.970   3.151
57646W        W30071  12.288   4.798  12.941
57647W        W30072  37.961  31.638  12.392
57648W        W30073  13.603   2.868  13.957
57649W        W30074   5.238  22.737  10.611
57650W        W30075  16.215  21.687   1.255
57651W        W30076  27.957  34.594   4.808
57652W        W30077   5.820   0.473  12.528
57653W        W30078  22.642  41.320  11.112
57654W        W30079  34.949  30.154  11.490
57655W        W30080   4.752  26.660  12.093
57656W        W30081  27.517  29.614  13.543
57657W        W30082  20.636  16.737  14.010
57658W        W30083  34.458  44.338  14.808
57659W        W30084   8.823  38.837   0.266
57660W        W30085  10.153  17.574   0.350
57661W        W30086  36.492   0.489  12.471
57662W        W30087  29.482  24.037   5.688
57663W        W30088  17.249   0.792  12.085
57664W        W30089  29.156   2.435  11.084
57665W        W30090   1.244   1.422  13.992
57666W        W30091   4.736  44.951  14.464
57667W        W30092   4.812  13.680   2.667
57668W        W30093   0.984  16.622  11.551
57669W        W30094  23.029   2.729   4.786
57670W        W30095  41.528  24.688   1.274
57671W        W30096  29.022  14.653  13.383
57672W        W30097  19.252   2.852  14.925
57673W        W30098  36.589  13.340  12.358
57674W        W30099  26.636  25.505  12.368
57675W        W30100  41.972   8.664   1.747
57676W        W30101   1.923  20.129  11.959
57677W        W30102  32.428   8.759   1.875
57678W        W30103   4.334  33.504  12.471
57679W        W30104  34.004  12.644  14.348
57680W        W30105   7.173  27.653   2.715
57681W        W30106  44.960  33.018   1.746
57682W        W30107  22.017  11.655   3.730
57683W        W30108  42.889  36.492  13.522
57684W        W30109   5.830  24.224  12.368
57685W        W30110   7.235  30.026   4.171
57686W        W30111  37.365  12.645  13.960
57687W        W30112  12.722   5.742   0.792
57688W        W30113  25.539   4.746  14.878
57689W        W30114  44.375  33.515  14.788
57690W        W30115  27.156  29.971   3.673
57691W        W30116  18.104  13.744  11.583
57692W        W30117  41.007  10.721   2.789
57693W        W30118  32.630   3.425  13.844
57694W        W30119  37.469  19.715   0.726
57695W        W30120  19.254  32.584  13.409
57696W        W30121  17.671  20.187   1.736
57697W        W30122   2.468  10.685  13.362
57698W        W30123   5.815  35.447  13.834
57699W        W30124  37.948  18.127  11.605
57700W        W30125   1.375  28.040   2.344
57701W        W30126   1.467   8.728  12.565
57702W        W30127   4.818  36.884   4.807
57703W        W30128  36.879  43.292   4.161
57704W        W30129  18.208  33.571  14.941
57705W        W30130  42.869  30.993   4.643
57706W        W30131  10.324  42.979  10.109
57707W        W30132  42.012  31.501   3.719
57708W        W30133   5.307  21.223   1.331
57709W        W30134  38.844  35.999  13.063
57710W        W30135  37.496   3.461  11.991
57711W        W30136   2.407  40.496   5.180
57712W        W30137  31.029   6.319   0.301
57713W        W30138   7.407   5.860   3.241
57714W        W30139  18.551   8.829  10.569
57715W        W30140  44.761  13.332  13.938
57716W        W30141  22.568  29.508   3.772
57717W        W30142  30.071  39.532  10.899
57718W        W30143  40.330  35.358  13.445
57719W        W30144   1.820  23.094  12.466
57720W        W30145  19.693  17.631  12.445
57721W        W30146  34.907   2.456   2.363
57722W        W30147  29.557   8.858  14.451
57723W        W30148  42.356  15.714   2.206
57724W        W30149  18.060  21.729   1.299
57725W        W30150   1.386  13.723   1.717
57726W        W30151  23.054   4.731  12.927
57727W        W30152  20.734  32.051  10.611
57728W        W30153  34.067  10.641  10.454
57729W        W30154  14.172  35.955   0.436
57730W        W30155  36.434  32.111   3.711
57731W        W30156   2.226  34.599   3.244
57732W        W30157  43.820   2.359   1.827
57733W        W30158   8.898   9.309   1.284
57734W        W30159  29.525  24.002   4.834
57735W        W30160  16.229  24.068  12.522
57736W        W30161  30.050  21.057  14.345
57737W        W30162  13.152  22.128   1.893
57738W        W30163  11.170  22.655   1.299
57739W        W30164  24.160  36.947   3.169
57740W        W30165  40.906  40.493  10.586
57741W        W30166  19.730   8.398  11.861
57742W        W30167  14.305  21.673  13.343
57743W        W30168  24.172  44.902   2.815
57744W        W30169  33.592  28.035   2.412
57745W        W30170  43.505  29.635  10.974
57746W        W30171  16.178  37.547  14.030
57747W        W30172   8.812  25.210   0.750
57748W        W30173  34.934   7.262  11.963
57749W        W30174   8.664  21.550   4.747
57750W        W30175  37.430  18.209  11.053
57751W        W30176  43.879  18.267  10.965
57752W        W30177  19.274  25.639  11.516
57753W        W30178  21.603  40.883   1.726
57754W        W30179  25.116  15.594  11.886
57755W        W30180   3.285  13.785   0.796
57756W        W30181  31.553   9.278   4.771
57757W        W30182  20.127  11.716  13.013
57758W        W30183  16.734   9.251  14.399
57759W        W30184  41.809  29.060  11.534
57760W        W30185  24.128  12.209   1.326
57761W        W30186   2.387  13.187  12.824
57762W        W30187  44.440   5.232   3.750
57763W        W30188   9.325   4.284   3.809
57764W        W30189  34.462  34.103   2.272
57765W        W30190   0.437  14.130  14.873
57766W        W30191  40.361  35.456   0.283
57767W        W30192  25.555  37.878   4.140
57768W        W30193  27.586   4.736  10.957
57769W        W30194  22.026  10.647   3.184
57770W        W30195  32.631  23.628  10.506
57771W        W30196  38.972  20.698  14.476
57772W        W30197  29.109  16.238   0.374
57773W        W30198  23.117  26.624  14.377
57774W        W30199   1.919   1.835   1.246
57775W        W30200  33.459   3.395  13.505
57776W        W30201  23.532  22.570   0.767
57777W        W30202  19.184  35.853  12.975
57778W        W30203   4.904  39.831  11.568
57779W        W30204  21.738  40.445   3.795
57780W        W30205   2.371  17.288   3.669
57781W        W30206   3.935   4.422  14.918
57782W        W30207   7.334  22.249  14.495
57783W        W30208  21.531  41.420  13.351
57784W        W30209  17.089  12.118   3.741
57785W        W30210   9.269   7.859  13.324
57786W        W30211  30.469  11.201   4.183
57787W        W30212  44.849   4.359   1.930
57788W        W30213  10.325  43.787  13.377
57789W        W30214  22.520  10.855   3.331
57790W        W30215  40.503  29.489  12.521
57791W        W30216  21.536  38.561   3.239
57792W        W30217   0.871  43.012   1.289
57793W        W30218  22.633  15.762  10.042
57794W        W30219   0.891  33.904  11.463
57795W        W30220  43.332  39.441   4.612
57796W        W30221   8.694  40.831  14.318
57797W        W30222   9.702   7.238   1.319
57798W        W30223  33.012  13.140   3.217
57799W        W30224   0.466  39.964  14.824
57800W        W30225  11.697  12.806   0.472
57801W        W30226  20.694  37.875  10.435
57802W        W30227   3.320   3.383  10.954
57803W        W30228  11.179   4.323   1.805
57804W        W30229  29.450  21.208  12.989
57805W        W30230  11.665  24.183   0.876
57806W        W30231  41.373  30.050  12.853
57807W        W30232  32.932  41.854  12.929
57808W        W30233  35.601   2.761   2.684
57809W        W30234   4.352  19.153  11.501
57810W        W30235  38.415  24.197   3.150
57811W        W30236   2.962  27.192   1.783
57812W        W30237  43.400  31.927  12.009
57813W        W30238  42.997  28.535  12.569
57814W        W30239  44.315   7.787   4.622
57815W        W30240  34.902  16.802   0.280
57816W        W30241  31.043  18.118  11.962
57817W        W30242  24.975   6.370  13.439
57818W        W30243  31.451  17.613  14.321
57819W        W30244  22.103  28.518  12.418
57820W        W30245  44.306  21.632  12.883
57821W        W30246  37.415   1.951   3.289
57822W        W30247   0.866  24.230   1.822
57823W        W30248  44.954  23.672  11.927
57824W        W30249   1.757  23.645  12.847
57825W        W30250  28.140  34.064   0.858
57826W        W30251  37.391   3.219   2.723
57827W        W30252  19.213  44.295  11.113
57828W        W30253   5.871  14.728   1.310
57829W        W30254  15.100  42.314   1.293
57830W        W30255  29.027  38.363  14.475
57831W        W30256   2.746   6.837  10.989
57832W        W30257  43.439  34.111  14.329
57833W        W30258  23.734  18.616  12.517
57834W        W30259  23.111  20.604  14.369
57835W        W30260  39.980  34.501   3.351
57836W        W30261   5.358  24.119  13.334
57837W        W30262  15.775  30.541   1.912
57838W        W30263  39.944  34.059  13.484
57839W        W30264   3.300  11.274   4.658
57840W        W30265   6.241  11.814   5.269
57841W        W30266  39.880  43.507   1.268
57842W        W30267  33.113  15.285  12.365
57843W        W30268   3.848   4.235  14.305
57844W        W30269  27.964  44.275  10.035
57845W        W30270   5.319  13.178   4.637
57846W        W30271  44.407  13.798   3.782
57847W        W30272  16.684  17.218  11.983
57848W        W30273  37.992  10.310  14.787
57849W        W30274   6.300  12.720   2.212
57850W        W30275   2.397  39.437  12.496
57851W        W30276  26.567  29.537   0.896
57852W        W30277   9.719  43.971   3.870
57853W        W30278  11.174  21.116  14.365
57854W        W30279  14.266   0.464  13.353
57855W        W30280  18.186  37.935  14.391
57856W        W30281   9.152  31.502  10.439
57857W        W30282  23.052  23.102  11.559
57858W        W30283  23.667  30.942  11.578
57859W        W30284  41.877  35.573  11.881
57860W        W30285  28.471   1.336   0.867
57861W        W30286  40.991  39.062   1.378
57862W        W30287  12.697  35.443  11.938
57863W        W30288  31.556   9.166   0.464
57864W        W30289  23.643   5.841   0.458
57865W        W30290  36.515  23.554   4.267
57866W        W30291  40.015  44.876  14.471
57867W        W30292  37.031  23.591  10.449
57868W        W30293  37.407  12.135   2.269
57869W        W30294  15.109  44.494  10.024
57870W        W30295   1.447  32.531  11.511
57871W        W30296  34.968  19.565  11.066
57872W        W30297   6.412   9.262  13.858
57873W        W30298  11.808  36.359   0.741
57874W        W30299  42.865  25.541   5.109
57875W        W30300  32.069  42.343   2.234
57876W        W30301  35.587   8.655  14.383
57877W        W30302  12.284  36.445   2.340
57878W        W30303  26.701  34.439   1.696
57879W        W30304  23.173   0.848  13.500
57880W        W30305  14.177  10.215  11.384
57881W        W30306   6.898  14.201   5.226
57882W        W30307  40.540  32.627  10.588
57883W        W30308  29.659  39.475  11.495
57884W        W30309  11.684  32.966  14.477
57885W        W30310  35.529   4.283   4.244
57886W        W30311  19.081   6.345  13.312
57887W        W30312  24.514  34.596  10.497
57888W        W30313  32.494   6.299   9.941
57889W        W30314  18.662  43.770  14.395
57890W        W30315  27.039  18.625  13.374
57891W        W30316  17.306  35.440   2.667
57892W        W30317  30.503   9.336   1.908
57893W        W30318  12.612  25.056   4.688
57894W        W30319  16.765  38.067   4.354
57895W        W30320  20.765   7.758  13.932
57896W        W30321  11.775  10.719  12.546
57897W        W30322   9.738   2.439   1.235
57898W        W30323   4.410  41.367   0.736
57899W        W30324  31.604   4.795   4.685
57900W        W30325   7.306  22.573   2.245
57901W        W30326  28.014  10.756   3.748
57902W        W30327   8.681   7.791  13.888
57903W        W30328  19.591  17.285   1.350
57904W        W30329  27.538  41.385   2.296
57905W        W30330  15.705  20.575  14.008
57906W        W30331  25.056   1.278  10.976
57907W        W30332   3.841  26.483  13.532
57908W        W30333  12.268  22.107   4.607
57909W        W30334  34.922   5.378  14.292
57910W        W30335  10.356  35.903  14.879
57911W        W30336  43.423   7.812   1.881
57912W        W30337   2.727  12.753   2.303
57913W        W30338   2.404   0.776  13.956
57914W        W30339  25.640  30.655  13.383
57915W        W30340   4.707  40.314  13.946
57916W        W30341  31.414  27.474   1.875
57917W        W30342  31.139  42.828  12.920
57918W        W30343  30.527   1.377   1.348
57919W        W30344   1.271  23.089   4.166
57920W        W30345   8.896  39.948   2.893
57921W        W30346  31.416   5.917   3.192
57922W        W30347   9.353  29.145  11.009
57923W        W30348  27.057  29.064   1.823
57924W        W30349   0.985   6.913  14.341
57925W        W30350  14.629  39.830  10.138
57926W        W30351  30.589   6.196  10.511
57927W        W30352  10.278  26.160   3.710
57928W        W30353  42.976   0.859  13.929
57929W        W30354  29.433  12.822  13.480
57930W        W30355  31.592  13.133  14.838
57931W        W30356  33.103  28.463  10.492
57932W        W30357  35.853  23.560  14.849
57933W        W30358  22.225  13.737  14.979
57934W        W30359  31.424  10.347  10.487
57935W        W30360  31.548  30.608   2.418
57936W        W30361  11.163  22.237   1.914
57937W        W30362  38.480  39.062   0.309
57938W        W30363   9.359   6.319  13.056
57939W        W30364  28.094   6.799  11.576
57940W        W30365  38.992  34.592  12.537
57941W        W30366  17.800  40.881   0.745
57942W        W30367  44.399  30.443   2.777
57943W        W30368  18.756  13.694   4.297
57944W        W30369  27.985  22.108  14.814
57945W        W30370  13.601  41.429  14.464
57946W        W30371   0.385  37.420  11.609
57947W        W30372  37.854  32.049  11.100
57948W        W30373  17.140  23.687  10.499
57949W        W30374  11.731  30.645  13.528
57950W        W30375  41.350  19.041   1.255
57951W        W30376  23.701  31.094   1.388
57952W        W30377  40.528   0.750  11.419
57953W        W30378  13.220  42.304  13.950
57954W        W30379  34.450  17.725  11.393
57955W        W30380   1.867  20.160  13.499
57956W        W30381  21.588  40.998  13.318
57957W        W30382  22.247  37.496  11.451
57958W        W30383   1.791  26.997  10.557
57959W        W30384  11.782  10.300   3.672
57960W        W30385  12.828  34.864  14.017
57961W        W30386  26.637  27.165   3.164
57962W        W30387  19.754   3.821  11.453
57963W        W30388  41.030   7.697  11.953
57964W        W30389  29.431  34.076  11.882
57965W        W30390  24.201  32.474  11.453
57966W        W30391  30.487   3.251   2.894
57967W        W30392   9.699   2.389   4.264
57968W        W30393  40.474  20.745   2.786
57969W        W30394  38.467   1.323  13.483
57970W        W30395  15.278  34.050  11.534
57971W        W30396  24.693  26.600   1.752
57972W        W30397   1.402  32.623  10.480
57973W        W30398  29.619  36.468  10.963
57974W        W30399  15.112  31.962   3.633
57975W        W30400  29.658  37.336   9.990
57976W        W30401  10.688  42.841   9.925
57977W        W30402  20.043   3.358  10.974
57978W        W30403  35.393  39.493  11.041
57979W        W30404  37.434   4.816  12.509
57980W        W30405  22.175  18.603   0.907
57981W        W30406  27.030  43.819   0.310
57982W        W30407  23.177  26.621   1.705
57983W        W30408  23.992  22.071   3.859
57984W        W30409  11.810  37.381   2.866
57985W        W30410  15.715  39.037   2.251
57986W        W30411  14.096  34.031  13.526
57987W        W30412  40.428   4.897  13.036
57988W        W30413  34.475   1.321   4.806
57989W        W30414  40.845  23.036  14.319
57990W        W30415  10.666  36.380   1.275
57991W        W30416  29.094  44.847   0.762
57992W        W30417   0.881  30.914   1.883
57993W        W30418   6.333  13.771   0.770
57994W        W30419   9.724  17.790  13.852
57995W        W30420   2.443  38.337   4.252
57996W        W30421   1.957  36.387  10.948
57997W        W30422  34.026  24.529  14.276
57998W        W30423  23.553  24.166  12.068
57999W        W30424  30.582  34.918   0.967
58000W        W30425  35.557  12.735   3.738
58001W        W30426  29.621  34.013   3.835
58002W        W30427  19.095   8.220  14.817
58003W        W30428  12.691  41.324  14.908
58004W        W30429   8.661  36.415   0.480
58005W        W30430  17.766  27.022  14.495
58006W        W30431  26.110  39.941   3.370
58007W        W30432  16.745   5.897  13.472
58008W        W30433  37.461  39.832  13.527
58009W        W30434  39.065  23.715   4.683
58010W        W30435  23.530   4.721  10.103
58011W        W30436  26.687  39.956   1.352
58012W        W30437  16.578   2.732   1.815
58013W        W30438  33.875  35.091  14.945
58014W        W30439  10.844  23.547  11.879
58015W        W30440  15.126  33.411  10.537
58016W        W30441  17.562  32.985   2.197
58017W        W30442   6.247  17.678  12.433
58018W        W30443  31.094  41.842  11.981
58019W        W30444  10.651  20.618   4.289
58020W        W30445  26.165  43.006  14.382
58021W        W30446   3.382  31.466  14.959
58022W        W30447  33.428  29.607  14.935
58023W        W30448   9.318   8.177  13.842
58024W        W30449  36.024  33.414   0.911
58025W        W30450  31.110  17.750  12.496
58026W        W30451  17.765  17.252  10.898
58027W        W30452  24.170  22.531  11.536
58028W        W30453  18.150  23.172  13.920
58029W        W30454  36.470  36.361   0.475
58030W        W30455  14.746  42.783   0.438
58031W        W30456  24.121  34.006   1.764
58032W        W30457  41.310  11.866  12.362
58033W        W30458  37.423  38.943  14.369
58034W        W30459   4.316   8.336   2.839
58035W        W30460   9.854  12.204  11.572
58036W        W30461  30.014  12.787  12.473
58037W        W30462   7.765   3.370   3.164
58038W        W30463  11.306  15.167   4.293
58039W        W30464  27.044  40.385  13.922
58040W        W30465  29.468  28.087  11.469
58041W        W30466  32.920  37.854   3.202
58042W        W30467  42.463  28.941  12.876
58043W        W30468   8.705  26.620   3.656
58044W        W30469   1.769  19.670   2.300
58045W        W30470  44.489  28.546  12.870
58046W        W30471  29.020  34.940  14.838
58047W        W30472  43.871  34.900  10.568
58048W        W30473  26.547   5.337   2.680
58049W        W30474   1.750  18.065  11.401
58050W        W30475  15.822  25.983   2.748
58051W        W30476   7.310   7.838  13.374
58052W        W30477  40.924  37.548   0.298
58053W        W30478  33.881  18.722   4.716
58054W        W30479  40.872  19.562  13.451
58055W        W30480  11.371   1.330  12.855
58056W        W30481   3.727  28.170  11.105
58057W        W30482   9.391   9.701   4.601
58058W        W30483  23.534  12.809  14.430
58059W        W30484   8.684  22.684  12.378
58060W        W30485  25.530   3.290   5.191
58061W        W30486   5.867   2.326  11.510
58062W        W30487  34.514  40.314  12.823
58063W        W30488  20.694   7.714   2.862
58064W        W30489  42.890  20.731  12.381
58065W        W30490  39.373   7.341   0.348
58066W        W30491  43.354  34.613  14.851
58067W        W30492   3.251  20.681  13.023
58068W        W30493  28.068   7.906   2.713
58069W        W30494  42.953  22.682  13.457
58070W        W30495   7.687  26.506  14.915
58071W        W30496  16.678  43.507  14.995
58072W        W30497   4.214   8.281   3.714
58073W        W30498  24.054  13.748  14.006
58074W        W30499  38.876  41.357   4.712
58075W        W30500  35.519   7.234  12.380
58076W        W30501  37.576  43.776   2.294
58077W        W30502  38.411   5.910   2.742
58078W        W30503  40.383  28.954  12.366
58079W        W30504  33.551  14.714  14.485
58080W        W30505   2.920   8.817   4.280
58081W        W30506  14.605   7.238  10.411
58082W        W30507  15.211   6.358   3.299
58083W        W30508  10.245  12.241   0.790
58084W        W30509   6.235  24.643   2.873
58085W        W30510   5.784  24.162  14.985
58086W        W30511  22.523  39.508  10.497
58087W        W30512   2.943  33.943  11.543
58088W        W30513  43.955  27.119   2.899
58089W        W30514   6.189   8.810  10.912
58090W        W30515  23.532  15.652  14.874
58091W        W30516  14.699  39.939  13.979
58092W        W30517  33.059  36.027  14.863
58093W        W30518   8.186  20.564  12.455
58094W        W30519  36.029  34.047  13.971
58095W        W30520  22.667  18.616  13.015
58096W        W30521  26.996  33.496   0.759
58097W        W30522   2.965  22.539   1.710
58098W        W30523  25.155  35.084   4.676
58099W        W30524  12.120  33.570  14.389
58100W        W30525  17.801  30.545   4.169
58101W        W30526   1.819   3.809  10.927
58102W        W30527  11.814  25.618  13.041
58103W        W30528  14.337  35.377  12.837
58104W        W30529  15.616  38.021   3.827
58105W        W30530  41.821  40.948   3.205
58106W        W30531  25.053   8.367  10.629
58107W        W30532  36.032  40.520   4.228
58108W        W30533  10.244  44.860   2.731
58109W        W30534  43.808  19.761   2.801
58110W        W30535  23.123  33.495   0.907
58111W        W30536   1.306  44.773   1.894
58112W        W30537  13.288  28.941   3.861
58113W        W30538  29.652  34.994  14.977
58114W        W30539  37.847   5.860  12.980
58115W        W30540  24.173  39.362  10.592
58116W        W30541  20.532   4.429   1.785
58117W        W30542   2.797   3.833   0.730
58118W        W30543   9.875   0.300   4.351
58119W        W30544  33.389  40.537   1.221
58120W        W30545  29.626  32.619  13.381
58121W        W30546  25.704  17.262  12.980
58122W        W30547  33.573   8.744  12.478
58123W        W30548   6.897  40.460   2.731
58124W        W30549  23.994   5.377   2.863
58125W        W30550  18.579   1.459  13.900
58126W        W30551  38.359  35.590   2.879
58127W        W30552  28.978   7.769  13.362
58128W        W30553  13.309  44.800   4.353
58129W        W30554  10.330  39.549   3.737
58130W        W30555   5.850  41.355   0.264
58131W        W30556  26.646   9.825   4.155
58132W        W30557  25.111   0.270   0.883
58133W        W30558   4.795  22.565  14.891
58134W        W30559  35.086  38.977   0.405
58135W        W30560  36.910  39.472   0.906
58136W        W30561  37.041  31.565   2.692
58137W        W30562  18.279  36.849   3.265
58138W        W30563  26.157  25.211   0.266
58139W        W30564  37.406   7.323   3.352
58140W        W30565  44.820   4.362   0.386
58141W        W30566  32.464  44.383  14.921
58142W        W30567  38.853  25.660  14.953
58143W        W30568  25.205  16.810   3.849
58144W        W30569  43.777  27.553   2.208
58145W        W30570  32.504   3.737  11.396
58146W        W30571  33.130  26.525  14.779
58147W        W30572   0.488  30.096   1.270
58148W        W30573  18.081  16.231   2.196
58149W        W30574  20.596   6.416   4.248
58150W        W30575  29.172  25.541   1.244
58151W        W30576  11.856   6.331  12.906
58152W        W30577  19.688  18.064   2.389
58153W        W30578  36.962   3.840   3.755
58154W        W30579   3.842  29.437  10.480
58155W        W30580  21.122  23.504   0.262
58156W        W30581  30.102  20.063   0.800
58157W        W30582  44.344   4.276   2.830
58158W        W30583  27.961  41.892   5.109
58159W        W30584  38.022  41.029  12.826
58160W        W30585  25.084  39.412   3.794
58161W        W30586   0.905  40.044   3.693
58162W        W30587  23.062  13.270   0.374
58163W        W30588   2.767  20.185  12.095
58164W        W30589  10.657  18.708   1.727
58165W        W30590  16.789  19.734  13.313
58166W        W30591  10.719  38.435  14.447
58167W        W30592   7.682   5.321  10.999
58168W        W30593  41.894   2.300  13.443
58169W        W30594   7.821   6.836   0.382
58170W        W30595  38.028   4.914   2.244
58171W        W30596  39.449  22.006   3.213
58172W        W30597  30.987  12.219  10.598
58173W        W30598   3.394   8.396   1.334
58174W        W30599   3.941  27.029   3.286
58175W        W30600  16.219  40.463  12.530
58176W        W30601  27.664  16.733   4.240
58177W        W30602   6.728  18.732   0.406
58178W        W30603  14.194  43.357   1.876
58179W        W30604   4.925   8.182   3.817
58180W        W30605   8.704  29.500   2.214
58181W        W30606   7.792  35.065  12.875
58182W        W30607  20.680  22.562  12.967
58183W        W30608  20.042  10.807   4.231
58184W        W30609   3.404  31.044  10.999
58185W        W30610  17.245  37.016  10.958
58186W        W30611   8.742  27.517   4.130
58187W        W30612  15.755  14.167  11.062
58188W        W30613  19.592  16.596   3.822
58189W        W30614  37.517  22.145  10.495
58190W        W30615  31.016   7.778  11.409
58191W        W30616  29.154  34.112  14.465
58192W        W30617   2.724  19.776   3.794
58193W        W30618  13.735  10.187   0.247
58194W        W30619   2.428   7.786   4.240
58195W        W30620  29.540  37.869  11.879
58196W        W30621  29.644  17.120  14.792
58197W        W30622  30.514  38.552   3.807
58198W        W30623  35.431  34.969   1.931
58199W        W30624  42.902  39.998  10.901
58200W        W30625  30.039  16.097   4.317
58201W        W30626   2.889   7.902  12.533
58202W        W30627  35.978  31.071  13.903
58203W        W30628  11.269   8.894   2.210
58204W        W30629  32.966  29.172   0.293
58205W        W30630  26.014  13.605  14.412
58206W        W30631  43.918  16.677  13.871
58207W        W30632  42.488  36.391  11.861
58208W        W30633  23.672  34.535  12.340
58209W        W30634   4.873  13.247   0.878
58210W        W30635  10.806  12.337   1.394
58211W        W30636   6.243   5.408   0.468
58212W        W30637   2.378  32.487   4.644
58213W        W30638  41.419  31.436   0.314
58214W        W30639  37.081  22.075  13.423
58215W        W30640  24.143  36.997   1.897
58216W        W30641  37.558   6.756   3.152
58217W        W30642  36.974   2.271  11.924
58218W        W30643   9.735  18.192  13.378
58219W        W30644  34.067  13.197   2.748
58220W        W30645  13.161  43.483  14.016
58221W        W30646  29.659  42.483   1.933
58222W        W30647  37.917  43.767   3.843
58223W        W30648  12.783  13.755  14.821
58224W        W30649   8.761  25.115  12.927
58225W        W30650   7.726  20.533   4.297
58226W        W30651  40.304   4.418  14.819
58227W        W30652  22.164  20.060  14.339
58228W        W30653  27.626  31.919  13.415
58229W        W30654  40.546  11.716   4.150
58230W        W30655  14.198  30.588  12.434
58231W        W30656   2.303   5.753   1.896
58232W        W30657  40.044  28.976  14.310
58233W        W30658  33.597  43.809   4.774
58234W        W30659  35.505  13.784  13.853
58235W        W30660   0.352  25.091  13.054
58236W        W30661  40.947  21.203   3.821
58237W        W30662  22.654  12.130   1.368
58238W        W30663  30.428  42.855  12.517
58239W        W30664  17.734  10.141   1.851
58240W        W30665  18.259  32.605  11.075
58241W        W30666  24.722   2.459   3.183
58242W        W30667  43.375  42.371   4.696
58243W        W30668  42.977  13.761   1.853
58244W        W30669  39.516   9.858  11.003
58245W        W30670  44.847  39.891  11.051
58246W        W30671  25.516   8.263   3.630
58247W        W30672  28.112  28.538   0.347
58248W        W30673  33.447  23.720  11.529
58249W        W30674  34.992   3.339  14.851
58250W        W30675  27.691  33.424  11.959
58251W        W30676  23.613  32.631   0.372
58252W        W30677  35.472   5.732   1.423
58253W        W30678   2.238  38.329  14.791
58254W        W30679  22.534  16.789  10.555
58255W        W30680   4.241  12.256  13.899
58256W        W30681  29.081  39.837   4.253
58257W        W30682  11.210   3.753  12.987
58258W        W30683  39.825  11.304  10.899
58259W        W30684  41.429  16.616   4.829
58260W        W30685  37.360  37.881  10.921
58261W        W30686  43.462  24.202   4.833
58262W        W30687  12.245   2.911   0.841
58263W        W30688   0.328  35.082   2.290
58264W        W30689  13.235   1.799   1.295
58265W        W30690   4.204   9.222   0.442
58266W        W30691  27.650  19.650   2.273
58267W        W30692  13.640  42.973  11.447
58268W        W30693  20.539  16.712   0.328
58269W        W30694   7.340  36.433  12.914
58270W        W30695  40.420  20.675  13.458
58271W        W30696  13.784  29.511  12.952
58272W        W30697   8.662  30.650  11.458
58273W        W30698  39.883  37.025  12.048
58274W        W30699  28.657   3.348   2.797
58275W        W30700  27.107  28.522   0.922
58276W        W30701  27.541   5.220   1.419
58277W        W30702  19.649  22.011  14.491
58278W        W30703  35.010  18.260  12.055
58279W        W30704   4.878  31.037   4.208
58280W        W30705   9.257  23.097  11.041
58281W        W30706  17.650   9.393   3.663
58282W        W30707  36.357  28.472  11.042
58283W        W30708  19.119   6.900   0.252
58284W        W30709  29.933  17.150  11.590
58285W        W30710  30.084   8.890  12.043
58286W        W30711  44.838   6.868  11.521
58287W        W30712  43.820  11.792  10.588
58288W        W30713  44.890  38.402   1.240
58289W        W30714   1.963  37.085  10.445
58290W        W30715  40.428  23.165   3.644
58291W        W30716  23.683  21.726  10.993
58292W        W30717  28.540  34.955  12.033
58293W        W30718  42.775  18.261  11.894
58294W        W30719  22.597   2.812   0.368
58295W        W30720  19.633  28.936   1.397
58296W        W30721  25.091  32.581   9.927
58297W        W30722  10.282  22.235   0.763
58298W        W30723  38.827  39.022   1.929
58299W        W30724   1.470  23.068  14.384
58300W        W30725  21.529   0.389  12.031
58301W        W30726  40.030  34.418   1.435
58302W        W30727  12.690  12.643  10.474
58303W        W30728  44.424  24.165   0.245
58304W        W30729  38.998   1.921  10.895
58305W        W30730  43.774  23.640  12.888
58306W        W30731  32.035   2.745  14.352
58307W        W30732   1.833   3.864   3.867
58308W        W30733  39.556  44.408  14.865
58309W        W30734  33.923  37.494  10.438
58310W        W30735  39.372  13.754  11.968
58311W        W30736  26.553   2.360   3.273
58312W        W30737  32.454  20.095  14.321
58313W        W30738  35.453  35.855   0.304
58314W        W30739  40.475  19.174   1.842
58315W        W30740  19.174  27.127  12.473
58316W        W30741  40.018  40.052  12.505
58317W        W30742  40.336  33.392   2.869
58318W        W30743  24.151  30.958  14.458
58319W        W30744   8.365  34.865  13.495
58320W        W30745  19.636   0.973   2.688
58321W        W30746   4.841  28.115  10.963
58322W        W30747  34.439  38.051  14.030
58323W        W30748  38.061  13.312   1.335
58324W        W30749  40.840   2.967   1.747
58325W        W30750  30.414  36.043   4.818
58326W        W30751  43.019  38.404   1.835
58327W        W30752  44.264   0.838   4.182
58328W        W30753   6.331  20.197   0.389
58329W        W30754  26.585  18.169   1.409
58330W        W30755  18.053  16.109  12.917
58331W        W30756  26.121  15.102  13.366
58332W        W30757   5.794  17.125   2.687
58333W        W30758  16.280  34.377   4.660
58334W        W30759  16.752  33.582  13.029
58335W        W30760  41.021   3.821   1.740
58336W        W30761  16.658   0.485  11.996
58337W        W30762  15.219  13.668   2.824
58338W        W30763  41.796  24.496  10.567
58339W        W30764  43.923  36.852  11.545
58340W        W30765  21.111  41.311  10.099
58341W        W30766  34.370  28.079  11.991
58342W        W30767   8.182   9.770   0.875
58343W        W30768  18.599  34.038  12.836
58344W        W30769  40.883   1.745  10.922
58345W        W30770  29.431  11.352  10.929
58346W        W30771  24.712   0.284  14.836
58347W        W30772  42.777  36.015   3.681
58348W        W30773   1.954  10.835  11.374
58349W        W30774  36.035  42.901   0.793
58350W        W30775  30.132  26.034   1.768
58351W        W30776  10.155  43.777   2.897
58352W        W30777  31.089  26.602   4.258
58353W        W30778   2.888  29.556  10.528
58354W        W30779  35.856  38.026  12.563
58355W        W30780   3.897   9.285   4.678
58356W        W30781   5.745  10.148   0.926
58357W        W30782  36.936  28.521   3.646
58358W        W30783  29.591  33.012   1.342
58359W        W30784   0.916  37.451   3.769
58360W        W30785  28.969  32.950   0.330
58361W        W30786  44.409  18.663   4.128
58362W        W30787  26.097  34.465  10.418
58363W        W30788   4.290  26.158  14.463
58364W        W30789  18.169  20.093   1.880
58365W        W30790   2.917   3.359   3.851
58366W        W30791   5.767  30.938   0.362
58367W        W30792  30.920   8.209   1.425
58368W        W30793  21.197  28.480  13.961
58369W        W30794  18.093  23.730  11.528
58370W        W30795  31.590   8.161  13.957
58371W        W30796   6.821  34.039  13.063
58372W        W30797   2.265  20.080   2.191
58373W        W30798  19.629  42.497   3.223
58374W        W30799  18.728  30.064   1.898
58375W        W30800   8.741  40.975  12.940
58376W        W30801  17.635  35.096  14.874
58377W        W30802   0.258   9.358   2.341
58378W        W30803  36.546  44.278  11.970
58379W        W30804  33.102   8.241  10.953
58380W        W30805  42.860  16.173   2.355
58381W        W30806   6.685  23.079   1.820
58382W        W30807  26.672  21.727   1.832
58383W        W30808  20.534  18.772  11.379
58384W        W30809   8.266  44.363  11.925
58385W        W30810  36.555  14.792  13.848
58386W        W30811  33.886   1.769   3.177
58387W        W30812  24.049  29.078   4.835
58388W        W30813  36.353   5.861   4.352
58389W        W30814  16.718  15.215  11.549
58390W        W30815  23.503  36.888  14.777
58391W        W30816  28.026   9.880   0.453
58392W        W30817  39.465  15.187   1.696
58393W        W30818  19.232  44.409  13.432
58394W        W30819  28.027  19.542  14.466
58395W        W30820   3.905  19.244   4.759
58396W        W30821  19.643  43.926  13.345
58397W        W30822  42.829  20.105   2.282
58398W        W30823   0.885  33.016   4.322
58399W        W30824  40.509  14.148  14.942
58400W        W30825  20.767  23.511   4.170
58401W        W30826   1.959  30.018   2.774
58402W        W30827  38.035  20.198   0.960
58403W        W30828  28.464  16.234   4.317
58404W        W30829  32.562  15.246   0.786
58405W        W30830  21.123  18.758  14.861
58406W        W30831  10.758  23.706  10.624
58407W        W30832  17.687  19.138   3.203
58408W        W30833  22.591  39.920  14.387
58409W        W30834   7.410   0.778   2.185
58410W        W30835  26.583  43.430   2.852
58411W        W30836  22.621  16.615   2.233
58412W        W30837  14.629  24.682  11.581
58413W        W30838  19.746  36.915  11.588
58414W        W30839  12.343  15.275   3.275
58415W        W30840  41.792  18.154   5.083
58416W        W30841   1.821   3.309  11.555
58417W        W30842   3.863  40.370   4.698
58418W        W30843  44.433   7.719   1.737
58419W        W30844  13.283  41.989  13.968
58420W        W30845  24.076  13.338  13.881
58421W        W30846  26.190  37.470   3.671
58422W        W30847  36.011   7.264   4.330
58423W        W30848  41.463   5.194   1.258
58424W        W30849  24.538   1.817  14.002
58425W        W30850  44.836  32.086   3.669
58426W        W30851  26.553  13.235   3.381
58427W        W30852   7.409  21.604  14.927
58428W        W30853  22.222  43.952  10.625
58429W        W30854  24.079  26.552   1.238
58430W        W30855   6.732  37.992  14.434
58431W        W30856  38.397   8.731   2.201
58432W        W30857   8.309  21.252   2.855
58433W        W30858   3.267  21.693  14.377
58434W        W30859  22.608  17.646   2.406
58435W        W30860   8.175  28.458   2.368
58436W        W30861  31.496  42.437  14.371
58437W        W30862  12.280  22.571  10.981
58438W        W30863  31.032  44.963   2.396
58439W        W30864  26.553  13.291  13.992
58440W        W30865  18.063  41.989  12.568
58441W        W30866  30.152   4.246  14.930
58442W        W30867  27.659   1.788  13.383
58443W        W30868  11.311  28.486   0.939
58444W        W30869  30.067  25.525  11.987
58445W        W30870  12.296   5.219  13.511
58446W        W30871  39.937  14.617   0.740
58447W        W30872   7.390   5.231   3.376
58448W        W30873  15.605  30.029  11.909
58449W        W30874  21.232  30.469   4.193
58450W        W30875  19.281  16.671  10.640
58451W        W30876  15.257  36.077  14.370
58452W        W30877  43.357   2.849  10.582
58453W        W30878  22.696  43.849  11.465
58454W        W30879  12.297  18.271   2.300
58455W        W30880  29.641  33.574   3.707
58456W        W30881  34.987  27.971  11.470
58457W        W30882  18.080  27.676  14.825
58458W        W30883  34.510  16.579   2.802
58459W        W30884  22.090  38.550  13.339
58460W        W30885  12.310  23.067   0.244
58461W        W30886  10.153  25.996  14.335
58462W        W30887  20.594  16.601   4.275
58463W        W30888  24.660  20.095  12.409
58464W        W30889  19.273  17.742   3.702
58465W        W30890  32.482   3.294  10.921
58466W        W30891  41.371  34.423   1.862
58467W        W30892  34.429  31.623   4.232
58468W        W30893  15.195  16.714   0.966
58469W        W30894  14.333   1.897  12.898
58470W        W30895  39.934  41.789  14.933
58471W        W30896  13.832   0.972   4.322
58472W        W30897  11.131  42.375   4.208
58473W        W30898   4.726  39.833   4.192
58474W        W30899  41.787  12.831  11.069
58475W        W30900  23.731  35.407  13.964
58476W        W30901  31.068  42.411  14.955
58477W        W30902  42.958  39.436   0.744
58478W        W30903  14.674  31.481  11.980
58479W        W30904   1.784   1.783   4.824
58480W        W30905  28.611  10.208   0.778
58481W        W30906  13.113   1.917  10.540
58482W        W30907  18.167  36.876  13.827
58483W        W30908  13.266  43.839  11.928
58484W        W30909  33.950  29.437   3.841
58485W        W30910  23.497  41.980   1.721
58486W        W30911  10.734  12.281   4.817
58487W        W30912  17.227   4.412  11.576
58488W        W30913  10.162  18.561   0.797
58489W        W30914  38.917  31.512   1.869
58490W        W30915  40.307  39.940  10.569
58491W        W30916   5.329   7.867   1.722
58492W        W30917  32.425  40.813  13.943
58493W        W30918  36.968  36.055  14.785
58494W        W30919  37.917  17.768   2.358
58495W        W30920   8.400  24.143   4.314
58496W        W30921   6.756   1.806   2.777
58497W        W30922  40.514   5.327  12.057
58498W        W30923  36.954  35.951   4.669
58499W        W30924  25.111  31.597  12.960
58500W        W30925  16.140  34.112   4.607
58501W        W30926   3.266  28.522  14.389
58502W        W30927  20.746  26.473   3.242
58503W        W30928  20.156  23.735   1.928
58504W        W30929  38.027  19.589  13.841
58505W        W30930  44.892  18.724  12.051
58506W        W30931  40.455  15.689  12.569
58507W        W30932  14.100  28.449  13.435
58508W        W30933  43.385  26.148   1.847
58509W        W30934  19.714  18.777  12.456
58510W        W30935  40.994  26.112  11.858
58511W        W30936  43.926  37.065   2.819
58512W        W30937  11.131  43.351   4.300
58513W        W30938  13.247  35.946  13.002
58514W        W30939  38.835  37.554  12.938
58515W        W30940  23.119  12.768  11.059
58516W        W30941  36.925  28.544  10.569
58517W        W30942   7.212  15.185   3.166
58518W        W30943   8.298   7.292   0.377
58519W        W30944  32.967  27.563   0.420
58520W        W30945   1.943  33.429  11.910
58521W        W30946  44.829  35.020   0.300
58522W        W30947  27.137  32.444  14.416
58523W        W30948  27.125  18.297  10.551
58524W        W30949  31.141  25.705  11.890
58525W        W30950   1.400  15.703  14.503
58526W        W30951  19.160  22.029  14.813
58527W        W30952  22.738  17.636  11.942
58528W        W30953   8.255  11.691   3.820
58529W        W30954  13.613  19.047  12.395
58530W        W30955   0.905   0.924  14.420
58531W        W30956  30.494  12.836   4.172
58532W        W30957  21.030   2.813   4.836
58533W        W30958  19.763  34.001   1.793
58534W        W30959   4.892  17.694   0.479
58535W        W30960   2.446  10.765  10.407
58536W        W30961  24.986   9.260  10.471
58537W        W30962  35.925  26.462   1.842
58538W        W30963   6.265  10.725   3.302
58539W        W30964  30.634  13.201  14.021
58540W        W30965  18.589  13.701  11.554
58541W        W30966  17.253  11.270   4.701
58542W        W30967  14.675  15.639  14.777
58543W        W30968  17.725  23.197   1.279
58544W        W30969  17.677  33.516   9.542
58545W        W30970  41.327  16.773  11.444
58546W        W30971   6.901  21.258   3.158
58547W        W30972   1.380  22.020   3.209
58548W        W30973  40.958  10.681   3.327
58549W        W30974  14.827  29.608   1.729
58550W        W30975  41.343  25.507   2.814
58551W        W30976  12.165  41.533   4.242
58552W        W30977  28.967   7.288  13.027
58553W        W30978   8.210  32.621  10.538
58554W        W30979  10.304  42.363  11.477
58555W        W30980   3.783  34.401   3.771
58556W        W30981  43.975  28.136   1.313
58557W        W30982  22.583  43.499  13.936
58558W        W30983  29.956  14.803  13.995
58559W        W30984  22.055  37.418   4.138
58560W        W30985  13.715   9.773   1.825
58561W        W30986  34.061   5.244   0.903
58562W        W30987  16.791  44.464  11.433
58563W        W30988  33.475  31.125   1.714
58564W        W30989  29.668  22.688  11.024
58565W        W30990  25.013  42.488  10.894
58566W        W30991   8.864  32.070   4.336
58567W        W30992  33.904  21.697  13.908
58568W        W30993   1.914   8.267  12.464
58569W        W30994   6.724  17.725   1.347
58570W        W30995  32.432  20.710   3.788
58571W        W30996  12.709  11.754  13.973
58572W        W30997   5.811  25.480   2.886
58573W        W30998  24.505   2.345  10.909
58574W        W30999  34.076  11.324  11.046
58575W        W31000  40.882  35.416  14.815
58576W        W31001   0.454   3.223  10.628
58577W        W31002  26.578  44.898   3.337
58578W        W31003  10.854  31.039   0.812
58579W        W31004  43.387  11.222  12.448
58580W        W31005  20.152  28.656  13.452
58581W        W31006  15.162  16.223   2.752
58582W        W31007  26.472  29.468  11.448
58583W        W31008  16.133   2.256  11.594
58584W        W31009   0.813  39.504  12.972
58585W        W31010   3.857  29.155   2.320
58586W        W31011  33.125  30.454  14.346
58587W        W31012  40.936  13.842   3.751
58588W        W31013   7.309  13.664   0.821
58589W        W31014  15.629  22.671   2.689
58590W        W31015  23.577  17.196  11.929
58591W        W31016  32.478   5.321  13.865
58592W        W31017  11.748  25.964  10.892
58593W        W31018  39.819  37.893   2.731
58594W        W31019  32.460  25.000   0.857
58595W        W31020   5.897  20.242  11.941
58596W        W31021  10.674  26.458  10.977
58597W        W31022   0.971  35.559  13.979
58598W        W31023  17.645  19.141  11.448
58599W        W31024  33.901  23.000  14.971
58600W        W31025  44.372  38.556  12.908
58601W        W31026   0.772  21.256  11.119
58602W        W31027  15.600  43.892   1.843
58603W        W31028  39.402  33.444  11.584
58604W        W31029  22.705  31.444   0.907
58605W        W31030  18.578  27.135  12.825
58606W        W31031   0.481   5.415  11.050
58607W        W31032   0.264  25.972  11.415
58608W        W31033  39.471  40.314  13.399
58609W        W31034  42.795  22.567   3.690
58610W        W31035   1.770  39.062   2.299
58611W        W31036   0.904  29.035   3.796
58612W        W31037  43.275  21.131   2.211
58613W        W31038   3.361  23.509   3.206
58614W        W31039  10.298  19.128   3.840
58615W        W31040  41.789  21.087   3.355
58616W        W31041  41.314  13.252  11.531
58617W        W31042   4.777  21.649  14.380
58618W        W31043  17.196  13.785   0.255
58619W        W31044   8.886  26.173   4.751
58620W        W31045  10.811  33.979  14.958
58621W        W31046  44.928   1.269  14.826
58622W        W31047   2.393  39.931   0.429
58623W        W31048   9.209   6.256  14.382
58624W        W31049  12.675   9.246   2.741
58625W        W31050   0.815  40.385  11.083
58626W        W31051  25.209  24.981   4.261
58627W        W31052  27.999  30.512  10.998
58628W        W31053   2.355   2.326   0.852
58629W        W31054  33.043   7.686   3.262
58630W        W31055  38.839  25.624   1.372
58631W        W31056   5.920   9.276   1.359
58632W        W31057  19.065   9.707   0.264
58633W        W31058   6.897  14.310   3.253
58634W        W31059  31.499  17.700  11.536
58635W        W31060  34.588  38.480  12.086
58636W        W31061   8.714  42.026   0.814
58637W        W31062  32.539  39.958   0.396
58638W        W31063  15.140   8.243   3.259
58639W        W31064  36.480  26.628   1.724
58640W        W31065   5.413  24.551  14.930
58641W        W31066   3.944  40.981   4.652
58642W        W31067   7.277  37.536  13.433
58643W        W31068   2.355  38.920   4.315
58644W        W31069  33.053  27.979   1.426
58645W        W31070  11.129  13.769  11.027
58646W        W31071  37.023  37.028  10.481
58647W        W31072  32.126  17.632  12.541
58648W        W31073  39.446  13.305   1.261
58649W        W31074   2.884   0.320   3.235
58650W        W31075  12.655  16.272  10.426
58651W        W31076  41.984  31.438  13.873
58652W        W31077   1.355  11.356   1.772
58653W        W31078  26.514   7.311   1.934
58654W        W31079  27.674   9.712   3.730
58655W        W31080   3.924   2.290  13.349
58656W        W31081  33.046   3.222  13.924
58657W        W31082  26.959   1.295   2.891
58658W        W31083  24.664  38.950  13.439
58659W        W31084  27.043  37.834  11.388
58660W        W31085  33.394  36.541  12.066
58661W        W31086  27.581  16.249  13.537
58662W        W31087  14.605  14.141  11.392
58663W        W31088  38.517  24.150  13.803
58664W        W31089   9.223  19.665   3.767
58665W        W31090  43.796  16.302   0.388
58666W        W31091  28.612  23.020  14.004
58667W        W31092  42.329  41.457  13.010
58668W        W31093  27.688  27.606  11.886
58669W        W31094  42.500   6.356  11.440
58670W        W31095  42.028  23.153   1.213
58671W        W31096  25.668  13.828   4.291
58672W        W31097  31.073  29.655   4.743
58673W        W31098  22.092  10.363   4.781
58674W        W31099   4.445  42.381   2.777
58675W        W31100  31.556  42.866   4.799
58676W        W31101  10.878  40.446  12.833
58677W        W31102  31.992   9.799   1.344
58678W        W31103  11.302   9.339   4.134
58679W        W31104   8.874  27.125  11.563
58680W        W31105   4.447   7.316   1.392
58681W        W31106   2.813  25.149  11.412
58682W        W31107  22.619  21.147   4.616
58683W        W31108  19.053  29.050   3.844
58684W        W31109   0.408  25.114  13.996
58685W        W31110   9.249  20.084   0.858
58686W        W31111  39.926  10.647   2.793
58687W        W31112  18.189  10.663   2.735
58688W        W31113  28.099  28.637  12.513
58689W        W31114  36.991  42.866  10.935
58690W        W31115  38.501  41.293  12.021
58691W        W31116   9.368  22.154   3.197
58692W        W31117  15.161  10.284   4.232
58693W        W31118  43.380  27.524  13.944
58694W        W31119   8.844  28.636   2.768
58695W        W31120  39.878  26.150   1.708
58696W        W31121  23.986  24.625  12.425
58697W        W31122  33.415   6.864  13.940
58698W        W31123  11.775   2.274   1.287
58699W        W31124  36.418  26.049   1.393
58700W        W31125  10.682  25.110   1.761
58701W        W31126  33.020  25.027   3.730
58702W        W31127   9.659  24.608  12.029
58703W        W31128   3.854  32.525  10.970
58704W        W31129   2.888  18.119  13.379
58705W        W31130   0.462  33.441   2.722
58706W        W31131  29.590  25.152   1.421
58707W        W31132  27.997  30.492   1.716
58708W        W31133  27.006  16.134  14.300
58709W        W31134  34.390  16.236  12.341
58710W        W31135  16.122   9.809  10.592
58711W        W31136  43.276  22.696   5.249
58712W        W31137  13.699   7.325   4.273
58713W        W31138   7.380  42.477   1.769
58714W        W31139   1.460  38.469  14.944
58715W        W31140   0.296  12.849   0.927
58716W        W31141   1.947  41.019  13.372
58717W        W31142  25.538  35.499  12.473
58718W        W31143   5.892  32.912   3.159
58719W        W31144   8.354  37.387   1.390
58720W        W31145   3.246  22.696   0.419
58721W        W31146  37.896  31.487   2.350
58722W        W31147  14.623  24.183   0.463
58723W        W31148   9.741  12.263  12.559
58724W        W31149  40.908  39.826   1.812
58725W        W31150   7.415  18.194   4.239
58726W        W31151  10.638  12.220  14.409
58727W        W31152  22.506  24.665   0.759
58728W        W31153  38.365  16.165   0.462
58729W        W31154  31.494  44.756   2.265
58730W        W31155  44.477  43.357   3.221
58731W        W31156  16.759   0.874  10.570
58732W        W31157   5.897  35.534   0.914
58733W        W31158  21.578  34.499  14.429
58734W        W31159  30.005  36.915   4.838
58735W        W31160  43.502  20.722   3.719
58736W        W31161  25.103  33.053  10.415
58737W        W31162  35.371  24.984  11.111
58738W        W31163  13.231  13.223  14.336
58739W        W31164  32.508   2.930   2.818
58740W        W31165   5.200   0.984  14.449
58741W        W31166  19.211   6.867   0.788
58742W        W31167  39.025  33.990   3.666
58743W        W31168  30.115  31.039   3.239
58744W        W31169  34.584  43.949   2.245
58745W        W31170  38.880  41.367  14.849
58746W        W31171  23.107   3.394  10.430
58747W        W31172   1.399   3.930   4.740
58748W        W31173   5.722  24.196   3.300
58749W        W31174  41.337  43.314  13.892
58750W        W31175  29.171  13.723   0.247
58751W        W31176   4.916  18.065  11.449
58752W        W31177  22.736  29.550   1.412
58753W        W31178  29.495  10.831   2.330
58754W        W31179   7.833  10.141  11.021
58755W        W31180  27.154  32.910   2.279
58756W        W31181   3.223   3.293   3.864
58757W        W31182  42.302   7.891   0.812
58758W        W31183  21.566   6.302   2.180
58759W        W31184  37.553  28.100   2.206
58760W        W31185  22.530  35.442  13.030
58761W        W31186  12.673  33.930  14.952
58762W        W31187   7.391   5.778  12.053
58763W        W31188  42.994  33.531   1.252
58764W        W31189  44.835  24.015  11.896
58765W        W31190  37.835   8.724   3.352
58766W        W31191  43.456  41.414  14.894
58767W        W31192   0.407  33.385   5.215
58768W        W31193  25.493  10.702  13.992
58769W        W31194  12.159  38.828  10.458
58770W        W31195  36.890  27.151   1.730
58771W        W31196  43.364  17.161   2.250
58772W        W31197  11.338  21.621  13.016
58773W        W31198  10.166  37.392  12.416
58774W        W31199  30.612  42.861  13.525
58775W        W31200   4.221  29.647   2.186
58776W        W31201  30.592  37.386   2.373
58777W        W31202  35.857  12.341  14.764
58778W        W31203  20.112   6.368  13.391
58779W        W31204  24.084  21.166  11.431
58780W        W31205  18.120  21.178   3.673
58781W        W31206  16.117  33.951  14.896
58782W        W31207  20.206  31.153   1.315
58783W        W31208  29.146  33.446   0.880
58784W        W31209  21.697   4.294   4.751
58785W        W31210  27.176  44.897   4.728
58786W        W31211   8.306  43.354   0.390
58787W        W31212  12.743  36.561  12.918
58788W        W31213  22.070  43.467  14.483
58789W        W31214   3.429  37.961   3.369
58790W        W31215  28.643  23.688  10.474
58791W        W31216  16.690  27.681  14.321
58792W        W31217   8.711  24.126  14.328
58793W        W31218   5.417  40.547  11.038
58794W        W31219   0.862  19.258   3.213
58795W        W31220  19.631  34.423  10.431
58796W        W31221  29.055  26.150   2.316
58797W        W31222  27.514  33.513   0.802
58798W        W31223  33.485   9.217   2.774
58799W        W31224  36.466   9.842   5.275
58800W        W31225  38.963   9.324   3.387
58801W        W31226  32.609  43.901   1.429
58802W        W31227  23.046  36.912  10.993
58803W        W31228  19.728  27.068   1.721
58804W        W31229  22.740  42.997   4.623
58805W        W31230  30.529  21.602   5.799
58806W        W31231   7.770  21.036  10.495
58807W        W31232   0.443  19.561   3.651
58808W        W31233  29.592  32.408   3.801
58809W        W31234  12.644  23.688  11.582
58810W        W31235  40.867  32.086  12.551
58811W        W31236  34.543  20.646   0.842
58812W        W31237  38.856  19.134   3.377
58813W        W31238  22.713   8.189   4.311
58814W        W31239   1.295  32.033   2.741
58815W        W31240  13.333  41.325   3.654
58816W        W31241  24.483   2.841   1.751
58817W        W31242  11.731   9.760  11.428
58818W        W31243  26.180  12.292   3.719
58819W        W31244   9.813  15.778  10.625
58820W        W31245  24.643  23.114   3.676
58821W        W31246  25.494   7.891   3.339
58822W        W31247   7.678   6.201  10.573
58823W        W31248   7.242  39.046  11.524
58824W        W31249   5.237  10.160   3.232
58825W        W31250  30.149  33.409  13.935
58826W        W31251  34.371  10.341  14.332
58827W        W31252   2.365  26.012   1.825
58828W        W31253  33.056  37.493  14.923
58829W        W31254  19.075  15.084  12.946
58830W        W31255  12.181   8.168  12.016
58831W        W31256   0.471  42.899  14.365
58832W        W31257  13.272   4.417   0.855
58833W        W31258  27.544   2.227   1.261
58834W        W31259   7.847  15.695   5.235
58835W        W31260  16.096  21.191  14.308
58836W        W31261  12.196  26.576  10.445
58837W        W31262   3.754   0.880  14.407
58838W        W31263   7.237  39.544   2.304
58839W        W31264   4.926  35.410   3.661
58840W        W31265  12.225  38.460  10.525
58841W        W31266  25.518  43.362   1.275
58842W        W31267  26.002  43.511   2.359
58843W        W31268  39.502  37.902   1.410
58844W        W31269  14.759  38.554   2.747
58845W        W31270  42.496  10.300  14.371
58846W        W31271  19.548  15.683   0.424
58847W        W31272  14.768  31.497  12.522
58848W        W31273  13.695   2.331  10.577
58849W        W31274  30.067  24.689   3.726
58850W        W31275  10.163  17.689   0.768
58851W        W31276  18.733  35.071   5.158
58852W        W31277  13.282  21.027  10.436
58853W        W31278  32.393   3.851   2.314
58854W        W31279  29.046   1.911  10.924
58855W        W31280  29.653   7.311   0.791
58856W        W31281  16.241  35.425   2.842
58857W        W31282  30.436  24.699  14.350
58858W        W31283  37.071   3.407  12.493
58859W        W31284  22.075  19.592   2.842
58860W        W31285  31.030  32.438  12.054
58861W        W31286  19.095  39.918  12.906
58862W        W31287   4.257  41.518  12.897
58863W        W31288  26.593  13.262  14.318
58864W        W31289  11.843  40.437   3.244
58865W        W31290   3.817  27.569  14.924
58866W        W31291  20.252  34.934  12.406
58867W        W31292  25.659  17.676   3.359
58868W        W31293  10.384  26.030   4.167
58869W        W31294  28.500  10.816   3.314
58870W        W31295  40.827  35.478  10.516
58871W        W31296  19.565  17.793  11.421
58872W        W31297  13.303  11.839  11.107
58873W        W31298   0.345   7.336  13.514
58874W        W31299  38.033  29.616   4.748
58875W        W31300   0.818  27.996   4.603
58876W        W31301   1.282   6.819   3.774
58877W        W31302  24.686  34.023  14.351
58878W        W31303  38.008  42.938   2.860
58879W        W31304  26.519   0.292   0.274
58880W        W31305   6.712  24.663   1.239
58881W        W31306  27.578  25.981  10.519
58882W        W31307  23.696  28.436   1.351
58883W        W31308  26.075  22.551  11.412
58884W        W31309  11.664   9.344   9.989
58885W        W31310  24.988  37.964   2.716
58886W        W31311  25.164  37.885  12.998
58887W        W31312  39.809  33.058   2.180
58888W        W31313  22.033  26.140   0.855
58889W        W31314  21.038  23.089   3.643
58890W        W31315  43.415  40.525  11.396
58891W        W31316  21.740  13.641   3.851
58892W        W31317  23.022  19.550  10.544
58893W        W31318  40.870   8.290   4.614
58894W        W31319  11.255  41.935  11.041
58895W        W31320  19.706  44.289  13.898
58896W        W31321  34.528  10.750  11.104
58897W        W31322  17.133  40.800  11.982
58898W        W31323  31.038  40.965  11.398
58899W        W31324  29.555   3.294  14.493
58900W        W31325  28.649  26.620   2.693
58901W        W31326  25.962  27.603  14.934
58902W        W31327   3.372  33.951  13.873
58903W        W31328  33.005  36.502   1.418
58904W        W31329  25.183   6.799   3.266
58905W        W31330  13.346  13.351  11.501
58906W        W31331  41.021   0.871   4.127
58907W        W31332  40.316  41.511   4.813
58908W        W31333  41.908  17.283  10.900
58909W        W31334   5.928  31.603  11.493
58910W        W31335  12.831  11.716   0.331
58911W        W31336  20.225   0.285  13.351
58912W        W31337  22.178  25.106   3.204
58913W        W31338  41.027  25.182  11.578
58914W        W31339  38.417  43.827  11.465
58915W        W31340  21.186  16.772   2.203
58916W        W31341  36.391   4.810  11.521
58917W        W31342  33.918   6.916  13.447
58918W        W31343  38.016  34.089   0.481
58919W        W31344   6.377  26.456  13.798
58920W        W31345  26.464  23.997   3.762
58921W        W31346  42.029  31.939   1.751
58922W        W31347  44.783  27.082   3.192
58923W        W31348  27.159  19.581   1.785
58924W        W31349  21.726  25.139   5.305
58925W        W31350  11.209  35.455   3.673
58926W        W31351  44.348  22.010  14.509
58927W        W31352   1.458  36.875   2.300
58928W        W31353   8.755  39.454  12.360
58929W        W31354   5.364  23.622  12.034
58930W        W31355   8.869  32.108  13.502
58931W        W31356  19.280   2.455   3.830
58932W        W31357  21.548  30.131  14.994
58933W        W31358   6.729  26.096  14.031
58934W        W31359  15.788   7.679   4.710
58935W        W31360  10.863  10.720   3.832
58936W        W31361  41.857  23.207  13.876
58937W        W31362  21.213  26.163  11.856
58938W        W31363  33.430  41.441  10.975
58939W        W31364  36.842  40.947  12.030
58940W        W31365  36.997   5.922  12.542
58941W        W31366  22.619  35.032  13.452
58942W        W31367  31.571   8.720  11.098
58943W        W31368  41.301  40.544  12.892
58944W        W31369   7.710  20.733   4.722
58945W        W31370  34.442  27.496  11.052
58946W        W31371  12.804  38.406   4.116
58947W        W31372  28.485  26.681  14.493
58948W        W31373  26.515  12.781   5.297
58949W        W31374  33.474  14.734   2.698
58950W        W31375  20.227  19.640  12.919
58951W        W31376  30.537  23.159   0.295
58952W        W31377  29.934   8.797  12.355
58953W        W31378  25.669   9.644   2.896
58954W        W31379  19.120  16.221  14.363
58955W        W31380  16.686   2.822   2.672
58956W        W31381  40.520  27.129   4.713
58957W        W31382  17.205  25.589  14.937
58958W        W31383  38.366  28.961   3.213
58959W        W31384   9.812  23.542   4.697
58960W        W31385  32.112  12.270   1.211
58961W        W31386  38.470  34.378   3.841
58962W        W31387  41.810  11.328  11.048
58963W        W31388  34.959  23.500  10.456
58964W        W31389  20.265  28.157   1.347
58965W        W31390  24.487  12.240  12.960
58966W        W31391  21.721   9.686  12.836
58967W        W31392  41.440   0.283  10.458
58968W        W31393  27.112  32.094  13.522
58969W        W31394  13.171  19.054  14.430
58970W        W31395  23.989  21.044   3.152
58971W        W31396  12.123  21.085  11.080
58972W        W31397   8.331  38.914  12.445
58973W        W31398  32.923  19.624   1.812
58974W        W31399  20.192   8.371   3.684
58975W        W31400  19.704  41.510  11.460
58976W        W31401   7.699   5.767   1.743
58977W        W31402   5.354  23.034  12.949
58978W        W31403   2.735   3.931  11.978
58979W        W31404  30.973  16.253  10.606
58980W        W31405  40.492  14.145  14.404
58981W        W31406  43.914  40.522  12.464
58982W        W31407  31.543  41.932  12.878
58983W        W31408  33.584   4.227  12.988
58984W        W31409   2.906   3.893   1.719
58985W        W31410  11.284   6.752  12.363
58986W        W31411  29.019   8.674  13.910
58987W        W31412  35.885   2.854   2.771
58988W        W31413   7.365   3.880  13.394
58989W        W31414   4.900   8.827   0.444
58990W        W31415  14.713  32.929  13.820
58991W        W31416  23.679  44.904   1.271
58992W        W31417  32.982  14.671   2.667
58993W        W31418  20.119  28.543   2.394
58994W        W31419   3.827  25.545  12.080
58995W        W31420   5.849  10.181   2.835
58996W        W31421  35.979  40.875   3.311
58997W        W31422  35.948  42.519  12.917
58998W        W31423  25.149  16.106   3.182
58999W        W31424  15.253  11.798  14.978
59000W        W31425  30.412  18.083   0.359
59001W        W31426  35.062  39.487   3.193
59002W        W31427  41.489   9.183  14.820
59003W        W31428  23.072  10.256  10.434
59004W        W31429  40.899  43.327  10.989
59005W        W31430  20.154  19.137   3.786
59006W        W31431  38.984   8.702   3.228
59007W        W31432  24.608  37.491  14.388
59008W        W31433  10.685   9.821   2.255
59009W        W31434  16.308  10.840   1.412
59010W        W31435  20.543  29.153  11.456
59011W        W31436  42.427  21.160   2.860
59012W        W31437  22.201   7.811  11.996
59013W        W31438  19.709  40.331   3.774
59014W        W31439  14.605  40.016   4.132
59015W        W31440  10.777  17.709  13.920
59016W        W31441  25.094  11.654   2.220
59017W        W31442   7.858  15.640  13.830
59018W        W31443  43.014  23.156   0.950
59019W        W31444  29.105  36.938  11.523
59020W        W31445  36.009  10.698  11.079
59021W        W31446  21.050  24.124   1.771
59022W        W31447  15.150  40.438   0.428
59023W        W31448   5.709  22.669  10.444
59024W        W31449  42.503  19.049   9.956
59025W        W31450  37.531  38.370  12.953
59026W        W31451   1.347  44.312   9.985
59027W        W31452  12.729  31.967   0.794
59028W        W31453  11.372  44.956   0.875
59029W        W31454  17.145  40.398  13.017
59030W        W31455  27.691  12.733  12.874
59031W        W31456  14.286   5.335   0.896
59032W        W31457  31.573  40.976   5.236
59033W        W31458  35.568  41.912   2.823
59034W        W31459   5.848  41.301   0.746
59035W        W31460  17.745  33.967   9.445
59036W        W31461  37.910  34.479  14.378
59037W        W31462   8.205  38.559   4.350
59038W        W31463  13.813  18.713   0.747
59039W        W31464   1.257  29.508   4.635
59040W        W31465   3.241  40.445  12.961
59041W        W31466  23.211  10.297   3.663
59042W        W31467  16.741  38.348  10.898
59043W        W31468  10.662  22.163  10.532
59044W        W31469  40.893  22.580  10.023
59045W        W31470  18.177  29.118  13.826
59046W        W31471   0.777  20.180  12.954
59047W        W31472  31.591  11.733  12.011
59048W        W31473  36.926  33.603  11.010
59049W        W31474  31.138  43.314   0.438
59050W        W31475  27.503  39.863   3.834
59051W        W31476   1.257   8.328   2.684
59052W        W31477  17.073  13.646  11.475
59053W        W31478  34.105  15.633   1.715
59054W        W31479  35.945  28.167  14.303
59055W        W31480   4.934  12.247   2.814
59056W        W31481   7.312  29.068  10.927
59057W        W31482  36.348   8.842  11.117
59058W        W31483  15.632  13.833  10.985
59059W        W31484  37.490  37.835   0.820
59060W        W31485   7.273   1.951  11.908
59061W        W31486  36.888  14.287   3.266
59062W        W31487   6.268   2.813   4.633
59063W        W31488  37.864  11.833  12.941
59064W        W31489  36.466  23.136   3.660
59065W        W31490  19.750  15.697  13.491
59066W        W31491   6.191  24.696   1.712
59067W        W31492  43.824  15.682   4.295
59068W        W31493  22.605  17.561  13.891
59069W        W31494  34.380  36.917   4.601
59070W        W31495  29.618   2.315   0.257
59071W        W31496   1.759  10.746   0.731
59072W        W31497  30.628  14.212  12.920
59073W        W31498  21.742  40.477   2.814
59074W        W31499  26.542  31.529   0.819
59075W        W31500  31.520  12.719  10.978
59076W        W31501   6.375   3.431   0.376
59077W        W31502  18.185  19.719   4.761
59078W        W31503  19.758  44.880  12.933
59079W        W31504   6.420  32.470   1.903
59080W        W31505  26.466  32.048   1.442
59081W        W31506   2.835  36.460   1.333
59082W        W31507  30.997  19.198   0.803
59083W        W31508   6.407  42.880  12.525
59084W        W31509  16.103  37.025  13.932
59085W        W31510   6.270   2.812  14.032
59086W        W31511  16.662  22.592   3.220
59087W        W31512  40.035  15.311  12.424
59088W        W31513   1.330  41.827   2.246
59089W        W31514  43.904  31.543   5.777
59090W        W31515  33.073  34.434  10.455
59091W        W31516  14.220  37.891   1.436
59092W        W31517  15.641  11.799   1.424
59093W        W31518  18.737  21.607   1.877
59094W        W31519  27.678   1.436   2.363
59095W        W31520  35.434   6.790  10.042
59096W        W31521   6.294  40.940  11.451
59097W        W31522  41.973  11.779  10.421
59098W        W31523  18.234  17.631  10.499
59099W        W31524  26.465   3.871   2.705
59100W        W31525  32.598  20.201   0.780
59101W        W31526  44.383  15.113   4.169
59102W        W31527  41.018  40.915  13.972
59103W        W31528  39.060  21.219  13.541
59104W        W31529  43.926   4.912  10.585
59105W        W31530  20.161  26.972   3.801
59106W        W31531  16.128  18.740   1.256
59107W        W31532   7.685  16.713  11.878
59108W        W31533  15.812   8.206  13.342
59109W        W31534  16.637  34.872   2.274
59110W        W31535  28.106  32.455  10.505
59111W        W31536  20.659  21.696   4.674
59112W        W31537  15.105  43.494  14.275
59113W        W31538  34.538  24.637   4.206
59114W        W31539  10.795  16.095   2.392
59115W        W31540  15.610  29.147  14.454
59116W        W31541  28.512  18.080  11.079
59117W        W31542  41.918   3.948  10.463
59118W        W31543  39.016  26.102  13.972
59119W        W31544  20.598   8.859   1.920
59120W        W31545  31.970   4.355  14.458
59121W        W31546   1.324  16.093   4.337
59122W        W31547  23.144  35.906   3.255
59123W        W31548  16.130  16.248   3.253
59124W        W31549   9.357  37.533  14.419
59125W        W31550  35.603   2.229   1.873
59126W        W31551  40.854   1.959  14.989
59127W        W31552  11.181  25.489  12.995
59128W        W31553  26.477  11.663  13.481
59129W        W31554  18.124  36.432  10.600
59130W        W31555   5.866  12.200  14.976
59131W        W31556  42.432  18.126   0.479
59132W        W31557  29.519   3.414   3.201
59133W        W31558   8.164  39.337   0.758
59134W        W31559  38.028  43.859   1.358
59135W        W31560  15.636  19.153   4.158
59136W        W31561   5.894  29.569  13.936
59137W        W31562   5.273  29.547  11.025
59138W        W31563  23.111  14.646   1.424
59139W        W31564  11.623  40.847  14.324
59140W        W31565  19.736  39.974  13.861
59141W        W31566   3.254  33.049   3.364
59142W        W31567  16.722  18.595   4.785
59143W        W31568  40.315  43.378   1.373
59144W        W31569  17.670  12.851   4.335
59145W        W31570  24.993  27.522  14.997
59146W        W31571  27.072   1.758  13.455
59147W        W31572  14.642  36.454   1.391
59148W        W31573  34.612  26.647   3.282
59149W        W31574  28.634  28.539   3.645
59150W        W31575  23.221   4.274  10.644
59151W        W31576  15.581   2.848   4.813
59152W        W31577   8.870  44.932  14.021
59153W        W31578  36.574   8.803  11.399
59154W        W31579  18.190  23.502   2.316
59155W        W31580  38.355   7.204   0.934
59156W        W31581  21.103  44.420  10.522
59157W        W31582  35.874   0.367  11.979
59158W        W31583  39.015  41.305   2.329
59159W        W31584  19.768   9.343   0.917
59160W        W31585  39.400  12.201   0.774
59161W        W31586  12.844  43.788  14.962
59162W        W31587   0.399   4.415  14.291
59163W        W31588  36.070  24.007   1.750
59164W        W31589  19.066   6.195   0.864
59165W        W31590   5.345  18.591  11.431
59166W        W31591   0.757  38.559  13.498
59167W        W31592  28.987  17.298  12.507
59168W        W31593  31.150  17.738   3.216
59169W        W31594  41.454   0.834  13.012
59170W        W31595  39.373  43.936   2.684
59171W        W31596  20.090  41.454   2.233
59172W        W31597  44.460  11.258   9.961
59173W        W31598  13.749  12.765   3.795
59174W        W31599  27.687  35.984   0.324
59175W        W31600  13.636  44.801  11.934
59176W        W31601  15.211  27.488   0.845
59177W        W31602  15.154  10.878   4.650
59178W        W31603  10.223   9.166   2.287
59179W        W31604  38.921  11.833   5.159
59180W        W31605  12.167  29.607  10.967
59181W        W31606   5.265  21.177   2.715
59182W        W31607   9.291  12.682  12.449
59183W        W31608   8.673  43.344  14.470
59184W        W31609  40.053  11.133  14.325
59185W        W31610  33.421  36.573   3.835
59186W        W31611   3.728  19.718   1.695
59187W        W31612  34.449  32.452  12.409
59188W        W31613  42.517  33.096   1.764
59189W        W31614  35.884  15.184  10.917
59190W        W31615  35.488   6.277  14.431
59191W        W31616  31.491  28.117   3.640
59192W        W31617   2.899  38.041  14.944
59193W        W31618  34.048  39.325   3.229
59194W        W31619  22.014  39.825  10.972
59195W        W31620  44.815  13.118   4.283
59196W        W31621  32.934  27.539   3.802
59197W        W31622   7.813   5.368  14.804
59198W        W31623  16.599  37.984  10.975
59199W        W31624   6.264  25.144   3.156
59200W        W31625   1.790  12.766   2.881
59201W        W31626   1.971   0.482  14.802
59202W        W31627  23.717  41.809   3.331
59203W        W31628  41.029  20.523  14.810
59204W        W31629  43.275  39.457  11.980
59205W        W31630  16.116  31.568  13.978
59206W        W31631  37.028  17.170  11.896
59207W        W31632  30.606  24.658  11.947
59208W        W31633  38.378  19.093   0.843
59209W        W31634  44.916  23.705  11.529
59210W        W31635  38.537   6.354   0.301
59211W        W31636  20.677  26.496   5.226
59212W        W31637   5.285  14.137  14.926
59213W        W31638   0.332  17.265   0.860
59214W        W31639  17.271   6.184  10.514
59215W        W31640  27.087   8.201  11.540
59216W        W31641  31.496  15.794   0.384
59217W        W31642  15.149  38.567   3.656
59218W        W31643  16.804   9.885  12.994
59219W        W31644  25.522  41.885   4.214
59220W        W31645  15.277  18.627   4.670
59221W        W31646  41.872   3.241   1.895
59222W        W31647   7.405  19.777  12.942
59223W        W31648   6.723   6.285   1.838
59224W        W31649  20.764  40.379   3.671
59225W        W31650   2.405   2.263  14.357
59226W        W31651  22.702  19.732  12.926
59227W        W31652  31.046  13.309   1.705
59228W        W31653   4.855  17.305  11.441
59229W        W31654  30.113   7.794   1.886
59230W        W31655  27.576  25.631  10.643
59231W        W31656  37.904  35.568  13.370
59232W        W31657  34.551   8.739  11.938
59233W        W31658  37.915  40.479   4.176
59234W        W31659  43.819   8.666   2.270
59235W        W31660  34.047  10.738   1.243
59236W        W31661  27.185   9.321  10.902
59237W        W31662   8.660   9.706  10.510
59238W        W31663  12.211  10.758  13.537
59239W        W31664   4.811   1.963   1.219
59240W        W31665  25.034  13.737   2.387
59241W        W31666  30.913  32.082   0.951
59242W        W31667  29.130   8.778   0.964
59243W        W31668  31.042  35.426  10.933
59244W        W31669  37.840   4.807  14.792
59245W        W31670   1.452  31.977  13.040
59246W        W31671   3.865  14.812  12.470
59247W        W31672  29.511  34.867   0.482
59248W        W31673   0.380  18.111   1.853
59249W        W31674  22.153  19.211   1.257
59250W        W31675  35.019  21.075   3.314
59251W        W31676  26.690   5.276  12.930
59252W        W31677  26.184   2.466  12.091
59253W        W31678  12.305  29.064  12.055
59254W        W31679  11.147  20.043  12.832
59255W        W31680  35.089  22.206   2.331
59256W        W31681  37.473  24.627  14.917
59257W        W31682  29.665  18.645   3.278
59258W        W31683   8.716   2.374   3.354
59259W        W31684  35.862  13.844   1.446
59260W        W31685   4.266  30.049   3.307
59261W        W31686  29.592  19.093   4.621
59262W        W31687  40.334  10.154   1.730
59263W        W31688  21.196  15.137  11.992
59264W        W31689  40.421   0.314  10.505
59265W        W31690  38.494  24.688  11.490
59266W        W31691  16.268  11.787   3.385
59267W        W31692  30.492   8.360  11.396
59268W        W31693  14.593  14.698  12.355
59269W        W31694  20.239  32.121  10.483
59270W        W31695  38.391  17.134   1.360
59271W        W31696  12.270   5.423  12.827
59272W        W31697   6.781  36.986  10.609
59273W        W31698  39.025  35.520  11.105
59274W        W31699  16.712   4.364  12.844
59275W        W31700  31.153   3.417   1.753
59276W        W31701   4.423  10.637  11.023
59277W        W31702   8.865  21.209   4.236
59278W        W31703  24.085  18.172   5.257
59279W        W31704  37.851  21.165   0.305
59280W        W31705  40.837  10.197  14.997
59281W        W31706  16.683   9.218   3.722
59282W        W31707  10.320  33.991   2.332
59283W        W31708  29.169  10.715  14.947
59284W        W31709  12.763  17.097  12.988
59285W        W31710  15.703   1.763   0.268
59286W        W31711   9.647  39.943   4.186
59287W        W31712  15.279   2.928  11.384
59288W        W31713  28.119  17.237   9.966
59289W        W31714  20.240  19.607  10.083
59290W        W31715  26.516  15.616  10.560
59291W        W31716  39.448  13.252   3.747
59292W        W31717   0.938   2.879   1.696
59293W        W31718  22.149   0.781   0.273
59294W        W31719  37.969   4.406  13.478
59295W        W31720  19.257  15.726   3.758
59296W        W31721  25.093  21.737  10.614
59297W        W31722  40.864  18.053   1.701
59298W        W31723  28.566  17.093  11.044
59299W        W31724  41.885   6.237   0.284
59300W        W31725  35.874   8.301  12.362
59301W        W31726   6.308  20.586   4.740
59302W        W31727  25.685   0.755  12.362
59303W        W31728  32.430  16.091  11.016
59304W        W31729   8.833  34.483  12.963
59305W        W31730  41.530  24.618   0.931
59306W        W31731   8.666  13.180   1.769
59307W        W31732  17.789  21.742  13.964
59308W        W31733  33.877  12.857   2.392
59309W        W31734  42.316  29.628  11.582
59310W        W31735  10.340  12.331   4.786
59311W        W31736  36.992  35.087   3.705
59312W        W31737   2.799  17.205   1.426
59313W        W31738  26.009  21.535   3.179
59314W        W31739  36.524   2.921   2.734
59315W        W31740   3.940  35.995   1.792
59316W        W31741  27.172  18.078  11.563
59317W        W31742  43.462   0.427  12.034
59318W        W31743  15.739   5.758   3.674
59319W        W31744  29.653  11.269   1.840
59320W        W31745  22.068   3.344   0.870
59321W        W31746  17.115  20.130   0.938
59322W        W31747   7.337  19.540  11.377
59323W        W31748  33.979  35.496   0.752
59324W        W31749  13.813  20.747   2.825
59325W        W31750   2.889  30.538   4.336
59326W        W31751  37.528  17.123   1.318
59327W        W31752   0.290  15.225  10.951
59328W        W31753  43.923  35.418  10.917
59329W        W31754   9.733  10.644   1.375
59330W        W31755   5.327  23.549  14.942
59331W        W31756  37.555  37.008   2.886
59332W        W31757  30.498  38.476   2.877
59333W        W31758   4.343  33.624   0.432
59334W        W31759  21.082  17.569  10.996
59335W        W31760  25.520   4.397   0.246
59336W        W31761   2.296   8.763   3.206
59337W        W31762  36.480  25.068   1.298
59338W        W31763  37.045  37.948   0.438
59339W        W31764  23.529  14.144   2.221
59340W        W31765  15.252  23.697  14.949
59341W        W31766  27.549   6.229   0.329
59342W        W31767  31.633  13.733  11.091
59343W        W31768  42.788  27.043   0.753
59344W        W31769  30.129  25.681  14.352
59345W        W31770  32.445  39.931   4.161
59346W        W31771  21.623  42.791   4.312
59347W        W31772   4.342   1.835   1.773
59348W        W31773   0.857   7.767  13.969
59349W        W31774  39.539  26.063  13.052
59350W        W31775  31.963  38.534   4.695
59351W        W31776  18.762  39.490  11.857
59352W        W31777   7.215  23.632  10.890
59353W        W31778   1.392  34.056  14.772
59354W        W31779   4.727  11.303  12.089
59355W        W31780  19.602   6.343  14.322
59356W        W31781  14.647  20.551   4.162
59357W        W31782  24.098  20.605   0.259
59358W        W31783  14.182  42.921  14.323
59359W        W31784  14.275  34.055   0.887
59360W        W31785  40.377  21.747   0.288
59361W        W31786   9.745  41.043  11.470
59362W        W31787  19.188  26.513  14.450
59363W        W31788   7.846  36.347  13.926
59364W        W31789   0.452  15.608   4.756
59365W        W31790  35.536   5.705  10.569
59366W        W31791  24.710  32.079  11.606
59367W        W31792   0.939  11.781   1.751
59368W        W31793   6.328  44.809   2.894
59369W        W31794  24.724  27.094  11.031
59370W        W31795  23.115  27.445   4.143
59371W        W31796   7.849  10.374   5.106
59372W        W31797  26.621   7.222   4.833
59373W        W31798  26.996  18.070   4.214
59374W        W31799  14.299  15.623  13.321
59375W        W31800  10.278  24.497  11.388
59376W        W31801  34.562  14.309   0.318
59377W        W31802  17.671  29.550  10.471
59378W        W31803  40.909   4.921  12.962
59379W        W31804  37.047  35.434   3.865
59380W        W31805  10.143  23.698   0.344
59381W        W31806   6.844  12.165  12.390
59382W        W31807  15.608  25.188   3.855
59383W        W31808   3.396  37.397   1.243
59384W        W31809  36.444  12.820   4.274
59385W        W31810   2.763   8.670   0.801
59386W        W31811   8.263  14.678  13.520
59387W        W31812  22.051  27.483   2.197
59388W        W31813  27.991  31.411   0.947
59389W        W31814   9.784  22.244   3.362
59390W        W31815  36.403  32.894  11.501
59391W        W31816  34.935  16.798  13.932
59392W        W31817  10.794   1.802  10.479
59393W        W31818  33.498  31.085   4.616
59394W        W31819   2.272   0.397   2.862
59395W        W31820  19.216  27.981   3.716
59396W        W31821  19.652  42.285   1.841
59397W        W31822  15.806  34.515   1.371
59398W        W31823  13.610  13.216   4.638
59399W        W31824  22.545  13.696   0.295
59400W        W31825   7.333  15.120  13.852
59401W        W31826  25.475  26.468  11.093
59402W        W31827  20.676  31.106  12.870
59403W        W31828  34.870  21.757  11.445
59404W        W31829  15.604  40.412   0.822
59405W        W31830  35.378  18.169   3.164
59406W        W31831  21.530   8.887   2.901
59407W        W31832   1.838  14.273  12.858
59408W        W31833  26.188  16.270   0.772
59409W        W31834  43.329   0.397   4.219
59410W        W31835  39.544  15.122   2.308
59411W        W31836   3.909  33.475  11.985
59412W        W31837  40.393  31.067   1.935
59413W        W31838  14.650  32.542  12.044
59414W        W31839   9.787  35.364  12.905
59415W        W31840  12.301  18.178  11.895
59416W        W31841   5.782  12.762  11.941
59417W        W31842  18.691  16.181   3.224
59418W        W31843   3.753  19.151   0.318
59419W        W31844  38.068   6.222  13.840
59420W        W31845  13.299  25.561   2.849
59421W        W31846  35.546  31.453   0.406
59422W        W31847  38.380  21.672   4.636
59423W        W31848  32.458  21.545  10.470
59424W        W31849  32.929  22.140   3.265
59425W        W31850  18.072  27.585  10.413
59426W        W31851  13.244   1.759  11.565
59427W        W31852  13.311  24.081   2.349
59428W        W31853  28.490  40.815  11.039
59429W        W31854  34.458  31.986  13.439
59430W        W31855  34.060   9.219   2.680
59431W        W31856  15.141  11.694  14.031
59432W        W31857  35.972  44.987   0.446
59433W        W31858  38.966   3.407   1.696
59434W        W31859  29.491  40.901  13.914
59435W        W31860   6.243  39.522   0.322
59436W        W31861  37.990  32.965  11.380
59437W        W31862  13.149   7.751  10.604
59438W        W31863  26.185  43.423  13.525
59439W        W31864  29.636  40.845  13.475
59440W        W31865   7.413  36.918   3.274
59441W        W31866  19.135  19.779   3.255
59442W        W31867   0.785  15.777  11.954
59443W        W31868  44.383   6.263  13.317
59444W        W31869  22.704  26.015  14.911
59445W        W31870  39.469  37.968  10.608
59446W        W31871  26.174  35.092   2.771
59447W        W31872  19.601  10.734  14.473
59448W        W31873  17.238  24.982  11.401
59449W        W31874  23.621  11.770  11.984
59450W        W31875  44.340  25.042  11.491
59451W        W31876   4.362  24.990   2.760
59452W        W31877   7.339  31.101  12.539
59453W        W31878   4.917  24.098  13.810
59454W        W31879  25.559  13.157   1.840
59455W        W31880  19.116   4.331  13.351
59456W        W31881  13.786  35.874  12.993
59457W        W31882   5.783  35.067  13.962
59458W        W31883  12.767   6.243   4.751
59459W        W31884  43.772  22.079  12.003
59460W        W31885  28.458  31.422   0.378
59461W        W31886   1.744  19.709   3.246
59462W        W31887   7.785  42.525   1.232
59463W        W31888   3.395  35.033   3.767
59464W        W31889  34.460  29.441   3.645
59465W        W31890  22.739  35.035   4.197
59466W        W31891  12.284  19.564   0.932
59467W        W31892  27.617  41.808  14.870
59468W        W31893  40.409  10.803  10.933
59469W        W31894  42.464  10.754   4.722
59470W        W31895  18.693  41.355   3.641
59471W        W31896   5.811  12.632   3.757
59472W        W31897   5.879  21.205   5.302
59473W        W31898  17.682  39.051  13.804
59474W        W31899  23.104   3.290  12.578
59475W        W31900  37.054  24.184   0.949
59476W        W31901  13.313  44.295   0.936
59477W        W31902  27.042   2.314   1.912
59478W        W31903  30.466  10.842   3.262
59479W        W31904  27.080  19.252  14.334
59480W        W31905  20.126  44.410  13.931
59481W        W31906  33.963  21.705  10.434
59482W        W31907  19.737   8.352   0.790
59483W        W31908  26.970  12.680   3.642
59484W        W31909   4.399  16.294   2.869
59485W        W31910  34.550  10.247   4.316
59486W        W31911  18.788  30.976  11.390
59487W        W31912  31.620  14.287   0.468
59488W        W31913  40.423  21.662  13.485
59489W        W31914  23.539  19.173   0.859
59490W        W31915  31.040   1.335  13.996
59491W        W31916  16.616  12.822   0.920
59492W        W31917   2.731  23.732   3.718
59493W        W31918  12.668  27.596   2.722
59494W        W31919   8.843  11.705  14.479
59495W        W31920   1.256  13.239   0.434
59496W        W31921  15.692  28.102   0.829
59497W        W31922  31.925  43.473   1.820
59498W        W31923  23.240  34.966  10.464
59499W        W31924   4.307  39.916   2.785
59500W        W31925   6.208  22.035  10.480
59501W        W31926  22.625  44.875  12.482
59502W        W31927  33.127   1.337   4.803
59503W        W31928  28.547  21.635   5.601
59504W        W31929  19.538   2.906  14.479
59505W        W31930  13.337   5.263  14.780
59506W        W31931  19.624  12.258  14.028
59507W        W31932  40.981  24.573   1.419
59508W        W31933  29.039  40.523   5.306
59509W        W31934  39.536  33.586  11.087
59510W        W31935  24.047  27.573  12.096
59511W        W31936  19.557  41.424   2.303
59512W        W31937  18.154  44.924   0.847
59513W        W31938  16.734  26.593  10.157
59514W        W31939  32.095  27.651  12.501
59515W        W31940  26.133  39.516  11.942
59516W        W31941   2.426   1.843   9.960
59517W        W31942  27.601  44.006  14.816
59518W        W31943  28.147   2.373   4.729
59519W        W31944   6.756   5.382  14.381
59520W        W31945  12.316   6.393  12.500
59521W        W31946  38.426  14.258  13.458
59522W        W31947  35.087  23.590  10.978
59523W        W31948   1.757  37.969  13.057
59524W        W31949  31.510  32.958   4.351
59525W        W31950  40.444  26.163   3.795
59526W        W31951  29.577   4.406   4.202
59527W        W31952   8.189  13.813   2.709
59528W        W31953  29.438   3.892   1.893
59529W        W31954   8.203  44.820  11.985
59530W        W31955   4.767  13.684  14.493
59531W        W31956  17.734  24.214   0.388
59532W        W31957  22.045  35.073   0.271
59533W        W31958   9.299  35.104   2.327
59534W        W31959  10.648  33.058  10.409
59535W        W31960   3.275  11.243   3.689
59536W        W31961   1.330  34.094  11.447
59537W        W31962  26.058   7.900  14.510
59538W        W31963  42.284  20.711  14.412
59539W        W31964  14.214  12.258   3.851
59540W        W31965  14.793  36.040  14.808
59541W        W31966   4.312   2.418   4.728
59542W        W31967  44.435   8.378   3.785
59543W        W31968  30.499  33.476  11.597
59544W        W31969  44.877   9.660   3.864
59545W        W31970  11.662  32.493   1.901
59546W        W31971   5.821  43.849   2.334
59547W        W31972  23.179  33.890  13.406
59548W        W31973  43.939  30.621   0.815
59549W        W31974   0.907  25.072  14.914
59550W        W31975  15.299  12.766  14.958
59551W        W31976  25.012  10.345  11.856
59552W        W31977  14.689  44.428   1.355
59553W        W31978   0.975  21.030  11.440
59554W        W31979  26.678  38.017   4.735
59555W        W31980  12.670  38.481  11.506
59556W        W31981   7.216  18.708   1.278
59557W        W31982  19.745  18.181   4.236
59558W        W31983  15.107  42.835  11.387
59559W        W31984  26.118  42.862   3.649
59560W        W31985  26.702  24.067   1.211
59561W        W31986  13.798   8.900   1.826
59562W        W31987  30.430  15.208   0.274
59563W        W31988  30.588  17.657  14.827
59564W        W31989  40.324  24.194   4.132
59565W        W31990  34.543  36.576  13.885
59566W        W31991  30.108  36.965   2.193
59567W        W31992  36.038   9.381   3.308
59568W        W31993   3.858  24.703   1.776
59569W        W31994   4.383  17.149   3.811
59570W        W31995   9.293  31.973  13.830
59571W        W31996  40.807  10.257   1.785
59572W        W31997  18.050  13.333  11.865
59573W        W31998  28.002  16.749   2.878
59574W        W31999  44.810  38.952   1.763
59575W        W32000  24.500   5.246   3.209
59576W        W32001  36.868  35.085   2.748
59577W        W32002  28.483  44.499   2.368
59578W        W32003  18.224  28.997   2.288
59579W        W32004  37.505  40.892  10.584
59580W        W32005  32.406  40.360  12.837
59581W        W32006  34.573  37.959   4.147
59582W        W32007  41.466   4.208   1.431
59583W        W32008  32.087   0.934   1.345
59584W        W32009  11.173   6.221  11.004
59585W        W32010  16.655  14.121   3.347
59586W        W32011  22.247   2.453   4.143
59587W        W32012  39.461  12.683   0.749
59588W        W32013   0.856  38.838  12.988
59589W        W32014  41.488   2.823  12.578
59590W        W32015   9.345  25.182  13.885
59591W        W32016  21.131   9.205  10.419
59592W        W32017  25.201  20.250  12.519
59593W        W32018   2.945  34.407   0.812
59594W        W32019  25.658   8.321   2.772
59595W        W32020   2.870   6.705  11.573
59596W        W32021  37.875  19.662  14.512
59597W        W32022  26.458  42.395   1.394
59598W        W32023  29.153   5.866  11.565
59599W        W32024  32.026  31.443   4.241
59600W        W32025   7.908  23.086   0.354
59601W        W32026  26.994  10.811   1.405
59602W        W32027  27.091  25.158   9.929
59603W        W32028  39.026  17.196  14.447
59604W        W32029  12.676  25.479   4.669
59605W        W32030  41.418  15.673  14.792
59606W        W32031  35.910  38.829  10.408
59607W        W32032   9.837  40.337  14.499
59608W        W32033  28.084  42.398   2.356
59609W        W32034  44.279  16.084  11.011
59610W        W32035  40.917  26.137   1.387
59611W        W32036  25.559  12.361   2.323
59612W        W32037  27.173   1.428  12.978
59613W        W32038  23.520  28.617   4.293
59614W        W32039  15.181  34.494   4.617
59615W        W32040   0.784   6.340  12.961
59616W        W32041  17.647  29.604  12.827
59617W        W32042  18.585  21.260  11.565
59618W        W32043  17.211   5.385   2.219
59619W        W32044  25.203  36.970   1.738
59620W        W32045  11.813   2.755  14.382
59621W        W32046  34.038  12.835   0.950
59622W        W32047  33.985  12.615  13.453
59623W        W32048  34.484  18.719   2.715
59624W        W32049  40.813   6.415  14.935
59625W        W32050  13.659  13.783  12.434
59626W        W32051  41.011  25.037   0.967
59627W        W32052  27.570   3.927  12.064
59628W        W32053  27.074  12.162  12.510
59629W        W32054  10.199   3.245  14.294
59630W        W32055  17.661  31.952   3.659
59631W        W32056  16.219  41.369   1.267
59632W        W32057  20.155  25.713   2.844
59633W        W32058  13.155  30.027   0.407
59634W        W32059   3.410  44.883   3.656
59635W        W32060  43.990  28.571   3.781
59636W        W32061  40.347  30.139   3.230
59637W        W32062   5.817  37.860   1.330
59638W        W32063   4.280  30.453   4.178
59639W        W32064  13.805  16.310  13.309
59640W        W32065  44.800  25.207  14.832
59641W        W32066  29.625  22.162  12.500
59642W        W32067   8.373  23.545   4.328
59643W        W32068   6.186  23.517   0.876
59644W        W32069  24.206   2.440   0.899
59645W        W32070  16.283  30.039  14.018
59646W        W32071   0.850  44.484  11.092
59647W        W32072   7.731  27.599  11.397
59648W        W32073  29.529   6.737   2.269
59649W        W32074   1.391   7.307   4.753
59650W        W32075  28.115  14.204   3.731
59651W        W32076  44.282  18.287   0.430
59652W        W32077   5.212  31.937  12.047
59653W        W32078  44.795  14.304   0.416
59654W        W32079  27.551   2.459   3.857
59655W        W32080  23.534  40.035  13.869
59656W        W32081  30.093   4.418  13.473
59657W        W32082  44.886  14.223  11.032
59658W        W32083  38.905  10.771   0.326
59659W        W32084  31.923  35.567   3.337
59660W        W32085   0.414  18.692  10.578
59661W        W32086   7.772  30.144  14.991
59662W        W32087  27.066   8.405  14.467
59663W        W32088   6.241  36.350   1.319
59664W        W32089  44.475  41.847   2.899
59665W        W32090  34.005  12.215  11.514
59666W        W32091   9.333  16.194  12.982
59667W        W32092  18.101   3.233  10.072
59668W        W32093  14.293  35.031  10.981
59669W        W32094  18.281  12.151  13.849
59670W        W32095  20.066  19.174   0.393
59671W        W32096  36.504  35.455   1.349
59672W        W32097   6.908   8.660   4.241
59673W        W32098  27.587  10.717   3.310
59674W        W32099  25.492  25.506   4.694
59675W        W32100  14.598  11.130  10.535
59676W        W32101   3.434  34.024   0.784
59677W        W32102  17.207   3.862  10.045
59678W        W32103   1.922  43.851   2.826
59679W        W32104  30.635   1.762  12.459
59680W        W32105  31.063  30.610   4.255
59681W        W32106  11.266   9.331   1.428
59682W        W32107  32.038  28.003   3.800
59683W        W32108   0.429   1.408   3.271
59684W        W32109   9.342   1.379  11.952
59685W        W32110   9.829   9.244   3.726
59686W        W32111   5.810  31.131   3.736
59687W        W32112  14.629  30.524  13.529
59688W        W32113   2.304   9.354   0.967
59689W        W32114   1.974  25.477  10.950
59690W        W32115  24.198  43.508   4.696
59691W        W32116  39.459  44.335  14.362
59692W        W32117  18.141  30.085  14.784
59693W        W32118  32.024  21.115  11.938
59694W        W32119  31.906   5.260   3.675
59695W        W32120   5.802  40.940   2.286
59696W        W32121  31.636  23.703  12.019
59697W        W32122  18.692  38.028   0.759
59698W        W32123  16.140  14.704  10.936
59699W        W32124  19.662   3.916   4.141
59700W        W32125  43.850   1.880   4.622
59701W        W32126   7.880   5.300  13.378
59702W        W32127  12.852   4.719  10.508
59703W        W32128  28.602  34.508  11.000
59704W        W32129  22.164   6.704  13.517
59705W        W32130  44.774  30.952  11.512
59706W        W32131   9.761   7.908   3.367
59707W        W32132  14.598   9.775   3.650
59708W        W32133  32.587  10.830   2.249
59709W        W32134  41.799  37.530  14.971
59710W        W32135  29.997   8.253  11.020
59711W        W32136  28.013  12.692   4.725
59712W        W32137  32.996  15.229  14.301
59713W        W32138  22.664  30.967  14.325
59714W        W32139  37.501  12.144  11.001
59715W        W32140  10.819  24.529   3.376
59716W        W32141   3.722  37.384  13.984
59717W        W32142  26.012   4.900   4.800
59718W        W32143  34.504  39.989   2.731
59719W        W32144  35.107  32.536  11.603
59720W        W32145  23.208  18.231   4.190
59721W        W32146  11.816   9.223   1.890
59722W        W32147  34.404  19.272   0.846
59723W        W32148   8.699  37.370  10.148
59724W        W32149   2.942  20.235  10.643
59725W        W32150  10.329  16.199  14.512
59726W        W32151  19.217  38.546  11.952
59727W        W32152  34.556  44.495   4.115
59728W        W32153  35.005  42.807   2.874
59729W        W32154  36.382  27.952  13.394
59730W        W32155  31.486  16.576   1.360
59731W        W32156   9.853  30.497  13.064
59732W        W32157   2.338   5.825  14.759
59733W        W32158   6.710   9.359   2.805
59734W        W32159  40.511  14.216   1.429
59735W        W32160  24.049   8.227  12.436
59736W        W32161  44.271  40.421  11.006
59737W        W32162  39.902   0.906   0.276
59738W        W32163  23.695   7.674  13.921
59739W        W32164  26.699   5.796  14.904
59740W        W32165   9.323  14.749  11.864
59741W        W32166   3.304   9.871  11.079
59742W        W32167  42.526  15.679   4.767
59743W        W32168  23.604  11.170   3.704
59744W        W32169   3.922  36.882   0.801
59745W        W32170  21.264  38.352   3.768
59746W        W32171  28.949  10.219  14.774
59747W        W32172  44.912   7.298   2.364
59748W        W32173  43.505  29.139  14.949
59749W        W32174  34.052  39.501  10.981
59750W        W32175  17.247  41.449   2.791
59751W        W32176   7.707  42.521  12.943
59752W        W32177  21.110  34.038   4.118
59753W        W32178   8.387  19.072  13.907
59754W        W32179  18.243  26.461   4.292
59755W        W32180  10.685  16.115   1.397
59756W        W32181  43.459  40.381  10.086
59757W        W32182  37.554  17.600   3.287
59758W        W32183  40.837   4.329   0.816
59759W        W32184  16.120  41.430  10.537
59760W        W32185   1.868  37.582   4.343
59761W        W32186   0.942  18.699  10.548
59762W        W32187  27.001  38.846  10.005
59763W        W32188  36.492  14.591  11.119
59764W        W32189   3.441  28.542  10.636
59765W        W32190  22.162  13.256  12.920
59766W        W32191   8.742   4.255  10.909
59767W        W32192  29.661  38.958  10.135
59768W        W32193  20.198   0.843  13.857
59769W        W32194  31.119  28.054   1.847
59770W        W32195   0.967  44.905  12.964
59771W        W32196  32.471   7.174  14.893
59772W        W32197  40.981  42.775  11.482
59773W        W32198  26.549  21.249  10.627
59774W        W32199   5.892   3.374  14.463
59775W        W32200  32.002  18.051  12.094
59776W        W32201  33.541   5.267   1.404
59777W        W32202  20.755   9.812   4.829
59778W        W32203  20.534  37.356   4.220
59779W        W32204  23.047  36.089  12.490
59780W        W32205  27.091  25.032  10.990
59781W        W32206  24.051  18.744   0.460
59782W        W32207  18.160   1.969  13.040
59783W        W32208  15.653   2.881  10.889
59784W        W32209  35.029   9.682  13.326
59785W        W32210  44.757  33.983  11.894
59786W        W32211  33.430   0.339   1.285
59787W        W32212   8.727  33.618  12.890
59788W        W32213  28.013  19.707   2.720
59789W        W32214  25.590  42.463   3.233
59790W        W32215   1.951   4.836   3.706
59791W        W32216  15.272  11.792  11.587
59792W        W32217   6.371  34.522  12.410
59793W        W32218  22.078  36.568   2.698
59794W        W32219  41.932   0.332  13.504
59795W        W32220   2.826  19.118  13.877
59796W        W32221  29.481  31.414   3.768
59797W        W32222  35.007   4.861   3.833
59798W        W32223  27.981  12.123  13.464
59799W        W32224  36.024  27.061   0.437
59800W        W32225  38.899   2.917   2.333
59801W        W32226  22.584  38.543  12.352
59802W        W32227  31.912  17.136  13.940
59803W        W32228  11.753  14.613   1.254
59804W        W32229  24.665  30.586  12.846
59805W        W32230  27.584  39.946   9.552
59806W        W32231   4.409  10.209  14.436
59807W        W32232  29.503  28.605  12.036
59808W        W32233  18.657  14.703  11.004
59809W        W32234  18.141  23.492   3.793
59810W        W32235  38.021  12.850   2.883
59811W        W32236  44.300  42.493  13.465
59812W        W32237  13.644  23.668   4.632
59813W        W32238   9.264  43.421   4.775
59814W        W32239  13.271  28.587  12.570
59815W        W32240  25.099  30.486   0.884
59816W        W32241  15.185  31.067   4.678
59817W        W32242  28.490  38.526   5.191
59818W        W32243  16.795  10.225   2.406
59819W        W32244   2.372  34.377  12.078
59820W        W32245  34.478  22.212   4.752
59821W        W32246   0.384  18.722   3.796
59822W        W32247   7.750   0.807   5.095
59823W        W32248  32.053  18.293  12.420
59824W        W32249  10.313  28.122  12.559
59825W        W32250   2.734  29.619   0.944
59826W        W32251   6.257  22.685  13.954
59827W        W32252  10.281  38.529   4.349
59828W        W32253  33.066   6.230   3.326
59829W        W32254  43.332   0.447  10.907
59830W        W32255   9.800  21.256   1.268
59831W        W32256  35.593   2.780   3.296
59832W        W32257  24.984   8.181   0.377
59833W        W32258  21.120  24.108   1.333
59834W        W32259  36.965  29.474  14.508
59835W        W32260  20.100  18.152  10.480
59836W        W32261  41.039  41.508  11.482
59837W        W32262  43.408  18.575   4.249
59838W        W32263  20.717   3.277   0.372
59839W        W32264  29.016  30.607  13.455
59840W        W32265  27.588  13.820   2.852
59841W        W32266  36.989  20.163  12.051
59842W        W32267  43.323  26.149   2.375
59843W        W32268  22.521  13.229   4.242
59844W        W32269   1.893  32.081  13.836
59845W        W32270   9.176  39.987  13.019
59846W        W32271  42.962  43.278   0.951
59847W        W32272   4.889   6.860  13.535
59848W        W32273  17.248  12.831  11.481
59849W        W32274  27.119  13.192   0.901
59850W        W32275   3.398  36.873  11.907
59851W        W32276  34.108   4.235  13.833
59852W        W32277   8.326  13.163   0.907
59853W        W32278  11.186  27.530  14.303
59854W        W32279  15.724  39.442  14.288
59855W        W32280  12.225  29.136   1.742
59856W        W32281  17.301  17.682   2.277
59857W        W32282  24.507  20.086   2.389
59858W        W32283  36.500   1.440   4.139
59859W        W32284  13.776   5.256   9.587
59860W        W32285  13.144  30.125   1.371
59861W        W32286  12.633  44.338   3.807
59862W        W32287  27.196  18.293   4.720
59863W        W32288   0.257  30.586  13.025
59864W        W32289   3.279  25.643  11.099
59865W        W32290   5.830  12.680  14.318
59866W        W32291   2.898   7.743  14.003
59867W        W32292  36.035  16.673  14.488
59868W        W32293  40.827  40.339  12.886
59869W        W32294  37.494  23.166  10.518
59870W        W32295  12.173   2.269   1.865
59871W        W32296   7.236  14.785  10.521
59872W        W32297  28.149  38.866  10.065
59873W        W32298  20.065   6.189   2.889
59874W        W32299  25.648   1.914  14.441
59875W        W32300  22.110  32.918  14.507
59876W        W32301  40.875  20.240   2.665
59877W        W32302  27.177   9.855  11.102
59878W        W32303  25.078  31.069   4.754
59879W        W32304  20.733  30.648   1.375
59880W        W32305  24.110  44.321   2.313
59881W        W32306  17.249  12.671   1.813
59882W        W32307  40.403  30.581   1.279
59883W        W32308   7.776  28.077  11.477
59884W        W32309  13.172   9.846  14.324
59885W        W32310  29.982   4.261   3.729
59886W        W32311  22.617  41.798  14.405
59887W        W32312  10.214  31.590   0.813
59888W        W32313   2.422  39.962   4.837
59889W        W32314  35.460  26.002   0.788
59890W        W32315  25.469   4.789  12.093
59891W        W32316  16.099  17.230  12.052
59892W        W32317  13.277  34.592  10.093
59893W        W32318  39.029  25.977   1.739
59894W        W32319   4.302  43.356  11.964
59895W        W32320  43.795  35.599  14.767
59896W        W32321   9.835  11.220   0.735
59897W        W32322  19.215  35.453  11.420
59898W        W32323  28.185  42.971   1.868
59899W        W32324  16.649  18.083  11.568
59900W        W32325   5.889  39.480  13.501
59901W        W32326  19.248  26.182   2.877
59902W        W32327  11.636   8.802  11.972
59903W        W32328   2.336  41.034  10.534
59904W        W32329   8.737   7.348  12.020
59905W        W32330  35.393  32.499  11.964
59906W        W32331   2.303  38.028  11.608
59907W        W32332  40.840  21.642  13.911
59908W        W32333   4.737   8.293  10.552
59909W        W32334   9.830  19.242  13.346
59910W        W32335  19.703  17.678   1.865
59911W        W32336  16.225  44.291   3.219
59912W        W32337  26.488  20.235  11.863
59913W        W32338   4.404  33.624  13.464
59914W        W32339  38.446  32.480  10.887
59915W        W32340  33.903   9.712  12.437
59916W        W32341   5.230  35.010   4.289
59917W        W32342  22.630   1.410  10.123
59918W        W32343  33.580   2.443  11.409
59919W        W32344   7.729  30.151  11.876
59920W        W32345  31.977  27.108   1.887
59921W        W32346   8.721  43.468  11.121
59922W        W32347  13.318   5.426   3.807
59923W        W32348   0.252  14.805  13.374
59924W        W32349   6.241  15.144   3.229
59925W        W32350  19.197  12.258   2.415
59926W        W32351  37.532  40.333   0.741
59927W        W32352  34.403  15.741  14.418
59928W        W32353  31.069  32.139   0.405
59929W        W32354  38.493  26.997  12.836
59930W        W32355  38.480  17.216  12.994
59931W        W32356  38.935  39.850  10.114
59932W        W32357   8.656  17.149  12.390
59933W        W32358  22.531   7.296   5.292
59934W        W32359  15.309  19.772  12.868
59935W        W32360  30.452  18.294  13.972
59936W        W32361  22.645   8.805  12.853
59937W        W32362   0.258  30.441   1.904
59938W        W32363  14.695   9.769  14.999
59939W        W32364  12.293  30.447  12.054
59940W        W32365  30.927   3.781  14.988
59941W        W32366   6.688  16.275  14.938
59942W        W32367  29.129   7.339   0.355
59943W        W32368   3.790  41.910   0.331
59944W        W32369   6.377  25.174   5.306
59945W        W32370  28.128  24.999  12.854
59946W        W32371   7.722  44.978  14.766
59947W        W32372  34.089  11.373   2.302
59948W        W32373   7.849  21.654  12.916
59949W        W32374   5.830  33.546  10.501
59950W        W32375  29.020  44.962  14.932
59951W        W32376  30.540  18.219   0.817
59952W        W32377   6.251  30.019   4.691
59953W        W32378  22.696  25.547  13.894
59954W        W32379  13.780  11.314   3.171
59955W        W32380  10.238  18.763  14.320
59956W        W32381   9.734  25.492   3.146
59957W        W32382  40.916  21.030   0.306
59958W        W32383  35.577  28.552   0.963
59959W        W32384  33.104  32.002  11.475
59960W        W32385  20.046  38.060   1.851
59961W        W32386  29.024   5.384  14.501
59962W        W32387  13.163   5.870   3.184
59963W        W32388  19.164  35.598  14.803
59964W        W32389  29.103  42.355  10.161
59965W        W32390  32.584   9.874   4.323
59966W        W32391  32.607  17.739  13.334
59967W        W32392  38.054  28.663   1.869
59968W        W32393  43.808  15.191  11.900
59969W        W32394   7.709  38.832   0.441
59970W        W32395  39.485  31.979   3.649
59971W        W32396   8.402   9.277   1.751
59972W        W32397  26.062   3.447   0.796
59973W        W32398  33.130  15.083   4.744
59974W        W32399  31.405  17.180  10.893
59975W        W32400   0.356  21.544   0.923
59976W        W32401  34.570  17.282  12.889
59977W        W32402  43.867  29.124   4.601
59978W        W32403   9.179  35.943  10.502
59979W        W32404  18.241   2.871   1.346
59980W        W32405  21.618  31.606  11.908
59981W        W32406  29.056  18.762  12.553
59982W        W32407  17.777  16.086  13.535
59983W        W32408  21.733  16.220   0.931
59984W        W32409   9.347   3.823  12.088
59985W        W32410  34.611  20.628   3.297
59986W        W32411  23.581  39.883   1.751
59987W        W32412  32.491  23.512   0.790
59988W        W32413  41.503  26.514  10.548
59989W        W32414  36.538  22.104  14.982
59990W        W32415  28.109  25.684  11.047
59991W        W32416  40.494  22.523  14.890
59992W        W32417  38.979  35.438  14.850
59993W        W32418  28.586   9.698  10.916
59994W        W32419  27.174  31.442  10.147
59995W        W32420  44.872  32.487  14.913
59996W        W32421   5.369  26.970   2.797
59997W        W32422   6.792  32.595   0.352
59998W        W32423   0.304  30.607   1.358
59999W        W32424  24.995   0.919   3.640
60000W        W32425  10.733  12.357   0.374
60001W        W32426  38.839  34.927   0.790
60002W        W32427  12.258   3.775  11.866
60003W        W32428   0.435  19.596  12.471
60004W        W32429  25.168  35.882   2.258
60005W        W32430  41.815  11.795   0.871
60006W        W32431  43.364  26.157   3.194
60007W        W32432  22.059   6.281  12.830
60008W        W32433  28.959  19.130  13.841
60009W        W32434   0.338  15.629   0.730
60010W        W32435  32.507  30.025  12.978
60011W        W32436  25.628  38.878   4.796
60012W        W32437  27.546  33.932  13.793
60013W        W32438  44.993  31.463   4.681
60014W        W32439  40.865  40.917   3.332
60015W        W32440  41.441  11.704   4.825
60016W        W32441  39.808  35.882   2.781
60017W        W32442  39.366  28.020   0.846
60018W        W32443   4.233   8.742   1.864
60019W        W32444  28.515  41.838  12.069
60020W        W32445   5.246   1.904   1.315
60021W        W32446  29.575  15.307  14.299
60022W        W32447  28.541  14.676   1.754
60023W        W32448  14.152  35.898   3.696
60024W        W32449  43.378  36.998   4.687
60025W        W32450  20.142  29.979  13.887
60026W        W32451   8.881  40.039  12.095
60027W        W32452  30.567  10.299  12.888
60028W        W32453  23.186  27.036  14.306
60029W        W32454   9.337  22.133  13.911
60030W        W32455  12.671  42.838   0.829
60031W        W32456   4.415   7.405   0.760
60032W        W32457  14.640  37.494  11.490
60033W        W32458  25.601  12.661  13.840
60034W        W32459  10.842  35.527   2.353
60035W        W32460  16.758   7.692   4.664
60036W        W32461   8.401  39.350  13.400
60037W        W32462  21.229  31.538   2.318
60038W        W32463  33.399  13.620  14.018
60039W        W32464  44.387   0.286   0.464
60040W        W32465  10.274  35.581   0.775
60041W        W32466  14.624  22.241   0.963
60042W        W32467  34.515  32.544   2.834
60043W        W32468   7.288  36.875  10.609
60044W        W32469   0.921  17.087  10.903
60045W        W32470  10.786   3.334  11.885
60046W        W32471  44.456  44.260   0.400
60047W        W32472  27.073  20.241  13.945
60048W        W32473  42.389  38.431   2.741
60049W        W32474  14.312  44.297   1.865
60050W        W32475  42.951  25.084  10.548
60051W        W32476  35.060  24.130  10.545
60052W        W32477  41.942   1.907   2.222
60053W        W32478  42.801   2.919   2.782
60054W        W32479  42.979  41.902   3.780
60055W        W32480  25.158   2.906   2.787
60056W        W32481  40.890  38.018   4.120
60057W        W32482  34.998  26.126  12.400
60058W        W32483  34.504  15.097  12.355
60059W        W32484  41.042  31.464   0.422
60060W        W32485  21.110  42.375   1.274
60061W        W32486  36.586  38.881   1.275
60062W        W32487  15.740  27.007  14.839
60063W        W32488  29.496  15.289  14.910
60064W        W32489   9.385  11.821  11.872
60065W        W32490   7.338   1.828   1.706
60066W        W32491  23.994   1.440   1.278
60067W        W32492  16.744   9.222   4.355
60068W        W32493  11.199  13.670  11.380
60069W        W32494  42.450   0.283   2.183
60070W        W32495  26.985   8.253  10.566
60071W        W32496  20.665   6.259   1.420
60072W        W32497   7.835  35.559   4.231
60073W        W32498  30.967  27.581  13.978
60074W        W32499  33.471  10.853  11.972
60075W        W32500  13.620  41.931  12.962
60076W        W32501  10.210  23.021  10.156
60077W        W32502  23.025  25.662  12.074
60078W        W32503   7.360   8.260  14.447
60079W        W32504  19.725  32.954   4.681
60080W        W32505  44.841  27.954   3.201
60081W        W32506  14.760  18.282   0.401
60082W        W32507  12.805   2.348   4.716
60083W        W32508   7.777   0.258  13.468
60084W        W32509   4.413  35.896  14.900
60085W        W32510  14.753  15.646   4.172
60086W        W32511   2.930   5.217   2.252
60087W        W32512  10.793   4.873   2.327
60088W        W32513   9.295  25.042   3.740
60089W        W32514  40.964  28.435   3.273
60090W        W32515  20.552  14.167  12.922
60091W        W32516  29.934  13.104   1.720
60092W        W32517  34.500  34.412   1.859
60093W        W32518  43.333   5.875  14.321
60094W        W32519  24.486  42.376   3.711
60095W        W32520  18.757  15.210  14.376
60096W        W32521  31.587  14.119   2.409
60097W        W32522  31.613  34.014   0.310
60098W        W32523  10.816  19.730  11.073
60099W        W32524  33.418  10.720  14.937
60100W        W32525  17.592  21.085   2.325
60101W        W32526  13.119  28.551   0.322
60102W        W32527  26.629  17.760  14.760
60103W        W32528  20.249  40.436   4.209
60104W        W32529   0.849  41.447  12.545
60105W        W32530  19.268  37.448  13.841
60106W        W32531   7.823   2.465   1.811
60107W        W32532  39.343  14.157   3.348
60108W        W32533  23.511  23.681   3.726
60109W        W32534  31.542  21.661  12.451
60110W        W32535  29.023   0.894   3.869
60111W        W32536   5.237  36.862  13.933
60112W        W32537  23.134  37.000  11.383
60113W        W32538  37.392  44.267   0.341
60114W        W32539  42.808  39.454   4.182
60115W        W32540  27.674  11.797   1.342
60116W        W32541  27.483  37.513  14.412
60117W        W32542   3.416  39.530   3.332
60118W        W32543  11.626  21.073  14.432
60119W        W32544  39.371  29.643  14.308
60120W        W32545   4.400   5.793   3.169
60121W        W32546   4.321   7.411  13.945
60122W        W32547  36.548  10.743   2.255
60123W        W32548  36.404  20.129  13.856
60124W        W32549  25.683  34.581   0.833
60125W        W32550  42.485  33.532  13.490
60126W        W32551  17.730  15.171  11.402
60127W        W32552  30.071  20.756   3.315
60128W        W32553  23.667  23.726   1.276
60129W        W32554  39.928  26.991   0.821
60130W        W32555  40.828  24.694   2.336
60131W        W32556   6.226  36.541  12.035
60132W        W32557  24.993  20.065  13.399
60133W        W32558   5.313  25.701   0.389
60134W        W32559  34.891  19.201   0.287
60135W        W32560   0.401  44.480   2.846
60136W        W32561  34.995  23.145   3.703
60137W        W32562  35.509  35.500   3.805
60138W        W32563   2.757  17.651  10.628
60139W        W32564  43.296  38.442  14.800
60140W        W32565  19.616  34.500   1.397
60141W        W32566   8.261  15.599  10.474
60142W        W32567  20.111  40.385  10.907
60143W        W32568  30.475  17.683  11.577
60144W        W32569  33.399  16.680  11.009
60145W        W32570  26.647   5.892  10.531
60146W        W32571  19.039   1.919   3.341
60147W        W32572  17.185  41.894  11.514
60148W        W32573  12.685  41.534   0.303
60149W        W32574  10.360  17.757  10.098
60150W        W32575  18.612  18.288   0.757
60151W        W32576  23.117  18.665  10.900
60152W        W32577  34.019  27.469   1.225
60153W        W32578  24.480  33.582  14.819
60154W        W32579  16.228  38.334   4.614
60155W        W32580  21.610  21.523  13.887
60156W        W32581  41.526  13.703   2.333
60157W        W32582   0.331   5.396   3.282
60158W        W32583   5.788   2.837  14.352
60159W        W32584   8.225   7.289  10.630
60160W        W32585  24.044  36.015  14.834
60161W        W32586  16.576  25.511   3.290
60162W        W32587  35.604   0.370   0.774
60163W        W32588   9.281  23.631   0.786
60164W        W32589  13.639  41.954  13.983
60165W        W32590  11.767  15.743   1.331
60166W        W32591  24.112  17.601   3.151
60167W        W32592  23.589  27.041   1.774
60168W        W32593  31.459  29.444  11.093
60169W        W32594  11.745   5.396   1.231
60170W        W32595   8.384  40.409   1.912
60171W        W32596  12.226  12.633   2.703
60172W        W32597  43.807  32.991  13.383
60173W        W32598  43.359   1.872  13.421
60174W        W32599  35.574   5.342  13.333
60175W        W32600  27.613  17.636  13.910
60176W        W32601  22.603  21.704  12.445
60177W        W32602  36.094  17.304   4.129
60178W        W32603  25.572  30.046   2.367
60179W        W32604  18.622  14.602  14.026
60180W        W32605  30.040  33.934   4.166
60181W        W32606   0.797  20.706   1.412
60182W        W32607  42.932  21.724  14.319
60183W        W32608  26.995  12.856  11.856
60184W        W32609  44.382  43.016   2.329
60185W        W32610   9.652  15.247   1.776
60186W        W32611  37.903  35.101  10.550
60187W        W32612   6.860  25.696  12.077
60188W        W32613   4.362  12.727   1.443
60189W        W32614  17.084  12.306  14.828
60190W        W32615  32.430   9.174   1.702
60191W        W32616  37.565   8.704   3.805
60192W        W32617   7.417  40.448   2.817
60193W        W32618   9.280  14.615   2.257
60194W        W32619  31.611  32.630  11.448
60195W        W32620  34.007   8.837  14.823
60196W        W32621  38.875  20.193   2.871
60197W        W32622  19.636   9.302   2.283
60198W        W32623   7.265  11.330  14.838
60199W        W32624  40.010  12.774  11.083
60200W        W32625  13.762  41.296  12.913
60201W        W32626  18.115  26.961  11.889
60202W        W32627   5.732  41.431  14.306
60203W        W32628  37.976  39.416   3.813
60204W        W32629  32.984  28.129   4.164
60205W        W32630  40.444  18.682   0.464
60206W        W32631   2.850  13.799  11.888
60207W        W32632  26.584  20.568  12.547
60208W        W32633  30.971  19.724   1.741
60209W        W32634  22.515  28.017  10.948
60210W        W32635  19.694  12.763  13.457
60211W        W32636  24.606   7.852   3.305
60212W        W32637  44.317   0.337   3.778
60213W        W32638  39.534  33.598  13.388
60214W        W32639  20.211   6.755  11.010
60215W        W32640   8.803  13.653  13.028
60216W        W32641   7.739   4.242   1.836
60217W        W32642   8.836   3.836   4.774
60218W        W32643  22.506  30.499   2.766
60219W        W32644  38.442  23.532   4.260
60220W        W32645  40.428   8.267   0.471
60221W        W32646  37.450  27.468   3.221
60222W        W32647   0.985  22.561   1.279
60223W        W32648  24.487   4.354  12.515
60224W        W32649  40.535  28.973   4.627
60225W        W32650  16.245  21.117  11.517
60226W        W32651  17.620  36.873  12.408
60227W        W32652  37.499  42.905  14.449
60228W        W32653  25.688  25.552  10.498
60229W        W32654  35.439  28.613  14.783
60230W        W32655  18.573   4.772   0.443
60231W        W32656  41.389  43.861  11.954
60232W        W32657  19.542  19.253  13.526
60233W        W32658  31.582   8.688  14.292
60234W        W32659  25.023  31.516   5.300
60235W        W32660  42.025  38.517  13.342
60236W        W32661   5.758  28.966  14.426
60237W        W32662  34.976  23.662   3.867
60238W        W32663  39.520  41.862   0.433
60239W        W32664   4.429  26.132  13.830
60240W        W32665  20.656  31.613   0.436
60241W        W32666  33.896  23.140  14.450
60242W        W32667  13.202   9.353   0.308
60243W        W32668   3.747  19.595   0.801
60244W        W32669  16.800  29.492   2.890
60245W        W32670   1.790  22.652  13.859
60246W        W32671   3.873  28.930   3.767
60247W        W32672  41.885  38.439   1.844
60248W        W32673   4.885  18.212   1.350
60249W        W32674  22.135  37.379   0.821
60250W        W32675   8.163  27.687  14.766
60251W        W32676   2.920  29.580  13.403
60252W        W32677   8.850  11.317   3.263
60253W        W32678  37.414  27.549   0.896
60254W        W32679  36.495   0.258   3.296
60255W        W32680  16.081  18.297  14.371
60256W        W32681  28.181  22.077  12.882
60257W        W32682  17.205  34.871   4.656
60258W        W32683   9.751  30.998   1.340
60259W        W32684   2.839  21.066  11.053
60260W        W32685   3.751  40.396   2.404
60261W        W32686  19.067  10.749  13.361
60262W        W32687  12.220  13.703  10.581
60263W        W32688   2.227  40.988  11.046
60264W        W32689  19.660   0.428   2.219
60265W        W32690   1.394   8.319   0.332
60266W        W32691  44.938  34.586   9.581
60267W        W32692  13.660  17.687  12.355
60268W        W32693  28.459  19.734   1.347
60269W        W32694  24.005  25.962  13.864
60270W        W32695  30.582  28.025  14.497
60271W        W32696  29.158  18.768   1.808
60272W        W32697  40.930  36.378  12.866
60273W        W32698  17.112  43.862   0.272
60274W        W32699  15.260  27.035  11.434
60275W        W32700  19.619   7.332  13.942
60276W        W32701  13.350  17.289  10.505
60277W        W32702  40.541  43.979   3.160
60278W        W32703  40.992  25.703   3.724
60279W        W32704  14.613  42.907   1.761
60280W        W32705  10.871   0.814   1.216
60281W        W32706  36.077  25.986  13.424
60282W        W32707  42.444  35.072   2.746
60283W        W32708  35.598   4.791   0.301
60284W        W32709  32.096  40.459  13.435
60285W        W32710  37.464   1.265   3.251
60286W        W32711  17.681  38.964  14.847
60287W        W32712  21.744   0.480  13.511
60288W        W32713  27.134   5.202  14.806
60289W        W32714  39.427   7.886  14.814
60290W        W32715  18.288   9.362  10.949
60291W        W32716  33.048  14.631   3.267
60292W        W32717  13.191  31.567  11.502
60293W        W32718  14.256  12.831   0.475
60294W        W32719  10.837  21.717  11.592
60295W        W32720   3.309  15.788  14.431
60296W        W32721  44.817  11.656   0.770
60297W        W32722   6.757  11.188  11.897
60298W        W32723  14.247  28.054  13.974
60299W        W32724  10.677  37.938  10.489
60300W        W32725  10.754  23.099  13.977
60301W        W32726  26.697  38.498  12.350
60302W        W32727  13.347  30.419   4.709
60303W        W32728  14.255  24.048  11.948
60304W        W32729  39.815  38.059   4.786
60305W        W32730   5.781  17.581  12.897
60306W        W32731  13.159   9.239  14.804
60307W        W32732  40.052  21.054  10.417
60308W        W32733  32.415  16.176   3.149
60309W        W32734  24.983  26.690  14.430
60310W        W32735  29.517  23.072   5.171
60311W        W32736  11.300   5.840  14.373
60312W        W32737  20.124  28.626  11.493
60313W        W32738  29.149   1.791  11.912
60314W        W32739   0.795   1.750  11.459
60315W        W32740  20.612  22.112  10.529
60316W        W32741  11.249  38.853   1.742
60317W        W32742  11.760  24.665   4.210
60318W        W32743   5.910  18.738   4.813
60319W        W32744  34.037  10.680   3.857
60320W        W32745  42.029  20.086   5.211
60321W        W32746  32.991  13.761   3.302
60322W        W32747  42.947  25.589   2.883
60323W        W32748  14.769  12.645  12.406
60324W        W32749   4.842  26.136  14.306
60325W        W32750  28.632  10.223   1.833
60326W        W32751  22.224  32.087   0.362
60327W        W32752  19.664   8.767   2.708
60328W        W32753  13.109  30.529   4.123
60329W        W32754  37.368   5.764  11.117
60330W        W32755  25.076  42.964   4.615
60331W        W32756  43.849  36.853  14.997
60332W        W32757  13.339  31.038  13.059
60333W        W32758  11.255   4.382  12.467
60334W        W32759   8.777  16.121  14.516
60335W        W32760  44.304  32.962   1.284
60336W        W32761   5.350   7.361   1.742
60337W        W32762  30.149  27.618  14.446
60338W        W32763  39.338   1.460  14.921
60339W        W32764  39.532  16.573   4.838
60340W        W32765  30.603  42.477   3.809
60341W        W32766  33.049  21.204  12.461
60342W        W32767   9.695  24.216  10.958
60343W        W32768  18.140  11.361   3.272
60344W        W32769  40.860  26.690   1.364
60345W        W32770  44.448  37.910  13.893
60346W        W32771  43.844   2.791  12.906
60347W        W32772  23.036   1.826   3.636
60348W        W32773  34.924   7.219   3.299
60349W        W32774  20.207  14.199   1.226
60350W        W32775  34.485  13.689  10.462
60351W        W32776  20.562  17.133   3.307
60352W        W32777  41.041  36.545   0.371
60353W        W32778   6.741  20.161   0.254
60354W        W32779  29.465  35.377   1.236
60355W        W32780  18.570  40.033  13.323
60356W        W32781   5.690  28.567   1.407
60357W        W32782  34.491  28.610   1.413
60358W        W32783  12.857   4.842  14.326
60359W        W32784  37.384  14.335   3.352
60360W        W32785  32.973  21.256   0.866
60361W        W32786   0.943  27.968   3.723
60362W        W32787  25.971  15.254  12.025
60363W        W32788  38.011  31.095  14.354
60364W        W32789  11.333  35.913  10.467
60365W        W32790  33.442  38.450   0.960
60366W        W32791  24.666   3.377  11.494
60367W        W32792  36.554  18.778  12.514
60368W        W32793  17.590  32.434  13.824
60369W        W32794   4.443  38.475  12.563
60370W        W32795  28.954  15.650  11.415
60371W        W32796  40.852  10.248  13.964
60372W        W32797  42.349  33.966   2.730
60373W        W32798  41.394  43.471   2.192
60374W        W32799  14.114  27.179  14.907
60375W        W32800  43.836  43.369  11.513
60376W        W32801  30.575   6.687  12.074
60377W        W32802  17.293  13.219   1.694
60378W        W32803  42.840  26.538  10.143
60379W        W32804  36.534  28.128  11.919
60380W        W32805  40.456  44.322  12.480
60381W        W32806  30.536  21.078   1.900
60382W        W32807  43.827  43.349   2.826
60383W        W32808  41.881  32.397   1.288
60384W        W32809  27.645  24.679   2.748
60385W        W32810  19.170  11.195   3.373
60386W        W32811  23.567  35.033   2.776
60387W        W32812  39.518   1.280   0.761
60388W        W32813  43.921  12.651   1.845
60389W        W32814  20.259  35.068   4.713
60390W        W32815   6.351  30.599  12.418
60391W        W32816  16.258  26.158  10.929
60392W        W32817  11.163  43.278  12.416
60393W        W32818  19.148  42.940   1.749
60394W        W32819  34.395  42.933  10.964
60395W        W32820  39.412  36.099   4.766
60396W        W32821   5.428  16.601   1.790
60397W        W32822  12.325  21.233  12.576
60398W        W32823  32.590  38.971  13.317
60399W        W32824  10.798   9.838   3.244
60400W        W32825  25.635  20.635  12.464
60401W        W32826  37.512   4.746   4.314
60402W        W32827  31.061  34.079   3.385
60403W        W32828  35.528   6.880   1.696
60404W        W32829  10.861  35.964  13.052
60405W        W32830  35.418   8.162  12.989
60406W        W32831   3.846  24.157   0.934
60407W        W32832  42.970   9.742  12.495
60408W        W32833  29.052  14.620   0.413
60409W        W32834  40.978  17.113  14.882
60410W        W32835  10.765  22.508   9.485
60411W        W32836   7.413  13.791  13.853
60412W        W32837  25.518   6.250   2.232
60413W        W32838  12.249  38.419  11.959
60414W        W32839  33.129   0.359  14.983
60415W        W32840   5.820   1.781   0.370
60416W        W32841  18.643  29.016  13.491
60417W        W32842   2.347  31.082  10.572
60418W        W32843  27.078  31.579  12.492
60419W        W32844  29.544  37.410  14.944
60420W        W32845  18.101   2.912  14.385
60421W        W32846   4.865   8.315   2.724
60422W        W32847  41.921  36.874   3.254
60423W        W32848  43.010  32.600  10.405
60424W        W32849   9.875  43.288   0.363
60425W        W32850  29.646  29.069  11.540
60426W        W32851  30.587  29.041   1.853
60427W        W32852  11.328  22.100   3.735
60428W        W32853  33.984   9.201   1.698
60429W        W32854   7.872   0.883   0.272
60430W        W32855   2.393   4.391   1.439
60431W        W32856   9.320  32.990   0.963
60432W        W32857  16.074  42.292  11.411
60433W        W32858  28.556  30.125  14.280
60434W        W32859   1.308  31.037  11.611
60435W        W32860  27.017  42.406   2.737
60436W        W32861  43.273  14.761   1.925
60437W        W32862  43.800  38.367  11.127
60438W        W32863  15.251  30.163   0.759
60439W        W32864  26.685  26.108  11.440
60440W        W32865  34.975  37.444   2.309
60441W        W32866   5.276  12.816   4.206
60442W        W32867  35.105  39.355   1.785
60443W        W32868  29.590  28.112  12.481
60444W        W32869   7.707  25.137   4.205
60445W        W32870   5.769  13.164   1.351
60446W        W32871  38.512  32.530   0.917
60447W        W32872  12.804   9.647   0.796
60448W        W32873  26.477  34.397   2.706
60449W        W32874   7.670  36.890   0.368
60450W        W32875  10.716  28.028  11.994
60451W        W32876   0.936  17.255   3.385
60452W        W32877  36.850  42.873   3.276
60453W        W32878  28.663  15.788  12.487
60454W        W32879  22.651   8.898  10.428
60455W        W32880  27.680   1.331   4.816
60456W        W32881  15.759  14.172   2.365
60457W        W32882  41.845   6.247   1.391
60458W        W32883   4.204  34.907   0.880
60459W        W32884   1.883  22.671  11.033
60460W        W32885  41.894  34.962   2.717
60461W        W32886  32.909  19.691  11.111
60462W        W32887  18.641  12.183   3.720
60463W        W32888   0.320   0.263  10.623
60464W        W32889   4.305  44.787  12.484
60465W        W32890  42.411  16.194  14.362
60466W        W32891  35.466  43.317   4.804
60467W        W32892  33.036  37.023  13.036
60468W        W32893  10.330   9.212  10.438
60469W        W32894   4.325  41.806  13.959
60470W        W32895   0.836  42.472  12.566
60471W        W32896  41.537  25.133  13.369
60472W        W32897  38.961  31.411   2.667
60473W        W32898  18.639   3.387   2.303
60474W        W32899  35.526  32.507   2.884
60475W        W32900   3.228   3.262   4.233
60476W        W32901   1.894  19.712  13.902
60477W        W32902  20.552   7.239   1.350
60478W        W32903   3.315  37.037   3.654
60479W        W32904  16.277  34.423  12.867
60480W        W32905   2.374  37.406  12.377
60481W        W32906  29.083  44.474  11.471
60482W        W32907  17.734  23.139  11.477
60483W        W32908  14.767  27.004  10.947
60484W        W32909  41.857  12.191   3.851
60485W        W32910  41.484  27.126  11.928
60486W        W32911  22.100  42.026  14.858
60487W        W32912  23.520  14.705  13.375
60488W        W32913  14.709   0.413  12.447
60489W        W32914  28.949   4.303  12.357
60490W        W32915  39.040  19.181  10.638
60491W        W32916  24.622   8.256   4.225
60492W        W32917  26.639  11.319  10.637
60493W        W32918  39.461  22.620  13.405
60494W        W32919   5.260  30.510   4.197
60495W        W32920   3.924  29.478   2.840
60496W        W32921  25.506  36.889   4.732
60497W        W32922  29.445  18.643   4.736
60498W        W32923   0.474   4.916  14.456
60499W        W32924  25.706  15.674  14.842
60500W        W32925  26.019  43.819   3.677
60501W        W32926  25.038  31.899   4.712
60502W        W32927  33.461  31.036   2.672
60503W        W32928   9.229  34.591   1.258
60504W        W32929  21.672  25.485  12.872
60505W        W32930  19.173  33.995   1.413
60506W        W32931  19.615  37.082   2.799
60507W        W32932  34.021   5.324  14.865
60508W        W32933  13.702  33.015   1.224
60509W        W32934  30.504  39.953  13.903
60510W        W32935  38.375   2.357   2.287
60511W        W32936  44.475  33.975  11.468
60512W        W32937   0.835  36.095   0.358
60513W        W32938  44.427  25.006  10.024
60514W        W32939  26.207  37.882   4.326
60515W        W32940   2.767  23.000  13.398
60516W        W32941  26.527  31.535  10.583
60517W        W32942   2.312  32.071  10.606
60518W        W32943   4.810  43.922  12.914
60519W        W32944  17.718  44.967   4.259
60520W        W32945  23.504  19.606  13.536
60521W        W32946  29.959   0.291   0.415
60522W        W32947  44.337  35.411   3.649
60523W        W32948  19.669  27.455  10.566
60524W        W32949  10.151   0.759   2.270
60525W        W32950  22.118  41.494  12.550
60526W        W32951  16.603  44.410   1.346
60527W        W32952   1.366  31.545   4.803
60528W        W32953  18.708  20.236  10.586
60529W        W32954  16.254   4.912  11.455
60530W        W32955  41.796  15.765   0.900
60531W        W32956  13.197  27.156   4.246
60532W        W32957  30.432  28.071  13.413
60533W        W32958   3.234  25.102   4.656
60534W        W32959   5.352  23.201  11.056
60535W        W32960  36.866   4.402   3.737
60536W        W32961  33.908  31.519  10.891
60537W        W32962  25.196  14.674  12.450
60538W        W32963  22.520  23.043  10.449
60539W        W32964  44.889  38.865  14.992
60540W        W32965  11.862  30.008  12.931
60541W        W32966  36.569  17.237   4.128
60542W        W32967  29.641  19.614   9.969
60543W        W32968  29.005  38.007   2.214
60544W        W32969  23.196  10.162   2.739
60545W        W32970  11.717  39.995   2.879
60546W        W32971  34.034   9.225  13.867
60547W        W32972  40.813  39.028   2.357
60548W        W32973  38.878  13.698  13.540
60549W        W32974  13.282  17.693  14.454
60550W        W32975  24.147  15.593   1.706
60551W        W32976   1.331  39.336   0.890
60552W        W32977  31.602  15.097   1.930
60553W        W32978   3.847  30.430   1.822
60554W        W32979  25.637  20.034  13.346
60555W        W32980  43.361  39.374  13.376
60556W        W32981  16.126   3.295  14.329
60557W        W32982   5.735  12.323  13.529
60558W        W32983  21.630   9.698  11.483
60559W        W32984  14.605  13.254   0.316
60560W        W32985  27.195  29.952   0.408
60561W        W32986   4.208  35.978  11.560
60562W        W32987  17.641  28.141   4.308
60563W        W32988   6.282  33.945  11.522
60564W        W32989  31.943  15.252   4.758
60565W        W32990  35.071  18.585   2.856
60566W        W32991  39.814   7.229  11.065
60567W        W32992  39.862  37.349   2.728
60568W        W32993  39.345   5.209  11.407
60569W        W32994  18.052  12.126  13.321
60570W        W32995  13.742  33.129   3.633
60571W        W32996  28.129   8.761  10.140
60572W        W32997  19.747  15.774  13.898
60573W        W32998  29.588   3.304   0.310
60574W        W32999  29.112  30.073   1.306
60575W        W33000  32.103  21.608   0.434
60576W        W33001  23.735  19.173  10.977
60577W        W33002  20.085   3.354   1.772
60578W        W33003   0.340  12.137  11.111
60579W        W33004  27.458  24.504  13.934
60580W        W33005  30.537  10.170  10.542
60581W        W33006   7.739  28.018  10.451
60582W        W33007  31.467   2.734   4.647
60583W        W33008  10.737   3.352  10.410
60584W        W33009  25.640  38.328  13.817
60585W        W33010   7.234  26.200   0.807
60586W        W33011  18.698  12.695  12.532
60587W        W33012  38.850  36.969   4.617
60588W        W33013  43.021   1.288   0.243
60589W        W33014  43.768   0.491   4.230
60590W        W33015  36.501  34.512  11.937
60591W        W33016   6.832  20.627  12.411
60592W        W33017  29.159  43.348   0.392
60593W        W33018  28.000  36.995   3.339
60594W        W33019  21.229  11.131  11.016
60595W        W33020  41.027   0.353   4.255
60596W        W33021  20.737   5.386  10.413
60597W        W33022  34.485  29.453  14.939
60598W        W33023  13.658  13.140  12.002
60599W        W33024  10.222  15.307   4.714
60600W        W33025  10.330   5.341  10.610
60601W        W33026  34.612  23.085  13.489
60602W        W33027  22.657   9.159  11.125
60603W        W33028  36.051  23.500   1.868
60604W        W33029  14.787   7.665   2.831
60605W        W33030  36.416  28.639   2.757
60606W        W33031  40.482  30.082  10.492
60607W        W33032   6.280  28.009  11.417
60608W        W33033   6.397  35.536   1.907
60609W        W33034  34.371  17.663   1.316
60610W        W33035  15.226  26.093  11.920
60611W        W33036  41.358  34.959   2.781
60612W        W33037  25.483   0.840   1.380
60613W        W33038  35.446  28.048   2.357
60614W        W33039  32.042  19.183   4.744
60615W        W33040  21.643   7.808  13.000
60616W        W33041  41.914  28.447  14.491
60617W        W33042  25.574  13.710  11.912
60618W        W33043  44.976   2.959  12.462
60619W        W33044  38.475  21.594   3.348
60620W        W33045  39.316  38.442   0.281
60621W        W33046  37.981  18.273  12.038
60622W        W33047  37.992  44.362  10.543
60623W        W33048  23.204   9.793  14.991
60624W        W33049   6.426   4.808   0.466
60625W        W33050   3.817  26.603  14.342
60626W        W33051  26.994  19.282  14.032
60627W        W33052  37.882  15.104   4.622
60628W        W33053  17.257   0.290   0.911
60629W        W33054   7.238  25.969  11.539
60630W        W33055   1.258  43.926   0.413
60631W        W33056  34.600  10.292   3.694
60632W        W33057  43.495  17.573   1.859
60633W        W33058  26.619  31.923  11.523
60634W        W33059  41.385   1.838   1.245
60635W        W33060  27.519  44.370   0.481
60636W        W33061  21.666   4.827   0.296
60637W        W33062  18.757  25.993  10.997
60638W        W33063  17.697  29.941  14.500
60639W        W33064  32.564  21.601  14.485
60640W        W33065  12.183   2.765   1.739
60641W        W33066  27.007  15.263  13.450
60642W        W33067   5.211  38.855   2.723
60643W        W33068  41.969  19.179  11.596
60644W        W33069  16.767  38.891  10.428
60645W        W33070   9.880  29.484   2.232
60646W        W33071  38.905  24.172   3.735
60647W        W33072  37.455   7.184   0.341
60648W        W33073  25.537  18.160  12.905
60649W        W33074   0.825  32.021   1.813
60650W        W33075   4.752  37.885  10.597
60651W        W33076  15.683  10.351  12.874
60652W        W33077  13.759   7.228  11.018
60653W        W33078  44.959  36.976   3.641
60654W        W33079  39.469  26.139   0.424
60655W        W33080  34.531   1.762  12.881
60656W        W33081   9.690  32.514   4.214
60657W        W33082  25.639   2.787   3.348
60658W        W33083  34.563  18.776  11.456
60659W        W33084  42.319   2.420  12.417
60660W        W33085  34.982  31.121  12.446
60661W        W33086  39.037  38.855   5.113
60662W        W33087  29.459  14.213   0.872
60663W        W33088   8.272  33.050  11.553
60664W        W33089  19.572   1.882  14.407
60665W        W33090  13.683  41.418   4.653
60666W        W33091  42.928  20.556  10.504
60667W        W33092  28.084  38.502   2.717
60668W        W33093  14.637  27.465   1.816
60669W        W33094  19.706  39.434   3.726
60670W        W33095   1.246  41.971   4.754
60671W        W33096  10.822  38.923   2.308
60672W        W33097   0.935  44.759  14.360
60673W        W33098   6.229  12.780  12.484
60674W        W33099  15.236   3.457   5.714
60675W        W33100  40.053  35.078  11.009
60676W        W33101  38.502  21.752   2.386
60677W        W33102   9.839  43.898  12.910
60678W        W33103  35.465  12.776  11.028
60679W        W33104  34.397   1.916   0.826
60680W        W33105  33.397  18.567   1.818
60681W        W33106  36.375  10.212  14.925
60682W        W33107   5.881  11.748   2.203
60683W        W33108  19.230  17.278  12.417
60684W        W33109  13.246  41.955   3.769
60685W        W33110  44.755   8.315   3.652
60686W        W33111  13.166  33.874   2.850
60687W        W33112  21.666  16.199   3.326
60688W        W33113  28.459  13.267   2.197
60689W        W33114   5.826  17.272   1.846
60690W        W33115   5.312  31.440  12.051
60691W        W33116  16.586   1.957   0.243
60692W        W33117  20.070  34.598  13.017
60693W        W33118   7.726  38.388   0.757
60694W        W33119  40.961   7.201   1.265
60695W        W33120  11.288  41.815  13.803
60696W        W33121  37.071  23.129   4.832
60697W        W33122  41.839   7.410  11.575
60698W        W33123  39.039  13.753   4.349
60699W        W33124  19.041  29.565  14.971
60700W        W33125  27.652  13.224   0.828
60701W        W33126  13.663  16.668  12.485
60702W        W33127  31.586  43.873   2.688
60703W        W33128  29.657  29.428   5.098
60704W        W33129  30.123  11.168  13.519
60705W        W33130  33.455  16.185   0.950
60706W        W33131   1.453  29.935   4.793
60707W        W33132  21.218  44.766   1.446
60708W        W33133  24.105   0.858   4.839
60709W        W33134  31.627   3.798  11.567
60710W        W33135  14.176  27.576   3.200
60711W        W33136  13.343  21.083   9.980
60712W        W33137   3.820   5.772  12.046
60713W        W33138  27.486  13.309  11.904
60714W        W33139  19.769  15.260   4.722
60715W        W33140  25.203  12.307  11.882
60716W        W33141   5.710  21.586   3.307
60717W        W33142  23.005  42.011  11.912
60718W        W33143  22.564  30.045  13.915
60719W        W33144  41.330  39.830   4.711
60720W        W33145   9.861  35.901   3.373
60721W        W33146  36.874  40.459  11.554
60722W        W33147   8.814  29.048  13.376
60723W        W33148  25.209  17.275   2.398
60724W        W33149   0.348  20.202  11.033
60725W        W33150  34.081   0.471  14.407
60726W        W33151  41.433   5.896  11.532
60727W        W33152  35.599  18.211   0.457
60728W        W33153  18.569  10.352  11.583
60729W        W33154  36.495  15.290   0.796
60730W        W33155  25.621  29.137  10.087
60731W        W33156  39.880  11.206  11.436
60732W        W33157  36.588  41.364   3.817
60733W        W33158  44.780   4.220   1.390
60734W        W33159  23.627  19.622   2.819
60735W        W33160  33.500   2.859   0.391
60736W        W33161  10.228  37.924   3.833
60737W        W33162  40.885  15.130   3.150
60738W        W33163  44.873  35.945  11.994
60739W        W33164  40.488  21.122  10.152
60740W        W33165   1.839  21.137   5.193
60741W        W33166   1.329   3.725  14.013
60742W        W33167  41.370  22.687   0.915
60743W        W33168  12.835   3.796   2.897
60744W        W33169  39.011  28.661  13.365
60745W        W33170   7.358  16.197  12.914
60746W        W33171  33.906  15.124  13.811
60747W        W33172  35.013  19.646   0.822
60748W        W33173  38.014  33.538  13.042
60749W        W33174  42.449  15.666   3.328
60750W        W33175  41.517  19.100   4.614
60751W        W33176  32.542  23.632  11.939
60752W        W33177  35.895  11.163  13.456
60753W        W33178  16.719  28.456   0.455
60754W        W33179  37.049  27.547   4.139
60755W        W33180  28.464   5.809   4.823
60756W        W33181  28.609  29.108   3.353
60757W        W33182   8.758  37.987  14.850
60758W        W33183   0.861  41.013  14.447
60759W        W33184  25.996   9.663   4.600
60760W        W33185  20.109  28.097  12.501
60761W        W33186   9.852   7.864   2.215
60762W        W33187  18.655  19.250  10.910
60763W        W33188   4.754   7.742   5.146
60764W        W33189  39.534  16.168  14.008
60765W        W33190   3.359  25.678   0.421
60766W        W33191   4.389  23.204   3.362
60767W        W33192  17.196  20.767   4.779
60768W        W33193  37.034  41.955   0.436
60769W        W33194  17.627  33.481  13.947
60770W        W33195   8.332   6.285   0.325
60771W        W33196  19.173  39.992  12.044
60772W        W33197   0.248  29.036   1.416
60773W        W33198   6.409  18.611   1.265
60774W        W33199  43.304  20.170  14.491
60775W        W33200  38.470  40.435  13.873
60776W        W33201   5.420  40.530  13.989
60777W        W33202   0.286  11.156  11.000
60778W        W33203   7.729  26.635   3.154
60779W        W33204  22.683  32.942  10.973
60780W        W33205  13.140  27.531   2.899
60781W        W33206  35.431  17.575   3.834
60782W        W33207  41.326  20.599   0.336
60783W        W33208  32.563   0.429  13.900
60784W        W33209  21.224  19.063  13.043
60785W        W33210   3.843  44.380   1.726
60786W        W33211  37.834  39.808   3.836
60787W        W33212  35.074  30.998  12.904
60788W        W33213   8.788  34.954  12.963
60789W        W33214  16.300  18.163  11.406
60790W        W33215   8.704   6.904   2.416
60791W        W33216  24.020  11.289   5.786
60792W        W33217  33.543  36.029  13.791
60793W        W33218  13.237  14.649   4.194
60794W        W33219   5.313   6.281  12.410
60795W        W33220  19.731   4.385   2.734
60796W        W33221  41.009   0.972  11.082
60797W        W33222  18.247  37.989  14.962
60798W        W33223  16.168   4.744   3.785
60799W        W33224  37.933  41.787   2.664
60800W        W33225  21.522  27.666   0.325
60801W        W33226  13.602  34.559  12.879
60802W        W33227   3.290  16.771   1.820
60803W        W33228  41.315  30.997   1.711
60804W        W33229  13.221  42.807  12.527
60805W        W33230  27.101  24.225  11.496
60806W        W33231  21.162  31.981  10.457
60807W        W33232  18.056  36.987  13.413
60808W        W33233   9.757  41.872  11.077
60809W        W33234  36.974   5.807   3.819
60810W        W33235  13.800  37.007   1.366
60811W        W33236  20.273  23.642  13.399
60812W        W33237  32.519  42.836   3.235
60813W        W33238  44.893  19.247   1.896
60814W        W33239  31.531  38.903  14.351
60815W        W33240   4.828   4.828  12.342
60816W        W33241  27.153   5.696   2.773
60817W        W33242  33.931  35.915   0.948
60818W        W33243  33.014  35.050  11.543
60819W        W33244  43.003  39.379   4.683
60820W        W33245  29.175   6.759   0.904
60821W        W33246  35.023  35.503  12.343
60822W        W33247  21.596   8.326   0.265
60823W        W33248  39.931   6.900   0.938
60824W        W33249  35.579  11.164   1.917
60825W        W33250  13.242  14.133   5.148
60826W        W33251  27.089  10.145  13.959
60827W        W33252  16.111  23.195  13.989
60828W        W33253  13.832  31.975  10.159
60829W        W33254  40.345  22.738  10.525
60830W        W33255  29.143  14.300   0.965
60831W        W33256  39.546   7.742  14.502
60832W        W33257  25.984  27.645  11.887
60833W        W33258  33.112  12.227   2.287
60834W        W33259  40.873  37.344  14.299
60835W        W33260   4.714  17.705  13.512
60836W        W33261   7.824  18.589  12.828
60837W        W33262  22.250  24.483   1.834
60838W        W33263   5.250  43.914   0.881
60839W        W33264   3.773  37.547   2.324
60840W        W33265   5.819  14.257   0.843
60841W        W33266  34.546   5.724   3.191
60842W        W33267  20.624  11.320  11.414
60843W        W33268  13.294  20.135   4.826
60844W        W33269  22.544   2.913  11.529
60845W        W33270  42.898  11.360   2.296
60846W        W33271   4.808  31.090  12.351
60847W        W33272  31.580  16.294   3.665
60848W        W33273  34.479  32.082   3.237
60849W        W33274   0.297  17.637   4.131
60850W        W33275  15.768  22.238  11.437
60851W        W33276  40.314  28.976  14.414
60852W        W33277  37.957  43.326  13.504
60853W        W33278  34.411  17.156  10.508
60854W        W33279  39.418   5.930   2.777
60855W        W33280  36.852  41.879   4.230
60856W        W33281   9.241   8.786   4.721
60857W        W33282  13.305  32.141  13.545
60858W        W33283  35.027   4.330  14.985
60859W        W33284  44.423  35.983  14.009
60860W        W33285  39.018   5.699   0.811
60861W        W33286  40.304  11.174  12.006
60862W        W33287  24.544  26.972   4.128
60863W        W33288  32.971   0.465   1.735
60864W        W33289  10.322  19.564  10.592
60865W        W33290  28.509  28.440   0.850
60866W        W33291  19.047  33.389   0.778
60867W        W33292   0.306  38.503   3.724
60868W        W33293  44.328  15.112  12.065
60869W        W33294  40.545  15.637   9.986
60870W        W33295  14.764  19.615  10.499
60871W        W33296   6.341  21.127  12.550
60872W        W33297  42.883  43.375  14.860
60873W        W33298  24.090  40.458  10.025
60874W        W33299  25.649  11.703   3.147
60875W        W33300   0.925   8.287   0.272
60876W        W33301  23.633  11.772  11.447
60877W        W33302  19.775  26.528  14.869
60878W        W33303  20.119  13.246   1.271
60879W        W33304   1.749  37.472   2.202
60880W        W33305  18.213  42.997   0.385
60881W        W33306  40.398  20.049   3.179
60882W        W33307  21.235  44.762   1.803
60883W        W33308  12.666  10.204   5.209
60884W        W33309   0.950  39.979   3.380
60885W        W33310  29.444  24.199   2.700
60886W        W33311  27.120   6.200  13.380
60887W        W33312  24.484  20.542  12.971
60888W        W33313   1.299  14.711  13.997
60889W        W33314  17.578  22.185   2.712
60890W        W33315   2.322   2.869   1.832
60891W        W33316  21.133  12.265  12.404
60892W        W33317  28.965  36.373  10.930
60893W        W33318   8.166   2.382  12.456
60894W        W33319  10.244   8.217   0.317
60895W        W33320   0.384  12.331   1.354
60896W        W33321  11.709  39.482  12.033
60897W        W33322  23.590   8.370  13.064
60898W        W33323  41.933  13.265   0.339
60899W        W33324  34.510  29.977  13.949
60900W        W33325  13.313   2.337  11.404
60901W        W33326   5.703  22.686  14.985
60902W        W33327  19.041  43.365   1.695
60903W        W33328  40.000  31.026  11.903
60904W        W33329  20.536  17.141  13.428
60905W        W33330  26.156  31.537  11.049
60906W        W33331   3.222  41.986  12.545
60907W        W33332   7.247  43.999  11.540
60908W        W33333  43.877  33.566  14.400
60909W        W33334  26.150  24.051   0.300
60910W        W33335  36.877   4.275  14.798
60911W        W33336  31.998  42.506   0.873
60912W        W33337   1.827  42.846   2.220
60913W        W33338  34.934  44.420  13.536
60914W        W33339  34.488  27.461   0.765
60915W        W33340   0.316   3.305  12.067
60916W        W33341  28.033  33.101   2.780
60917W        W33342  17.787  15.177   1.703
60918W        W33343  21.732  28.066  12.466
60919W        W33344  15.709  19.773  11.584
60920W        W33345   6.313  16.669  14.768
60921W        W33346  34.069  43.921   2.744
60922W        W33347  38.561  26.082  12.831
60923W        W33348   8.331  41.834   3.861
60924W        W33349  39.341  30.983  14.430
60925W        W33350  40.927  42.895  12.388
60926W        W33351  34.075  34.906  14.312
60927W        W33352  24.103  34.547  13.474
60928W        W33353  21.224  35.045  13.972
60929W        W33354   4.365  10.771  12.563
60930W        W33355  17.290  30.980   2.872
60931W        W33356  19.700  24.646  13.851
60932W        W33357  14.743  22.224  14.926
60933W        W33358  25.537  34.949  10.553
60934W        W33359  44.387  37.341   3.764
60935W        W33360   3.773  24.628   2.222
60936W        W33361  14.222  31.458   4.228
60937W        W33362  29.542   4.307  11.508
60938W        W33363  34.878  36.017   9.984
60939W        W33364  25.083  34.929  13.920
60940W        W33365  16.317  41.871   2.829
60941W        W33366   4.376  16.156   2.203
60942W        W33367  37.512  19.260  11.116
60943W        W33368  41.015  21.050   5.156
60944W        W33369  11.374  13.838   4.709
60945W        W33370  28.013  20.065  10.113
60946W        W33371  17.723  16.296  12.414
60947W        W33372   3.376  37.373  14.467
60948W        W33373  34.025  42.289  13.833
60949W        W33374  35.933  19.096   2.726
60950W        W33375  30.527  23.632  11.071
60951W        W33376  11.356  33.624   3.207
60952W        W33377  13.756   4.839   2.297
60953W        W33378  28.089  31.604   4.775
60954W        W33379  18.765  18.663   2.679
60955W        W33380  16.696   9.869  12.095
60956W        W33381  27.102   2.308  13.820
60957W        W33382  14.601  43.787   1.323
60958W        W33383  22.181   7.245   3.173
60959W        W33384  29.480   8.662  13.309
60960W        W33385  17.643  40.809  11.109
60961W        W33386  37.442  20.660   0.865
60962W        W33387  24.720  25.220   4.281
60963W        W33388  24.095  21.215  12.063
60964W        W33389   6.296  37.070  12.415
60965W        W33390   2.942  35.550  14.824
60966W        W33391  24.716  37.547   3.845
60967W        W33392  14.253  12.638   4.647
60968W        W33393  29.450  10.714  13.440
60969W        W33394  34.451  41.951  10.452
60970W        W33395  43.352  38.898   3.718
60971W        W33396   5.880  39.875  12.441
60972W        W33397  37.548  26.600   4.769
60973W        W33398   9.853  38.962   0.319
60974W        W33399  20.564  11.248   1.789
60975W        W33400  40.049  38.360  14.391
60976W        W33401  12.120  27.528  14.997
60977W        W33402  22.008  34.109  12.409
60978W        W33403  27.984  26.550  14.462
60979W        W33404  19.672  23.647   0.728
60980W        W33405  27.463  11.848   0.245
60981W        W33406  37.474  38.380  13.798
60982W        W33407  28.587   2.903   1.337
60983W        W33408  16.759  21.560  14.788
60984W        W33409   6.906  38.040   2.419
60985W        W33410   3.333  34.011  13.505
60986W        W33411  13.799  44.855   4.144
60987W        W33412  20.639  22.636  13.988
60988W        W33413   3.767  43.423  11.436
60989W        W33414  36.845  11.239  14.364
60990W        W33415  24.654  34.934  11.956
60991W        W33416  12.205  19.702  12.461
60992W        W33417  14.290   0.301  12.915
60993W        W33418   8.800  38.021  11.098
60994W        W33419  28.141  20.073  12.899
60995W        W33420  19.767  10.164   0.434
60996W        W33421  16.094  25.604  10.460
60997W        W33422  38.940  20.655  13.345
60998W        W33423  15.278   3.881   1.837
60999W        W33424  17.192  11.129  12.864
61000W        W33425  29.434  34.496  10.458
61001W        W33426  18.137  17.157   4.231
61002W        W33427   9.215  44.995   4.303
61003W        W33428  40.428  11.224   1.869
61004W        W33429  30.158  27.510  12.541
61005W        W33430  25.483  28.122  12.845
61006W        W33431  11.768  13.249  13.044
61007W        W33432  31.557  38.034  12.923
61008W        W33433  25.677  11.700   1.859
61009W        W33434  17.176  12.788  14.794
61010W        W33435  26.012  24.513   2.415
61011W        W33436   5.271  17.174   3.700
61012W        W33437   2.295  15.720  11.939
61013W        W33438  32.415  14.172   0.406
61014W        W33439  11.170   5.347  11.032
61015W        W33440  40.053   3.260  14.864
61016W        W33441  36.474  21.061  14.029
61017W        W33442  23.676  17.644  10.955
61018W        W33443   8.287  33.051   1.373
61019W        W33444   5.414  38.872  13.335
61020W        W33445  28.100  24.203   0.255
61021W        W33446  13.291  18.193  14.877
61022W        W33447  31.606  10.269  14.873
61023W        W33448  17.107   4.370   3.662
61024W        W33449  29.561  24.675   2.750
61025W        W33450  36.886  29.075   3.317
61026W        W33451  23.213   5.204  13.892
61027W        W33452  42.922  13.642  10.929
61028W        W33453  31.534   3.320  13.502
61029W        W33454  21.557  29.461  12.080
61030W        W33455  22.679  44.505  14.958
61031W        W33456  35.472  11.340  13.428
61032W        W33457   1.903  40.403   2.319
61033W        W33458   6.882  30.001   2.257
61034W        W33459  10.702   2.819   3.703
61035W        W33460   7.183   6.755   3.301
61036W        W33461  41.829  44.266   5.283
61037W        W33462  33.584  16.752  13.503
61038W        W33463  40.327  14.303   1.826
61039W        W33464  11.329   1.936   1.224
61040W        W33465   7.794  24.160  13.060
61041W        W33466   2.960  29.530   2.256
61042W        W33467  16.809  24.587   1.866
61043W        W33468  43.290   3.931   4.272
61044W        W33469  37.491   6.709   2.798
61045W        W33470  19.587  33.877   4.667
61046W        W33471  34.559  38.868   1.778
61047W        W33472  15.162   3.853   2.735
61048W        W33473  22.103  14.801   2.761
61049W        W33474  33.121  40.458  13.044
61050W        W33475  25.036   4.292  12.433
61051W        W33476  15.200  38.033   0.329
61052W        W33477  44.995  20.602  13.829
61053W        W33478  38.984  44.846   1.277
61054W        W33479  43.386   0.897  14.512
61055W        W33480  33.085  19.595   1.415
61056W        W33481  26.533   4.841  13.402
61057W        W33482  26.988  27.063  12.031
61058W        W33483  11.200  24.985   4.687
61059W        W33484  24.572  28.152  10.944
61060W        W33485  38.053  42.429  12.420
61061W        W33486  41.340  18.762  10.599
61062W        W33487  22.219  14.303  11.597
61063W        W33488  13.641  19.127   3.666
61064W        W33489  36.459  14.144  12.995
61065W        W33490  27.477  19.137  12.452
61066W        W33491  39.880   5.230  11.876
61067W        W33492  39.031  15.252   0.451
61068W        W33493  43.429   2.435  12.472
61069W        W33494  44.755  22.167   2.319
61070W        W33495  33.558   7.815   4.653
61071W        W33496   0.767   6.859   4.211
61072W        W33497  35.088  17.113   3.687
61073W        W33498  31.131  19.256  12.840
61074W        W33499   9.875   1.757   2.778
61075W        W33500   9.395  32.496   1.336
61076W        W33501  28.675  19.741   4.706
61077W        W33502  10.717  31.438   0.348
61078W        W33503  39.469  40.522   2.277
61079W        W33504  20.565  41.026  14.377
61080W        W33505  26.538  32.982   2.317
61081W        W33506  42.402  15.783  13.973
61082W        W33507  14.752  22.191  14.276
61083W        W33508  29.000  35.033  11.509
61084W        W33509   4.815  11.192   4.221
61085W        W33510  32.446   5.212   2.779
61086W        W33511   9.876   1.283  11.372
61087W        W33512   5.845  42.801   4.799
61088W        W33513  31.494  36.440  13.938
61089W        W33514  40.968   0.395  12.452
61090W        W33515  25.584   5.706   2.778
61091W        W33516  37.577  36.490   4.294
61092W        W33517   1.968  37.889  13.483
61093W        W33518  40.542  18.173  13.473
61094W        W33519  39.955  28.508  12.038
61095W        W33520  14.611  29.653  11.017
61096W        W33521  22.154  28.064   2.800
61097W        W33522  10.217  25.051   3.278
61098W        W33523  17.645  12.766   3.863
61099W        W33524  39.009   3.881   4.349
61100W        W33525  23.241  17.240  10.519
61101W        W33526  35.095  40.351  14.973
61102W        W33527  42.888  32.931   5.171
61103W        W33528   7.234  37.517   2.825
61104W        W33529  29.576  13.155   0.294
61105W        W33530  31.070  12.725   0.452
61106W        W33531  19.595  20.549  12.366
61107W        W33532  31.486  15.284   3.315
61108W        W33533  20.584  19.110   4.226
61109W        W33534  18.733  10.140  14.851
61110W        W33535  36.851  15.762   1.336
61111W        W33536  37.025  21.193   2.739
61112W        W33537  33.444  33.982  11.581
61113W        W33538  43.954  28.013   3.162
61114W        W33539  42.789  15.735   0.889
61115W        W33540  28.028  18.257  12.917
61116W        W33541  31.637  29.662   3.717
61117W        W33542   1.421  29.638   3.861
61118W        W33543   8.706  14.281  11.081
61119W        W33544  18.550  25.999   0.780
61120W        W33545  13.220  18.604  13.451
61121W        W33546   8.715  30.046  10.936
61122W        W33547  35.555   0.977  11.870
61123W        W33548   5.817  44.398   4.765
61124W        W33549  35.468  39.872  10.584
61125W        W33550  27.480  34.961  12.954
61126W        W33551  31.966  25.563  11.565
61127W        W33552   9.200  44.944   3.196
61128W        W33553  42.307  11.210  14.302
61129W        W33554  32.510  36.405  12.068
61130W        W33555   4.335  44.813  10.909
61131W        W33556   1.311  25.981  13.424
61132W        W33557   0.257  18.128  14.964
61133W        W33558  35.105   7.313   1.739
61134W        W33559  27.554  20.655  12.424
61135W        W33560  10.174  40.035   4.736
61136W        W33561  17.201  26.677  10.143
61137W        W33562  18.266  27.494  11.439
61138W        W33563  21.687   1.445  13.050
61139W        W33564  19.092   7.787   0.933
61140W        W33565  26.698  37.035  13.488
61141W        W33566  37.535  27.539  13.481
61142W        W33567  24.562   4.945  13.362
61143W        W33568  16.153  21.621  11.561
61144W        W33569  10.349  22.164   0.302
61145W        W33570  43.284   7.904   1.334
61146W        W33571   6.891  36.882   0.281
61147W        W33572  22.667   8.896   1.306
61148W        W33573  21.118   5.883  13.356
61149W        W33574  12.357  23.014   3.647
61150W        W33575  35.427   7.184  14.462
61151W        W33576  10.142  27.081  12.504
61152W        W33577   7.732  22.628  12.935
61153W        W33578   6.276  34.489  11.865
61154W        W33579  30.635   0.388  10.632
61155W        W33580  28.489  40.921  12.505
61156W        W33581  26.699  13.745  14.787
61157W        W33582   9.324  39.533  11.027
61158W        W33583  12.625   7.802  11.087
61159W        W33584  10.872  37.394  14.487
61160W        W33585  20.191  43.988   1.437
61161W        W33586  20.674  12.277   5.314
61162W        W33587  20.767  35.024   0.279
61163W        W33588  20.101   2.431   1.860
61164W        W33589  31.915  30.967  11.498
61165W        W33590  36.003   0.270  14.904
61166W        W33591   9.774  18.650   1.333
61167W        W33592  26.071  20.659  13.500
61168W        W33593  10.712  25.080  14.851
61169W        W33594  29.491   3.247   4.264
61170W        W33595   7.296  25.140  12.485
61171W        W33596  31.072   6.797   3.312
61172W        W33597   7.673  22.501  12.353
61173W        W33598  36.886  43.994   4.665
61174W        W33599   2.803  13.835  10.436
61175W        W33600  26.590   5.769  13.454
61176W        W33601   9.333  10.817  14.453
61177W        W33602  18.061  19.691   1.805
61178W        W33603  11.350   6.363   2.885
61179W        W33604  44.832   5.750   1.435
61180W        W33605  19.544  38.922  11.541
61181W        W33606  41.427  13.771  14.378
61182W        W33607  29.625  27.561  11.867
61183W        W33608  42.435  41.522  12.450
61184W        W33609   1.959  12.673  14.505
61185W        W33610  37.941  33.400  11.002
61186W        W33611  23.225  12.743   1.371
61187W        W33612  22.079   1.366   1.731
61188W        W33613  11.181  25.007   3.711
61189W        W33614  27.159  36.486  11.992
61190W        W33615  30.424  39.534  11.933
61191W        W33616  37.958  40.364   3.752
61192W        W33617   9.272   4.878  13.443
61193W        W33618  27.123  11.670  13.428
61194W        W33619  33.490   3.222   2.254
61195W        W33620  37.410  33.606   2.866
61196W        W33621  24.667  43.981  12.378
61197W        W33622   7.334  23.532   4.327
61198W        W33623  36.576  44.973   0.753
61199W        W33624  18.247  16.719   2.344
61200W        W33625  18.077  31.435  13.979
61201W        W33626  26.598  12.255  12.374
61202W        W33627  30.599  22.127   9.983
61203W        W33628  33.408   7.289   4.776
61204W        W33629  20.051  42.791   4.651
61205W        W33630  16.708  38.064   2.774
61206W        W33631  17.182   1.849   3.165
61207W        W33632   3.353  16.307  14.442
61208W        W33633  11.182   8.727   2.816
61209W        W33634  41.512  31.103   3.327
61210W        W33635  35.053  18.572   4.251
61211W        W33636  11.370  14.610   1.335
61212W        W33637  25.589  20.642   1.318
61213W        W33638   1.956  23.663  14.875
61214W        W33639  11.162  19.618  11.486
61215W        W33640  12.331  25.050  13.331
61216W        W33641  16.300  31.535   0.243
61217W        W33642  31.519  20.116   3.782
61218W        W33643   5.401   5.812   1.835
61219W        W33644   5.868   8.184   3.809
61220W        W33645  21.254  17.696   0.438
61221W        W33646   8.280  22.665   1.707
61222W        W33647  44.793   5.382   1.365
61223W        W33648  24.992  28.533   4.631
61224W        W33649   9.727   9.179  12.534
61225W        W33650  25.061  41.977   2.764
61226W        W33651  10.789  18.575  11.611
61227W        W33652  39.822  22.691   3.721
61228W        W33653   5.236  12.226  13.362
61229W        W33654  29.586   4.322  14.363
61230W        W33655  40.001  18.243  14.440
61231W        W33656  44.288   3.267   4.352
61232W        W33657  37.397  43.480  13.543
61233W        W33658  20.677   1.430   3.755
61234W        W33659   9.751  21.122   0.347
61235W        W33660  31.902  21.129  13.848
61236W        W33661  32.912   1.863  14.324
61237W        W33662  22.694   6.262   1.855
61238W        W33663  33.467  10.178   2.380
61239W        W33664  21.622  26.991   2.765
61240W        W33665  32.093  27.146   2.361
61241W        W33666  36.917  41.846   1.449
61242W        W33667  35.042  25.028  12.458
61243W        W33668   7.869  32.453  11.902
61244W        W33669  41.815  39.867   0.336
61245W        W33670   8.761  12.287   2.257
61246W        W33671  14.134  24.482  13.398
61247W        W33672  25.685  13.637  14.361
61248W        W33673  13.707  39.923   4.685
61249W        W33674  36.360  43.465   2.196
61250W        W33675  21.565  41.442  12.541
61251W        W33676  24.016  23.651   1.736
61252W        W33677  14.154  44.946   2.667
61253W        W33678  19.559  14.260  11.373
61254W        W33679  10.741  18.710  10.561
61255W        W33680  40.488  23.081   0.254
61256W        W33681   1.471  10.314  14.780
61257W        W33682   9.710  13.300   3.740
61258W        W33683  36.880   3.851   1.256
61259W        W33684  40.306  23.191   0.841
61260W        W33685   8.773   0.433   1.743
61261W        W33686   5.317  35.864  12.425
61262W        W33687  21.186   7.669   2.865
61263W        W33688  18.787   4.308   0.243
61264W        W33689  43.821  29.660  11.948
61265W        W33690  34.870  10.801   1.322
61266W        W33691  29.121  37.525   2.310
61267W        W33692  26.102  20.752  11.412
61268W        W33693  22.645  38.856  14.975
61269W        W33694  15.173  11.785   1.419
61270W        W33695  33.531  29.097   4.658
61271W        W33696  33.409  11.863  14.762
61272W        W33697  26.517  36.914   1.295
61273W        W33698  10.633  18.750   2.773
61274W        W33699  40.351   4.291  11.438
61275W        W33700   1.283  33.605  10.957
61276W        W33701  26.199   0.760   4.186
61277W        W33702  38.525  32.414   0.395
61278W        W33703  38.393  35.404   0.378
61279W        W33704  21.096  44.503   3.267
61280W        W33705  13.186  38.565   1.275
61281W        W33706  33.576   8.796  10.983
61282W        W33707  42.311  22.999  14.515
61283W        W33708  29.622   2.381   2.878
61284W        W33709  41.469  18.138  13.386
61285W        W33710  23.713  41.828  10.963
61286W        W33711  44.799  28.640   3.817
61287W        W33712  20.138  21.648   3.792
61288W        W33713  39.962  14.160   2.851
61289W        W33714  16.636  35.488  12.394
61290W        W33715  24.113   5.224  10.411
61291W        W33716  23.518  31.150  13.853
61292W        W33717   0.406  18.166  13.365
61293W        W33718  41.917   8.705   0.811
61294W        W33719  17.654  31.991   0.406
61295W        W33720  40.341  12.192   1.832
61296W        W33721  25.576  31.449  10.963
61297W        W33722  43.403  26.072  12.991
61298W        W33723   4.379  30.516   1.810
61299W        W33724  31.129  30.535   2.683
61300W        W33725   1.766  43.489  12.519
61301W        W33726  28.147  20.574   0.751
61302W        W33727   6.803   5.737  11.388
61303W        W33728   3.838  14.098   2.794
61304W        W33729  26.467  11.722   2.220
61305W        W33730  32.965  12.797  14.327
61306W        W33731  34.530  39.893  12.379
61307W        W33732  22.591  15.705  14.396
61308W        W33733  12.656  17.686  11.011
61309W        W33734  10.259  12.744   2.241
61310W        W33735  12.720  15.138  12.529
61311W        W33736   6.193  41.501  13.460
61312W        W33737  43.281   4.280   1.325
61313W        W33738  15.755  33.964  14.377
61314W        W33739  26.171  16.157  13.868
61315W        W33740  38.424  21.094  14.422
61316W        W33741  44.395  33.436   5.176
61317W        W33742  42.474  20.109   1.903
61318W        W33743  32.908  30.986  10.462
61319W        W33744   1.449  36.528   3.239
61320W        W33745  44.834  15.646  11.078
61321W        W33746   1.894  27.608  12.994
61322W        W33747  38.871   5.203  13.375
61323W        W33748  36.074  29.564  12.545
61324W        W33749  28.565  17.590   4.319
61325W        W33750  20.257   1.855   3.151
61326W        W33751  31.070  36.455  13.548
61327W        W33752  14.734   8.654  10.610
61328W        W33753  21.700  25.087   0.874
61329W        W33754  30.423  41.379   4.228
61330W        W33755  40.995  16.204  11.876
61331W        W33756  40.337  18.571   5.146
61332W        W33757  14.786  23.043   1.270
61333W        W33758  40.943  11.134   2.894
61334W        W33759  35.996  41.817  12.922
61335W        W33760  14.217   9.678  11.037
61336W        W33761  11.288  40.888  13.348
61337W        W33762  34.509  19.682   1.865
61338W        W33763  26.508  39.389  12.923
61339W        W33764  17.576  41.813  13.432
61340W        W33765   1.795  37.024   2.418
61341W        W33766   0.967   0.954  14.917
61342W        W33767  36.940  11.771   3.203
61343W        W33768  15.809  32.136  14.387
61344W        W33769  16.154   5.867   1.323
61345W        W33770   5.886   7.381   0.412
61346W        W33771  15.276  33.962   0.848
61347W        W33772  44.987  21.082   0.757
61348W        W33773  37.856  18.071  13.844
61349W        W33774  44.930  14.655  14.780
61350W        W33775  24.985  30.531   3.726
61351W        W33776  31.535   2.234   1.869
61352W        W33777  40.881  19.665   3.803
61353W        W33778  40.830  40.429  13.384
61354W        W33779  22.585  42.299   2.865
61355W        W33780   7.862  20.215   4.620
61356W        W33781  42.496  14.662  10.644
61357W        W33782  41.035  19.176  12.064
61358W        W33783   7.764  42.319   3.860
61359W        W33784   4.729   1.309  10.129
61360W        W33785   8.355  12.642  11.029
61361W        W33786  15.598   0.745   3.165
61362W        W33787  11.159  10.735  11.373
61363W        W33788   7.868  38.872   1.316
61364W        W33789  13.282  17.163  11.484
61365W        W33790  36.930  32.076   2.857
61366W        W33791  37.961  31.535   0.898
61367W        W33792  41.440  38.925   4.696
61368W        W33793  17.572  24.114   2.224
61369W        W33794  36.485   6.876   2.205
61370W        W33795  24.155   3.807  12.359
61371W        W33796  19.740  33.599  10.905
61372W        W33797  22.742  34.121   3.367
61373W        W33798   2.465   8.867   3.726
61374W        W33799  29.578  41.985  13.999
61375W        W33800  39.066  10.273  13.434
61376W        W33801  25.610  30.947  10.549
61377W        W33802  34.929  41.337   2.208
61378W        W33803  36.961  15.754  11.600
61379W        W33804  24.600  34.491   4.317
61380W        W33805  18.293  33.904   4.747
61381W        W33806   0.357  17.754  12.911
61382W        W33807  44.910  11.637   1.797
61383W        W33808  25.519  19.276  14.029
61384W        W33809  42.395  14.283  14.816
61385W        W33810  10.791  29.557  11.014
61386W        W33811  19.616   1.412  13.333
61387W        W33812  29.519  40.966   1.318
61388W        W33813  43.406  39.913  13.491
61389W        W33814   2.309  21.057   1.759
61390W        W33815  15.266  36.021  12.360
61391W        W33816   4.713  20.760   4.663
61392W        W33817  28.951  34.397  10.591
61393W        W33818  16.255  38.863   1.357
61394W        W33819  38.366  14.117   5.274
61395W        W33820  32.045  37.010   0.368
61396W        W33821  10.843  43.441  10.458
61397W        W33822   4.906  32.922   2.663
61398W        W33823  26.172  21.257  14.879
61399W        W33824   9.677  44.959   0.869
61400W        W33825   6.372   7.324   3.789
61401W        W33826  44.800   8.726   0.472
61402W        W33827  31.962   4.865  14.932
61403W        W33828  32.137  29.111   0.277
61404W        W33829  44.770  35.897  10.443
61405W        W33830   8.685  25.012  14.402
61406W        W33831  13.667  11.241   4.633
61407W        W33832  36.459  39.512  12.344
61408W        W33833  11.204  15.592  13.337
61409W        W33834  22.188  26.107  13.414
61410W        W33835  16.801  32.598  11.075
61411W        W33836   4.858   6.851  14.501
61412W        W33837  12.247  28.123   0.835
61413W        W33838  27.643  42.910  11.559
61414W        W33839  28.653  13.790   3.170
61415W        W33840  27.955   1.888  13.487
61416W        W33841   9.794  25.492   2.188
61417W        W33842   7.397  42.301  11.934
61418W        W33843  23.003  15.329   1.807
61419W        W33844  20.587  43.875  11.053
61420W        W33845   7.278  19.224   2.376
61421W        W33846  19.579  28.595  12.440
61422W        W33847  31.012   9.848   0.915
61423W        W33848  10.156  11.706  11.101
61424W        W33849   7.683  37.565  10.092
61425W        W33850  30.965  26.097   4.244
61426W        W33851  44.798  12.196   4.826
61427W        W33852  32.942   1.769   3.150
61428W        W33853  38.964  19.262  12.087
61429W        W33854  44.785  24.594   1.862
61430W        W33855  42.935   1.248   4.718
61431W        W33856  16.263  24.977  12.556
61432W        W33857  30.608   5.427   4.658
61433W        W33858   9.784  19.747  12.447
61434W        W33859  30.477   9.782   0.843
61435W        W33860  21.712  27.014  10.609
61436W        W33861  44.271  31.964  14.362
61437W        W33862  10.254  33.083  13.823
61438W        W33863   8.852  43.825   4.188
61439W        W33864  17.646  13.641   4.280
61440W        W33865  15.730  33.082  12.028
61441W        W33866   4.204  15.285   1.755
61442W        W33867  26.201  36.868   4.751
61443W        W33868   3.370   5.262   1.419
61444W        W33869  22.084  15.158   0.944
61445W        W33870  28.137  16.771  11.391
61446W        W33871  28.675  34.072   3.768
61447W        W33872  18.058  42.805  12.383
61448W        W33873  24.032  41.421   2.825
61449W        W33874  22.643  33.929  12.559
61450W        W33875   8.707   9.326   0.266
61451W        W33876   2.375   2.865   0.729
61452W        W33877   9.677   9.176  14.373
61453W        W33878   7.371  43.415   3.313
61454W        W33879  16.316   0.436   3.830
61455W        W33880  24.117  35.095   9.937
61456W        W33881   3.813   2.916   4.776
61457W        W33882  21.642  40.041   2.773
61458W        W33883   1.755  42.453  11.919
61459W        W33884  10.252  29.922  14.416
61460W        W33885  11.161  44.844   1.748
61461W        W33886  37.470  20.673   4.260
61462W        W33887   7.779   0.279   3.798
61463W        W33888  36.469  39.853  14.339
61464W        W33889  38.480  30.432  12.020
61465W        W33890  30.109  27.050   2.706
61466W        W33891  27.969   2.828   0.258
61467W        W33892  32.015  13.671   2.213
61468W        W33893  29.072   1.745   1.431
61469W        W33894  19.137  39.521  14.783
61470W        W33895  40.838  15.125  11.940
61471W        W33896   3.387  19.633  13.335
61472W        W33897  26.557  14.807   1.307
61473W        W33898  34.544   3.379   2.371
61474W        W33899  36.592  34.888   3.690
61475W        W33900   0.807  34.536   3.698
61476W        W33901  29.449  38.464  12.518
61477W        W33902  29.939   9.178   1.840
61478W        W33903   0.970  31.427   2.338
61479W        W33904   4.219  17.799   2.241
61480W        W33905  28.064  18.554  10.036
61481W        W33906  44.779  10.771  12.483
61482W        W33907  16.620   2.860   1.334
61483W        W33908   4.266  36.362   3.814
61484W        W33909  38.822  44.785   0.341
61485W        W33910  13.105  26.662  11.961
61486W        W33911  29.980  28.569   1.793
61487W        W33912  41.961  29.603   4.807
61488W        W33913  19.078   8.866   2.178
61489W        W33914  43.881  35.930   2.304
61490W        W33915   2.866  43.808  11.990
61491W        W33916  14.823   4.896   0.835
61492W        W33917  14.665  37.563  13.025
61493W        W33918   8.680  12.239  11.041
61494W        W33919  27.513  13.722  10.486
61495W        W33920  43.351  37.349  12.509
61496W        W33921  44.868  33.999  13.947
61497W        W33922  12.154  23.985   5.655
61498W        W33923  31.518  37.376   3.205
61499W        W33924  39.316  34.556   1.418
61500W        W33925  42.384   8.837   2.190
61501W        W33926   1.402  20.669  11.497
61502W        W33927   0.403  24.110   0.292
61503W        W33928  29.597   7.877  10.618
61504W        W33929   8.295  28.045   2.268
61505W        W33930  13.804  16.263   0.442
61506W        W33931  40.014   0.844  11.948
61507W        W33932  37.369  11.167  11.575
61508W        W33933  26.091  29.990  13.440
61509W        W33934  34.872   4.759   4.204
61510W        W33935  23.025  15.163  12.559
61511W        W33936  23.734  44.951  13.382
61512W        W33937  38.902  13.707  14.004
61513W        W33938  43.925  19.221   3.216
61514W        W33939  21.260   1.424   3.790
61515W        W33940  42.393  11.809   2.741
61516W        W33941  40.856  13.113  13.842
61517W        W33942  32.482  32.042  14.380
61518W        W33943  41.435  12.749  14.456
61519W        W33944  32.923  11.839  12.828
61520W        W33945   0.943   5.238   3.735
61521W        W33946  21.257  34.385   4.264
61522W        W33947  11.310  26.207  14.338
61523W        W33948  10.776  39.560   0.278
61524W        W33949  37.398  33.514  13.019
61525W        W33950  11.824  25.992   2.860
61526W        W33951  31.938  40.032  10.638
61527W        W33952  36.864  38.070   3.819
61528W        W33953  32.545   3.928   1.732
61529W        W33954  20.617  44.450  13.541
61530W        W33955  41.506  29.050   1.770
61531W        W33956  20.065  44.967   0.940
61532W        W33957  19.082  14.194   4.805
61533W        W33958  36.847  20.172   1.344
61534W        W33959  30.508  14.099  14.863
61535W        W33960  39.008  24.166   2.227
61536W        W33961  18.284  44.773   4.733
61537W        W33962  28.933   2.413  12.879
61538W        W33963   7.834  33.965   1.830
61539W        W33964   2.381  25.997   0.298
61540W        W33965  15.254   7.194   0.901
61541W        W33966  39.859  21.177   5.227
61542W        W33967   4.285   5.808   4.714
61543W        W33968  41.358  18.062   3.857
61544W        W33969  44.821  44.899  11.466
61545W        W33970  39.545  14.629  14.492
61546W        W33971  44.398   4.309  11.389
61547W        W33972  44.428  32.894  12.021
61548W        W33973  27.590   0.411  11.935
61549W        W33974  29.580  37.016  13.044
61550W        W33975   1.329   8.797   1.854
61551W        W33976  12.798  10.335   0.962
61552W        W33977  34.378   6.239  12.400
61553W        W33978  38.828  16.638  13.012
61554W        W33979  39.927  33.941  12.577
61555W        W33980  32.043  35.993  14.306
61556W        W33981  21.601   2.745  12.020
61557W        W33982  25.692   9.689   4.136
61558W        W33983   1.804  12.259   1.223
61559W        W33984   4.309  34.107  11.479
61560W        W33985  42.867  39.823   3.665
61561W        W33986   3.314  14.731  10.891
61562W        W33987  12.186  11.338  12.460
61563W        W33988  37.342  29.168   9.947
61564W        W33989  25.148  40.971  13.546
61565W        W33990  41.977  22.636  13.064
61566W        W33991   2.269  33.543  12.843
61567W        W33992  12.656  32.002   2.734
61568W        W33993  35.074  42.977   0.368
61569W        W33994  35.462   2.773  11.485
61570W        W33995  40.410  24.085  11.047
61571W        W33996  17.668  22.156  10.605
61572W        W33997  33.077  30.912  14.370
61573W        W33998  37.519  14.783   2.264
61574W        W33999  24.532   0.487   3.306
61575W        W34000  12.168  27.984  11.373
61576W        W34001  19.549  12.720   4.184
61577W        W34002  29.095   6.366  14.816
61578W        W34003  16.593  43.341  11.874
61579W        W34004  44.793  10.806  13.382
61580W        W34005  31.992   5.742  10.559
61581W        W34006  18.597  36.539   2.328
61582W        W34007  23.140  18.636  13.513
61583W        W34008  37.544  23.597   4.653
61584W        W34009  14.239   9.831   0.961
61585W        W34010  18.788  39.558  14.005
61586W        W34011   4.376  29.544  13.837
61587W        W34012  16.578  24.688  13.998
61588W        W34013  24.203  35.100   4.159
61589W        W34014  16.129  36.941   4.767
61590W        W34015  19.568  17.596  12.988
61591W        W34016   0.273  18.058  11.418
61592W        W34017  21.597  11.241   4.821
61593W        W34018   4.715  14.809   2.743
61594W        W34019  42.520  33.468   3.277
61595W        W34020  19.285  26.024  10.518
61596W        W34021  44.784  29.666   2.719
61597W        W34022  18.243  43.994  12.943
61598W        W34023  20.229  35.067   4.273
61599W        W34024  16.260  36.534   4.692
61600W        W34025  18.126  39.514   1.773
61601W        W34026  35.079  12.814   2.687
61602W        W34027  13.845  10.337  10.427
61603W        W34028  21.732   5.214   0.815
61604W        W34029  34.582  30.523   2.696
61605W        W34030  27.666  16.578  13.956
61606W        W34031  44.004  32.516  13.013
61607W        W34032   0.315  20.574   2.388
61608W        W34033  29.636  35.935   0.276
61609W        W34034  43.505  33.014   2.843
61610W        W34035  39.333   8.179  13.808
61611W        W34036  34.466  17.065   4.179
61612W        W34037  15.284  28.043  10.996
61613W        W34038  29.014  10.844   3.249
61614W        W34039  21.172  23.532  13.348
61615W        W34040  34.116  36.874   2.361
61616W        W34041  13.640  21.125  10.999
61617W        W34042  32.475  44.997   1.729
61618W        W34043  19.540  12.277  13.401
61619W        W34044  28.074  19.080  14.810
61620W        W34045  37.426  25.057   2.860
61621W        W34046   7.764  17.623   0.860
61622W        W34047  36.015  42.339  13.434
61623W        W34048  23.679  26.576   4.773
61624W        W34049  32.125  27.065   2.744
61625W        W34050  42.870  41.034  11.985
61626W        W34051  20.029  10.209  13.332
61627W        W34052   9.842  34.594  12.022
61628W        W34053   8.221   4.236   2.868
61629W        W34054  16.172  23.543   3.712
61630W        W34055  20.168  44.291   1.812
61631W        W34056  40.999  15.588  12.857
61632W        W34057   1.301  13.754  14.320
61633W        W34058  23.539  38.362   2.735
61634W        W34059  37.362  33.054   4.316
61635W        W34060  14.334  31.485   1.924
61636W        W34061   3.357  34.031   3.237
61637W        W34062   7.862  12.643  11.092
61638W        W34063  14.590  32.981  10.079
61639W        W34064   9.750  30.074  14.913
61640W        W34065  14.782  34.916   0.735
61641W        W34066  26.690  42.485   4.308
61642W        W34067  22.237  32.525   2.715
61643W        W34068  17.232  12.741  12.419
61644W        W34069  27.573  34.090   3.167
61645W        W34070   9.278  44.468  10.583
61646W        W34071  11.784  21.723  11.496
61647W        W34072   8.402  11.262   1.323
61648W        W34073  27.106   5.693  13.512
61649W        W34074  39.350  22.744   1.411
61650W        W34075   9.320  36.088   3.708
61651W        W34076   1.885  34.542  11.544
61652W        W34077  42.986   7.302  13.005
61653W        W34078  18.134   9.670   0.769
61654W        W34079  30.985  29.063   4.304
61655W        W34080  40.323  31.005   1.263
61656W        W34081  40.525  19.693   1.920
61657W        W34082   5.882  13.679   1.825
61658W        W34083  32.925  12.117  14.399
61659W        W34084   5.353  24.995  10.922
61660W        W34085  19.628   9.283   4.646
61661W        W34086   9.192   8.806   0.370
61662W        W34087  41.506   1.413   4.814
61663W        W34088  31.060  34.522  13.826
61664W        W34089  41.388  16.109   0.257
61665W        W34090  34.553  18.283   1.248
61666W        W34091  38.377  24.017  11.546
61667W        W34092  29.950  24.600  12.368
61668W        W34093  42.965  10.280  11.916
61669W        W34094   0.328  14.262   3.860
61670W        W34095  44.335  23.506   2.404
61671W        W34096  11.221  22.639   4.782
61672W        W34097  21.172  35.425   4.346
61673W        W34098   0.881  32.893  10.439
61674W        W34099  33.399   6.687   2.221
61675W        W34100  41.529  21.189  11.932
61676W        W34101  20.653  41.028   0.453
61677W        W34102  26.127  19.145   1.383
61678W        W34103  13.161  31.530  13.926
61679W        W34104  40.842   8.223  10.604
61680W        W34105   5.894  11.827   1.761
61681W        W34106  12.171  44.843   0.910
61682W        W34107  28.440  33.595  11.894
61683W        W34108  11.278  21.043  12.830
61684W        W34109  20.559  35.867   4.206
61685W        W34110  21.094  18.720   5.210
61686W        W34111   1.236  37.522   2.219
61687W        W34112   2.250   9.332  14.964
61688W        W34113  12.808  28.516  12.470
61689W        W34114   3.722   5.271   1.363
61690W        W34115  35.493  34.486   0.315
61691W        W34116  38.337  42.939  10.415
61692W        W34117  31.039  33.471   0.966
61693W        W34118   4.446   3.849   2.394
61694W        W34119  40.507  26.130  12.393
61695W        W34120  24.546  27.457   2.261
61696W        W34121   9.866  44.412   3.283
61697W        W34122  16.174  21.133  13.916
61698W        W34123  29.514  30.497  10.027
61699W        W34124  13.212  33.572  11.043
61700W        W34125  21.025  28.167   0.797
61701W        W34126   1.811  36.031   1.284
61702W        W34127   6.889  14.124   4.349
61703W        W34128  34.453  44.799   1.775
61704W        W34129  37.962  21.093  13.389
61705W        W34130   0.867   5.267   2.354
61706W        W34131  11.687  40.429  12.877
61707W        W34132  36.073  33.423  12.417
61708W        W34133  33.014  39.502   2.713
61709W        W34134  22.024  19.248   4.676
61710W        W34135  42.426  19.550   0.729
61711W        W34136   5.287  19.152  14.319
61712W        W34137   1.865  35.568  14.891
61713W        W34138   2.399  44.346  13.798
61714W        W34139  10.217  40.040  13.481
61715W        W34140  24.680   4.722   3.660
61716W        W34141   3.861  10.251  13.909
61717W        W34142  43.469  23.136  13.844
61718W        W34143  14.211  12.715  10.492
61719W        W34144  21.511   8.389  13.415
61720W        W34145  44.475  23.541  10.444
61721W        W34146  23.113  26.489  14.860
61722W        W34147  27.631   7.777   1.836
61723W        W34148   5.426   7.192   1.254
61724W        W34149  29.475  40.935  10.578
61725W        W34150  20.659  35.452   1.230
61726W        W34151  24.099  20.584  12.355
61727W        W34152   3.242  44.948  14.764
61728W        W34153  43.912  25.567  10.527
61729W        W34154  37.008  19.632   3.205
61730W        W34155  23.705  40.891   0.421
61731W        W34156  33.026  39.344   0.466
61732W        W34157  29.109  19.606  10.633
61733W        W34158  16.696   6.255  13.047
61734W        W34159  30.634  32.888   3.647
61735W        W34160  19.754  38.384   1.390
61736W        W34161  22.011  27.974  14.916
61737W        W34162  27.101   7.312   5.265
61738W        W34163  31.517   0.260  12.512
61739W        W34164  10.728  17.251  11.601
61740W        W34165  20.717   9.199   1.814
61741W        W34166  28.058  13.666   4.678
61742W        W34167  40.945  35.371   4.658
61743W        W34168  23.084  10.225  13.543
61744W        W34169  24.628  19.233   2.282
61745W        W34170  31.489  38.023   3.730
61746W        W34171   0.296  35.969  13.503
61747W        W34172   3.885  11.223   0.333
61748W        W34173  44.346   9.773  14.792
61749W        W34174  21.578   7.249  13.387
61750W        W34175   2.338  17.776   0.416
61751W        W34176  41.001  27.026  14.334
61752W        W34177  31.505   3.430   1.695
61753W        W34178  35.858  10.246   0.264
61754W        W34179   2.386  13.658  11.970
61755W        W34180   9.670  15.125  11.422
61756W        W34181  21.238  38.980  11.018
61757W        W34182  36.075  24.610   0.473
61758W        W34183  13.214  10.252  13.466
61759W        W34184  40.846  30.418  11.017
61760W        W34185  21.690  33.400   1.319
61761W        W34186  35.520   9.329   3.650
61762W        W34187  18.234  18.660  10.917
61763W        W34188  20.156   1.847  11.502
61764W        W34189  39.489  11.159   3.856
61765W        W34190  43.405  26.062  12.511
61766W        W34191  42.501  16.712  13.851
61767W        W34192  15.153  24.569  12.016
61768W        W34193  13.309  31.639   2.394
61769W        W34194  27.558  37.540  10.465
61770W        W34195  44.280   9.191   2.367
61771W        W34196  19.163  12.135  12.525
61772W        W34197  41.033  28.116  11.953
61773W        W34198  44.912   0.319  11.115
61774W        W34199  15.640  28.437  14.018
61775W        W34200  33.528  12.687   1.760
61776W        W34201  38.554  37.367   0.344
61777W        W34202  28.506  35.048  10.887
61778W        W34203   0.348   0.755  12.883
61779W        W34204  39.870  16.594  11.495
61780W        W34205  37.380  16.113   0.386
61781W        W34206  20.569  30.035   1.935
61782W        W34207  28.178  12.323   4.127
61783W        W34208  35.461  30.482  12.388
61784W        W34209  21.158  34.100  14.995
61785W        W34210   5.746   2.295   1.337
61786W        W34211  28.645  43.359  12.898
61787W        W34212  24.193  29.497   1.857
61788W        W34213   2.306  43.419   0.736
61789W        W34214   3.350  19.664  10.476
61790W        W34215  19.168  43.307  14.000
61791W        W34216   4.300   2.826  12.369
61792W        W34217   5.910  31.469  14.009
61793W        W34218  30.984   2.952   3.702
61794W        W34219  35.055   0.474  11.466
61795W        W34220  23.236   9.803  13.361
61796W        W34221  38.336  44.393   0.933
61797W        W34222  23.502  23.704  13.022
61798W        W34223  14.156  32.637  14.377
61799W        W34224  17.184  26.195  14.760
61800W        W34225  25.549  10.835   2.809
61801W        W34226   9.695   5.859  14.274
61802W        W34227  41.448  14.718   3.262
61803W        W34228  12.749   4.400  11.077
61804W        W34229  17.246  11.735  14.868
61805W        W34230  31.949  42.362  13.458
61806W        W34231  44.997  30.134  12.017
61807W        W34232  33.924  20.086   2.226
61808W        W34233  36.489   9.171   2.283
61809W        W34234  31.519   7.230  10.984
61810W        W34235  43.904  29.625  14.461
61811W        W34236  18.121   1.853  14.869
61812W        W34237   3.411  27.122  10.556
61813W        W34238  37.999  30.466  13.398
61814W        W34239  39.812  28.653  10.428
61815W        W34240   0.464   2.774   1.315
61816W        W34241  15.294  18.776  14.414
61817W        W34242  40.490  43.951  12.032
61818W        W34243  27.087  42.325   2.357
61819W        W34244  32.975  24.531  11.524
61820W        W34245  20.266  12.838  13.417
61821W        W34246  32.921   5.738  13.854
61822W        W34247  44.855  37.336   9.992
61823W        W34248  38.568  40.012  14.978
61824W        W34249  12.181  23.027  11.601
61825W        W34250  43.992  35.443   1.788
61826W        W34251   2.861  42.803   1.215
61827W        W34252  21.165  42.440   4.163
61828W        W34253  10.250  20.638   1.228
61829W        W34254  19.172  12.740  11.537
61830W        W34255  26.007  23.116  12.343
61831W        W34256   3.712  35.001   4.816
61832W        W34257  40.522  41.022  11.078
61833W        W34258  24.531  24.012  13.424
61834W        W34259  30.931  19.623  12.389
61835W        W34260  17.131  40.945  13.937
61836W        W34261   8.206  32.025   4.131
61837W        W34262  18.240  43.981  10.459
61838W        W34263  42.336  42.326   1.308
61839W        W34264  27.616  36.432  14.432
61840W        W34265  28.657  31.496   3.651
61841W        W34266  34.039   4.282  12.860
61842W        W34267  17.236  32.937   3.683
61843W        W34268   3.755  44.268   0.963
61844W        W34269  40.026   8.695  12.451
61845W        W34270  16.756  32.027  14.846
61846W        W34271  12.841  15.790  12.454
61847W        W34272  12.267  21.242   3.630
61848W        W34273  44.768   5.271   3.336
61849W        W34274  22.058   3.361  13.027
61850W        W34275  16.751  19.196  12.091
61851W        W34276  42.854   2.391  12.044
61852W        W34277  24.614  17.717  12.832
61853W        W34278  15.722  17.603   3.857
61854W        W34279  17.163  41.873  14.506
61855W        W34280   1.416  44.276  13.471
61856W        W34281  29.154  11.850  10.950
61857W        W34282  40.402  15.605  14.497
61858W        W34283  11.745  22.735  14.834
61859W        W34284  29.430   1.765   2.369
61860W        W34285  41.294   1.932  11.500
61861W        W34286  30.020  35.928  12.366
61862W        W34287  22.548  29.468  11.568
61863W        W34288  25.208  27.118  10.635
61864W        W34289  12.773  19.117   4.128
61865W        W34290  15.810  39.526  14.873
61866W        W34291  17.699  13.230  12.872
61867W        W34292   5.233  11.246  14.766
61868W        W34293  28.184  32.088   2.809
61869W        W34294  21.080  22.222   1.785
61870W        W34295  13.642  39.029  13.347
61871W        W34296  21.067   1.898   0.889
61872W        W34297  26.630  41.337   3.361
61873W        W34298  11.352  11.240   0.355
61874W        W34299  13.113  31.925  10.149
61875W        W34300   5.837  36.031  12.457
61876W        W34301   2.351  28.448  11.992
61877W        W34302   2.722  21.653  14.414
61878W        W34303  10.710   4.912   1.319
61879W        W34304   1.813  39.502   0.395
61880W        W34305  33.984   5.873   4.778
61881W        W34306   9.387   1.810   5.289
61882W        W34307  10.822   2.815   4.149
61883W        W34308  41.477   5.379   0.951
61884W        W34309  11.137  30.907  13.040
61885W        W34310  41.304  34.564  13.833
61886W        W34311  33.946   3.438  14.335
61887W        W34312  26.064  33.937   4.832
61888W        W34313  12.130  39.512   1.370
61889W        W34314  44.456   0.384   1.879
61890W        W34315   1.827  20.101   3.192
61891W        W34316   6.228   6.412   0.468
61892W        W34317  25.029  30.558  12.526
61893W        W34318  18.077  25.627  14.497
61894W        W34319  23.554  41.817  12.082
61895W        W34320   7.287   2.966  14.431
61896W        W34321  23.593   9.185   2.667
61897W        W34322  23.586  11.643  13.965
61898W        W34323  23.043   2.457   1.277
61899W        W34324  31.053  21.593  13.547
61900W        W34325  42.398  24.100  14.820
61901W        W34326  29.449   1.754   1.378
61902W        W34327  12.118  27.077   1.223
61903W        W34328  11.667  36.079   2.405
61904W        W34329  15.224  32.550   3.378
61905W        W34330   0.421   1.458   4.674
61906W        W34331  21.634  12.768  12.554
61907W        W34332  44.844  21.745   2.397
61908W        W34333   6.300  28.472  14.345
61909W        W34334  31.088  13.676  11.090
61910W        W34335   7.889  29.164  10.986
61911W        W34336  14.766  22.091  13.455
61912W        W34337  38.365  12.237  14.793
61913W        W34338  27.000   8.402   1.357
61914W        W34339  20.228  43.461   4.266
61915W        W34340  20.531   4.276   4.623
61916W        W34341   3.784  20.732  11.107
61917W        W34342  30.654  36.546   0.816
61918W        W34343  35.007  39.048   1.828
61919W        W34344  30.036   7.701   3.290
61920W        W34345  36.041  11.336   3.353
61921W        W34346  41.946  31.497  13.444
61922W        W34347  22.007   3.749  13.028
61923W        W34348  20.075  17.169  11.962
61924W        W34349  18.692  19.096   3.359
61925W        W34350   3.336  41.891   1.909
61926W        W34351  25.062  42.816   1.713
61927W        W34352  35.433  32.020   0.793
61928W        W34353  22.693  30.117  13.343
61929W        W34354   4.349  24.126  10.469
61930W        W34355   4.841  22.145   2.724
61931W        W34356  31.515   9.819  11.094
61932W        W34357  21.104  32.899   0.920
61933W        W34358  36.911   1.373   4.329
61934W        W34359  24.573  40.459  12.362
61935W        W34360  24.186   0.881   2.354
61936W        W34361  28.625  33.523  10.944
61937W        W34362  39.025  35.535  13.988
61938W        W34363  41.303  36.519  13.795
61939W        W34364  13.226  19.104  11.450
61940W        W34365  31.976  22.509   3.311
61941W        W34366  10.710  26.671  14.937
61942W        W34367  32.969  12.801   3.377
61943W        W34368   6.911  10.852  12.511
61944W        W34369   7.198  34.387  13.335
61945W        W34370   3.725   9.321  12.466
61946W        W34371  34.533  27.631  10.524
61947W        W34372  42.428  15.791  12.996
61948W        W34373   7.808  30.072   4.786
61949W        W34374  25.656   5.864  11.010
61950W        W34375   9.864  44.356   4.115
61951W        W34376  12.312  32.105  14.809
61952W        W34377  42.814   1.881   0.265
61953W        W34378  19.285  13.116   4.826
61954W        W34379  17.106   4.378  11.967
61955W        W34380  40.857   4.879   3.262
61956W        W34381  11.310   3.257  12.069
61957W        W34382   6.909  27.561  14.971
61958W        W34383  38.946  16.287   3.301
61959W        W34384  20.141  19.646  14.991
61960W        W34385  29.450  34.609  12.540
61961W        W34386  38.840  32.462  11.978
61962W        W34387  43.321  26.666  13.307
61963W        W34388  37.830   9.846   4.285
61964W        W34389  30.119  43.875  13.915
61965W        W34390  14.293  17.285  14.907
61966W        W34391  17.173  28.138   3.675
61967W        W34392   5.228  12.123   2.692
61968W        W34393   8.213  28.181  14.800
61969W        W34394  29.042  34.601   0.355
61970W        W34395  32.429  13.618  12.992
61971W        W34396  15.620   7.212  10.508
61972W        W34397   2.270  18.573  11.961
61973W        W34398  27.185  12.256  14.459
61974W        W34399  18.061  32.497  14.875
61975W        W34400   5.700  40.001  12.976
61976W        W34401   5.363  12.817  12.427
61977W        W34402  13.731  36.410   4.728
61978W        W34403  12.233  37.980   3.329
61979W        W34404  23.992  23.058  10.893
61980W        W34405  18.686  38.919  13.058
61981W        W34406  31.570  17.797   4.227
61982W        W34407   1.819   5.801  10.967
61983W        W34408  37.024  25.561  10.444
61984W        W34409  22.177   9.657   5.235
61985W        W34410  29.020  17.771   0.326
61986W        W34411  39.318  30.587   0.379
61987W        W34412  10.722  10.237  11.880
61988W        W34413  28.470  35.936   1.307
61989W        W34414  21.625  35.033  10.565
61990W        W34415   0.438   6.685   1.769
61991W        W34416  39.318  38.822   3.640
61992W        W34417   4.887  23.009  12.396
61993W        W34418  36.018  21.106  13.440
61994W        W34419  17.710  37.991   1.306
61995W        W34420  23.621  39.054  11.571
61996W        W34421   2.260  31.912   4.604
61997W        W34422   8.850   0.337  14.804
61998W        W34423  30.969   2.296   0.320
61999W        W34424  18.597  44.289  14.842
62000W        W34425  14.285  17.559   3.241
62001W        W34426  39.371   3.872  13.053
62002W        W34427  23.128   6.865  11.914
62003W        W34428  38.528  42.348   2.686
62004W        W34429  30.059   9.352  11.426
62005W        W34430   7.200  11.303   2.687
62006W        W34431  20.208  22.144   3.200
62007W        W34432  14.731  30.923  13.544
62008W        W34433   7.340  43.998   3.198
62009W        W34434  11.339  11.288   2.834
62010W        W34435   5.860  29.471   1.325
62011W        W34436  13.636   3.444  12.021
62012W        W34437  35.403  23.593   1.915
62013W        W34438  19.755  29.557   2.186
62014W        W34439  31.468   6.191   0.391
62015W        W34440  22.506  35.561   2.878
62016W        W34441   1.946  31.577   3.802
62017W        W34442  19.205  36.872   4.297
62018W        W34443  29.580  26.161  11.092
62019W        W34444  34.490   9.865  14.310
62020W        W34445   0.956  42.380   4.296
62021W        W34446  43.871  40.331   3.869
62022W        W34447   6.870   8.394  13.535
62023W        W34448  43.470  24.982   3.680
62024W        W34449  11.732  26.495   0.312
62025W        W34450  25.054  15.310   0.378
62026W        W34451  42.950  27.992  10.432
62027W        W34452  44.906  30.642  14.363
62028W        W34453  44.846  28.527   0.763
62029W        W34454  41.440  39.458   3.250
62030W        W34455   5.797  26.055   1.318
62031W        W34456  19.685   9.862   0.890
62032W        W34457  44.866  26.462   3.735
62033W        W34458  29.635  30.075  14.336
62034W        W34459  15.130  40.946   3.370
62035W        W34460  40.915  27.149  12.419
62036W        W34461  19.665  17.722   3.299
62037W        W34462  25.653  14.645  13.965
62038W        W34463  34.074   7.305  13.956
62039W        W34464  39.450  38.860  10.412
62040W        W34465  11.859   9.257  11.100
62041W        W34466  44.445   7.195  13.042
62042W        W34467   2.926   0.951  12.384
62043W        W34468  29.568  19.164   0.249
62044W        W34469  37.354  17.178   5.211
62045W        W34470   8.284  13.212  11.388
62046W        W34471  16.128  35.890   3.690
62047W        W34472  29.016  29.666   0.751
62048W        W34473  22.228   5.288   1.781
62049W        W34474   9.291  25.661  11.427
62050W        W34475  32.051   7.689   1.371
62051W        W34476  25.175  28.489   0.948
62052W        W34477  13.340  38.866   5.102
62053W        W34478  20.054  39.890  14.943
62054W        W34479  14.767   6.210   3.630
62055W        W34480  29.488  12.682  12.020
62056W        W34481  21.696  13.123  12.957
62057W        W34482   0.394  24.084   3.153
62058W        W34483  16.722  33.100   3.691
62059W        W34484  13.823   1.349   4.224
62060W        W34485  18.291  20.100   0.799
62061W        W34486  24.068  40.976   1.253
62062W        W34487  31.003  31.980   3.335
62063W        W34488   6.889  31.621   1.837
62064W        W34489  30.516  25.968  14.323
62065W        W34490  32.139  39.813  11.553
62066W        W34491  21.686  39.861   1.391
62067W        W34492  11.727   0.750  14.440
62068W        W34493  18.288   4.371  13.060
62069W        W34494  27.985  30.653   3.253
62070W        W34495  25.572  33.583  11.999
62071W        W34496  19.567  35.859   1.736
62072W        W34497  14.678  29.989   2.852
62073W        W34498  41.037  42.313  14.346
62074W        W34499  18.683   7.409   2.216
62075W        W34500  36.520   1.883  13.382
62076W        W34501   8.194  25.505  13.008
62077W        W34502  35.568  30.022   0.397
62078W        W34503  14.798  21.732  12.059
62079W        W34504  21.548  12.225  11.873
62080W        W34505  33.514  30.533   3.865
62081W        W34506  23.520  19.774   4.624
62082W        W34507  44.867  33.957   5.087
62083W        W34508  37.504   7.172   4.308
62084W        W34509  43.373   7.819  10.453
62085W        W34510   6.839   9.320   3.754
62086W        W34511  15.727   7.257   3.661
62087W        W34512  22.131   0.328   3.329
62088W        W34513  26.630  11.815   3.701
62089W        W34514  29.141  36.376  11.925
62090W        W34515  33.434  10.730   2.789
62091W        W34516  23.732  40.894   4.201
62092W        W34517  42.442  27.988  10.477
62093W        W34518   1.476  15.598   4.204
62094W        W34519  38.889  41.843   9.976
62095W        W34520   5.364   2.345   1.267
62096W        W34521  10.340  39.868   1.818
62097W        W34522  41.039  15.604   1.736
62098W        W34523   2.397  36.939   3.638
62099W        W34524  24.504  23.634  10.457
62100W        W34525  14.590  37.845  14.286
62101W        W34526   7.844  22.169   4.113
62102W        W34527  41.969  30.966  12.985
62103W        W34528  41.000   9.729   2.185
62104W        W34529   6.194  42.803   3.260
62105W        W34530  34.014  28.120  14.495
62106W        W34531   3.803  44.949   0.479
62107W        W34532   9.257  29.549  11.892
62108W        W34533   8.673  43.880  13.918
62109W        W34534  14.120  40.416   0.852
62110W        W34535  41.014  36.992   4.704
62111W        W34536  23.092  40.964  14.778
62112W        W34537  13.130   9.792   2.665
62113W        W34538  12.354  44.269  10.506
62114W        W34539  39.023  41.358  11.058
62115W        W34540  11.859  44.433   2.390
62116W        W34541   5.316  44.943   3.639
62117W        W34542  39.352  29.030  13.486
62118W        W34543   5.845  12.174  12.020
62119W        W34544  17.162  10.695   4.276
62120W        W34545  37.993  12.312   3.743
62121W        W34546  39.825  11.366  12.873
62122W        W34547  36.492   4.755  11.976
62123W        W34548  18.222  35.084   1.416
62124W        W34549   0.984  27.053   1.262
62125W        W34550  14.096  36.392  10.991
62126W        W34551  31.127  25.595   2.319
62127W        W34552   8.205  19.706   4.787
62128W        W34553  37.017  20.593  10.898
62129W        W34554   3.862  42.876   4.645
62130W        W34555  34.029  29.483  13.499
62131W        W34556  21.521   4.256  13.891
62132W        W34557   1.797   7.721   2.870
62133W        W34558   7.855  34.012   3.344
62134W        W34559   2.363  24.057  14.308
62135W        W34560  17.287  33.465  12.350
62136W        W34561  36.960   4.758   3.813
62137W        W34562   5.766  44.343  12.086
62138W        W34563   4.215  22.679   4.633
62139W        W34564  18.185  40.425   0.304
62140W        W34565  28.181  24.652   0.870
62141W        W34566   4.313  30.063   1.799
62142W        W34567  38.854  15.756  14.991
62143W        W34568  16.293  36.060   0.778
62144W        W34569  15.270   3.798  13.005
62145W        W34570  12.670  11.289   2.695
62146W        W34571  44.400   6.320  14.820
62147W        W34572  18.640  40.945  12.958
62148W        W34573  18.234   7.223  11.856
62149W        W34574   1.391   7.905  13.496
62150W        W34575  37.935  30.100  13.983
62151W        W34576  32.937  29.525  13.845
62152W        W34577  43.824   7.247   0.247
62153W        W34578  14.615  20.634  12.992
62154W        W34579  35.578  10.840   2.702
62155W        W34580   9.177   4.292  11.375
62156W        W34581  14.732  32.530   5.266
62157W        W34582  24.586  13.341   0.288
62158W        W34583  15.329   0.338   1.761
62159W        W34584  42.972  43.854  12.837
62160W        W34585   8.389  25.188  13.322
62161W        W34586  24.034  34.576  12.009
62162W        W34587  10.725  13.190  11.105
62163W        W34588  38.381  42.945   2.212
62164W        W34589  34.426  29.573  12.089
62165W        W34590  19.250   0.913  10.519
62166W        W34591  11.146  30.925   2.685
62167W        W34592  29.075  25.173   3.795
62168W        W34593  39.495  35.526  14.807
62169W        W34594  11.176   1.873  11.037
62170W        W34595  32.126  21.743   1.234
62171W        W34596  30.071  21.573   0.463
62172W        W34597  29.920  17.218   1.353
62173W        W34598  34.094  41.789   2.878
62174W        W34599  27.094  30.593  13.312
62175W        W34600  34.941  25.006  11.102
62176W        W34601  28.967  43.940  10.610
62177W        W34602   7.817  26.685   4.347
62178W        W34603   7.184  10.301  14.825
62179W        W34604  44.940  22.007  14.954
62180W        W34605   2.265  20.650   3.345
62181W        W34606  10.184  28.059  11.582
62182W        W34607   3.218   6.758   3.846
62183W        W34608  14.759  31.592   1.880
62184W        W34609  31.113   3.772  10.608
62185W        W34610  40.808  14.755  12.368
62186W        W34611   1.898  15.739   4.811
62187W        W34612  18.711  12.778  10.025
62188W        W34613  16.729  43.872  14.871
62189W        W34614   5.290  17.305  10.539
62190W        W34615   6.831  21.561   4.758
62191W        W34616   2.965  15.712   0.947
62192W        W34617  39.506  20.173  12.872
62193W        W34618  30.111  25.019   0.785
62194W        W34619  23.992   7.358   3.702
62195W        W34620  37.508  25.569  14.501
62196W        W34621  24.098  33.891  13.971
62197W        W34622  32.519   0.370  14.800
62198W        W34623   9.270  36.519  11.476
62199W        W34624  35.864   7.675  12.350
62200W        W34625  12.739   6.202  11.555
62201W        W34626  33.101  11.687  14.974
62202W        W34627   3.372  40.014  11.042
62203W        W34628  29.110  43.436   4.624
62204W        W34629  44.783  11.350   4.770
62205W        W34630  17.759   6.760  14.872
62206W        W34631  32.945  14.682   0.444
62207W        W34632   6.279  37.848   1.722
62208W        W34633  23.147  15.133  13.475
62209W        W34634   3.801  20.615  12.459
62210W        W34635  18.588  20.666  13.822
62211W        W34636   8.798  10.336   2.297
62212W        W34637  31.514  13.228   1.934
62213W        W34638  30.637  21.571  10.644
62214W        W34639  38.956  41.325  10.608
62215W        W34640  42.402  11.640   1.278
62216W        W34641  15.088  40.516  14.855
62217W        W34642   0.769  44.917   4.156
62218W        W34643  25.537  36.061   3.377
62219W        W34644  44.962  19.236   2.262
62220W        W34645  23.704  10.199   3.165
62221W        W34646  10.183  19.282  12.905
62222W        W34647  40.055  41.479   3.713
62223W        W34648   0.482  43.874   4.246
62224W        W34649  42.821  22.241   5.791
62225W        W34650   4.883  10.853   3.223
62226W        W34651  13.296  39.523   3.659
62227W        W34652  41.519   1.820   0.328
62228W        W34653  19.271  37.458  12.481
62229W        W34654  23.679  41.883  12.579
62230W        W34655  29.633  42.347  11.054
62231W        W34656   1.239  28.500  12.429
62232W        W34657  18.727  42.017  12.573
62233W        W34658  30.078  34.466   3.869
62234W        W34659  37.446   7.761   2.742
62235W        W34660  24.692  15.207  10.516
62236W        W34661  23.122  11.141  11.918
62237W        W34662  38.566   1.382  14.459
62238W        W34663  31.533  16.676   2.361
62239W        W34664   6.809  42.965   1.813
62240W        W34665  42.904  20.699   3.306
62241W        W34666  32.922  23.555   4.268
62242W        W34667  33.602  11.141  12.956
62243W        W34668   7.357  29.124  13.917
62244W        W34669  29.981   9.838   0.866
62245W        W34670  14.674  22.732   4.279
62246W        W34671  21.249  25.573  14.387
62247W        W34672  43.515  26.616  12.934
62248W        W34673  19.115  18.200   0.955
62249W        W34674  11.778  32.074  12.086
62250W        W34675  10.260  37.523  13.914
62251W        W34676  16.800  27.552  12.968
62252W        W34677  13.820  13.199   4.204
62253W        W34678  19.725   5.402   1.845
62254W        W34679   7.213   3.758  12.410
62255W        W34680  20.577  28.644   2.288
62256W        W34681  32.975  28.154  12.859
62257W        W34682  44.760  21.621   4.760
62258W        W34683  17.228  24.990   9.966
62259W        W34684  36.545  36.919   3.353
62260W        W34685   7.682   1.410  14.515
62261W        W34686  16.205  11.155   4.324
62262W        W34687   2.416  26.175  13.445
62263W        W34688  20.741  22.597   1.291
62264W        W34689  36.844   7.229   0.896
62265W        W34690  31.077  42.313   3.860
62266W        W34691  16.575  35.398  14.485
62267W        W34692   3.431  16.738   0.781
62268W        W34693  31.564  20.548   2.808
62269W        W34694   8.878   9.300  13.489
62270W        W34695  19.249  19.166  14.021
62271W        W34696  34.407   6.198   4.637
62272W        W34697   3.828  21.721   2.735
62273W        W34698  26.589  24.650  14.346
62274W        W34699   9.253   1.894   3.837
62275W        W34700  15.590   2.370  11.602
62276W        W34701  30.477  23.569   3.228
62277W        W34702  16.254  13.720   3.632
62278W        W34703   2.828   2.228  14.990
62279W        W34704  17.712  21.244  14.947
62280W        W34705  26.204  11.327   3.368
62281W        W34706  36.024   3.445   3.718
62282W        W34707  14.110  29.099   0.262
62283W        W34708  44.817  30.079   1.898
62284W        W34709   7.307  30.058   0.806
62285W        W34710  26.544  16.206   0.255
62286W        W34711  18.759  12.132  14.348
62287W        W34712   1.748  30.937   1.350
62288W        W34713  27.950   2.729   4.812
62289W        W34714   2.378  18.753   2.219
62290W        W34715  24.094  29.429  11.035
62291W        W34716  29.611  15.284  10.622
62292W        W34717  39.331   8.751  12.019
62293W        W34718  40.342   4.740   0.957
62294W        W34719   2.768  34.042   0.790
62295W        W34720  26.194   1.457   0.304
62296W        W34721   9.663  39.332  14.793
62297W        W34722  42.907  22.242   0.369
62298W        W34723  23.537  34.441   3.768
62299W        W34724  12.708  28.943   0.822
62300W        W34725   3.350  29.637  11.597
62301W        W34726   5.437  24.986  12.555
62302W        W34727  28.573  33.497  13.835
62303W        W34728  14.238  33.948  12.026
62304W        W34729  25.964  44.499  11.896
62305W        W34730  35.905   0.859   4.821
62306W        W34731  26.974  34.459   4.617
62307W        W34732  26.533  40.431  13.336
62308W        W34733  42.775  30.538  13.834
62309W        W34734  32.078   4.361   5.168
62310W        W34735  36.097  34.891   3.778
62311W        W34736  38.447  41.438   0.854
62312W        W34737  35.475  15.769   3.322
62313W        W34738  12.299   8.744  12.053
62314W        W34739   0.353  10.741  11.048
62315W        W34740  27.533   9.253  12.528
62316W        W34741  16.708  25.216   2.701
62317W        W34742  23.660  16.807  14.840
62318W        W34743   9.712  21.224   4.218
62319W        W34744  43.900   0.818  10.890
62320W        W34745  19.094  35.477   0.340
62321W        W34746   0.273   1.842   1.279
62322W        W34747   0.962  29.540  11.103
62323W        W34748  42.403  16.087   3.206
62324W        W34749  22.737  22.663  14.916
62325W        W34750   2.389  13.611  14.795
62326W        W34751  32.445  11.167  11.996
62327W        W34752  15.224  38.027   2.832
62328W        W34753  37.531   9.164  13.408
62329W        W34754  29.148  35.943  12.358
62330W        W34755  27.192  40.943   4.277
62331W        W34756   2.391  12.309   4.336
62332W        W34757  38.942  37.019   3.175
62333W        W34758  11.643  13.735  14.013
62334W        W34759  29.122  38.409  14.003
62335W        W34760   9.311  34.376  13.919
62336W        W34761   9.875  12.633   3.688
62337W        W34762  16.707  12.651  13.923
62338W        W34763   6.221  13.349   1.866
62339W        W34764  10.351   8.856  10.432
62340W        W34765  29.139  11.280  13.058
62341W        W34766  16.090  17.132  12.937
62342W        W34767   2.332  20.071  13.339
62343W        W34768   1.839  15.329  14.912
62344W        W34769  18.206  27.556   3.308
62345W        W34770  14.339  21.722  12.934
62346W        W34771  29.590   0.934  13.837
62347W        W34772   9.709  31.981  10.538
62348W        W34773   1.389  42.459  10.993
62349W        W34774   1.278  17.216  10.905
62350W        W34775  23.695  27.178   1.365
62351W        W34776  10.242   4.417   1.778
62352W        W34777  41.903  28.161   0.299
62353W        W34778  15.778  20.032  13.973
62354W        W34779  15.283  36.071  11.867
62355W        W34780  43.906   4.835   3.222
62356W        W34781  17.645   2.304  14.352
62357W        W34782  24.204   1.440   4.335
62358W        W34783  11.159  15.811   0.404
62359W        W34784  24.598   6.786  12.897
62360W        W34785  18.772  42.001  14.812
62361W        W34786  12.821  23.592  12.382
62362W        W34787  26.078  20.149  12.354
62363W        W34788  16.679  14.741  13.528
62364W        W34789  44.379  22.011  10.429
62365W        W34790  21.617  35.900   3.161
62366W        W34791   3.891   6.837   0.901
62367W        W34792  11.352  37.548   2.266
62368W        W34793   2.728   6.710   4.738
62369W        W34794  18.086  43.811   1.867
62370W        W34795  40.466  29.538   1.768
62371W        W34796   6.684  13.609   3.157
62372W        W34797  17.293  27.593   0.742
62373W        W34798  28.458  13.795   3.856
62374W        W34799  18.549  28.606  14.856
62375W        W34800  34.561  38.415  10.585
62376W        W34801  32.627  30.586   3.772
62377W        W34802  43.917  12.284  10.498
62378W        W34803  41.879  18.717   3.265
62379W        W34804  35.430  18.121  10.561
62380W        W34805  16.258   5.863   2.399
62381W        W34806   0.744  11.661   2.777
62382W        W34807  34.010   0.840  11.934
62383W        W34808   6.278  28.579  11.549
62384W        W34809  17.745   4.325  12.457
62385W        W34810  30.064  15.285   4.202
62386W        W34811   1.411  41.491  14.300
62387W        W34812  42.001  34.451  13.511
62388W        W34813   2.291  38.410   3.206
62389W        W34814  18.222   5.707  11.054
62390W        W34815  27.977  24.697  14.029
62391W        W34816  33.944  37.388  11.556
62392W        W34817  20.670  14.128   4.781
62393W        W34818   9.293  38.851   4.734
62394W        W34819  27.511  38.928  12.393
62395W        W34820   1.308  35.388   2.367
62396W        W34821  21.576  26.038   4.785
62397W        W34822  19.139   3.792   3.193
62398W        W34823  40.429  17.796  14.358
62399W        W34824  16.663  19.241  11.569
62400W        W34825  30.526  41.838   5.608
62401W        W34826  10.857  12.122  10.414
62402W        W34827  34.973  39.529   0.827
62403W        W34828  23.604  14.195  10.611
62404W        W34829  34.604  29.035   1.791
62405W        W34830  40.008  38.352  10.576
62406W        W34831  36.479  34.604   0.921
62407W        W34832  39.525  32.428   1.311
62408W        W34833  14.132  20.037  12.514
62409W        W34834  16.678   1.732   3.248
62410W        W34835  33.069   8.196  11.564
62411W        W34836  33.569  15.168  12.382
62412W        W34837  36.591   2.463  11.388
62413W        W34838  23.501   3.270  13.906
62414W        W34839  28.061   9.757   3.756
62415W        W34840  44.314  29.069  14.925
62416W        W34841  34.546  10.827  14.329
62417W        W34842  34.600  29.611  10.932
62418W        W34843  26.674   0.397  10.935
62419W        W34844  37.525  42.937   4.166
62420W        W34845  37.391  17.227  11.023
62421W        W34846   9.192   9.848   3.364
62422W        W34847  11.747   5.761  13.049
62423W        W34848  33.581   8.872   1.694
62424W        W34849  14.229  19.774   1.323
62425W        W34850  39.913  13.326  14.893
62426W        W34851  22.108   5.794   3.315
62427W        W34852   5.871   4.250  11.082
62428W        W34853   2.368  25.008  10.994
62429W        W34854  14.595  10.218  12.384
62430W        W34855  28.454  24.181  13.410
62431W        W34856  19.599  30.548  11.035
62432W        W34857   0.357  15.657   3.171
62433W        W34858  16.596   4.308   4.283
62434W        W34859  26.181   9.863  13.518
62435W        W34860   4.710   6.227   1.707
62436W        W34861  15.247  21.701  14.415
62437W        W34862  42.851  44.475  12.885
62438W        W34863  19.743  17.125  12.958
62439W        W34864   9.827  15.746   2.259
62440W        W34865   8.802  42.359   3.362
62441W        W34866  32.430   2.412  13.346
62442W        W34867  28.093   6.811  11.022
62443W        W34868  10.784   1.753   0.739
62444W        W34869  31.644  24.066   3.764
62445W        W34870  28.945  43.842  14.932
62446W        W34871   9.853  25.696  14.403
62447W        W34872   3.826  21.126   0.861
62448W        W34873  34.528  21.129   3.867
62449W        W34874  28.177  14.683   1.239
62450W        W34875  41.391  14.162   4.278
62451W        W34876  15.588  10.271   5.276
62452W        W34877  33.623  15.323   4.662
62453W        W34878  31.503  10.706   4.165
62454W        W34879  35.016   2.375  12.575
62455W        W34880  13.230  19.095   2.393
62456W        W34881  11.243   1.945   3.357
62457W        W34882  24.107  13.190  12.873
62458W        W34883  41.912  35.864  13.312
62459W        W34884  20.595  37.454  10.468
62460W        W34885  38.048  32.573  11.035
62461W        W34886  42.515  12.192  12.428
62462W        W34887  15.183  23.212   3.322
62463W        W34888  11.631  29.552   4.127
62464W        W34889   2.752  30.643  12.950
62465W        W34890  24.567  22.081  13.442
62466W        W34891  19.154  38.934  10.625
62467W        W34892  39.957   6.425  14.911
62468W        W34893  16.100  10.360   2.286
62469W        W34894  29.616  19.240   1.697
62470W        W34895  17.758  22.100   4.708
62471W        W34896  34.371  12.619   0.243
62472W        W34897  14.165   9.389   3.378
62473W        W34898  35.856  20.238  10.416
62474W        W34899  14.109  43.868  14.823
62475W        W34900  34.396   6.880   0.880
62476W        W34901  37.461  10.644  12.468
62477W        W34902  23.217  11.652  12.374
62478W        W34903  24.093  36.067   4.717
62479W        W34904  15.619  32.090  13.471
62480W        W34905  36.586   3.850   4.183
62481W        W34906  42.407  36.425  10.907
62482W        W34907   3.828   9.205   0.299
62483W        W34908  25.018  32.136   1.427
62484W        W34909  35.367  27.515  11.900
62485W        W34910  42.858  35.566   3.286
62486W        W34911  24.702  15.239   1.917
62487W        W34912  11.350  20.667   3.285
62488W        W34913  43.906   4.785   4.124
62489W        W34914  30.108   7.194  10.605
62490W        W34915  28.654  26.134   4.780
62491W        W34916  43.012  25.519  14.291
62492W        W34917   6.767  43.955  11.940
62493W        W34918   0.255  11.714   1.235
62494W        W34919  13.244   5.930   2.746
62495W        W34920   1.334  10.253  11.948
62496W        W34921   9.160  25.467  13.997
62497W        W34922   8.718  38.490  11.609
62498W        W34923  22.736  34.040  14.900
62499W        W34924  26.980  29.449  14.762
62500W        W34925  42.408  15.637  13.349
62501W        W34926  27.683   4.217  13.946
62502W        W34927  25.637  23.513   2.829
62503W        W34928  38.461   9.695  14.817
62504W        W34929  38.887  18.784  12.478
62505W        W34930   4.247  13.186  14.997
62506W        W34931  32.112  20.689  10.633
62507W        W34932   7.223  30.025   1.724
62508W        W34933  13.642  32.528  11.051
62509W        W34934   8.258   5.300   4.268
62510W        W34935  39.471  10.137  12.537
62511W        W34936   2.443  14.215   3.331
62512W        W34937  19.039   0.254  12.957
62513W        W34938   1.883   2.737  13.339
62514W        W34939  29.451  43.503   3.282
62515W        W34940   5.239   6.294  14.279
62516W        W34941  24.201  26.180  11.418
62517W        W34942   3.332  14.279   0.420
62518W        W34943  12.679   3.273   1.884
62519W        W34944   7.185  42.850  10.499
62520W        W34945  40.051  40.475   4.184
62521W        W34946  41.035   0.457   0.375
62522W        W34947  19.780   7.827  13.839
62523W        W34948   0.959  42.931  11.944
62524W        W34949  31.600  23.126   5.303
62525W        W34950   9.196   7.725   4.817
62526W        W34951  37.919  33.931  10.621
62527W        W34952  21.724   6.737   3.147
62528W        W34953  43.995  24.140  12.048
62529W        W34954  33.884  10.153  14.915
62530W        W34955  16.234  20.581   0.249
62531W        W34956  33.106  25.041  12.884
62532W        W34957   6.852   7.831  13.842
62533W        W34958  25.564  34.586  14.410
62534W        W34959  40.348  21.599   1.290
62535W        W34960  16.154  23.024  14.392
62536W        W34961   8.694   9.238  11.077
62537W        W34962   3.219  22.691  11.919
62538W        W34963  10.254  41.437   0.802
62539W        W34964   7.692  13.212   2.849
62540W        W34965  38.386  17.765  12.051
62541W        W34966  10.640   1.266   2.868
62542W        W34967  38.436  15.086  13.825
62543W        W34968   2.867   1.913   1.241
62544W        W34969  16.174   5.264  14.294
62545W        W34970   8.809  22.646   1.311
62546W        W34971  16.172  31.998  14.912
62547W        W34972  19.209  29.511  13.532
62548W        W34973   2.280   2.409   4.134
62549W        W34974   6.825  30.420   4.179
62550W        W34975  23.178  12.123   0.863
62551W        W34976  32.053  44.276   1.694
62552W        W34977   7.315   5.375   0.736
62553W        W34978  21.570  44.895   3.263
62554W        W34979  29.567   7.804   0.297
62555W        W34980  24.016   4.750   3.633
62556W        W34981  25.122   2.759  10.494
62557W        W34982  23.702   7.342  12.016
62558W        W34983   7.302  24.611  12.348
62559W        W34984   0.771   9.261   0.785
62560W        W34985  33.598   0.340  10.609
62561W        W34986  34.083  28.983   3.674
62562W        W34987   3.797  34.969  12.513
62563W        W34988  14.232  21.664  11.401
62564W        W34989  42.505  21.034   1.743
62565W        W34990  30.418  22.630   4.348
62566W        W34991  21.648  17.268   0.911
62567W        W34992  28.101   4.939   1.895
62568W        W34993  41.505   6.242  13.814
62569W        W34994  13.220  35.456   0.358
62570W        W34995  37.526   7.387  12.081
62571W        W34996  10.753  41.436   0.849
62572W        W34997  21.576  14.154   0.379
62573W        W34998  44.386  15.681  12.986
62574W        W34999  29.508  18.667  14.868
62575W        W35000  11.716  16.617   4.780
62576W        W35001   5.247  22.125  10.919
62577W        W35002   3.351   6.911   4.793
62578W        W35003  35.490   8.722  12.054
62579W        W35004  43.326  16.164   3.730
62580W        W35005   8.806  17.802   3.708
62581W        W35006   3.297  10.807  14.836
62582W        W35007  14.302  13.189  10.466
62583W        W35008  37.501  29.082  14.936
62584W        W35009  33.881  13.331   0.257
62585W        W35010   9.389   2.352   2.803
62586W        W35011  40.407  34.484   1.797
62587W        W35012  42.895  31.470  12.092
62588W        W35013   1.880  20.655  10.617
62589W        W35014  11.264  10.863   4.202
62590W        W35015  31.043  39.061  11.395
62591W        W35016  22.034  25.687  12.498
62592W        W35017  13.132  37.950  12.561
62593W        W35018  30.479  31.991   3.260
62594W        W35019   2.933  31.501  10.939
62595W        W35020  39.314  25.664   1.226
62596W        W35021  30.444  22.084  14.504
62597W        W35022  39.866  23.673   3.856
62598W        W35023  23.610  30.073  11.867
62599W        W35024  30.611  36.937  14.302
62600W        W35025  14.593  43.938   2.220
62601W        W35026  23.140   9.860   0.307
62602W        W35027  25.591  42.340   4.167
62603W        W35028  29.470  15.810   2.339
62604W        W35029  22.703   9.355   5.244
62605W        W35030  35.934  26.173   1.740
62606W        W35031   4.264   7.841  10.521
62607W        W35032  12.160  44.002   2.723
62608W        W35033  31.039  18.103  10.045
62609W        W35034  10.165  25.536   1.381
62610W        W35035  22.552  18.788   0.349
62611W        W35036  22.686  43.487  14.304
62612W        W35037  32.079  10.246   4.303
62613W        W35038  37.898   7.695  14.418
62614W        W35039  31.603  26.570  13.362
62615W        W35040  25.114  40.433   4.153
62616W        W35041  15.711  37.394  12.350
62617W        W35042  40.481   3.869  12.875
62618W        W35043  18.636  40.538  12.082
62619W        W35044   2.772   2.441   0.935
62620W        W35045  42.404  28.616   2.746
62621W        W35046  11.254  25.503   1.812
62622W        W35047  16.242  41.800  14.304
62623W        W35048   5.931  13.332  12.470
62624W        W35049  15.125  17.677  10.940
62625W        W35050   3.383   6.256  13.912
62626W        W35051   4.420  32.584  12.404
62627W        W35052   8.840  25.102  11.528
62628W        W35053  38.029   1.367  12.568
62629W        W35054  36.558  15.753   4.795
62630W        W35055  27.035  17.079  14.885
62631W        W35056   4.440  22.747  10.582
62632W        W35057  40.009  40.375  13.348
62633W        W35058  42.912   5.211  14.904
62634W        W35059  34.374  30.656  14.771
62635W        W35060   8.735  36.482   2.333
62636W        W35061  25.116  28.949  12.435
62637W        W35062  29.000  18.104   2.802
62638W        W35063  20.227   4.208   2.269
62639W        W35064   1.256  30.072  12.965
62640W        W35065  16.187   1.364   0.899
62641W        W35066   7.388  18.548   2.681
62642W        W35067  31.461  23.155  12.557
62643W        W35068   3.891   1.396  13.836
62644W        W35069  28.959  21.119   4.646
62645W        W35070   0.807   5.926   3.647
62646W        W35071  18.219   9.874  10.543
62647W        W35072  41.924  30.145   4.237
62648W        W35073  43.426  43.506   4.324
62649W        W35074   5.382  43.313   0.789
62650W        W35075  24.515   5.801  14.819
62651W        W35076   6.230  31.013   1.905
62652W        W35077  36.911  14.701   3.344
62653W        W35078  21.108  23.726  12.481
62654W        W35079  38.365  21.744  10.936
62655W        W35080   7.707  16.787   2.684
62656W        W35081   7.840  27.648   2.406
62657W        W35082   6.189  42.804   0.774
62658W        W35083   6.767  10.149   2.329
62659W        W35084  42.926  37.520   4.634
62660W        W35085  32.023  17.598  13.437
62661W        W35086  27.124   2.776   3.708
62662W        W35087  21.749  39.344   0.414
62663W        W35088  14.131  42.925   1.273
62664W        W35089  25.488  24.636   1.760
62665W        W35090  41.321  32.551  11.069
62666W        W35091  16.221  23.585   2.258
62667W        W35092  35.495  24.664  11.015
62668W        W35093  13.641  38.934  11.451
62669W        W35094  33.421  28.667  12.077
62670W        W35095   3.718  40.320  13.412
62671W        W35096  15.280   6.909   3.206
62672W        W35097  33.033  22.007  13.418
62673W        W35098  37.960  31.570  13.314
62674W        W35099  34.483   6.814   0.325
62675W        W35100  26.078  22.046  12.396
62676W        W35101  38.894  37.362   2.829
62677W        W35102  34.081  43.295  11.877
62678W        W35103  21.552   2.374   2.185
62679W        W35104   4.899  30.434   5.308
62680W        W35105  14.730  11.637   0.464
62681W        W35106   5.893  42.464   4.748
62682W        W35107  32.392   8.187  14.877
62683W        W35108  18.210  10.712  10.956
62684W        W35109  25.064   5.278  12.942
62685W        W35110  37.481  17.800  12.857
62686W        W35111  44.292  27.005  11.020
62687W        W35112  29.629  42.864   4.152
62688W        W35113   4.882  12.662   2.227
62689W        W35114  27.036  20.714  10.976
62690W        W35115   5.350   1.814  13.032
62691W        W35116   2.857  32.022  12.396
62692W        W35117  13.144  41.395   5.214
62693W        W35118  17.270   6.290   2.688
62694W        W35119  33.549  39.836   0.909
62695W        W35120  37.355  44.262  10.632
62696W        W35121  30.531  34.428  10.607
62697W        W35122  11.669   4.932  13.392
62698W        W35123  39.835   0.296   0.943
62699W        W35124  24.612   8.772   1.769
62700W        W35125  17.589   2.407  14.894
62701W        W35126  38.930  25.080   3.644
62702W        W35127   2.451  14.228   1.449
62703W        W35128   9.858   6.801   2.201
62704W        W35129  30.994  20.068  14.025
62705W        W35130  43.451  14.640   0.817
62706W        W35131  39.830  19.679   3.804
62707W        W35132  20.072  23.124  10.533
62708W        W35133   8.406  32.061  14.843
62709W        W35134  32.585   7.305   4.724
62710W        W35135  28.471  34.877   0.863
62711W        W35136  31.480  39.348  13.409
62712W        W35137  28.435  43.331  13.430
62713W        W35138  44.989  32.412  12.567
62714W        W35139  26.007  39.523   2.836
62715W        W35140  14.123  22.183  14.896
62716W        W35141   2.265  44.493  14.339
62717W        W35142  21.239  39.331  14.019
62718W        W35143   0.828  40.490  12.835
62719W        W35144  18.577  44.363  13.922
62720W        W35145  39.498   9.715  10.451
62721W        W35146  31.119  32.603   4.700
62722W        W35147  13.222  38.390   0.849
62723W        W35148  22.021  14.210   4.266
62724W        W35149  20.113   4.243   4.675
62725W        W35150  42.030   9.732   3.349
62726W        W35151  38.859  27.509  11.542
62727W        W35152  40.865  12.825  14.998
62728W        W35153   7.206  40.963  13.343
62729W        W35154  33.952  40.031  11.866
62730W        W35155  14.340  19.149   0.851
62731W        W35156  19.089  37.976  12.021
62732W        W35157   9.844   2.248  10.939
62733W        W35158  30.060  10.845  13.807
62734W        W35159  41.517  20.090   4.709
62735W        W35160  13.731  36.989  13.950
62736W        W35161  29.935  42.860   3.670
62737W        W35162  28.973  21.051   0.278
62738W        W35163   9.255  41.371   5.134
62739W        W35164  43.407  22.136   0.477
62740W        W35165  14.799   7.767  11.100
62741W        W35166  17.170   1.401   2.753
62742W        W35167  11.769  15.783  14.800
62743W        W35168  10.657  14.700  11.491
62744W        W35169  13.141  17.144   2.746
62745W        W35170  25.992  32.940  13.485
62746W        W35171  17.720   8.248  13.328
62747W        W35172   0.778   1.905  10.522
62748W        W35173  15.191  13.143  12.012
62749W        W35174  29.108  30.097  13.385
62750W        W35175  38.037  33.090   3.811
62751W        W35176  11.693  11.658   2.901
62752W        W35177  28.108   4.785  14.437
62753W        W35178  26.482  17.091  11.441
62754W        W35179  14.670  11.698   2.408
62755W        W35180  12.631  11.221  10.512
62756W        W35181  41.838   7.851  13.310
62757W        W35182  33.970  31.572  13.527
62758W        W35183  25.542  39.556   1.323
62759W        W35184   8.717  24.519  11.407
62760W        W35185   4.406   3.827  14.017
62761W        W35186   1.828  13.709  13.855
62762W        W35187  35.413  32.079  14.508
62763W        W35188  36.411  26.500  12.975
62764W        W35189  29.147  44.949   0.328
62765W        W35190   6.408  39.422  10.977
62766W        W35191  29.486  35.877   5.296
62767W        W35192   8.710  30.620  11.014
62768W        W35193  29.135  25.962  11.929
62769W        W35194  10.237  24.984   0.446
62770W        W35195  28.643  29.158  12.937
62771W        W35196  19.585  29.508   4.266
62772W        W35197   9.875  10.204   2.362
62773W        W35198   6.280  32.411  12.007
62774W        W35199  10.779  44.896   4.270
62775W        W35200  29.065  34.937   3.715
62776W        W35201  35.936  22.996  11.910
62777W        W35202  18.582  27.642  10.562
62778W        W35203  27.082   2.821  11.574
62779W        W35204  37.941  27.061  12.566
62780W        W35205  32.996  12.184   1.282
62781W        W35206   1.295  33.557  11.913
62782W        W35207  43.985  35.568   2.845
62783W        W35208  38.565  19.751   2.405
62784W        W35209   0.782  24.542   3.326
62785W        W35210  33.957  30.570  13.489
62786W        W35211  15.135  13.236   1.249
62787W        W35212   2.345  31.037  12.500
62788W        W35213  34.958  28.681  10.957
62789W        W35214  10.851  38.024   3.354
62790W        W35215  41.923   3.750   1.256
62791W        W35216  18.092  13.826  11.910
62792W        W35217  20.571  37.006  12.047
62793W        W35218  41.403  16.246  10.891
62794W        W35219  16.226  18.663   2.329
62795W        W35220   9.255  34.561  10.925
62796W        W35221  23.594  21.639   4.630
62797W        W35222  27.102  35.092  14.434
62798W        W35223  15.761   6.352  12.959
62799W        W35224   1.745   1.746   2.307
62800W        W35225  27.177  24.519   1.802
62801W        W35226  36.997  15.286  13.875
62802W        W35227  28.115  36.505  14.431
62803W        W35228  28.130  20.715  13.502
62804W        W35229  30.934   4.292   3.337
62805W        W35230  18.096  41.972   0.478
62806W        W35231  33.505  43.845  10.553
62807W        W35232  17.774  39.378  14.010
62808W        W35233  30.427  13.108  11.542
62809W        W35234   3.865  14.631   0.441
62810W        W35235  13.175  28.978  13.525
62811W        W35236  10.842  37.968   0.774
62812W        W35237  16.613  11.829  11.542
62813W        W35238  34.038  41.895   0.795
62814W        W35239  37.989  21.219   3.797
62815W        W35240  32.560  17.095   3.261
62816W        W35241  13.245  26.579   3.213
62817W        W35242  20.647   9.281   2.257
62818W        W35243  10.307  31.960   3.651
62819W        W35244  29.031  14.136   0.341
62820W        W35245  14.623  23.630  13.985
62821W        W35246   7.196  11.267   4.114
62822W        W35247  24.147  20.678   2.222
62823W        W35248  21.102   4.887  10.120
62824W        W35249   9.345   5.726  13.048
62825W        W35250  22.134  19.151   4.163
62826W        W35251  12.265  37.550  11.967
62827W        W35252   4.249  15.677  12.041
62828W        W35253  20.531   1.448   4.250
62829W        W35254  26.540  26.184  12.406
62830W        W35255  18.176  40.961   0.868
62831W        W35256  34.024  35.386  11.919
62832W        W35257  43.411  36.957  13.826
62833W        W35258  34.469  41.300   0.777
62834W        W35259   1.276  23.156  10.926
62835W        W35260  31.045  41.377  12.558
62836W        W35261  21.691  32.891  11.415
62837W        W35262  33.592  16.669  14.994
62838W        W35263   1.940  22.553  13.479
62839W        W35264  23.136   3.281   4.693
62840W        W35265   4.329  32.005   0.452
62841W        W35266  31.420  22.583  13.906
62842W        W35267   2.265  44.762   1.238
62843W        W35268   1.276  43.776   1.386
62844W        W35269  31.068   7.721  13.035
62845W        W35270  29.478  23.675  13.909
62846W        W35271  43.940  41.836  14.425
62847W        W35272   8.388   2.363   1.376
62848W        W35273  30.532  27.960   0.907
62849W        W35274  43.822   6.900   3.734
62850W        W35275   3.408  14.830   3.196
62851W        W35276   1.482  27.976   3.222
62852W        W35277  26.128  26.643  12.825
62853W        W35278  23.653  28.066   0.361
62854W        W35279   4.240  35.531   2.306
62855W        W35280   0.279   2.868   0.894
62856W        W35281   4.371   6.333   3.743
62857W        W35282  17.749  20.164  11.933
62858W        W35283  32.089   7.863  10.429
62859W        W35284  25.174  27.662  12.566
62860W        W35285  29.991  13.706  14.895
62861W        W35286  16.746  36.087  14.278
62862W        W35287  38.528  20.608   2.787
62863W        W35288   6.754  23.636  12.556
62864W        W35289  17.692  30.554   4.602
62865W        W35290  20.274  15.151  13.353
62866W        W35291  37.566  34.512   0.263
62867W        W35292  29.005  40.005  12.869
62868W        W35293  24.172  25.992   4.789
62869W        W35294  37.470  31.646  13.025
62870W        W35295  18.271  13.110  10.628
62871W        W35296  20.624  39.925  11.123
62872W        W35297  39.981  22.006  14.476
62873W        W35298  23.515  38.532  13.839
62874W        W35299  26.113  20.532   4.740
62875W        W35300  12.787  15.203   1.232
62876W        W35301  21.538  12.759   0.863
62877W        W35302  22.166  25.027   0.881
62878W        W35303   9.771  18.126  12.526
62879W        W35304  34.492  12.214   1.260
62880W        W35305  44.903  17.207   4.817
62881W        W35306  32.918  19.648   0.320
62882W        W35307  41.508  34.550   1.258
62883W        W35308  35.429   3.425  12.374
62884W        W35309  11.231  41.403  10.490
62885W        W35310  17.768  19.065  13.381
62886W        W35311  37.549  15.183   1.384
62887W        W35312   5.293  21.675   1.284
62888W        W35313  23.584   4.906  11.084
62889W        W35314  38.567  43.827  12.577
62890W        W35315   7.822  10.815  13.986
62891W        W35316  16.260  35.564   1.749
62892W        W35317  15.203   0.762  11.017
62893W        W35318  40.000  16.604  14.297
62894W        W35319   1.938  31.929   2.857
62895W        W35320  27.958   9.681   3.157
62896W        W35321   7.846  29.463   3.335
62897W        W35322  21.130  38.566   1.904
62898W        W35323  12.692  19.196  11.427
62899W        W35324  17.157  42.027   0.448
62900W        W35325   9.707  32.927  14.896
62901W        W35326   0.326  33.454  14.402
62902W        W35327  31.972  31.587  11.127
62903W        W35328  13.629  44.324  13.441
62904W        W35329  13.782   5.811  11.935
62905W        W35330  14.653  17.702  10.548
62906W        W35331  13.652  23.071   0.917
62907W        W35332   6.407   1.244  14.807
62908W        W35333   8.212  42.442   3.289
62909W        W35334   1.330   2.811  11.954
62910W        W35335   1.329  16.637   3.816
62911W        W35336  25.630  11.790  10.567
62912W        W35337  18.093  22.548  12.533
62913W        W35338  44.430  12.308   2.413
62914W        W35339  41.989  18.662   1.861
62915W        W35340  36.437   6.780   1.803
62916W        W35341   7.753  31.069   0.812
62917W        W35342  29.466  35.515  13.860
62918W        W35343  23.624   6.792  11.957
62919W        W35344  38.343  29.976   3.197
62920W        W35345  11.306  35.511  13.501
62921W        W35346   7.417  24.651  13.023
62922W        W35347  17.668  10.745  11.869
62923W        W35348  37.086  11.686  14.500
62924W        W35349   2.313   3.791  14.389
62925W        W35350  38.368  13.692  11.042
62926W        W35351  12.760  23.158  13.447
62927W        W35352  17.090  32.037  11.009
62928W        W35353  17.217  16.226   2.359
62929W        W35354  36.052  37.865  13.843
62930W        W35355  43.925  18.631   3.292
62931W        W35356  28.030  22.045  11.375
62932W        W35357   8.234  13.693  11.127
62933W        W35358   9.659  26.625  13.059
62934W        W35359   5.909  22.635  14.417
62935W        W35360  40.958  40.901  12.072
62936W        W35361   3.235  19.696   3.783
62937W        W35362   3.835  26.020   1.720
62938W        W35363  31.643  22.531   4.338
62939W        W35364  32.468  31.559  10.924
62940W        W35365  10.650  14.098   1.724
62941W        W35366   3.793  30.978  14.893
62942W        W35367  35.527  39.868  14.817
62943W        W35368  31.407   3.898   3.260
62944W        W35369  27.639   9.668  12.393
62945W        W35370  39.822  16.145   0.257
62946W        W35371   8.365   9.776   4.287
62947W        W35372  36.582  44.892   1.815
62948W        W35373  18.667  41.988   3.757
62949W        W35374   2.930  37.524   3.767
62950W        W35375  36.523  36.975  12.034
62951W        W35376   9.658   1.941  13.406
62952W        W35377  35.454  13.704  12.961
62953W        W35378  37.568  23.193   0.944
62954W        W35379  27.463  27.950  10.981
62955W        W35380  16.207  14.721   2.265
62956W        W35381  21.587  32.469  14.387
62957W        W35382  25.673   4.442  13.844
62958W        W35383  44.936  22.576  13.481
62959W        W35384  23.091  32.968   3.187
62960W        W35385  15.175  20.557   1.218
62961W        W35386  20.603  11.775   9.645
62962W        W35387  28.605   8.842  13.416
62963W        W35388  31.584  24.122  11.961
62964W        W35389  35.371  13.173   3.146
62965W        W35390  42.838  27.120  13.383
62966W        W35391  13.805  37.390  14.461
62967W        W35392  15.629   1.346  14.950
62968W        W35393   6.364  39.450  11.943
62969W        W35394  22.163  42.307   0.342
62970W        W35395  38.899  43.361   9.965
62971W        W35396  35.867   7.277  12.413
62972W        W35397  35.490  37.938   4.643
62973W        W35398  41.991   7.202   3.675
62974W        W35399  39.473   3.944  11.979
62975W        W35400  36.049  24.035  12.024
62976W        W35401  34.937   6.407  12.943
62977W        W35402  10.632  32.497   0.336
62978W        W35403   8.704  11.341   0.861
62979W        W35404  11.851  24.496  11.089
62980W        W35405   7.327   1.922   1.217
62981W        W35406  20.598  25.608   2.184
62982W        W35407  28.619  19.052  10.625
62983W        W35408  14.300  33.128  10.952
62984W        W35409  31.133  26.980   3.753
62985W        W35410  43.886  16.788   4.752
62986W        W35411   3.822  40.033  14.988
62987W        W35412  14.651  24.645  14.021
62988W        W35413   4.335  39.860  14.789
62989W        W35414   5.822  44.787  10.967
62990W        W35415   6.184   2.314  11.888
62991W        W35416  35.525   9.373   1.722
62992W        W35417  15.757  22.529   1.407
62993W        W35418   3.790  43.300   3.186
62994W        W35419  22.569  24.997   1.308
62995W        W35420  35.025  29.518   2.369
62996W        W35421  37.501  32.132  13.313
62997W        W35422  15.578   9.278   4.266
62998W        W35423  28.988  23.539  14.378
62999W        W35424  17.719  23.232   0.734
63000W        W35425  11.847  29.111   2.403
63001W        W35426  44.443  24.646  12.402
63002W        W35427   4.881  20.626  14.863
63003W        W35428  11.644   8.268   1.805
63004W        W35429  11.133  12.255  10.560
63005W        W35430  16.082  31.502   3.157
63006W        W35431  11.754  26.119  12.927
63007W        W35432   1.347  43.324   0.346
63008W        W35433  39.061  12.313  10.493
63009W        W35434  34.036  23.689   4.278
63010W        W35435  35.889   1.910  12.460
63011W        W35436   7.355  14.126  14.312
63012W        W35437  18.617  33.054  13.003
63013W        W35438  39.527   2.347   3.720
63014W        W35439  39.893  32.050  10.621
63015W        W35440  16.702   3.264  13.974
63016W        W35441  31.042  23.985   3.821
63017W        W35442  44.497   7.345   0.270
63018W        W35443  35.878  42.481   3.189
63019W        W35444  19.721   8.830   0.810
63020W        W35445  17.065  26.173   0.389
63021W        W35446  18.627  22.042   3.314
63022W        W35447  25.581   8.748  13.903
63023W        W35448  20.613  15.287   3.783
63024W        W35449  12.200  10.676   3.268
63025W        W35450  40.867  33.485   2.381
63026W        W35451   5.914  23.227   3.351
63027W        W35452  21.206  36.353  12.934
63028W        W35453  12.168  35.597  12.483
63029W        W35454  27.515  27.626  10.572
63030W        W35455  18.096  36.978   1.390
63031W        W35456  22.660  41.794  14.811
63032W        W35457  37.905  24.092  12.835
63033W        W35458  43.764  31.023   2.408
63034W        W35459  18.600   7.386  14.910
63035W        W35460  29.002   9.316   2.677
63036W        W35461  21.548   6.221   4.806
63037W        W35462  43.859  28.544  13.495
63038W        W35463   1.480  13.178  14.767
63039W        W35464  31.983  36.001   1.309
63040W        W35465  22.100   0.871   0.860
63041W        W35466  36.525  18.150   1.789
63042W        W35467  19.690  35.520   3.705
63043W        W35468  35.043  15.281  14.772
63044W        W35469   9.227  33.611   1.919
63045W        W35470  27.176  15.163   2.734
63046W        W35471  32.520  24.608   4.792
63047W        W35472  29.944  31.989  12.982
63048W        W35473  21.079   8.386  12.540
63049W        W35474  38.896  29.097   2.224
63050W        W35475  32.565  33.042   3.150
63051W        W35476  28.524  31.979   4.201
63052W        W35477  24.070  40.833   4.255
63053W        W35478  35.899   9.204  10.897
63054W        W35479  30.655   0.925   4.142
63055W        W35480  33.876   1.806   2.857
63056W        W35481  40.945  15.810  10.641
63057W        W35482  36.517   7.685   5.111
63058W        W35483   0.764   3.428   4.703
63059W        W35484  31.948  14.194  14.471
63060W        W35485  29.068  33.929   1.373
63061W        W35486  31.066  29.614   3.827
63062W        W35487  28.087  43.483   3.175
63063W        W35488   5.413  11.640  14.492
63064W        W35489  28.030  14.094   4.212
63065W        W35490  25.025   9.273   4.728
63066W        W35491   6.791  29.953  11.896
63067W        W35492  42.847  21.598  11.517
63068W        W35493   9.790  17.770  12.339
63069W        W35494  11.624   5.770  14.947
63070W        W35495  29.959  19.198   4.761
63071W        W35496  20.710  29.468  12.484
63072W        W35497  31.031  21.098   1.695
63073W        W35498  38.424  43.372   2.186
63074W        W35499   0.388   0.974  14.288
63075W        W35500  42.974   3.341   0.281
63076W        W35501  44.394   8.859  12.845
63077W        W35502  35.589   5.232  11.094
63078W        W35503  31.408  23.555  11.532
63079W        W35504  22.596  16.591  11.993
63080W        W35505  18.570  14.744  12.888
63081W        W35506   2.401  13.609   4.618
63082W        W35507  21.203  12.209   9.958
63083W        W35508  42.851  22.736   3.194
63084W        W35509  31.141  31.625  13.992
63085W        W35510  32.514  29.562  12.018
63086W        W35511   4.280  41.402   2.295
63087W        W35512   1.750  31.141   0.763
63088W        W35513  17.199  11.302  14.389
63089W        W35514   4.413  16.082  14.314
63090W        W35515  37.083   0.976   0.288
63091W        W35516   8.748  40.379  13.427
63092W        W35517  39.904  21.229  12.949
63093W        W35518  30.607  22.121   3.239
63094W        W35519  28.496   1.803  11.424
63095W        W35520  10.156   6.761  11.017
63096W        W35521  13.158   1.425  12.483
63097W        W35522  19.221   6.836   4.811
63098W        W35523   4.313   8.807   3.313
63099W        W35524   7.855   2.370  10.584
63100W        W35525  19.669  31.044   3.243
63101W        W35526  40.426  39.556   0.872
63102W        W35527   9.829  18.784  13.026
63103W        W35528  16.187  40.494  11.496
63104W        W35529  40.448  13.327   4.314
63105W        W35530   9.667   9.783  11.881
63106W        W35531  15.698  31.612  13.846
63107W        W35532  41.974  13.759  11.870
63108W        W35533  12.791  26.519  10.114
63109W        W35534  14.334  12.673   0.876
63110W        W35535  31.550  29.142  10.621
63111W        W35536  37.890  26.200   4.294
63112W        W35537   3.868   3.805  13.883
63113W        W35538   0.258  34.867   1.314
63114W        W35539  26.138  41.969   3.259
63115W        W35540  41.326   0.843  14.428
63116W        W35541   1.752  17.603  14.913
63117W        W35542  22.513   9.343   1.309
63118W        W35543  18.781  17.121   1.226
63119W        W35544  44.291  28.598   1.247
63120W        W35545  25.613  35.575   2.857
63121W        W35546  10.835  33.465   2.310
63122W        W35547  23.690  15.821   2.831
63123W        W35548  31.422   9.723  13.804
63124W        W35549  33.026  18.580  13.369
63125W        W35550  38.909  41.044  12.422
63126W        W35551  22.711   6.290  13.976
63127W        W35552  30.114   7.404   1.818
63128W        W35553   5.338  29.581   1.828
63129W        W35554  27.098   3.295   3.706
63130W        W35555   4.863   6.729   0.382
63131W        W35556   3.719  11.318  14.949
63132W        W35557  28.442  20.042  10.917
63133W        W35558  29.152   4.420  11.926
63134W        W35559  40.028   2.309  12.466
63135W        W35560   7.828  22.184   2.709
63136W        W35561  40.315  21.563  12.925
63137W        W35562  33.453  30.987  12.445
63138W        W35563  41.318   1.876  10.522
63139W        W35564  43.968   8.371   1.345
63140W        W35565  32.402  16.686   2.879
63141W        W35566  28.562  11.291  12.081
63142W        W35567   6.423  38.918  14.763
63143W        W35568  20.190  19.742  11.033
63144W        W35569  22.678  39.859  11.426
63145W        W35570  26.609  22.074   0.889
63146W        W35571  43.883  17.119  13.360
63147W        W35572  35.014   7.261   2.285
63148W        W35573  18.093   1.787   1.925
63149W        W35574  11.664  40.433   2.298
63150W        W35575   0.885  33.117  10.991
63151W        W35576  36.032  22.058  12.473
63152W        W35577  25.968   4.383  12.087
63153W        W35578  21.161  43.841  11.521
63154W        W35579  39.024  20.692   0.317
63155W        W35580  22.660  30.450  13.343
63156W        W35581  16.191  10.369  12.521
63157W        W35582  39.972  10.232   1.785
63158W        W35583  38.885  11.272  10.515
63159W        W35584   6.371  39.352   4.611
63160W        W35585  15.793   1.298  11.898
63161W        W35586  14.663   8.842  11.592
63162W        W35587  30.629  18.570   0.827
63163W        W35588  19.061  12.697  12.992
63164W        W35589  26.614   0.333   2.811
63165W        W35590   4.388  11.796   1.291
63166W        W35591  35.047  15.594  14.765
63167W        W35592  26.465  38.866  11.063
63168W        W35593   6.914  42.780  13.900
63169W        W35594  37.003  13.815   2.707
63170W        W35595  20.535  18.202   1.756
63171W        W35596   4.916  22.698   2.407
63172W        W35597   5.285  10.785   0.271
63173W        W35598  26.118  12.156  11.402
63174W        W35599  30.987  25.554   3.200
63175W        W35600  26.595  30.609   1.847
63176W        W35601  33.443   3.848  13.876
63177W        W35602   0.254  30.014   3.674
63178W        W35603  26.609   0.907  14.820
63179W        W35604  38.998  19.115  14.868
63180W        W35605  10.774  19.647  14.364
63181W        W35606   8.291  34.437   2.829
63182W        W35607  17.294   9.728  12.442
63183W        W35608  21.137   5.243   3.231
63184W        W35609  34.427  38.451  14.906
63185W        W35610  28.133   4.776   2.319
63186W        W35611  11.739  20.710  11.927
63187W        W35612  26.081  20.147   3.190
63188W        W35613  18.760  20.532   0.429
63189W        W35614  39.462  34.587  11.912
63190W        W35615   1.756   0.393   1.222
63191W        W35616   5.346  22.111   3.864
63192W        W35617  38.378  34.526   1.242
63193W        W35618  40.031   0.780   4.189
63194W        W35619  39.382  35.432  12.403
63195W        W35620  33.470   8.298  11.469
63196W        W35621  25.647  31.911   2.219
63197W        W35622   1.960  24.036   0.289
63198W        W35623  23.091  34.560  14.493
63199W        W35624  18.111  33.571  11.375
63200W        W35625   8.733  18.563   3.723
63201W        W35626  12.722   5.226   3.330
63202W        W35627  40.346  15.700   1.273
63203W        W35628  10.646  23.683  13.917
63204W        W35629   8.225  34.385  11.927
63205W        W35630  27.462  14.322   3.277
63206W        W35631  28.061  31.525   3.646
63207W        W35632  43.020  21.179  11.063
63208W        W35633  31.958  18.640  10.895
63209W        W35634   0.894   3.228  13.813
63210W        W35635  41.411   2.286   4.330
63211W        W35636   1.250  43.270   2.795
63212W        W35637  17.223  40.838   0.848
63213W        W35638  34.975  44.000  10.956
63214W        W35639   5.347  28.138  13.482
63215W        W35640  17.173  44.470   0.383
63216W        W35641  24.189  10.634   0.344
63217W        W35642   6.250  12.269  12.899
63218W        W35643  14.265  14.123  13.381
63219W        W35644  17.299  21.258  10.639
63220W        W35645  34.938  24.595   4.831
63221W        W35646  11.289  33.071   1.382
63222W        W35647   1.274  18.236   0.321
63223W        W35648   2.250   9.196  11.932
63224W        W35649  17.212  32.405  14.499
63225W        W35650   2.787  21.637   0.356
63226W        W35651   0.919   5.875  12.858
63227W        W35652  15.740  16.646   2.277
63228W        W35653  43.428   0.961  11.066
63229W        W35654  28.048  14.252   2.802
63230W        W35655  32.971   5.817  13.384
63231W        W35656  34.466  35.427   0.760
63232W        W35657   8.402   6.852   2.754
63233W        W35658  37.061  43.817  14.312
63234W        W35659   8.218  16.241   1.242
63235W        W35660  27.446  17.239  12.939
63236W        W35661  36.997   1.258   3.796
63237W        W35662  42.484  26.624   3.684
63238W        W35663   3.234   2.297   0.831
63239W        W35664  29.119  38.559   3.721
63240W        W35665  43.779  11.323   1.705
63241W        W35666  13.640  21.051   3.288
63242W        W35667  36.071  28.557  11.089
63243W        W35668  37.852  29.479   2.881
63244W        W35669  43.285  26.152   3.769
63245W        W35670  18.548  10.683   0.915
63246W        W35671  27.560  17.686  11.571
63247W        W35672   5.894  13.728   3.693
63248W        W35673  44.293  38.837   3.182
63249W        W35674  38.048  11.854   2.216
63250W        W35675  28.961  19.053   3.832
63251W        W35676  40.922  22.231   1.367
63252W        W35677  38.490  40.881  14.340
63253W        W35678   7.400   7.297  10.459
63254W        W35679  14.613  28.145  13.020
63255W        W35680  22.699  28.971  14.880
63256W        W35681  10.835  32.502  13.039
63257W        W35682  30.506  40.363  10.475
63258W        W35683  35.074   2.802  12.045
63259W        W35684  18.141  26.514  14.281
63260W        W35685   0.441  35.030  12.870
63261W        W35686   9.874   4.739  12.425
63262W        W35687  35.027  28.090   1.853
63263W        W35688  14.277  34.993   5.208
63264W        W35689  37.872  44.356  11.124
63265W        W35690  29.522   6.360   5.317
63266W        W35691  10.336   8.165   2.225
63267W        W35692  12.358  25.517   9.560
63268W        W35693  19.771  44.497   4.709
63269W        W35694  16.640  29.010   3.646
63270W        W35695   5.696  14.832  12.839
63271W        W35696  41.329   7.691   0.333
63272W        W35697  43.835  10.327   0.387
63273W        W35698  38.464   8.756   1.725
63274W        W35699  11.782  31.971   2.310
63275W        W35700   7.896   8.315  12.093
63276W        W35701  34.369  25.628   3.305
63277W        W35702  40.375   6.313  12.955
63278W        W35703  17.077  28.469   3.731
63279W        W35704  44.487  31.647  13.468
63280W        W35705  24.680  17.619   4.155
63281W        W35706  36.501  13.733  13.367
63282W        W35707   3.299   1.897   1.774
63283W        W35708  26.079  19.274  12.868
63284W        W35709  15.700  28.504  14.463
63285W        W35710  14.119  18.164  12.528
63286W        W35711   4.385  39.849  13.444
63287W        W35712  13.624  39.379   3.365
63288W        W35713  20.263  27.043  14.942
63289W        W35714  41.976  41.815  11.007
63290W        W35715  21.551  42.305  14.364
63291W        W35716  43.420   7.817  13.423
63292W        W35717  33.606   9.759   1.864
63293W        W35718   5.240  20.141   0.406
63294W        W35719  21.643  40.920  14.825
63295W        W35720  35.061  37.461   4.327
63296W        W35721  38.527  17.680   4.186
63297W        W35722  44.476  42.325  11.496
63298W        W35723   8.776   2.916  12.473
63299W        W35724  44.356   4.749  13.960
63300W        W35725  14.705  36.562  13.934
63301W        W35726   1.320   4.367  11.374
63302W        W35727  25.661  17.137   0.778
63303W        W35728  11.748  22.075  10.434
63304W        W35729  41.880   2.874  13.480
63305W        W35730  20.640  20.627  14.817
63306W        W35731   6.743  24.712  12.440
63307W        W35732  10.168  37.567   2.183
63308W        W35733  14.605  41.813   4.268
63309W        W35734  32.548   7.263   0.913
63310W        W35735  16.707  35.572  11.388
63311W        W35736  31.932  35.579   2.271
63312W        W35737  26.072  14.243  12.428
63313W        W35738  33.113  34.610  13.837
63314W        W35739  13.844  21.217  11.388
63315W        W35740  14.691  19.583   1.444
63316W        W35741  42.988  27.031   1.441
63317W        W35742   7.364   9.863   4.694
63318W        W35743  19.715  41.809   4.273
63319W        W35744   9.182  39.825  10.905
63320W        W35745   6.790  30.007  13.848
63321W        W35746  31.069  13.792   3.812
63322W        W35747  43.953   1.781   0.757
63323W        W35748  19.701  21.636   0.784
63324W        W35749  31.129  43.948   4.250
63325W        W35750  35.455  32.433  13.380
63326W        W35751  39.999  35.061  14.364
63327W        W35752  14.655  13.777   0.404
63328W        W35753  37.971  20.159   4.717
63329W        W35754  15.692  43.481   0.473
63330W        W35755   0.898  43.364  11.595
63331W        W35756  34.592  30.632  13.370
63332W        W35757  22.745  15.823   1.214
63333W        W35758  31.133  12.338  12.361
63334W        W35759  39.824  27.540  11.613
63335W        W35760  10.844   1.446  12.826
63336W        W35761   4.436  42.798  14.289
63337W        W35762   2.883   8.201  14.368
63338W        W35763  24.675   9.833   0.437
63339W        W35764   5.776   0.793  10.607
63340W        W35765   4.384   9.669   3.199
63341W        W35766  34.419   9.257   0.743
63342W        W35767  30.494  39.981  11.936
63343W        W35768  27.484  18.665  11.533
63344W        W35769   5.841  21.727  12.080
63345W        W35770  30.023  16.788   0.928
63346W        W35771   6.822  37.423  11.389
63347W        W35772  12.818  17.190   4.254
63348W        W35773   4.225  11.135  13.056
63349W        W35774  29.462  44.871   4.348
63350W        W35775  40.434  32.609   2.380
63351W        W35776  27.470  34.369   0.405
63352W        W35777  18.053  42.880   1.257
63353W        W35778  38.567  17.136   0.930
63354W        W35779   8.721  10.854  13.321
63355W        W35780  26.145   3.382  12.940
63356W        W35781   0.872  23.183   2.186
63357W        W35782  33.534  19.149  14.385
63358W        W35783  41.827  37.568  10.047
63359W        W35784  19.622  24.196  12.383
63360W        W35785   0.324  26.540   0.924
63361W        W35786   0.482   4.425  11.950
63362W        W35787  39.030   6.743  11.864
63363W        W35788   4.209  27.186  11.903
63364W        W35789  39.821  14.774  11.465
63365W        W35790  18.614  40.463  11.463
63366W        W35791  10.673  38.465  10.597
63367W        W35792  20.182  37.485   3.718
63368W        W35793   0.473  19.730   1.776
63369W        W35794  39.007  41.862   3.737
63370W        W35795  30.527   0.919   1.777
63371W        W35796  22.128  12.800   2.212
63372W        W35797   5.869   4.868  12.986
63373W        W35798  31.430  36.401   0.907
63374W        W35799  26.583   1.780  12.855
63375W        W35800  18.134  14.173  14.920
63376W        W35801  43.493  28.504  12.917
63377W        W35802  37.511  43.847   3.725
63378W        W35803  26.570  27.080  13.464
63379W        W35804  29.611   8.293  12.411
63380W        W35805  26.125  23.526  13.825
63381W        W35806  14.830  36.365  12.528
63382W        W35807  12.618  35.973   3.714
63383W        W35808  19.202  36.472   4.627
63384W        W35809  23.197  20.584  12.384
63385W        W35810   5.762  44.309  13.402
63386W        W35811  20.650   1.792  11.380
63387W        W35812  21.676   3.217   1.895
63388W        W35813   9.362  42.780   1.757
63389W        W35814   1.482   4.310  11.125
63390W        W35815  13.192  30.005   4.724
63391W        W35816  35.073  18.198  12.967
63392W        W35817  41.001  42.914   4.329
63393W        W35818  16.081  24.220   2.258
63394W        W35819  26.976  17.290   4.782
63395W        W35820  40.337  32.927   4.684
63396W        W35821  17.696   7.690  11.402
63397W        W35822  23.681  16.150   1.850
63398W        W35823  42.888  38.564  11.426
63399W        W35824  21.533  43.905  13.027
63400W        W35825  35.012  30.532   1.389
63401W        W35826  36.443  32.539  14.293
63402W        W35827  27.506  17.095  14.888
63403W        W35828  34.115   7.376   2.400
63404W        W35829   1.236  36.002   2.221
63405W        W35830  20.267  31.524  12.960
63406W        W35831  16.115  25.501  11.511
63407W        W35832  34.023  19.239   3.783
63408W        W35833  27.090  19.084   2.785
63409W        W35834  23.133   8.362   4.738
63410W        W35835  39.809  33.894   2.243
63411W        W35836  22.617  10.640   2.719
63412W        W35837  35.436  16.759   2.714
63413W        W35838  17.771  40.528  14.859
63414W        W35839  38.835  23.987  14.807
63415W        W35840   5.718   6.185  13.493
63416W        W35841  41.004  30.556   4.322
63417W        W35842  17.680  34.520  13.356
63418W        W35843  39.441  25.151  12.040
63419W        W35844  28.065  12.308   0.400
63420W        W35845  42.872  20.636  14.854
63421W        W35846   1.765   0.985   2.850
63422W        W35847  32.428  16.774  13.496
63423W        W35848  44.295  33.093   4.285
63424W        W35849   5.730  39.382  13.894
63425W        W35850  19.705   0.428   1.446
63426W        W35851  43.448   3.841   4.806
63427W        W35852   4.283  20.089  14.804
63428W        W35853  13.321  11.676   3.643
63429W        W35854  41.508  11.159  14.882
63430W        W35855  13.801   9.736  10.477
63431W        W35856  39.378  44.422  12.566
63432W        W35857  42.416  27.652  13.047
63433W        W35858  14.607  41.829  13.985
63434W        W35859  41.458  13.778   1.349
63435W        W35860  40.049  44.483  12.095
63436W        W35861  10.659  41.955  12.526
63437W        W35862  24.028  40.865  13.804
63438W        W35863  12.186  31.425  11.096
63439W        W35864   3.338  20.231   4.799
63440W        W35865  25.132  23.725  13.871
63441W        W35866  43.006  13.137   4.136
63442W        W35867  34.002   6.315  14.907
63443W        W35868  26.010   8.181  11.925
63444W        W35869   1.925  36.358  10.543
63445W        W35870   9.195   2.868   4.216
63446W        W35871  12.781  14.209  12.023
63447W        W35872  22.573  12.282   5.135
63448W        W35873   4.282  29.504  10.928
63449W        W35874  42.844  21.749   4.824
63450W        W35875  37.040  43.477  11.877
63451W        W35876  17.620  16.269  12.853
63452W        W35877  14.646  35.526  10.963
63453W        W35878  28.019  44.356  14.340
63454W        W35879  43.836   8.377  11.428
63455W        W35880   1.289  25.582  14.903
63456W        W35881   2.818  37.853  11.911
63457W        W35882   8.787  23.992   0.883
63458W        W35883  15.720  24.973   4.208
63459W        W35884  39.822  26.457   4.786
63460W        W35885   7.697  41.465   0.355
63461W        W35886  33.947   7.412   4.250
63462W        W35887   9.698   2.725   3.169
63463W        W35888  22.568   6.857   2.188
63464W        W35889  13.765  27.631  11.542
63465W        W35890  37.053  22.028  14.475
63466W        W35891  16.239  37.979   0.261
63467W        W35892  33.420  32.433   4.267
63468W        W35893  13.759  33.490   2.226
63469W        W35894  39.426  39.464   2.268
63470W        W35895  35.549  15.736   4.623
63471W        W35896  11.737  35.530   4.163
63472W        W35897  38.901  31.632  13.317
63473W        W35898  26.997  20.125  10.470
63474W        W35899   9.738   8.182  11.902
63475W        W35900  43.803  44.836   3.231
63476W        W35901   4.869  44.850   3.192
63477W        W35902  15.710   7.702   3.797
63478W        W35903  28.549   3.352   0.967
63479W        W35904   9.753  11.836  11.455
63480W        W35905  41.032  44.939   2.813
63481W        W35906   4.341  36.884   2.219
63482W        W35907   5.409  19.213   3.801
63483W        W35908   5.777  15.282   4.633
63484W        W35909  25.537  27.103   3.343
63485W        W35910  14.663   3.383  14.000
63486W        W35911  18.060  10.818   1.433
63487W        W35912   5.278  29.613   0.344
63488W        W35913  23.037  15.700   0.745
63489W        W35914  17.131  33.466  14.025
63490W        W35915  42.292  41.319   3.312
63491W        W35916  34.379  24.705   1.786
63492W        W35917  41.419  14.321   1.236
63493W        W35918   6.226  33.539  14.851
63494W        W35919  21.676  29.061  11.528
63495W        W35920  31.101  26.166   0.287
63496W        W35921  44.494   1.250   5.181
63497W        W35922  30.993  43.370  10.424
63498W        W35923  31.978  25.468  12.969
63499W        W35924  33.385  29.946  12.480
63500W        W35925  12.835  22.078   2.836
63501W        W35926  43.282  42.502  12.012
63502W        W35927   6.348  25.650   4.834
63503W        W35928  30.484  24.012   3.669
63504W        W35929   8.854  14.260   3.316
63505W        W35930  43.423   7.712  10.891
63506W        W35931  32.598  36.050  13.878
63507W        W35932  31.047  36.471  13.954
63508W        W35933   3.876  30.022  13.366
63509W        W35934  32.959  40.902  10.458
63510W        W35935   1.480   0.308  13.812
63511W        W35936  29.466  22.710  10.568
63512W        W35937  41.931  42.412   3.220
63513W        W35938  33.579  25.679   4.742
63514W        W35939  26.549  42.325  14.291
63515W        W35940  16.706   2.910  11.450
63516W        W35941  12.749   9.160  10.934
63517W        W35942  38.420  42.295  13.547
63518W        W35943   2.464  14.323  14.772
63519W        W35944  39.983   2.418  14.029
63520W        W35945  24.655   8.318  11.000
63521W        W35946  14.234  19.745  10.891
63522W        W35947  21.209  16.567  14.885
63523W        W35948  11.657  10.648   2.187
63524W        W35949   9.244   7.784  10.964
63525W        W35950  32.515   1.470  10.495
63526W        W35951   9.158  15.713   2.734
63527W        W35952   4.706  23.512  12.545
63528W        W35953   4.236  26.594  13.838
63529W        W35954  42.337  35.938  14.294
63530W        W35955   6.713  44.918  14.326
63531W        W35956  26.973  38.570  14.924
63532W        W35957  26.469   7.880   3.361
63533W        W35958  19.738  27.507  12.501
63534W        W35959  17.679   2.793   4.823
63535W        W35960   5.308  16.195   0.330
63536W        W35961  19.700  21.634   1.713
63537W        W35962   2.839   1.739  13.895
63538W        W35963  31.470   1.290   0.341
63539W        W35964  29.004  14.724  11.056
63540W        W35965  10.665  36.352   4.128
63541W        W35966  41.912  19.775  10.977
63542W        W35967  41.001  22.251   0.363
63543W        W35968  20.574  36.990   0.865
63544W        W35969  24.133   6.884   0.937
63545W        W35970  33.109  17.729   0.822
63546W        W35971   4.384  29.659   4.662
63547W        W35972  28.000  44.316   1.803
63548W        W35973  10.245   1.261   0.850
63549W        W35974   1.879  30.155   1.814
63550W        W35975  29.944  41.323   3.671
63551W        W35976  30.464  30.564  11.861
63552W        W35977  43.344  19.723  14.336
63553W        W35978  32.041  39.427   1.880
63554W        W35979  37.354  19.658  13.314
63555W        W35980  41.786   0.872   1.836
63556W        W35981  22.646  43.997   1.931
63557W        W35982  22.619  13.135  10.511
63558W        W35983   4.942  14.161  11.087
63559W        W35984   5.435   0.475  12.834
63560W        W35985  10.639   6.762   2.263
63561W        W35986  19.094  40.860  13.405
63562W        W35987  30.916  33.410   4.787
63563W        W35988  17.770  10.682   1.228
63564W        W35989  44.783   6.268   3.766
63565W        W35990  44.445  34.491  14.861
63566W        W35991   4.750  28.047  12.018
63567W        W35992  14.144  33.465   2.275
63568W        W35993  44.363  21.741  13.521
63569W        W35994  18.627   1.396   1.210
63570W        W35995  39.054  39.830  11.499
63571W        W35996   1.462  24.725  13.412
63572W        W35997  40.984  33.022  13.921
63573W        W35998  31.939  33.093  13.883
63574W        W35999  35.960  43.960  14.891
63575W        W36000  34.035  41.406   3.660
63576W        W36001   7.806  34.104  13.374
63577W        W36002  36.351  26.703   2.346
63578W        W36003  21.571  22.046  13.408
63579W        W36004  21.114  37.412   2.287
63580W        W36005  14.713  30.065   3.673
63581W        W36006  25.077  38.516   0.731
63582W        W36007  15.609  37.886  12.522
63583W        W36008   7.339  29.004   1.794
63584W        W36009  40.333  20.198   5.771
63585W        W36010  28.636  33.043  11.973
63586W        W36011  39.398  27.665  14.776
63587W        W36012  23.005  27.943  14.408
63588W        W36013  35.428  15.628   1.860
63589W        W36014  32.029   5.301  11.495
63590W        W36015  18.178  36.360  10.918
63591W        W36016   2.399   5.358  10.459
63592W        W36017  12.299   9.367  12.896
63593W        W36018  31.517  32.536  10.467
63594W        W36019  27.686  27.154   2.329
63595W        W36020  38.888   8.334  13.331
63596W        W36021  22.657   1.916   3.194
63597W        W36022  15.324  38.861  14.318
63598W        W36023  35.020  33.553   3.337
63599W        W36024  32.559  21.047  13.972
63600W        W36025  25.530  43.000   1.213
63601W        W36026  23.130   9.883  11.413
63602W        W36027   9.205  17.113   0.455
63603W        W36028  26.513   5.903   1.914
63604W        W36029  21.142  41.788  14.997
63605W        W36030  10.309   7.873  10.439
63606W        W36031   3.311  32.473  13.307
63607W        W36032  21.617  42.897  14.956
63608W        W36033  22.553  20.079   3.750
63609W        W36034  30.978  40.357   3.368
63610W        W36035  42.014  20.743  13.409
63611W        W36036  29.632  29.046  12.580
63612W        W36037  32.973  36.435  10.439
63613W        W36038  12.797  30.035  13.352
63614W        W36039   8.188  25.996   2.739
63615W        W36040  25.593  42.866  14.427
63616W        W36041  42.400  22.514   5.306
63617W        W36042  17.301  39.921  11.926
63618W        W36043  35.869  34.372  13.990
63619W        W36044  28.460   5.755  13.525
63620W        W36045  41.817  38.008   0.932
63621W        W36046  32.080  36.487   1.365
63622W        W36047  27.046  27.117   3.692
63623W        W36048  40.471  17.798  11.466
63624W        W36049   7.720  15.287  12.912
63625W        W36050   4.855  30.972   1.355
63626W        W36051  27.992  29.980  12.513
63627W        W36052   8.831  13.350   5.283
63628W        W36053  26.992  37.974   2.362
63629W        W36054   2.908  33.971   1.831
63630W        W36055  32.912  36.936   4.343
63631W        W36056   9.278  39.328  14.917
63632W        W36057   6.920  26.502  13.048
63633W        W36058  28.533  12.715   1.882
63634W        W36059  25.634  36.048   2.285
63635W        W36060   5.857  26.623   3.842
63636W        W36061   3.281  13.843  14.315
63637W        W36062  23.721   6.299   3.275
63638W        W36063   8.748  24.667   1.350
63639W        W36064  12.843  21.086  14.484
63640W        W36065  18.203  13.112   2.255
63641W        W36066  16.207   9.256  13.399
63642W        W36067  25.513   7.227   2.287
63643W        W36068  21.551   0.908   4.196
63644W        W36069  10.855  29.661  13.318
63645W        W36070  38.825   4.414   1.695
63646W        W36071  27.183  40.813   3.322
63647W        W36072  28.482  11.270  11.404
63648W        W36073  20.591  28.591  12.554
63649W        W36074  41.787  35.092  14.292
63650W        W36075  24.140  30.601  14.367
63651W        W36076  12.830  24.078   5.279
63652W        W36077   9.857  33.563  10.550
63653W        W36078  25.997  14.208   2.899
63654W        W36079  29.487  21.684  10.158
63655W        W36080   7.290   2.324  11.438
63656W        W36081  27.176  29.606  11.391
63657W        W36082  26.489  11.741  10.896
63658W        W36083  17.087  10.201   4.688
63659W        W36084  36.025  16.182  10.604
63660W        W36085  43.817  42.791   2.394
63661W        W36086  33.885  29.504  11.592
63662W        W36087  17.284  35.438   4.729
63663W        W36088  15.142  40.330  13.826
63664W        W36089  18.140  11.680  10.633
63665W        W36090  35.087  28.437   4.667
63666W        W36091   9.812  12.727   0.446
63667W        W36092  11.161  19.613   2.248
63668W        W36093  21.256  30.535   0.732
63669W        W36094  27.165  18.672  14.768
63670W        W36095  38.411  34.110   1.230
63671W        W36096  22.028  33.114   1.898
63672W        W36097  28.003  38.850   1.266
63673W        W36098  20.722  42.520   1.738
63674W        W36099  44.457  14.212   3.708
63675W        W36100  20.166  32.139   3.195
63676W        W36101   3.804   2.466  11.421
63677W        W36102  17.698  32.419   9.974
63678W        W36103  35.439  30.152   4.747
63679W        W36104  31.447  43.354  11.107
63680W        W36105  22.698  39.458  11.052
63681W        W36106  24.089  15.585   5.188
63682W        W36107  30.918  36.470  14.797
63683W        W36108  25.965   5.328  13.438
63684W        W36109   6.788  17.726   4.224
63685W        W36110  38.856  43.991  13.846
63686W        W36111  36.081  14.269   4.337
63687W        W36112  42.925  37.379   2.368
63688W        W36113  41.297   9.166   1.737
63689W        W36114   9.815  29.546   1.217
63690W        W36115  35.500   8.875   9.573
63691W        W36116  36.404  18.233  11.474
63692W        W36117  31.013  22.715   2.842
63693W        W36118  32.058  44.755   2.334
63694W        W36119  13.828  31.528   1.754
63695W        W36120   2.447  40.357   2.873
63696W        W36121   6.349  22.635   4.237
63697W        W36122  20.086  32.092   1.324
63698W        W36123  11.726   2.393  10.029
63699W        W36124  24.024  39.947  13.000
63700W        W36125  27.521   8.823  13.846
63701W        W36126  31.015  12.649   4.659
63702W        W36127  38.904  37.418   0.317
63703W        W36128   2.879  30.131  14.795
63704W        W36129   7.404  37.006  14.380
63705W        W36130  33.555  26.520  13.505
63706W        W36131   7.198  19.216   4.247
63707W        W36132  28.590  16.166   1.806
63708W        W36133  15.762  21.062   4.698
63709W        W36134  42.504  36.566   2.337
63710W        W36135  15.663  16.111   2.286
63711W        W36136  15.809  10.767  11.947
63712W        W36137  30.480  21.020   3.307
63713W        W36138  13.345  24.123  12.995
63714W        W36139  41.840  34.585  14.991
63715W        W36140  22.580  38.040   2.281
63716W        W36141  31.974   0.817   3.788
63717W        W36142  12.221  25.614  10.436
63718W        W36143   7.686  22.651  11.089
63719W        W36144  34.394   4.370   3.744
63720W        W36145  37.562  44.790   0.751
63721W        W36146   7.872  42.423   2.861
63722W        W36147  40.031   4.896   2.687
63723W        W36148  40.447  25.663   0.872
63724W        W36149   0.931  22.150   3.194
63725W        W36150  33.612  18.762   3.670
63726W        W36151  19.068   3.420  12.519
63727W        W36152  26.000   3.769  11.051
63728W        W36153  35.895  15.740   3.850
63729W        W36154  28.679  32.129   1.351
63730W        W36155  29.008  15.720   2.663
63731W        W36156  31.026   4.253  11.481
63732W        W36157  28.518  29.978  11.477
63733W        W36158   9.677  14.588   4.182
63734W        W36159  42.958  21.675   4.303
63735W        W36160  15.647  35.003   3.748
63736W        W36161  14.307   0.414  11.941
63737W        W36162  15.804  44.803  12.026
63738W        W36163   0.383  33.965  14.800
63739W        W36164  29.123   0.828  12.397
63740W        W36165  24.683  39.356   4.276
63741W        W36166  18.783  31.057  10.597
63742W        W36167  37.948  14.801  12.004
63743W        W36168  18.581  21.214  14.298
63744W        W36169   3.355  27.533   1.878
63745W        W36170   7.890   4.231  13.351
63746W        W36171   3.833   1.343  10.562
63747W        W36172  24.645  30.988  10.896
63748W        W36173  27.509  22.098   0.332
63749W        W36174  37.920  37.907  13.309
63750W        W36175  22.129  21.641   3.313
63751W        W36176  26.171  28.476  11.515
63752W        W36177   9.670   5.704  11.415
63753W        W36178  19.692  16.294   1.311
63754W        W36179  37.380  34.090   2.346
63755W        W36180  30.539  44.295   0.343
63756W        W36181  42.985  32.955  13.380
63757W        W36182  37.440  41.839  11.028
63758W        W36183  42.458  13.772   1.211
63759W        W36184  25.212  42.320   2.867
63760W        W36185  19.768  28.000  14.381
63761W        W36186  37.081  23.225  10.446
63762W        W36187   7.415  14.283  10.456
63763W        W36188   9.813  22.641   3.211
63764W        W36189   8.659  41.443  14.494
63765W        W36190  16.211   8.298   1.753
63766W        W36191   1.452  22.733   3.630
63767W        W36192   8.353  23.595  11.551
63768W        W36193   7.397   4.725   3.853
63769W        W36194   3.250   8.259   0.783
63770W        W36195  21.753  32.885  12.097
63771W        W36196  14.636  42.967   2.299
63772W        W36197  24.546  23.558  13.010
63773W        W36198  38.040  41.371  11.970
63774W        W36199  19.223  42.030  13.408
63775W        W36200  39.392  36.847   2.415
63776W        W36201  29.144  27.978   4.265
63777W        W36202  33.459  40.476   0.954
63778W        W36203  26.979  10.678   3.656
63779W        W36204  38.542   0.448  12.531
63780W        W36205   3.344   2.408   3.689
63781W        W36206  43.823   8.277   3.641
63782W        W36207   4.791  18.640  12.347
63783W        W36208  12.658  31.590   0.410
63784W        W36209   0.929  31.143  11.992
63785W        W36210  19.101  38.072   2.668
63786W        W36211  37.834  34.881   1.415
63787W        W36212   2.382  26.986   1.420
63788W        W36213  32.507   1.821   1.714
63789W        W36214  21.522  17.561   1.426
63790W        W36215   6.810   6.723   0.947
63791W        W36216   3.863  22.123   3.346
63792W        W36217   4.702  37.533   0.963
63793W        W36218  12.729  39.033  12.029
63794W        W36219  34.074  39.885  10.462
63795W        W36220   3.400  35.023  12.948
63796W        W36221   3.886  15.781   0.444
63797W        W36222  28.159  20.680  13.035
63798W        W36223  11.280  21.609   1.831
63799W        W36224   9.176  41.981   1.385
63800W        W36225  20.682  13.277   4.770
63801W        W36226  11.633  19.669   0.727
63802W        W36227  22.599  26.492   0.369
63803W        W36228  12.624  27.498  12.348
63804W        W36229  17.644   1.786  13.986
63805W        W36230   3.280  15.719  10.415
63806W        W36231   6.838  10.851  13.964
63807W        W36232  38.542  42.973  10.905
63808W        W36233  29.064  32.524  12.556
63809W        W36234  30.127  36.543  12.002
63810W        W36235  33.053  38.422  12.567
63811W        W36236  36.873  38.563  10.468
63812W        W36237  31.548  37.508  11.410
63813W        W36238  18.073  43.974  13.961
63814W        W36239  18.262   0.846   2.879
63815W        W36240  24.979  14.128  11.377
63816W        W36241  19.090  30.483   1.742
63817W        W36242  38.932  42.889  11.909
63818W        W36243   8.806  35.411   1.762
63819W        W36244  12.129  29.536   2.758
63820W        W36245   7.339  42.937  13.315
63821W        W36246  18.667  16.267  14.828
63822W        W36247  40.396  43.402   3.738
63823W        W36248  25.529  10.759  12.033
63824W        W36249  37.959  22.101   1.907
63825W        W36250  21.539   4.763  10.633
63826W        W36251  11.741  40.404   4.836
63827W        W36252  31.049  43.935  13.541
63828W        W36253  20.751  26.190   1.863
63829W        W36254  25.148   1.899  12.837
63830W        W36255  15.644  27.522   4.306
63831W        W36256  22.164   5.436   2.801
63832W        W36257   3.900  17.187  10.594
63833W        W36258  30.913  19.196  14.479
63834W        W36259  23.116  16.756  11.496
63835W        W36260  18.729   6.276   0.451
63836W        W36261   9.868  10.848   3.180
63837W        W36262  33.408  20.742   1.414
63838W        W36263  10.315  29.124   2.200
63839W        W36264  27.943  24.693  11.388
63840W        W36265  32.904  44.938  10.509
63841W        W36266  26.186  17.071   1.369
63842W        W36267  29.048  26.965   0.443
63843W        W36268  23.202   1.332  12.894
63844W        W36269  28.610  24.973   1.218
63845W        W36270  17.702  18.144   4.218
63846W        W36271  35.066  18.766  13.341
63847W        W36272  20.593   7.178  11.027
63848W        W36273  30.949  28.993  14.951
63849W        W36274  24.989  13.796   0.418
63850W        W36275  22.188  29.143   1.366
63851W        W36276  34.966   6.868   1.299
63852W        W36277  20.671  28.063  12.392
63853W        W36278  34.931  33.551   4.226
63854W        W36279   0.459  34.409  14.319
63855W        W36280   2.954  28.609   1.743
63856W        W36281  33.442  16.252   0.433
63857W        W36282  39.337  12.789   1.785
63858W        W36283  28.966  39.921  11.435
63859W        W36284  19.120  23.219  14.864
63860W        W36285  42.028  25.062   5.129
63861W        W36286  40.874  29.635   2.341
63862W        W36287  10.305  11.163   2.897
63863W        W36288  41.491  21.018  12.518
63864W        W36289  44.921   3.427  11.113
63865W        W36290  12.229  30.145   0.876
63866W        W36291  42.401  19.088   2.334
63867W        W36292  15.191  34.049  14.928
63868W        W36293  27.149  10.818   3.152
63869W        W36294   1.961  28.551   4.230
63870W        W36295  29.587  14.598  10.964
63871W        W36296  41.403  41.315   2.809
63872W        W36297  21.191  12.190  13.891
63873W        W36298  21.560  10.145  13.532
63874W        W36299  40.423   2.964  11.894
63875W        W36300  12.307  31.025   4.341
63876W        W36301  12.233   8.759  11.000
63877W        W36302   8.161  22.131   3.638
63878W        W36303   3.938  15.263  13.540
63879W        W36304   7.707  12.720   2.359
63880W        W36305  28.942  13.685   2.358
63881W        W36306  43.349  18.244   2.722
63882W        W36307   4.931  24.206  11.084
63883W        W36308  25.640  40.042  14.276
63884W        W36309  43.270  15.783  12.341
63885W        W36310  12.652  44.978  10.411
63886W        W36311   4.931  12.803  14.970
63887W        W36312  14.266   1.838  11.561
63888W        W36313  30.080  28.456  11.006
63889W        W36314  13.192  23.652   3.758
63890W        W36315  16.769  44.284   2.780
63891W        W36316  41.339  24.528  10.543
63892W        W36317  16.629  15.788  11.602
63893W        W36318  14.640  15.618  14.299
63894W        W36319  28.508  16.805  11.025
63895W        W36320  13.284  37.954  11.913
63896W        W36321  24.224  21.088   4.319
63897W        W36322  19.770  19.612   2.206
63898W        W36323  22.574   9.850   3.359
63899W        W36324  17.729  41.854   3.160
63900W        W36325   2.924  40.433   4.681
63901W        W36326  32.001  16.157   4.704
63902W        W36327  34.034  13.249   3.752
63903W        W36328   1.457   5.710  14.827
63904W        W36329  36.916  16.291   0.905
63905W        W36330  17.784  36.367  10.596
63906W        W36331  28.113  32.097   2.312
63907W        W36332  33.877  12.166   4.679
63908W        W36333   6.332  34.968   4.159
63909W        W36334  41.376  35.386   0.282
63910W        W36335  32.441  25.084  10.154
63911W        W36336  41.472   7.220   1.847
63912W        W36337  42.491  16.205   1.406
63913W        W36338  40.876   1.400  11.127
63914W        W36339   2.372  23.561  12.071
63915W        W36340  11.250  40.879  11.441
63916W        W36341  14.773  38.842  12.388
63917W        W36342  19.708  28.589   2.713
63918W        W36343  30.519  14.183  10.541
63919W        W36344  36.369  19.136   1.252
63920W        W36345  30.075   9.778   4.614
63921W        W36346  24.704   4.360  10.498
63922W        W36347  26.165  10.321   1.331
63923W        W36348   9.680  38.549  14.279
63924W        W36349  15.123   8.787   0.348
63925W        W36350   3.718  30.140   0.880
63926W        W36351  29.042  41.951   1.448
63927W        W36352  35.555  10.796   0.945
63928W        W36353  15.182  16.590   3.798
63929W        W36354   2.461  23.059   2.183
63930W        W36355  17.615  10.761  14.883
63931W        W36356  18.718  13.155  13.018
63932W        W36357   0.354   5.414  13.948
63933W        W36358  13.294  36.362   0.432
63934W        W36359  28.535  29.486  10.084
63935W        W36360  25.487  13.294  14.340
63936W        W36361  41.328   7.861  11.579
63937W        W36362  25.002   7.768  10.588
63938W        W36363   5.283  34.972   2.377
63939W        W36364  35.095  32.086   3.310
63940W        W36365  38.447   0.966  13.516
63941W        W36366  34.022   2.289   4.620
63942W        W36367  17.718  22.665   0.364
63943W        W36368   3.929  39.385   2.701
63944W        W36369  28.056  37.930   4.289
63945W        W36370  26.063  15.824   0.267
63946W        W36371  23.594  38.430   2.221
63947W        W36372   8.392  35.551   1.784
63948W        W36373  31.107  40.378  11.451
63949W        W36374  15.734  33.989   4.334
63950W        W36375  16.772  32.108   4.773
63951W        W36376  41.956  33.560  10.508
63952W        W36377  34.892  35.900  14.449
63953W        W36378  38.856  11.768  14.381
63954W        W36379  41.326  25.071  11.903
63955W        W36380  16.739  30.951  13.044
63956W        W36381  35.902   2.228  11.856
63957W        W36382   2.435  16.280   1.264
63958W        W36383  17.162   4.249  13.031
63959W        W36384  41.979  11.853  11.508
63960W        W36385  27.474  44.263   4.122
63961W        W36386  24.644   1.883  12.396
63962W        W36387  40.888  12.737  10.403
63963W        W36388  36.414  28.497   4.661
63964W        W36389  21.034   7.281  12.988
63965W        W36390  24.139   0.372   3.790
63966W        W36391  42.446  36.439   0.329
63967W        W36392  34.055  36.892  11.435
63968W        W36393   9.346   7.835  12.872
63969W        W36394  11.661  42.285  13.414
63970W        W36395  28.544  35.950   2.737
63971W        W36396  10.378   9.227  13.357
63972W        W36397  27.523  35.101  10.568
63973W        W36398  10.244  22.032  12.996
63974W        W36399  11.850   7.705   2.714
63975W        W36400  38.551  28.525   0.954
63976W        W36401  37.569  39.889   2.316
63977W        W36402   1.861   9.739  10.425
63978W        W36403  23.705  16.794   2.882
63979W        W36404  34.945   5.779   4.192
63980W        W36405  26.118  38.924   4.303
63981W        W36406  42.385  34.459   0.892
63982W        W36407  16.620   0.969  12.840
63983W        W36408   0.791  11.314  13.325
63984W        W36409  28.134  35.523  14.290
63985W        W36410   4.438   3.306   3.338
63986W        W36411  28.464  43.917   3.705
63987W        W36412  21.028  32.990   2.662
63988W        W36413  19.038  38.931   0.911
63989W        W36414   3.387  40.962  13.821
63990W        W36415  24.577  41.954  12.039
63991W        W36416  24.601  30.428   4.722
63992W        W36417  23.142  40.426   0.765
63993W        W36418  20.167  14.110  12.051
63994W        W36419  31.968  26.615  10.034
63995W        W36420  34.538  36.509  10.578
63996W        W36421  12.803  40.943  10.632
63997W        W36422  36.582  11.223  11.918
63998W        W36423  10.194  37.030  10.593
63999W        W36424  16.792   2.950  11.026
64000W        W36425  42.473   8.238   3.284
64001W        W36426  11.660  34.424  10.406
64002W        W36427  11.720  27.543   0.829
64003W        W36428   0.928  42.886  10.619
64004W        W36429  11.221  20.176   0.953
64005W        W36430   8.289  26.083   4.723
64006W        W36431  23.514  40.482  11.408
64007W        W36432  28.490  39.345   2.873
64008W        W36433  31.566  21.163   4.178
64009W        W36434  20.147  14.804   3.157
64010W        W36435   8.818  18.123   4.635
64011W        W36436  26.198  10.337  10.935
64012W        W36437  20.551   6.788   1.363
64013W        W36438  23.240   0.782   1.884
64014W        W36439   7.395  38.909  12.455
64015W        W36440  25.062   9.743   2.707
64016W        W36441  27.064  19.651  12.076
64017W        W36442  16.745  20.539  12.533
64018W        W36443  14.310  13.605  12.937
64019W        W36444   3.767  25.216   0.275
64020W        W36445  10.142  18.055  13.977
64021W        W36446  37.346  13.210  14.314
64022W        W36447   5.908  38.523  13.343
64023W        W36448  34.019  18.142   3.170
64024W        W36449  22.538  11.271  14.473
64025W        W36450   0.818  25.125  11.553
64026W        W36451  34.401  28.585   3.225
64027W        W36452  12.197  21.719  10.906
64028W        W36453  10.721  30.156  10.416
64029W        W36454   9.266  37.449   2.676
64030W        W36455   0.876  41.938  10.923
64031W        W36456   2.344  40.473  10.598
64032W        W36457  37.996   7.323   0.890
64033W        W36458  18.610  19.567   2.263
64034W        W36459  32.985  17.149  11.891
64035W        W36460  32.097  41.332   1.709
64036W        W36461   1.402   0.310  13.030
64037W        W36462  26.698  14.794   3.186
64038W        W36463  25.041   6.421   2.887
64039W        W36464  43.428  44.989   0.274
64040W        W36465  14.827   6.203  10.071
64041W        W36466  25.127  15.744   0.449
64042W        W36467  12.720  39.815  12.484
64043W        W36468  19.201  31.068  14.852
64044W        W36469  30.922  41.886   0.357
64045W        W36470   9.860  17.242   0.318
64046W        W36471  10.200  15.740  12.505
64047W        W36472  13.746  34.378   3.753
64048W        W36473  12.753   3.443   0.761
64049W        W36474  10.262  35.006   3.215
64050W        W36475  14.180  12.708  14.842
64051W        W36476  20.207  41.505   3.645
64052W        W36477  29.483  21.166   2.379
64053W        W36478  16.736  20.629  12.843
64054W        W36479   0.469  41.294   0.349
64055W        W36480  33.024  42.836   0.939
64056W        W36481  25.168  34.458  10.990
64057W        W36482  15.683  21.612  10.122
64058W        W36483   0.379   7.903   1.316
64059W        W36484  20.706   3.268   1.260
64060W        W36485  21.159  41.489   3.377
64061W        W36486   6.302  21.584  13.322
64062W        W36487   5.342  31.044   2.859
64063W        W36488  16.702   0.475   3.807
64064W        W36489  16.588  41.525  10.498
64065W        W36490  14.214  28.572   0.749
64066W        W36491  12.807  10.271   3.241
64067W        W36492  37.078  41.480   4.271
64068W        W36493  24.115  25.038  12.852
64069W        W36494  25.115  22.192   3.356
64070W        W36495  23.036  38.880  12.085
64071W        W36496  25.181   6.916  14.452
64072W        W36497  13.805  17.296   0.914
64073W        W36498  34.982   2.266  12.894
64074W        W36499  44.398   6.679   2.186
64075W        W36500  13.826  41.957  14.793
64076W        W36501  16.732  10.760   2.756
64077W        W36502  14.143   8.719   1.395
64078W        W36503  15.310   9.275   3.242
64079W        W36504  38.458   9.702   4.210
64080W        W36505  24.657   8.834   3.319
64081W        W36506   4.227  33.392   4.810
64082W        W36507  40.880  42.397   1.299
64083W        W36508  37.844   6.208  13.054
64084W        W36509  31.508  22.198  13.891
64085W        W36510  25.977  18.213  11.912
64086W        W36511  11.315  38.983   3.359
64087W        W36512  17.578  40.373  10.463
64088W        W36513   0.352  14.680  12.426
64089W        W36514  11.244  33.608  13.526
64090W        W36515   2.456  34.433  12.535
64091W        W36516   4.448  44.291   3.342
64092W        W36517  37.936  22.741  12.522
64093W        W36518  19.717   5.237  10.625
64094W        W36519  21.636  12.173   1.805
64095W        W36520   1.958  18.146   2.809
64096W        W36521  42.454  37.942   4.268
64097W        W36522   3.816  14.658  13.972
64098W        W36523   7.747  40.388   4.281
64099W        W36524  17.297  14.683  13.970
64100W        W36525  36.410  41.004  14.905
64101W        W36526   7.690   4.924  11.101
64102W        W36527  28.137  14.715   0.466
64103W        W36528   6.697   7.820   4.705
64104W        W36529  35.483  16.309   2.180
64105W        W36530  31.555   5.752  13.483
64106W        W36531  42.877  41.921  12.407
64107W        W36532  41.332  43.400  11.972
64108W        W36533  18.070  31.403  13.322
64109W        W36534   8.680  32.391   1.772
64110W        W36535   9.353  43.467   2.728
64111W        W36536  27.458  21.754  11.093
64112W        W36537  35.076  25.005  12.865
64113W        W36538  42.872  13.768  12.505
64114W        W36539  28.454   5.897  12.044
64115W        W36540  37.386  33.527   3.699
64116W        W36541  40.487  16.284  12.039
64117W        W36542   8.678  33.976   2.670
64118W        W36543  41.494  33.618   1.794
64119W        W36544   7.242  19.136   1.772
64120W        W36545  28.951  15.315   3.741
64121W        W36546  14.305  25.547   0.277
64122W        W36547  32.595  11.775  12.451
64123W        W36548  24.594  14.696   3.247
64124W        W36549  30.987  11.317  14.449
64125W        W36550   0.446  41.914  14.006
64126W        W36551  28.159  13.332   0.945
64127W        W36552  15.187  18.603  10.430
64128W        W36553  40.404  37.893   3.289
64129W        W36554  22.235   4.780   0.275
64130W        W36555  17.261   6.218  12.040
64131W        W36556  31.070  18.675  12.515
64132W        W36557  42.022   6.697   1.396
64133W        W36558   6.814  16.766   0.840
64134W        W36559  36.889  40.041   2.682
64135W        W36560  33.380  21.610   0.872
64136W        W36561  15.714  29.132   0.732
64137W        W36562  15.292  21.633   4.775
64138W        W36563  15.133  10.810   2.900
64139W        W36564   8.849  19.218  13.541
64140W        W36565   7.369  20.119   3.282
64141W        W36566   6.862  10.785  13.034
64142W        W36567   9.648  37.846  11.921
64143W        W36568   3.750  15.813  12.918
64144W        W36569  25.515   2.749  10.585
64145W        W36570  16.270  33.403   2.817
64146W        W36571  41.857  14.314  13.928
64147W        W36572  30.160  18.553   2.689
64148W        W36573   4.292  17.582  11.590
64149W        W36574  23.497   4.300  12.868
64150W        W36575  19.667  14.709  10.904
64151W        W36576   8.862   1.937  14.868
64152W        W36577  10.318   8.868   4.604
64153W        W36578   0.957  17.713   0.451
64154W        W36579  25.708  18.064   3.795
64155W        W36580  43.940  38.412   4.788
64156W        W36581   8.254  28.489  10.602
64157W        W36582  36.887  30.568  12.846
64158W        W36583  21.256  26.165   2.699
64159W        W36584  29.434   1.908  13.047
64160W        W36585  17.211  10.203   1.898
64161W        W36586   9.168   3.403   0.457
64162W        W36587   9.306  24.198   3.761
64163W        W36588  17.755  38.521  10.973
64164W        W36589  21.645  42.841   4.612
64165W        W36590  36.043   6.803  14.867
64166W        W36591  31.930  20.159  14.407
64167W        W36592  43.437  43.470   0.901
64168W        W36593  21.532   5.927   3.316
64169W        W36594   3.253  40.451   5.221
64170W        W36595  22.034  26.115   3.341
64171W        W36596  33.430  35.916  10.018
64172W        W36597   4.220  11.765  13.873
64173W        W36598   2.429  27.944  12.904
64174W        W36599  38.847  29.651   4.698
64175W        W36600  18.196  40.467  11.417
64176W        W36601  16.082  11.685  12.830
64177W        W36602  33.997   7.897   0.893
64178W        W36603  23.186  40.431   4.251
64179W        W36604  25.490   9.260  12.915
64180W        W36605  18.226   3.837   0.318
64181W        W36606   1.967  29.437  13.530
64182W        W36607  38.455   9.890   2.324
64183W        W36608  15.724   9.261   3.688
64184W        W36609  28.971  29.561  14.379
64185W        W36610  34.419  40.996  11.129
64186W        W36611  29.534  14.768  11.872
64187W        W36612  24.167  20.568  14.508
64188W        W36613   0.959  36.376   3.781
64189W        W36614  14.310  28.454   2.208
64190W        W36615   4.359   7.332  10.937
64191W        W36616  19.219  33.469  14.937
64192W        W36617  17.616  39.988   0.876
64193W        W36618  23.588  22.097   0.792
64194W        W36619  44.415  10.229   4.687
64195W        W36620  21.586  36.028   3.689
64196W        W36621  31.952   5.787   2.894
64197W        W36622  10.730  23.227   1.323
64198W        W36623   0.457  29.541  10.483
64199W        W36624  30.003  14.746   4.226
64200W        W36625  13.264  33.943  12.037
64201W        W36626  10.731  19.053   0.358
64202W        W36627   6.693   0.750  14.896
64203W        W36628   8.265  15.150  11.435
64204W        W36629  44.771   7.690  10.500
64205W        W36630  40.914  32.476  11.590
64206W        W36631  37.951  18.651   4.671
64207W        W36632  36.058  17.213  13.956
64208W        W36633   1.377  38.429   0.391
64209W        W36634  40.439   7.413  11.070
64210W        W36635  15.120  16.759  10.499
64211W        W36636  43.319  13.603   1.317
64212W        W36637  32.015  20.191   3.712
64213W        W36638  10.320  13.333  12.442
64214W        W36639  17.752   5.405  13.535
64215W        W36640   8.367  18.270  10.993
64216W        W36641   0.465  38.479  11.960
64217W        W36642  36.487  12.239  14.858
64218W        W36643  25.967  23.005   3.837
64219W        W36644  42.840  26.187  11.541
64220W        W36645  11.758  21.077   1.315
64221W        W36646  31.464  14.203  12.455
64222W        W36647  24.007  25.989  14.848
64223W        W36648  24.112   2.964  14.422
64224W        W36649   3.950  42.982   0.248
64225W        W36650  18.554  17.560  12.062
64226W        W36651  39.942  16.630   3.735
64227W        W36652  31.896  37.933  12.843
64228W        W36653   1.439  24.044   0.891
64229W        W36654  13.740  44.397   4.215
64230W        W36655  44.281   9.281  14.857
64231W        W36656  19.134  40.980  10.502
64232W        W36657  14.132  37.533   5.294
64233W        W36658  39.994  14.111   3.759
64234W        W36659  18.780   7.707  13.061
64235W        W36660  25.618  35.975  10.972
64236W        W36661  15.592  16.616  13.037
64237W        W36662  26.589  30.962  13.454
64238W        W36663  34.908  34.004   4.773
64239W        W36664  10.662   7.212   4.632
64240W        W36665   4.708  40.340  10.427
64241W        W36666   8.319  11.312   0.259
64242W        W36667  26.493  34.940   1.840
64243W        W36668  27.091   6.423   4.156
64244W        W36669  37.857  22.014   3.275
64245W        W36670  40.537  13.313   3.282
64246W        W36671  32.950  30.123   4.657
64247W        W36672  14.154  40.830   2.901
64248W        W36673  18.615  31.144  14.290
64249W        W36674  25.599  43.966  14.488
64250W        W36675   3.866  33.488   1.714
64251W        W36676  14.213  19.735  12.842
64252W        W36677  15.151  19.158   1.305
64253W        W36678  41.305  35.397  14.445
64254W        W36679  11.824  32.104   4.147
64255W        W36680   1.353  39.340   2.779
64256W        W36681  41.020  14.243   1.336
64257W        W36682   5.408  38.996   3.785
64258W        W36683   9.707   1.866   1.322
64259W        W36684  31.920  32.045  14.779
64260W        W36685  29.629  10.867  14.444
64261W        W36686   8.815  16.210  14.896
64262W        W36687  24.070   9.840   0.757
64263W        W36688  13.765   6.676   0.420
64264W        W36689  31.043   7.311  11.990
64265W        W36690  35.380  22.023   2.194
64266W        W36691  32.048  26.601  14.992
64267W        W36692  33.092   1.872  11.068
64268W        W36693  24.069  26.203   2.335
64269W        W36694   4.923   7.692  13.027
64270W        W36695   1.821  42.884   0.271
64271W        W36696  26.193  43.015  12.436
64272W        W36697  17.281   7.297   0.946
64273W        W36698  13.258  21.639   4.185
64274W        W36699  16.603  17.234   2.219
64275W        W36700   3.374  31.600  12.556
64276W        W36701   6.405  40.953  12.860
64277W        W36702  18.208  21.246  12.527
64278W        W36703  26.641  20.660   0.261
64279W        W36704   3.816  28.578  13.049
64280W        W36705  38.997  16.595   4.694
64281W        W36706   4.828  23.711   2.371
64282W        W36707  19.195   6.725  13.459
64283W        W36708   8.207  16.136   4.278
64284W        W36709  15.750  15.613   0.894
64285W        W36710  11.169  13.338   2.838
64286W        W36711  13.630  22.519   1.808
64287W        W36712  43.891  37.833  10.606
64288W        W36713  36.911  11.665   0.947
64289W        W36714  39.883  32.489   0.451
64290W        W36715   0.818  12.132   2.800
64291W        W36716  34.100   2.872   2.777
64292W        W36717  43.466  13.239   0.455
64293W        W36718  40.344  38.421   0.338
64294W        W36719  44.893  25.493  12.088
64295W        W36720  15.307   3.298  13.985
64296W        W36721   1.400  10.307   2.240
64297W        W36722   1.450  23.548   4.825
64298W        W36723  23.619  33.433  12.996
64299W        W36724  21.027  42.932  14.896
64300W        W36725  21.189  31.914   0.297
64301W        W36726   9.800  35.989  14.335
64302W        W36727  44.960   6.347  12.062
64303W        W36728  31.959  36.470   4.737
64304W        W36729  35.466  41.521  10.440
64305W        W36730  10.361   0.820  12.865
64306W        W36731   4.344  31.564  14.904
64307W        W36732   1.869  13.208   1.270
64308W        W36733  34.885  44.339   3.379
64309W        W36734  18.105   3.752   0.925
64310W        W36735  44.339  11.846  12.434
64311W        W36736   5.335   3.948   2.391
64312W        W36737   3.365  11.808  11.019
64313W        W36738  43.353  37.495   0.864
64314W        W36739  42.992  12.788  13.797
64315W        W36740   7.739  38.041   0.260
64316W        W36741  29.471  39.448  13.927
64317W        W36742   4.211  24.025  12.881
64318W        W36743  20.264  29.053   3.654
64319W        W36744  12.748  19.660  14.849
64320W        W36745  40.316  38.559   1.764
64321W        W36746  16.595  29.629  13.381
64322W        W36747  44.489  35.365  10.990
64323W        W36748  21.756  25.008  12.853
64324W        W36749  42.830  39.020  12.504
64325W        W36750  31.437  39.918  14.792
64326W        W36751   3.733  37.340   1.312
64327W        W36752  19.647   0.462   3.230
64328W        W36753  23.550  36.583   2.732
64329W        W36754   6.892  30.917  12.393
64330W        W36755   3.809  22.123  13.861
64331W        W36756  38.060  40.908  13.446
64332W        W36757  26.596  25.102  10.615
64333W        W36758  42.299  19.647  12.498
64334W        W36759  41.472  22.502  13.488
64335W        W36760  35.026  43.851   3.348
64336W        W36761   4.263  33.620  11.383
64337W        W36762   7.753  13.677   2.406
64338W        W36763  13.262  12.256   4.285
64339W        W36764  28.091  23.185   1.924
64340W        W36765   5.792  14.191   2.273
64341W        W36766   7.336  11.694  10.588
64342W        W36767  28.665  33.925  11.405
64343W        W36768   5.817  38.327   2.899
64344W        W36769  15.734  18.186   4.751
64345W        W36770  26.600  15.282   3.868
64346W        W36771  31.071  27.589  11.445
64347W        W36772   3.905  18.234  13.516
64348W        W36773  42.431  39.525   1.697
64349W        W36774   7.754  37.026   0.895
64350W        W36775  24.154  18.684   3.229
64351W        W36776  15.118  39.548  10.487
64352W        W36777  17.668  12.682   1.428
64353W        W36778  32.067  41.364   2.873
64354W        W36779  11.338  35.528   2.399
64355W        W36780  30.520  33.531  14.899
64356W        W36781  28.623  41.811  13.794
64357W        W36782  11.815   8.293   1.228
64358W        W36783  33.899  35.878  14.804
64359W        W36784  15.156  35.398   3.376
64360W        W36785   9.365   8.217  10.964
64361W        W36786  29.573   0.477  13.423
64362W        W36787  30.027  36.560   2.236
64363W        W36788  18.226  33.565   3.797
64364W        W36789  25.501  23.688  11.512
64365W        W36790  37.357   4.728   0.362
64366W        W36791  36.078   9.306   2.275
64367W        W36792  26.544  24.199  12.855
64368W        W36793   6.239  31.591  13.324
64369W        W36794  25.112  35.421  11.382
64370W        W36795   5.379   8.862  12.486
64371W        W36796   0.463  33.994   1.810
64372W        W36797   7.297  39.515  11.550
64373W        W36798  33.604  16.745   1.713
64374W        W36799   0.758  12.116   3.345
64375W        W36800  19.285  38.417   1.425
64376W        W36801  43.415   4.362  11.897
64377W        W36802  29.453  32.507   1.427
64378W        W36803  22.689  19.594  10.084
64379W        W36804   7.864  31.986  10.466
64380W        W36805  12.643   4.437   5.241
64381W        W36806  15.279  36.471   1.789
64382W        W36807   0.354  13.724   1.440
64383W        W36808  44.840  26.501   0.965
64384W        W36809  40.840  44.353   3.252
64385W        W36810  10.168  32.005  10.928
64386W        W36811  34.397  18.054   3.320
64387W        W36812   7.175  19.219  13.819
64388W        W36813  14.102  30.595   1.391
64389W        W36814  26.113   4.800  12.413
64390W        W36815  15.203  23.094   0.922
64391W        W36816   2.891   7.806   0.902
64392W        W36817  44.424  44.799  12.970
64393W        W36818  32.115  25.053   0.336
64394W        W36819  12.747  34.426  13.526
64395W        W36820   4.235  26.697  14.803
64396W        W36821  42.505  20.131   0.919
64397W        W36822   5.833  17.741  12.419
64398W        W36823  32.891   4.845  13.424
64399W        W36824  44.437  42.465   0.846
64400W        W36825  40.874  33.481  10.959
64401W        W36826  16.777  22.560  14.028
64402W        W36827  16.306  39.011  14.399
64403W        W36828  23.526   1.789  13.969
64404W        W36829  43.326  21.624  11.552
64405W        W36830   0.335   8.221  10.563
64406W        W36831   7.769  11.664   3.365
64407W        W36832  18.717   9.175  10.643
64408W        W36833  35.888  28.614  10.405
64409W        W36834  34.017   9.265  11.399
64410W        W36835  17.070  21.032   5.296
64411W        W36836  15.663   7.340   1.250
64412W        W36837  25.092  20.712   1.446
64413W        W36838   4.789  13.266  12.376
64414W        W36839   3.412  10.258   2.224
64415W        W36840  25.518  36.092   1.442
64416W        W36841  12.650   5.328   1.794
64417W        W36842  28.069  30.505  10.045
64418W        W36843  44.274  28.941   1.764
64419W        W36844  38.504  29.584   4.641
64420W        W36845   8.661  30.933  11.037
64421W        W36846   9.235   1.966  12.477
64422W        W36847  19.059  12.701   2.409
64423W        W36848  35.973  14.137  14.912
64424W        W36849  36.913  29.013   0.736
64425W        W36850  15.124   3.714  14.822
64426W        W36851  23.122  44.358  12.075
64427W        W36852  31.932  35.065  10.920
64428W        W36853  42.481  20.717  13.814
64429W        W36854  35.991  30.491  10.462
64430W        W36855  19.654   5.405   1.249
64431W        W36856  24.676  35.539  13.349
64432W        W36857  15.153  40.420   1.447
64433W        W36858  17.766  21.647   0.418
64434W        W36859  31.989  17.734  11.918
64435W        W36860  26.086  18.261   1.796
64436W        W36861  22.098   4.216   2.333
64437W        W36862   1.249  10.140  14.462
64438W        W36863  39.965  34.996  13.520
64439W        W36864  42.002   3.938   0.254
64440W        W36865  20.036  23.727  10.081
64441W        W36866  33.407  23.052   2.667
64442W        W36867  27.051   5.380  13.991
64443W        W36868  33.387  33.022  11.478
64444W        W36869  29.999  43.316  12.450
64445W        W36870  40.023   5.807  11.391
64446W        W36871  36.007  34.893   2.278
64447W        W36872  21.196  40.351  11.866
64448W        W36873  36.040  18.200   4.171
64449W        W36874  34.420  43.881   3.247
64450W        W36875  19.060  36.049   4.627
64451W        W36876  25.977   6.773  14.306
64452W        W36877  18.603  35.590   4.832
64453W        W36878  24.148  28.471   1.725
64454W        W36879   0.955  43.340  14.801
64455W        W36880  38.962  19.773   2.413
64456W        W36881  16.639  35.484   1.443
64457W        W36882   0.891  22.705  10.003
64458W        W36883  20.529  42.470   4.285
64459W        W36884   7.906   9.197   2.733
64460W        W36885  18.570  15.287  14.759
64461W        W36886   2.279  19.228   0.920
64462W        W36887   0.433  23.603   0.405
64463W        W36888  30.568  30.157  11.044
64464W        W36889  30.963  40.911   0.315
64465W        W36890   3.258  38.371  12.515
64466W        W36891   2.299  14.616  12.077
64467W        W36892  15.146  42.978   0.894
64468W        W36893  26.190  24.634  12.839
64469W        W36894  42.447  21.577   3.846
64470W        W36895  14.623  23.179   9.640
64471W        W36896  43.897  30.095  11.934
64472W        W36897   9.799   1.478  12.069
64473W        W36898  25.066  15.254  13.840
64474W        W36899  14.590   3.741   4.117
64475W        W36900  38.509  26.143   3.730
64476W        W36901  17.224  10.219  10.534
64477W        W36902  22.504  26.613   5.142
64478W        W36903  24.102   7.196  14.998
64479W        W36904  42.482  11.774  12.962
64480W        W36905  10.378   7.284   4.122
64481W        W36906  24.621  29.162   1.376
64482W        W36907   2.246  28.000  11.533
64483W        W36908  20.210  31.416  14.871
64484W        W36909  38.021   4.906  14.336
64485W        W36910  23.229  31.098  14.411
64486W        W36911  23.014  30.523  13.816
64487W        W36912  42.952  14.189   5.207
64488W        W36913  27.978  17.195   1.804
64489W        W36914  20.731  15.712  13.963
64490W        W36915  18.182  28.990   0.912
64491W        W36916  43.278   9.158   1.719
64492W        W36917  15.813  10.755   2.413
64493W        W36918  41.963  33.509   3.852
64494W        W36919  33.484  32.422   2.401
64495W        W36920  31.440   8.309   1.243
64496W        W36921  30.991  15.279   2.300
64497W        W36922  35.490  31.611   4.749
64498W        W36923  13.817  29.485   2.317
64499W        W36924   4.311  29.118   1.744
64500W        W36925  14.606  44.868   1.906
64501W        W36926  18.646  40.325   2.185
64502W        W36927  43.906   6.730  10.606
64503W        W36928   0.331  10.198  10.411
64504W        W36929  26.561   9.362   1.897
64505W        W36930  29.934  33.019   2.215
64506W        W36931  12.822   6.805  11.403
64507W        W36932  32.412  41.480  14.848
64508W        W36933  10.646  11.338   4.217
64509W        W36934  18.183  10.682  12.567
64510W        W36935   7.330   8.270  12.950
64511W        W36936  15.754  31.096  12.006
64512W        W36937  11.168  33.901  12.566
64513W        W36938   9.746  31.012   2.679
64514W        W36939  23.677  13.260   1.700
64515W        W36940  27.183   7.240   3.691
64516W        W36941  22.012   5.364   4.147
64517W        W36942  13.177   8.700   3.845
64518W        W36943  17.641  38.043   3.723
64519W        W36944  29.480  23.683  12.839
64520W        W36945  16.203  31.420   4.824
64521W        W36946  14.186   1.391  13.006
64522W        W36947  31.140  41.890  11.393
64523W        W36948  24.629  44.347   0.751
64524W        W36949  34.891   9.201   0.418
64525W        W36950  10.138   1.393  12.010
64526W        W36951  35.466  25.522   4.192
64527W        W36952  23.122  11.812   3.699
64528W        W36953   6.733  41.834  13.443
64529W        W36954   7.255   9.336   0.936
64530W        W36955   2.747  27.035   4.121
64531W        W36956   7.746  28.603  12.438
64532W        W36957   0.785  21.662  12.983
64533W        W36958  41.881   4.284  11.935
64534W        W36959  43.891  25.204   3.248
64535W        W36960  11.673  34.902  14.001
64536W        W36961   6.782  24.593  10.888
64537W        W36962  36.931  26.099  11.473
64538W        W36963  19.700  43.344  13.023
64539W        W36964  31.582  39.025   0.835
64540W        W36965   0.949  22.090   4.244
64541W        W36966  40.880  18.188  10.619
64542W        W36967  28.177  24.016  14.799
64543W        W36968   1.243  28.977  11.011
64544W        W36969  20.092   3.740  11.863
64545W        W36970   8.197  33.885  10.430
64546W        W36971  28.083  21.526   0.266
64547W        W36972  29.139  27.538   2.663
64548W        W36973   8.176  31.123  11.521
64549W        W36974  10.186  33.058   0.782
64550W        W36975  36.917  25.082  13.372
64551W        W36976   8.180  41.985   1.403
64552W        W36977  21.099  12.742  13.867
64553W        W36978  41.948  29.530   1.718
64554W        W36979  17.089  30.036  14.498
64555W        W36980  20.163  33.413   2.857
64556W        W36981  22.068  42.508   4.617
64557W        W36982  44.286  32.052   2.311
64558W        W36983  33.391   6.886   4.829
64559W        W36984  21.031  44.504  14.282
64560W        W36985   0.817  16.221  14.928
64561W        W36986   2.771  41.915   3.209
64562W        W36987  28.145   4.812  12.048
64563W        W36988   0.260  31.947   5.308
64564W        W36989  27.618  20.656  14.967
64565W        W36990  22.242  24.497  11.125
64566W        W36991  21.200  30.980   9.920
64567W        W36992  11.171  38.889  12.569
64568W        W36993  39.822  30.622   1.799
64569W        W36994  22.576  16.732   4.351
64570W        W36995  34.494  32.491  14.793
64571W        W36996  30.440  21.080  14.381
64572W        W36997  44.986   1.945  14.456
64573W        W36998   3.757  14.775  11.078
64574W        W36999  11.306   3.866   4.809
64575W        W37000  42.425  18.748  11.402
64576W        W37001  31.558   1.755   3.768
64577W        W37002  35.025  36.392  14.380
64578W        W37003  34.958  39.378  11.386
64579W        W37004  19.186  16.797   2.295
64580W        W37005   0.426  40.919  13.443
64581W        W37006  27.472  27.652   1.418
64582W        W37007   7.813  40.389   2.411
64583W        W37008  10.747  31.130  13.061
64584W        W37009  34.480   5.195  12.426
64585W        W37010  28.141  29.437   0.353
64586W        W37011  11.747   2.738  12.511
64587W        W37012  18.595  30.612  14.364
64588W        W37013  40.541  23.166  13.518
64589W        W37014  30.041   6.713   0.298
64590W        W37015   8.662  32.557   3.818
64591W        W37016  25.180  43.864  11.529
64592W        W37017  43.014  33.032   1.813
64593W        W37018  21.069  11.765  13.907
64594W        W37019  14.666  39.912  13.057
64595W        W37020   8.850   3.780  12.403
64596W        W37021  35.887   5.862   4.745
64597W        W37022  34.110  36.392  14.359
64598W        W37023  34.510  42.997   3.847
64599W        W37024  41.323  27.943  13.433
64600W        W37025  17.188   9.160   3.257
64601W        W37026  36.888  19.577  12.398
64602W        W37027  39.433  12.244   1.905
64603W        W37028  20.134  15.636  14.344
64604W        W37029  39.919  14.153   4.218
64605W        W37030  18.166  30.487  10.982
64606W        W37031   0.278  30.514  12.046
64607W        W37032  29.974  34.073   0.401
64608W        W37033  24.659  44.832  14.809
64609W        W37034  42.836  27.143  11.598
64610W        W37035  18.286  38.398  11.512
64611W        W37036  29.514  40.333  12.918
64612W        W37037  33.600   3.856  11.609
64613W        W37038  23.079  10.685  13.838
64614W        W37039  32.965   2.449   3.802
64615W        W37040  41.357  37.967   3.837
64616W        W37041  14.777   8.778   5.258
64617W        W37042   7.216  24.141  10.570
64618W        W37043  25.192  11.203  14.497
64619W        W37044  11.174  12.220   2.667
64620W        W37045   6.218  17.207  14.298
64621W        W37046   1.920   8.865  12.092
64622W        W37047  22.637  40.841  14.016
64623W        W37048  27.513  32.984  13.454
64624W        W37049  24.013  24.530   1.358
64625W        W37050  15.184  37.415   2.338
64626W        W37051   9.171   7.175   4.657
64627W        W37052   8.756  22.649  11.404
64628W        W37053  40.978  44.872  11.059
64629W        W37054  27.940  21.059   1.262
64630W        W37055  35.574  21.716  11.447
64631W        W37056  17.107  36.065   0.329
64632W        W37057  35.593  20.063   3.343
64633W        W37058  42.857   7.771   0.730
64634W        W37059  36.450  22.138  10.939
64635W        W37060  20.186  26.203  14.432
64636W        W37061  23.645   6.268  14.412
64637W        W37062   4.869  15.160  11.531
64638W        W37063  28.495  33.099   2.267
64639W        W37064  11.684  37.883   1.695
64640W        W37065   0.296  29.424   3.697
64641W        W37066  25.116  36.457   2.858
64642W        W37067   0.745   4.240  11.966
64643W        W37068  25.500   6.812   4.136
64644W        W37069  10.745  27.671   4.643
64645W        W37070  14.333  11.809   0.883
64646W        W37071  37.441  44.830  14.017
64647W        W37072  21.743   0.386   0.897
64648W        W37073  34.934  31.483  11.062
64649W        W37074  42.933   4.337  13.952
64650W        W37075  39.062  17.200   5.138
64651W        W37076  24.194  35.004   3.356
64652W        W37077   1.977  15.720  11.905
64653W        W37078  40.036  32.079   2.835
64654W        W37079  40.396  27.142   1.387
64655W        W37080  10.828  28.064  12.571
64656W        W37081  25.570  41.971   0.428
64657W        W37082  19.780  34.426  14.516
64658W        W37083  19.574  16.083  13.021
64659W        W37084  40.511   8.161   0.762
64660W        W37085  10.652  21.193   3.678
64661W        W37086  13.665  31.545  11.870
64662W        W37087   2.829  33.119  13.383
64663W        W37088  41.303  11.677  12.068
64664W        W37089  12.731   3.411   5.182
64665W        W37090  36.506  23.211   4.327
64666W        W37091  34.079  27.081   0.335
64667W        W37092  19.141  33.486  12.409
64668W        W37093  10.163   3.424  14.779
64669W        W37094  11.237  37.403   4.251
64670W        W37095  36.966  18.561  14.504
64671W        W37096  18.072  18.099   0.449
64672W        W37097  19.274  29.511   4.826
64673W        W37098  42.284  40.996   1.913
64674W        W37099  43.450  26.993  14.832
64675W        W37100  19.560  33.934  12.997
64676W        W37101  18.627   3.241  13.318
64677W        W37102  28.467  20.254  11.381
64678W        W37103  21.628   5.416   1.335
64679W        W37104  14.254   9.767  13.038
64680W        W37105  10.170   5.898  11.494
64681W        W37106  13.134  27.507   4.179
64682W        W37107  27.545  19.780  14.488
64683W        W37108  10.360   9.768  13.021
64684W        W37109  38.443   0.339   4.832
64685W        W37110   6.188   4.937   5.211
64686W        W37111  12.616   5.757  10.567
64687W        W37112   0.492  20.135   1.931
64688W        W37113   5.923  19.196   2.782
64689W        W37114  29.922  16.810   1.701
64690W        W37115   4.446  12.785   3.384
64691W        W37116   2.427  28.936  11.449
64692W        W37117  21.697  41.481   2.183
64693W        W37118  25.646  16.750   0.465
64694W        W37119   8.867  35.039   4.669
64695W        W37120  36.485  17.220  14.432
64696W        W37121  13.254  27.481  10.489
64697W        W37122  13.652  33.131  14.338
64698W        W37123   0.809  28.540  14.412
64699W        W37124   2.236  31.972   2.836
64700W        W37125  18.230   4.922   4.206
64701W        W37126   5.883  36.988  13.368
64702W        W37127  35.554   0.439   0.416
64703W        W37128  16.697  43.379  14.460
64704W        W37129  12.119   9.314   3.303
64705W        W37130  25.552  17.597   1.898
64706W        W37131  30.070  30.927   4.737
64707W        W37132  35.874  36.071  12.893
64708W        W37133   3.391   4.920  14.787
64709W        W37134  44.300  39.844   0.273
64710W        W37135  43.281   8.739  13.802
64711W        W37136  16.718   9.205  14.794
64712W        W37137  41.940  23.713  14.413
64713W        W37138  31.101  19.597   4.137
64714W        W37139  38.829  14.613  14.408
64715W        W37140  32.395  44.782   1.242
64716W        W37141  34.915  37.068  14.980
64717W        W37142   7.266  32.086   1.268
64718W        W37143  20.190  17.735  14.467
64719W        W37144  38.553  32.046  10.509
64720W        W37145  17.647   2.426  13.347
64721W        W37146  20.766  18.712   3.825
64722W        W37147   9.186  19.215  12.900
64723W        W37148   7.895  31.618   1.383
64724W        W37149  24.074  31.958   3.329
64725W        W37150   1.935  27.469   2.361
64726W        W37151  43.282  35.034   1.767
64727W        W37152   6.383  38.933  12.892
64728W        W37153  28.118  21.668   3.801
64729W        W37154   3.391  22.018   3.196
64730W        W37155  21.603  17.776   2.672
64731W        W37156  25.642  37.557  14.896
64732W        W37157   9.702   0.775   0.421
64733W        W37158  10.637  40.986  12.374
64734W        W37159   1.352  19.196  11.589
64735W        W37160  12.789  26.652   5.306
64736W        W37161  16.645  17.094  12.509
64737W        W37162  20.249  26.506   2.356
64738W        W37163  28.580  40.516   0.309
64739W        W37164  32.628  32.017   4.179
64740W        W37165  14.120  35.954   2.394
64741W        W37166  34.978  29.526   1.781
64742W        W37167   5.334  22.569  14.768
64743W        W37168   0.849   9.151  12.538
64744W        W37169  18.593  43.956  12.447
64745W        W37170  31.907  37.006   1.329
64746W        W37171  44.763  20.557   4.337
64747W        W37172   2.288  40.009   0.915
64748W        W37173  11.660  29.117  14.385
64749W        W37174   0.449  20.638   2.770
64750W        W37175  28.582  18.156  14.400
64751W        W37176  11.144   6.266   4.766
64752W        W37177   4.304  27.150  10.612
64753W        W37178  33.606  43.372   0.829
64754W        W37179   6.698  29.670  10.433
64755W        W37180  18.684  12.671   3.651
64756W        W37181   3.459   6.863   2.329
64757W        W37182  35.364  16.103   1.388
64758W        W37183  28.063  20.711  13.987
64759W        W37184  37.576  16.099  13.841
64760W        W37185  38.898  41.924  13.416
64761W        W37186  20.649  33.576  14.471
64762W        W37187  31.142  25.079  11.584
64763W        W37188  20.669  32.478   3.325
64764W        W37189  44.774  35.094   1.254
64765W        W37190  17.697  35.383   1.226
64766W        W37191  12.836  20.632   3.819
64767W        W37192  31.550  22.211  11.122
64768W        W37193  14.266  29.971   2.328
64769W        W37194  32.464  23.726   4.300
64770W        W37195  24.098  33.538   4.194
64771W        W37196  26.095  33.063  11.081
64772W        W37197  23.985  21.617  11.122
64773W        W37198  38.345  19.589  10.490
64774W        W37199  40.811  26.681  11.921
64775W        W37200   6.246  25.167  12.447
64776W        W37201  10.733  34.880   3.843
64777W        W37202  31.004  22.641  10.930
64778W        W37203   6.205  22.082  13.450
64779W        W37204  31.899   1.444  14.966
64780W        W37205  11.158  11.162   1.778
64781W        W37206  12.174  15.724  13.544
64782W        W37207  19.261   7.720   4.656
64783W        W37208  16.226  24.698  13.932
64784W        W37209  38.948  10.870   1.874
64785W        W37210  25.181  22.092   0.257
64786W        W37211  14.797   9.189  11.544
64787W        W37212  37.847  36.000   3.741
64788W        W37213  43.839   5.879   0.478
64789W        W37214   0.256  30.493   0.360
64790W        W37215  12.857  10.693   0.327
64791W        W37216  26.179   7.293  10.531
64792W        W37217  19.693  40.376  12.469
64793W        W37218  19.654  44.998  14.783
64794W        W37219  44.008  44.792  13.000
64795W        W37220  25.665  35.492  11.453
64796W        W37221  13.189   6.793   4.780
64797W        W37222  24.609  26.122   1.388
64798W        W37223   9.670   5.792   3.375
64799W        W37224  15.214  22.041  12.961
64800W        W37225   3.865  17.563  10.475
64801W        W37226  14.109   8.853   0.827
64802W        W37227  17.122  12.338   0.913
64803W        W37228  15.703   5.873  14.477
64804W        W37229  18.121  21.544  11.877
64805W        W37230   1.739   2.317  12.988
64806W        W37231   4.717  18.650  10.095
64807W        W37232  40.011  13.320   4.322
64808W        W37233  44.930   2.407   4.321
64809W        W37234   8.862  30.431   1.315
64810W        W37235  40.504  32.420   1.780
64811W        W37236  43.486   1.944   4.800
64812W        W37237  20.151  10.348  14.896
64813W        W37238  22.562  33.560   2.782
64814W        W37239  15.686   8.741  14.872
64815W        W37240  24.563  22.225   0.385
64816W        W37241  27.532  14.169  14.335
64817W        W37242  44.288  28.499   2.721
64818W        W37243  43.485  30.907  13.310
64819W        W37244  33.942  12.651   2.702
64820W        W37245  28.098   3.223  12.503
64821W        W37246  21.669  27.549  14.968
64822W        W37247  21.575  11.301  13.883
64823W        W37248   9.803  20.656   3.641
64824W        W37249  24.502  34.089  13.861
64825W        W37250  25.497  19.640  12.437
64826W        W37251  42.883  32.030  12.878
64827W        W37252   7.221  22.161   4.300
64828W        W37253   4.913  29.482  11.440
64829W        W37254  22.509  40.399   0.925
64830W        W37255   7.339  34.115   4.779
64831W        W37256  42.415  22.114  10.476
64832W        W37257  32.941  18.125   2.899
64833W        W37258  25.192  21.257  14.297
64834W        W37259  36.861  15.263   1.826
64835W        W37260   0.290   5.800   1.698
64836W        W37261   3.280   6.686  12.080
64837W        W37262  30.547  25.066  11.040
64838W        W37263  14.248   3.769   5.584
64839W        W37264   6.759  22.650   4.113
64840W        W37265  31.552  21.551   2.374
64841W        W37266  23.552   0.394   4.208
64842W        W37267  19.147  37.878  14.458
64843W        W37268  27.031  22.155  14.464
64844W        W37269   1.968  42.018   0.815
64845W        W37270  34.891  35.391   3.766
64846W        W37271  36.932  26.020   3.358
64847W        W37272  36.500  14.810   3.764
64848W        W37273  28.462  38.432  12.909
64849W        W37274  29.526  10.653   2.687
64850W        W37275  27.612  27.447   0.322
64851W        W37276  36.029  26.490   0.481
64852W        W37277  28.574  25.085  14.492
64853W        W37278   9.811  42.308   3.367
64854W        W37279  15.676  13.239   4.778
64855W        W37280  10.697  14.274   3.343
64856W        W37281  19.572  13.192  13.008
64857W        W37282   8.713  34.097  13.380
64858W        W37283   1.816  41.819  11.948
64859W        W37284  37.871  36.901  12.454
64860W        W37285  16.082  41.356  13.920
64861W        W37286  13.790   5.709   3.821
64862W        W37287  33.966  38.475   2.312
64863W        W37288  36.862  38.539   4.264
64864W        W37289  15.145  21.736   2.233
64865W        W37290  41.963  42.420  13.981
64866W        W37291  35.012  37.465  13.916
64867W        W37292  43.834  20.717   3.654
64868W        W37293  36.858  15.321  10.540
64869W        W37294  26.166  31.941   2.768
64870W        W37295  39.954  16.300   0.887
64871W        W37296  11.728  33.971  11.538
64872W        W37297  34.606  44.944  14.854
64873W        W37298  22.042  41.497   1.296
64874W        W37299  39.427   2.734  14.396
64875W        W37300  15.176  44.997   3.288
64876W        W37301  16.667  22.084  12.966
64877W        W37302  32.055   1.852  10.508
64878W        W37303   5.747  31.024   1.278
64879W        W37304  33.881  30.009   1.261
64880W        W37305  35.476   7.732  12.508
64881W        W37306  32.512  38.457  11.579
64882W        W37307  33.043  42.360   0.465
64883W        W37308  18.783  41.301  14.470
64884W        W37309  33.476   3.273  12.871
64885W        W37310  14.690   3.758  10.136
64886W        W37311  26.048  19.621   3.696
64887W        W37312  28.117  11.138   2.671
64888W        W37313  44.837   0.904   2.322
64889W        W37314  30.538  32.091  14.905
64890W        W37315  27.993  37.016   2.821
64891W        W37316  21.142   3.746  13.342
64892W        W37317   6.814  21.263   2.783
64893W        W37318  12.693  32.048   2.327
64894W        W37319  31.417   4.749   0.860
64895W        W37320  14.128  20.712  14.482
64896W        W37321  40.541  21.726   9.530
64897W        W37322  37.513   0.799   1.295
64898W        W37323  40.030  36.097   2.224
64899W        W37324  17.616  26.077   4.282
64900W        W37325   4.868  34.966  13.527
64901W        W37326  16.151   3.783  14.917
64902W        W37327  34.580   6.773  10.049
64903W        W37328  29.941  27.115  13.538
64904W        W37329  42.999  26.525   3.708
64905W        W37330  26.182  38.381  10.512
64906W        W37331  28.611   4.801  13.063
64907W        W37332   3.768  23.145  10.520
64908W        W37333  16.158  12.632  12.033
64909W        W37334   7.895  39.034  13.868
64910W        W37335  23.495  19.775  10.629
64911W        W37336  11.637  19.624  12.980
64912W        W37337   5.390  38.396  13.469
64913W        W37338  42.987   2.909  13.993
64914W        W37339  10.269  30.988  14.877
64915W        W37340  20.131   7.728  10.624
64916W        W37341  37.016  33.050  14.909
64917W        W37342  24.121  33.596  11.513
64918W        W37343  42.026  42.915   0.804
64919W        W37344   2.724  22.502   0.435
64920W        W37345  36.481  28.150   9.939
64921W        W37346  17.154  26.466   0.875
64922W        W37347   5.384  29.959   4.224
64923W        W37348  21.244  37.083   1.820
64924W        W37349  21.134   9.166   4.635
64925W        W37350  28.583   9.343  13.909
64926W        W37351  27.175   0.461  11.553
64927W        W37352  37.962   1.462  10.404
64928W        W37353  37.953  14.657   3.361
64929W        W37354  32.420  33.537   2.680
64930W        W37355   3.295  23.205   0.362
64931W        W37356  23.672  21.529  10.443
64932W        W37357   0.278   1.900  10.452
64933W        W37358  13.116  20.760   2.290
64934W        W37359  21.139  19.619  13.012
64935W        W37360  25.583  40.022   1.252
64936W        W37361  31.407  13.706   0.773
64937W        W37362  26.045  29.588  14.323
64938W        W37363   3.314  16.689  11.545
64939W        W37364   6.871  27.596  13.417
64940W        W37365  30.458   0.903  11.004
64941W        W37366  36.571  42.289   4.630
64942W        W37367  16.205  22.188   0.484
64943W        W37368   3.727  27.680  14.310
64944W        W37369  19.670  14.271   4.605
64945W        W37370  35.880  29.630  10.984
64946W        W37371  29.467  14.821  10.567
64947W        W37372  32.622  35.859  12.857
64948W        W37373  37.454  30.916   4.785
64949W        W37374  39.426  24.724  12.080
64950W        W37375  28.102  15.267   4.181
64951W        W37376  21.023  21.709   3.215
64952W        W37377  18.688   3.267   1.384
64953W        W37378  36.406   4.761   2.379
64954W        W37379  35.939   7.401   0.946
64955W        W37380  27.614  17.656   0.401
64956W        W37381  17.699  37.366  14.374
64957W        W37382  26.174  27.047  13.917
64958W        W37383  35.959  36.008   3.705
64959W        W37384  44.993  13.788  14.918
64960W        W37385  16.270  23.536  14.021
64961W        W37386   5.918   7.395   0.815
64962W        W37387  36.414  27.531   2.771
64963W        W37388   4.208  23.194   1.836
64964W        W37389   0.745  40.467   1.416
64965W        W37390  17.220   2.407  13.909
64966W        W37391  18.294  42.471   0.738
64967W        W37392  37.006  41.810   4.621
64968W        W37393  14.218  17.105   0.410
64969W        W37394  18.656  44.814   2.257
64970W        W37395   2.290  29.948   2.852
64971W        W37396  21.733  22.555  13.398
64972W        W37397   1.478  38.968   4.167
64973W        W37398  39.372  44.762   3.733
64974W        W37399  39.435  27.000   2.762
64975W        W37400  25.678  35.886  11.881
64976W        W37401  43.474  34.503  13.500
64977W        W37402  30.439  15.736  11.035
64978W        W37403   3.266  25.666  11.502
64979W        W37404  15.793  32.578   3.690
64980W        W37405  17.182  11.205   0.753
64981W        W37406   4.422  34.037  13.021
64982W        W37407  17.286  21.746   4.227
64983W        W37408  29.095  27.506  10.425
64984W        W37409  19.747  13.123   2.665
64985W        W37410  26.122  30.568   3.271
64986W        W37411   5.424  31.405   3.292
64987W        W37412  25.009   9.876  14.282
64988W        W37413  37.582  28.026  13.939
64989W        W37414  21.119   1.371   0.894
64990W        W37415  36.497  28.112  12.891
64991W        W37416  38.391  21.574   3.688
64992W        W37417  36.977  29.631   0.965
64993W        W37418  37.513  36.369  10.926
64994W        W37419   7.810  41.035  11.514
64995W        W37420  16.263  33.555  10.495
64996W        W37421  34.561  25.696  11.876
64997W        W37422  15.254  14.749   4.623
64998W        W37423  38.836  10.775   4.278
64999W        W37424   7.734  43.300  11.081
65000W        W37425   7.714  33.126  12.544
65001W        W37426  28.556  30.934  12.512
65002W        W37427  38.039  32.430  14.011
65003W        W37428  33.593  23.504   4.832
65004W        W37429   9.352  42.854   4.795
65005W        W37430  16.765  43.509   3.690
65006W        W37431  31.549  42.800   0.862
65007W        W37432   9.745   7.204  11.530
65008W        W37433  36.002  22.508  12.523
65009W        W37434  37.403   3.377   3.795
65010W        W37435  43.358  41.790   1.929
65011W        W37436  40.329  36.888   2.741
65012W        W37437  39.989  35.045   1.716
65013W        W37438  19.717  32.902   2.349
65014W        W37439  33.579  16.703   1.326
65015W        W37440  38.553   8.404  11.473
65016W        W37441  40.835   1.347   2.224
65017W        W37442  41.031   8.842   0.394
65018W        W37443  43.963   7.700   1.757
65019W        W37444  42.874   7.898   1.433
65020W        W37445  29.136   0.845   0.868
65021W        W37446  44.393  34.530  11.476
65022W        W37447  25.212  19.068   0.373
65023W        W37448  38.017  16.104  14.982
65024W        W37449  36.434  34.928  12.998
65025W        W37450  24.610   4.251   0.408
65026W        W37451  16.692   5.834  13.860
65027W        W37452  10.765  42.791  13.866
65028W        W37453   0.407  40.333   4.753
65029W        W37454  40.540  34.030  14.445
65030W        W37455  14.313  23.064   1.284
65031W        W37456  19.548  28.519   1.807
65032W        W37457  10.776  33.884   1.915
65033W        W37458  31.081   4.402   4.649
65034W        W37459   7.282  43.388  12.470
65035W        W37460  13.614  33.493  11.384
65036W        W37461  32.401  11.195   0.320
65037W        W37462  37.936  33.545   3.778
65038W        W37463  19.776  21.511  14.368
65039W        W37464  12.699  18.087   4.669
65040W        W37465  13.764  37.470  11.079
65041W        W37466   0.911  25.064   4.140
65042W        W37467  36.886  42.298   0.758
65043W        W37468  20.107  26.172  14.835
65044W        W37469   3.444   0.932   1.697
65045W        W37470  30.912  35.014  13.356
65046W        W37471  16.201  38.866   3.328
65047W        W37472  13.290  11.269  14.443
65048W        W37473  37.975  26.997  14.761
65049W        W37474  23.167  26.142   0.765
65050W        W37475  10.321  39.031  11.510
65051W        W37476  34.056  44.475   3.168
65052W        W37477  14.719  16.705   1.776
65053W        W37478  41.533   2.236  13.377
65054W        W37479  39.998  23.622  14.499
65055W        W37480   7.763   4.280   3.274
65056W        W37481  30.575  34.569   3.740
65057W        W37482  44.329   7.364   4.839
65058W        W37483  13.133  28.479   2.683
65059W        W37484  29.983   9.319  11.918
65060W        W37485  25.526   0.463   0.269
65061W        W37486  37.933   5.795   2.802
65062W        W37487  44.799  16.625  10.534
65063W        W37488   9.317   6.740   3.781
65064W        W37489   7.772  14.254  14.945
65065W        W37490  32.025   8.292  12.511
65066W        W37491  25.965  11.843  11.504
65067W        W37492  13.204  39.467  13.547
65068W        W37493  31.596  34.452   3.753
65069W        W37494  11.660   8.343  11.896
65070W        W37495  38.882  20.145  14.883
65071W        W37496   9.374   9.693   1.447
65072W        W37497  39.966  10.329   4.168
65073W        W37498  11.175   0.833   4.774
65074W        W37499  22.548   0.848  13.329
65075W        W37500  28.563  36.499   1.890
65076W        W37501   5.754  28.512   3.632
65077W        W37502  15.092  25.567  12.872
65078W        W37503  15.666  43.498  14.771
65079W        W37504   0.794  34.581   9.931
65080W        W37505  40.869   2.892   3.152
65081W        W37506  32.619  11.829   2.870
65082W        W37507  32.100  36.438  11.876
65083W        W37508  16.140   0.358   1.452
65084W        W37509  32.408  30.467   1.387
65085W        W37510  41.436   4.796   4.212
65086W        W37511   8.277  14.783  12.520
65087W        W37512   0.798  41.296   4.157
65088W        W37513   7.766  41.001   1.424
65089W        W37514   2.823  31.519  13.522
65090W        W37515  38.821  31.109   5.199
65091W        W37516  20.217  12.208   2.185
65092W        W37517  12.159  29.033  10.526
65093W        W37518  11.137  13.726   1.330
65094W        W37519  25.667   1.831   1.800
65095W        W37520  29.073  32.449   2.319
65096W        W37521  26.186  38.037   0.375
65097W        W37522  27.463  42.783   4.119
65098W        W37523  24.484  38.896  11.373
65099W        W37524   6.376  23.103   1.223
65100W        W37525   5.778  34.381   4.227
65101W        W37526  20.595   3.728   3.276
65102W        W37527  16.810  16.204  10.615
65103W        W37528   3.892  37.970  10.622
65104W        W37529  35.914  28.955   0.331
65105W        W37530  20.099  43.354  12.059
65106W        W37531  32.555   2.311   0.383
65107W        W37532  32.070  25.628   2.681
65108W        W37533  31.421  30.608   4.811
65109W        W37534  17.711  37.567  14.927
65110W        W37535  21.117  34.594   1.798
65111W        W37536  39.924   3.273   4.719
65112W        W37537  43.372   1.889  14.428
65113W        W37538  14.239   6.320  10.627
65114W        W37539  11.729   2.470  11.078
65115W        W37540   3.428   8.705  12.433
65116W        W37541   6.757  23.550   3.716
65117W        W37542  18.261   0.845   3.721
65118W        W37543   5.385  32.890  14.774
65119W        W37544  34.995  32.575   3.730
65120W        W37545  42.393  42.510  14.949
65121W        W37546  27.190  41.458   3.221
65122W        W37547   8.691  39.857  13.311
65123W        W37548  35.391  35.577   0.843
65124W        W37549  31.923  33.102   0.365
65125W        W37550   6.915  13.785  11.074
65126W        W37551  23.531  36.055   1.701
65127W        W37552  28.560  32.982   4.338
65128W        W37553  44.899  22.676   4.754
65129W        W37554  27.648  12.199   3.656
65130W        W37555  37.884   4.256   0.349
65131W        W37556  38.064  44.485   3.317
65132W        W37557  26.601  26.184  10.445
65133W        W37558   8.693  12.727  14.428
65134W        W37559  19.116  13.136  10.501
65135W        W37560  30.612  24.577  13.001
65136W        W37561  43.922   1.973   3.252
65137W        W37562  24.001  39.996   5.230
65138W        W37563  40.495   2.954   3.803
65139W        W37564  42.379   3.955  11.519
65140W        W37565  11.811  32.417   1.222
65141W        W37566   0.264  13.300   3.709
65142W        W37567   0.383  33.531  13.055
65143W        W37568  38.455  26.594   3.799
65144W        W37569  37.497  22.083  13.868
65145W        W37570  41.343  35.023   4.118
65146W        W37571   5.690  35.080  10.993
65147W        W37572   4.225   4.757   0.802
65148W        W37573  44.430  35.024   0.445
65149W        W37574  11.666   4.430   0.963
65150W        W37575   6.777  15.607  11.873
65151W        W37576  33.388  17.284  13.047
65152W        W37577   6.902  44.968  11.103
65153W        W37578   9.178  40.475  12.868
65154W        W37579   7.882  16.141   0.472
65155W        W37580  37.349  24.572   0.762
65156W        W37581   8.792  27.075   1.773
65157W        W37582  24.048  43.291  14.886
65158W        W37583  33.500  44.839   2.312
65159W        W37584  15.790  11.658  12.581
65160W        W37585   7.746  44.491  14.444
65161W        W37586  22.038  30.619  11.460
65162W        W37587  22.507   8.783   4.317
65163W        W37588  10.182  38.025  11.103
65164W        W37589   2.292  31.119   4.722
65165W        W37590  21.681  38.948   1.325
65166W        W37591  20.635   3.337   1.902
65167W        W37592   6.708  10.681   2.316
65168W        W37593  44.989  43.942   3.205
65169W        W37594  35.963  11.718  12.549
65170W        W37595  37.343   9.171  11.961
65171W        W37596  18.722   9.211  13.953
65172W        W37597  14.275   6.905   3.218
65173W        W37598  11.329  37.846  12.920
65174W        W37599  31.569  36.467   4.303
65175W        W37600  10.301  30.097  13.841
65176W        W37601  29.657  16.136   2.416
65177W        W37602  38.560  15.656   4.658
65178W        W37603  27.069  39.876   4.707
65179W        W37604   9.360  17.601   4.302
65180W        W37605  40.538   5.210   2.334
65181W        W37606  43.880  15.226  13.019
65182W        W37607  28.932  22.507   3.668
65183W        W37608  39.894  44.355   2.398
65184W        W37609  36.363  36.934  12.448
65185W        W37610  11.769  40.431  11.608
65186W        W37611  11.315  31.985   1.884
65187W        W37612  40.313  38.001   1.768
65188W        W37613   2.812  42.496   1.868
65189W        W37614  40.975  33.380  12.863
65190W        W37615   5.318  31.903   3.668
65191W        W37616  19.632  29.563   2.722
65192W        W37617  10.160  37.079   0.851
65193W        W37618  11.770  21.208   2.685
65194W        W37619  39.951  28.949   2.399
65195W        W37620  23.735  26.637   4.305
65196W        W37621  22.045  11.690  12.066
65197W        W37622  21.242  21.730   4.257
65198W        W37623  23.542  17.775   3.713
65199W        W37624  36.889  44.319   3.703
65200W        W37625  13.762   7.248  12.848
65201W        W37626  38.362  37.971   3.674
65202W        W37627  19.725  35.049   4.798
65203W        W37628   2.830  10.778   4.705
65204W        W37629  28.554  15.212  13.811
65205W        W37630  36.416   5.207   3.356
65206W        W37631  33.505  39.848   4.796
65207W        W37632  24.037  18.226  11.381
65208W        W37633  33.062  41.042  11.609
65209W        W37634  26.484  34.407  12.859
65210W        W37635  41.313  36.943   0.945
65211W        W37636   1.882   3.353  13.858
65212W        W37637   0.320  31.950   3.782
65213W        W37638  28.943  12.349   2.179
65214W        W37639  10.177  19.242   4.276
65215W        W37640  35.865  38.554   4.610
65216W        W37641  34.568   9.165  10.894
65217W        W37642  31.119   6.307  11.503
65218W        W37643  14.589  39.998   2.786
65219W        W37644  38.370   3.804  10.961
65220W        W37645  14.215   9.885  14.841
65221W        W37646  30.116   1.762   2.222
65222W        W37647  15.581  28.595  12.370
65223W        W37648  10.837  10.324  13.991
65224W        W37649   8.167  33.567  14.871
65225W        W37650   9.315  25.562  12.911
65226W        W37651  24.188  15.668  13.435
65227W        W37652  21.129  18.619   3.368
65228W        W37653  36.527  12.356   1.432
65229W        W37654   3.886   3.933  14.792
65230W        W37655  17.665  20.615  12.865
65231W        W37656  16.579   1.313   0.964
65232W        W37657  18.191  16.249   0.396
65233W        W37658  30.621   6.193  12.824
65234W        W37659  27.493  43.933   4.185
65235W        W37660  33.552  29.076  13.901
65236W        W37661   0.319  32.398   4.649
65237W        W37662  22.743  19.719  10.987
65238W        W37663  24.023  35.868  12.420
65239W        W37664  44.839   9.232   1.921
65240W        W37665  30.156   2.816  10.629
65241W        W37666  29.097  17.668  10.610
65242W        W37667  18.770  23.123   1.818
65243W        W37668   6.878  30.451  12.861
65244W        W37669   4.302   9.216  10.472
65245W        W37670  37.999  19.774  13.457
65246W        W37671  44.864   3.739   3.247
65247W        W37672   7.856  19.639   3.727
65248W        W37673  23.046  20.202   2.869
65249W        W37674   0.936  29.940  10.555
65250W        W37675  37.046  26.136   2.373
65251W        W37676   6.258  18.759   3.642
65252W        W37677  23.093   6.199   0.376
65253W        W37678  19.658   8.863   4.173
65254W        W37679  39.942   7.717  13.975
65255W        W37680  38.377  23.501   2.340
65256W        W37681  41.000  10.872  12.902
65257W        W37682  24.121  40.832   0.418
65258W        W37683  38.433  41.991   4.317
65259W        W37684  25.678   7.352   1.763
65260W        W37685  35.908   9.815   3.744
65261W        W37686  43.835  36.940   2.313
65262W        W37687  11.287  34.946   2.419
65263W        W37688   1.787  29.983  13.461
65264W        W37689  28.463  15.653   0.337
65265W        W37690  19.591   5.892  10.977
65266W        W37691  22.102  20.215  13.037
65267W        W37692  33.625  44.365   4.222
65268W        W37693  27.989  30.147   3.739
65269W        W37694  16.752  37.366   4.133
65270W        W37695  32.915   5.313  13.918
65271W        W37696  34.394   5.201   4.265
65272W        W37697  21.590  36.433   3.670
65273W        W37698  32.896  42.371   1.808
65274W        W37699  17.170  17.655  13.957
65275W        W37700  35.087  41.929   0.923
65276W        W37701  10.358   3.805   1.450
65277W        W37702  40.937  23.502  11.535
65278W        W37703  35.484  34.436  11.030
65279W        W37704  17.172  15.808   4.649
65280W        W37705  14.663  22.519   3.666
65281W        W37706   2.892   0.899   0.341
65282W        W37707  19.200  36.368  12.490
65283W        W37708  41.810  12.149  11.897
65284W        W37709  11.660  44.880   2.391
65285W        W37710   7.859   7.349  12.998
65286W        W37711  32.585  21.638   2.418
65287W        W37712  36.946  19.678   3.668
65288W        W37713   9.682   3.344   3.630
65289W        W37714   9.822  42.929   4.653
65290W        W37715  39.888  13.840   0.835
65291W        W37716  38.535  17.254  12.534
65292W        W37717  38.434  18.560  13.504
65293W        W37718  29.549  14.766   0.349
65294W        W37719   0.392  43.495   2.798
65295W        W37720  16.715  10.761  13.937
65296W        W37721   9.792  13.783  10.563
65297W        W37722  42.412   9.347  14.471
65298W        W37723  11.256  37.492  13.495
65299W        W37724  26.493   6.841  12.491
65300W        W37725  41.867  17.577   3.162
65301W        W37726  41.471  40.982   4.122
65302W        W37727  32.522  40.965  12.401
65303W        W37728  35.478  44.791   4.743
65304W        W37729  33.027  20.183  10.902
65305W        W37730   3.869   1.758   0.275
65306W        W37731  36.990  43.344  14.289
65307W        W37732   7.209  31.034   1.736
65308W        W37733  26.631  33.032  13.950
65309W        W37734  27.131  12.323  13.358
65310W        W37735  22.245  36.978  13.033
65311W        W37736  29.526  27.095  12.523
65312W        W37737  34.611   6.232  12.995
65313W        W37738   5.906  42.348  14.920
65314W        W37739  37.036   7.388   2.333
65315W        W37740  16.080  16.078  11.927
65316W        W37741  40.316   0.412  12.027
65317W        W37742  19.554  29.031  11.480
65318W        W37743  28.157   6.392   0.483
65319W        W37744   1.933  18.787   4.187
65320W        W37745  12.654  30.541   4.321
65321W        W37746  37.403  42.449  14.834
65322W        W37747  31.081  38.480   1.924
65323W        W37748  32.089  11.129  14.935
65324W        W37749  23.079   5.858   2.748
65325W        W37750  12.260   1.743  11.474
65326W        W37751   3.875  31.479   4.637
65327W        W37752  40.370   8.863  14.407
65328W        W37753  39.533  43.809   4.709
65329W        W37754  33.435  15.768   1.437
65330W        W37755  12.124  30.537  13.922
65331W        W37756  35.459  18.168  10.907
65332W        W37757   2.812  10.670   0.394
65333W        W37758   3.292   1.918   0.959
65334W        W37759  20.704  24.035  12.503
65335W        W37760   1.731  31.492   2.388
65336W        W37761  36.376  29.165  12.386
65337W        W37762  11.314   0.342  11.380
65338W        W37763  23.167  30.033   3.340
65339W        W37764  18.569  11.789   2.826
65340W        W37765  17.600  25.038   3.663
65341W        W37766  35.106  31.521  13.792
65342W        W37767  25.545  24.044  12.939
65343W        W37768  10.309  15.189  14.947
65344W        W37769  10.231  38.879  13.039
65345W        W37770   2.723  22.577   3.754
65346W        W37771  14.625  37.570   3.318
65347W        W37772  34.459  38.986   0.468
65348W        W37773   5.342  13.105  13.892
65349W        W37774  20.148   9.858  14.761
65350W        W37775  17.755   5.232  10.532
65351W        W37776  30.657  40.361  10.951
65352W        W37777  12.792  14.821   0.880
65353W        W37778   8.689   4.701   2.310
65354W        W37779  27.531  38.420   4.710
65355W        W37780  39.468   2.847   0.918
65356W        W37781  11.695  29.109   0.734
65357W        W37782  16.730  32.076   2.816
65358W        W37783  20.755  29.107   2.263
65359W        W37784  33.389  34.463   4.321
65360W        W37785  25.493  34.437   2.281
65361W        W37786   9.187  40.454   1.919
65362W        W37787  40.337  22.086  14.861
65363W        W37788  40.939  34.450  14.997
65364W        W37789  32.066  23.583  13.976
65365W        W37790   9.204  44.949  12.046
65366W        W37791  10.153  25.106   1.414
65367W        W37792  23.497  12.259   5.169
65368W        W37793  14.240  13.789   2.231
65369W        W37794  33.586  35.948  12.950
65370W        W37795  23.669  13.686   4.198
65371W        W37796   4.356  16.629   1.228
65372W        W37797   1.977  22.066   2.852
65373W        W37798  16.293  36.375  13.901
65374W        W37799  39.922  35.875  10.984
65375W        W37800  13.254  30.484   1.785
65376W        W37801  44.482  44.407  10.153
65377W        W37802  11.786  17.117  11.982
65378W        W37803   1.868  41.850   1.425
65379W        W37804  12.770   2.413   0.353
65380W        W37805  18.570  12.259   4.304
65381W        W37806   2.232  25.203  13.535
65382W        W37807  16.229  29.999   3.362
65383W        W37808  29.128  35.993   4.788
65384W        W37809  36.517   9.233  14.762
65385W        W37810   4.933   6.751  11.590
65386W        W37811   9.356   0.877  11.008
65387W        W37812  32.995  27.680  14.800
65388W        W37813  23.670  36.452  11.471
65389W        W37814  23.036  43.835   3.164
65390W        W37815   4.801  18.242   1.750
65391W        W37816  35.038  15.219   2.262
65392W        W37817  12.851  22.682  10.440
65393W        W37818  14.667  14.679  13.332
65394W        W37819  22.648  39.015  14.298
65395W        W37820  21.034  36.976  13.988
65396W        W37821  20.172  23.553  14.031
65397W        W37822  21.567  32.521  13.387
65398W        W37823  15.784  10.671  12.902
65399W        W37824  42.903   8.764   1.253
65400W        W37825  16.107   8.863   4.638
65401W        W37826  30.424  27.960  14.881
65402W        W37827  15.700  19.747  13.315
65403W        W37828  43.834  42.819  13.473
65404W        W37829   0.862  15.234   4.677
65405W        W37830  22.679  29.439   2.863
65406W        W37831  22.601  43.827  14.838
65407W        W37832  41.869   3.335  11.064
65408W        W37833  20.136  17.581   1.748
65409W        W37834  20.615   2.386  14.778
65410W        W37835  17.255  22.589  13.406
65411W        W37836  35.083  40.007   4.342
65412W        W37837  33.563   0.266  14.498
65413W        W37838  16.600   2.366  14.019
65414W        W37839  36.460   1.922   1.300
65415W        W37840  28.972  39.920   1.232
65416W        W37841  23.152   5.829  11.075
65417W        W37842  39.895  15.796   1.710
65418W        W37843  24.669  14.737  13.867
65419W        W37844  28.997  39.495   1.748
65420W        W37845  40.334   6.209  11.921
65421W        W37846  43.496   6.258   1.363
65422W        W37847  26.167  29.608  11.064
65423W        W37848  30.937  25.973   2.867
65424W        W37849   5.704  36.552   0.316
65425W        W37850  22.207   8.788  12.021
65426W        W37851  14.611  16.781   3.700
65427W        W37852   7.710  29.032   0.879
65428W        W37853  38.488   6.916   4.239
65429W        W37854  31.025  24.144  14.954
65430W        W37855  36.390  33.520   3.870
65431W        W37856  34.965   2.244  10.621
65432W        W37857  23.988  38.371  10.526
65433W        W37858  17.771  13.628  11.964
65434W        W37859   8.821   9.363   1.832
65435W        W37860   5.856  38.404   4.288
65436W        W37861  33.590   1.737   5.233
65437W        W37862  35.041  11.746   3.212
65438W        W37863   1.876  35.473  12.965
65439W        W37864   1.830   4.403  11.544
65440W        W37865   2.344   0.272   1.288
65441W        W37866  40.489  31.446  10.611
65442W        W37867   0.310   3.929  13.377
65443W        W37868  22.236   3.393   1.915
65444W        W37869  13.233   7.395  11.043
65445W        W37870  29.975  31.093   1.314
65446W        W37871  30.967  21.547   2.363
65447W        W37872  34.425   0.959  14.953
65448W        W37873  31.948  32.035  13.906
65449W        W37874  30.567   9.269   2.337
65450W        W37875   7.312  26.986   3.311
65451W        W37876  28.519  18.657   4.273
65452W        W37877   7.313  21.654   1.403
65453W        W37878  37.013   8.397   5.198
65454W        W37879  25.589  39.817   5.180
65455W        W37880  29.605  31.404  10.593
65456W        W37881   0.360  17.088  14.352
65457W        W37882  12.688  44.301  14.791
65458W        W37883   7.252  30.924  12.932
65459W        W37884   8.322  17.267  13.916
65460W        W37885  37.347  33.048   0.253
65461W        W37886  22.083   2.263   0.296
65462W        W37887  33.392  40.522   0.404
65463W        W37888  25.014  40.316   1.392
65464W        W37889  36.006  12.831  10.980
65465W        W37890  31.910  40.360  11.577
65466W        W37891   3.326  14.240  11.376
65467W        W37892  36.057  11.793   4.353
65468W        W37893   4.323   0.334  14.436
65469W        W37894  39.559  15.746  14.364
65470W        W37895  14.806  13.729   3.196
65471W        W37896  22.245  38.402  12.907
65472W        W37897  37.011   8.720   0.408
65473W        W37898   5.836  19.191   2.292
65474W        W37899   7.789  19.682  12.067
65475W        W37900   6.825  16.312  12.432
65476W        W37901  42.780  42.909   3.271
65477W        W37902   3.304  38.842   2.816
65478W        W37903  17.602  37.079  11.069
65479W        W37904  21.119   6.747  14.991
65480W        W37905  32.466   4.796   0.382
65481W        W37906  21.189   0.835  11.914
65482W        W37907   2.263  33.504   3.866
65483W        W37908  39.505  42.942  13.871
65484W        W37909  13.716  23.035   2.378
65485W        W37910  41.430   5.900  11.855
65486W        W37911  24.178   7.281   2.282
65487W        W37912  11.791   1.827  12.388
65488W        W37913  19.731  20.697   1.405
65489W        W37914   2.866   5.240  11.878
65490W        W37915   2.419   7.786  12.466
65491W        W37916  13.307  25.210   2.345
65492W        W37917  24.033  31.488  14.948
65493W        W37918  43.392  37.496   2.896
65494W        W37919   9.354  22.666   2.350
65495W        W37920   4.218  14.766  11.102
65496W        W37921  18.765  25.594   2.705
65497W        W37922   6.199  33.482   4.753
65498W        W37923  35.091   8.701  14.779
65499W        W37924   1.366   0.390  14.844
65500W        W37925  28.039  18.157   4.788
65501W        W37926  19.121  27.117  12.015
65502W        W37927  18.609  36.080   4.753
65503W        W37928  40.036  13.243   3.146
65504W        W37929   2.313  14.138   0.901
65505W        W37930   1.280  20.123   0.440
65506W        W37931  39.419  33.971   1.888
65507W        W37932  27.128  35.423  14.493
65508W        W37933   1.977  21.715  13.972
65509W        W37934  27.967  37.977   2.295
65510W        W37935  11.716   0.445   0.381
65511W        W37936  34.906   8.665  10.969
65512W        W37937  13.275   8.662   4.254
65513W        W37938  34.447  33.940   1.718
65514W        W37939  31.991   6.903  11.507
65515W        W37940  12.136  40.991   3.712
65516W        W37941  28.951   5.396  11.910
65517W        W37942  19.041  13.820   0.795
65518W        W37943  33.054   3.230  10.619
65519W        W37944  32.528  34.052   2.271
65520W        W37945  10.855  22.745  14.847
65521W        W37946   6.391  21.750   3.341
65522W        W37947  27.586  32.088  11.478
65523W        W37948  42.958  20.049  13.917
65524W        W37949  23.189  38.821   0.806
65525W        W37950  23.037  36.097  13.420
65526W        W37951  31.517   5.375  11.418
65527W        W37952  25.090   6.218   1.416
65528W        W37953  32.601  25.630   4.708
65529W        W37954  41.861  19.629   4.121
65530W        W37955  40.939  14.293   2.228
65531W        W37956  34.576  13.114  11.065
65532W        W37957  31.560  34.096  12.851
65533W        W37958   9.229  15.232  10.422
65534W        W37959  38.910  11.223  11.978
65535W        W37960  10.871  28.491  12.891
65536W        W37961  40.439  16.736  11.381
65537W        W37962   7.269  40.389  13.320
65538W        W37963  32.405  26.073  11.067
65539W        W37964  41.491  12.669   2.795
65540W        W37965  44.941  13.251   0.729
65541W        W37966  36.461  34.439  10.925
65542W        W37967  25.529  10.821   3.820
65543W        W37968  11.800  32.571  12.005
65544W        W37969   9.733  37.455  10.935
65545W        W37970  20.189  41.871   4.763
65546W        W37971  28.542  44.793  10.451
65547W        W37972  34.570  43.364   4.662
65548W        W37973  18.267  27.688   2.325
65549W        W37974  19.546  32.092   3.331
65550W        W37975  13.260  12.648   2.371
65551W        W37976  31.898  23.560  14.817
65552W        W37977  16.206  25.125  12.824
65553W        W37978  40.045   8.363  11.567
65554W        W37979   9.320  13.686  13.350
65555W        W37980  13.623  19.283   0.468
65556W        W37981  30.462  16.637  14.858
65557W        W37982  28.622  15.684   2.731
65558W        W37983  34.106  40.481  11.037
65559W        W37984   4.261   4.363  13.316
65560W        W37985   2.361  25.026   2.789
65561W        W37986  26.613  16.267   1.420
65562W        W37987  43.806  32.486   0.309
65563W        W37988  27.183  44.994   0.307
65564W        W37989  22.691  10.685  13.398
65565W        W37990   4.397   6.773   3.666
65566W        W37991  36.575  30.920  11.587
65567W        W37992  42.936  23.166   2.779
65568W        W37993  40.496   1.295  13.348
65569W        W37994  42.309  27.178  11.423
65570W        W37995  40.926  19.702   4.636
65571W        W37996  20.232  29.145  13.791
65572W        W37997  38.025  13.689   4.762
65573W        W37998  36.918   0.335  14.867
65574W        W37999  33.612  15.772   2.240
65575W        W38000  14.116  10.705   1.243
65576W        W38001  24.111  32.507  13.457
65577W        W38002   2.878  41.362   1.304
65578W        W38003  29.505  44.853   0.848
65579W        W38004  33.011  32.005  14.950
65580W        W38005  13.182   3.940   1.448
65581W        W38006  34.867  10.869   3.685
65582W        W38007  39.051   0.371  11.989
65583W        W38008  36.523  26.067  10.634
65584W        W38009  15.673  38.539   2.241
65585W        W38010   0.973  29.438   0.280
65586W        W38011  26.513  22.557   3.840
65587W        W38012  35.933  19.695   2.874
65588W        W38013   4.773   1.790  10.565
65589W        W38014  14.269  28.003  13.358
65590W        W38015   9.715  28.624   3.185
65591W        W38016   4.738  25.678   2.204
65592W        W38017  20.235  18.186   4.208
65593W        W38018  20.752  21.237   1.315
65594W        W38019  23.241  14.801  10.487
65595W        W38020  39.379  21.530   1.260
65596W        W38021  27.485  11.706  13.425
65597W        W38022   0.761  30.589  12.009
65598W        W38023  33.511  10.260   1.904
65599W        W38024  41.522   7.867   4.650
65600W        W38025  29.660  10.842  10.443
65601W        W38026  24.147  23.070  13.465
65602W        W38027   5.731   8.785  13.954
65603W        W38028  10.307  44.438  14.309
65604W        W38029   2.946   8.290   3.745
65605W        W38030  23.635  18.639   1.315
65606W        W38031  43.318  11.344  12.992
65607W        W38032  33.077  23.618   0.871
65608W        W38033  41.364  16.676  14.890
65609W        W38034  42.831  42.508   0.320
65610W        W38035  40.385  24.641  13.414
65611W        W38036  14.148  44.866  14.349
65612W        W38037  24.650  30.036   3.165
65613W        W38038   6.347  11.271   2.874
65614W        W38039  20.055  15.808   4.692
65615W        W38040  10.768  43.909   2.330
65616W        W38041  34.072  11.279   2.838
65617W        W38042  40.852  33.880  13.803
65618W        W38043   8.662   9.731  11.509
65619W        W38044   1.832  28.660  13.989
65620W        W38045   0.769  43.344  10.537
65621W        W38046   3.363  33.130  14.393
65622W        W38047   5.289  11.682   4.208
65623W        W38048  10.379  12.284  11.121
65624W        W38049  24.671  27.453   3.331
65625W        W38050  42.301  29.596   0.320
65626W        W38051   8.257  14.168  13.991
65627W        W38052  42.478  22.238   3.186
65628W        W38053   3.831  33.409   9.999
65629W        W38054  22.695  29.051   0.867
65630W        W38055  27.648  42.388   2.253
65631W        W38056  35.570  31.000   3.688
65632W        W38057   8.259  15.778  12.391
65633W        W38058  38.900  29.444   0.420
65634W        W38059   9.352  36.507   3.337
65635W        W38060  28.943  24.513  12.417
65636W        W38061   5.399  32.975   3.703
65637W        W38062  40.025  35.476   0.289
65638W        W38063  17.559  43.836   1.857
65639W        W38064   9.285  34.961  14.781
65640W        W38065   4.289  37.981   0.776
65641W        W38066   7.175  41.973   0.365
65642W        W38067  36.967  41.381   1.870
65643W        W38068  21.027  16.723   1.866
65644W        W38069  14.330   7.331   0.823
65645W        W38070  18.771  25.668   1.288
65646W        W38071  36.510  33.483   0.885
65647W        W38072  16.286  23.087   4.219
65648W        W38073  38.391  19.107   0.414
65649W        W38074  14.276  12.118  12.389
65650W        W38075  39.941   2.864  12.969
65651W        W38076  26.013  36.017  13.946
65652W        W38077  20.535  14.239   3.859
65653W        W38078   5.321  38.836   0.954
65654W        W38079  23.991   7.857   1.442
65655W        W38080  25.017  44.384  12.934
65656W        W38081  43.924  29.054  11.082
65657W        W38082  18.575  18.169   3.845
65658W        W38083   9.889  39.384  11.858
65659W        W38084  37.033   1.891   1.392
65660W        W38085  38.543  22.030  10.985
65661W        W38086  28.480  12.690  13.877
65662W        W38087  12.726  26.573  10.914
65663W        W38088  33.621   7.248   2.241
65664W        W38089  32.991  23.512  14.984
65665W        W38090  38.870  10.748  14.291
65666W        W38091  11.821   8.303   2.260
65667W        W38092  35.071  15.208   1.370
65668W        W38093   8.291  21.218   3.857
65669W        W38094  38.922   3.293   4.143
65670W        W38095  44.487   2.352   4.685
65671W        W38096  21.575  38.333  10.453
65672W        W38097  28.646  33.108   0.768
65673W        W38098  26.542   0.334  10.056
65674W        W38099  37.996   4.749  12.868
65675W        W38100  14.756  10.370   3.842
65676W        W38101  14.221  25.051  14.905
65677W        W38102  23.636  26.699  13.792
65678W        W38103  22.020  15.255  11.025
65679W        W38104  34.454  33.992  14.343
65680W        W38105  22.741  11.796   3.642
65681W        W38106   9.387  17.156   3.263
65682W        W38107  15.107  37.864   4.759
65683W        W38108  37.503   6.730  11.575
65684W        W38109  40.914  22.698   1.894
65685W        W38110  43.822   5.202   3.340
65686W        W38111  42.383   7.195   4.229
65687W        W38112  17.270  18.787   2.829
65688W        W38113  28.137  31.428  12.518
65689W        W38114  39.443  27.506  13.873
65690W        W38115  40.046  44.407   4.722
65691W        W38116  25.969  17.666   3.719
65692W        W38117  28.474  36.942  11.983
65693W        W38118  12.220  30.973   2.399
65694W        W38119   2.289  15.674  11.514
65695W        W38120  18.770  22.699  10.122
65696W        W38121  17.614  23.632   2.663
65697W        W38122   6.371  22.088   3.773
65698W        W38123  43.274  25.597   4.265
65699W        W38124   9.854   8.755  14.858
65700W        W38125  35.523  22.237   3.271
65701W        W38126  15.310  31.923  14.008
65702W        W38127  32.090   4.800  10.980
65703W        W38128   5.898  10.220   3.356
65704W        W38129  39.056  20.719   1.858
65705W        W38130  18.724  27.447  12.494
65706W        W38131   5.800  34.949  14.485
65707W        W38132  37.868  15.104   3.270
65708W        W38133  13.816  12.281   2.731
65709W        W38134  44.871  25.965   4.660
65710W        W38135  27.068  31.626  10.629
65711W        W38136  41.454  10.369   4.201
65712W        W38137   4.282  24.627   1.265
65713W        W38138  30.130   1.364  12.356
65714W        W38139   0.812  40.880  14.807
65715W        W38140  40.833  19.698  12.028
65716W        W38141  42.789   8.822   4.712
65717W        W38142  19.581  36.347   3.670
65718W        W38143  25.196   8.880   2.404
65719W        W38144  19.108  43.861  13.489
65720W        W38145   5.778  44.819  11.417
65721W        W38146  35.956   3.334  13.962
65722W        W38147  28.044  36.881  14.021
65723W        W38148  35.029  11.195   3.157
65724W        W38149  10.675  19.062   3.640
65725W        W38150  33.609  32.035   0.813
65726W        W38151  33.995  27.643   0.345
65727W        W38152  43.965  26.614  10.118
65728W        W38153  38.440  31.948  11.429
65729W        W38154  11.168   3.856   4.290
65730W        W38155  44.370  13.735   3.178
65731W        W38156  44.385  10.172  14.002
65732W        W38157  15.663  11.298   2.408
65733W        W38158  30.486  19.115  11.979
65734W        W38159   6.419  23.576  11.926
65735W        W38160  19.279  32.897   0.456
65736W        W38161  43.344  35.391   0.259
65737W        W38162  15.814  13.764   2.878
65738W        W38163  23.558   5.800   2.322
65739W        W38164   3.768  24.989   3.639
65740W        W38165  21.567  43.290   2.382
65741W        W38166  42.968  12.798   2.198
65742W        W38167  28.638  43.457  13.865
65743W        W38168  27.140  14.626  12.564
65744W        W38169  35.572  31.128  10.899
65745W        W38170   7.754  30.434   2.208
65746W        W38171  25.965  23.732  10.966
65747W        W38172  36.930  20.150  10.993
65748W        W38173  22.587  18.678   2.321
65749W        W38174  36.923  34.445  13.984
65750W        W38175   0.757  36.512  10.554
65751W        W38176  16.747  26.641  14.987
65752W        W38177  27.464  34.379  14.923
65753W        W38178   9.152   6.325   1.406
65754W        W38179  31.638  44.847  11.474
65755W        W38180  25.190  36.951   0.883
65756W        W38181  25.140  15.242  14.314
65757W        W38182  38.326  11.652   0.258
65758W        W38183  37.520  11.132   1.369
65759W        W38184  42.893  19.146  14.789
65760W        W38185   9.185  30.071  14.455
65761W        W38186  43.317  17.652   0.812
65762W        W38187  13.678  40.388   3.782
65763W        W38188  14.772  20.261  13.944
65764W        W38189  40.449  25.530   0.379
65765W        W38190  22.088  25.700  10.568
65766W        W38191  22.158  13.792   3.811
65767W        W38192  10.776  15.609   4.335
65768W        W38193  21.136  41.385   2.383
65769W        W38194   5.292  37.488   3.781
65770W        W38195  22.513   0.382  10.543
65771W        W38196   5.786  20.251   1.402
65772W        W38197  34.079   1.318   3.168
65773W        W38198  25.217  43.278  10.611
65774W        W38199   6.401  41.342   0.787
65775W        W38200   6.309  40.049   2.696
65776W        W38201   3.419   7.386   3.724
65777W        W38202  40.040   3.905  10.519
65778W        W38203  37.577  33.105  14.337
65779W        W38204   9.233  29.990   2.870
65780W        W38205   2.767  20.068   2.674
65781W        W38206   4.721  41.810   1.840
65782W        W38207  23.142  11.352  14.008
65783W        W38208  12.255   9.341  11.470
65784W        W38209  44.757  44.811  14.486
65785W        W38210   6.279  15.193   3.661
65786W        W38211  17.123  19.062   3.711
65787W        W38212  19.127  18.260   2.204
65788W        W38213  10.824  25.639  11.968
65789W        W38214   8.399  28.002  10.978
65790W        W38215  28.133   4.213   0.836
65791W        W38216  38.988  31.526  14.334
65792W        W38217   3.826   1.872  10.922
65793W        W38218  26.626   8.247   0.899
65794W        W38219  27.588  17.769  11.933
65795W        W38220  29.175  10.320   4.635
65796W        W38221  36.971  21.672   4.690
65797W        W38222   6.772  38.529  14.025
65798W        W38223  12.214  44.267   4.638
65799W        W38224   6.299  43.816   0.896
65800W        W38225  44.370  20.177   2.362
65801W        W38226  10.736  26.000  12.526
65802W        W38227  26.523   3.951  13.457
65803W        W38228  11.854   8.665  13.339
65804W        W38229   1.374  27.692   1.295
65805W        W38230  23.734  34.582  13.974
65806W        W38231  16.804  30.641   2.835
65807W        W38232  25.019  17.620  14.004
65808W        W38233  40.882  16.675  12.947
65809W        W38234   0.281  11.732   4.796
65810W        W38235  27.109   6.196   0.431
65811W        W38236   0.259  29.629   2.198
65812W        W38237   9.663  16.674  13.831
65813W        W38238   1.851  24.582  13.805
65814W        W38239  40.472  39.989  12.545
65815W        W38240  22.041  34.018   3.815
65816W        W38241  41.518  11.804   2.729
65817W        W38242  11.153  12.174   0.854
65818W        W38243  41.355  10.348  14.902
65819W        W38244   9.290  32.494  10.937
65820W        W38245  10.754  18.694   2.391
65821W        W38246  17.568  21.189  12.895
65822W        W38247  15.158  23.671  11.588
65823W        W38248   0.845  44.768   2.241
65824W        W38249  43.940  32.980   0.775
65825W        W38250   4.818  30.447  10.121
65826W        W38251  20.210  25.557  12.000
65827W        W38252  37.950   9.234   2.261
65828W        W38253   8.268  17.795   2.297
65829W        W38254  32.070  42.387  11.940
65830W        W38255   6.394   8.332   4.224
65831W        W38256  23.049  11.628  10.591
65832W        W38257  41.980  33.087   1.818
65833W        W38258  41.425  18.067   2.848
65834W        W38259   9.394   5.201   2.757
65835W        W38260  13.240  26.493   2.242
65836W        W38261  32.064  41.987  12.449
65837W        W38262  21.017  30.487  14.911
65838W        W38263  26.008  13.649   3.707
65839W        W38264  29.932  15.088  10.488
65840W        W38265   9.184  12.272  13.509
65841W        W38266  36.058  36.895  11.435
65842W        W38267  21.024  29.171   1.443
65843W        W38268  41.038  40.806   4.227
65844W        W38269  25.050  32.084  12.388
65845W        W38270   2.912  13.698   0.332
65846W        W38271  23.503   8.351  10.530
65847W        W38272  44.266   1.419  14.319
65848W        W38273   0.900  20.070   3.265
65849W        W38274  36.948  17.272  13.472
65850W        W38275  19.214  29.114  14.429
65851W        W38276  36.901  27.541  12.878
65852W        W38277  14.312   0.801   1.757
65853W        W38278   3.837  35.973  14.893
65854W        W38279   6.379  44.308   1.912
65855W        W38280  18.622   8.387   0.884
65856W        W38281  15.115  44.424   3.361
65857W        W38282  35.536  38.910   4.173
65858W        W38283  23.716  18.161  13.986
65859W        W38284  29.990  23.110  11.901
65860W        W38285  30.054  13.204  13.857
65861W        W38286  38.985  18.214  13.045
65862W        W38287  39.022  30.433   2.803
65863W        W38288  37.390   0.832  13.340
65864W        W38289   8.848  44.422  14.306
65865W        W38290   0.403   8.353  14.318
65866W        W38291  18.671  35.043   9.942
65867W        W38292  11.189  31.617  11.574
65868W        W38293   2.294  34.080  12.515
65869W        W38294   8.260  26.102   1.388
65870W        W38295  38.417  11.758  14.793
65871W        W38296   8.779  43.395  12.527
65872W        W38297  20.036   9.713   1.858
65873W        W38298  30.135  22.747   3.298
65874W        W38299  35.589   9.804   2.392
65875W        W38300   3.731  41.460   1.439
65876W        W38301  21.205   2.737   0.442
65877W        W38302  15.632  44.964   4.784
65878W        W38303  27.081  16.698  11.372
65879W        W38304  36.053  37.393  13.888
65880W        W38305  20.597  18.791   4.794
65881W        W38306  31.122  34.083  12.064
65882W        W38307  40.851  30.532   2.390
65883W        W38308   8.724  18.700  14.806
65884W        W38309  10.680  21.212   0.437
65885W        W38310  15.741   2.957   0.960
65886W        W38311  32.458  37.002  11.527
65887W        W38312   9.241  39.816   4.675
65888W        W38313  24.483  35.574   3.669
65889W        W38314  12.339   4.206  13.462
65890W        W38315  20.568  29.971  12.543
65891W        W38316  22.061  15.164  13.000
65892W        W38317  10.155  39.487  11.043
65893W        W38318  38.328  42.442   4.706
65894W        W38319  42.444  33.911   0.740
65895W        W38320   3.403   2.743   4.788
65896W        W38321   8.322  29.637  10.953
65897W        W38322  20.165  41.955  10.510
65898W        W38323  41.392  13.844  13.844
65899W        W38324  22.746  39.506   1.232
65900W        W38325  36.062  35.484  14.393
65901W        W38326  28.092  36.547   3.870
65902W        W38327  43.794  15.220  10.907
65903W        W38328  14.303  16.260   0.416
65904W        W38329  12.857  15.170  11.084
65905W        W38330   8.898  26.584  13.838
65906W        W38331  27.013  28.604  14.318
65907W        W38332  20.100  30.027   3.799
65908W        W38333  33.877   8.217  14.993
65909W        W38334  18.757  21.225  14.813
65910W        W38335   4.251  40.942  14.998
65911W        W38336   3.905   9.888  14.478
65912W        W38337  25.486  32.501  13.473
65913W        W38338  10.828   4.842  12.888
65914W        W38339  23.047  27.078   2.213
65915W        W38340  29.442  43.450   4.817
65916W        W38341  28.624   3.457  14.276
65917W        W38342   6.706  29.121  14.344
65918W        W38343  20.031  21.534  10.909
65919W        W38344  43.791   4.382   2.724
65920W        W38345  21.655  27.117   0.472
65921W        W38346  14.811  20.129   0.474
65922W        W38347   1.867   5.818  13.934
65923W        W38348   7.755  35.930  10.547
65924W        W38349  18.730  35.916  14.504
65925W        W38350  44.867  18.122   4.123
65926W        W38351  40.982  43.270   3.149
65927W        W38352  40.337  38.387  14.399
65928W        W38353  37.912  42.442   0.403
65929W        W38354  24.216  31.631  11.979
65930W        W38355  21.514  18.281  12.518
65931W        W38356  16.285  43.442  14.978
65932W        W38357  15.823  33.945  13.038
65933W        W38358  18.192  44.314   4.688
65934W        W38359   7.177   7.794   3.774
65935W        W38360  23.660  32.415   2.303
65936W        W38361  13.790  38.032  11.856
65937W        W38362  43.327   9.667  11.070
65938W        W38363  12.809  20.064   4.114
65939W        W38364  37.380  23.230   4.218
65940W        W38365  15.813   6.845  10.523
65941W        W38366  26.570  30.105   4.779
65942W        W38367   0.818  37.905   0.914
65943W        W38368   4.447  43.341   1.897
65944W        W38369  43.801  41.370  14.888
65945W        W38370  43.344  22.705  10.521
65946W        W38371  22.545   6.356  11.374
65947W        W38372  19.217  37.448   4.300
65948W        W38373  10.160  29.171  13.049
65949W        W38374  34.546   2.862  11.029
65950W        W38375  32.960  19.659   3.735
65951W        W38376  11.741  24.145  13.360
65952W        W38377  31.006  21.019  14.415
65953W        W38378   7.401  11.145  14.353
65954W        W38379  25.679  25.094   1.912
65955W        W38380  38.529  35.056   4.188
65956W        W38381   3.909  28.978   1.275
65957W        W38382  24.533   0.961  11.114
65958W        W38383   1.743  15.116   2.397
65959W        W38384   4.849  31.455  13.325
65960W        W38385   2.275  28.508   2.701
65961W        W38386  27.504  38.030  11.440
65962W        W38387  19.190  27.511   1.389
65963W        W38388  29.575  29.606   1.422
65964W        W38389  13.159  41.479   2.666
65965W        W38390  22.097  38.531   3.777
65966W        W38391  30.488  22.658   5.189
65967W        W38392  35.888  26.503   3.354
65968W        W38393  37.386  15.698  11.037
65969W        W38394   0.869  44.008  14.357
65970W        W38395  30.939   4.795   4.312
65971W        W38396   7.799  19.566   2.741
65972W        W38397   9.775  14.633  14.013
65973W        W38398  36.416  18.700   2.898
65974W        W38399  23.015  23.165   2.674
65975W        W38400  33.933  15.600   2.278
65976W        W38401   5.931  33.535   1.805
65977W        W38402   2.750   0.767   0.939
65978W        W38403  18.784  40.378   1.799
65979W        W38404   6.850   2.836  11.007
65980W        W38405  21.215  34.100  12.947
65981W        W38406  27.452  31.623   1.318
65982W        W38407  11.174   9.817   2.400
65983W        W38408  20.590  43.830   2.852
65984W        W38409  33.569  14.249   2.193
65985W        W38410  13.270  22.545  12.424
65986W        W38411  31.632   6.224   2.264
65987W        W38412  24.145  29.647   0.784
65988W        W38413  13.672  11.171  14.892
65989W        W38414  21.251   8.707  11.089
65990W        W38415  17.757  34.442   9.537
65991W        W38416  13.300  39.450   2.368
65992W        W38417  35.862  38.851   2.705
65993W        W38418  16.076  41.975  11.979
65994W        W38419  27.550  10.204   2.340
65995W        W38420  29.001  24.071   3.303
65996W        W38421  18.178  41.876  13.943
65997W        W38422  20.192  42.985   3.669
65998W        W38423  29.969   6.755  11.582
65999W        W38424  39.861   8.698  10.585
66000W        W38425   1.856  41.465  12.460
66001W        W38426  10.277  22.177   2.765
66002W        W38427   3.440  43.865  13.361
66003W        W38428   9.669  41.846   0.858
66004W        W38429  20.148  22.578   5.087
66005W        W38430  12.717  12.667  14.404
66006W        W38431  28.101  15.093  12.492
66007W        W38432  17.556  33.537  10.562
66008W        W38433   4.357   4.761  11.917
66009W        W38434  12.628  25.045   4.142
66010W        W38435  11.707  27.515  12.346
66011W        W38436  37.953  21.674   3.146
66012W        W38437  17.570   6.891  11.568
66013W        W38438  39.039  43.924  10.924
66014W        W38439  41.354  14.244  12.445
66015W        W38440  28.121  28.657  10.969
66016W        W38441  16.232   6.247  13.946
66017W        W38442  32.109  24.643   1.791
66018W        W38443  23.564  20.582  12.414
66019W        W38444  10.299  37.414  11.855
66020W        W38445  21.252   1.892  13.979
66021W        W38446  39.040  27.153  14.020
66022W        W38447   6.321  30.114  14.822
66023W        W38448  31.936   0.841   4.663
66024W        W38449  40.052   0.276  10.565
66025W        W38450  12.222   2.273   0.759
66026W        W38451   1.869  16.738  13.322
66027W        W38452  24.625  34.488  13.996
66028W        W38453   0.905  44.490   3.726
66029W        W38454  38.073   2.732  11.873
66030W        W38455  11.666   0.854   1.853
66031W        W38456  27.543  36.850   0.474
66032W        W38457  38.026  32.543  11.393
66033W        W38458  21.558  30.603  13.371
66034W        W38459  40.446  13.658   3.302
66035W        W38460  31.581   6.227   0.803
66036W        W38461  30.066  21.095   0.843
66037W        W38462   2.801   6.275   4.606
66038W        W38463   9.810   2.286   3.245
66039W        W38464   0.743  11.621  13.516
66040W        W38465  16.696   5.324   3.161
66041W        W38466  39.492  17.581   1.820
66042W        W38467  37.909  23.102   0.728
66043W        W38468   9.683  13.627   1.837
66044W        W38469  23.177  41.507  12.462
66045W        W38470  22.624   6.252   2.254
66046W        W38471  16.764  36.880   4.669
66047W        W38472  31.049  35.084   0.897
66048W        W38473  40.425  43.463  10.922
66049W        W38474  30.522  43.305   2.764
66050W        W38475  21.053  17.599  12.869
66051W        W38476  38.415  11.149   1.723
66052W        W38477   4.806   8.742   0.954
66053W        W38478  44.297  32.903   0.954
66054W        W38479  40.818  26.584   4.254
66055W        W38480  39.894   6.288  13.327
66056W        W38481  13.726  24.547   0.916
66057W        W38482  27.943  10.680   1.769
66058W        W38483  25.681  17.623  11.965
66059W        W38484  25.582   7.856  10.498
66060W        W38485  26.552  41.013   4.778
66061W        W38486  34.983  11.671   5.222
66062W        W38487  25.621  20.211  10.569
66063W        W38488   6.392   8.253   2.688
66064W        W38489   5.339   3.393   0.746
66065W        W38490  17.064   6.321  13.427
66066W        W38491  33.541   5.931   3.818
66067W        W38492  36.546  16.111  12.856
66068W        W38493   5.904  13.120  14.771
66069W        W38494  30.463  44.764   3.212
66070W        W38495  24.662  20.652   1.256
66071W        W38496  38.509  30.159   0.334
66072W        W38497  31.470  22.667  11.607
66073W        W38498  16.295  40.427   1.762
66074W        W38499  41.949  19.168  14.349
66075W        W38500  25.984  28.154  11.887
66076W        W38501  12.356  12.240   1.302
66077W        W38502  24.652   4.909   2.333
66078W        W38503   8.336  37.055   2.799
66079W        W38504  40.885  18.785  10.551
66080W        W38505  15.247  30.574  13.431
66081W        W38506  42.445  41.434  14.829
66082W        W38507  36.486  12.174   0.863
66083W        W38508  35.948   6.854   4.192
66084W        W38509  25.103   6.873   2.231
66085W        W38510  36.853   9.821   3.702
66086W        W38511  18.592  23.574  11.066
66087W        W38512  29.665  31.461  12.500
66088W        W38513  44.266  44.305  14.771
66089W        W38514   9.872  16.759   1.856
66090W        W38515  26.508   1.801   2.359
66091W        W38516   3.741  25.108  10.513
66092W        W38517  30.515  17.275   2.836
66093W        W38518  31.449  40.927  11.537
66094W        W38519   3.802  32.053   3.257
66095W        W38520  22.240  13.760   2.692
66096W        W38521  23.659  43.009   0.480
66097W        W38522   9.818  18.111   0.243
66098W        W38523  31.050  44.328   9.940
66099W        W38524  40.842  38.868  14.907
66100W        W38525  19.100  43.271   2.794
66101W        W38526   3.319  39.903  11.412
66102W        W38527  32.053   1.256   1.749
66103W        W38528   7.895  13.680  11.982
66104W        W38529  31.405   1.746  13.798
66105W        W38530  37.971   9.266  14.012
66106W        W38531  29.169  39.338   4.216
66107W        W38532  40.509  36.438  11.423
66108W        W38533  43.764  14.205  11.122
66109W        W38534  23.683   7.390  13.795
66110W        W38535  41.380  30.479   3.863
66111W        W38536   5.390  35.003  13.890
66112W        W38537  20.274  33.004  11.418
66113W        W38538  13.812   0.363  13.995
66114W        W38539   6.250  42.909  13.005
66115W        W38540  25.975  42.979  12.936
66116W        W38541   4.929  26.073   0.865
66117W        W38542  14.184  31.153   0.760
66118W        W38543  26.016  23.728  13.436
66119W        W38544  14.627  37.898   0.767
66120W        W38545  29.092  40.004   2.770
66121W        W38546  12.272   4.770   2.767
66122W        W38547  27.481   4.210  13.360
66123W        W38548  41.479  38.022   4.235
66124W        W38549   4.278  29.548   2.740
66125W        W38550  29.514   0.824   5.133
66126W        W38551  28.557  36.466  10.994
66127W        W38552  30.606  23.112   4.761
66128W        W38553  42.842  18.230   1.773
66129W        W38554  14.164  13.641  14.498
66130W        W38555  11.723  17.094   1.425
66131W        W38556   7.904  44.357   5.290
66132W        W38557  10.644  33.390   0.805
66133W        W38558  16.730  10.650   0.437
66134W        W38559  26.066   3.446   4.312
66135W        W38560  42.484  18.548  10.601
66136W        W38561   5.437  10.865  11.378
66137W        W38562  40.490  26.701   3.178
66138W        W38563  43.930  28.483   1.354
66139W        W38564  42.983  10.812   2.706
66140W        W38565   1.962  19.619   1.740
66141W        W38566  12.797  10.683   1.285
66142W        W38567  44.945  11.139  13.011
66143W        W38568  21.093   1.471  13.533
66144W        W38569  11.322  41.396   0.785
66145W        W38570  35.986  13.127  14.359
66146W        W38571  38.000  25.155  10.453
66147W        W38572   5.786  38.986  12.980
66148W        W38573  14.673  33.405   0.290
66149W        W38574  36.982  14.335  14.312
66150W        W38575   7.688   0.418  10.508
66151W        W38576  44.858   0.373   0.785
66152W        W38577   9.787  36.093   2.380
66153W        W38578  22.746  25.119   0.770
66154W        W38579  18.110  42.876   1.777
66155W        W38580  12.121   3.444  14.770
66156W        W38581  23.563  27.153   4.646
66157W        W38582   4.247  26.032  12.407
66158W        W38583  19.086  39.836  14.012
66159W        W38584  40.369  22.057  12.443
66160W        W38585   4.880   9.175  14.995
66161W        W38586  36.552  21.538  14.874
66162W        W38587   3.326  17.096   1.217
66163W        W38588  44.296  11.366  14.854
66164W        W38589  40.457   4.378   2.705
66165W        W38590  40.961  29.139   0.936
66166W        W38591  17.190   8.297   1.412
66167W        W38592  28.585  34.926   1.224
66168W        W38593  35.064  34.898   0.276
66169W        W38594  35.476   2.833  12.398
66170W        W38595  44.790  36.347   2.828
66171W        W38596  25.189  18.559  11.870
66172W        W38597   3.253  28.645  13.328
66173W        W38598  44.280  19.690   1.432
66174W        W38599  38.460  30.967  14.315
66175W        W38600  29.646  27.537  13.868
66176W        W38601  25.541   8.267  12.971
66177W        W38602  43.275  36.544  14.794
66178W        W38603  37.402   5.909   1.928
66179W        W38604   7.865  27.067  10.583
66180W        W38605  16.252  12.854  11.020
66181W        W38606  29.112  18.090   1.330
66182W        W38607  26.498  19.144   1.423
66183W        W38608  26.592  12.818   0.461
66184W        W38609   1.887  20.035   4.120
66185W        W38610  22.031  34.921  14.917
66186W        W38611  14.811  33.617  12.450
66187W        W38612  18.154   5.329  11.970
66188W        W38613  30.099  43.458  11.572
66189W        W38614  14.680  12.802  14.473
66190W        W38615  36.495  25.587   0.938
66191W        W38616  43.853  19.135   0.350
66192W        W38617  44.980  38.515  12.077
66193W        W38618  32.959  14.201   3.206
66194W        W38619  38.346  36.921   3.642
66195W        W38620  41.404  43.501   2.879
66196W        W38621  38.331  26.466  14.903
66197W        W38622  43.941  13.194   3.825
66198W        W38623  13.229  26.143   3.267
66199W        W38624  40.049   7.775   3.374
66200W        W38625  32.143  20.664   2.220
66201W        W38626  12.653   1.372   3.290
66202W        W38627   2.931   9.378  14.828
66203W        W38628  26.073  37.858  12.571
66204W        W38629  38.002   5.840  12.483
66205W        W38630  31.948  23.513   0.411
66206W        W38631  22.506  14.129  14.881
66207W        W38632  38.394   8.749   2.855
66208W        W38633  43.972  18.106   3.206
66209W        W38634  31.013  39.355   1.888
66210W        W38635  16.074   4.737   3.192
66211W        W38636  16.208  25.154   5.140
66212W        W38637  15.657   2.253   4.289
66213W        W38638  26.605   0.948  14.294
66214W        W38639  20.531  12.772   0.454
66215W        W38640  21.581  11.868   0.472
66216W        W38641   8.189  10.691   1.909
66217W        W38642  17.685   2.352   4.173
66218W        W38643  31.934  18.098  11.500
66219W        W38644  16.794  14.731   4.721
66220W        W38645  17.111  35.477  14.986
66221W        W38646  40.020  10.142  14.987
66222W        W38647  15.090  10.278  14.931
66223W        W38648  16.759  32.957   2.813
66224W        W38649  42.031   6.800   1.903
66225W        W38650  17.642  21.122   0.759
66226W        W38651  11.282   3.242   1.438
66227W        W38652   6.325  15.741   0.768
66228W        W38653  22.636  25.473   1.849
66229W        W38654  36.542   0.788   4.793
66230W        W38655  25.700  15.113  14.813
66231W        W38656  17.193  10.712  14.845
66232W        W38657  30.551  26.166   0.917
66233W        W38658  41.942  33.947  11.586
66234W        W38659  16.294  34.909   3.299
66235W        W38660   3.775  19.240  12.054
66236W        W38661  20.030  19.672   0.825
66237W        W38662  11.181  24.091   5.664
66238W        W38663  20.220  26.108   4.239
66239W        W38664  40.986  24.578   0.836
66240W        W38665   8.203  10.801  13.803
66241W        W38666  16.674   4.333  12.423
66242W        W38667  16.786  42.358  13.957
66243W        W38668   1.928  17.687  13.017
66244W        W38669  31.434  18.135   3.339
66245W        W38670  24.593  14.123  10.500
66246W        W38671  26.049  16.197  12.846
66247W        W38672  31.059  26.486   1.448
66248W        W38673  41.432  27.603   3.301
66249W        W38674  25.219  36.592   0.327
66250W        W38675  26.162  22.123   3.707
66251W        W38676   4.739  42.892  13.448
66252W        W38677   2.836  29.996   4.141
66253W        W38678  33.455  39.341   3.238
66254W        W38679  33.494   3.399   0.467
66255W        W38680  43.874  26.461  10.966
66256W        W38681  15.177  42.027   3.803
66257W        W38682  39.040   2.456   1.299
66258W        W38683   0.491  13.327   4.152
66259W        W38684   5.380  22.136   2.350
66260W        W38685  28.669  44.819  14.450
66261W        W38686  12.203  38.540   1.820
66262W        W38687  39.815   5.415  12.950
66263W        W38688   6.860  32.457  10.644
66264W        W38689  14.772   3.899   1.271
66265W        W38690  35.451   9.293   2.256
66266W        W38691   2.395  41.883  13.995
66267W        W38692   7.248  43.871   0.816
66268W        W38693  40.916  17.675  12.913
66269W        W38694  36.011  35.434  13.799
66270W        W38695  13.183  17.676   4.649
66271W        W38696  20.674  44.888  14.024
66272W        W38697  21.539  15.598   1.321
66273W        W38698  30.044  20.762  12.049
66274W        W38699  43.017  21.561   0.482
66275W        W38700  22.658  28.160  14.901
66276W        W38701  35.402   4.242   1.852
66277W        W38702  16.706   9.827   2.335
66278W        W38703  16.573  28.163   0.396
66279W        W38704   6.676   5.325  11.910
66280W        W38705  44.998  12.645   0.312
66281W        W38706   6.805  36.543  12.459
66282W        W38707   9.852  28.497  14.983
66283W        W38708  17.712  12.159  14.925
66284W        W38709  16.803   9.661   3.237
66285W        W38710  25.593  35.092   2.416
66286W        W38711  26.953   8.742   3.324
66287W        W38712  24.702  12.647   1.754
66288W        W38713  18.115   8.165  10.567
66289W        W38714  22.247  21.146  14.363
66290W        W38715  25.705  40.357   0.360
66291W        W38716  19.630  11.783   3.833
66292W        W38717  22.209   3.429  13.821
66293W        W38718  28.571  27.096   1.402
66294W        W38719  33.981  39.841  11.613
66295W        W38720  37.032  15.814  13.521
66296W        W38721  39.378  34.086  10.498
66297W        W38722  32.028  19.232   2.871
66298W        W38723   3.359  31.622   4.242
66299W        W38724   8.787   5.300   1.868
66300W        W38725  18.075  35.974   4.234
66301W        W38726   4.896  44.451  13.527
66302W        W38727  14.615  39.873   1.704
66303W        W38728   2.407  10.646  12.424
66304W        W38729  38.409  29.514  14.822
66305W        W38730  21.162  27.990   1.873
66306W        W38731  34.051  22.156   4.782
66307W        W38732  36.545  43.945  14.893
66308W        W38733  35.065  19.236  13.337
66309W        W38734  13.299  17.673   2.204
66310W        W38735  35.385  26.078   1.325
66311W        W38736   8.187  36.364   3.224
66312W        W38737  11.238  12.678   1.794
66313W        W38738   5.407  31.542   1.434
66314W        W38739  17.712  19.684  13.952
66315W        W38740  10.179   8.377   1.285
66316W        W38741  37.035  12.787  14.768
66317W        W38742  21.151  30.629   4.708
66318W        W38743  44.440  31.923   9.551
66319W        W38744  41.803  40.853   2.855
66320W        W38745  26.675  37.578   5.190
66321W        W38746  29.004   2.830   0.796
66322W        W38747  33.066  31.912   4.603
66323W        W38748  13.158  12.171  12.350
66324W        W38749   3.261  21.737   2.811
66325W        W38750  34.903   3.948  10.469
66326W        W38751  34.025  12.339  11.016
66327W        W38752  12.282  13.830   3.365
66328W        W38753  44.890  12.624  10.615
66329W        W38754  29.462  43.898  13.911
66330W        W38755   1.475  23.153   2.381
66331W        W38756  16.076  33.040  12.919
66332W        W38757   4.376  13.645   1.893
66333W        W38758  33.552   9.773  10.968
66334W        W38759  26.089  43.399  11.502
66335W        W38760   6.374  26.198  14.962
66336W        W38761   9.756  35.458   3.703
66337W        W38762   1.329  22.721  13.430
66338W        W38763  13.278  24.994   3.748
66339W        W38764   4.883  42.297   0.840
66340W        W38765  29.632  30.441  14.389
66341W        W38766  18.778  16.627  10.953
66342W        W38767   8.866  13.270  14.513
66343W        W38768   5.431  16.694  10.926
66344W        W38769  16.268   3.789  11.906
66345W        W38770  38.354  13.335   2.887
66346W        W38771  19.229  21.540   4.284
66347W        W38772   4.407   4.342  14.475
66348W        W38773  26.123  38.424   0.457
66349W        W38774  36.989  28.020  11.603
66350W        W38775  23.510  28.935  11.383
66351W        W38776  31.628  11.813   0.858
66352W        W38777  12.734  37.900   2.838
66353W        W38778  11.852  12.617   3.168
66354W        W38779  33.980  43.332  10.939
66355W        W38780  41.832  26.626   3.328
66356W        W38781   5.704  26.990  12.016
66357W        W38782  33.424   9.300  11.556
66358W        W38783  18.260   0.420   2.759
66359W        W38784  27.111   5.928  14.886
66360W        W38785  19.659  14.127   1.889
66361W        W38786  44.387  15.200   2.821
66362W        W38787  38.479  26.112   1.438
66363W        W38788  29.511  19.109   0.837
66364W        W38789   8.749  11.330   2.892
66365W        W38790   2.744  34.951   1.836
66366W        W38791  17.115  10.791   0.422
66367W        W38792  32.423  28.111  11.590
66368W        W38793   5.872   3.258  11.055
66369W        W38794  31.526  42.827   3.665
66370W        W38795  23.547  23.532   4.144
66371W        W38796  32.575  37.563  13.340
66372W        W38797  44.961  42.888  14.329
66373W        W38798  21.592  27.685   2.378
66374W        W38799  16.269  20.602  10.542
66375W        W38800  35.462  24.602  14.850
66376W        W38801  22.736  22.723   0.924
66377W        W38802   7.225  37.383   2.337
66378W        W38803  19.780  15.109   0.832
66379W        W38804  10.337   3.871  14.477
66380W        W38805  11.314  40.892  14.477
66381W        W38806   6.828  33.899  10.941
66382W        W38807   1.254  33.449   5.088
66383W        W38808  21.167  26.474  10.094
66384W        W38809   7.777  33.457  13.474
66385W        W38810  27.140  42.778  13.350
66386W        W38811  39.931   9.330   2.864
66387W        W38812  24.592  12.695  10.424
66388W        W38813  10.349  22.548   3.317
66389W        W38814  25.606  14.105  13.494
66390W        W38815  29.588  35.429  11.494
66391W        W38816  43.848  15.225   0.289
66392W        W38817  13.118  22.247  10.632
66393W        W38818  36.557  43.404  14.385
66394W        W38819  17.102  22.042  11.984
66395W        W38820   6.310  12.617   3.171
66396W        W38821   5.362   7.411  13.875
66397W        W38822   8.757  21.737  11.401
66398W        W38823   3.308  38.968   0.824
66399W        W38824  20.237   2.443  10.526
66400W        W38825  15.196  39.904  11.427
66401W        W38826  31.404  25.570   2.889
66402W        W38827  24.226  31.008   0.258
66403W        W38828  38.391  19.168   4.315
66404W        W38829  24.641   5.921   1.348
66405W        W38830  34.938  26.183   2.345
66406W        W38831  27.014  10.798   2.804
66407W        W38832  16.288  21.082   1.299
66408W        W38833  41.402  19.105   0.266
66409W        W38834   6.741   9.259   0.404
66410W        W38835  29.502  37.017  13.829
66411W        W38836   8.774  40.510   1.774
66412W        W38837  13.649   5.241   0.289
66413W        W38838   0.892  40.999  13.802
66414W        W38839  18.663  27.675  13.347
66415W        W38840   2.356  27.569  14.349
66416W        W38841  32.506   7.226  12.466
66417W        W38842  31.480   0.859  12.922
66418W        W38843  18.558  13.627  10.543
66419W        W38844  40.882  29.596  13.330
66420W        W38845  13.308  20.680  10.461
66421W        W38846  40.345  33.554   4.605
66422W        W38847  22.090   7.363   1.737
66423W        W38848  33.513  12.267  14.347
66424W        W38849  40.403  20.685   5.624
66425W        W38850   0.427  15.596   2.207
66426W        W38851   0.414  28.110  13.502
66427W        W38852  38.989  23.549   3.331
66428W        W38853   5.877  33.971   0.830
66429W        W38854  18.702  22.616  13.801
66430W        W38855   2.828  36.047  11.387
66431W        W38856  18.164  38.821  14.023
66432W        W38857  31.441  36.884  14.020
66433W        W38858   3.240  20.567  14.371
66434W        W38859  15.288  27.607   4.598
66435W        W38860  20.729  20.138  14.830
66436W        W38861  20.076   5.843  11.870
66437W        W38862  26.609  37.435   1.366
66438W        W38863  26.974  27.584  14.337
66439W        W38864  36.974  41.392   0.326
66440W        W38865  21.679  15.777  13.038
66441W        W38866  31.558  17.233  10.527
66442W        W38867  31.001  40.440  12.882
66443W        W38868  39.904   8.880   4.806
66444W        W38869  33.484  36.993   1.220
66445W        W38870  20.273   1.794  14.343
66446W        W38871  23.642   1.268  11.568
66447W        W38872  33.573   1.812  14.010
66448W        W38873  41.467  18.641   3.347
66449W        W38874  41.994   6.356  10.628
66450W        W38875  23.686  31.617   3.377
66451W        W38876   6.733  28.083   2.263
66452W        W38877  26.208  19.126   0.824
66453W        W38878  19.164  24.615   0.945
66454W        W38879   1.923   2.746  14.809
66455W        W38880  38.428  28.182  11.579
66456W        W38881  24.035  38.442   4.286
66457W        W38882   7.391  28.477   0.380
66458W        W38883  10.827   5.208  13.315
66459W        W38884  33.950  38.964   4.143
66460W        W38885  16.649  25.011   1.930
66461W        W38886  20.599  43.344   4.201
66462W        W38887   3.217  37.407  12.062
66463W        W38888   8.793   4.304   1.783
66464W        W38889  19.253   0.783   4.242
66465W        W38890  29.017  19.061  14.516
66466W        W38891  10.679  40.932   4.309
66467W        W38892  39.004   1.797  12.425
66468W        W38893  35.505  44.962   4.238
66469W        W38894  11.627  29.158  10.505
66470W        W38895   6.234  18.600   3.267
66471W        W38896   6.391  39.893  12.083
66472W        W38897  15.321   7.744  11.924
66473W        W38898  42.387   3.885  10.560
66474W        W38899  26.557  18.730  12.571
66475W        W38900  19.777  10.827   3.784
66476W        W38901   4.750  33.971  10.640
66477W        W38902  19.061  34.529   4.285
66478W        W38903  42.433  30.606   2.274
66479W        W38904  31.989  27.002   0.735
66480W        W38905  39.030  44.471  10.465
66481W        W38906  26.108  37.945   2.854
66482W        W38907  24.703  26.491  12.007
66483W        W38908  36.992   7.751  10.002
66484W        W38909  40.432  36.029  11.016
66485W        W38910  12.806   5.340   0.827
66486W        W38911  25.628  39.355   2.883
66487W        W38912  23.175  38.910  10.992
66488W        W38913   2.388   3.904   1.773
66489W        W38914  36.947  39.011   1.714
66490W        W38915  40.486  24.651   4.825
66491W        W38916   7.290  35.387   4.116
66492W        W38917   5.404  22.647  12.017
66493W        W38918  29.626  34.962   5.237
66494W        W38919  17.730  34.024   2.763
66495W        W38920  13.603  21.256   2.680
66496W        W38921  18.292  13.631  12.934
66497W        W38922  26.999  38.911   3.635
66498W        W38923  34.448  39.551  14.480
66499W        W38924  27.065   1.801  12.524
66500W        W38925  12.857  11.711   3.219
66501W        W38926  15.658  37.887   2.352
66502W        W38927  44.446  44.993  13.844
66503W        W38928   6.757  13.225   3.807
66504W        W38929  42.404  16.584  12.081
66505W        W38930   9.236  43.919   4.161
66506W        W38931  33.481  41.445   5.210
66507W        W38932  17.277  44.916   3.322
66508W        W38933  44.787  33.406  10.012
66509W        W38934  15.657  23.232  13.013
66510W        W38935   4.910  21.542   3.663
66511W        W38936  13.171  36.503   4.716
66512W        W38937  16.287  30.027  14.830
66513W        W38938  27.521   6.351  10.445
66514W        W38939   5.263  13.725   0.924
66515W        W38940  20.581  16.704  14.833
66516W        W38941  25.572  33.120   1.779
66517W        W38942   6.866  22.586   3.194
66518W        W38943  22.171  10.693  10.945
66519W        W38944   9.808  18.695   4.355
66520W        W38945  26.466   0.768   3.689
66521W        W38946  42.901  37.489  12.846
66522W        W38947  31.543   5.213  11.025
66523W        W38948  43.394   4.785   3.812
66524W        W38949  33.992   3.815   0.737
66525W        W38950   5.299  34.966  12.860
66526W        W38951  26.959  13.698   4.782
66527W        W38952  42.995   7.203  12.096
66528W        W38953   1.811  28.486   0.294
66529W        W38954   7.374  42.348  12.522
66530W        W38955  39.419  39.833  10.468
66531W        W38956  18.259  18.118  13.314
66532W        W38957  39.321  41.032   0.441
66533W        W38958   5.917  27.657  14.321
66534W        W38959   1.351  17.660  12.091
66535W        W38960  25.066   7.878   2.217
66536W        W38961  37.047  30.573   0.369
66537W        W38962  29.450  21.659  10.466
66538W        W38963   3.723   4.849   4.702
66539W        W38964  30.047  39.480   1.905
66540W        W38965  10.311  44.400  14.970
66541W        W38966  41.448  27.124   0.478
66542W        W38967  38.833  14.757  12.547
66543W        W38968  30.588  20.219  13.017
66544W        W38969  34.395  18.697  14.927
66545W        W38970  42.354  13.181  14.933
66546W        W38971   3.435  20.191  12.574
66547W        W38972  42.479  33.564   4.172
66548W        W38973  11.747  21.513   1.744
66549W        W38974  13.198  24.482  11.406
66550W        W38975  30.953   1.775   2.894
66551W        W38976   4.252  32.542   2.797
66552W        W38977   7.782   0.766   3.759
66553W        W38978   4.316   3.396  10.461
66554W        W38979  35.884  30.595  11.032
66555W        W38980  35.990  25.023  13.325
66556W        W38981  10.869  21.539  10.512
66557W        W38982  14.224  17.284   4.148
66558W        W38983   9.806   2.774   4.248
66559W        W38984  44.846   8.301  13.404
66560W        W38985  31.046  43.940   0.798
66561W        W38986  43.433   5.407  11.597
66562W        W38987  37.917  30.518   1.919
66563W        W38988  16.242   2.917  12.421
66564W        W38989  10.354   2.858   3.852
66565W        W38990  13.316  31.443   0.741
66566W        W38991  33.517  35.412   0.460
66567W        W38992  17.641  40.020   4.735
66568W        W38993  24.155  33.468   1.874
66569W        W38994  37.510  24.709  13.939
66570W        W38995  12.288   4.751   9.925
66571W        W38996  19.090  18.279  12.477
66572W        W38997   7.173  38.393   2.812
66573W        W38998   4.356  37.472   0.473
66574W        W38999  10.796  37.968  14.007
66575W        W39000  22.141   7.909  14.983
66576W        W39001  23.091  14.185  13.863
66577W        W39002  26.558  32.627   1.267
66578W        W39003  34.072  18.220   1.861
66579W        W39004   1.810   1.896   3.818
66580W        W39005  26.190  29.438  12.420
66581W        W39006  35.437  34.906   2.366
66582W        W39007  43.324   8.725  12.029
66583W        W39008   1.338  29.637  11.393
66584W        W39009  28.587  29.463   2.282
66585W        W39010   5.808  36.012  13.376
66586W        W39011  23.609  36.940   4.826
66587W        W39012  12.715   5.715   3.854
66588W        W39013   8.886  17.279   1.714
66589W        W39014  32.437  31.524   0.913
66590W        W39015  42.845  24.644   0.877
66591W        W39016  35.582  29.012  14.999
66592W        W39017   8.778  16.704  11.983
66593W        W39018  36.951  36.485   3.846
66594W        W39019  13.273  11.245  11.545
66595W        W39020  22.581  38.068  11.474
66596W        W39021  44.928  15.668  11.505
66597W        W39022  23.609  26.695   3.263
66598W        W39023  16.077  34.598  12.486
66599W        W39024  18.682   3.250   2.713
66600W        W39025  25.006  27.542  12.004
66601W        W39026  35.031  44.342  14.883
66602W        W39027  40.528  41.396  13.993
66603W        W39028   7.791  30.630  12.563
66604W        W39029  10.373   1.787  14.436
66605W        W39030  43.845   7.401   3.336
66606W        W39031  34.865  10.144   4.835
66607W        W39032   3.791  19.088   2.750
66608W        W39033  21.177  14.198  10.511
66609W        W39034   6.870  11.715  13.362
66610W        W39035   5.909  38.544   4.737
66611W        W39036   8.397   0.493   1.702
66612W        W39037  14.771  12.626   0.880
66613W        W39038  31.571   1.956  10.980
66614W        W39039   2.296   4.284  11.899
66615W        W39040  22.251  21.528  11.113
66616W        W39041  40.986  28.042  13.315
66617W        W39042  23.622  20.073   2.730
66618W        W39043  32.560  43.381  11.899
66619W        W39044  11.625   0.336   4.769
66620W        W39045  18.217   2.302   3.275
66621W        W39046  10.169   3.925  10.552
66622W        W39047  10.293  12.318  14.294
66623W        W39048  15.116  43.421   4.300
66624W        W39049   8.362  26.161  14.290
66625W        W39050  28.472  31.004   1.294
66626W        W39051  11.249  22.046   4.684
66627W        W39052  32.494  14.721   2.285
66628W        W39053   5.199   8.716   4.809
66629W        W39054  41.527  24.137   1.296
66630W        W39055  12.228  26.472  11.595
66631W        W39056  27.969  37.910   2.829
66632W        W39057  38.381  30.433  14.881
66633W        W39058  16.672   5.754  11.948
66634W        W39059  21.685  30.633  14.309
66635W        W39060  34.900  10.746  12.393
66636W        W39061  31.604  35.051  12.558
66637W        W39062  23.198  33.070   3.695
66638W        W39063  42.445  26.130   4.640
66639W        W39064   3.280   3.903  12.363
66640W        W39065  39.916   4.907  13.004
66641W        W39066  37.058  21.690  12.512
66642W        W39067  13.630  26.065  10.545
66643W        W39068  40.030  21.599  11.079
66644W        W39069  36.375   0.299  11.947
66645W        W39070  31.128  21.585   5.177
66646W        W39071  33.386  40.976  13.360
66647W        W39072  41.414  41.858  11.975
66648W        W39073  35.450  11.843  13.834
66649W        W39074  14.730   6.851   2.227
66650W        W39075   1.940   3.878  13.894
66651W        W39076  14.264  14.233  13.930
66652W        W39077  14.218  14.197   5.137
66653W        W39078  19.149  15.695   4.767
66654W        W39079  43.832  21.522   3.336
66655W        W39080  28.574  36.865   4.206
66656W        W39081  18.295  28.116  11.608
66657W        W39082  44.862  31.094   0.344
66658W        W39083  29.037  33.882  12.082
66659W        W39084  14.168  36.577   1.920
66660W        W39085  12.785   6.221  14.375
66661W        W39086  17.572   4.792   9.994
66662W        W39087  38.911  25.501  11.530
66663W        W39088  20.678  40.396  10.550
66664W        W39089  31.017   9.165   2.182
66665W        W39090  28.628  25.130  10.507
66666W        W39091   5.299  39.823   0.470
66667W        W39092  34.007  37.471   0.361
66668W        W39093  22.744  24.009  11.882
66669W        W39094  18.712   6.727   3.301
66670W        W39095  12.307  14.808   4.324
66671W        W39096   4.352  44.388  12.441
66672W        W39097  20.258   0.483   2.271
66673W        W39098  33.064  44.306   3.261
66674W        W39099  18.552  16.731  14.307
66675W        W39100  17.755   8.343   0.322
66676W        W39101  26.667  36.935   2.880
66677W        W39102  41.326  20.689   1.743
66678W        W39103  18.244  26.506   0.930
66679W        W39104  35.963  39.002  14.874
66680W        W39105  42.406  35.888  13.313
66681W        W39106  42.976   2.824   3.366
66682W        W39107   6.234   8.711   1.343
66683W        W39108  44.898   9.301  12.501
66684W        W39109  13.130  44.996   0.751
66685W        W39110  26.192  15.784   2.744
66686W        W39111  20.687  26.590  13.473
66687W        W39112  37.974  41.915  14.286
66688W        W39113   8.234  44.270   1.794
66689W        W39114  29.079  36.521  13.891
66690W        W39115   4.850  29.933   2.819
66691W        W39116  18.085  10.825  14.323
66692W        W39117  33.467  36.889   2.797
66693W        W39118   6.248   8.299   1.253
66694W        W39119  37.848  13.774   4.345
66695W        W39120   2.777  12.845   0.439
66696W        W39121   8.176  42.461  13.974
66697W        W39122   9.655  12.326  11.887
66698W        W39123  37.337  17.097  13.986
66699W        W39124  27.055   8.708  11.011
66700W        W39125  30.994   8.693  10.152
66701W        W39126   3.875  16.275  11.541
66702W        W39127  37.979   0.320   1.223
66703W        W39128  37.473  19.536   4.814
66704W        W39129  41.395  36.456   2.368
66705W        W39130  30.557  38.840   0.785
66706W        W39131  24.015   7.749  11.595
66707W        W39132  21.156  26.110   3.716
66708W        W39133  23.090  21.193   3.721
66709W        W39134  21.584  21.110   3.678
66710W        W39135  36.089  34.517  12.554
66711W        W39136  39.862  27.096   3.333
66712W        W39137   1.831  10.687  14.385
66713W        W39138  28.439   3.808   2.760
66714W        W39139   7.385   6.906  14.769
66715W        W39140  13.660   4.727   0.406
66716W        W39141  12.656  32.899   1.412
66717W        W39142  44.371  29.153   0.929
66718W        W39143  36.901  42.394   2.857
66719W        W39144  25.505  28.553   3.643
66720W        W39145  11.726   2.402   3.794
66721W        W39146   7.728  33.533  14.787
66722W        W39147  34.863  23.999   4.320
66723W        W39148   6.392  41.510   0.464
66724W        W39149  17.194  17.639   3.857
66725W        W39150  39.367   6.325  12.352
66726W        W39151  21.107  15.234   1.761
66727W        W39152  30.491  37.962  11.008
66728W        W39153  31.045  12.719   4.285
66729W        W39154  13.145   3.327  10.625
66730W        W39155  35.511   3.239   3.206
66731W        W39156   8.671   0.940   4.628
66732W        W39157  33.416  13.780   1.245
66733W        W39158  28.181  11.281  12.473
66734W        W39159  42.858  30.480  12.013
66735W        W39160   5.770  12.317   3.712
66736W        W39161  14.156  31.923   4.129
66737W        W39162  30.429   5.706  12.939
66738W        W39163  44.983   4.443  14.968
66739W        W39164  24.625  12.806  14.344
66740W        W39165  21.105  22.161  12.075
66741W        W39166   6.397  38.427  13.484
66742W        W39167  34.878  22.733   3.150
66743W        W39168  22.560  27.671  12.495
66744W        W39169  41.429   1.326   2.419
66745W        W39170  35.433  19.211   0.474
66746W        W39171  42.911  44.315   1.419
66747W        W39172  18.176  17.654   2.737
66748W        W39173  19.705  11.315   3.265
66749W        W39174  21.119  11.670   1.431
66750W        W39175  37.000  11.815   2.872
66751W        W39176  15.282   3.838   3.713
66752W        W39177  22.192  38.494   2.328
66753W        W39178  35.580  13.799   2.747
66754W        W39179  38.426   1.744  11.957
66755W        W39180  42.936  15.096   3.210
66756W        W39181  40.521  35.417  10.914
66757W        W39182  20.532  28.988   2.771
66758W        W39183  34.374  22.701  11.543
66759W        W39184  17.295  44.483  14.025
66760W        W39185  31.041   2.949   0.887
66761W        W39186  20.624  39.808   4.147
66762W        W39187  13.737  31.039   0.361
66763W        W39188  19.160  20.033  11.380
66764W        W39189  10.361  39.048   1.698
66765W        W39190   3.944  17.644   3.186
66766W        W39191  40.992  34.404   0.815
66767W        W39192  42.815  32.024  11.479
66768W        W39193  36.880  28.584  13.445
66769W        W39194  38.033  11.627   3.377
66770W        W39195  24.103  18.555   1.273
66771W        W39196   8.802   4.223  13.526
66772W        W39197  38.974   7.718  10.469
66773W        W39198  43.827   2.327   0.446
66774W        W39199  25.213  35.868   2.867
66775W        W39200  28.659   1.479   2.371
66776W        W39201  34.878  36.402  12.037
66777W        W39202  36.429  43.360   4.227
66778W        W39203  28.141  30.953   0.766
66779W        W39204  22.246  18.071  14.290
66780W        W39205  19.780  22.684   1.381
66781W        W39206  25.133   0.751  12.059
66782W        W39207  36.872  27.039  14.019
66783W        W39208  10.671   4.251  13.331
66784W        W39209  26.012  37.472  11.588
66785W        W39210   6.724  40.032  12.973
66786W        W39211  29.539  41.321   2.875
66787W        W39212  26.654   9.149  14.294
66788W        W39213  19.226  23.105  13.033
66789W        W39214  43.455  31.142   3.340
66790W        W39215  22.161   0.369   4.724
66791W        W39216  42.426   0.331  11.374
66792W        W39217   5.378  37.893   0.452
66793W        W39218   8.713  34.418  11.920
66794W        W39219  22.235  26.053   2.359
66795W        W39220  33.581   2.825  10.025
66796W        W39221  11.215  11.651  11.870
66797W        W39222  27.030  28.587  13.830
66798W        W39223   1.962  37.949  11.555
66799W        W39224  24.031  20.571   2.759
66800W        W39225  27.982  17.783   4.137
66801W        W39226  42.806  27.616  13.473
66802W        W39227  17.121  19.171   1.311
66803W        W39228  33.882   4.377  14.912
66804W        W39229  21.582  42.896  10.549
66805W        W39230  19.150  17.089  11.936
66806W        W39231  20.154  19.639   5.183
66807W        W39232  11.716  29.006   2.679
66808W        W39233  20.167   0.807  12.970
66809W        W39234   2.294   5.727  11.103
66810W        W39235  23.178  23.048  13.382
66811W        W39236  37.573   3.317  14.907
66812W        W39237   5.434   5.214  11.532
66813W        W39238  43.491  30.560  13.526
66814W        W39239  40.990  32.482   1.238
66815W        W39240   6.720  38.377  12.412
66816W        W39241  31.573  40.930  13.981
66817W        W39242  23.613  40.336  10.990
66818W        W39243  35.945  20.547   4.607
66819W        W39244   2.431   8.687  12.389
66820W        W39245  37.080  23.520  11.114
66821W        W39246  14.145  13.300   4.665
66822W        W39247  10.180  13.840  12.577
66823W        W39248   6.200  42.894   4.801
66824W        W39249   6.198  42.412  12.566
66825W        W39250  13.690  36.412   1.706
66826W        W39251  42.953  31.645   1.750
66827W        W39252  20.069  13.725   1.361
66828W        W39253  37.559   6.241  11.535
66829W        W39254  16.572  35.599  14.944
66830W        W39255  31.899   6.354   1.287
66831W        W39256   1.875  28.007  12.373
66832W        W39257  41.828  16.232   1.699
66833W        W39258  34.115   2.332  11.532
66834W        W39259  29.098  35.558   1.893
66835W        W39260  14.125  44.864   0.806
66836W        W39261  15.324  42.924   2.685
66837W        W39262   7.358  18.106  10.551
66838W        W39263  25.682  40.410   2.886
66839W        W39264  27.156   0.805  13.465
66840W        W39265  39.452  36.941   3.738
66841W        W39266   0.939  40.380   0.922
66842W        W39267  35.590  38.837   3.644
66843W        W39268  15.750  38.440   3.244
66844W        W39269  17.125  13.676   0.935
66845W        W39270   5.399  36.077   2.414
66846W        W39271  22.213  41.439   4.746
66847W        W39272  31.599  22.010   4.814
66848W        W39273  22.161  39.060   2.312
66849W        W39274  20.255   0.278  11.436
66850W        W39275  14.152  18.164   4.255
66851W        W39276  22.699  25.641   3.665
66852W        W39277  27.181   7.239  13.851
66853W        W39278  20.631  12.157   0.919
66854W        W39279  28.522  43.513   2.874
66855W        W39280  37.390  33.086   3.170
66856W        W39281  10.195  33.999   1.267
66857W        W39282   0.393  13.780  13.878
66858W        W39283  25.029  37.996  11.508
66859W        W39284  22.022  29.978   3.697
66860W        W39285  13.161  20.707  10.973
66861W        W39286   6.733   8.206   1.843
66862W        W39287  37.502  34.442  14.836
66863W        W39288   5.720   5.322  11.423
66864W        W39289  19.216  31.512  13.446
66865W        W39290  11.226  13.315  11.934
66866W        W39291   0.926  34.974   3.219
66867W        W39292  43.935  15.794  10.426
66868W        W39293  22.156  10.813   1.435
66869W        W39294  36.939   5.381  13.808
66870W        W39295  29.044   4.340  14.926
66871W        W39296  35.085  11.653   0.412
66872W        W39297  10.179  27.054   2.331
66873W        W39298  22.741  23.042   1.355
66874W        W39299  10.226  36.347  12.370
66875W        W39300  28.480  20.526   1.768
66876W        W39301   5.218   3.922  10.906
66877W        W39302  44.461  19.567   2.314
66878W        W39303   9.766  16.160  14.459
66879W        W39304  15.185  26.149   0.792
66880W        W39305  43.937  24.649   2.404
66881W        W39306  36.914  22.110  10.923
66882W        W39307  29.118  12.787   4.117
66883W        W39308   9.338  28.669   0.359
66884W        W39309  36.050   0.358  10.626
66885W        W39310  21.657  33.521   4.229
66886W        W39311  35.097  44.898   1.340
66887W        W39312  41.012  19.723   2.858
66888W        W39313  37.901  35.550   2.385
66889W        W39314   3.883  41.533  13.842
66890W        W39315   1.266  34.043   0.414
66891W        W39316  13.841  27.126   2.730
66892W        W39317  20.210  41.317  14.803
66893W        W39318  17.162   4.419   0.757
66894W        W39319  29.023  32.468  11.450
66895W        W39320  14.151   8.861  11.905
66896W        W39321   0.330  43.360  13.520
66897W        W39322  42.486  37.475   0.898
66898W        W39323  20.537  17.193   3.823
66899W        W39324  14.825   8.237  13.846
66900W        W39325  40.436   2.727  13.833
66901W        W39326  37.450  35.595   2.668
66902W        W39327  27.093   5.269   3.190
66903W        W39328   2.763   3.285   4.823
66904W        W39329  21.624  38.530   0.788
66905W        W39330  34.520  43.426  13.987
66906W        W39331  43.819   1.274   3.191
66907W        W39332  28.122  21.021  11.860
66908W        W39333  23.217  39.496   3.350
66909W        W39334  25.566  10.177   2.861
66910W        W39335  22.656  16.090  12.978
66911W        W39336   2.811   5.231   0.752
66912W        W39337  23.531  34.425   4.630
66913W        W39338  28.119  15.688  10.436
66914W        W39339  15.761  16.692   3.870
66915W        W39340  29.966   7.352   2.396
66916W        W39341   2.365   9.695  13.529
66917W        W39342  12.159  23.550  14.899
66918W        W39343  34.455  24.615  14.768
66919W        W39344  36.575  41.910   2.214
66920W        W39345  13.719  35.539   0.259
66921W        W39346   6.849  40.954   4.349
66922W        W39347  34.449   7.798  12.488
66923W        W39348  35.911  41.980   3.206
66924W        W39349  21.653  10.807  13.447
66925W        W39350  35.587   6.257  11.109
66926W        W39351   9.671  32.004   0.941
66927W        W39352  35.036  35.989   5.275
66928W        W39353   4.731  13.727   1.247
66929W        W39354  32.456  18.190   0.857
66930W        W39355   4.776   0.877   2.715
66931W        W39356  22.500  31.059  13.905
66932W        W39357  16.613  21.242   5.206
66933W        W39358  39.046  21.072   0.259
66934W        W39359   2.754  22.724  14.027
66935W        W39360   5.769  44.868   3.310
66936W        W39361   1.371  21.060   2.328
66937W        W39362  10.352  26.694   2.704
66938W        W39363  30.912  16.119  11.448
66939W        W39364  34.435   3.452  10.630
66940W        W39365  17.222  34.424   1.438
66941W        W39366  11.310  38.537   1.752
66942W        W39367  28.102  38.053  13.828
66943W        W39368   4.328  18.786  12.494
66944W        W39369  21.254  27.490   0.812
66945W        W39370  23.014  27.505  13.831
66946W        W39371  37.375  40.952   2.811
66947W        W39372  10.170   7.236  12.976
66948W        W39373  16.580  44.887  13.802
66949W        W39374  43.979   2.413   0.950
66950W        W39375  40.354  10.330   4.670
66951W        W39376   9.768  14.700   2.387
66952W        W39377  32.983  12.163  11.939
66953W        W39378  24.715   3.325  13.957
66954W        W39379  38.563  41.430   2.743
66955W        W39380  25.693  18.084   2.184
66956W        W39381   5.908  27.993  11.036
66957W        W39382  32.013  37.070   4.719
66958W        W39383  31.584  13.183   2.712
66959W        W39384  29.982   4.747   1.212
66960W        W39385  38.896  27.567   4.144
66961W        W39386  21.236  25.513  10.636
66962W        W39387  33.890  25.691   0.768
66963W        W39388  37.879  38.409   0.482
66964W        W39389  34.045  35.485  13.901
66965W        W39390  32.054  18.616  11.870
66966W        W39391  10.297   8.226   1.892
66967W        W39392   4.850  30.576  11.473
66968W        W39393  38.498   4.360   0.791
66969W        W39394  22.606  38.424   0.891
66970W        W39395   9.173  37.832  13.419
66971W        W39396   5.351  13.173  14.466
66972W        W39397  13.317  20.594  14.841
66973W        W39398  35.556  39.473   0.841
66974W        W39399  28.597  29.488  14.897
66975W        W39400  28.641  41.427  10.142
66976W        W39401  26.125   4.753   1.274
66977W        W39402  18.128  34.965   3.791
66978W        W39403  27.162   7.375  13.362
66979W        W39404  32.917  39.947  13.533
66980W        W39405  15.741   1.864  14.427
66981W        W39406   5.359  16.273   2.853
66982W        W39407  13.203  34.499   4.114
66983W        W39408  38.482   6.417   0.820
66984W        W39409  25.709  42.795  12.027
66985W        W39410  33.591  25.514   2.418
66986W        W39411  10.208  44.459   5.094
66987W        W39412  37.472   0.274   0.289
66988W        W39413   9.817  21.728   0.923
66989W        W39414  16.163  32.544   5.709
66990W        W39415  25.211   7.194  14.316
66991W        W39416  37.452  41.532  11.105
66992W        W39417  39.869   3.782   4.168
66993W        W39418  12.222  38.515   1.233
66994W        W39419  15.230  29.923  11.389
66995W        W39420  20.599  37.554  13.860
66996W        W39421  34.400  43.316  14.368
66997W        W39422  38.049  19.666   4.132
66998W        W39423  31.896  19.106   1.754
66999W        W39424  19.284   2.926   4.238
67000W        W39425  39.412  43.408  11.563
67001W        W39426  41.831  22.085  13.830
67002W        W39427  24.675  28.678  11.540
67003W        W39428  39.009  21.753   2.341
67004W        W39429  26.623   6.420   3.374
67005W        W39430   1.365  42.896  12.411
67006W        W39431   7.899   3.409  12.404
67007W        W39432  35.992  31.413   2.734
67008W        W39433  22.573  16.771  11.420
67009W        W39434   1.326  31.082  13.005
67010W        W39435  40.906  25.572   3.203
67011W        W39436  39.925  28.977   4.296
67012W        W39437  24.484  30.037  13.819
67013W        W39438  38.430   7.668   4.619
67014W        W39439  20.769  14.262   1.773
67015W        W39440  39.961  31.090  11.608
67016W        W39441   7.827  16.592  12.376
67017W        W39442  36.429   6.422   9.612
67018W        W39443  35.971  34.446   4.189
67019W        W39444   3.305   0.792   3.205
67020W        W39445  15.696  21.037   1.764
67021W        W39446  41.411  35.490  11.418
67022W        W39447  10.363   4.240  13.016
67023W        W39448  33.502  24.589   1.341
67024W        W39449  32.564  31.045   2.777
67025W        W39450  17.800  11.836  14.781
67026W        W39451  39.481  26.089   1.390
67027W        W39452  38.858   4.227  12.015
67028W        W39453  17.177   1.329   0.387
67029W        W39454  41.922  21.185   3.741
67030W        W39455  44.285  38.522  12.020
67031W        W39456  31.005  41.473  10.440
67032W        W39457  22.189  30.144  12.969
67033W        W39458  10.813  32.464   4.175
67034W        W39459   2.455  25.468   2.676
67035W        W39460  12.191  14.799   0.352
67036W        W39461  32.501  19.720  10.489
67037W        W39462  10.240   2.387  10.414
67038W        W39463  32.536  32.548   3.787
67039W        W39464  38.933  15.217  14.013
67040W        W39465  33.519  23.184  10.495
67041W        W39466  26.671   5.302   4.617
67042W        W39467   3.919  33.478   0.809
67043W        W39468   6.240  12.618  14.795
67044W        W39469  30.593  10.764  12.508
67045W        W39470  44.927  15.784   1.264
67046W        W39471   4.936  24.576   1.711
67047W        W39472  32.630  36.878  10.507
67048W        W39473  37.540  32.435  14.359
67049W        W39474  43.978  17.625   1.870
67050W        W39475  11.265  20.624  14.422
67051W        W39476   9.213   9.350  10.954
67052W        W39477  30.133  15.692   4.626
67053W        W39478   2.935  40.975  11.992
67054W        W39479   3.818  16.204  13.532
67055W        W39480  40.503  17.222  10.631
67056W        W39481  22.044  34.870   2.326
67057W        W39482  27.607   1.898  12.447
67058W        W39483   4.407  25.196  13.880
67059W        W39484  34.939  34.374   3.665
67060W        W39485  11.801  28.046  10.052
67061W        W39486  20.132  13.201  13.901
67062W        W39487  23.118  44.375   1.282
67063W        W39488  23.581  32.605   0.852
67064W        W39489   5.822  10.247   0.332
67065W        W39490  32.570   2.929  14.514
67066W        W39491  18.147  32.916  11.015
67067W        W39492  37.065  10.703   0.299
67068W        W39493  21.138  42.831   1.853
67069W        W39494  44.998  34.447   2.764
67070W        W39495  37.470  34.600   0.893
67071W        W39496   8.248  23.084   0.365
67072W        W39497   0.844  21.189   2.226
67073W        W39498  22.702  28.991   3.255
67074W        W39499  23.113   5.416   3.339
67075W        W39500  13.719  41.796   0.904
67076W        W39501  33.523  22.707   2.875
67077W        W39502  15.162  18.252  14.391
67078W        W39503   5.426  33.456  10.036
67079W        W39504  40.924  23.034   4.152
67080W        W39505  16.140  35.852   3.177
67081W        W39506   5.766   2.354  13.478
67082W        W39507  44.278  24.038  12.505
67083W        W39508  26.060  44.417   0.780
67084W        W39509  37.435  15.211   0.795
67085W        W39510  11.360  16.294  14.384
67086W        W39511  22.724  26.534   4.337
67087W        W39512   4.237  15.599   3.347
67088W        W39513  44.894  31.130   5.232
67089W        W39514  17.111   4.712   4.769
67090W        W39515  12.670  25.620  12.483
67091W        W39516   3.449  33.498  14.409
67092W        W39517  34.471   0.461  13.985
67093W        W39518  41.835   6.824  11.127
67094W        W39519  24.555  31.959   0.396
67095W        W39520  18.198   3.896   1.788
67096W        W39521  11.199  42.825   2.785
67097W        W39522   3.239   9.760  11.952
67098W        W39523  29.669  25.496  10.985
67099W        W39524  36.379   4.225   4.209
67100W        W39525  14.774  38.049   0.469
67101W        W39526   8.670  31.543   2.898
67102W        W39527   9.867  26.990  12.520
67103W        W39528  41.902   8.667  12.862
67104W        W39529   1.900  36.526   4.141
67105W        W39530  19.538  12.277  11.548
67106W        W39531  24.485  35.909   4.788
67107W        W39532  36.073  21.554  11.890
67108W        W39533   9.875  19.631  11.054
67109W        W39534  33.468  38.440   2.896
67110W        W39535  14.602  14.224   4.762
67111W        W39536  17.195  25.675  10.898
67112W        W39537   9.793   6.847   4.174
67113W        W39538  22.658  30.576  14.302
67114W        W39539  35.519  31.635  12.531
67115W        W39540   8.326   2.434  14.925
67116W        W39541  11.265  28.663   1.265
67117W        W39542  12.688  15.822   0.483
67118W        W39543  30.078  22.022  13.794
67119W        W39544  26.548  36.479  15.000
67120W        W39545   3.890  23.492   3.669
67121W        W39546  37.840  10.330   1.916
67122W        W39547   1.842  36.941  11.438
67123W        W39548  44.874  30.983  14.788
67124W        W39549   5.797  25.622   4.819
67125W        W39550  34.383   6.273  10.965
67126W        W39551  29.153  32.091  10.944
67127W        W39552   8.831  24.508  12.528
67128W        W39553  19.054  31.426   0.742
67129W        W39554  13.205  11.293   4.244
67130W        W39555  17.759  35.488   4.120
67131W        W39556  43.953  30.140   1.418
67132W        W39557  30.053  40.386  12.847
67133W        W39558  35.963  20.689  10.947
67134W        W39559  44.366  32.952  10.465
67135W        W39560   6.778   8.863  14.029
67136W        W39561  30.023  30.016  14.459
67137W        W39562   5.705  44.363  10.449
67138W        W39563   2.394  29.147  13.985
67139W        W39564  22.539  12.324   3.675
67140W        W39565  33.506  26.193  14.015
67141W        W39566   0.829  22.615  14.764
67142W        W39567  16.595  24.109  12.390
67143W        W39568   8.728  27.043  12.360
67144W        W39569  20.198  27.088   0.356
67145W        W39570   5.881  37.955  12.940
67146W        W39571  44.392  18.137   4.778
67147W        W39572  26.665  26.955   1.735
67148W        W39573  11.666  27.023   2.809
67149W        W39574  12.800   1.267   0.737
67150W        W39575   1.386  19.281   2.282
67151W        W39576  10.663  16.622  13.344
67152W        W39577  24.593  10.290   2.874
67153W        W39578   3.436  44.478  12.413
67154W        W39579  15.112   1.763   1.238
67155W        W39580  38.837  16.775   4.217
67156W        W39581  23.060  23.218   3.769
67157W        W39582  18.213  32.904  12.030
67158W        W39583  38.565  40.348  12.873
67159W        W39584  29.561  41.905   3.374
67160W        W39585   6.384  31.984   1.789
67161W        W39586  12.224  33.478   0.945
67162W        W39587  33.579   2.729  11.537
67163W        W39588  30.421  17.185   1.708
67164W        W39589  30.594  43.909  10.566
67165W        W39590  11.336   5.317   4.322
67166W        W39591  19.578  42.004   1.771
67167W        W39592  40.331   1.806   2.665
67168W        W39593  20.529  38.030  11.083
67169W        W39594  24.551  15.602   2.251
67170W        W39595   5.341  19.703  13.432
67171W        W39596  22.155  22.159   1.708
67172W        W39597  22.162  34.069   2.185
67173W        W39598  36.934  43.981   3.317
67174W        W39599  28.016  20.090  13.891
67175W        W39600  37.580  13.228  12.371
67176W        W39601  11.679  25.029  12.019
67177W        W39602  32.914   8.759  10.567
67178W        W39603  28.608  29.034  13.392
67179W        W39604  33.444  39.558  12.864
67180W        W39605  40.503  44.837  13.512
67181W        W39606  38.887  42.952  10.632
67182W        W39607  15.256  39.899   2.236
67183W        W39608  29.933  43.338   4.329
67184W        W39609   5.882  26.670   1.246
67185W        W39610  32.493  43.301   2.783
67186W        W39611   6.834  39.390  12.845
67187W        W39612  30.497  25.595  11.430
67188W        W39613   7.252  13.763   2.835
67189W        W39614  42.006  38.915  13.321
67190W        W39615  28.106  13.300  12.447
67191W        W39616  32.942   0.751   1.426
67192W        W39617  35.588  19.103  12.544
67193W        W39618   1.935   1.345  14.443
67194W        W39619  29.092   0.843  11.056
67195W        W39620   1.374  44.401  11.425
67196W        W39621  31.564  33.007   2.820
67197W        W39622  17.679  34.938  10.436
67198W        W39623  33.082  23.167   3.149
67199W        W39624  14.223  14.616  11.408
67200W        W39625  33.517  40.874  10.968
67201W        W39626   3.412   3.290  14.811
67202W        W39627  12.280   7.794   3.826
67203W        W39628  18.599  31.431   0.805
67204W        W39629   3.938  23.058   2.732
67205W        W39630  15.280  18.626   2.858
67206W        W39631  33.584   2.278   4.126
67207W        W39632  17.299   8.179   4.137
67208W        W39633  19.624  28.981   1.735
67209W        W39634  27.957   3.908   4.289
67210W        W39635  19.171  13.709   2.675
67211W        W39636  37.344  31.536  13.846
67212W        W39637   4.282  19.271  13.944
67213W        W39638  40.811  24.081   2.242
67214W        W39639  43.876  21.629   1.751
67215W        W39640   9.709   7.404  12.007
67216W        W39641   9.827  20.730  11.023
67217W        W39642   4.864   4.898  10.527
67218W        W39643  33.492   5.763   1.889
67219W        W39644  20.127  24.157   2.181
67220W        W39645  26.563  36.923  10.625
67221W        W39646  27.686  33.054   1.430
67222W        W39647  19.585   6.723   1.381
67223W        W39648   1.442  19.633   1.217
67224W        W39649  10.357  22.539   1.317
67225W        W39650  23.199  15.811  10.429
67226W        W39651  27.133  29.102  12.416
67227W        W39652  39.465   0.409   1.764
67228W        W39653  30.495   9.157   0.329
67229W        W39654  41.310  42.344  13.321
67230W        W39655  40.858  33.012   1.748
67231W        W39656  29.629  41.008   4.659
67232W        W39657   7.248  16.799  10.428
67233W        W39658  32.903  13.778   4.123
67234W        W39659  42.840  14.731   2.355
67235W        W39660  28.076  39.827  14.884
67236W        W39661  29.006  24.168  12.094
67237W        W39662   4.240  37.563  14.777
67238W        W39663   1.885  20.254  12.873
67239W        W39664   5.693  20.198  13.377
67240W        W39665  12.644  28.062   3.711
67241W        W39666  15.607  20.701  14.873
67242W        W39667  26.002  16.148  11.409
67243W        W39668  19.225   7.311  14.826
67244W        W39669  24.062  14.097  12.375
67245W        W39670  39.980  20.670   0.771
67246W        W39671  20.565  28.007  12.981
67247W        W39672   8.747  22.530   2.185
67248W        W39673  34.526  35.872   0.817
67249W        W39674  23.014  43.883  14.515
67250W        W39675  40.887  31.034   2.781
67251W        W39676  12.693  25.581  14.789
67252W        W39677  35.950  34.944   0.885
67253W        W39678  27.520  29.150   1.826
67254W        W39679  35.513  36.575  10.525
67255W        W39680   2.364   2.810   3.812
67256W        W39681  42.457  32.528  11.579
67257W        W39682  36.559  13.675   1.759
67258W        W39683   8.831   8.248  10.517
67259W        W39684  15.703  26.582  11.513
67260W        W39685  35.531  34.113   3.788
67261W        W39686  13.134  14.658  12.447
67262W        W39687  26.158  42.343   2.883
67263W        W39688  22.179   1.746   1.808
67264W        W39689  12.628  40.532   1.899
67265W        W39690  25.573  17.567   4.735
67266W        W39691  40.985  16.168   0.890
67267W        W39692  18.285  33.503   1.407
67268W        W39693  34.100  21.727  10.928
67269W        W39694  41.009   8.187   1.257
67270W        W39695   8.233  12.176  12.839
67271W        W39696  33.609  24.516   3.352
67272W        W39697   4.355   0.280  14.929
67273W        W39698   3.827  38.566  12.088
67274W        W39699  34.910   0.824  11.398
67275W        W39700  43.359   4.736   0.371
67276W        W39701   0.274  42.836   3.773
67277W        W39702  20.729  33.033  13.468
67278W        W39703   9.163  12.165   1.920
67279W        W39704  16.797  32.908   1.855
67280W        W39705  32.958  44.974  14.386
67281W        W39706   0.487  16.687  14.318
67282W        W39707  13.824  34.915  12.854
67283W        W39708  44.450  40.469  10.441
67284W        W39709   6.252  42.883   3.838
67285W        W39710  30.587  33.463   2.873
67286W        W39711  39.971  35.910  11.981
67287W        W39712  32.016   9.649  11.011
67288W        W39713  19.140   8.688   4.614
67289W        W39714  39.466  29.131  14.822
67290W        W39715  26.607  16.314   4.202
67291W        W39716  18.723  31.440   3.254
67292W        W39717   7.852  38.399  14.818
67293W        W39718  27.143  26.512  11.608
67294W        W39719  10.874  38.856  11.917
67295W        W39720  28.525  15.698  10.569
67296W        W39721  37.548   5.860  11.919
67297W        W39722  40.923   8.771  14.303
67298W        W39723  25.659  42.287   0.903
67299W        W39724  11.321  25.562  11.453
67300W        W39725  22.683  30.991   4.672
67301W        W39726  36.484  18.097  14.816
67302W        W39727  44.394  42.866  14.403
67303W        W39728  23.038  13.199   2.357
67304W        W39729  41.838  40.891  10.627
67305W        W39730  22.153  17.746  12.451
67306W        W39731  28.659   2.422  11.093
67307W        W39732  20.531  13.139  14.868
67308W        W39733   4.311  25.480   4.702
67309W        W39734  13.185   2.369   0.731
67310W        W39735  34.018  30.630  14.296
67311W        W39736  42.510  27.645  14.779
67312W        W39737  27.184  35.417  10.624
67313W        W39738  24.066  18.545  11.594
67314W        W39739  35.019  13.803  12.888
67315W        W39740  39.882  40.047  11.509
67316W        W39741  28.006  13.641  14.383
67317W        W39742   0.329  35.530  14.286
67318W        W39743  19.057   4.712   1.360
67319W        W39744  22.707  10.809  11.107
67320W        W39745   8.684   7.355  11.503
67321W        W39746  21.240   6.798  12.400
67322W        W39747  22.234   3.375  12.551
67323W        W39748  44.836  10.155   3.263
67324W        W39749  10.725  10.353   2.895
67325W        W39750  20.074  15.129   4.641
67326W        W39751  16.616  32.399  14.797
67327W        W39752  22.696  36.953  14.018
67328W        W39753   4.723  29.605  13.020
67329W        W39754  13.822   3.792   4.740
67330W        W39755  20.180  10.643  11.927
67331W        W39756  40.471  30.114  13.947
67332W        W39757  43.863  11.746  11.402
67333W        W39758   4.388  44.308   0.864
67334W        W39759  17.148  34.384  14.001
67335W        W39760   8.882  25.588  11.439
67336W        W39761  44.001  13.199  10.539
67337W        W39762  44.466  25.998   2.892
67338W        W39763  15.703   6.839   4.757
67339W        W39764   6.241   7.206   5.224
67340W        W39765   5.908  42.459   2.843
67341W        W39766  39.341  16.728  11.922
67342W        W39767  41.800  27.123  11.972
67343W        W39768  13.231   4.812   4.262
67344W        W39769   6.899   0.467  12.403
67345W        W39770  31.423   5.782  12.449
67346W        W39771  15.093  34.023  13.985
67347W        W39772  28.978  25.529  13.818
67348W        W39773   2.884   3.862  11.541
67349W        W39774  30.095  41.032  10.954
67350W        W39775  21.023  29.077   4.642
67351W        W39776  29.624  26.478   2.754
67352W        W39777  21.541   8.391  11.449
67353W        W39778  31.932  43.331   0.347
67354W        W39779  22.674   2.815   3.238
67355W        W39780   9.335  11.178   4.725
67356W        W39781  43.316  31.015   1.712
67357W        W39782  19.602  28.966   3.190
67358W        W39783  19.161  32.115  11.508
67359W        W39784   7.306  32.575   2.712
67360W        W39785  11.297  28.676  12.877
67361W        W39786  23.010  40.960  10.544
67362W        W39787  41.315  17.196   4.280
67363W        W39788  34.515   0.269   3.223
67364W        W39789  26.951   4.843   4.808
67365W        W39790  27.485  39.818  14.809
67366W        W39791  39.885  21.710   3.632
67367W        W39792  27.064  16.204   4.354
67368W        W39793   7.320  13.834  13.320
67369W        W39794   9.691  26.041   0.390
67370W        W39795   6.259  16.695   2.346
67371W        W39796  41.362  31.925  14.514
67372W        W39797  44.991  42.317  14.365
67373W        W39798   0.283  17.260  11.031
67374W        W39799   9.738  27.523  10.632
67375W        W39800  44.953  30.134  12.409
67376W        W39801   3.772  21.217  10.959
67377W        W39802   1.739  38.442  12.971
67378W        W39803   1.906   5.322   4.263
67379W        W39804  29.594  36.900   3.205
67380W        W39805   2.750  29.633   0.313
67381W        W39806  13.179  18.605   3.371
67382W        W39807  39.985  19.633  10.463
67383W        W39808   7.343   2.383  12.417
67384W        W39809  30.019  34.569  14.952
67385W        W39810  18.608  43.907  11.549
67386W        W39811  27.059  14.591   3.211
67387W        W39812   5.805   6.863   3.718
67388W        W39813  13.725  38.887  10.628
67389W        W39814  35.941   9.774   2.806
67390W        W39815   6.876  36.462  10.439
67391W        W39816  32.577  24.175  11.119
67392W        W39817   1.276  19.211   2.890
67393W        W39818  23.148   4.842   0.319
67394W        W39819   4.939   1.738   4.317
67395W        W39820  33.446  35.422  12.977
67396W        W39821  10.737  34.508   0.370
67397W        W39822   9.855   4.425   2.279
67398W        W39823  44.357   2.414   0.336
67399W        W39824  13.770  19.769   0.900
67400W        W39825  23.001  29.153   0.325
67401W        W39826  44.363  30.916  13.040
67402W        W39827  11.355  37.362   3.304
67403W        W39828  11.697  12.132  14.281
67404W        W39829  12.309  20.728   3.666
67405W        W39830  22.613  32.474  10.450
67406W        W39831  31.042  19.746  13.950
67407W        W39832  17.082  30.509  10.948
67408W        W39833  40.417  15.120   3.194
67409W        W39834  38.341  32.501  14.847
67410W        W39835  21.216  11.745   0.263
67411W        W39836  16.582  24.136  11.111
67412W        W39837  39.994   6.266  11.490
67413W        W39838  14.623  11.189  11.426
67414W        W39839  32.064  27.523  10.993
67415W        W39840  42.389   5.775   1.773
67416W        W39841  11.719  35.917   9.969
67417W        W39842  30.975  44.433  10.992
67418W        W39843  19.093  24.048   1.883
67419W        W39844   9.318  22.079   4.729
67420W        W39845  24.032   5.388   0.401
67421W        W39846  42.919  12.728  12.346
67422W        W39847   3.334  12.188  14.761
67423W        W39848   3.842  24.694   3.369
67424W        W39849  41.848   6.417   0.858
67425W        W39850  37.871  36.034   4.619
67426W        W39851  35.099  43.899  10.538
67427W        W39852  33.540   9.286  12.993
67428W        W39853  39.332   4.735  14.344
67429W        W39854  33.888  13.809  14.904
67430W        W39855   4.379  22.566   3.206
67431W        W39856  34.495  22.712   2.675
67432W        W39857   4.786  12.141  14.514
67433W        W39858   1.908  32.930  11.982
67434W        W39859  38.457  22.529  12.040
67435W        W39860  31.063  31.001  14.490
67436W        W39861   5.885  25.578   0.334
67437W        W39862  44.306  37.513   1.263
67438W        W39863  17.573  26.117   1.341
67439W        W39864  27.523  40.524   1.259
67440W        W39865  41.530  16.785   1.419
67441W        W39866  30.979  30.452   5.094
67442W        W39867  32.976   4.736   2.797
67443W        W39868   6.266   5.719   1.778
67444W        W39869  20.670  24.557  12.467
67445W        W39870  24.672   8.816   5.101
67446W        W39871   1.411  33.387  10.076
67447W        W39872  32.420  22.525  12.346
67448W        W39873  13.790  15.645   1.892
67449W        W39874  27.542  15.107   0.336
67450W        W39875  22.688   0.406  14.800
67451W        W39876  14.629   0.764   0.804
67452W        W39877   7.296   4.434  10.436
67453W        W39878  42.819  32.565  10.965
67454W        W39879  23.114  34.976   3.717
67455W        W39880   3.726   6.417  10.473
67456W        W39881  17.646   7.868   1.890
67457W        W39882  36.468  16.760   3.855
67458W        W39883  43.276  38.511   1.446
67459W        W39884  33.503  27.036  14.493
67460W        W39885  39.319   9.282  14.286
67461W        W39886  32.994  21.179  13.463
67462W        W39887  31.931  37.399   2.275
67463W        W39888  22.711   9.813   1.821
67464W        W39889   6.214  40.424  12.922
67465W        W39890  35.892   9.730  10.953
67466W        W39891  25.144  15.141   2.352
67467W        W39892  38.900   8.834   0.824
67468W        W39893  28.118  42.350  11.409
67469W        W39894  25.007  13.689   3.352
67470W        W39895   8.842  23.018   4.674
67471W        W39896   8.204  44.986   1.916
67472W        W39897  33.514  38.055   4.800
67473W        W39898  33.980  31.526   4.117
67474W        W39899  16.223  41.345   5.311
67475W        W39900   6.812   0.388   0.905
67476W        W39901  29.929   8.321   0.844
67477W        W39902  30.567  19.607   0.278
67478W        W39903   9.859   3.820  13.825
67479W        W39904  26.691  25.706  13.334
67480W        W39905  24.570  23.041   1.891
67481W        W39906  29.923   6.411   2.285
67482W        W39907  10.311  44.889  10.604
67483W        W39908   2.735   6.271  14.994
67484W        W39909   2.417  22.556   4.122
67485W        W39910  28.148  30.907   4.685
67486W        W39911  27.954   7.767   0.848
67487W        W39912   1.259  23.233  12.967
67488W        W39913   9.362  11.638  13.538
67489W        W39914   3.322  44.486   4.706
67490W        W39915  44.434   7.403   2.226
67491W        W39916  23.530  20.530   4.138
67492W        W39917  34.480   7.716   3.790
67493W        W39918  24.014  10.821   3.761
67494W        W39919  20.680  44.984  13.498
67495W        W39920  36.398  37.052   1.250
67496W        W39921  14.728  44.319   0.925
67497W        W39922  24.157  32.942   2.743
67498W        W39923  44.322  18.578   5.311
67499W        W39924   0.825  29.582  12.854
67500W        W39925   8.205  10.760   4.128
67501W        W39926   8.280  21.653  10.916
67502W        W39927  22.046   7.378   2.306
67503W        W39928  21.567  33.099   2.772
67504W        W39929  30.002  20.139   1.231
67505W        W39930  21.162   0.859  11.607
67506W        W39931  14.611  44.920   2.880
67507W        W39932  34.003  15.660   2.683
67508W        W39933  21.694  20.261   1.425
67509W        W39934  16.681   9.884   4.716
67510W        W39935   8.827  26.955  13.808
67511W        W39936   6.748  27.547   3.801
67512W        W39937   0.951  13.687  10.599
67513W        W39938  39.499  32.969  11.108
67514W        W39939  44.824   1.475  14.388
67515W        W39940  35.942  16.203   4.796
67516W        W39941  15.304   1.746  12.043
67517W        W39942  10.339  24.224  14.309
67518W        W39943   0.900  14.301   0.419
67519W        W39944  21.041  38.358   1.213
67520W        W39945  29.668   7.751  12.854
67521W        W39946  24.984  21.229  11.428
67522W        W39947  39.872  19.625   3.280
67523W        W39948  12.263   9.771  13.796
67524W        W39949  41.432  42.023  14.000
67525W        W39950  30.943  36.004  12.967
67526W        W39951  16.697   8.727   1.426
67527W        W39952  42.931  41.338  14.405
67528W        W39953  17.661  24.070  14.405
67529W        W39954  30.509  42.408  13.330
67530W        W39955  32.034  31.436   0.938
67531W        W39956  42.837   0.404   4.813
67532W        W39957  38.021  30.075  13.349
67533W        W39958   8.333  19.119   3.663
67534W        W39959  42.842  34.600  10.131
67535W        W39960   9.151  13.774   0.910
67536W        W39961  42.412  11.282  13.045
67537W        W39962  33.919   2.374  11.120
67538W        W39963  40.975   5.334  12.490
67539W        W39964  30.118  38.847  14.874
67540W        W39965   7.692  27.944   5.277
67541W        W39966   7.372  13.639  12.060
67542W        W39967  20.707   3.268  14.956
67543W        W39968   6.890  15.578   1.270
67544W        W39969   4.294  37.884  13.009
67545W        W39970  39.352  12.737  13.460
67546W        W39971  23.550   2.901   1.696
67547W        W39972  32.500  11.132   3.307
67548W        W39973  32.933  17.081  13.546
67549W        W39974   5.288  39.316  14.378
67550W        W39975   0.819  26.976   3.223
67551W        W39976   8.664  35.540   3.638
67552W        W39977  37.567  44.773  14.284
67553W        W39978  43.007  26.463  11.447
67554W        W39979   3.327  13.163   2.215
67555W        W39980  39.531   3.228  13.315
67556W        W39981   8.794  25.583  11.869
67557W        W39982  41.447  29.048  10.966
67558W        W39983  33.905  37.519   2.813
67559W        W39984  29.990  35.453  11.504
67560W        W39985  11.333  44.316  10.924
67561W        W39986  43.350  36.396   3.198
67562W        W39987   6.809  32.893  14.299
67563W        W39988  40.966  15.697   2.734
67564W        W39989  41.357  43.957   4.278
67565W        W39990  42.923   9.871  12.864
67566W        W39991  24.167  37.578  10.888
67567W        W39992  24.070  23.494   2.359
67568W        W39993  19.665  15.680  14.774
67569W        W39994  30.529  34.039   3.255
67570W        W39995  40.514   3.446   1.828
67571W        W39996  20.196  25.473   1.876
67572W        W39997  40.003  26.615   1.228
67573W        W39998  35.866  11.147  10.904
67574W        W39999  22.151   9.763  10.045
67575W        W40000   2.883  21.640  13.350
67576W        W40001  36.933  34.615   2.333
67577W        W40002  27.113  29.173  12.998
67578W        W40003   4.291  13.606   4.729
67579W        W40004  26.536  42.853  14.948
67580W        W40005  28.116  33.018   4.800
67581W        W40006  31.512  29.502  12.500
67582W        W40007  21.535  32.095  14.799
67583W        W40008  36.392  12.827  11.051
67584W        W40009  18.739  13.110   0.925
67585W        W40010   1.374  44.775   4.316
67586W        W40011  27.009   0.969  12.042
67587W        W40012  28.446  43.863  14.759
67588W        W40013  35.361  28.030   0.784
67589W        W40014   3.348   8.708  13.397
67590W        W40015  25.500  38.570   2.371
67591W        W40016  23.692  26.163   2.236
67592W        W40017  36.533   3.265   5.283
67593W        W40018   0.286  14.336  12.424
67594W        W40019  38.409   5.769  14.347
67595W        W40020  29.642   2.308  11.914
67596W        W40021  34.601  34.446   0.289
67597W        W40022   3.753   9.176  10.511
67598W        W40023  35.588  31.025  10.469
67599W        W40024  30.658  22.659   3.777
67600W        W40025   9.240   8.172   0.921
67601W        W40026  27.500  14.791   2.807
67602W        W40027  16.145  42.967  13.401
67603W        W40028  39.818  33.409  11.072
67604W        W40029  21.537  35.951  10.515
67605W        W40030  43.842  25.198  12.917
67606W        W40031  27.008   5.758  10.608
67607W        W40032   6.810  37.896   0.301
67608W        W40033  36.348  18.149   0.781
67609W        W40034  14.096   3.378   2.240
67610W        W40035   3.247  32.108  13.925
67611W        W40036   6.722  27.043   1.252
67612W        W40037  43.459  36.989  14.477
67613W        W40038  39.880  23.069  12.827
67614W        W40039  41.928   4.836  11.463
67615W        W40040  44.780  12.708   2.732
67616W        W40041  43.970  21.690   0.388
67617W        W40042  14.638   2.260   4.602
67618W        W40043  22.548  16.209   4.670
67619W        W40044  31.960  27.952  11.906
67620W        W40045  35.397  35.067  14.403
67621W        W40046  19.060  19.748   4.310
67622W        W40047   8.709   4.894  10.528
67623W        W40048  21.207  11.716   4.626
67624W        W40049   7.337  12.723  14.339
67625W        W40050   1.796  30.430  13.791
67626W        W40051  38.451   0.891   3.148
67627W        W40052   5.704  26.655   0.447
67628W        W40053   9.823   6.201   4.252
67629W        W40054   9.822  42.432   2.714
67630W        W40055   4.823  26.977   0.295
67631W        W40056  34.974  37.409  10.005
67632W        W40057  24.506  25.978   1.729
67633W        W40058  42.482  10.368   1.288
67634W        W40059   0.905  33.064   5.149
67635W        W40060  42.383   7.703  10.999
67636W        W40061  38.472  20.158  13.387
67637W        W40062   1.922  22.222   2.200
67638W        W40063  43.774  44.871   3.714
67639W        W40064  25.641  37.884   0.790
67640W        W40065  13.838  36.400  14.375
67641W        W40066  17.239  35.567   0.890
67642W        W40067  25.962   5.250   0.915
67643W        W40068  15.211   2.370  11.958
67644W        W40069  30.015   5.735   4.668
67645W        W40070  19.540  39.493   1.387
67646W        W40071  28.557  14.660  12.456
67647W        W40072   2.950  10.148   0.381
67648W        W40073   3.261  32.495  10.416
67649W        W40074  24.143  13.219   3.201
67650W        W40075  33.917  31.027   2.381
67651W        W40076  20.649  24.084  10.405
67652W        W40077  34.419   2.246   2.326
67653W        W40078  19.722   0.832   0.304
67654W        W40079   1.739  28.442  14.951
67655W        W40080   2.743  15.703   4.269
67656W        W40081   1.837  33.908   0.481
67657W        W40082  20.075  42.283   2.241
67658W        W40083  44.985  39.046  11.395
67659W        W40084  30.022  37.888   2.675
67660W        W40085  20.237   6.871  11.596
67661W        W40086  41.977  27.499  14.347
67662W        W40087  24.031  17.211  13.927
67663W        W40088  14.792   7.815   4.124
67664W        W40089  20.173   7.324  11.401
67665W        W40090   6.683  27.054  12.923
67666W        W40091   0.458  36.005   1.325
67667W        W40092  12.227  38.065  11.962
67668W        W40093   2.894  33.910   3.386
67669W        W40094  44.400   7.763  10.890
67670W        W40095  38.510  38.982  14.497
67671W        W40096   0.445  13.278   2.865
67672W        W40097   4.810  33.380   1.719
67673W        W40098  15.235  38.041  14.903
67674W        W40099  24.652   9.382   2.751
67675W        W40100  28.600  20.230  10.465
67676W        W40101   1.415  13.286  12.823
67677W        W40102  23.646  23.222   0.479
67678W        W40103  17.229  20.069   0.361
67679W        W40104  14.659  17.704   4.140
67680W        W40105  38.472  14.313   0.263
67681W        W40106  29.934  20.597   1.776
67682W        W40107  33.397   9.274   3.264
67683W        W40108  11.718  10.381  14.014
67684W        W40109  28.589  40.447  13.424
67685W        W40110   2.765  31.076  13.350
67686W        W40111   4.389  10.735  11.932
67687W        W40112  28.592  32.474   2.325
67688W        W40113  23.108  43.015   2.850
67689W        W40114   9.269  38.501   3.328
67690W        W40115   5.864  31.487  11.969
67691W        W40116  20.605  14.194  14.481
67692W        W40117   1.369  26.670  14.894
67693W        W40118  12.251  38.515   4.131
67694W        W40119  42.959   3.235  13.482
67695W        W40120  24.106  32.104   9.945
67696W        W40121  16.638  15.297  13.057
67697W        W40122  36.529  34.544   4.780
67698W        W40123  30.081  29.590   3.154
67699W        W40124  34.992   1.945   2.399
67700W        W40125  11.650  37.037   1.376
67701W        W40126  40.855  19.601   1.451
67702W        W40127  21.018  40.917  13.862
67703W        W40128   4.228  20.654  14.352
67704W        W40129   5.749  13.842   0.736
67705W        W40130  34.387  25.072   3.204
67706W        W40131   1.244  30.057  13.329
67707W        W40132  16.108   8.293   1.341
67708W        W40133  41.485  33.501   0.782
67709W        W40134  38.935  22.691   1.377
67710W        W40135  19.112   4.405   2.852
67711W        W40136  30.445  18.589  10.427
67712W        W40137  10.138  20.532   2.358
67713W        W40138  26.963   3.879   4.142
67714W        W40139   4.287   0.446   4.685
67715W        W40140  44.437   8.268  12.080
67716W        W40141  32.126  42.936  14.836
67717W        W40142  44.851   0.288   3.832
67718W        W40143  16.758  36.932   3.146
67719W        W40144   1.754   2.830  14.397
67720W        W40145  14.119  33.392   1.250
67721W        W40146  39.537  12.181  13.063
67722W        W40147  22.669  20.707   0.911
67723W        W40148  21.204   3.309  11.456
67724W        W40149  16.606   9.258   2.254
67725W        W40150  36.864  41.892  10.644
67726W        W40151   1.745  42.863  11.990
67727W        W40152  31.072  33.933  10.586
67728W        W40153  38.020  42.391  11.031
67729W        W40154  12.332  40.526   4.173
67730W        W40155  43.953  20.068  11.534
67731W        W40156  31.909  31.019   0.439
67732W        W40157  18.130   4.259  10.906
67733W        W40158  35.094  12.688  13.402
67734W        W40159   2.798   8.355  13.541
67735W        W40160  40.021  29.587  12.870
67736W        W40161  38.497  29.440  12.866
67737W        W40162   7.765  39.413  10.979
67738W        W40163  40.451  23.074  13.908
67739W        W40164  32.509  29.134   3.178
67740W        W40165  26.542  19.065   4.123
67741W        W40166  12.737  25.153  14.859
67742W        W40167  37.496   9.364   0.943
67743W        W40168  29.110  33.416  11.116
67744W        W40169  29.937  20.631   2.178
67745W        W40170  42.354  31.950  11.952
67746W        W40171  18.617  16.800  12.545
67747W        W40172  12.215   1.742   0.853
67748W        W40173  17.242  30.129  10.482
67749W        W40174   6.795  28.487   1.697
67750W        W40175  28.605  11.729   2.380
67751W        W40176  19.228   7.410   2.212
67752W        W40177  25.550  14.668  11.095
67753W        W40178  32.982  42.856  14.343
67754W        W40179   1.326  19.253   1.708
67755W        W40180  27.962  28.662  13.313
67756W        W40181  27.519  22.664   3.781
67757W        W40182  27.040   7.227  12.914
67758W        W40183   0.771  32.588   2.248
67759W        W40184  30.161  25.095   0.437
67760W        W40185  28.083   7.689  10.560
67761W        W40186  36.463  11.256  10.894
67762W        W40187  44.897  32.930   0.860
67763W        W40188  13.247   0.906   2.700
67764W        W40189  41.854   1.944  14.948
67765W        W40190  32.490   5.304   4.649
67766W        W40191  12.766  10.686   3.681
67767W        W40192  36.841  36.976  13.016
67768W        W40193  27.033   4.872  13.478
67769W        W40194  18.627  27.947   2.249
67770W        W40195  24.189   8.816   3.820
67771W        W40196  19.778  17.727  13.470
67772W        W40197  26.547  24.522  14.958
67773W        W40198   5.861   1.968  14.914
67774W        W40199  12.821  34.097  13.876
67775W        W40200   0.254  24.513  13.874
67776W        W40201  27.963  26.063  13.418
67777W        W40202  42.895   9.239   0.373
67778W        W40203   5.353  33.397   4.216
67779W        W40204  14.715  37.903   2.872
67780W        W40205  20.193   9.678   1.449
67781W        W40206  41.904  31.951   4.190
67782W        W40207  17.298  28.182  10.973
67783W        W40208  15.284   0.345  14.784
67784W        W40209  26.520  38.418   0.909
67785W        W40210  37.972  14.754   3.800
67786W        W40211   6.353  24.598   0.434
67787W        W40212  10.182   7.361  14.400
67788W        W40213   8.406   6.842  13.840
67789W        W40214  10.199   0.432  14.326
67790W        W40215  43.300   7.283  10.412
67791W        W40216   1.392  39.827   1.922
67792W        W40217  26.627  41.787  10.467
67793W        W40218   3.443   9.212   1.268
67794W        W40219   2.895  36.351   4.623
67795W        W40220   7.727  35.973   5.229
67796W        W40221  19.745   7.869   3.716
67797W        W40222  28.976   5.833  14.885
67798W        W40223   7.364  22.082  11.062
67799W        W40224  10.364  13.789   3.827
67800W        W40225  14.819   1.272   0.762
67801W        W40226  36.415  19.735   3.650
67802W        W40227  28.162  35.445  12.467
67803W        W40228  15.324  25.551   0.482
67804W        W40229   1.798  26.543   3.778
67805W        W40230  29.175   8.750   2.869
67806W        W40231   2.470  15.731  12.896
67807W        W40232  19.651  26.501   2.209
67808W        W40233  13.325  21.135   0.321
67809W        W40234   1.851  31.483  11.054
67810W        W40235  21.520  42.333  11.103
67811W        W40236  34.419  32.009   4.298
67812W        W40237  20.191  14.140   2.714
67813W        W40238  36.437  29.638   3.206
67814W        W40239  24.093  32.621  10.988
67815W        W40240  38.897  28.676   3.750
67816W        W40241  42.974  26.979  11.017
67817W        W40242  12.130   3.230  11.437
67818W        W40243  36.894  34.033  11.109
67819W        W40244  15.292  37.053   2.317
67820W        W40245   5.252   8.309   3.850
67821W        W40246  40.958  33.005  12.079
67822W        W40247  11.791  38.964   0.421
67823W        W40248  22.636  15.261  14.300
67824W        W40249   8.855   8.828  13.814
67825W        W40250  42.960  24.603   0.262
67826W        W40251  44.807  14.775   1.719
67827W        W40252  15.641  15.267  10.123
67828W        W40253  24.071  14.302   4.802
67829W        W40254   6.185  43.013   0.456
67830W        W40255  36.030  27.503  13.963
67831W        W40256  37.456  44.400   4.128
67832W        W40257  27.105   4.933  12.921
67833W        W40258   7.259  23.137  10.906
67834W        W40259  30.148  30.993  13.493
67835W        W40260  11.207  20.091   1.894
67836W        W40261   8.865   6.395  13.900
67837W        W40262  39.526   4.879   0.877
67838W        W40263  28.106   4.792  12.425
67839W        W40264  41.460   1.840   4.216
67840W        W40265  17.558  15.242  14.966
67841W        W40266  40.365  15.096  13.867
67842W        W40267  20.617   1.351   1.803
67843W        W40268  32.106  30.527  12.038
67844W        W40269  33.396  31.403   3.819
67845W        W40270  41.001   4.780  14.990
67846W        W40271  20.147  23.541   3.755
67847W        W40272   1.914  25.195   4.649
67848W        W40273   5.771  22.690  10.991
67849W        W40274   8.773   4.749  14.352
67850W        W40275  41.435  40.987  11.386
67851W        W40276  17.703   8.290  13.973
67852W        W40277  11.194  13.833  12.934
67853W        W40278   8.315  14.752   4.169
67854W        W40279  17.066  28.110  14.354
67855W        W40280  11.162  14.340   0.306
67856W        W40281  24.219  26.493  13.980
67857W        W40282  25.197   9.778   0.337
67858W        W40283  33.426  20.655   2.779
67859W        W40284  13.774   1.862   0.349
67860W        W40285  32.491  14.642   3.702
67861W        W40286  18.552  40.830  11.008
67862W        W40287  35.928  29.495  14.783
67863W        W40288  40.497  40.948  11.534
67864W        W40289  43.364  15.283   3.264
67865W        W40290  42.918  15.587  13.978
67866W        W40291   2.731   5.791  13.413
67867W        W40292  19.227  31.043  12.397
67868W        W40293   3.238  10.163  12.995
67869W        W40294   1.419  28.931  13.034
67870W        W40295   9.297  21.098  14.799
67871W        W40296   7.873  31.576  14.827
67872W        W40297  31.512   9.306  14.418
67873W        W40298   0.923  13.713   3.827
67874W        W40299   6.234  10.216   2.419
67875W        W40300  33.955   4.400   1.343
67876W        W40301   5.770   4.255   3.762
67877W        W40302  41.328  25.605   4.622
67878W        W40303  20.576  24.022  13.011
67879W        W40304  18.720  42.797   0.328
67880W        W40305  29.074  28.494   1.791
67881W        W40306  22.589   2.949  12.074
67882W        W40307  33.016  35.853   1.740
67883W        W40308  32.523  26.488   0.783
67884W        W40309  18.681  24.014   3.352
67885W        W40310  44.481   3.794  10.916
67886W        W40311  25.203  21.166   1.233
67887W        W40312  42.428  34.415   0.451
67888W        W40313  21.254  41.801  12.479
67889W        W40314  33.875  16.172  13.052
67890W        W40315  15.639  44.260  13.443
67891W        W40316  19.086   6.385  12.081
67892W        W40317  33.473  16.689   3.648
67893W        W40318  16.632  28.678  14.849
67894W        W40319  25.643  40.378  13.807
67895W        W40320  26.993  11.328  12.968
67896W        W40321   4.305  23.547  10.901
67897W        W40322  34.087  19.054  12.572
67898W        W40323  40.440  18.066  12.959
67899W        W40324   6.251  32.042   2.359
67900W        W40325  34.084  40.899   2.224
67901W        W40326  35.933  25.482  14.315
67902W        W40327  31.543  39.317  14.857
67903W        W40328   5.436  27.540  10.449
67904W        W40329  34.081  27.138  10.898
67905W        W40330  15.818  13.174   4.288
67906W        W40331  10.160  43.772  13.867
67907W        W40332   7.310  30.576  13.036
67908W        W40333   9.654  43.795   2.383
67909W        W40334  41.496  30.146  12.548
67910W        W40335  30.061   4.775   3.689
67911W        W40336   0.881  37.897  12.536
67912W        W40337  10.847  28.185  13.485
67913W        W40338  17.196   2.865  10.895
67914W        W40339   2.908   8.177  10.630
67915W        W40340   0.494  27.119   2.781
67916W        W40341  25.028  35.006   3.778
67917W        W40342  19.078  19.067  11.457
67918W        W40343  21.589  25.488  14.791
67919W        W40344  16.249   7.738  12.010
67920W        W40345  35.511  26.504  13.045
67921W        W40346  43.353  38.980  12.872
67922W        W40347  44.872  37.841   1.444
67923W        W40348   2.793  37.972   3.189
67924W        W40349  40.913  19.112  14.953
67925W        W40350  15.110  39.935   3.714
67926W        W40351  13.788  16.770  11.059
67927W        W40352  15.818  26.544   0.406
67928W        W40353  10.181  17.068   0.911
67929W        W40354   5.929   4.410   4.116
67930W        W40355  30.497  23.150   9.534
67931W        W40356  42.916  26.183   2.833
67932W        W40357  34.924  28.569  11.858
67933W        W40358  15.100  13.160  13.536
67934W        W40359  20.230  37.563  10.102
67935W        W40360  12.222  25.012  11.107
67936W        W40361  24.604  37.003  14.855
67937W        W40362  35.961   0.303  11.027
67938W        W40363   7.196  26.083   0.302
67939W        W40364  32.902  30.543   2.726
67940W        W40365  35.434   5.259   0.305
67941W        W40366  38.436  37.963   4.259
67942W        W40367  30.141  29.998  12.034
67943W        W40368  38.867  14.231  10.126
67944W        W40369   8.833   2.896   0.961
67945W        W40370  11.139  33.549   4.694
67946W        W40371  13.762  41.925  14.370
67947W        W40372   4.415  30.637  13.799
67948W        W40373  34.437  24.046  13.929
67949W        W40374  29.526   3.788   3.275
67950W        W40375  10.348  24.698  10.932
67951W        W40376  16.588  19.131   3.795
67952W        W40377  12.677  33.888   1.823
67953W        W40378  15.601  18.177   2.202
67954W        W40379  35.526  15.178   4.829
67955W        W40380  17.675  39.903   2.678
67956W        W40381  28.644  30.614   0.817
67957W        W40382   6.791  43.012   0.912
67958W        W40383  10.186  19.692   1.710
67959W        W40384   9.831  29.118  12.449
67960W        W40385  12.805   7.849   1.748
67961W        W40386  28.484  13.183  11.992
67962W        W40387   1.830  32.517  14.987
67963W        W40388   3.851  26.010  13.845
67964W        W40389  16.265   8.242  11.926
67965W        W40390  38.959  25.586   3.279
67966W        W40391  25.962  22.113  14.428
67967W        W40392  26.698   9.195  12.555
67968W        W40393  14.112  27.516   0.826
67969W        W40394  33.878  32.953  14.764
67970W        W40395  36.065  35.528  11.422
67971W        W40396  12.179  27.678  12.347
67972W        W40397  19.166  22.052  13.337
67973W        W40398  43.854  11.865   3.743
67974W        W40399   0.746   7.872   0.372
67975W        W40400  10.164  25.585   4.726
67976W        W40401  22.176  27.173   1.433
67977W        W40402  31.441  34.939   0.764
67978W        W40403  15.102  18.193  13.808
67979W        W40404  26.994   6.254   2.192
67980W        W40405  20.197  32.102  14.782
67981W        W40406  21.070  40.931  10.556
67982W        W40407   3.746  39.447  14.872
67983W        W40408   6.306  44.411  12.429
67984W        W40409  36.997  34.872   1.879
67985W        W40410  28.987  41.480   1.752
67986W        W40411   3.357  38.823  13.959
67987W        W40412  26.086  30.961  13.831
67988W        W40413  12.350  16.661  14.850
67989W        W40414  15.132   2.816   3.751
67990W        W40415  41.858  10.690   4.207
67991W        W40416  38.984  25.184   0.941
67992W        W40417  17.192   0.761  12.890
67993W        W40418  23.676  20.032  13.834
67994W        W40419  20.577  17.072   1.868
67995W        W40420  23.703  13.679   3.233
67996W        W40421  38.878  17.638   3.174
67997W        W40422  29.951   2.866  14.819
67998W        W40423  16.739  40.980  12.035
67999W        W40424  14.669   6.229   1.868
68000W        W40425  10.775   6.867   0.407
68001W        W40426  10.232  11.865  10.625
68002W        W40427   4.710  41.417  11.063
68003W        W40428  44.392   6.234  13.054
68004W        W40429  12.315   0.773  14.303
68005W        W40430  10.177  19.705  14.375
68006W        W40431  40.539  18.184   3.658
68007W        W40432  16.741   0.328  14.431
68008W        W40433  35.366   8.712   4.601
68009W        W40434   5.298  28.566   2.268
68010W        W40435  23.582  35.857   3.294
68011W        W40436  10.708  23.136   2.284
68012W        W40437  29.952   8.295   4.175
68013W        W40438  18.163  15.680  10.591
68014W        W40439  23.510  38.410   3.280
68015W        W40440  44.834  29.481  11.903
68016W        W40441  12.698  35.963   1.848
68017W        W40442  19.643  34.516   0.918
68018W        W40443  27.639  40.823  14.952
68019W        W40444   7.262  42.304   4.254
68020W        W40445  42.857   0.466  14.770
68021W        W40446  18.054  44.458   2.227
68022W        W40447  13.231  16.611  11.047
68023W        W40448  40.524  28.013   4.676
68024W        W40449   0.473  35.555  10.960
68025W        W40450  33.928  22.153   0.763
68026W        W40451  17.666   8.334  14.398
68027W        W40452  24.557  14.759  10.520
68028W        W40453   6.245   3.286   2.748
68029W        W40454  42.301   5.312   1.313
68030W        W40455  25.656   7.330   3.284
68031W        W40456  13.800  23.106   2.704
68032W        W40457  20.768   2.915  10.407
68033W        W40458   5.765  11.266   2.879
68034W        W40459  32.969  24.051  11.604
68035W        W40460   5.733  13.283   3.790
68036W        W40461  32.624  34.916   2.719
68037W        W40462  20.754   8.271   3.317
68038W        W40463  18.702  29.498   3.732
68039W        W40464  38.506  15.280  11.029
68040W        W40465   6.239  40.464   4.692
68041W        W40466  29.939  33.063  11.602
68042W        W40467  44.795   9.779   2.670
68043W        W40468  26.085   0.334  14.882
68044W        W40469  17.165  17.206   5.270
68045W        W40470  19.254   8.251   4.812
68046W        W40471  21.144  10.173  13.019
68047W        W40472  26.182   1.877  12.096
68048W        W40473  27.512  24.080   1.286
68049W        W40474  23.495  36.985  13.912
68050W        W40475  21.051   1.328   4.778
68051W        W40476  24.140   2.778  12.046
68052W        W40477  10.234   3.370  12.341
68053W        W40478  21.236  18.586  11.534
68054W        W40479  34.956  44.892   3.202
68055W        W40480   9.290  29.918  10.966
68056W        W40481  15.660  11.663  11.026
68057W        W40482  32.946  31.616  12.961
68058W        W40483  14.248  17.782  13.449
68059W        W40484  35.565  29.508   3.702
68060W        W40485  33.939  12.661   1.430
68061W        W40486   1.426  19.180   4.632
68062W        W40487  10.258  39.884   4.330
68063W        W40488  23.187  34.100  11.387
68064W        W40489  23.629  20.536   2.276
68065W        W40490  14.326  40.946   0.803
68066W        W40491  22.129   5.363   2.407
68067W        W40492  29.612  37.832  11.526
68068W        W40493  40.963  15.149  11.481
68069W        W40494  40.032  17.099   3.763
68070W        W40495  39.330  23.496   0.291
68071W        W40496  35.916  27.950  13.969
68072W        W40497  18.060  24.050  14.369
68073W        W40498  39.459  31.960   2.747
68074W        W40499  25.194  24.977   4.771
68075W        W40500  44.839  16.241  11.399
68076W        W40501  29.985  35.359   4.685
68077W        W40502  14.629  15.164  10.451
68078W        W40503  34.479  40.977   4.804
68079W        W40504  35.992  43.014  10.635
68080W        W40505  31.000   5.720  11.574
68081W        W40506  40.854  37.432  10.617
68082W        W40507  29.096  33.115  12.072
68083W        W40508  29.966  44.946   1.815
68084W        W40509   1.237   2.245   3.849
68085W        W40510  23.172   0.316   1.306
68086W        W40511  25.135  23.224  14.845
68087W        W40512  44.972  43.495   1.886
68088W        W40513   0.814  13.787   3.164
68089W        W40514  36.008  37.075  14.473
68090W        W40515  41.892  34.092  14.929
68091W        W40516  22.550  34.414   4.752
68092W        W40517  33.088  18.763  12.892
68093W        W40518  27.032  39.951  12.404
68094W        W40519  43.895  31.645  14.833
68095W        W40520  26.054  17.693  14.915
68096W        W40521  40.424  42.301   1.412
68097W        W40522   8.857   9.390   4.235
68098W        W40523  28.065  28.026   1.357
68099W        W40524  39.935   6.293   1.287
68100W        W40525  39.389   7.782   1.304
68101W        W40526  16.263   3.282   3.300
68102W        W40527  32.016   4.225  13.905
68103W        W40528  32.915  33.113   3.385
68104W        W40529  34.482  35.565  10.446
68105W        W40530   3.458  19.047   4.306
68106W        W40531  15.145   4.279   3.216
68107W        W40532  16.796   3.866   1.746
68108W        W40533  19.686  19.721  11.110
68109W        W40534  41.809  32.551  11.571
68110W        W40535  14.726   7.761  12.548
68111W        W40536  21.551  11.240   0.823
68112W        W40537  23.506  33.941   2.253
68113W        W40538  34.581   6.804  11.060
68114W        W40539   2.287  10.379   0.899
68115W        W40540  40.533   5.809   3.631
68116W        W40541  31.617   3.784   1.803
68117W        W40542  35.951  36.461  12.542
68118W        W40543  32.885  19.207   2.321
68119W        W40544  31.534  17.714   3.712
68120W        W40545   3.826  39.439  12.376
68121W        W40546  37.903  31.972  12.493
68122W        W40547  23.732  20.192   4.815
68123W        W40548  41.019   1.794   0.952
68124W        W40549  12.857  29.658  10.515
68125W        W40550  12.281   6.758  12.849
68126W        W40551  38.377  23.702  13.015
68127W        W40552  41.403  41.024   0.385
68128W        W40553  13.318  33.088  12.950
68129W        W40554  23.644  16.123   2.764
68130W        W40555  35.099  33.444   2.305
68131W        W40556   3.272  22.581  11.445
68132W        W40557  37.495   2.309  14.780
68133W        W40558  24.696  14.668   2.259
68134W        W40559  23.090  35.099   2.200
68135W        W40560  34.932  10.692   4.325
68136W        W40561  42.944   9.369  12.958
68137W        W40562   4.785  11.360  12.430
68138W        W40563  26.172  41.308   2.290
68139W        W40564  10.773  22.722   4.207
68140W        W40565  44.483  42.816   2.844
68141W        W40566   2.895  35.889   3.735
68142W        W40567  42.438  29.140   4.758
68143W        W40568  25.639  21.564   4.679
68144W        W40569  43.821   1.454   2.392
68145W        W40570  42.030   9.868   4.670
68146W        W40571  29.589  28.653  13.896
68147W        W40572  20.266  23.069   2.891
68148W        W40573  35.390  17.597  11.120
68149W        W40574  39.946  12.155  12.903
68150W        W40575  34.865   1.803  12.923
68151W        W40576   8.820   8.817   0.303
68152W        W40577  31.100  34.369   3.238
68153W        W40578  26.582  44.466  14.975
68154W        W40579  12.822   1.854   3.735
68155W        W40580   3.732   4.708  10.017
68156W        W40581  44.263  36.476   3.647
68157W        W40582   5.843  10.695   2.774
68158W        W40583  44.283  21.641   2.385
68159W        W40584   3.880  24.121  14.764
68160W        W40585   9.859  38.050   4.256
68161W        W40586  29.472  18.089  14.346
68162W        W40587  28.078  32.587   1.332
68163W        W40588  17.760   3.895   2.874
68164W        W40589  41.918  31.937   0.943
68165W        W40590  37.042  40.027  11.432
68166W        W40591  44.976  34.559   5.269
68167W        W40592  38.537  18.720  11.394
68168W        W40593  32.917  17.725   1.299
68169W        W40594  19.058  27.659  10.574
68170W        W40595   2.257  22.071  14.018
68171W        W40596  43.291  44.904  10.986
68172W        W40597   4.258  13.106  14.471
68173W        W40598  28.054  19.656   3.859
68174W        W40599  37.905   3.357   1.334
68175W        W40600  37.390  19.621  12.064
68176W        W40601  20.709  11.783   1.834
68177W        W40602  37.075   5.756  13.460
68178W        W40603  33.969  19.601  11.945
68179W        W40604  41.360   3.896  12.089
68180W        W40605  35.414  23.610  12.095
68181W        W40606  12.851  42.415  12.987
68182W        W40607  27.496   5.706   2.410
68183W        W40608   9.736  23.007  11.073
68184W        W40609  14.795  34.051   5.181
68185W        W40610  30.093  43.847  12.553
68186W        W40611  16.241  28.065   0.743
68187W        W40612  27.033  38.559   2.387
68188W        W40613  21.219  21.587   1.398
68189W        W40614  11.710   3.387  11.041
68190W        W40615  18.251   5.757   1.730
68191W        W40616  24.532  27.980  10.465
68192W        W40617  16.802  41.439   3.646
68193W        W40618   2.811  36.496   0.252
68194W        W40619  25.079   8.662  14.335
68195W        W40620  42.470  37.868   0.968
68196W        W40621   8.858   3.944  11.392
68197W        W40622  12.830  40.001   1.267
68198W        W40623  18.780  24.111   1.920
68199W        W40624  42.989  15.318  12.578
68200W        W40625  37.467  29.995  13.861
68201W        W40626  17.104  22.625   2.332
68202W        W40627   8.189  31.024  12.339
68203W        W40628   5.422  18.099   2.704
68204W        W40629  31.137  34.094   3.782
68205W        W40630  18.697  31.536   4.255
68206W        W40631  18.598  40.509  13.370
68207W        W40632  22.143  43.803  11.598
68208W        W40633  12.258  15.651  14.496
68209W        W40634  33.036  37.501  10.623
68210W        W40635  15.173   4.716  14.425
68211W        W40636  24.083  15.727  14.365
68212W        W40637  44.890  24.592   3.328
68213W        W40638  25.632  33.968   0.363
68214W        W40639  41.948  33.947  11.861
68215W        W40640  20.154  31.937  12.446
68216W        W40641  25.667  11.303  14.992
68217W        W40642  23.200   7.901   4.652
68218W        W40643  11.858  25.494   3.309
68219W        W40644  22.995  28.118  11.052
68220W        W40645  20.106  37.970   4.146
68221W        W40646   8.168   1.858  14.296
68222W        W40647  10.332  42.987  13.408
68223W        W40648  43.884   0.286   1.703
68224W        W40649  36.445  24.602   4.796
68225W        W40650  13.227  12.226  10.404
68226W        W40651  28.563  17.681  13.394
68227W        W40652  35.893   2.819  12.576
68228W        W40653   9.725  18.777   3.195
68229W        W40654  13.198  43.917  14.463
68230W        W40655   2.392  33.108  11.024
68231W        W40656   7.668  14.194  12.854
68232W        W40657  17.182   9.232  11.105
68233W        W40658  29.049  29.034  10.605
68234W        W40659  33.431  35.560  12.527
68235W        W40660  31.412  16.154   1.820
68236W        W40661  44.469  43.353  11.920
68237W        W40662  37.539  19.651   4.121
68238W        W40663  11.670  26.078   4.334
68239W        W40664  43.994  13.106   0.424
68240W        W40665  20.203   9.858  13.319
68241W        W40666  15.744   0.268  10.538
68242W        W40667  41.882  34.610   0.253
68243W        W40668   8.874  31.567   3.863
68244W        W40669  22.088  17.113  11.032
68245W        W40670  28.539  43.978   4.642
68246W        W40671  40.353  22.634   5.281
68247W        W40672  26.601  24.628  12.527
68248W        W40673  27.997  43.781  11.997
68249W        W40674  37.868  33.385  12.036
68250W        W40675  31.066   1.793  14.023
68251W        W40676  13.296   5.306  13.359
68252W        W40677  29.088  13.226  10.416
68253W        W40678  43.903   8.659   3.722
68254W        W40679  26.576  38.867  11.510
68255W        W40680  43.813   0.315   1.270
68256W        W40681  15.188  14.229  13.969
68257W        W40682   8.360  39.818   0.364
68258W        W40683  23.573  32.542   1.829
68259W        W40684  20.570  29.017  11.881
68260W        W40685   1.416  36.967  12.564
68261W        W40686  41.816  41.982  14.471
68262W        W40687  24.987  18.776   4.113
68263W        W40688  14.202  36.386  11.509
68264W        W40689   8.884  33.910  14.782
68265W        W40690   5.352   4.871   3.776
68266W        W40691   7.382  31.107  10.413
68267W        W40692  22.107   6.212  14.961
68268W        W40693  39.560   6.914  10.961
68269W        W40694  11.237  34.039  12.966
68270W        W40695  30.926  20.636  14.899
68271W        W40696  22.230  11.817   5.720
68272W        W40697  16.274  44.465  12.849
68273W        W40698  28.613  20.087  13.447
68274W        W40699  25.041  20.565   2.277
68275W        W40700  35.985  28.999   3.363
68276W        W40701  40.544  29.108   0.290
68277W        W40702  44.802   7.692   1.913
68278W        W40703  31.627   0.451  10.617
68279W        W40704  26.187  14.771  12.015
68280W        W40705  15.246   5.732   0.768
68281W        W40706  31.545  19.174   0.869
68282W        W40707  27.018  10.261   2.858
68283W        W40708  32.450  43.288  10.901
68284W        W40709  40.960  17.745   3.802
68285W        W40710  37.981   8.218   1.741
68286W        W40711  10.844  19.707   2.819
68287W        W40712  35.392  18.699  14.912
68288W        W40713  12.689  30.053  10.431
68289W        W40714  15.231  12.827  10.406
68290W        W40715  19.259  40.310  12.913
68291W        W40716  18.568  14.300  12.024
68292W        W40717  15.705  35.403   1.264
68293W        W40718  31.505  15.720  11.904
68294W        W40719  12.689  25.493   9.510
68295W        W40720  18.154   9.707   0.294
68296W        W40721  31.447  31.613   0.271
68297W        W40722  43.797  16.141   2.866
68298W        W40723   1.320  24.029   3.717
68299W        W40724  41.378  28.095  12.361
68300W        W40725  16.695  26.057   0.249
68301W        W40726  37.834   0.489  13.958
68302W        W40727  34.506  41.812  13.014
68303W        W40728  34.550  13.834   3.633
68304W        W40729  19.069  36.990   3.246
68305W        W40730  27.976  10.264   3.791
68306W        W40731  27.674   3.375   3.165
68307W        W40732  36.851   9.238  14.014
68308W        W40733  17.211  19.604  12.971
68309W        W40734   2.943  41.983  10.599
68310W        W40735  28.467  26.511   1.851
68311W        W40736   8.874  13.649  14.336
68312W        W40737  16.575  24.539  10.917
68313W        W40738   3.320  35.459  11.950
68314W        W40739  40.354  40.473   4.302
68315W        W40740  13.142  37.027  12.074
68316W        W40741  20.560  23.160  11.586
68317W        W40742  18.050  13.280  14.856
68318W        W40743  11.839  38.526   3.153
68319W        W40744  20.553  39.930   1.284
68320W        W40745  38.453   4.776   2.789
68321W        W40746  35.466  12.753  14.015
68322W        W40747  22.030   1.466   3.752
68323W        W40748  17.175  15.159   3.331
68324W        W40749  36.971  12.648   0.459
68325W        W40750   1.873  23.075  14.847
68326W        W40751   2.371  26.487   0.257
68327W        W40752  16.286  14.596   1.402
68328W        W40753   9.850  20.266   3.817
68329W        W40754  18.245  37.832  13.325
68330W        W40755  25.608   0.766   4.299
68331W        W40756  27.541  27.162  11.549
68332W        W40757   5.405  13.763  10.415
68333W        W40758   7.824  28.980   4.802
68334W        W40759  15.277  14.193   4.218
68335W        W40760  25.482  37.456  13.426
68336W        W40761  16.587  21.224   3.383
68337W        W40762  19.629  20.736  12.079
68338W        W40763  42.916   7.323  10.463
68339W        W40764  26.567  38.035   4.273
68340W        W40765  12.207  36.930   4.751
68341W        W40766  16.660   4.882  14.903
68342W        W40767  39.442  17.676   0.427
68343W        W40768  33.098  30.516   2.273
68344W        W40769  42.886  23.217  14.381
68345W        W40770   9.260   1.383   4.833
68346W        W40771   2.941  44.850  13.459
68347W        W40772  21.722  30.943  12.913
68348W        W40773  19.248   0.791  12.475
68349W        W40774  36.068   3.813   2.867
68350W        W40775  20.525  39.540  13.422
68351W        W40776  38.857  40.463  12.917
68352W        W40777   6.214  14.627   4.118
68353W        W40778  16.257  19.584  13.446
68354W        W40779  32.427  32.122   0.369
68355W        W40780  15.762   7.410  11.376
68356W        W40781  29.476  12.628  14.350
68357W        W40782   6.774  36.578   3.212
68358W        W40783  24.608  24.180   0.904
68359W        W40784  12.276   1.943   3.315
68360W        W40785  26.667  23.989   4.638
68361W        W40786  38.893  12.712   2.681
68362W        W40787  29.611  44.390   3.272
68363W        W40788  19.170  22.039   0.952
68364W        W40789  26.023  35.029  12.889
68365W        W40790  33.969  42.473  11.991
68366W        W40791   9.693  19.701   4.190
68367W        W40792  22.580   0.879  14.022
68368W        W40793  22.081  10.687   4.645
68369W        W40794   2.734  15.716   3.177
68370W        W40795  26.165   8.738  10.621
68371W        W40796  18.085   5.859   2.796
68372W        W40797  30.143  17.627  11.486
68373W        W40798  20.525   4.879  13.936
68374W        W40799  34.561  20.700  13.402
68375W        W40800  29.502  10.164   1.432
68376W        W40801  36.000  38.029   2.673
68377W        W40802  39.861   4.239   2.860
68378W        W40803   3.442   0.807   0.727
68379W        W40804  18.667  23.092  10.606
68380W        W40805  22.093  15.766  10.630
68381W        W40806  44.866  31.589   1.439
68382W        W40807   1.857  20.056   2.788
68383W        W40808  10.266  14.698   4.737
68384W        W40809   0.282  41.887  13.369
68385W        W40810  27.615  22.083  13.830
68386W        W40811  22.155  23.123   4.344
68387W        W40812  11.866  22.625   3.178
68388W        W40813  17.266  37.033  10.431
68389W        W40814  32.498  36.583   3.735
68390W        W40815  21.230   0.447   0.436
68391W        W40816   4.374  25.067  14.305
68392W        W40817   6.379   4.890   3.838
68393W        W40818  22.512  44.385  12.501
68394W        W40819  44.865   8.365  10.631
68395W        W40820  41.984   0.754  13.481
68396W        W40821  42.300  40.009  11.405
68397W        W40822   9.848  21.100  14.446
68398W        W40823  25.158   2.308  10.989
68399W        W40824  17.208  23.991  13.831
68400W        W40825  30.995  31.403   2.806
68401W        W40826  23.164  30.943   2.397
68402W        W40827  42.917  31.491  12.403
68403W        W40828  38.352   5.931   0.819
68404W        W40829   4.945  37.950   1.726
68405W        W40830  42.970   3.228   1.429
68406W        W40831   0.379  43.425   4.128
68407W        W40832   2.335  29.097  12.091
68408W        W40833   4.444  31.981  13.018
68409W        W40834   6.270  23.203  13.953
68410W        W40835  19.690   4.907  10.643
68411W        W40836  24.056  41.859   2.252
68412W        W40837   9.354  40.999  10.511
68413W        W40838  11.682  10.249  14.495
68414W        W40839  30.527  40.870  13.018
68415W        W40840  40.308  44.877   4.173
68416W        W40841   9.742  26.542  10.458
68417W        W40842  39.966  29.924   0.792
68418W        W40843  29.459  25.145  12.993
68419W        W40844  43.411  12.763   2.298
68420W        W40845   7.373   4.211  14.276
68421W        W40846  32.956  44.774   2.296
68422W        W40847   1.864  43.418  10.597
68423W        W40848  35.053  23.201   0.276
68424W        W40849  11.804   1.400  12.460
68425W        W40850  12.348  40.412   1.756
68426W        W40851  36.069  25.143  10.422
68427W        W40852  21.648   8.884   0.426
68428W        W40853  38.902   3.252  12.895
68429W        W40854  20.213   8.348  13.051
68430W        W40855   7.232  17.688  14.823
68431W        W40856  31.075  22.138   2.776
68432W        W40857  24.976   8.846   0.816
68433W        W40858  38.873  15.262  12.455
68434W        W40859  38.457  13.601  12.843
68435W        W40860  41.972   7.726   4.797
68436W        W40861  14.123   0.332  12.506
68437W        W40862  30.014  25.096  11.990
68438W        W40863  11.697  21.683  10.057
68439W        W40864  43.270  12.855  10.956
68440W        W40865  12.807   4.809  10.137
68441W        W40866   8.692  27.182  14.339
68442W        W40867   7.905  25.143  12.995
68443W        W40868  36.587   5.820  10.996
68444W        W40869  23.234  32.942  11.436
68445W        W40870  15.677  30.160  13.792
68446W        W40871  16.102  20.081   2.726
68447W        W40872  32.083  17.603   1.214
68448W        W40873  20.598  12.646  12.413
68449W        W40874   7.313  36.989   1.840
68450W        W40875  16.129  21.512   2.375
68451W        W40876  38.429  26.954  11.546
68452W        W40877   7.842   2.917   3.213
68453W        W40878  17.117  33.957   3.639
68454W        W40879  19.220  14.209  11.385
68455W        W40880  29.100  12.616  12.550
68456W        W40881  37.867  26.482   0.877
68457W        W40882  14.321   6.256  12.452
68458W        W40883  14.678  37.958   4.225
68459W        W40884  44.864  22.201  11.475
68460W        W40885  17.582  25.631   2.844
68461W        W40886  18.202  12.669   2.238
68462W        W40887  17.590   5.407   1.230
68463W        W40888  42.947  43.835  14.335
68464W        W40889  44.965  30.464   3.636
68465W        W40890   6.801  10.865  10.439
68466W        W40891  13.329  21.756  14.316
68467W        W40892  38.870   1.806   3.323
68468W        W40893  16.802   8.654   3.713
68469W        W40894  39.948   9.199   2.191
68470W        W40895  16.310   0.390   4.608
68471W        W40896  31.048  32.505  12.931
68472W        W40897   2.448   6.308  13.511
68473W        W40898  27.174  21.179   1.738
68474W        W40899  24.178   9.841  12.039
68475W        W40900  25.140   2.818  13.533
68476W        W40901   3.395  37.071   3.195
68477W        W40902   5.296   0.849  13.854
68478W        W40903   4.866  22.147  12.982
68479W        W40904  42.959  15.142   4.624
68480W        W40905   4.850  38.033   1.393
68481W        W40906  31.632  32.124  11.103
68482W        W40907  42.377   4.941   0.885
68483W        W40908  37.428  24.097   5.133
68484W        W40909   1.753  19.269   2.414
68485W        W40910  44.425  14.135  10.637
68486W        W40911  40.800  44.866   0.383
68487W        W40912  20.652   2.238   0.851
68488W        W40913  30.037   9.738  12.896
68489W        W40914   7.904  16.188  11.558
68490W        W40915  16.619  16.170   2.771
68491W        W40916  10.650  23.717  13.373
68492W        W40917  25.679  35.010  13.886
68493W        W40918  27.174  28.599   4.753
68494W        W40919  22.658  33.545  11.890
68495W        W40920  19.753  35.885  13.525
68496W        W40921  23.200  15.820   2.833
68497W        W40922  32.545  23.499  14.434
68498W        W40923  32.619  11.675   2.396
68499W        W40924  23.092  24.541   3.240
68500W        W40925   7.761  39.941  10.984
68501W        W40926   2.721  39.059   2.727
68502W        W40927   4.278  18.191   2.419
68503W        W40928  31.041   3.389  11.095
68504W        W40929  25.046  34.447  12.468
68505W        W40930  36.933   4.761  14.848
68506W        W40931   9.738  10.275   1.372
68507W        W40932  28.647  32.612   0.317
68508W        W40933   7.672  26.112   4.173
68509W        W40934  26.537  41.374   2.849
68510W        W40935  11.227  14.199  14.869
68511W        W40936  17.748  17.185   0.362
68512W        W40937  16.245  18.290  11.080
68513W        W40938  15.790  36.365   4.789
68514W        W40939  38.828   1.779   9.996
68515W        W40940  17.652  32.117  12.030
68516W        W40941  40.877  21.594   3.815
68517W        W40942  10.277  23.562  12.066
68518W        W40943  30.613   0.459   0.814
68519W        W40944   5.308  14.667   0.827
68520W        W40945   6.382  30.007   0.365
68521W        W40946  31.928  13.723  13.898
68522W        W40947   4.328   3.722  12.949
68523W        W40948  44.323  42.349  14.781
68524W        W40949  20.562  16.621   4.791
68525W        W40950   6.903  17.266  13.856
68526W        W40951   3.931   5.820  13.452
68527W        W40952  21.211  42.302   2.774
68528W        W40953  32.085   2.851  12.487
68529W        W40954  15.287  25.622   1.415
68530W        W40955  17.137  37.904   0.800
68531W        W40956  30.592  21.591   1.446
68532W        W40957  15.230   6.350  12.856
68533W        W40958  36.507   8.278  12.843
68534W        W40959  38.943   9.871   1.705
68535W        W40960  21.229  15.796   0.754
68536W        W40961  27.172  13.299  13.813
68537W        W40962  13.290   9.237   2.247
68538W        W40963  42.981   7.174  14.349
68539W        W40964  14.096   0.261  11.119
68540W        W40965  35.972  31.914   1.744
68541W        W40966  12.272  26.029   2.780
68542W        W40967  19.165  39.830   2.682
68543W        W40968  14.202  21.114  11.029
68544W        W40969  18.140   2.791   3.743
68545W        W40970  35.997   8.782   4.674
68546W        W40971  42.493   2.837  11.053
68547W        W40972  19.158  10.186  13.331
68548W        W40973  18.625  31.034  13.842
68549W        W40974  34.037  20.035  13.320
68550W        W40975  40.012  23.124  14.316
68551W        W40976  24.631  42.334  11.912
68552W        W40977  25.136   2.458  12.358
68553W        W40978  31.098   5.736   3.387
68554W        W40979  43.991  16.159  13.487
68555W        W40980  14.278  31.040  12.092
68556W        W40981  35.474  19.255   3.149
68557W        W40982  13.295  33.518   0.448
68558W        W40983  38.882   3.284  13.414
68559W        W40984  23.056  21.090  12.012
68560W        W40985   2.356  13.152  11.607
68561W        W40986  11.287  10.762  14.503
68562W        W40987  27.062  39.999   3.784
68563W        W40988  41.840  23.659  12.036
68564W        W40989  27.068  38.449  10.954
68565W        W40990  19.611   9.797  10.995
68566W        W40991  20.542  39.379   0.787
68567W        W40992  15.760  10.218   2.870
68568W        W40993  10.686  35.929   1.752
68569W        W40994  32.417  22.190  12.360
68570W        W40995  17.661  34.446   4.210
68571W        W40996  17.219  13.280  10.953
68572W        W40997   7.794  40.990  14.447
68573W        W40998  40.996  32.024   4.661
68574W        W40999  19.242   3.876  10.567
68575W        W41000  28.946  23.558  12.416
68576W        W41001   4.206  25.967  11.104
68577W        W41002  40.357  15.155   4.238
68578W        W41003  34.097  37.554   2.348
68579W        W41004  18.057  41.445  10.958
68580W        W41005  12.821  32.948   4.151
68581W        W41006  21.173  12.185  14.794
68582W        W41007   5.920   0.795   4.306
68583W        W41008  34.973  27.622  14.298
68584W        W41009  17.748  39.497   3.347
68585W        W41010  20.548   9.866   3.832
68586W        W41011  28.633   1.391  13.034
68587W        W41012   3.914   2.423   4.602
68588W        W41013  32.411  39.316   2.398
68589W        W41014  43.875  14.703  14.471
68590W        W41015  13.610  30.043  10.466
68591W        W41016  38.983  27.031   4.786
68592W        W41017   9.837  31.989   3.671
68593W        W41018   2.721  35.384  12.531
68594W        W41019  30.527  14.239   4.675
68595W        W41020  27.460  26.043   2.837
68596W        W41021  42.516  30.117   4.351
68597W        W41022  44.999  36.942   0.817
68598W        W41023  24.528  24.715  13.520
68599W        W41024  33.017  29.614   4.688
68600W        W41025  42.849  14.172   2.718
68601W        W41026  42.374  33.933  13.525
68602W        W41027  12.338   5.780  11.072
68603W        W41028  29.135  13.714   4.332
68604W        W41029  42.001  23.544   4.226
68605W        W41030   1.370  14.152   1.376
68606W        W41031  41.026  20.120   4.605
68607W        W41032   7.414  19.695  12.090
68608W        W41033  38.886   8.401   4.341
68609W        W41034  21.190  26.591  10.971
68610W        W41035  19.622  10.185  13.426
68611W        W41036  21.588  24.515   4.830
68612W        W41037  44.492  41.292   0.421
68613W        W41038  41.509   5.856   3.251
68614W        W41039  14.293  36.083  12.459
68615W        W41040   5.882   6.826   0.477
68616W        W41041   7.228  20.085  10.608
68617W        W41042   6.873  34.441   0.793
68618W        W41043   8.758  23.226   0.467
68619W        W41044  18.105   2.918   0.788
68620W        W41045  30.420  42.337  13.973
68621W        W41046  10.866  26.033   2.397
68622W        W41047  37.978   3.267   4.329
68623W        W41048   8.753  35.065   3.344
68624W        W41049  39.503  37.525   0.920
68625W        W41050  15.322  24.580   1.853
68626W        W41051   4.909  37.950   2.220
68627W        W41052   2.865   9.877  13.792
68628W        W41053  30.463  19.055   0.939
68629W        W41054   6.752  34.965  14.985
68630W        W41055   6.894   8.837  10.931
68631W        W41056  28.569  31.479  10.469
68632W        W41057   1.751  19.568  12.919
68633W        W41058  17.151   2.813   4.644
68634W        W41059   4.230  44.821  11.579
68635W        W41060  38.075  10.806   4.725
68636W        W41061  40.442  39.423   1.749
68637W        W41062  26.125  35.042   1.278
68638W        W41063  24.529  40.326  13.416
68639W        W41064  19.221   4.347  12.920
68640W        W41065   3.814  30.595   3.239
68641W        W41066  20.170  25.643  13.895
68642W        W41067  37.832  40.493  14.935
68643W        W41068  21.550  18.262   5.221
68644W        W41069  41.424   4.915  11.425
68645W        W41070  13.240  11.697   0.893
68646W        W41071  12.353  23.645   0.315
68647W        W41072  25.505  19.706  13.545
68648W        W41073  32.888  16.317   0.477
68649W        W41074   8.342  25.644   0.739
68650W        W41075   0.939  37.079   4.700
68651W        W41076  16.292  40.386  10.069
68652W        W41077  23.142  28.998   1.375
68653W        W41078  40.462  22.609  11.407
68654W        W41079  20.118   8.669  14.368
68655W        W41080  23.719  29.030   4.725
68656W        W41081  33.420   2.824  13.932
68657W        W41082  32.399   1.866   3.774
68658W        W41083  27.567  11.252   2.279
68659W        W41084  13.607  11.238  10.956
68660W        W41085  11.740   5.739  10.560
68661W        W41086  18.544  20.635   2.880
68662W        W41087  32.090  38.069  10.424
68663W        W41088  27.000  33.475  10.907
68664W        W41089   4.817  30.550   1.231
68665W        W41090   2.892   5.432  13.965
68666W        W41091  10.685   4.713  10.461
68667W        W41092   5.332  39.391   1.886
68668W        W41093   8.349  28.176   2.693
68669W        W41094   0.295  22.585  14.774
68670W        W41095   9.678  30.562  11.492
68671W        W41096  25.568   9.159  11.481
68672W        W41097   0.953   2.434   0.956
68673W        W41098   7.712  12.809   4.758
68674W        W41099  10.285   9.222   0.920
68675W        W41100  21.562   3.738  13.397
68676W        W41101  41.969   5.240   1.917
68677W        W41102  35.419  18.594  10.525
68678W        W41103  27.561   2.839  12.978
68679W        W41104   4.287  26.075  10.537
68680W        W41105  27.182  30.620   1.379
68681W        W41106  24.535  26.539   4.726
68682W        W41107  42.452  23.527   3.188
68683W        W41108  34.515  19.069   4.139
68684W        W41109   4.939  31.496   9.978
68685W        W41110   7.882  31.453   4.293
68686W        W41111  25.490  36.554  14.334
68687W        W41112  29.135   3.955   1.766
68688W        W41113  40.480   2.422  12.951
68689W        W41114  35.453  41.358   1.248
68690W        W41115  38.464  19.608   0.815
68691W        W41116   3.364   7.894   0.887
68692W        W41117  34.475  13.665  14.414
68693W        W41118   4.410  29.521   1.702
68694W        W41119  21.551  27.964   3.273
68695W        W41120  36.568  22.171  10.637
68696W        W41121  18.673  19.188   0.822
68697W        W41122  22.128  29.433   1.801
68698W        W41123  24.009  11.778   3.670
68699W        W41124  33.976  38.550  14.923
68700W        W41125  17.225  37.057  14.996
68701W        W41126  33.445  41.969   4.116
68702W        W41127   4.737  17.294   2.209
68703W        W41128  20.227   5.881   4.820
68704W        W41129  26.695  21.065   2.775
68705W        W41130  14.108   2.942  11.010
68706W        W41131  26.092  23.153   0.394
68707W        W41132   6.813  43.928   4.300
68708W        W41133  33.480  33.613   4.674
68709W        W41134  14.710  24.102   1.410
68710W        W41135  18.716  21.209  12.986
68711W        W41136  21.174  12.203   9.451
68712W        W41137  17.111  34.896  14.997
68713W        W41138  33.513  28.105   0.931
68714W        W41139  14.237  36.573   2.396
68715W        W41140  26.092  41.030   0.359
68716W        W41141  22.174  30.625   3.739
68717W        W41142   3.826  25.058  13.332
68718W        W41143  33.938  26.538   1.231
68719W        W41144  27.095  20.571  10.609
68720W        W41145  41.501  36.915  12.964
68721W        W41146  28.615  39.829   4.709
68722W        W41147  12.613  27.078  13.417
68723W        W41148  16.233  12.192   1.934
68724W        W41149   1.783  30.640  12.081
68725W        W41150  30.114   6.352  12.893
68726W        W41151  32.534   1.241   4.216
68727W        W41152  10.316   4.757   4.240
68728W        W41153  36.934   6.797  12.410
68729W        W41154  43.359  29.019   2.778
68730W        W41155  14.192  44.358  10.608
68731W        W41156   4.705  35.491  11.523
68732W        W41157  41.422   6.331  11.452
68733W        W41158  25.194  28.540   1.894
68734W        W41159   6.266  43.350  12.537
68735W        W41160  14.779  31.130   0.867
68736W        W41161  34.033  32.932  13.792
68737W        W41162  26.050   2.919  12.080
68738W        W41163  32.048   1.922  12.561
68739W        W41164  23.207  38.821  12.950
68740W        W41165  13.709  24.541  13.322
68741W        W41166   1.771  43.878  10.955
68742W        W41167   2.283  19.105   4.295
68743W        W41168   5.802  39.035  11.892
68744W        W41169   7.778  29.596  14.298
68745W        W41170   6.193  41.349   2.209
68746W        W41171  17.597   2.950   0.792
68747W        W41172  38.852  29.435  14.983
68748W        W41173   3.761  34.007  14.275
68749W        W41174  13.804  28.436  14.897
68750W        W41175  43.502  20.215   5.165
68751W        W41176  35.861  33.018   1.393
68752W        W41177  22.050  44.983  12.525
68753W        W41178   6.250  26.484   1.918
68754W        W41179  19.632  17.286  10.435
68755W        W41180  32.604  12.224   3.794
68756W        W41181  23.735   9.369   0.283
68757W        W41182   8.806  13.748   0.258
68758W        W41183   6.728  20.579   3.671
68759W        W41184  21.252  30.489   2.398
68760W        W41185   8.370   3.323  12.472
68761W        W41186  41.801   9.323   3.250
68762W        W41187   9.800  39.936  14.440
68763W        W41188  40.459  37.079   0.729
68764W        W41189   7.308  29.038  12.384
68765W        W41190  23.643  41.417   1.294
68766W        W41191  15.624   9.164   2.808
68767W        W41192  27.106  43.303   3.383
68768W        W41193  37.373  43.506  14.920
68769W        W41194   5.321  42.972  13.801
68770W        W41195  20.184  41.926   2.286
68771W        W41196   2.381  12.197  10.531
68772W        W41197  22.021  18.144  11.521
68773W        W41198  28.042   2.258  13.062
68774W        W41199  14.616   8.746  12.864
68775W        W41200  34.610   0.313   0.414
68776W        W41201  38.970  43.902  14.998
68777W        W41202  20.131  20.579   3.690
68778W        W41203  29.650  23.507   1.789
68779W        W41204   6.330   4.399   0.320
68780W        W41205  32.467  18.732   1.333
68781W        W41206  33.481  19.538  10.490
68782W        W41207  22.728  44.396   0.873
68783W        W41208  38.067  41.531  12.880
68784W        W41209  36.418   9.743   4.149
68785W        W41210  20.066   3.303   1.374
68786W        W41211  20.602  42.025  12.989
68787W        W41212   2.932  32.595  11.562
68788W        W41213   7.311  32.994   0.286
68789W        W41214   6.787  31.925  10.531
68790W        W41215  44.494  34.881   5.167
68791W        W41216  44.002   2.808  14.823
68792W        W41217  15.151  21.525   3.162
68793W        W41218  28.075   2.263  12.348
68794W        W41219  25.575  14.095   0.402
68795W        W41220  33.488  35.854   5.133
68796W        W41221   5.729  28.598  13.393
68797W        W41222  41.906  40.495   1.777
68798W        W41223  26.536  23.208   3.286
68799W        W41224   1.295  27.041   2.830
68800W        W41225  23.539   9.202  12.939
68801W        W41226  15.651  18.250   3.319
68802W        W41227  44.841  29.051  10.474
68803W        W41228  41.042   8.866  11.916
68804W        W41229  12.691  39.480  11.488
68805W        W41230  15.675  36.504   2.890
68806W        W41231  37.087   0.402   2.845
68807W        W41232  11.654  14.657   3.149
68808W        W41233   8.758  22.076  14.798
68809W        W41234  27.568  43.800  12.443
68810W        W41235  29.462  21.068  14.855
68811W        W41236   5.381  17.093  12.081
68812W        W41237  34.583  16.711  13.008
68813W        W41238  42.965   9.793  11.549
68814W        W41239  34.385   0.909   3.808
68815W        W41240  13.731  29.661  13.376
68816W        W41241  40.822  28.021   1.319
68817W        W41242  28.982  21.718   4.250
68818W        W41243  42.949  22.735  12.441
68819W        W41244  21.062   0.848   3.146
68820W        W41245  16.685  33.485   0.342
68821W        W41246  25.078  14.262   3.731
68822W        W41247  43.448  12.285  14.905
68823W        W41248  11.224   1.800  12.951
68824W        W41249  19.672   8.236   3.754
68825W        W41250  28.094  21.666  14.432
68826W        W41251  36.943  26.609   3.276
68827W        W41252  26.035  25.562  13.000
68828W        W41253  37.452  33.003  13.046
68829W        W41254  13.719  32.621  10.603
68830W        W41255  37.465  25.060   0.776
68831W        W41256   0.983   4.920  11.084
68832W        W41257  41.915  36.383   4.324
68833W        W41258  17.276   3.800   3.220
68834W        W41259  44.843  36.511   1.820
68835W        W41260  34.018  18.112  12.430
68836W        W41261  13.308  22.577   2.394
68837W        W41262  40.511  32.987   1.373
68838W        W41263  31.910  36.476   1.839
68839W        W41264  21.719  24.056  14.911
68840W        W41265  39.460   4.303  11.404
68841W        W41266  30.578   0.976   2.781
68842W        W41267  21.594  42.794  13.916
68843W        W41268   0.332   1.902  13.494
68844W        W41269  15.275   6.705  12.873
68845W        W41270  25.681  30.516   0.280
68846W        W41271  36.395  27.131  11.496
68847W        W41272  31.049  22.711  14.865
68848W        W41273  41.882  17.737  14.308
68849W        W41274   8.370  27.633   0.249
68850W        W41275  43.847   4.747   3.771
68851W        W41276  21.577  18.768  12.389
68852W        W41277  10.379  36.575   4.648
68853W        W41278  18.761   0.946   1.335
68854W        W41279  28.136   0.485  11.519
68855W        W41280  41.981  39.503   4.785
68856W        W41281  31.494   2.313   0.274
68857W        W41282   9.246   8.825  11.926
68858W        W41283  27.032   4.294   2.396
68859W        W41284  19.062  13.138  13.847
68860W        W41285  14.226  38.991  14.478
68861W        W41286  42.282   5.810  10.457
68862W        W41287  15.292  24.093  11.588
68863W        W41288  44.483   7.718   0.872
68864W        W41289  14.209   6.409  14.379
68865W        W41290  24.688  43.951  13.441
68866W        W41291  35.932  13.270   3.810
68867W        W41292  14.199  10.370   0.965
68868W        W41293  27.991   3.231  11.516
68869W        W41294  29.963   3.415  10.475
68870W        W41295   7.226  39.861   1.823
68871W        W41296  22.713   7.745   0.327
68872W        W41297  29.576  32.108  13.035
68873W        W41298  18.715  25.142  10.098
68874W        W41299  13.725  24.097   2.693
68875W        W41300  16.096  39.320   0.863
68876W        W41301   8.740   0.799   1.243
68877W        W41302  17.649  21.661   2.349
68878W        W41303  40.803  18.133  12.998
68879W        W41304  30.452  35.568  10.549
68880W        W41305  11.671  22.503  13.324
68881W        W41306   7.214   8.176  13.898
68882W        W41307  32.516  42.997  14.890
68883W        W41308  23.227  23.636  14.849
68884W        W41309   2.905  33.080  14.796
68885W        W41310   8.203  20.044   2.318
68886W        W41311   0.318  39.889   4.344
68887W        W41312  22.513  29.144  12.894
68888W        W41313   6.386  26.130   1.211
68889W        W41314  43.417  22.567  10.092
68890W        W41315   1.783  12.201  14.376
68891W        W41316  31.062   6.367  11.005
68892W        W41317  44.489  38.455  11.520
68893W        W41318   7.349   6.863  10.623
68894W        W41319   5.698   4.876  11.591
68895W        W41320   0.298  29.605  14.445
68896W        W41321   0.924  15.714   2.356
68897W        W41322  13.761  19.716  14.959
68898W        W41323  13.722  16.769  14.979
68899W        W41324  10.160   7.276   5.098
68900W        W41325   8.780   7.313   0.804
68901W        W41326  10.788  35.452   3.738
68902W        W41327  16.098   0.478  13.842
68903W        W41328  26.206  23.178   3.216
68904W        W41329  24.659  30.656   0.864
68905W        W41330  20.037  43.806  11.596
68906W        W41331  22.678  14.717  10.575
68907W        W41332  27.481  42.937   2.240
68908W        W41333  11.684  13.658   4.656
68909W        W41334  37.932   8.185   2.179
68910W        W41335   4.757  19.658   2.822
68911W        W41336  26.608   6.832   0.910
68912W        W41337  25.973  44.500  13.037
68913W        W41338   7.395  13.158  11.045
68914W        W41339  15.784  38.840  11.100
68915W        W41340  11.760  43.354   1.771
68916W        W41341  26.533  27.186   2.184
68917W        W41342  11.291  34.054   4.248
68918W        W41343  39.064  37.971   1.383
68919W        W41344   4.435  20.642  11.426
68920W        W41345  13.800  42.020  10.421
68921W        W41346  29.920  24.644   3.375
68922W        W41347  40.410   8.331   3.385
68923W        W41348   8.249  16.629   1.265
68924W        W41349  14.703  36.889   4.728
68925W        W41350   2.837  14.269  12.391
68926W        W41351  27.132  24.989  12.491
68927W        W41352  19.257  32.143  10.471
68928W        W41353  32.573  19.578  11.865
68929W        W41354   0.881  20.683  13.524
68930W        W41355   6.835   8.305   2.869
68931W        W41356  22.101   3.942   3.650
68932W        W41357  38.013  37.451  14.808
68933W        W41358  27.188  38.913  12.042
68934W        W41359  42.344  29.169  10.622
68935W        W41360  27.581  33.958   1.829
68936W        W41361   7.176  12.798  12.069
68937W        W41362  38.826  29.120   1.330
68938W        W41363  15.100  41.391  11.911
68939W        W41364  14.196  15.617   0.484
68940W        W41365   9.741  18.224  12.087
68941W        W41366  22.627  12.299  10.109
68942W        W41367  24.013   4.911  14.470
68943W        W41368  31.967  39.517  12.930
68944W        W41369  28.619  13.133  10.958
68945W        W41370   3.385  31.151   1.748
68946W        W41371  27.984  10.351  13.458
68947W        W41372   3.733  44.884   1.777
68948W        W41373  31.505  25.968   4.230
68949W        W41374  34.038  36.487  13.892
68950W        W41375  25.212  10.878  10.999
68951W        W41376  37.989  30.024   2.790
68952W        W41377  38.402  22.012  12.075
68953W        W41378  19.272  22.652   0.393
68954W        W41379  40.332  28.547  12.823
68955W        W41380  13.280  43.017   2.250
68956W        W41381  41.041  34.043   1.880
68957W        W41382  17.290  14.248  11.027
68958W        W41383  12.249   1.324  14.403
68959W        W41384  41.442  20.149  14.319
68960W        W41385  35.522  29.469  14.027
68961W        W41386  12.175   2.925  10.068
68962W        W41387   5.313   1.406  12.510
68963W        W41388  36.382  29.928   1.816
68964W        W41389  24.522   4.293  13.858
68965W        W41390  26.093  31.545   3.311
68966W        W41391  37.396  26.103   2.748
68967W        W41392   7.200  39.846  11.595
68968W        W41393   9.656  41.379  12.893
68969W        W41394  23.517  25.048   3.664
68970W        W41395   2.733  29.140  11.546
68971W        W41396   5.271  18.580  12.513
68972W        W41397  27.177   6.245  10.003
68973W        W41398  19.622  10.805   1.843
68974W        W41399   6.697  41.490  14.844
68975W        W41400   7.701  42.019   1.856
68976W        W41401   6.770  30.610  13.840
68977W        W41402  13.688   9.717   3.293
68978W        W41403  30.119   2.784   4.324
68979W        W41404   1.451  10.747   1.871
68980W        W41405  44.979  28.153   4.334
68981W        W41406  10.819  33.510   1.357
68982W        W41407  16.143  12.843  11.584
68983W        W41408  33.485   5.800  13.798
68984W        W41409  35.992   2.460   0.948
68985W        W41410   4.804  32.492   2.249
68986W        W41411  24.518  35.559   4.799
68987W        W41412   3.441  11.221   2.857
68988W        W41413  29.667  24.712   0.884
68989W        W41414  33.106  28.608   0.920
68990W        W41415  44.895   2.951  13.816
68991W        W41416  31.524   4.230  12.567
68992W        W41417   7.757  19.669  14.860
68993W        W41418   0.430  28.142   4.808
68994W        W41419   5.698   2.830   4.151
68995W        W41420  20.216  44.821  11.488
68996W        W41421  38.926   3.334  14.303
68997W        W41422   8.738  11.866   2.387
68998W        W41423  44.306  22.154  12.564
68999W        W41424  37.564  12.192   1.903
69000W        W41425  15.608  18.682   4.688
69001W        W41426  37.436  12.331  12.053
69002W        W41427  16.237  38.536  12.572
69003W        W41428  32.971  29.094  14.937
69004W        W41429  26.527  23.706  13.826
69005W        W41430  11.837  15.795   2.897
69006W        W41431  10.852  31.461  12.423
69007W        W41432  22.619   6.317   0.896
69008W        W41433  29.172  22.694   3.292
69009W        W41434  32.078  33.439   2.866
69010W        W41435   7.171   9.742  11.473
69011W        W41436  15.272   6.300   3.707
69012W        W41437  15.187   8.819   1.743
69013W        W41438   4.436  41.393  11.107
69014W        W41439  37.899  17.711   1.757
69015W        W41440  14.194  39.504  14.986
69016W        W41441  23.593  12.637  12.373
69017W        W41442   1.773  38.946  11.589
69018W        W41443  26.685  32.536   0.413
69019W        W41444  29.945  11.372   1.367
69020W        W41445  30.418  15.799   3.311
69021W        W41446  34.611  30.035   3.233
69022W        W41447  21.541  23.139   0.810
69023W        W41448   0.863  28.984   4.247
69024W        W41449  27.996   9.741  12.413
69025W        W41450   2.445   8.830   4.123
69026W        W41451  41.874  23.716   9.992
69027W        W41452  39.922  39.823  14.769
69028W        W41453  42.435  27.665   4.700
69029W        W41454  38.982  25.484  14.327
69030W        W41455  26.680  32.595  10.410
69031W        W41456  39.043   9.395   4.265
69032W        W41457  11.357  36.072   4.243
69033W        W41458  12.171  22.557  11.879
69034W        W41459   0.380  26.524  13.423
69035W        W41460  12.657  16.254  12.568
69036W        W41461  19.747   5.732  14.933
69037W        W41462   8.166  14.603  13.929
69038W        W41463  33.403  36.422  12.344
69039W        W41464   5.297  29.548   1.349
69040W        W41465  12.349  15.784   3.366
69041W        W41466  34.019  14.776  11.106
69042W        W41467   7.213  32.621   1.345
69043W        W41468  10.805  16.580  12.419
69044W        W41469  17.214  39.341  14.466
69045W        W41470  24.698  39.920  13.910
69046W        W41471   0.819  33.587  12.576
69047W        W41472  30.086  15.301  11.451
69048W        W41473  28.613   6.709  11.601
69049W        W41474  26.462  13.331  12.577
69050W        W41475  14.135  27.996   2.381
69051W        W41476  39.327  42.370  12.346
69052W        W41477  17.232  37.514  14.437
69053W        W41478  13.217   5.859   0.830
69054W        W41479  37.511  34.461   1.826
69055W        W41480   7.717   3.400  13.520
69056W        W41481   6.909  25.005   1.909
69057W        W41482  27.010  28.971   0.774
69058W        W41483   6.235  17.300  14.773
69059W        W41484  24.155   9.647  13.965
69060W        W41485  18.639  12.333   1.226
69061W        W41486   3.338  41.827   4.721
69062W        W41487   2.450  17.773  13.380
69063W        W41488   0.959  22.570   0.333
69064W        W41489  37.876  17.061   4.272
69065W        W41490  30.978   9.858   4.133
69066W        W41491   3.320  33.987  14.510
69067W        W41492  17.776   9.670   0.944
69068W        W41493   6.704  18.697   3.701
69069W        W41494  24.140  44.916  13.466
69070W        W41495   3.447  42.433  13.821
69071W        W41496  17.066   9.310   0.741
69072W        W41497  11.683  43.509  13.396
69073W        W41498  33.440   2.351   0.956
69074W        W41499  26.625  29.626  13.413
69075W        W41500  27.985  14.286  11.540
69076W        W41501  10.661  38.076  11.976
69077W        W41502  32.030  19.627  11.128
69078W        W41503   7.363  19.070  12.389
69079W        W41504  17.198  18.705  14.287
69080W        W41505  37.844  42.881   1.712
69081W        W41506  38.852   0.945   0.891
69082W        W41507  15.214  36.938  11.046
69083W        W41508  16.223  34.550  14.985
69084W        W41509  38.859   5.402  11.533
69085W        W41510  18.153  32.438   2.794
69086W        W41511   7.690   5.434   1.387
69087W        W41512   5.706   2.910  13.336
69088W        W41513  24.660  23.001   1.220
69089W        W41514  29.440   8.347   0.812
69090W        W41515  22.216  43.908   0.380
69091W        W41516  30.582  22.070  11.057
69092W        W41517  20.217  39.522   2.341
69093W        W41518  31.443  15.299   2.252
69094W        W41519   5.294  21.734   0.773
69095W        W41520   3.316   7.827  12.422
69096W        W41521  42.294  13.705  12.999
69097W        W41522  15.274  12.786  12.963
69098W        W41523  41.912  32.128  12.504
69099W        W41524  22.556  19.246   0.845
69100W        W41525  24.702  40.325   0.772
69101W        W41526  41.320  39.535   2.859
69102W        W41527   9.721   4.699   2.892
69103W        W41528  41.526  15.328   0.256
69104W        W41529  40.462  19.700  10.622
69105W        W41530   6.317   7.189   2.354
69106W        W41531  33.929   4.870  10.923
69107W        W41532   5.239  35.870  14.843
69108W        W41533  34.876  35.895   4.808
69109W        W41534  27.180  38.559  10.557
69110W        W41535   7.752   6.780   3.374
69111W        W41536   4.819  35.921  14.906
69112W        W41537  41.848   1.259  13.034
69113W        W41538   5.346  37.864   2.359
69114W        W41539   8.311  31.047  14.500
69115W        W41540  21.579  34.120  11.087
69116W        W41541  26.082   3.333   2.366
69117W        W41542  36.408   8.372  12.485
69118W        W41543  30.640  27.486   2.344
69119W        W41544  20.146  44.851   3.160
69120W        W41545  27.452  16.808  10.569
69121W        W41546   8.864  35.085  10.564
69122W        W41547  32.930  26.028   0.960
69123W        W41548  20.688  15.098  14.848
69124W        W41549  36.477   5.925   2.803
69125W        W41550  36.015  30.080   2.720
69126W        W41551  43.298  30.436   2.796
69127W        W41552  14.261  34.382   4.180
69128W        W41553  38.484  27.545  12.094
69129W        W41554  43.424  36.994   2.411
69130W        W41555  42.781  21.172  11.603
69131W        W41556  40.479  33.917   2.776
69132W        W41557   6.312  42.410  15.000
69133W        W41558   9.248  10.195   3.204
69134W        W41559   5.782  22.103   0.966
69135W        W41560  17.187  19.207   2.306
69136W        W41561  22.538  28.548   3.384
69137W        W41562   4.828  23.195   1.787
69138W        W41563   0.400   8.162   4.760
69139W        W41564  31.626   9.672   0.840
69140W        W41565  20.533  15.597   0.294
69141W        W41566  40.508  41.531   4.138
69142W        W41567  20.217  16.140   1.851
69143W        W41568  33.410  11.667   1.763
69144W        W41569  43.385  44.984   2.898
69145W        W41570  18.614  32.885   1.236
69146W        W41571  21.588  43.491  11.544
69147W        W41572   1.863  12.713  14.941
69148W        W41573  27.672   5.422  13.378
69149W        W41574   4.402  28.672  11.924
69150W        W41575  32.082   2.242   1.240
69151W        W41576  43.300  17.634  14.460
69152W        W41577   6.228   6.273   4.302
69153W        W41578  28.647  31.020   2.360
69154W        W41579  19.219  31.509  13.052
69155W        W41580  28.515  10.254  14.008
69156W        W41581  10.785  35.089   1.798
69157W        W41582   8.781  37.830   1.226
69158W        W41583  33.879  19.279   0.245
69159W        W41584  23.547  20.042  14.427
69160W        W41585  13.223  19.151  12.440
69161W        W41586  24.128  11.279   3.699
69162W        W41587  38.414  44.899   0.404
69163W        W41588  19.653  17.565  11.985
69164W        W41589   6.334  32.430   4.137
69165W        W41590  10.300   0.455   3.630
69166W        W41591  18.580   6.773  14.918
69167W        W41592  11.802  24.615  12.472
69168W        W41593  28.640  18.787   2.797
69169W        W41594  12.271  43.505   0.962
69170W        W41595  27.029  13.161  14.804
69171W        W41596  23.031  42.918   3.739
69172W        W41597  33.391  31.997  10.104
69173W        W41598   9.203  23.587  14.920
69174W        W41599   2.429  16.296   3.675
69175W        W41600  37.006   5.361   3.674
69176W        W41601  14.297   9.241   1.219
69177W        W41602  17.765  12.214  13.444
69178W        W41603  11.651  37.436  14.282
69179W        W41604  11.156   2.727   1.211
69180W        W41605   1.895   6.352  14.853
69181W        W41606  15.811   0.403   4.787
69182W        W41607  37.407  11.824   4.290
69183W        W41608  27.054  36.471   1.390
69184W        W41609  29.935  37.369  11.112
69185W        W41610   8.758  28.460   2.294
69186W        W41611  11.650   0.748   3.387
69187W        W41612  24.630   5.333   1.441
69188W        W41613  32.076   7.815   3.235
69189W        W41614  39.915  19.654   0.468
69190W        W41615   2.454  20.251  14.841
69191W        W41616   5.372  32.619  13.456
69192W        W41617  10.365  40.871  13.983
69193W        W41618  19.654   6.289   1.354
69194W        W41619  12.298  25.490   4.799
69195W        W41620   8.401   5.708   2.338
69196W        W41621  20.740  41.511  13.865
69197W        W41622  19.179   0.315  14.424
69198W        W41623  36.873  34.372  11.916
69199W        W41624  23.044  32.089  10.918
69200W        W41625  41.430   4.731   2.297
69201W        W41626  40.936  22.108  12.001
69202W        W41627  20.224  15.153   3.316
69203W        W41628  32.955  43.436   2.258
69204W        W41629  23.635  10.299   1.451
69205W        W41630  10.662  22.061  14.845
69206W        W41631  17.074  40.384   0.759
69207W        W41632  18.059  11.805  12.565
69208W        W41633  18.080  22.538   4.185
69209W        W41634   0.493  22.634  11.968
69210W        W41635   5.256  24.584   2.290
69211W        W41636  44.457  12.757  11.454
69212W        W41637  28.124  18.183  11.046
69213W        W41638  15.627  37.397   0.416
69214W        W41639   9.395  21.160   0.765
69215W        W41640   4.724  40.890   0.246
69216W        W41641  37.979  12.276   3.151
69217W        W41642  14.239  39.372  12.474
69218W        W41643  19.729  39.361  11.439
69219W        W41644  44.868  38.860  13.358
69220W        W41645  10.236  35.497  11.939
69221W        W41646  37.961  13.267   2.903
69222W        W41647  25.478   6.194  12.992
69223W        W41648  19.729   6.721   4.335
69224W        W41649  40.446  36.484  12.433
69225W        W41650  28.607  27.484  11.888
69226W        W41651  36.058  39.318   0.779
69227W        W41652  32.605  31.441   0.305
69228W        W41653  40.545   4.717  13.867
69229W        W41654  11.138  30.588   3.201
69230W        W41655  31.466   6.816  13.868
69231W        W41656   2.428  12.792  12.387
69232W        W41657   4.260  21.174  14.868
69233W        W41658  18.708  28.179  13.458
69234W        W41659  24.191  34.384   0.360
69235W        W41660   9.746  25.168  13.796
69236W        W41661  22.562  43.300   2.418
69237W        W41662  30.950  21.693  14.444
69238W        W41663  27.019  14.276  14.914
69239W        W41664  11.727  19.214  14.889
69240W        W41665   2.808  11.304  12.058
69241W        W41666  42.380  36.501  11.612
69242W        W41667  32.547  10.771   0.767
69243W        W41668  31.535  19.552   0.289
69244W        W41669   8.288  18.210  13.442
69245W        W41670  19.239   2.892   0.321
69246W        W41671   7.308  23.167   0.307
69247W        W41672  36.041  16.780   4.792
69248W        W41673  44.812  22.128   0.276
69249W        W41674   2.401   8.245  11.040
69250W        W41675  15.710  35.039  12.565
69251W        W41676  26.150  22.559   2.756
69252W        W41677  17.612   9.737   1.706
69253W        W41678  11.287  17.751   0.353
69254W        W41679  25.660  13.126  14.989
69255W        W41680   6.206  43.408   3.188
69256W        W41681  33.957  43.483  13.419
69257W        W41682   2.865  35.533   3.806
69258W        W41683  33.011  39.326   1.782
69259W        W41684   5.855  11.309   1.721
69260W        W41685  29.100   6.796  14.479
69261W        W41686  23.096  14.640   2.717
69262W        W41687   2.423  41.904  12.089
69263W        W41688   8.396  14.131  13.352
69264W        W41689  39.926   3.717  12.942
69265W        W41690   4.227  41.345  10.578
69266W        W41691   7.814  33.456  11.568
69267W        W41692   3.751   8.656  14.507
69268W        W41693  41.394  19.553   2.755
69269W        W41694  44.799  23.037  11.869
69270W        W41695  28.117  35.361   4.785
69271W        W41696   3.710  42.802  14.836
69272W        W41697  10.772   6.365  13.529
69273W        W41698  33.047   8.279   2.769
69274W        W41699  38.062  32.391   0.874
69275W        W41700  43.446  16.592   3.713
69276W        W41701   1.926   5.216   1.384
69277W        W41702  11.217  23.593  11.528
69278W        W41703  17.161  21.241   4.204
69279W        W41704  34.493  30.076   1.375
69280W        W41705  40.846   0.397   3.841
69281W        W41706  43.513   3.756  11.612
69282W        W41707  15.324  39.867  12.430
69283W        W41708  24.672  18.245   0.934
69284W        W41709  20.675   5.386   2.257
69285W        W41710  25.602  41.800   2.872
69286W        W41711  23.689  20.567  11.886
69287W        W41712  10.688   9.692   0.445
69288W        W41713  40.961  11.692  12.860
69289W        W41714  18.732  18.263   4.234
69290W        W41715  36.586  19.568  12.018
69291W        W41716  31.113  43.317  14.495
69292W        W41717  35.047   1.747   3.701
69293W        W41718  22.070  19.571   0.287
69294W        W41719  29.570   9.754   3.153
69295W        W41720  32.581  25.579  13.951
69296W        W41721  19.620  11.741  13.818
69297W        W41722  41.016  15.319   1.794
69298W        W41723   1.734   7.794   4.607
69299W        W41724  27.124  14.239   5.292
69300W        W41725  42.301  44.386   0.314
69301W        W41726  18.080  24.557   3.829
69302W        W41727  39.940  30.066  13.867
69303W        W41728  28.942  14.789   3.201
69304W        W41729  24.053  36.089  12.928
69305W        W41730  23.574  10.726   3.786
69306W        W41731  30.606  25.173  10.494
69307W        W41732  26.967   7.379   0.410
69308W        W41733   9.363  34.019   0.892
69309W        W41734  23.146  20.600  14.883
69310W        W41735  10.850  28.154   4.254
69311W        W41736   7.350  17.174   0.867
69312W        W41737  41.341  35.050  14.375
69313W        W41738  12.693  33.440   2.836
69314W        W41739  10.254  12.218  14.009
69315W        W41740  15.594  17.074  12.462
69316W        W41741  27.011   1.413  11.952
69317W        W41742   6.710  36.098  14.359
69318W        W41743   3.440  17.076   2.824
69319W        W41744  16.148   6.875   1.855
69320W        W41745  17.778  26.091  11.444
69321W        W41746   8.293   7.333   1.759
69322W        W41747   7.257  34.553   1.770
69323W        W41748  26.139   2.345   0.372
69324W        W41749  27.185  11.126  12.525
69325W        W41750   0.399  20.583  11.512
69326W        W41751   1.955  18.579   1.778
69327W        W41752   5.411   7.899   4.671
69328W        W41753  15.133  24.529  11.602
69329W        W41754  39.015  13.324   3.364
69330W        W41755   7.246   0.929  12.094
69331W        W41756  11.737  41.349   4.233
69332W        W41757  42.940  16.625  13.547
69333W        W41758  27.191  17.147   0.457
69334W        W41759   7.337  22.111   3.724
69335W        W41760  27.624  34.563  12.015
69336W        W41761   4.762   1.241  13.486
69337W        W41762  41.997   2.242   3.256
69338W        W41763  17.731  10.852   4.711
69339W        W41764  25.647  44.411  11.856
69340W        W41765  16.687  39.011   1.294
69341W        W41766  43.943  37.036   1.241
69342W        W41767  34.014  25.665  12.920
69343W        W41768   2.742  13.341   1.884
69344W        W41769  19.684   2.271   4.808
69345W        W41770  37.900  21.072  14.357
69346W        W41771  39.495  36.867   1.269
69347W        W41772  38.475  27.593  13.853
69348W        W41773  14.289  44.273   4.735
69349W        W41774  21.185   6.824   3.265
69350W        W41775  24.649  31.543   2.327
69351W        W41776  31.979  29.060  10.454
69352W        W41777  43.823   2.310  11.477
69353W        W41778   9.842  32.124  13.530
69354W        W41779   9.848   6.873  13.464
69355W        W41780   8.361  10.266  11.384
69356W        W41781  28.598  17.176   0.799
69357W        W41782  24.036   3.826   3.200
69358W        W41783  39.907  28.447   2.348
69359W        W41784   5.279  29.433  11.445
69360W        W41785  28.985  24.591  10.119
69361W        W41786  13.121  10.753   0.443
69362W        W41787   6.312  35.954   4.231
69363W        W41788  35.930  26.987  13.524
69364W        W41789  32.901   9.684   2.342
69365W        W41790   2.911  22.623  14.799
69366W        W41791  28.097  32.498   1.869
69367W        W41792  25.631   2.830   2.211
69368W        W41793  18.116  40.847  11.004
69369W        W41794  39.395  14.696  11.486
69370W        W41795  39.043  43.420  11.382
69371W        W41796  33.443  13.660   0.859
69372W        W41797   4.291  21.256  10.517
69373W        W41798  19.591  31.462  13.365
69374W        W41799  27.981   3.784   3.748
69375W        W41800  25.132  14.764  13.805
69376W        W41801   9.738  42.889   2.255
69377W        W41802  10.726  23.663   3.271
69378W        W41803  39.958  43.981  14.482
69379W        W41804   9.754  40.399   4.261
69380W        W41805  22.229  23.099   0.962
69381W        W41806  30.566  30.481   1.859
69382W        W41807   3.951  26.171  10.622
69383W        W41808  11.671  40.809   2.897
69384W        W41809  17.290  15.194   1.809
69385W        W41810  23.583   6.857   0.817
69386W        W41811  10.282  27.554   0.380
69387W        W41812  12.329  33.905   0.898
69388W        W41813  24.053  12.718   1.446
69389W        W41814  17.613   2.910   1.709
69390W        W41815  32.993   6.204   2.404
69391W        W41816  43.275   2.422   1.838
69392W        W41817  12.314  10.796   2.299
69393W        W41818  43.014   9.757   4.125
69394W        W41819   2.382  32.929   2.335
69395W        W41820  15.776  10.853  10.409
69396W        W41821  12.300  42.414  13.973
69397W        W41822  36.357  35.521  14.958
69398W        W41823  33.441  34.597   5.254
69399W        W41824  18.747   6.427  11.883
69400W        W41825  37.009  24.690  14.362
69401W        W41826  12.297  38.479  11.512
69402W        W41827  15.815   0.957  11.125
69403W        W41828  24.131  16.577  11.469
69404W        W41829   7.211   8.163  11.392
69405W        W41830  25.060  32.140   3.640
69406W        W41831  42.993   0.466  10.088
69407W        W41832  33.911   8.796   1.265
69408W        W41833  14.637  40.376  14.007
69409W        W41834  20.240  16.226   0.814
69410W        W41835   1.905   6.332   2.204
69411W        W41836  22.622  37.502   0.368
69412W        W41837  15.756  11.655  11.996
69413W        W41838  36.927   6.805  11.037
69414W        W41839   7.778   6.879  14.983
69415W        W41840  39.536  32.613   4.770
69416W        W41841  41.348   1.841  13.047
69417W        W41842   3.901  24.651   2.805
69418W        W41843  31.094  42.851   2.238
69419W        W41844   3.422  44.327  14.918
69420W        W41845  14.693  11.776  13.899
69421W        W41846   0.747  31.960   2.300
69422W        W41847  23.154  22.180   2.376
69423W        W41848   4.438  12.334   3.828
69424W        W41849  25.170   2.429  11.577
69425W        W41850   2.915   8.669   1.231
69426W        W41851  42.879  10.670  10.566
69427W        W41852  12.159  17.298   1.418
69428W        W41853  29.495  21.098   5.185
69429W        W41854  34.392   7.722  11.027
69430W        W41855  27.564  39.843  14.358
69431W        W41856   7.339  23.620  14.382
69432W        W41857  44.982  15.743   0.336
69433W        W41858  17.112  39.057  12.999
69434W        W41859  41.317  14.728  11.861
69435W        W41860  39.864  19.744   4.818
69436W        W41861  26.099   0.480   1.370
69437W        W41862  38.547  37.869   3.242
69438W        W41863  16.267   1.867  13.876
69439W        W41864  36.955  20.155  14.298
69440W        W41865  36.095  13.760   0.856
69441W        W41866  37.454  25.541   2.409
69442W        W41867  29.033  26.165  14.285
69443W        W41868  22.579   5.215   0.451
69444W        W41869  14.298   7.775   5.271
69445W        W41870  16.748  30.434   2.278
69446W        W41871  31.517  43.004  11.060
69447W        W41872  14.180  29.137  12.032
69448W        W41873  33.939  20.146  11.995
69449W        W41874  34.588  22.684   2.237
69450W        W41875   9.651  28.109   2.805
69451W        W41876  12.836  39.870  12.829
69452W        W41877  41.342  17.750  13.063
69453W        W41878   5.439   2.391   4.770
69454W        W41879   1.385  24.634   3.185
69455W        W41880  18.266  19.746  11.487
69456W        W41881  19.271  15.780   3.164
69457W        W41882  20.609  31.531  14.841
69458W        W41883  25.623  11.630  14.840
69459W        W41884  26.049   8.699  12.395
69460W        W41885   9.813  15.743  11.023
69461W        W41886  23.187   1.275  14.489
69462W        W41887  38.067  15.667   4.155
69463W        W41888  32.976  34.554   4.300
69464W        W41889   8.807  19.630   3.671
69465W        W41890  29.593  36.398  12.578
69466W        W41891  23.531  11.733  12.528
69467W        W41892  36.859  34.902  12.899
69468W        W41893   4.325  16.149   3.266
69469W        W41894   8.272  26.619  11.097
69470W        W41895  42.356  44.970   3.701
69471W        W41896  35.565  30.971   0.266
69472W        W41897   7.851   3.242   2.693
69473W        W41898  36.444  20.199   0.783
69474W        W41899  27.996   7.838  12.963
69475W        W41900  19.261  13.658  12.879
69476W        W41901  33.399  16.072   1.714
69477W        W41902  18.089  25.472  13.324
69478W        W41903  38.364   6.818   1.445
69479W        W41904  23.564  11.776   1.364
69480W        W41905   4.859  29.636   4.744
69481W        W41906  33.926  21.180   0.796
69482W        W41907  22.525   7.836   4.794
69483W        W41908  30.562  37.370  12.829
69484W        W41909  37.015  38.880  14.865
69485W        W41910  44.836  30.951   0.763
69486W        W41911  40.397  32.485  14.299
69487W        W41912   3.445  30.930   0.749
69488W        W41913  35.436   5.877   4.260
69489W        W41914  23.576  15.143  12.534
69490W        W41915  15.252  23.533   4.827
69491W        W41916  15.713   1.335  13.061
69492W        W41917   0.285  20.559  11.883
69493W        W41918  26.611  15.665   4.676
69494W        W41919   0.447  15.679  10.953
69495W        W41920  15.731  32.613  12.825
69496W        W41921   6.361  29.989   0.752
69497W        W41922  39.926   3.318  11.539
69498W        W41923   5.904   5.729   4.623
69499W        W41924  27.668  11.368  12.347
69500W        W41925  19.094  22.186   4.215
69501W        W41926  18.605  22.236   4.813
69502W        W41927  43.926  19.772  14.956
69503W        W41928   0.465   9.678  14.412
69504W        W41929  40.979  15.092  11.012
69505W        W41930  41.327  34.446   3.228
69506W        W41931  35.104  33.396   1.367
69507W        W41932   5.260   0.913  10.062
69508W        W41933   7.214  25.515   1.332
69509W        W41934  40.324  26.515   0.293
69510W        W41935  10.195  15.282  13.545
69511W        W41936  16.754  30.646  14.445
69512W        W41937  44.335  37.443  13.439
69513W        W41938   2.784  24.171  12.083
69514W        W41939  10.852  13.278  13.424
69515W        W41940  21.576   6.717   4.710
69516W        W41941  23.537  36.956   2.363
69517W        W41942  37.478  18.173   2.365
69518W        W41943  33.619  15.691  10.539
69519W        W41944  25.580  44.448  13.388
69520W        W41945  38.826  10.264  11.445
69521W        W41946  24.533  26.128   3.640
69522W        W41947  12.612  12.249   2.295
69523W        W41948  22.582   3.890   1.270
69524W        W41949  11.338  24.039  13.028
69525W        W41950  21.099  27.542   4.790
69526W        W41951   2.420  16.780   4.724
69527W        W41952  18.668  39.446   4.327
69528W        W41953  20.744  25.584   1.885
69529W        W41954  11.831  31.899  12.504
69530W        W41955   3.307   0.926  11.913
69531W        W41956  40.482  13.181  12.927
69532W        W41957  19.041  11.143  13.398
69533W        W41958  39.471   5.354  10.601
69534W        W41959  15.171  12.683  13.354
69535W        W41960   4.335  29.523  10.526
69536W        W41961  28.941  10.149   5.085
69537W        W41962   3.461  26.532  12.079
69538W        W41963  32.996  12.139  13.018
69539W        W41964  36.024  41.881  14.841
69540W        W41965   0.835  11.849  10.944
69541W        W41966  40.435  39.921   2.400
69542W        W41967  27.595  18.552   2.396
69543W        W41968  26.603  32.911  11.956
69544W        W41969  43.859   2.867   2.300
69545W        W41970  25.070   7.870   2.872
69546W        W41971  33.570  36.986   2.208
69547W        W41972  38.544   4.285   1.765
69548W        W41973  36.896  16.202   3.278
69549W        W41974  24.694  10.147   2.304
69550W        W41975  30.482  11.685   4.684
69551W        W41976  16.271  20.145  13.391
69552W        W41977  38.866  40.800   2.310
69553W        W41978  31.901  24.573  12.382
69554W        W41979  35.506  27.955  14.759
69555W        W41980  33.429   9.259   4.274
69556W        W41981  23.232   2.320  10.442
69557W        W41982  26.088  13.260   2.800
69558W        W41983  18.555  33.468  10.465
69559W        W41984  44.876  23.121   3.783
69560W        W41985  20.061  19.761   1.317
69561W        W41986  10.852  16.598   2.805
69562W        W41987  38.934  31.612  12.073
69563W        W41988  16.666  31.535   5.151
69564W        W41989  14.099   7.776   3.330
69565W        W41990   5.268   2.332  11.104
69566W        W41991  17.728  36.485  12.548
69567W        W41992   4.759  12.784  11.120
69568W        W41993  28.443  39.415   5.226
69569W        W41994   7.197   7.293  10.973
69570W        W41995  38.980  30.496  11.894
69571W        W41996  28.441  40.459  14.898
69572W        W41997   2.413  17.215   4.823
69573W        W41998  31.600   9.162  14.915
69574W        W41999  33.969  14.143   4.179
69575W        W42000  17.559  39.939   1.314
69576W        W42001  25.594  22.688  10.160
69577W        W42002  43.428  43.955   0.752
69578W        W42003  23.599  34.608   0.906
69579W        W42004  35.574   7.852  13.908
69580W        W42005   6.850  42.517   3.257
69581W        W42006  40.939  15.670   3.336
69582W        W42007  43.939  34.892  12.020
69583W        W42008  21.049  11.318  12.390
69584W        W42009  28.459  13.828  13.860
69585W        W42010   8.741  42.777   4.255
69586W        W42011   8.391   2.243  12.015
69587W        W42012  33.119  23.643   3.265
69588W        W42013  42.821  13.659   0.811
69589W        W42014  14.624  25.095  13.881
69590W        W42015  35.370   5.730   2.411
69591W        W42016  39.407  20.596   1.442
69592W        W42017   5.814   6.246   0.289
69593W        W42018  33.964  42.951   0.817
69594W        W42019  32.482  21.563  11.514
69595W        W42020  22.019   4.720   3.194
69596W        W42021  14.686   5.433   2.878
69597W        W42022  17.113  39.361  10.990
69598W        W42023   8.263  34.074   2.802
69599W        W42024  35.358  43.806   0.821
69600W        W42025  43.829  27.105  10.986
69601W        W42026  25.617  29.154  14.339
69602W        W42027  39.492   3.795  11.386
69603W        W42028  20.660  41.493   0.373
69604W        W42029  25.591  22.042   1.211
69605W        W42030  10.663  10.374  11.532
69606W        W42031  13.799   3.855   5.261
69607W        W42032   1.898  44.372   0.372
69608W        W42033  30.069  33.085   2.711
69609W        W42034  22.692   8.890  11.028
69610W        W42035   0.806  23.107  11.875
69611W        W42036  30.573  16.620   0.422
69612W        W42037  21.670  13.290   3.870
69613W        W42038  40.042   2.269  10.939
69614W        W42039   7.686  39.524   1.885
69615W        W42040   6.186  15.247  11.864
69616W        W42041  21.543  16.131  13.967
69617W        W42042  21.039  11.793   2.879
69618W        W42043  39.911  34.906   0.448
69619W        W42044  35.047  26.690   0.301
69620W        W42045  19.120  44.987   0.726
69621W        W42046  11.811  15.654   3.302
69622W        W42047  26.525   1.976   1.704
69623W        W42048  34.992  42.809  10.976
69624W        W42049  17.556  23.102   0.309
69625W        W42050  20.654  29.022  13.815
69626W        W42051  39.849   2.299  11.905
69627W        W42052  33.527   6.275   0.247
69628W        W42053  19.174  37.849  10.458
69629W        W42054   3.459   5.894   3.375
69630W        W42055  11.697  23.588  10.976
69631W        W42056  41.416  44.315   1.726
69632W        W42057  25.706   9.733  14.860
69633W        W42058  43.801  23.173   1.889
69634W        W42059  42.309   6.304   1.387
69635W        W42060  33.129  20.038   3.358
69636W        W42061  21.748   1.353   0.801
69637W        W42062   5.746  17.764  14.010
69638W        W42063  18.633  36.494  13.901
69639W        W42064   8.207  31.421  11.439
69640W        W42065  18.075  18.229   2.355
69641W        W42066   4.209  38.559   0.388
69642W        W42067   6.919  39.850  14.467
69643W        W42068  18.699  44.898  10.896
69644W        W42069  30.580  41.948  11.491
69645W        W42070  38.390  16.727  12.417
69646W        W42071  10.729  24.162  10.888
69647W        W42072  25.124   3.414  10.932
69648W        W42073  18.279  33.387   0.336
69649W        W42074  36.402  44.406   1.322
69650W        W42075  22.633  32.420  12.040
69651W        W42076  10.650  18.663   1.322
69652W        W42077  41.836  27.175  12.570
69653W        W42078  41.457   9.180  10.888
69654W        W42079  25.056  14.738  14.460
69655W        W42080  31.452  27.502   2.181
69656W        W42081  11.644  40.530  13.505
69657W        W42082   8.797   1.379   2.218
69658W        W42083   2.242  29.045   5.240
69659W        W42084  30.414  16.109   0.314
69660W        W42085  16.632   4.808  11.604
69661W        W42086  12.264  16.741   1.398
69662W        W42087  17.582   4.359   4.823
69663W        W42088   6.327   1.748   3.286
69664W        W42089  41.321  20.204  10.550
69665W        W42090  22.718  26.015   2.823
69666W        W42091  39.948  37.381  11.599
69667W        W42092  31.462  40.318  12.512
69668W        W42093   8.759  10.332  11.969
69669W        W42094  11.635  25.970  14.797
69670W        W42095  21.538  40.343   2.415
69671W        W42096   0.858  41.987   1.718
69672W        W42097  14.192   7.415   2.798
69673W        W42098  35.389  10.728   0.330
69674W        W42099  21.653   0.427   2.255
69675W        W42100   4.389   8.299   1.882
69676W        W42101   0.389   5.200  12.942
69677W        W42102  38.439   7.829  14.914
69678W        W42103  42.285  22.674   4.115
69679W        W42104   8.181  38.462  11.611
69680W        W42105  15.723  37.542   0.900
69681W        W42106  18.696  42.830  12.023
69682W        W42107   9.811  28.960  10.916
69683W        W42108  10.367  17.181  10.598
69684W        W42109   4.217   4.422  12.933
69685W        W42110  35.093  37.464   4.711
69686W        W42111  38.013  20.191   4.216
69687W        W42112   0.769  37.918  10.553
69688W        W42113   8.222  16.114   2.741
69689W        W42114  41.881   8.223   1.423
69690W        W42115  20.222  36.381   3.745
69691W        W42116  32.451   5.386  14.282
69692W        W42117  23.121  29.455  13.859
69693W        W42118  10.799  39.361   0.962
69694W        W42119  33.421  40.017  11.522
69695W        W42120  28.173  34.448   4.266
69696W        W42121   3.944   8.299   0.939
69697W        W42122  24.071  15.244   1.359
69698W        W42123  30.432   2.289  13.885
69699W        W42124   0.451  31.033   1.326
69700W        W42125  27.649  23.104   5.229
69701W        W42126  37.903  23.499  11.592
69702W        W42127  27.566  30.095   3.222
69703W        W42128  34.613  13.134  14.792
69704W        W42129  18.666  30.061  11.999
69705W        W42130  13.211  19.598   2.701
69706W        W42131   7.912  20.606   0.845
69707W        W42132  27.482   3.860   3.857
69708W        W42133  11.258  17.136  13.448
69709W        W42134  40.361  35.497  12.567
69710W        W42135  27.617  25.154  11.579
69711W        W42136   0.850  12.754   0.262
69712W        W42137  44.922  43.346   0.783
69713W        W42138   9.304  12.201  10.896
69714W        W42139   0.799  20.596   3.665
69715W        W42140  33.420  39.009   4.261
69716W        W42141  20.188  43.793  10.439
69717W        W42142  36.046  16.729   1.840
69718W        W42143  18.595  21.034  13.338
69719W        W42144   2.777  44.415  10.629
69720W        W42145  21.525  11.673  11.917
69721W        W42146  11.690  39.338  11.426
69722W        W42147  16.079  26.529   2.794
69723W        W42148  28.005  16.190  11.606
69724W        W42149  20.711  10.735   4.612
69725W        W42150  27.562  17.609  14.476
69726W        W42151  39.994  23.586   3.294
69727W        W42152  29.955  18.216  12.373
69728W        W42153  16.593  36.883  11.008
69729W        W42154   9.725  26.980  11.433
69730W        W42155  41.037  18.663  14.893
69731W        W42156  29.123   3.848   1.233
69732W        W42157  38.931  25.966  11.120
69733W        W42158  20.659  14.669   2.326
69734W        W42159  10.683  33.583  11.076
69735W        W42160  41.043  30.098  13.012
69736W        W42161  18.124  31.115  12.546
69737W        W42162   3.419  35.014   2.275
69738W        W42163  27.691  12.245  11.068
69739W        W42164   8.166  23.717   3.168
69740W        W42165   5.788  23.080   1.792
69741W        W42166   1.353  24.642   0.480
69742W        W42167  22.550   7.776  12.561
69743W        W42168  34.094   5.915  13.380
69744W        W42169  36.018  22.038  12.005
69745W        W42170  15.291   1.271  12.063
69746W        W42171  34.014  12.808   4.797
69747W        W42172  26.090  14.619  14.489
69748W        W42173  23.642   2.245   0.376
69749W        W42174  43.515  14.796  13.319
69750W        W42175   1.778  19.063   4.740
69751W        W42176   6.907  13.846   3.829
69752W        W42177  12.278  34.108   3.148
69753W        W42178  14.735  42.816  12.872
69754W        W42179  12.660  34.385  14.289
69755W        W42180  27.043  19.190   1.730
69756W        W42181  42.951  37.010   4.693
69757W        W42182  17.691  13.245   2.247
69758W        W42183  17.279  14.301  14.500
69759W        W42184  30.142  25.995   2.763
69760W        W42185  27.191  12.219   4.121
69761W        W42186  24.539  26.476   3.236
69762W        W42187  23.698  12.176  11.500
69763W        W42188  26.470  19.138   2.261
69764W        W42189  21.714  31.046   1.925
69765W        W42190  10.761  37.882   1.441
69766W        W42191  19.718   9.186   3.359
69767W        W42192  34.424  19.100   3.797
69768W        W42193  39.404   1.842  12.501
69769W        W42194  26.004  16.641   3.165
69770W        W42195  22.627   2.962   2.725
69771W        W42196  44.465  14.259  10.132
69772W        W42197  29.520  19.717   4.275
69773W        W42198   9.785   3.864  12.873
69774W        W42199   9.284  19.721  14.453
69775W        W42200  11.265  33.459   0.364
69776W        W42201  31.093  23.054   1.845
69777W        W42202  33.114  37.915   1.796
69778W        W42203  13.812   9.267  11.002
69779W        W42204  17.199  27.538   2.405
69780W        W42205  18.744   2.899   4.296
69781W        W42206  18.754  21.675   0.286
69782W        W42207   6.300   8.291  14.825
69783W        W42208   0.957  14.788  12.578
69784W        W42209  20.646  16.148   0.395
69785W        W42210   7.816  40.048   2.251
69786W        W42211   9.188  25.114  12.560
69787W        W42212  30.439  22.171  14.850
69788W        W42213  22.575  40.019  13.308
69789W        W42214  41.439  44.456  10.562
69790W        W42215  30.563   4.391  14.500
69791W        W42216  31.123  30.153   2.332
69792W        W42217  35.952   9.845   1.250
69793W        W42218  14.789  41.338  13.444
69794W        W42219  24.504   8.286   0.833
69795W        W42220  16.769  29.495   1.273
69796W        W42221  41.892  28.141   5.094
69797W        W42222   1.806  41.365  14.514
69798W        W42223  26.669  38.385   4.831
69799W        W42224   1.844  35.498  10.433
69800W        W42225  34.923  28.151  14.447
69801W        W42226  22.591   6.271  14.445
69802W        W42227  28.463  38.059  13.980
69803W        W42228   1.353  17.562  11.532
69804W        W42229  28.451   2.230  10.637
69805W        W42230  12.361  19.634   2.695
69806W        W42231  44.493   6.822  11.902
69807W        W42232  15.597  27.130   3.314
69808W        W42233  28.589  17.303   1.928
69809W        W42234  13.272   0.798   0.311
69810W        W42235  31.557  23.237  12.871
69811W        W42236  10.643   2.379   4.231
69812W        W42237  11.177  22.213  14.960
69813W        W42238   1.434  25.989  14.817
69814W        W42239   6.413   4.857  11.046
69815W        W42240  44.788  37.078   3.164
69816W        W42241  28.122  11.311   3.360
69817W        W42242  38.053  43.378  12.390
69818W        W42243  18.617  35.408  14.021
69819W        W42244  13.322  12.148  13.516
69820W        W42245  30.560  20.249   1.263
69821W        W42246  28.672  13.771  11.928
69822W        W42247  12.128  44.349  10.936
69823W        W42248   1.908  12.245  13.806
69824W        W42249  18.287  41.307   4.146
69825W        W42250  32.635   2.750   1.271
69826W        W42251   3.947  34.588   1.438
69827W        W42252  14.794  34.978   2.876
69828W        W42253  15.582  14.106   4.270
69829W        W42254  21.636  33.525  11.536
69830W        W42255  13.129  23.154   2.390
69831W        W42256  34.924  11.719   3.758
69832W        W42257   8.766  38.330  14.326
69833W        W42258  31.971  22.185  11.857
69834W        W42259  42.423  20.758   4.166
69835W        W42260  41.325  10.250  11.586
69836W        W42261  26.063  31.486   0.321
69837W        W42262  18.773  41.525   4.269
69838W        W42263  38.877  23.711   4.344
69839W        W42264   3.824  33.012   3.709
69840W        W42265  25.599   1.850   4.771
69841W        W42266  44.380  44.008   3.221
69842W        W42267  42.509  39.029  14.995
69843W        W42268  27.545  16.109  13.997
69844W        W42269  11.223  36.356  14.841
69845W        W42270  23.146  14.330  12.063
69846W        W42271   7.297  40.331   4.619
69847W        W42272  10.266   2.890  11.399
69848W        W42273  19.047  28.557   1.246
69849W        W42274  18.286  14.315   3.837
69850W        W42275  18.176  19.268  14.295
69851W        W42276   5.731  42.401  13.343
69852W        W42277  27.497  16.217   4.190
69853W        W42278  12.200  39.480   0.335
69854W        W42279  37.021   0.398   1.217
69855W        W42280  28.677   0.364   0.802
69856W        W42281  31.535  27.128  10.542
69857W        W42282  31.501   0.296  12.006
69858W        W42283  20.551  35.382   1.835
69859W        W42284   7.694  37.075   3.707
69860W        W42285  42.871   0.975   4.310
69861W        W42286  37.478  29.441   2.690
69862W        W42287  36.592  30.539  14.360
69863W        W42288   8.755  11.806   3.299
69864W        W42289  42.892   4.709   1.923
69865W        W42290   1.289  27.050   1.846
69866W        W42291   5.222   5.326  12.580
69867W        W42292  31.067   7.224   4.712
69868W        W42293  33.607  19.150   1.886
69869W        W42294   6.260  29.467   4.628
69870W        W42295   8.757   4.807   4.708
69871W        W42296   9.818  26.150  13.511
69872W        W42297  11.802   4.245   1.277
69873W        W42298  30.598   6.307  11.012
69874W        W42299  40.349  34.478  13.879
69875W        W42300   2.771  19.581   1.750
69876W        W42301  22.089  42.424  12.971
69877W        W42302   3.747  43.878   1.306
69878W        W42303  19.186  25.214  11.013
69879W        W42304   8.349   8.350  13.808
69880W        W42305  32.977   7.410   1.894
69881W        W42306  41.451   7.394   3.709
69882W        W42307  22.679  44.862  14.856
69883W        W42308  44.413  21.246  13.423
69884W        W42309  36.072  44.453   0.812
69885W        W42310   2.808   5.724   1.893
69886W        W42311   6.846  34.939  10.605
69887W        W42312  20.163  35.589   4.221
69888W        W42313  40.833  42.907   1.256
69889W        W42314  11.157  25.984   4.299
69890W        W42315  35.553  38.461  12.984
69891W        W42316  10.764  19.099  12.521
69892W        W42317  30.479  36.033   0.313
69893W        W42318  32.419  44.837  11.589
69894W        W42319  29.923  30.562   2.321
69895W        W42320  36.462  25.972   0.439
69896W        W42321  33.096   8.682  11.474
69897W        W42322   4.388  38.414  11.922
69898W        W42323  39.380  16.619  13.318
69899W        W42324  35.413  22.235  10.534
69900W        W42325  11.333  18.067  13.885
69901W        W42326  20.705   8.235  12.526
69902W        W42327  39.469   3.322  11.972
69903W        W42328  31.100  17.089   3.730
69904W        W42329   0.809  25.632   4.325
69905W        W42330  24.713  37.562   0.799
69906W        W42331  40.402  22.175  12.013
69907W        W42332   5.438   1.254  10.602
69908W        W42333  10.357  22.519   1.783
69909W        W42334  23.542  18.100  13.439
69910W        W42335  34.985   7.255  12.929
69911W        W42336  33.512   5.279  12.964
69912W        W42337  25.209  14.738   3.806
69913W        W42338  17.621  25.530   2.373
69914W        W42339  33.104  34.119  14.358
69915W        W42340  34.592  15.293   4.821
69916W        W42341  20.031   7.826   2.255
69917W        W42342   5.225  19.218   0.350
69918W        W42343   0.847   5.831  12.437
69919W        W42344  33.950  43.399   4.269
69920W        W42345  24.051  26.193  13.052
69921W        W42346  19.569  40.883   4.633
69922W        W42347  17.263  42.010  12.393
69923W        W42348  19.240   9.243  11.868
69924W        W42349  28.439  13.279  14.434
69925W        W42350  29.070  44.274  12.526
69926W        W42351  32.102   9.241  11.507
69927W        W42352  38.518  25.657   3.677
69928W        W42353  19.637  31.065  10.895
69929W        W42354   2.927  10.350  12.080
69930W        W42355  30.928   1.364  11.878
69931W        W42356  27.007  23.111  11.970
69932W        W42357  11.708  44.830   4.791
69933W        W42358  31.978  12.628  14.406
69934W        W42359  42.951   1.482  13.887
69935W        W42360  16.577  14.738   2.341
69936W        W42361  37.420   0.939  13.860
69937W        W42362  17.583   2.841  12.913
69938W        W42363  20.134  35.508  11.464
69939W        W42364  36.014   5.864  10.999
69940W        W42365  14.704   7.716   3.346
69941W        W42366  23.988   3.402  14.969
69942W        W42367  42.801  41.866  13.473
69943W        W42368  25.135  39.840  14.283
69944W        W42369  10.783  22.596   1.297
69945W        W42370  29.641  38.951   0.329
69946W        W42371  34.955  34.956   2.763
69947W        W42372   8.178   0.976   1.838
69948W        W42373  31.121  20.262   2.369
69949W        W42374  41.013  40.513  14.457
69950W        W42375  14.171  33.115   1.337
69951W        W42376  42.377  27.571  13.822
69952W        W42377  15.720  44.377   4.163
69953W        W42378   9.795  21.756   0.362
69954W        W42379   5.297  26.598   1.443
69955W        W42380  33.132   4.301  11.869
69956W        W42381  25.639  16.081   3.691
69957W        W42382  24.534   9.860   1.233
69958W        W42383  17.258  22.636   2.688
69959W        W42384  41.920  38.058   2.813
69960W        W42385  16.147  26.526  12.823
69961W        W42386  18.723  21.063  11.008
69962W        W42387  43.789  12.308   0.898
69963W        W42388  44.924  25.538   1.769
69964W        W42389   8.671  39.518   0.891
69965W        W42390  25.123  11.183  13.381
69966W        W42391  19.113  31.045  14.411
69967W        W42392   4.284  15.697  10.581
69968W        W42393  14.310  20.055  11.562
69969W        W42394   2.318  31.423  10.423
69970W        W42395   4.424  41.474   3.841
69971W        W42396   0.971  32.914  11.936
69972W        W42397  26.961  13.666  13.532
69973W        W42398  23.985  37.877  13.414
69974W        W42399  16.212  32.114   4.300
69975W        W42400   9.237  39.066   0.461
69976W        W42401  37.013   8.761   5.259
69977W        W42402  33.501  39.530  13.924
69978W        W42403  13.231  44.845  11.068
69979W        W42404  41.328  28.058   3.747
69980W        W42405  33.937  34.473   0.332
69981W        W42406  25.979   7.727   2.181
69982W        W42407  32.012  24.014  11.534
69983W        W42408  40.842   1.828  13.965
69984W        W42409  41.513   7.355   2.223
69985W        W42410  35.557  19.117  10.948
69986W        W42411  40.388  35.974  14.439
69987W        W42412  15.089   4.425  10.466
69988W        W42413  25.217  13.757  12.083
69989W        W42414  22.018   0.473  10.413
69990W        W42415  26.051  42.374  12.413
69991W        W42416  42.392  14.098   2.795
69992W        W42417  33.122  43.341   1.806
69993W        W42418  22.544   3.250   1.888
69994W        W42419   3.746  11.782   5.255
69995W        W42420  13.196  19.545   0.248
69996W        W42421  22.183  21.657   0.855
69997W        W42422  27.583  21.718   0.783
69998W        W42423  37.376   4.939   0.935
69999W        W42424  25.024  10.698   3.812
70000W        W42425  38.008   7.280   4.185
70001W        W42426   7.224  19.755   3.252
70002W        W42427  18.718  21.649   0.764
70003W        W42428  39.502  30.069  13.424
70004W        W42429  15.685  19.596   0.356
70005W        W42430  23.727  16.575  11.429
70006W        W42431  40.463   5.884  13.902
70007W        W42432   7.710  43.923   1.781
70008W        W42433  14.223  39.341  11.894
70009W        W42434   4.255  43.339  13.378
70010W        W42435   9.722  17.122  13.026
70011W        W42436  15.682   2.267   1.804
70012W        W42437  10.834  20.708   3.699
70013W        W42438  29.045  16.176   3.686
70014W        W42439  35.073   2.841  12.430
70015W        W42440   8.830  19.562   4.167
70016W        W42441  33.590  35.928  14.914
70017W        W42442  29.478  33.386   1.402
70018W        W42443  26.683   9.168   3.234
70019W        W42444  26.147  21.104   3.836
70020W        W42445  24.017  39.835   1.221
70021W        W42446   5.852  33.380  12.360
70022W        W42447   8.711   4.768   0.934
70023W        W42448   1.343  36.864   2.865
70024W        W42449  39.381   4.295  12.549
70025W        W42450  30.581  40.857  11.875
70026W        W42451  11.280  14.312   0.773
70027W        W42452  41.845  42.422   4.711
70028W        W42453  40.843  14.243   3.783
70029W        W42454  17.714  37.990  14.800
70030W        W42455  40.320   4.235   0.416
70031W        W42456  18.682  26.050  12.457
70032W        W42457  39.457   2.772   3.710
70033W        W42458   6.425  26.986  11.059
70034W        W42459  18.151  14.727  12.911
70035W        W42460  19.649  32.499   5.214
70036W        W42461   8.326  30.102   0.298
70037W        W42462  21.628  22.709  14.368
70038W        W42463  22.678  28.936   1.770
70039W        W42464  13.621  31.033   4.633
70040W        W42465  11.623  31.008  10.986
70041W        W42466  10.802   2.417  10.439
70042W        W42467   9.188  39.946   5.300
70043W        W42468   4.349   8.786   4.256
70044W        W42469  10.767  11.183  14.814
70045W        W42470  26.990  13.735  12.902
70046W        W42471   6.296  23.501  11.372
70047W        W42472  27.035  30.971  12.965
70048W        W42473  43.452  41.348   3.667
70049W        W42474  35.080  24.527   2.845
70050W        W42475  16.156  40.953   1.771
70051W        W42476  41.911  29.145  14.328
70052W        W42477  28.016  34.047  14.014
70053W        W42478  24.124   3.236  10.993
70054W        W42479  12.685   9.835   1.316
70055W        W42480  14.326  34.511   0.250
70056W        W42481   8.877  20.712  11.500
70057W        W42482  30.489  21.111  12.052
70058W        W42483   8.899  40.827   1.258
70059W        W42484   5.812  17.662   4.637
70060W        W42485   9.879  17.572   4.243
70061W        W42486  26.491  21.252  13.893
70062W        W42487  32.443  43.464   0.901
70063W        W42488  31.603   3.800   0.252
70064W        W42489  25.511  10.143  13.531
70065W        W42490   7.199  26.968   3.823
70066W        W42491  27.173  41.836  12.836
70067W        W42492  24.999  11.628  13.842
70068W        W42493   2.231  28.564   1.748
70069W        W42494  33.497  27.608  12.999
70070W        W42495  15.301  15.705  11.894
70071W        W42496  26.154  39.482  14.378
70072W        W42497  43.417  31.476  13.059
70073W        W42498   1.732   3.805  12.423
70074W        W42499   4.320  35.429  11.097
70075W        W42500  30.142  27.955  10.590
70076W        W42501  17.594  23.027   2.322
70077W        W42502  25.157  16.305  14.809
70078W        W42503  40.836  15.168   2.350
70079W        W42504  17.778  10.231  10.585
70080W        W42505  25.708  16.573   2.839
70081W        W42506  33.387  31.614  11.951
70082W        W42507  16.610  34.106   4.803
70083W        W42508   1.917   5.437  14.830
70084W        W42509  26.533  14.311  14.925
70085W        W42510  23.203  28.178  12.448
70086W        W42511  26.079  35.537  13.535
70087W        W42512  13.703  20.617   0.314
70088W        W42513  35.587   2.328  14.457
70089W        W42514  22.091   9.692   3.741
70090W        W42515  22.225  17.654   3.364
70091W        W42516  36.592   0.943  11.002
70092W        W42517   1.463  13.307  13.859
70093W        W42518  29.499  26.038   3.173
70094W        W42519  16.691  41.477  13.999
70095W        W42520  24.491  21.202  12.551
70096W        W42521  10.312  17.654   2.285
70097W        W42522  10.793  10.856   2.304
70098W        W42523  10.197  14.283  13.931
70099W        W42524   5.702  20.107  10.563
70100W        W42525  43.857  17.207  10.493
70101W        W42526  32.508  40.893   3.854
70102W        W42527  17.120  27.526   3.383
70103W        W42528   8.887  21.669  14.936
70104W        W42529  43.505  42.435   4.256
70105W        W42530   4.869  34.581  13.007
70106W        W42531  23.699  42.466   0.472
70107W        W42532  21.745   7.365   5.163
70108W        W42533   0.861  31.544  10.119
70109W        W42534   3.227  42.304  10.980
70110W        W42535  44.824  10.813   2.690
70111W        W42536   7.700  28.589   4.719
70112W        W42537  30.995   1.460  13.494
70113W        W42538  19.705  11.625  12.514
70114W        W42539  23.583  15.220  10.922
70115W        W42540  23.039   8.714   0.760
70116W        W42541  29.614  14.711   0.852
70117W        W42542  40.320   2.808  10.475
70118W        W42543  32.038  44.889   0.344
70119W        W42544  24.001   0.364  13.014
70120W        W42545  14.770  13.331  12.002
70121W        W42546  21.233  22.715   0.479
70122W        W42547  12.169  25.706   5.692
70123W        W42548  37.896  24.997   2.297
70124W        W42549  38.001  38.022  13.858
70125W        W42550  16.774  25.103  13.480
70126W        W42551   7.289  42.366   4.696
70127W        W42552  24.137  38.917  14.990
70128W        W42553  28.639  11.262  13.467
70129W        W42554  26.664  40.414   4.238
70130W        W42555  27.534  29.598   3.291
70131W        W42556  11.355   2.790   0.726
70132W        W42557   3.320  33.430  13.502
70133W        W42558  17.603  42.923   2.235
70134W        W42559  13.676  37.850   3.819
70135W        W42560   0.413  20.126  13.883
70136W        W42561   8.208  40.366  12.377
70137W        W42562  44.832  10.664   3.364
70138W        W42563  15.254   8.260  11.461
70139W        W42564  32.578  18.549  12.990
70140W        W42565  34.589  42.389   0.914
70141W        W42566  31.065  19.205  13.886
70142W        W42567  44.779   1.296   1.752
70143W        W42568  33.388  29.948   3.766
70144W        W42569  21.584  26.555  13.361
70145W        W42570  11.700  43.880   4.254
70146W        W42571  12.645   7.761   2.374
70147W        W42572  28.459   7.306  14.318
70148W        W42573  28.530  36.088   3.215
70149W        W42574  11.136   4.758   0.246
70150W        W42575  32.019   7.320   5.315
70151W        W42576   6.764  23.656   0.799
70152W        W42577   4.745  15.684  14.915
70153W        W42578   3.232  32.890   2.318
70154W        W42579  36.845  44.954   0.881
70155W        W42580  29.638  42.408  10.152
70156W        W42581   9.830  31.068  11.465
70157W        W42582  33.567  17.082   3.754
70158W        W42583  19.692  35.518   0.418
70159W        W42584   2.275  37.902   0.420
70160W        W42585  25.563  32.980  11.026
70161W        W42586  39.877  41.293  11.907
70162W        W42587  12.307   7.879   3.216
70163W        W42588   2.387   2.870   4.799
70164W        W42589   8.387  29.930  12.537
70165W        W42590  11.723  20.037   1.908
70166W        W42591  28.170   8.249  12.445
70167W        W42592  13.753  38.049  10.435
70168W        W42593  28.094   4.849  11.403
70169W        W42594  19.719  31.596   4.785
70170W        W42595   6.863  43.400   3.280
70171W        W42596  42.504  25.033   2.835
70172W        W42597  24.103   2.811  11.117
70173W        W42598  40.016  44.819   0.856
70174W        W42599  18.119   9.282   2.384
70175W        W42600  11.740  41.391   3.381
70176W        W42601  20.150  38.505  11.930
70177W        W42602   1.284  44.795  13.401
70178W        W42603  30.495  18.767  13.969
70179W        W42604  26.607   5.253  13.938
70180W        W42605  19.665  36.446  11.044
70181W        W42606  12.680  38.474   2.770
70182W        W42607  10.781  22.566   2.866
70183W        W42608  27.573  22.168  14.502
70184W        W42609  19.161  41.984   2.255
70185W        W42610   3.305  38.438   4.268
70186W        W42611  35.084   1.293   0.375
70187W        W42612   5.344   8.403   0.827
70188W        W42613  11.817  35.029   0.437
70189W        W42614  20.243  36.066  11.410
70190W        W42615  41.994  33.877   0.893
70191W        W42616  19.725  19.587   1.756
70192W        W42617   9.349  20.227  11.541
70193W        W42618  23.042  22.166   1.925
70194W        W42619   7.866  21.638  14.315
70195W        W42620  26.991  16.263   4.704
70196W        W42621  11.739  21.175  10.486
70197W        W42622  16.793   7.220  10.568
70198W        W42623  35.501  22.656   0.913
70199W        W42624   0.354  26.688   2.893
70200W        W42625  36.903   3.450   4.633
70201W        W42626  35.891  40.896   2.399
70202W        W42627  21.551   2.394  13.985
70203W        W42628  20.668  37.366   0.825
70204W        W42629  28.458   3.432  14.829
70205W        W42630  22.660  21.167   0.817
70206W        W42631   0.487  42.932  12.028
70207W        W42632  34.510  40.827   4.236
70208W        W42633  36.485  18.644  13.387
70209W        W42634  18.156  24.981  14.399
70210W        W42635  38.522  23.053  12.895
70211W        W42636   6.220   7.390   4.717
70212W        W42637  28.067  24.142  13.823
70213W        W42638  16.793  32.949  13.927
70214W        W42639   8.823  44.466   0.761
70215W        W42640   2.911  15.757  14.955
70216W        W42641  26.126  44.932   1.696
70217W        W42642  24.051  42.791  10.418
70218W        W42643  21.160  21.096   1.802
70219W        W42644  39.327  26.091  13.407
70220W        W42645  21.512  22.081  14.280
70221W        W42646  29.511  20.769  12.973
70222W        W42647  24.489   8.230   3.794
70223W        W42648  16.275  38.841   4.600
70224W        W42649  39.388  42.829   1.375
70225W        W42650  34.426  12.672  13.053
70226W        W42651  39.337  30.652   1.869
70227W        W42652  27.588  20.178  12.553
70228W        W42653  40.538  31.041  13.924
70229W        W42654  28.438  37.508  14.837
70230W        W42655   4.206  38.445   2.203
70231W        W42656   6.703  40.845  12.552
70232W        W42657   3.360  42.429  14.354
70233W        W42658  37.388   6.374   1.708
70234W        W42659  16.595   3.215  13.422
70235W        W42660   9.294  19.192   1.743
70236W        W42661  42.502   1.443   2.218
70237W        W42662  43.397  33.941   4.301
70238W        W42663  10.867   6.759  12.042
70239W        W42664  35.561  11.652  12.417
70240W        W42665  15.208  18.583   1.273
70241W        W42666  27.464  18.570  11.120
70242W        W42667  43.297  18.095  13.886
70243W        W42668   3.276  11.357   0.367
70244W        W42669  24.160  32.557   1.354
70245W        W42670  28.485   9.299  11.127
70246W        W42671  44.978  13.790  12.966
70247W        W42672  31.619   5.802   4.133
70248W        W42673  16.665  15.741   3.723
70249W        W42674  19.663   7.307   2.718
70250W        W42675  36.583  26.196   3.755
70251W        W42676  33.979  21.126   2.180
70252W        W42677  36.992  38.344  12.961
70253W        W42678  20.724  33.910   2.714
70254W        W42679   7.340  16.810  11.976
70255W        W42680   8.164  32.591   0.458
70256W        W42681  29.508  14.832  13.004
70257W        W42682  40.043  33.507  13.413
70258W        W42683  27.162  40.957  10.906
70259W        W42684  24.483  24.007  10.949
70260W        W42685  32.562  40.367  12.055
70261W        W42686  22.031  39.811  14.797
70262W        W42687  41.864   9.826   4.278
70263W        W42688  30.936  11.788  13.825
70264W        W42689  30.419  22.640   2.253
70265W        W42690   7.314  38.411   2.325
70266W        W42691  28.141  39.354   0.966
70267W        W42692  40.403  22.061   2.397
70268W        W42693  23.101   0.379  13.359
70269W        W42694   7.290  37.378  14.976
70270W        W42695   1.951  18.776   2.268
70271W        W42696   5.277  42.385   0.371
70272W        W42697  12.789   9.844  10.609
70273W        W42698  43.440  30.656   0.762
70274W        W42699   2.901  35.922   0.350
70275W        W42700  36.095  12.852   3.221
70276W        W42701  18.754  19.099  14.313
70277W        W42702  22.693   6.298   4.193
70278W        W42703  15.108  29.159  11.900
70279W        W42704   8.309  34.405  12.458
70280W        W42705  28.514  15.244  12.045
70281W        W42706  34.938  25.147   3.784
70282W        W42707   3.843   4.355   3.801
70283W        W42708  39.001  30.486  10.592
70284W        W42709  43.901  12.825   4.827
70285W        W42710  31.433  10.788  12.837
70286W        W42711   9.214  44.779   0.476
70287W        W42712  44.892  21.034   0.271
70288W        W42713  18.235  35.063   2.864
70289W        W42714  29.588   8.336   2.792
70290W        W42715  12.314   5.254   0.944
70291W        W42716  35.933  36.497  13.322
70292W        W42717  41.973   1.350  10.915
70293W        W42718  27.622  40.339  13.457
70294W        W42719  21.261  43.967   3.167
70295W        W42720  38.863  12.279  12.499
70296W        W42721  38.016  34.568   3.824
70297W        W42722  12.710  24.074  11.049
70298W        W42723   4.797  25.647   3.260
70299W        W42724  17.652   6.286  10.068
70300W        W42725   4.846  35.512   1.907
70301W        W42726  37.458  34.513  13.048
70302W        W42727  31.008   0.789   2.305
70303W        W42728  12.638  42.793  13.479
70304W        W42729  11.749  33.417  12.077
70305W        W42730  42.940  10.750  14.353
70306W        W42731   7.315   6.747   1.376
70307W        W42732  33.525  30.502   0.345
70308W        W42733  27.633  19.241  14.315
70309W        W42734   4.846  22.561  12.502
70310W        W42735  44.383  11.691   1.280
70311W        W42736   7.824  37.008  11.047
70312W        W42737  10.849   0.793   0.946
70313W        W42738  36.485   8.805   5.615
70314W        W42739   6.867   4.766  11.933
70315W        W42740   8.768  44.386   5.098
70316W        W42741  44.763  23.080  13.433
70317W        W42742   9.727  43.954  11.942
70318W        W42743  21.621   0.254  12.386
70319W        W42744   8.162   3.290   5.175
70320W        W42745  27.553  38.336  13.984
70321W        W42746  12.211  44.444  11.420
70322W        W42747  22.640  12.828   3.234
70323W        W42748  13.680  39.438   0.245
70324W        W42749  24.708  39.491   2.281
70325W        W42750   7.755   6.815   4.334
70326W        W42751  24.138  36.075   3.807
70327W        W42752  44.841   9.352  12.091
70328W        W42753  40.963  36.571   3.178
70329W        W42754   7.911  20.263   0.846
70330W        W42755  34.999  29.064  13.912
70331W        W42756  15.682   8.860   2.759
70332W        W42757  12.723  27.118  14.834
70333W        W42758  30.438  22.067   5.085
70334W        W42759  11.865   1.816  11.111
70335W        W42760  43.974  37.581  14.889
70336W        W42761  14.297   4.295   1.368
70337W        W42762  43.015   1.746   2.234
70338W        W42763  19.762   7.826   3.371
70339W        W42764   2.381  19.055  14.392
70340W        W42765  41.000   8.221   4.240
70341W        W42766  16.281  23.545   0.448
70342W        W42767  14.698  17.785  12.394
70343W        W42768  21.067  23.989  13.457
70344W        W42769  24.137  21.738   1.711
70345W        W42770  31.948  31.976   0.787
70346W        W42771  24.515  12.678  12.371
70347W        W42772  26.586  11.732  11.865
70348W        W42773  17.122   2.795  11.457
70349W        W42774  27.181  15.328   1.292
70350W        W42775  36.552  19.052  10.942
70351W        W42776   6.342  27.464  11.584
70352W        W42777  15.266  43.767  14.782
70353W        W42778  16.763  10.159  11.941
70354W        W42779  12.717  20.760   4.604
70355W        W42780  27.072   9.738   0.852
70356W        W42781  23.657  23.232   3.164
70357W        W42782   6.856  16.704  12.985
70358W        W42783  22.135  44.793   1.734
70359W        W42784  21.549  35.433  10.482
70360W        W42785  44.348  33.605   2.784
70361W        W42786  31.930  35.563  13.953
70362W        W42787  26.204  24.181  14.456
70363W        W42788  10.339  40.996   1.427
70364W        W42789  16.629  26.626   2.767
70365W        W42790  28.518  40.366  11.578
70366W        W42791  18.082   6.421  13.950
70367W        W42792  17.580  43.767   4.151
70368W        W42793  13.647  12.230  10.523
70369W        W42794  12.362  17.782  13.339
70370W        W42795  34.418   3.886  14.335
70371W        W42796  40.453  26.074   1.758
70372W        W42797  31.603  29.463  13.991
70373W        W42798  25.118  13.776  10.525
70374W        W42799  36.849   2.795   2.833
70375W        W42800  20.117  43.272   1.740
70376W        W42801   1.334   7.415   1.373
70377W        W42802  27.578   0.982  13.820
70378W        W42803  20.692  14.317   2.826
70379W        W42804  35.436  17.593   0.737
70380W        W42805  29.425  27.457   0.435
70381W        W42806  39.323  39.391   3.786
70382W        W42807  17.173  28.985  13.968
70383W        W42808   5.376  17.609   1.291
70384W        W42809  23.681  42.443   2.805
70385W        W42810  27.656  37.008  11.585
70386W        W42811  15.602  20.750  10.499
70387W        W42812  16.776  41.468  14.770
70388W        W42813  32.983  10.806   2.267
70389W        W42814  15.324  38.895   4.783
70390W        W42815  21.199  30.077   3.780
70391W        W42816  44.828  17.065   4.319
70392W        W42817  34.550  27.105   2.864
70393W        W42818  14.610  11.821   1.854
70394W        W42819  39.940  35.028   4.266
70395W        W42820  44.975  26.081  13.395
70396W        W42821  18.751  21.717  10.947
70397W        W42822  29.934  11.264   4.647
70398W        W42823  16.610   4.442  10.905
70399W        W42824   8.372  30.589  11.413
70400W        W42825  28.622  15.636  13.373
70401W        W42826   0.467  39.528  10.941
70402W        W42827  21.136  10.354  10.620
70403W        W42828   8.269  42.002  10.463
70404W        W42829  16.091  41.348   4.751
70405W        W42830   2.735  21.184  12.083
70406W        W42831  42.004  37.378  12.395
70407W        W42832  23.720  16.104   2.185
70408W        W42833  35.481  31.941  14.920
70409W        W42834  31.503  17.784  11.030
70410W        W42835  44.385  28.069   4.675
70411W        W42836  33.085   8.340   3.673
70412W        W42837  37.073  39.392  10.624
70413W        W42838  22.150   8.738  13.852
70414W        W42839   6.198  17.644   0.822
70415W        W42840   8.242   7.890   2.876
70416W        W42841   6.715  19.119   3.772
70417W        W42842   8.739  29.614  13.821
70418W        W42843  36.554   2.238   3.235
70419W        W42844   2.908  24.514  12.395
70420W        W42845  28.009  12.322  11.950
70421W        W42846  19.216  30.510  12.464
70422W        W42847  35.102  20.626   3.865
70423W        W42848   5.216  30.050  10.533
70424W        W42849  13.612  36.586  11.395
70425W        W42850  37.982   0.789  14.382
70426W        W42851  27.557  30.465   4.144
70427W        W42852   7.797  17.103   4.197
70428W        W42853  37.416   3.834   5.145
70429W        W42854  40.518  35.370   2.276
70430W        W42855  12.854   1.405   1.740
70431W        W42856  19.264  22.565  11.545
70432W        W42857  11.700  30.090  11.075
70433W        W42858   6.319  32.398  11.122
70434W        W42859  18.695   0.979   0.901
70435W        W42860  37.875  43.332  11.560
70436W        W42861   9.159  43.790  11.944
70437W        W42862  29.081  39.919  12.363
70438W        W42863  14.764  41.968   1.303
70439W        W42864   6.257  25.976   1.771
70440W        W42865  16.639  16.161  12.560
70441W        W42866   7.207   8.656  10.891
70442W        W42867  26.635   4.738   3.646
70443W        W42868   2.413   6.696   4.250
70444W        W42869  43.482  10.777   4.759
70445W        W42870   8.870  34.514  14.320
70446W        W42871   3.809   0.770  13.014
70447W        W42872  16.175  41.016  13.949
70448W        W42873  32.483  14.315   1.446
70449W        W42874  17.306  29.127   3.723
70450W        W42875  25.198  44.760  12.008
70451W        W42876   3.318  17.737  14.368
70452W        W42877  34.454  41.536  14.500
70453W        W42878  25.006  21.670   4.138
70454W        W42879  21.730  20.543  13.850
70455W        W42880   9.213  17.766   4.686
70456W        W42881   5.370  12.690  14.888
70457W        W42882  22.143  21.052   0.917
70458W        W42883   7.759  35.565   1.280
70459W        W42884  22.660   3.427  13.854
70460W        W42885  17.062  35.563   1.904
70461W        W42886  30.060  29.975  13.334
70462W        W42887   6.775  27.139   1.812
70463W        W42888   0.899  13.289   4.259
70464W        W42889  18.245  41.467  14.321
70465W        W42890  28.936  44.947  10.620
70466W        W42891  44.450   4.892   3.177
70467W        W42892  14.714  13.719  12.013
70468W        W42893  21.153  25.047   3.695
70469W        W42894  35.487  33.601  14.857
70470W        W42895   7.291  17.721   0.483
70471W        W42896  41.031  30.499   3.708
70472W        W42897  34.989  23.127  13.464
70473W        W42898  43.310  19.197  14.960
70474W        W42899   3.354  16.574   2.245
70475W        W42900   7.860  35.906  11.567
70476W        W42901   9.687  33.620   1.891
70477W        W42902  42.850  16.801   2.407
70478W        W42903  39.368  11.135  10.609
70479W        W42904  24.590  43.395  13.477
70480W        W42905  28.109  28.973  10.602
70481W        W42906   7.729  17.647  11.041
70482W        W42907  15.809  37.533   3.676
70483W        W42908  15.779  30.140   3.172
70484W        W42909   3.933  21.109  12.824
70485W        W42910  43.787   5.343   3.755
70486W        W42911  36.514  32.601   3.869
70487W        W42912  27.648  40.953   4.245
70488W        W42913   7.396  35.508  12.420
70489W        W42914  25.121  44.409   1.426
70490W        W42915  30.578  21.181   2.249
70491W        W42916  15.712  36.882   2.292
70492W        W42917  19.188  25.652   2.226
70493W        W42918  35.904   8.168   1.231
70494W        W42919   9.232  21.146   5.121
70495W        W42920  10.223  22.236  13.505
70496W        W42921  28.621  28.069   0.263
70497W        W42922  21.579  23.703  12.561
70498W        W42923  44.791   7.188   3.798
70499W        W42924  14.238  33.929  14.361
70500W        W42925  36.593  23.157  14.451
70501W        W42926  29.483   4.385  12.483
70502W        W42927  44.826   6.258   0.259
70503W        W42928  26.612  26.647  12.927
70504W        W42929  25.650  16.704   1.425
70505W        W42930   5.877  33.886  13.545
70506W        W42931   1.282  36.566  12.861
70507W        W42932  14.746   2.393  13.981
70508W        W42933  30.944  35.024   3.699
70509W        W42934  24.178   5.310   0.782
70510W        W42935  39.355  15.617   0.906
70511W        W42936  30.164  41.948  11.397
70512W        W42937  36.577  24.221  10.482
70513W        W42938  36.430  37.979  12.402
70514W        W42939  42.326  40.358   4.838
70515W        W42940   6.249   0.326  10.127
70516W        W42941   2.940  29.032   0.921
70517W        W42942  24.178  33.059   3.662
70518W        W42943  14.278  32.526  11.868
70519W        W42944  11.265  22.230  13.966
70520W        W42945  42.415  26.632   3.374
70521W        W42946   5.817  23.519   1.881
70522W        W42947   8.216   2.283  13.811
70523W        W42948  37.874  27.996  11.917
70524W        W42949   7.792  36.428   3.788
70525W        W42950  11.158   1.900  14.424
70526W        W42951  13.301   9.847   4.658
70527W        W42952   8.312  38.993  11.090
70528W        W42953  29.479  39.808   1.724
70529W        W42954  18.190  26.050  10.961
70530W        W42955  13.184  19.110  13.021
70531W        W42956  18.571  28.130  13.840
70532W        W42957  29.954   0.372  14.817
70533W        W42958  19.102  14.773  12.986
70534W        W42959  24.493  12.627   3.217
70535W        W42960  12.150  33.524  14.997
70536W        W42961  17.087  31.471   3.652
70537W        W42962  35.048  19.615   3.768
70538W        W42963   3.321  24.536   0.900
70539W        W42964   5.879  38.013   0.874
70540W        W42965   6.814  15.608   2.264
70541W        W42966  38.028   0.787   1.781
70542W        W42967  26.091  44.323   3.854
70543W        W42968  42.397  27.169  10.621
70544W        W42969  13.693  39.846  12.418
70545W        W42970  34.871  38.453  10.527
70546W        W42971  33.071  33.939   1.240
70547W        W42972  14.128  42.512  11.497
70548W        W42973   1.804  43.778   2.276
70549W        W42974  29.991  35.104   3.220
70550W        W42975   9.375   1.798   4.690
70551W        W42976  24.587   7.792   0.360
70552W        W42977  29.138  40.926   3.220
70553W        W42978  38.968  40.394   4.202
70554W        W42979   1.921  10.835  14.902
70555W        W42980   7.374  43.429  11.951
70556W        W42981  37.982  40.896   0.912
70557W        W42982  38.862  12.840  13.455
70558W        W42983   3.336  27.456  10.544
70559W        W42984   6.182  10.271  13.445
70560W        W42985  16.813   8.872   3.146
70561W        W42986  16.298  38.518   1.719
70562W        W42987  35.418  35.488  10.548
70563W        W42988  28.676  21.522   1.756
70564W        W42989   5.366   3.420   3.187
70565W        W42990   2.838  28.666   3.697
70566W        W42991  36.961  31.975   4.130
70567W        W42992  18.583  17.296  11.419
70568W        W42993  31.955  38.553   3.299
70569W        W42994  41.820  20.252   3.364
70570W        W42995  34.898  12.199   4.167
70571W        W42996  34.561  31.109   0.308
70572W        W42997  41.908  12.140   1.312
70573W        W42998  32.414  44.971  10.994
70574W        W42999  44.993   7.761  13.379
70575W        W43000  35.509  15.140  14.800
70576W        W43001  35.520  25.195  14.516
70577W        W43002  14.188  24.561   4.678
70578W        W43003  31.497  22.684  10.542
70579W        W43004  35.587  16.300   3.187
70580W        W43005  18.064  39.997   2.220
70581W        W43006   7.889  14.598  13.954
70582W        W43007  22.638  33.075   4.773
70583W        W43008  38.011  12.794  12.352
70584W        W43009  26.149  26.516  10.924
70585W        W43010  39.478  15.272  11.472
70586W        W43011  37.972   4.337   2.194
70587W        W43012  24.508  30.128  12.900
70588W        W43013   9.876  15.725  13.541
70589W        W43014  20.667  31.576  13.998
70590W        W43015   5.371  43.509   4.754
70591W        W43016  29.051  19.149   0.356
70592W        W43017  17.128   7.287  12.937
70593W        W43018  37.893  39.435  12.436
70594W        W43019   5.845  31.008   4.121
70595W        W43020   3.268   8.287  14.921
70596W        W43021  14.693  30.456  11.985
70597W        W43022  16.708  14.591  11.462
70598W        W43023  23.637   9.726   0.406
70599W        W43024  28.039  20.663   1.863
70600W        W43025  27.591  43.923   1.833
70601W        W43026   5.437  25.177  13.044
70602W        W43027  26.655   9.308   1.210
70603W        W43028  18.163  41.934   3.708
70604W        W43029  37.026  38.839  13.962
70605W        W43030   7.895  33.056  13.877
70606W        W43031  39.530  41.815  10.600
70607W        W43032  33.613  42.860   1.394
70608W        W43033  42.372  40.343  13.792
70609W        W43034  23.995  41.381   1.246
70610W        W43035  34.450  15.592  13.519
70611W        W43036  31.148  25.072  10.508
70612W        W43037  34.999  11.193   3.858
70613W        W43038   6.855  32.943   1.763
70614W        W43039  40.386  40.956  12.406
70615W        W43040  40.499   6.830   1.240
70616W        W43041  12.813  41.315   3.332
70617W        W43042  31.142  40.962   0.874
70618W        W43043   7.203  17.112  13.528
70619W        W43044   6.285  43.411   0.836
70620W        W43045  22.541  32.420   2.230
70621W        W43046  12.831   1.354   2.719
70622W        W43047  23.680  10.877   0.369
70623W        W43048  30.434  16.811   3.684
70624W        W43049  37.431  21.201   4.134
70625W        W43050   9.202  35.417  13.015
70626W        W43051  31.545  11.194  12.427
70627W        W43052  22.077  10.249  13.055
70628W        W43053  11.365  37.975   2.899
70629W        W43054  10.316  27.488  13.384
70630W        W43055   9.714  14.162  13.526
70631W        W43056  24.574   4.763  11.396
70632W        W43057   2.328  39.929  10.420
70633W        W43058  20.077  16.268  12.041
70634W        W43059   9.199  12.270   3.268
70635W        W43060  27.162   6.754  12.063
70636W        W43061  30.414  23.005  13.891
70637W        W43062  32.036  40.354   4.662
70638W        W43063  26.498  15.316  14.343
70639W        W43064  40.802  29.125   0.376
70640W        W43065  28.076  11.193  12.863
70641W        W43066  44.397   0.884  10.133
70642W        W43067  29.431  34.105   1.230
70643W        W43068  44.451  40.941  11.866
70644W        W43069   7.328  18.559  12.949
70645W        W43070   1.866   6.372  10.573
70646W        W43071  28.185  15.241  13.993
70647W        W43072  39.533   0.890  10.451
70648W        W43073  30.953   2.405   1.769
70649W        W43074  32.045  16.617   4.747
70650W        W43075  19.715  11.831   4.713
70651W        W43076  10.239  22.073   3.778
70652W        W43077  44.822   0.452   2.721
70653W        W43078  37.984  38.395   4.258
70654W        W43079  36.024   5.269  14.341
70655W        W43080  39.490  21.208   1.868
70656W        W43081  40.022   4.224  12.926
70657W        W43082  24.699  33.908   0.740
70658W        W43083   6.195  44.875   4.125
70659W        W43084   2.786  13.817  14.475
70660W        W43085  27.037  29.979  11.925
70661W        W43086  35.025   2.771  13.466
70662W        W43087  36.370   8.862   3.216
70663W        W43088  36.939  15.663  12.577
70664W        W43089  33.058  33.022  14.284
70665W        W43090  21.261  38.999   2.316
70666W        W43091  10.257  29.037   3.744
70667W        W43092  38.861  29.163  10.497
70668W        W43093  35.924  24.694   2.307
70669W        W43094  11.300  40.974  10.440
70670W        W43095   3.710  24.519   0.390
70671W        W43096  30.492  16.087  13.818
70672W        W43097  44.888  10.367  13.849
70673W        W43098  20.674  36.497  13.813
70674W        W43099   5.809   9.348   2.352
70675W        W43100  44.268  26.631  10.147
70676W        W43101  16.706   2.236   1.755
70677W        W43102   1.379  36.541  12.037
70678W        W43103  12.138   3.815  12.561
70679W        W43104  18.089   7.358   2.207
70680W        W43105   9.703   3.905   4.703
70681W        W43106  14.175  24.983  12.534
70682W        W43107  11.262  11.283  12.357
70683W        W43108  31.615   2.396  14.020
70684W        W43109   9.203   4.867   0.321
70685W        W43110  24.536  26.985   0.316
70686W        W43111   7.788  16.153   1.340
70687W        W43112   6.733  10.266   2.714
70688W        W43113  26.507   7.366  10.902
70689W        W43114  14.794  15.211  13.377
70690W        W43115  22.024  35.964   1.929
70691W        W43116   8.825   3.955   0.441
70692W        W43117   4.381   5.705  12.067
70693W        W43118  24.684  27.470   0.441
70694W        W43119  14.684  23.073   1.879
70695W        W43120  19.190  11.188  11.092
70696W        W43121  43.995   3.953  14.355
70697W        W43122   4.289   9.789   1.899
70698W        W43123   9.744   6.832  14.882
70699W        W43124  35.962  30.079   0.932
70700W        W43125  26.091   2.941  10.559
70701W        W43126  24.980  18.728   1.723
70702W        W43127  34.110  32.637   0.759
70703W        W43128  18.744   6.197   0.746
70704W        W43129  31.993  38.909   0.484
70705W        W43130  44.464   3.810  13.399
70706W        W43131  22.229  31.514  11.549
70707W        W43132  27.606  10.663  13.833
70708W        W43133  36.444  13.649   4.782
70709W        W43134  28.000  17.288  10.561
70710W        W43135  23.679  30.060   0.321
70711W        W43136  24.140  26.693  10.509
70712W        W43137   1.310  34.096   3.740
70713W        W43138  40.342  41.972   1.243
70714W        W43139  14.799  30.496   4.258
70715W        W43140  26.070  25.486   0.829
70716W        W43141  15.718  10.258   1.765
70717W        W43142  39.371  35.012   0.282
70718W        W43143  35.411  27.458  13.816
70719W        W43144  40.047  42.848   4.649
70720W        W43145  26.160  26.105   2.830
70721W        W43146  30.547  37.944  10.439
70722W        W43147  21.583  41.791   2.178
70723W        W43148  29.125  35.503  10.502
70724W        W43149  44.893   9.862  10.427
70725W        W43150  40.383  29.438   3.300
70726W        W43151  20.219  36.983   1.217
70727W        W43152  42.344  30.965   3.708
70728W        W43153  14.731   2.332   0.316
70729W        W43154  42.441   9.186  12.569
70730W        W43155  12.816  19.621   1.284
70731W        W43156   7.383  19.149   0.292
70732W        W43157   6.913  11.329  10.509
70733W        W43158  24.586  13.639  14.016
70734W        W43159  13.223  23.622   0.361
70735W        W43160  44.363  32.925   3.242
70736W        W43161  39.943  43.020   0.826
70737W        W43162  16.150  23.996  13.914
70738W        W43163  18.634  18.720  11.534
70739W        W43164  12.232  28.096   3.189
70740W        W43165  11.741  31.912  11.548
70741W        W43166  16.683   6.874  12.838
70742W        W43167  14.699  24.614   2.406
70743W        W43168   4.335  27.670   1.445
70744W        W43169  33.425  23.625  13.064
70745W        W43170  10.638  40.966  12.002
70746W        W43171   6.413   0.348  12.020
70747W        W43172   6.689  25.971   0.961
70748W        W43173   4.450  21.716   1.334
70749W        W43174   2.733  33.002  12.827
70750W        W43175  40.340  22.623  14.359
70751W        W43176  42.775   5.246  13.933
70752W        W43177  23.996  20.243  12.529
70753W        W43178  26.512  10.855  10.582
70754W        W43179  29.042   0.796  12.847
70755W        W43180  44.476  29.922   4.675
70756W        W43181  24.669  37.892  14.468
70757W        W43182  13.216   4.328  11.086
70758W        W43183  44.261  10.138  14.387
70759W        W43184  17.072   2.368  10.942
70760W        W43185  40.371  18.287  14.432
70761W        W43186  41.373  28.958   3.212
70762W        W43187  11.851  44.797   4.342
70763W        W43188  26.482  14.828  14.817
70764W        W43189  36.910  36.983  11.077
70765W        W43190  21.685  11.197  12.447
70766W        W43191  29.463  30.018   3.763
70767W        W43192   0.417  40.475   3.241
70768W        W43193  33.385   0.796   2.821
70769W        W43194  14.609  12.779  13.802
70770W        W43195  38.904   3.824   4.659
70771W        W43196  20.244   1.782   2.896
70772W        W43197  10.359  40.925  11.956
70773W        W43198  39.942   6.880  14.013
70774W        W43199  37.883   5.792   2.184
70775W        W43200  24.480  18.224  14.772
70776W        W43201  33.899   0.301   2.322
70777W        W43202   2.268  26.087   2.246
70778W        W43203  22.013  21.742  10.557
70779W        W43204  10.346   7.281   0.420
70780W        W43205  36.986  42.809  11.473
70781W        W43206  26.100  43.295  10.464
70782W        W43207  34.029  10.691   2.256
70783W        W43208   0.766  32.095   1.417
70784W        W43209   5.363  39.816  10.941
70785W        W43210   3.329   5.386   3.789
70786W        W43211  17.655  40.330  12.380
70787W        W43212  24.705  25.142   2.728
70788W        W43213  21.142   1.386   3.335
70789W        W43214  23.608  37.042  10.940
70790W        W43215  31.122  33.129  12.995
70791W        W43216  18.261  14.223   4.616
70792W        W43217  44.498   4.379   3.855
70793W        W43218   4.282  34.903  10.581
70794W        W43219  13.305  38.018  11.423
70795W        W43220   4.708   0.392   4.200
70796W        W43221  25.163  14.785  13.405
70797W        W43222  43.816  33.936   2.199
70798W        W43223   9.194  29.549  10.003
70799W        W43224  34.054  10.207   0.947
70800W        W43225  24.488   0.761  13.797
70801W        W43226  39.465  43.870   2.381
70802W        W43227  26.475  23.540  11.977
70803W        W43228   9.670   1.819  10.909
70804W        W43229  32.477   8.745   2.340
70805W        W43230  34.101  42.917   0.329
70806W        W43231  17.239  38.507   4.142
70807W        W43232   4.367  14.335   3.715
70808W        W43233  15.788  39.064  12.389
70809W        W43234  35.400  17.713  11.896
70810W        W43235   9.170  37.402   0.264
70811W        W43236  18.282  17.165  12.419
70812W        W43237  44.422  15.779   0.397
70813W        W43238   7.214   4.797  11.067
70814W        W43239  19.659  35.944  12.927
70815W        W43240  37.053  44.821   4.826
70816W        W43241  43.314  34.106   9.500
70817W        W43242  44.931  31.958  13.943
70818W        W43243  15.140  23.130  12.545
70819W        W43244   5.422   9.804   2.738
70820W        W43245  44.899  25.564   3.152
70821W        W43246  34.569  39.938  13.472
70822W        W43247  15.722  13.273   1.850
70823W        W43248  22.126  16.685  13.036
70824W        W43249  26.534  28.003   4.763
70825W        W43250  39.481  13.764   0.400
70826W        W43251  18.101  27.596  12.466
70827W        W43252  31.536  19.584  14.800
70828W        W43253  23.668  35.515  14.988
70829W        W43254  14.102  17.606   1.791
70830W        W43255  12.238  36.993  14.939
70831W        W43256  11.159  36.477   2.866
70832W        W43257  14.177  44.796   0.304
70833W        W43258   8.901  23.619  10.436
70834W        W43259  36.396  37.000   3.667
70835W        W43260   7.285   9.715   3.340
70836W        W43261  43.360   5.384   3.706
70837W        W43262  16.675   3.889  10.599
70838W        W43263  36.538   0.336  13.445
70839W        W43264   3.768  13.229   0.890
70840W        W43265  11.229   8.742  14.280
70841W        W43266  31.078  36.416   4.324
70842W        W43267  13.197  22.587  10.026
70843W        W43268  38.975   0.354   1.883
70844W        W43269  25.630  37.525  14.343
70845W        W43270   6.335  10.192   0.361
70846W        W43271  41.855  33.126  13.402
70847W        W43272  15.714  43.394  11.912
70848W        W43273  38.874  12.282  12.929
70849W        W43274  37.405  22.156   3.752
70850W        W43275  23.180  10.803   5.307
70851W        W43276  14.788  17.262   4.831
70852W        W43277  25.518  36.097   4.253
70853W        W43278  13.802  21.102   0.429
70854W        W43279  41.508   6.688  12.865
70855W        W43280  17.742   6.254  13.914
70856W        W43281  15.817  30.570   0.251
70857W        W43282  36.412   6.913  11.061
70858W        W43283  40.868   4.317  12.414
70859W        W43284  41.509  28.437   1.856
70860W        W43285  43.488  22.714   1.344
70861W        W43286   9.690   4.861  14.356
70862W        W43287  28.101  34.925   2.390
70863W        W43288  29.974  12.278  12.888
70864W        W43289  22.543  24.672  13.043
70865W        W43290   5.755  26.996  13.341
70866W        W43291   0.873  16.595   1.437
70867W        W43292   5.722  34.502  11.598
70868W        W43293  21.158  37.383   4.304
70869W        W43294  33.996   4.782  11.502
70870W        W43295  42.814  29.538  10.908
70871W        W43296  37.913  21.579  11.119
70872W        W43297  16.318  39.967   0.468
70873W        W43298  24.695  35.027   2.210
70874W        W43299   9.876  28.979  13.852
70875W        W43300  42.818  17.299   1.714
70876W        W43301   3.786   3.420  14.282
70877W        W43302   1.770  34.510   4.287
70878W        W43303  12.219  34.914  14.975
70879W        W43304  39.052  35.866  10.545
70880W        W43305  19.665  10.742  10.026
70881W        W43306  13.140  32.581   0.733
70882W        W43307   3.436  24.521  10.545
70883W        W43308   8.892  16.688  14.422
70884W        W43309  29.646  32.998   3.793
70885W        W43310  13.195  20.528  11.531
70886W        W43311  12.169  10.833  11.927
70887W        W43312  29.609   0.778  11.861
70888W        W43313  29.131   5.843   1.345
70889W        W43314  10.328   5.755   4.672
70890W        W43315  22.098  35.893   2.731
70891W        W43316   6.703   0.463   1.707
70892W        W43317  16.128   8.334   4.168
70893W        W43318  13.274  12.335   2.292
70894W        W43319  34.962  43.459   2.725
70895W        W43320  14.330  43.344   2.662
70896W        W43321  31.966  14.149   3.288
70897W        W43322  38.346  30.912  13.856
70898W        W43323  35.088  30.127  11.016
70899W        W43324  19.572  33.499   3.743
70900W        W43325  42.854  44.958  12.579
70901W        W43326  18.590   4.226  14.480
70902W        W43327   0.908   9.791  14.956
70903W        W43328  30.970  20.118   0.761
70904W        W43329  19.257   7.276   4.667
70905W        W43330  23.030  37.950   4.667
70906W        W43331  36.460  32.395   0.770
70907W        W43332  23.099  30.137  14.430
70908W        W43333  33.110  16.226  14.890
70909W        W43334  32.004  21.729  11.571
70910W        W43335  24.715  23.534   4.268
70911W        W43336  12.279  33.618   0.256
70912W        W43337  35.110  32.094  10.578
70913W        W43338   4.747   3.446  11.031
70914W        W43339  13.256  44.298   5.083
70915W        W43340  11.204   2.444   4.822
70916W        W43341   6.263  12.290   4.779
70917W        W43342  22.647  28.142  11.410
70918W        W43343  28.534   0.802   4.661
70919W        W43344  34.097  32.938  10.942
70920W        W43345  24.646  35.959   2.716
70921W        W43346  19.741  24.504   2.282
70922W        W43347  40.540   0.866  12.390
70923W        W43348  25.578   2.338  12.953
70924W        W43349   9.153  11.292  13.346
70925W        W43350  32.462  37.549   0.799
70926W        W43351   8.879  22.503  14.799
70927W        W43352  43.305   9.183   0.790
70928W        W43353  20.577  15.594  12.484
70929W        W43354  20.055   2.344   3.712
70930W        W43355  10.262   0.491  11.065
70931W        W43356  23.578  12.335   4.742
70932W        W43357   5.217  10.286  13.493
70933W        W43358  29.661  13.609   2.896
70934W        W43359  40.861   2.411  13.468
70935W        W43360   0.317   0.460  12.463
70936W        W43361  32.930   6.181   3.665
70937W        W43362  44.421  37.438   4.239
70938W        W43363  44.966  33.488  12.429
70939W        W43364  19.573  30.148   0.465
70940W        W43365   6.869  23.067  12.962
70941W        W43366  10.685  31.033   4.612
70942W        W43367  32.114   1.944  13.380
70943W        W43368  17.586  37.466  11.599
70944W        W43369  20.162  14.774  11.383
70945W        W43370  35.366  39.400   1.356
70946W        W43371  40.472  42.484   0.807
70947W        W43372  43.489   8.332  11.372
70948W        W43373  24.028  37.510  13.824
70949W        W43374   4.287   6.757   3.213
70950W        W43375  29.119  29.994   1.832
70951W        W43376  31.965  37.852   3.699
70952W        W43377  24.095   2.788  13.474
70953W        W43378  38.508   7.899  10.076
70954W        W43379  21.745  10.312  11.462
70955W        W43380  44.379  30.419   0.312
70956W        W43381  20.669  37.002   2.414
70957W        W43382  19.161  44.898   3.815
70958W        W43383  24.190  28.959  11.568
70959W        W43384  21.155  16.692  11.112
70960W        W43385  39.959  36.975  13.415
70961W        W43386   7.861  43.773  10.487
70962W        W43387   6.870  16.751   1.708
70963W        W43388  26.673  15.653   3.147
70964W        W43389  29.476  18.762  13.010
70965W        W43390  29.083  39.363  11.943
70966W        W43391  10.650  38.896   9.988
70967W        W43392  12.796  25.075   1.355
70968W        W43393  11.680   5.756   2.885
70969W        W43394  20.713  43.012  13.344
70970W        W43395   3.240  21.208  11.559
70971W        W43396  42.943  14.097  12.395
70972W        W43397  11.225   9.388  12.850
70973W        W43398  10.697  24.597   0.856
70974W        W43399  33.908  19.626  10.445
70975W        W43400  25.608  40.830   3.252
70976W        W43401  31.923  10.752   1.360
70977W        W43402   4.334  32.558   0.920
70978W        W43403  25.178  18.212   1.311
70979W        W43404  22.190  43.485   2.770
70980W        W43405  38.359   2.295   1.906
70981W        W43406  19.670  10.788  14.883
70982W        W43407  16.216  27.010  14.290
70983W        W43408  20.134   0.255  14.447
70984W        W43409  44.348  21.166  10.529
70985W        W43410   9.323  21.094   1.824
70986W        W43411  39.513  14.826   0.406
70987W        W43412  25.491   3.832  12.426
70988W        W43413  34.926  32.924   4.748
70989W        W43414  20.591  20.223   1.838
70990W        W43415  11.732  36.951  13.928
70991W        W43416  30.940  41.520  11.897
70992W        W43417  39.519  25.641  11.997
70993W        W43418  30.038  28.944   2.824
70994W        W43419  38.039  43.488   1.722
70995W        W43420  20.768  15.799   1.287
70996W        W43421   8.674  10.710  13.805
70997W        W43422  31.611  42.469   2.399
70998W        W43423   2.860  42.943  14.967
70999W        W43424  41.538  19.729   9.942
71000W        W43425  10.667  16.588  14.488
71001W        W43426  19.230   1.845  12.021
71002W        W43427  21.188  35.906   0.809
71003W        W43428  39.472   4.749   2.829
71004W        W43429   5.777  35.470  11.921
71005W        W43430  44.345  24.991  14.004
71006W        W43431   9.784  11.134  14.458
71007W        W43432  22.519  26.074  10.413
71008W        W43433  30.117  33.962   3.184
71009W        W43434  41.321  28.441   4.617
71010W        W43435   5.818  37.518   0.262
71011W        W43436  21.558  12.116  11.537
71012W        W43437   5.383   3.944   1.359
71013W        W43438  38.424  12.751   3.151
71014W        W43439  24.671  19.181   4.647
71015W        W43440  21.166  26.153  12.455
71016W        W43441  39.319  25.675   0.802
71017W        W43442   4.377  27.953   3.778
71018W        W43443   2.900   9.267  11.889
71019W        W43444  29.106  44.412  14.885
71020W        W43445  19.586   0.920   0.836
71021W        W43446  31.419  39.018   2.286
71022W        W43447  40.533   5.860  14.319
71023W        W43448  38.497  23.699  13.458
71024W        W43449   2.815  15.790  13.874
71025W        W43450  29.666   5.893   4.744
71026W        W43451  41.345  38.934  12.943
71027W        W43452  11.740  32.037   2.881
71028W        W43453  42.825  20.268  13.384
71029W        W43454  39.941  13.814   2.870
71030W        W43455  13.294  29.019   4.610
71031W        W43456  37.017  15.298  14.888
71032W        W43457   4.211  22.581   0.328
71033W        W43458  39.063  22.530   4.193
71034W        W43459  16.700   0.760  14.462
71035W        W43460  13.302   8.814  12.457
71036W        W43461  16.639  32.447   3.159
71037W        W43462  44.852  38.906   0.763
71038W        W43463  20.209  24.079  11.044
71039W        W43464  18.125  36.552  13.944
71040W        W43465  27.619  38.846  11.052
71041W        W43466  32.447  33.886  10.585
71042W        W43467  19.568  13.787   1.379
71043W        W43468  32.014  22.743  13.015
71044W        W43469   0.743  19.683  10.081
71045W        W43470   5.343  28.126   3.760
71046W        W43471  37.021  44.504   4.656
71047W        W43472  40.954  10.719   0.924
71048W        W43473  23.005  10.662  10.487
71049W        W43474  28.649  39.393   4.153
71050W        W43475  10.190   9.805  13.797
71051W        W43476  14.755   3.316  12.577
71052W        W43477   5.339  13.129   2.800
71053W        W43478   7.316   7.760   0.874
71054W        W43479  31.020  44.928   4.192
71055W        W43480  30.531  28.172   1.821
71056W        W43481   0.457  12.262   4.715
71057W        W43482  40.980  37.448   0.913
71058W        W43483  21.538  31.968   3.294
71059W        W43484  31.956  22.651  11.918
71060W        W43485  15.280  31.969  12.534
71061W        W43486  32.976  26.107   3.164
71062W        W43487   3.373  42.469   4.281
71063W        W43488  42.886  17.215   5.129
71064W        W43489  36.928  30.637   3.681
71065W        W43490   6.398  28.568  14.930
71066W        W43491  21.133  10.692   0.470
71067W        W43492  25.183  16.099   4.324
71068W        W43493  36.096  20.664   3.728
71069W        W43494  17.720  39.378  13.331
71070W        W43495  13.168  44.412  13.064
71071W        W43496  16.313  23.004   4.665
71072W        W43497  21.075  36.373   3.730
71073W        W43498   3.407  10.744   1.847
71074W        W43499  34.479  27.528   3.664
71075W        W43500   9.167  10.680  13.485
71076W        W43501  10.195  24.984   2.846
71077W        W43502  10.870  42.897   0.758
71078W        W43503  43.346  30.026   4.805
71079W        W43504  27.485  14.300   2.187
71080W        W43505   0.969  23.496  14.466
71081W        W43506   7.187  34.892  11.102
71082W        W43507  21.248  37.384   0.260
71083W        W43508  36.391  37.958   0.909
71084W        W43509  33.962   0.310  11.077
71085W        W43510  25.644   1.242   0.906
71086W        W43511   7.674  32.893  11.060
71087W        W43512   0.798  29.647   1.823
71088W        W43513  27.633  35.596  11.877
71089W        W43514  33.948  16.733   3.700
71090W        W43515  19.611  19.178  12.874
71091W        W43516  35.934  27.635   3.783
71092W        W43517  26.478  32.987   0.260
71093W        W43518  29.075  31.467   1.420
71094W        W43519  18.188   9.295  14.468
71095W        W43520  18.688  40.912   1.418
71096W        W43521  33.066   9.877  14.937
71097W        W43522  16.252  22.728  13.515
71098W        W43523  18.788   9.785  13.019
71099W        W43524  33.459  23.132   4.661
71100W        W43525   6.364   4.347   2.830
71101W        W43526   1.452   1.427  10.947
71102W        W43527  16.082  25.169  13.312
71103W        W43528  26.689  33.878   2.723
71104W        W43529   0.816  10.225   5.207
71105W        W43530  41.934  32.511   2.390
71106W        W43531  17.149  27.456  13.843
71107W        W43532  25.122   2.373   3.385
71108W        W43533   8.807  32.067  12.880
71109W        W43534  27.998  16.613  12.050
71110W        W43535  30.985  39.500   9.518
71111W        W43536  11.794  44.258  13.980
71112W        W43537  24.980  26.200   4.116
71113W        W43538   5.349  14.654  12.862
71114W        W43539  10.249  22.093  10.106
71115W        W43540   8.803  18.280  11.525
71116W        W43541  44.807   5.351   4.117
71117W        W43542  41.408  22.171  13.373
71118W        W43543  10.716  37.562  10.535
71119W        W43544  41.976  41.405   0.426
71120W        W43545  41.938  32.897  12.083
71121W        W43546  12.340  24.589  11.438
71122W        W43547   2.770  38.468   3.860
71123W        W43548  17.292  21.744  12.043
71124W        W43549  39.345  19.131   3.754
71125W        W43550  13.321  44.285  12.007
71126W        W43551  43.008  34.993  11.893
71127W        W43552  28.589  22.187   1.775
71128W        W43553   4.830  24.084   3.649
71129W        W43554   1.384   6.846  13.801
71130W        W43555  25.179  21.193   4.736
71131W        W43556  33.971   0.370   4.206
71132W        W43557  19.654   5.398  12.089
71133W        W43558  39.374  19.561  11.522
71134W        W43559   2.280  35.076   3.837
71135W        W43560   5.241  15.579   2.799
71136W        W43561  33.120  24.573  13.392
71137W        W43562  23.154  36.854   3.175
71138W        W43563  26.173  36.479  12.853
71139W        W43564  27.469   2.417  12.949
71140W        W43565  42.887  38.378  14.437
71141W        W43566  10.338  13.112   1.349
71142W        W43567  21.027   3.314   0.274
71143W        W43568   8.771  20.767   2.875
71144W        W43569  29.588  37.016   2.339
71145W        W43570  26.081  19.730  12.874
71146W        W43571  14.254  30.573   0.891
71147W        W43572  44.755  29.590  13.315
71148W        W43573   3.435  11.231  13.835
71149W        W43574  18.558   8.244  13.899
71150W        W43575  10.237  23.140  14.423
71151W        W43576   2.810  21.518   2.197
71152W        W43577  13.336   2.316   4.705
71153W        W43578  30.573  41.857   3.353
71154W        W43579  27.448  20.087  13.991
71155W        W43580   7.263   7.408   4.617
71156W        W43581   0.376  27.994  12.851
71157W        W43582  29.141   7.834   4.711
71158W        W43583  33.580  10.784   1.707
71159W        W43584  37.938  12.335  11.121
71160W        W43585   0.301   6.912   0.932
71161W        W43586  12.237  43.440  12.565
71162W        W43587  10.870  36.863  14.369
71163W        W43588  25.005  41.843   4.123
71164W        W43589  17.093   7.845   2.268
71165W        W43590  42.336  27.516   0.355
71166W        W43591   4.881  44.904  10.982
71167W        W43592   7.675  41.975  14.908
71168W        W43593  30.099   6.869  14.012
71169W        W43594  34.934  14.239   5.246
71170W        W43595  36.365  25.488   1.762
71171W        W43596  43.866  38.486  13.453
71172W        W43597  23.160  19.216   0.316
71173W        W43598  38.036   0.960   3.672
71174W        W43599  18.234   8.282  11.993
71175W        W43600  25.702  12.273  12.966
71176W        W43601  14.676  20.186   3.634
71177W        W43602  30.960  17.744   3.705
71178W        W43603  34.420  27.566  12.942
71179W        W43604   6.243  43.976  13.946
71180W        W43605  28.067  29.955  10.016
71181W        W43606  14.670   5.196  13.487
71182W        W43607  43.413  29.425   0.958
71183W        W43608  14.800   4.911   4.264
71184W        W43609  32.048  34.974   3.320
71185W        W43610   2.382   0.956   9.974
71186W        W43611   6.849  16.168  11.072
71187W        W43612  25.151   7.858   3.297
71188W        W43613  20.218  20.271   4.335
71189W        W43614  19.233  25.198  10.478
71190W        W43615   2.328  26.511   1.799
71191W        W43616  13.343  31.013   3.776
71192W        W43617  16.694   5.342  13.349
71193W        W43618  42.357  25.552   0.333
71194W        W43619  17.643  32.608   4.126
71195W        W43620  19.749  19.234   1.904
71196W        W43621   0.858   2.927  11.115
71197W        W43622   4.913  36.393  10.640
71198W        W43623   3.800  26.061  12.947
71199W        W43624  38.557  30.641  13.968
71200W        W43625  44.986  20.163  12.965
71201W        W43626  27.514  35.100  14.763
71202W        W43627  13.687  13.146  13.829
71203W        W43628   0.983   8.379  11.925
71204W        W43629  42.925  28.178   5.163
71205W        W43630   9.152  28.162  11.075
71206W        W43631   6.792  29.575   3.322
71207W        W43632  23.170  24.625   0.312
71208W        W43633  35.508  20.600  13.921
71209W        W43634  18.286  21.102  14.991
71210W        W43635  12.132  39.958   4.327
71211W        W43636  40.381   1.850  10.472
71212W        W43637  34.865   8.836   1.836
71213W        W43638  15.090  17.772  14.982
71214W        W43639  33.068  10.239   0.447
71215W        W43640  13.187  22.213   4.204
71216W        W43641  20.130  20.204   2.285
71217W        W43642  24.062  28.554   4.181
71218W        W43643   3.756  25.508   1.704
71219W        W43644   8.663   7.779  13.488
71220W        W43645  26.184  29.511  11.978
71221W        W43646  31.534  38.526   3.832
71222W        W43647  15.808   0.399  12.936
71223W        W43648  24.995  28.963   4.780
71224W        W43649  12.744  18.764   2.842
71225W        W43650  11.219  41.415   1.449
71226W        W43651  20.210  15.752   3.343
71227W        W43652  39.825   1.461  10.449
71228W        W43653   4.388   5.272   0.399
71229W        W43654   1.925  21.663  12.423
71230W        W43655  35.444  20.683   2.219
71231W        W43656   4.757   9.738  11.964
71232W        W43657   6.209   8.233  14.458
71233W        W43658  20.717  41.916   0.436
71234W        W43659  38.447  16.694  12.860
71235W        W43660  34.502  27.078  14.983
71236W        W43661  25.968  29.972   4.341
71237W        W43662  38.330  27.629  13.496
71238W        W43663  25.979  22.075   1.916
71239W        W43664   2.935  20.708   4.209
71240W        W43665   0.875  30.910   5.317
71241W        W43666  11.257   1.257   0.747
71242W        W43667  24.074  38.556  13.866
71243W        W43668   6.798   6.288  12.840
71244W        W43669  30.594   6.276   4.799
71245W        W43670  35.053  40.447  13.429
71246W        W43671  33.526  12.616  12.521
71247W        W43672  24.025  31.012   2.379
71248W        W43673   8.168  43.471   4.699
71249W        W43674  19.126   8.311   4.154
71250W        W43675  40.319  13.814   0.334
71251W        W43676  43.911  13.111  11.595
71252W        W43677  43.325  21.580   4.310
71253W        W43678  44.879  39.372   4.187
71254W        W43679   9.351  12.785  12.077
71255W        W43680  41.328  27.521   4.143
71256W        W43681  23.542  11.195   2.788
71257W        W43682   2.464  33.434   9.953
71258W        W43683  44.895  19.534   0.920
71259W        W43684  42.009  31.986   3.304
71260W        W43685   7.176  10.866  14.491
71261W        W43686   0.390  26.055  10.918
71262W        W43687  24.653  24.016   4.338
71263W        W43688  33.981  37.557   1.362
71264W        W43689   6.885  32.426  11.373
71265W        W43690  26.979  32.435   1.316
71266W        W43691  19.558  13.313  14.368
71267W        W43692  33.432  21.666  11.023
71268W        W43693  44.421  38.479  13.333
71269W        W43694   2.950  15.264  12.893
71270W        W43695  31.457  16.690   0.400
71271W        W43696  29.613  29.015   4.618
71272W        W43697  39.522   3.386   0.802
71273W        W43698  18.714  21.254   3.833
71274W        W43699  19.547  35.378  13.490
71275W        W43700  19.770  15.124  14.015
71276W        W43701  15.763   2.413   3.860
71277W        W43702  37.902  42.282   1.699
71278W        W43703  11.777   9.829  10.507
71279W        W43704  36.520  18.718  10.497
71280W        W43705  17.642   9.684  14.922
71281W        W43706  12.288  14.817  12.407
71282W        W43707   6.909   5.726   2.257
71283W        W43708   9.303   2.836   2.342
71284W        W43709  29.482  34.570   0.355
71285W        W43710  11.194  18.651   1.832
71286W        W43711  23.652  37.506  14.965
71287W        W43712  36.849  39.873  14.395
71288W        W43713  36.859  43.429   1.698
71289W        W43714  25.964  38.333   3.831
71290W        W43715  13.691   9.276   0.771
71291W        W43716  35.553  12.326   0.392
71292W        W43717  15.772  15.087  10.628
71293W        W43718  17.752  44.985   1.801
71294W        W43719  41.309  37.357   3.638
71295W        W43720  23.511  42.351   2.294
71296W        W43721  34.879  37.069   3.186
71297W        W43722   8.196  12.341  13.906
71298W        W43723  37.930   0.893   4.351
71299W        W43724  12.718  20.167   1.367
71300W        W43725  21.047  44.836  11.413
71301W        W43726  15.215  39.878  10.961
71302W        W43727  30.622   9.287  10.544
71303W        W43728   8.227   8.209   1.791
71304W        W43729  11.668  12.727  10.447
71305W        W43730  10.261  20.059   2.232
71306W        W43731  24.677  30.022   9.447
71307W        W43732  29.971  24.139  12.374
71308W        W43733  42.898  19.242  10.132
71309W        W43734  38.018  28.184   4.617
71310W        W43735  42.324  37.035  11.563
71311W        W43736  34.429   1.268   1.926
71312W        W43737  20.116  13.201   0.816
71313W        W43738   6.281   9.159   0.365
71314W        W43739  14.125  36.897  13.794
71315W        W43740  18.755  24.111  13.950
71316W        W43741  21.599  44.966   0.442
71317W        W43742  41.806  23.560   3.633
71318W        W43743  15.628  40.369  12.420
71319W        W43744  44.363  44.989   3.386
71320W        W43745   1.324  23.722   3.312
71321W        W43746   3.857  39.443   3.331
71322W        W43747  31.605  38.960  11.006
71323W        W43748  35.366  40.961  13.404
71324W        W43749  16.653  28.553  12.972
71325W        W43750  41.350  26.022  11.953
71326W        W43751  30.525  29.547   0.912
71327W        W43752  21.255  44.264  12.481
71328W        W43753   4.835  30.150  14.965
71329W        W43754   4.236  19.775   4.822
71330W        W43755  18.713  32.052  13.340
71331W        W43756   8.763   1.322   4.649
71332W        W43757  41.448  44.881  10.978
71333W        W43758  21.579  17.687  13.394
71334W        W43759  14.794  24.011  12.882
71335W        W43760  36.490  42.410   0.815
71336W        W43761  39.832  39.981   2.778
71337W        W43762  41.389   4.939   3.375
71338W        W43763  43.381  27.545   1.935
71339W        W43764   9.839  19.689  14.778
71340W        W43765  16.783  27.507  11.439
71341W        W43766   5.919   1.894  14.354
71342W        W43767   3.399  11.280   2.352
71343W        W43768  27.123  23.512  13.319
71344W        W43769   0.354  43.877  10.948
71345W        W43770  42.007   9.232   0.855
71346W        W43771  10.222   4.293  13.986
71347W        W43772  21.219  14.302   4.341
71348W        W43773  38.493   4.726  11.021
71349W        W43774  29.100   9.841   1.328
71350W        W43775   6.256  32.613   0.730
71351W        W43776  43.360  29.505   0.430
71352W        W43777  21.536   0.950  12.523
71353W        W43778  12.235  38.979   2.787
71354W        W43779  10.214   6.185   1.428
71355W        W43780   9.324  21.550   0.365
71356W        W43781   3.426  38.022  11.038
71357W        W43782   8.229  27.086  10.481
71358W        W43783  27.164  12.635   1.707
71359W        W43784  44.904  12.195  13.979
71360W        W43785  20.651  25.082  10.900
71361W        W43786  18.780   0.291  13.529
71362W        W43787   1.242  26.684   0.872
71363W        W43788  32.603  30.153  12.023
71364W        W43789  19.101  42.847  11.022
71365W        W43790  17.689  27.523  12.518
71366W        W43791  41.990  24.670   1.803
71367W        W43792  16.594  29.616  14.442
71368W        W43793  15.756   1.733  12.495
71369W        W43794   3.458  35.945   2.379
71370W        W43795  37.341   7.331   4.726
71371W        W43796  40.512  40.799   2.887
71372W        W43797  19.067  39.463  10.412
71373W        W43798  26.953  32.490   9.438
71374W        W43799  21.193   3.841   1.332
71375W        W43800  33.548  26.966   4.235
71376W        W43801  31.449  21.113  11.552
71377W        W43802  41.450   8.854  14.970
71378W        W43803   6.260  13.648   4.605
71379W        W43804  23.013   3.861  11.992
71380W        W43805  22.693  27.473  13.815
71381W        W43806  33.122   2.230  11.079
71382W        W43807  14.206  22.719   4.647
71383W        W43808  34.556  25.197  11.451
71384W        W43809  20.272   3.334  10.114
71385W        W43810  20.261  17.638  10.925
71386W        W43811   0.376  36.441  10.490
71387W        W43812  24.576   6.196   3.807
71388W        W43813   3.887   6.416  14.501
71389W        W43814  15.126  18.241   2.293
71390W        W43815  31.086  37.412   1.863
71391W        W43816   0.482  15.135   1.808
71392W        W43817   9.376  41.409  14.794
71393W        W43818  29.476   6.688  14.819
71394W        W43819   6.851  25.022   3.171
71395W        W43820  27.985  41.410   4.323
71396W        W43821  24.511  44.983  11.997
71397W        W43822  33.419  39.816   1.238
71398W        W43823   2.841  28.142   3.359
71399W        W43824  43.932   7.794   0.840
71400W        W43825  41.502  15.739  10.448
71401W        W43826  10.708  23.507   3.853
71402W        W43827  35.400  42.977  12.062
71403W        W43828   7.296   3.373  13.463
71404W        W43829  21.643  36.498  14.281
71405W        W43830  32.420  11.802   1.384
71406W        W43831   7.338   1.853  14.333
71407W        W43832  38.425   3.874  11.933
71408W        W43833  34.482  43.958   1.389
71409W        W43834  18.752   5.294  11.860
71410W        W43835   6.387  42.298  14.444
71411W        W43836  32.572   2.752   0.853
71412W        W43837  43.005  22.073   2.349
71413W        W43838   1.799  25.011   2.246
71414W        W43839   0.313  31.406  11.893
71415W        W43840  40.979  20.638  12.860
71416W        W43841   6.884  30.476   1.392
71417W        W43842  23.061   4.897  14.373
71418W        W43843  42.390  24.113  12.549
71419W        W43844  24.991   5.396   3.767
71420W        W43845   8.838  18.777   1.403
71421W        W43846  17.753   8.771   4.260
71422W        W43847  10.308  37.358   4.712
71423W        W43848   4.215   3.733   1.337
71424W        W43849   2.471   6.906   3.855
71425W        W43850  28.522  12.807   0.249
71426W        W43851  30.457  14.314  12.385
71427W        W43852   1.312  21.614   2.256
71428W        W43853  19.541  23.585   3.839
71429W        W43854  34.920   2.287  14.789
71430W        W43855  19.210  44.407  11.555
71431W        W43856  25.177  10.760   2.404
71432W        W43857  25.177  31.042   2.796
71433W        W43858  31.907  32.955  10.543
71434W        W43859  29.013  42.429  10.470
71435W        W43860  33.962  36.428  13.339
71436W        W43861  35.078  30.615  13.941
71437W        W43862  35.420   1.311   4.267
71438W        W43863  18.212   7.879   1.447
71439W        W43864  36.900  44.270  14.298
71440W        W43865  35.484   4.379   3.201
71441W        W43866  12.236  38.524   3.656
71442W        W43867  11.774  36.349   4.174
71443W        W43868  21.069  20.130  12.898
71444W        W43869  19.576   2.913  11.954
71445W        W43870  44.293  33.057   9.999
71446W        W43871  35.950  17.636   0.407
71447W        W43872  32.044  34.505   3.280
71448W        W43873  22.617  36.577   3.825
71449W        W43874  15.260  16.616   4.303
71450W        W43875   1.864  18.668   4.752
71451W        W43876  43.011  24.146  10.514
71452W        W43877  28.534  17.144   4.794
71453W        W43878  14.604   3.759  13.530
71454W        W43879  37.531  37.398   2.757
71455W        W43880  32.517  14.128   2.217
71456W        W43881  34.915  35.897  10.409
71457W        W43882   2.900   1.788  11.019
71458W        W43883  28.479  33.045   0.290
71459W        W43884  32.500  32.923  11.048
71460W        W43885  32.975  35.050   3.727
71461W        W43886  23.101  23.016  10.915
71462W        W43887  23.044  29.436  11.463
71463W        W43888   9.307   7.802   3.247
71464W        W43889  13.337   7.261  10.020
71465W        W43890  29.045  21.599  14.008
71466W        W43891  23.202   3.739   4.818
71467W        W43892   7.668  11.744   3.639
71468W        W43893  23.102  21.046  11.430
71469W        W43894  34.491  24.071   3.241
71470W        W43895   1.777   6.869  11.967
71471W        W43896  37.445   8.890  14.999
71472W        W43897  14.619  41.001  12.920
71473W        W43898  33.428  17.802  10.927
71474W        W43899  36.062  24.121   0.808
71475W        W43900  25.102  44.384   1.741
71476W        W43901   1.389  17.785   2.664
71477W        W43902   3.230  40.817  14.831
71478W        W43903  31.008  16.206   2.261
71479W        W43904  12.134  34.969  13.486
71480W        W43905  38.923  29.428  13.405
71481W        W43906  15.756  11.323  11.954
71482W        W43907  30.484  30.464  11.123
71483W        W43908  13.176  11.364   1.434
71484W        W43909   1.254  33.067  10.547
71485W        W43910  13.639  36.954  14.797
71486W        W43911  22.612  14.304  10.073
71487W        W43912   5.923  29.014   3.178
71488W        W43913   6.842   4.348   1.733
71489W        W43914  19.065   1.386   1.362
71490W        W43915  39.947  40.915  10.989
71491W        W43916  16.314   6.260   2.389
71492W        W43917  13.174  30.499   1.427
71493W        W43918  11.730  17.561  13.916
71494W        W43919  31.571  25.158  13.355
71495W        W43920  12.165  43.882   0.417
71496W        W43921   7.222  24.689   2.711
71497W        W43922  17.601  23.517  10.992
71498W        W43923   9.340  27.500  14.956
71499W        W43924  38.007  29.994   3.858
71500W        W43925  36.901  14.603  11.075
71501W        W43926   7.752  23.000   2.291
71502W        W43927  17.205  12.185  10.465
71503W        W43928  14.597  24.980   3.275
71504W        W43929  41.952  24.005   0.812
71505W        W43930  15.228  14.639  13.324
71506W        W43931  27.098  33.621   2.844
71507W        W43932   2.910  11.740   1.337
71508W        W43933  23.651  19.141   0.399
71509W        W43934  18.729  17.608  10.925
71510W        W43935  16.771  40.542   2.730
71511W        W43936  42.820  12.720  14.973
71512W        W43937   3.722   8.301  11.019
71513W        W43938  34.893  19.239  13.868
71514W        W43939  27.550  28.042   4.250
71515W        W43940  27.624  43.340  10.451
71516W        W43941  24.151  14.113  10.958
71517W        W43942  14.317   0.468   1.312
71518W        W43943   3.813  39.957  13.826
71519W        W43944   0.898  21.659  11.549
71520W        W43945  28.076  40.330   0.812
71521W        W43946  16.761  10.204   1.912
71522W        W43947  15.165   8.713  11.115
71523W        W43948  24.139  12.208  14.802
71524W        W43949  38.856  16.308  12.885
71525W        W43950   9.883  29.569   4.181
71526W        W43951  30.052  12.182  13.981
71527W        W43952  40.921  12.710  12.991
71528W        W43953   8.733  10.145   1.283
71529W        W43954  25.620  19.148  10.913
71530W        W43955   7.390  40.378   3.302
71531W        W43956  35.026  31.107   3.633
71532W        W43957  26.025   2.953   1.367
71533W        W43958  36.079  25.596   5.288
71534W        W43959  38.333  10.323   0.949
71535W        W43960   5.763  25.546  13.801
71536W        W43961  26.202  29.927  11.966
71537W        W43962  44.311  22.610  14.005
71538W        W43963  30.440  25.531  11.906
71539W        W43964  23.080  34.042  14.369
71540W        W43965  34.569  15.169  13.868
71541W        W43966   4.398  28.997   0.446
71542W        W43967  36.511   0.882  11.979
71543W        W43968  23.557   6.898  12.349
71544W        W43969  10.258  27.982  10.971
71545W        W43970   2.401  15.297  12.842
71546W        W43971  12.765  22.520   0.966
71547W        W43972  41.916  41.798   1.772
71548W        W43973  16.794  19.042   2.253
71549W        W43974  23.212  26.203   3.203
71550W        W43975  21.699  37.930  13.518
71551W        W43976   0.481   3.231  11.062
71552W        W43977  44.422  25.609  14.937
71553W        W43978   0.847  26.184  13.495
71554W        W43979  27.958  35.973   4.759
71555W        W43980  19.132  37.444  11.602
71556W        W43981   0.831  20.039   1.357
71557W        W43982  37.974  19.058  12.552
71558W        W43983  23.167  29.470  12.018
71559W        W43984  30.602  15.139  12.380
71560W        W43985  34.090   7.673   1.762
71561W        W43986  27.650  37.998   4.638
71562W        W43987  18.072  39.436  13.408
71563W        W43988   3.742  35.888   2.330
71564W        W43989  21.079  23.601  10.111
71565W        W43990   5.931  16.080  13.047
71566W        W43991   6.399  20.680  14.020
71567W        W43992   9.306  39.501   2.209
71568W        W43993  35.978  17.179   0.276
71569W        W43994  11.346  33.051   2.341
71570W        W43995  33.971  41.798   1.442
71571W        W43996  20.189  32.973   2.391
71572W        W43997  26.510  17.602  12.393
71573W        W43998  39.554   5.799  10.952
71574W        W43999   9.752  40.001  13.320
71575W        W44000  15.631  14.235  13.410
71576W        W44001  13.824   7.772   3.839
71577W        W44002  28.552  24.154   3.822
71578W        W44003  44.262  41.975  10.432
71579W        W44004  24.142  26.955  12.892
71580W        W44005  37.363  44.368   5.146
71581W        W44006  12.843  27.665   0.813
71582W        W44007   9.847  18.739  11.548
71583W        W44008   0.963  28.971   3.331
71584W        W44009  19.771  33.936   0.375
71585W        W44010  43.824  18.749  11.928
71586W        W44011  21.747  17.194  14.007
71587W        W44012  12.328  16.681  12.887
71588W        W44013   2.806  31.910  14.770
71589W        W44014  10.669  26.073   0.425
71590W        W44015   4.744  15.738   2.267
71591W        W44016   3.288  25.154   3.725
71592W        W44017  29.516  17.606  11.948
71593W        W44018   6.234  28.532  13.985
71594W        W44019  44.810  16.718  12.445
71595W        W44020  34.457  29.946  14.979
71596W        W44021   7.412   8.681   0.891
71597W        W44022  40.049  40.053  11.065
71598W        W44023  31.420   8.241  14.813
71599W        W44024  34.406   5.877   1.717
71600W        W44025  43.016  14.739  12.017
71601W        W44026  31.037  37.349   0.393
71602W        W44027   5.742   5.407  13.496
71603W        W44028  39.852  12.755   3.786
71604W        W44029  22.687  40.416  11.580
71605W        W44030  14.609  32.535   4.748
71606W        W44031  10.816  17.283   3.702
71607W        W44032   7.351  33.882   0.343
71608W        W44033  25.077   3.916  14.919
71609W        W44034  21.173   9.310  12.401
71610W        W44035  38.943  13.283  10.480
71611W        W44036  15.674  10.703  13.394
71612W        W44037  16.222  11.789   1.710
71613W        W44038  11.868  27.098  14.819
71614W        W44039  40.820   7.409  13.805
71615W        W44040  30.150  10.857  10.510
71616W        W44041  24.198  36.490  13.486
71617W        W44042   6.867  34.527  10.984
71618W        W44043  42.918  18.642   4.734
71619W        W44044  30.485  38.474  11.482
71620W        W44045  24.714  30.148   5.255
71621W        W44046   6.824  33.021   0.258
71622W        W44047  27.583   1.932  14.783
71623W        W44048  41.923  44.970  11.564
71624W        W44049  43.329  12.712   1.786
71625W        W44050  30.523  31.542   3.638
71626W        W44051   7.787  29.653  10.994
71627W        W44052  37.553  30.024   2.369
71628W        W44053  29.155   0.888   2.351
71629W        W44054  25.998  38.527   3.337
71630W        W44055  13.276   0.296  11.943
71631W        W44056   1.910  15.283   1.216
71632W        W44057  21.214  20.643   2.289
71633W        W44058  11.689  19.674  14.830
71634W        W44059   9.187  37.523   5.236
71635W        W44060  30.608  44.370  13.924
71636W        W44061  37.510  15.329  13.795
71637W        W44062  32.603   2.940  12.892
71638W        W44063  35.038  35.951  14.855
71639W        W44064   8.673  13.725  13.961
71640W        W44065  38.475   3.854  10.502
71641W        W44066  18.212  40.544   2.351
71642W        W44067   5.879  40.402  10.419
71643W        W44068  13.202   1.441   9.493
71644W        W44069   1.443  41.817  11.873
71645W        W44070  14.821  19.108  10.551
71646W        W44071  38.341  33.942   0.816
71647W        W44072  19.657  11.698   3.184
71648W        W44073  14.214  14.181  11.593
71649W        W44074  10.809  30.650   0.966
71650W        W44075  23.606   3.728   1.857
71651W        W44076  35.051  34.387  12.478
71652W        W44077  33.077  13.162   3.758
71653W        W44078  33.411   2.303  14.278
71654W        W44079  31.967  27.012  11.519
71655W        W44080  28.504  33.962  14.339
71656W        W44081  29.945  18.691   1.418
71657W        W44082  20.119   6.863   0.738
71658W        W44083  34.610  37.061   3.785
71659W        W44084  33.405   2.239   2.735
71660W        W44085   6.380  25.653  10.896
71661W        W44086  28.991  34.083  11.017
71662W        W44087  18.102   8.235   0.341
71663W        W44088  19.670  10.192   4.794
71664W        W44089  40.971  37.520   2.360
71665W        W44090  13.662  38.024   2.243
71666W        W44091  37.080  37.565  10.429
71667W        W44092  43.003   9.390   2.835
71668W        W44093   2.356  22.571  14.490
71669W        W44094  24.174  38.403  11.608
71670W        W44095  24.530  27.069  12.498
71671W        W44096  30.007  11.840   3.689
71672W        W44097  17.162   3.345  14.841
71673W        W44098  14.246  25.475   0.901
71674W        W44099  38.474  40.547  13.358
71675W        W44100  27.583  44.910  13.051
71676W        W44101  29.637   0.800   2.385
71677W        W44102  11.322  34.452   3.351
71678W        W44103  24.588  44.896   2.858
71679W        W44104  16.796  29.580   0.337
71680W        W44105  25.108  14.208   0.374
71681W        W44106  36.477  28.012  11.464
71682W        W44107   0.484   5.921  12.482
71683W        W44108  14.600  31.484  13.996
71684W        W44109  28.943  11.730  11.961
71685W        W44110   4.722  43.815   4.211
71686W        W44111   3.855  34.972  14.404
71687W        W44112  29.168  18.694  12.001
71688W        W44113  37.419  13.642   3.775
71689W        W44114  12.766  17.138   0.404
71690W        W44115   8.403  34.989   1.393
71691W        W44116  25.207  19.133   2.343
71692W        W44117  15.731  16.267   0.264
71693W        W44118  13.747   7.416   3.235
71694W        W44119  44.870   6.721  13.831
71695W        W44120  24.508  30.580   1.340
71696W        W44121  30.620  30.917  10.450
71697W        W44122  23.557  16.742   1.914
71698W        W44123  17.173  11.744  10.977
71699W        W44124  44.397  40.516  11.520
71700W        W44125  24.586  27.653   3.637
71701W        W44126  27.490   7.288  14.983
71702W        W44127  23.712  21.154  10.158
71703W        W44128   4.438  38.970   2.179
71704W        W44129   5.838   9.855   0.307
71705W        W44130   9.745  10.819  12.957
71706W        W44131   8.216  44.990  14.468
71707W        W44132  41.896  39.556  11.892
71708W        W44133  29.088  33.445  11.573
71709W        W44134   9.299  13.811   1.312
71710W        W44135  10.308  23.547   4.252
71711W        W44136   6.850   7.720   2.396
71712W        W44137  22.151  30.097   1.716
71713W        W44138   2.796  26.956  11.947
71714W        W44139  42.019  43.511  12.919
71715W        W44140  14.143  11.848   4.723
71716W        W44141  19.094  34.400  13.019
71717W        W44142   7.239  39.852   0.298
71718W        W44143  38.504  25.167   0.257
71719W        W44144  18.130  28.452  12.471
71720W        W44145  31.083  44.856  12.358
71721W        W44146  43.390  23.118  13.502
71722W        W44147  35.509   8.715   0.769
71723W        W44148   1.284  17.204   4.672
71724W        W44149  32.455  22.515   2.866
71725W        W44150  38.488  23.999   2.315
71726W        W44151  41.990  32.512  13.513
71727W        W44152  20.044  24.108   1.891
71728W        W44153  36.388  12.325  10.999
71729W        W44154  31.442   7.747   4.235
71730W        W44155  22.707  41.915   4.263
71731W        W44156  15.312  26.514  10.465
71732W        W44157  22.059  25.049   1.778
71733W        W44158  15.242  35.434   4.296
71734W        W44159   2.325  43.857   1.885
71735W        W44160  30.011  26.021   2.349
71736W        W44161  28.657   9.161   0.290
71737W        W44162  41.313  39.542  11.471
71738W        W44163  32.456  22.585   1.260
71739W        W44164   4.877  42.972   9.961
71740W        W44165  27.481  22.683  11.452
71741W        W44166  24.068  32.998  13.528
71742W        W44167  35.938  19.127  14.414
71743W        W44168   4.333  36.856  12.495
71744W        W44169  31.456  26.999  12.868
71745W        W44170   6.400  39.005   5.134
71746W        W44171  39.038  40.933   0.482
71747W        W44172  30.103  24.111   2.227
71748W        W44173  14.184   5.827  13.923
71749W        W44174  38.940  11.831  10.490
71750W        W44175  44.352   9.798  13.420
71751W        W44176  11.637  25.017   9.960
71752W        W44177  39.029  37.521   2.368
71753W        W44178   1.309  20.689   0.454
71754W        W44179  33.917  23.627   3.149
71755W        W44180  32.501  12.302  11.983
71756W        W44181  19.143  32.568   1.759
71757W        W44182  41.915  17.583   2.884
71758W        W44183   5.428  37.390   3.318
71759W        W44184  32.569  41.834  13.883
71760W        W44185  15.669  27.008   4.703
71761W        W44186  11.187  23.232   1.827
71762W        W44187  38.565  31.965  11.994
71763W        W44188  37.988  23.490  13.319
71764W        W44189  40.924  21.235   3.163
71765W        W44190  19.040  30.062   2.756
71766W        W44191  11.323  17.234  14.842
71767W        W44192  18.674  20.215  14.865
71768W        W44193   6.397   9.395  12.050
71769W        W44194  37.378  34.878  11.964
71770W        W44195  12.231  44.494   1.729
71771W        W44196   0.426  41.331  12.552
71772W        W44197  29.966  11.748   3.287
71773W        W44198  42.028  23.611  10.617
71774W        W44199  14.826  31.082   1.890
71775W        W44200  19.753  22.745   4.782
71776W        W44201  21.067  30.521   2.678
71777W        W44202  11.812   6.240  13.387
71778W        W44203  20.755  29.617   2.356
71779W        W44204  26.067  27.605   0.878
71780W        W44205  27.449  37.954  10.470
71781W        W44206  15.255  27.054   4.713
71782W        W44207  14.768  23.144  10.002
71783W        W44208  41.413  42.829   5.124
71784W        W44209  24.000  37.385   3.372
71785W        W44210  33.038  12.782  11.434
71786W        W44211  43.789  24.531   1.769
71787W        W44212   5.732  36.534  12.966
71788W        W44213   8.730   0.900   0.396
71789W        W44214  13.184  16.244  11.431
71790W        W44215  41.018  21.690   0.842
71791W        W44216  33.909  26.552   4.625
71792W        W44217  33.568   1.257   3.192
71793W        W44218  10.333  31.548   4.815
71794W        W44219  40.980  10.241   0.467
71795W        W44220  23.188  38.391   1.313
71796W        W44221  17.290   0.967   4.633
71797W        W44222  30.505  18.632   3.825
71798W        W44223  37.988   8.685  11.997
71799W        W44224  22.021  44.483   1.807
71800W        W44225  12.617  10.323  12.091
71801W        W44226   2.745  26.514  10.555
71802W        W44227  43.837  31.501   1.366
71803W        W44228   2.387   3.809  11.863
71804W        W44229  36.388  28.505   0.951
71805W        W44230  10.348   9.712   4.305
71806W        W44231  19.058  13.146   3.853
71807W        W44232   3.905  20.191  14.386
71808W        W44233  16.766   3.413   2.241
71809W        W44234  18.283  41.482  13.503
71810W        W44235  38.401  35.064   4.723
71811W        W44236  27.968  21.743   2.368
71812W        W44237  15.690  40.823   1.390
71813W        W44238  17.099   5.775  11.059
71814W        W44239  13.227  11.220   1.826
71815W        W44240  32.593   3.865   1.402
71816W        W44241  40.867   9.724   4.775
71817W        W44242  43.289  10.815  10.610
71818W        W44243  21.121   3.926  13.870
71819W        W44244   9.336  29.482  11.455
71820W        W44245   8.696  37.838  13.039
71821W        W44246  43.330   8.707   0.895
71822W        W44247  30.460  11.209   3.194
71823W        W44248  43.907  30.155   3.220
71824W        W44249  44.942  17.653   4.764
71825W        W44250  29.028  20.556   4.613
71826W        W44251  34.026   8.371   0.306
71827W        W44252  30.134  14.163  12.900
71828W        W44253  26.663  16.311  10.413
71829W        W44254  20.179  17.168   4.306
71830W        W44255  17.636  40.397   1.905
71831W        W44256  12.705  23.168   2.291
71832W        W44257  28.101  17.630   0.316
71833W        W44258  43.484  12.646  12.997
71834W        W44259  24.219  22.136  14.455
71835W        W44260  38.457   2.878  10.606
71836W        W44261  24.023  17.129  13.394
71837W        W44262  33.981  25.642  13.408
71838W        W44263  26.121  30.157  10.112
71839W        W44264  24.044  38.873   3.701
71840W        W44265   6.702  42.413   4.330
71841W        W44266  29.931  26.666   0.341
71842W        W44267  35.587   4.793  10.602
71843W        W44268   8.750   5.379   0.360
71844W        W44269  34.432  28.945   3.809
71845W        W44270   0.285  14.310   2.267
71846W        W44271  16.789   1.273   0.402
71847W        W44272  43.796   8.791   0.741
71848W        W44273  41.480   6.403  10.486
71849W        W44274  31.036  35.390   3.326
71850W        W44275  12.722  39.993   2.394
71851W        W44276  29.949  34.382   4.292
71852W        W44277  39.411  31.993  11.399
71853W        W44278  23.704  17.724  11.417
71854W        W44279  26.469  23.151   0.957
71855W        W44280   4.217  40.823  10.907
71856W        W44281  43.379  43.013   0.781
71857W        W44282  26.976  23.232   2.301
71858W        W44283  36.458   2.911  13.401
71859W        W44284  32.463   1.744  10.924
71860W        W44285   2.863  42.810   1.890
71861W        W44286  32.992  36.436   1.835
71862W        W44287   6.420  10.800   4.311
71863W        W44288   3.278   2.859  14.968
71864W        W44289  22.149  39.061  11.899
71865W        W44290  40.539  10.364   1.387
71866W        W44291  28.970  29.660   0.445
71867W        W44292  28.045   6.213   2.672
71868W        W44293  14.682  26.635  13.354
71869W        W44294   9.857   7.231   0.390
71870W        W44295  43.991  34.471   3.723
71871W        W44296  17.739  11.269   0.886
71872W        W44297  18.712  29.991   2.712
71873W        W44298  13.165  25.154  13.888
71874W        W44299   9.876  43.511   3.154
71875W        W44300  19.777  17.744  14.340
71876W        W44301  33.537   8.742  13.515
71877W        W44302  36.091   9.659  12.470
71878W        W44303  25.565  35.454  12.832
71879W        W44304   5.376  22.617   2.273
71880W        W44305  32.521  43.876   0.763
71881W        W44306  36.875  35.421   4.217
71882W        W44307  24.142  10.789  10.520
71883W        W44308   5.837  36.444   1.275
71884W        W44309  42.947  19.705  13.934
71885W        W44310   3.394   9.711   0.415
71886W        W44311   7.898   0.964  13.809
71887W        W44312  42.835  33.577   4.678
71888W        W44313  29.057   9.297   0.957
71889W        W44314   1.281  17.717   3.663
71890W        W44315  44.388   8.331   1.716
71891W        W44316   5.932  20.122  12.573
71892W        W44317   9.277   7.887  11.593
71893W        W44318  41.017  11.761  13.904
71894W        W44319   4.932  23.585  13.309
71895W        W44320  42.846  36.540  13.009
71896W        W44321  42.865   8.277  12.008
71897W        W44322  39.042  10.758   2.882
71898W        W44323  25.102  32.544   2.705
71899W        W44324   3.847  10.689   4.172
71900W        W44325  28.076  10.853   0.822
71901W        W44326   1.422  17.251   2.190
71902W        W44327  20.704  10.185  10.011
71903W        W44328  38.531  21.667  13.401
71904W        W44329  40.877   1.261   4.138
71905W        W44330   0.389  29.441  11.100
71906W        W44331  30.916   1.370  12.380
71907W        W44332  39.348  22.088  10.891
71908W        W44333  17.672  21.735   2.745
71909W        W44334  33.073  17.750  12.352
71910W        W44335  30.549  25.066  14.391
71911W        W44336  36.922  42.895   1.882
71912W        W44337   3.361  28.659  14.882
71913W        W44338  13.727  31.018   2.226
71914W        W44339  40.515  35.972   2.184
71915W        W44340  10.828  24.152   9.660
71916W        W44341  31.954   0.850  12.518
71917W        W44342  22.055  42.818   4.730
71918W        W44343  13.142  24.595  13.047
71919W        W44344  31.584  33.514  14.777
71920W        W44345   3.850  42.809   2.263
71921W        W44346  30.598   3.892   2.664
71922W        W44347  27.655  28.050  13.399
71923W        W44348   9.714   0.851  14.474
71924W        W44349  22.166  24.992   2.199
71925W        W44350   3.394  28.672   3.798
71926W        W44351  35.864  24.074   4.225
71927W        W44352  20.232  41.982   4.234
71928W        W44353   6.758  11.651  14.024
71929W        W44354   2.872  41.889  13.447
71930W        W44355  24.664  26.641  10.612
71931W        W44356  32.119  25.973  13.423
71932W        W44357  24.054  13.149  12.550
71933W        W44358  36.878  31.087   2.899
71934W        W44359  12.172  27.489   0.400
71935W        W44360  31.917  25.022   1.293
71936W        W44361   8.283  36.481   1.790
71937W        W44362  19.253  25.673   4.626
71938W        W44363  35.390  29.464   1.758
71939W        W44364   9.155  14.107   2.886
71940W        W44365   4.850  32.592  13.338
71941W        W44366  12.337  10.793   3.712
71942W        W44367  18.176   6.416   0.252
71943W        W44368  30.529   6.884   1.266
71944W        W44369  11.688   4.430  10.942
71945W        W44370  27.504  30.440   5.090
71946W        W44371  42.787  26.686  10.450
71947W        W44372   3.272  35.897  11.571
71948W        W44373  33.024  24.554   1.789
71949W        W44374  16.300  27.667  10.498
71950W        W44375   4.824  38.487   3.210
71951W        W44376  34.526  23.547   1.802
71952W        W44377  24.198  43.883   4.255
71953W        W44378  43.387  43.316  14.802
71954W        W44379  16.300  40.331   3.259
71955W        W44380  41.031   5.783  10.979
71956W        W44381  24.168  14.266  14.420
71957W        W44382   3.407  35.864  12.431
71958W        W44383  41.471   5.825   1.381
71959W        W44384  21.155  15.812   4.700
71960W        W44385  38.902  29.090  12.948
71961W        W44386  37.350  39.334  13.538
71962W        W44387   5.900  43.011  13.029
71963W        W44388  17.560  26.534  11.501
71964W        W44389  29.629   0.322   2.698
71965W        W44390  26.548  12.309  14.991
71966W        W44391  17.125  26.189  12.091
71967W        W44392   4.794  32.100   0.763
71968W        W44393  11.804   4.705   5.185
71969W        W44394   0.780   0.379  14.344
71970W        W44395  38.943  10.293   3.838
71971W        W44396  32.126  28.163  12.884
71972W        W44397  31.995  23.564   2.251
71973W        W44398  35.010  20.701  14.813
71974W        W44399  32.590  33.548  14.418
71975W        W44400   1.769  38.919  13.519
71976W        W44401  12.331  14.834  11.515
71977W        W44402  24.614  25.646  11.093
71978W        W44403  31.430  44.981   0.905
71979W        W44404  21.157  17.269   2.414
71980W        W44405  28.569  12.280  13.501
71981W        W44406  33.932   6.330   3.843
71982W        W44407  13.706  28.448   0.938
71983W        W44408   8.746  17.093  12.860
71984W        W44409  44.995  12.329  13.528
71985W        W44410  19.190  11.707   0.452
71986W        W44411  16.690  33.409  11.515
71987W        W44412  12.722  36.922   3.727
71988W        W44413  31.924  31.998   3.725
71989W        W44414  16.648  30.546   1.312
71990W        W44415  27.618   8.283   2.835
71991W        W44416  40.409  41.454   3.325
71992W        W44417  30.135  11.207  11.071
71993W        W44418  32.973  16.622   3.822
71994W        W44419   8.664  44.964   3.300
71995W        W44420  32.095  31.526  14.828
71996W        W44421   6.727   1.784  13.456
71997W        W44422  37.506  40.964  13.342
71998W        W44423  13.697  10.707  14.400
71999W        W44424   9.220  23.531  14.367
72000W        W44425  12.337  43.877  10.901
72001W        W44426  17.153  36.563   2.342
72002W        W44427  16.283   6.391  11.032
72003W        W44428  17.278  21.546  12.916
72004W        W44429  21.517   7.381  11.045
72005W        W44430  42.361  24.551  13.307
72006W        W44431  21.226  24.712   1.696
72007W        W44432  24.717  34.108   3.183
72008W        W44433  13.816   1.479   4.764
72009W        W44434  15.283  33.999   4.650
72010W        W44435  35.086  43.428   1.297
72011W        W44436   7.174  39.501   1.882
72012W        W44437  42.312  21.739  12.885
72013W        W44438  30.039  26.552   1.870
72014W        W44439  43.391  10.259  12.092
72015W        W44440  31.938  28.480   0.961
72016W        W44441  10.669   7.896   3.296
72017W        W44442  12.350  37.464  10.975
72018W        W44443  16.641  23.507   4.761
72019W        W44444  26.608   1.840   4.340
72020W        W44445   5.357  31.638   3.725
72021W        W44446  23.028  30.907  10.965
72022W        W44447  16.664  34.904   9.439
72023W        W44448  22.050  11.828   9.633
72024W        W44449   4.337   6.867  14.499
72025W        W44450  13.789  38.472  13.547
72026W        W44451   5.349  44.345   1.319
72027W        W44452  44.384   1.821   0.850
72028W        W44453  43.900   1.738  11.946
72029W        W44454  21.552  13.730  12.370
72030W        W44455  29.649  24.009  14.848
72031W        W44456  42.024  15.760  10.572
72032W        W44457  42.943  30.979  14.430
72033W        W44458  12.140   6.376  14.014
72034W        W44459  38.906   2.294   4.665
72035W        W44460  23.112  12.264  11.562
72036W        W44461   5.710  35.035  13.057
72037W        W44462  41.371  17.785   1.810
72038W        W44463  10.746  23.161  10.431
72039W        W44464  13.712  40.805  11.429
72040W        W44465  26.502  10.266  14.295
72041W        W44466  36.352  21.624  14.506
72042W        W44467  22.172  42.868   2.853
72043W        W44468  22.689   0.409  10.140
72044W        W44469  41.483   1.369  12.568
72045W        W44470  21.575  20.060  11.418
72046W        W44471   3.846  31.503  14.512
72047W        W44472  27.136  18.068  14.968
72048W        W44473   0.885  17.679   3.259
72049W        W44474  17.755   7.248  11.451
72050W        W44475  37.386  31.544   4.793
72051W        W44476  18.695   1.475  13.516
72052W        W44477   8.747  38.996   5.280
72053W        W44478  22.105  39.523   4.209
72054W        W44479  29.132  33.540   1.280
72055W        W44480  36.419  31.049   3.164
72056W        W44481   0.284  32.063   4.814
72057W        W44482   8.366  44.844  11.424
72058W        W44483  21.722  44.391  12.957
72059W        W44484  40.889   3.438  14.498
72060W        W44485   3.764  34.418   0.820
72061W        W44486  24.090   5.753   1.312
72062W        W44487   3.309  22.227   2.230
72063W        W44488  27.964  11.790   3.342
72064W        W44489  25.475  22.621  13.839
72065W        W44490  22.103   8.305   4.692
72066W        W44491  15.615  34.954   4.799
72067W        W44492  36.512  26.175  13.880
72068W        W44493   0.808  21.202  12.449
72069W        W44494   2.899  23.712   2.745
72070W        W44495   0.869  13.838  12.421
72071W        W44496  35.925  11.273   2.304
72072W        W44497  34.056  33.942  11.992
72073W        W44498  12.281   7.690  10.599
72074W        W44499  40.366  38.333  13.934
72075W        W44500  26.955  12.290  11.022
72076W        W44501  44.979  11.698  11.891
72077W        W44502  19.710   4.907  13.861
72078W        W44503  37.504  13.727   2.866
72079W        W44504   5.711  35.885  12.979
72080W        W44505   4.761   8.885   3.295
72081W        W44506  32.510  37.338  12.447
72082W        W44507  29.092  14.184  10.920
72083W        W44508  11.371  39.874  10.441
72084W        W44509  43.333  13.737  11.012
72085W        W44510   1.249  34.996  14.487
72086W        W44511  16.165   0.782   2.810
72087W        W44512  31.916  37.582  14.361
72088W        W44513  11.347   1.420   1.720
72089W        W44514  22.686  26.522   2.411
72090W        W44515   7.749  15.261   2.768
72091W        W44516   4.234  23.048  12.361
72092W        W44517  10.346   5.690  14.350
72093W        W44518   8.781  36.026   2.239
72094W        W44519  41.945  27.097   3.357
72095W        W44520  39.044  28.029   4.229
72096W        W44521  28.614  38.908   4.802
72097W        W44522  13.289   3.905   5.284
72098W        W44523  30.088  24.980  11.027
72099W        W44524   0.470  21.039   3.730
72100W        W44525   3.830  37.551   2.881
72101W        W44526  38.922  15.773  14.443
72102W        W44527   7.407  28.464  13.906
72103W        W44528  25.152   0.311   1.823
72104W        W44529  18.739  35.592  11.035
72105W        W44530  32.097  38.527   1.727
72106W        W44531  13.745  11.672   4.157
72107W        W44532  39.903  17.078  14.862
72108W        W44533   7.364  17.151   1.793
72109W        W44534  32.398   1.396  12.867
72110W        W44535  35.477  13.127   4.630
72111W        W44536  31.984  33.884   0.891
72112W        W44537   0.900   2.860   3.314
72113W        W44538  40.980  27.146   4.609
72114W        W44539  22.719  17.577   0.743
72115W        W44540  34.031  38.551  11.089
72116W        W44541   6.223  43.508  11.864
72117W        W44542  34.512  25.141  14.318
72118W        W44543  43.924  24.652  13.934
72119W        W44544  44.492  19.723  14.870
72120W        W44545  37.507   3.754   0.767
72121W        W44546  10.332  40.991  14.477
72122W        W44547  37.010  10.837  14.845
72123W        W44548  26.133  33.604   0.916
72124W        W44549  20.142  25.092   5.294
72125W        W44550  34.455  43.367   0.427
72126W        W44551  28.653  23.190  10.449
72127W        W44552   2.906   3.314  10.918
72128W        W44553  21.103  42.387  11.029
72129W        W44554  10.866  19.169  10.438
72130W        W44555  31.620  32.005  10.489
72131W        W44556  34.570  35.980  12.874
72132W        W44557  25.175  13.348  11.933
72133W        W44558  38.044  10.159  12.545
72134W        W44559  38.059  18.572  12.977
72135W        W44560  43.386  41.810   0.289
72136W        W44561   7.200  43.945   3.656
72137W        W44562   2.824   1.465  14.892
72138W        W44563  13.744  11.734   4.606
72139W        W44564   7.179   0.763   0.761
72140W        W44565  38.075  38.442   4.764
72141W        W44566  19.686  19.547  14.437
72142W        W44567  40.546   0.907  11.042
72143W        W44568  15.628  18.547  13.961
72144W        W44569  13.295  11.715  11.980
72145W        W44570  36.527   2.954  11.409
72146W        W44571  43.766   5.274  12.864
72147W        W44572  22.623   8.295  11.415
72148W        W44573  41.908   1.870  11.953
72149W        W44574   1.426   3.325   3.212
72150W        W44575   4.794   9.297   2.368
72151W        W44576  44.812  28.078  13.003
72152W        W44577  17.578  42.779  11.391
72153W        W44578  20.103  21.080  10.000
72154W        W44579  24.183  13.762   1.876
72155W        W44580  12.831  44.940   2.849
72156W        W44581  40.014  10.298   2.732
72157W        W44582  31.423  33.979  11.448
72158W        W44583  24.632  26.182   0.274
72159W        W44584  20.048  33.086   0.430
72160W        W44585   2.371   3.928   4.600
72161W        W44586   8.712  33.916  11.992
72162W        W44587  13.125  34.977   1.838
72163W        W44588  36.064  10.839   3.351
72164W        W44589  34.894  28.995   3.787
72165W        W44590   1.925   5.740   2.382
72166W        W44591   9.190   9.839   1.747
72167W        W44592  34.907  18.165   2.211
72168W        W44593  24.520  44.930  11.378
72169W        W44594  44.378  32.014   1.892
72170W        W44595   2.252   6.852  12.359
72171W        W44596   6.747  10.725  10.946
72172W        W44597  30.040  38.938   1.818
72173W        W44598  22.221   7.756  12.506
72174W        W44599  41.432  37.849  12.922
72175W        W44600  35.410  26.567   1.254
72176W        W44601  11.863  21.042  12.972
72177W        W44602  31.554  32.120   0.471
72178W        W44603  16.250  23.179  11.411
72179W        W44604   7.724  31.018  12.409
72180W        W44605   5.922   9.286  13.381
72181W        W44606  43.959   0.454   4.650
72182W        W44607  41.467  12.340  13.371
72183W        W44608  31.490  21.578   5.094
72184W        W44609  11.642   1.468  10.430
72185W        W44610  13.133  23.986   2.731
72186W        W44611  35.024  16.647   2.823
72187W        W44612  11.168  24.574   2.725
72188W        W44613  42.882   8.360  11.397
72189W        W44614  13.269  22.716  10.947
72190W        W44615   2.372  12.617   0.348
72191W        W44616  12.657   9.377   3.864
72192W        W44617  26.540   4.905   5.214
72193W        W44618  14.134  14.751  14.916
72194W        W44619  34.486  37.492   5.187
72195W        W44620  18.721  33.940   1.395
72196W        W44621   0.837  40.889   3.339
72197W        W44622  31.006   3.899  13.378
72198W        W44623  26.962  27.515   0.948
72199W        W44624  25.049  41.417  11.099
72200W        W44625   8.881   1.256  12.989
72201W        W44626  23.513   8.177   1.820
72202W        W44627  14.159  18.632  14.320
72203W        W44628  41.825  33.890  13.435
72204W        W44629  36.907  25.631  12.029
72205W        W44630  32.061  10.163   0.903
72206W        W44631  26.201   0.351   2.387
72207W        W44632  30.635  38.016  11.486
72208W        W44633   2.456  18.783   1.339
72209W        W44634  32.577   1.283  12.579
72210W        W44635  33.131  32.985   2.202
72211W        W44636  16.085  40.820  11.917
72212W        W44637  34.974  25.962  13.998
72213W        W44638  16.646  43.348   1.845
72214W        W44639  25.120  42.878   3.715
72215W        W44640  36.354  32.533  11.381
72216W        W44641  14.684  28.446   0.282
72217W        W44642  13.244  24.543  10.412
72218W        W44643   7.346  38.458   4.765
72219W        W44644  41.019  40.049   3.666
72220W        W44645  23.036  32.108   2.381
72221W        W44646  10.757  19.597   4.735
72222W        W44647  44.406  29.128  12.961
72223W        W44648  42.950  15.149   0.329
72224W        W44649  29.668  32.983   3.198
72225W        W44650   7.272   6.816  14.316
72226W        W44651  21.026   7.877   3.254
72227W        W44652  35.887  42.318  14.002
72228W        W44653  33.394  21.526   2.296
72229W        W44654   1.927  22.611   3.739
72230W        W44655  14.708  11.752  14.405
72231W        W44656  20.251  29.435  10.612
72232W        W44657  39.899  43.283   2.672
72233W        W44658  15.189  44.465  13.322
72234W        W44659   0.779  25.583  10.615
72235W        W44660  44.818   4.813   4.224
72236W        W44661  18.147  38.058  10.504
72237W        W44662  15.325  15.776  14.767
72238W        W44663  40.326  18.731  12.477
72239W        W44664  38.441   6.743  11.990
72240W        W44665   0.888  40.444  11.931
72241W        W44666  17.222  29.927   1.770
72242W        W44667  44.971  15.087   0.765
72243W        W44668  37.559  28.957   4.207
72244W        W44669  19.682  36.483  13.816
72245W        W44670  35.511  20.574   3.652
72246W        W44671  28.554  15.139   0.481
72247W        W44672  17.150   2.855   2.289
72248W        W44673  23.197   1.403   2.315
72249W        W44674   5.853  36.978  11.002
72250W        W44675  27.617  30.091  11.085
72251W        W44676  11.198  42.836  12.078
72252W        W44677   1.740   6.689  13.885
72253W        W44678  32.989  28.528  11.597
72254W        W44679  24.024  11.255   3.263
72255W        W44680  37.835  11.801  13.949
72256W        W44681  40.332  14.172  11.483
72257W        W44682   1.257  24.998  13.476
72258W        W44683  29.099  29.046   4.311
72259W        W44684   8.843  10.342   3.333
72260W        W44685  12.130  44.491  12.515
72261W        W44686   2.831  33.437  12.846
72262W        W44687  39.924  27.483   4.133
72263W        W44688   2.427  31.916  12.451
72264W        W44689  39.463   4.331   4.724
72265W        W44690  25.209  35.357   3.257
72266W        W44691  21.653  10.200  10.573
72267W        W44692  24.492  16.144   0.965
72268W        W44693   4.751  19.645   1.889
72269W        W44694   1.413  24.008  12.524
72270W        W44695  40.905  16.087  12.926
72271W        W44696  15.695   0.767   1.356
72272W        W44697  13.142  37.971   3.801
72273W        W44698  26.509   7.350  13.801
72274W        W44699  35.541  16.237   4.177
72275W        W44700   3.274  13.771  11.450
72276W        W44701   1.731  43.841   1.848
72277W        W44702  35.041  20.195  14.386
72278W        W44703  36.470  21.056  11.411
72279W        W44704  31.529  40.881  10.117
72280W        W44705   0.474  37.545  13.365
72281W        W44706  21.712  25.572   1.801
72282W        W44707  23.991  23.715   0.321
72283W        W44708   4.935   4.702   5.275
72284W        W44709  37.936   7.721   0.368
72285W        W44710  44.782   5.791   2.832
72286W        W44711  16.612  32.457   1.403
72287W        W44712   1.452  10.771  11.401
72288W        W44713  36.080  14.819   1.750
72289W        W44714  35.489   3.734  14.785
72290W        W44715  23.509   2.800   4.763
72291W        W44716  11.236   0.789  13.945
72292W        W44717   2.845  33.957   2.389
72293W        W44718  10.792  16.085  12.454
72294W        W44719  10.736  43.957   2.831
72295W        W44720  14.742   4.442  10.412
72296W        W44721  25.499  24.172   0.853
72297W        W44722  15.137  22.631   3.645
72298W        W44723  34.015  25.087   2.404
72299W        W44724  43.309  13.753   3.166
72300W        W44725  34.582  26.591  13.369
72301W        W44726  34.947  13.247  14.900
72302W        W44727  14.094  27.536  14.423
72303W        W44728  35.970  15.577  12.438
72304W        W44729  15.197  21.642   1.282
72305W        W44730   8.899  17.301  10.557
72306W        W44731  38.365  20.715  10.618
72307W        W44732  25.138  17.124   2.748
72308W        W44733  20.703  16.252   4.700
72309W        W44734  36.478  22.534   1.892
72310W        W44735   2.935  20.554   0.271
72311W        W44736  41.035  15.675  13.393
72312W        W44737  14.601  11.797  14.919
72313W        W44738   7.809  21.075   1.716
72314W        W44739  38.885  43.360  12.351
72315W        W44740  42.295  26.190  14.307
72316W        W44741  43.298  34.117   1.259
72317W        W44742  30.469   2.432   1.933
72318W        W44743  28.614  22.242   0.948
72319W        W44744  44.404  21.196  14.881
72320W        W44745  29.101  15.321   4.299
72321W        W44746  36.533  15.284   0.248
72322W        W44747   5.236  16.193  14.463
72323W        W44748  41.341  14.102  10.403
72324W        W44749   9.703  25.987  13.878
72325W        W44750  26.979  38.564  13.445
72326W        W44751  37.069  20.043  11.427
72327W        W44752  37.869  24.216  11.924
72328W        W44753  22.169  33.558   0.469
72329W        W44754  22.511  36.525   2.851
72330W        W44755  34.615   1.959  14.337
72331W        W44756  22.207  19.201   0.908
72332W        W44757   5.848   0.971   0.740
72333W        W44758  25.616  40.529  14.432
72334W        W44759  38.533   7.404   2.356
72335W        W44760  44.305  36.364  14.777
72336W        W44761   4.857  38.915  10.590
72337W        W44762  34.011   9.740   0.446
72338W        W44763  17.754  44.297   1.248
72339W        W44764  17.723  27.994   3.672
72340W        W44765  24.978  25.616  13.807
72341W        W44766  31.646  43.482  11.380
72342W        W44767  20.588  22.109  13.847
72343W        W44768  11.223   6.195  13.831
72344W        W44769  16.645  29.479   2.345
72345W        W44770  33.889  18.664   2.261
72346W        W44771  35.448  23.575  10.407
72347W        W44772  33.480  30.649  12.840
72348W        W44773  22.582  21.172   3.757
72349W        W44774  16.290  35.429   4.832
72350W        W44775  41.873  34.438   2.874
72351W        W44776  43.913  20.100   5.602
72352W        W44777  41.030  20.751  11.040
72353W        W44778  19.269  13.819   3.272
72354W        W44779  35.045  28.940  14.505
72355W        W44780  16.616  44.260   4.349
72356W        W44781  13.223  10.870  14.839
72357W        W44782   6.366  13.600  10.406
72358W        W44783  29.942  17.730  10.970
72359W        W44784  21.735  13.707   4.163
72360W        W44785  35.023  40.358   5.263
72361W        W44786  26.516  27.194   0.813
72362W        W44787  28.617   2.386  12.077
72363W        W44788  26.077  12.734   3.256
72364W        W44789  40.341  12.685   1.705
72365W        W44790  14.684  32.983   3.277
72366W        W44791   8.291   2.275   2.849
72367W        W44792  35.044   2.885   4.190
72368W        W44793   9.819  31.103   3.639
72369W        W44794   6.426   8.794   1.812
72370W        W44795   3.771  16.628  11.101
72371W        W44796   2.470  24.989  13.909
72372W        W44797   1.349  39.818  10.529
72373W        W44798  16.593   8.744  12.474
72374W        W44799  37.514  38.824  12.086
72375W        W44800  10.203   0.344   1.799
72376W        W44801   3.882  37.042  14.394
72377W        W44802  37.418   5.349   3.687
72378W        W44803  31.019  25.217   2.224
72379W        W44804   9.189  21.674   3.774
72380W        W44805  35.066  31.510   3.219
72381W        W44806  18.738  25.064   5.141
72382W        W44807   2.374   3.405  11.082
72383W        W44808  41.983   5.756  11.553
72384W        W44809  33.011  36.371   2.758
72385W        W44810   4.798  16.106  12.346
72386W        W44811  41.433  43.782   3.285
72387W        W44812  20.069  30.136   0.295
72388W        W44813  42.348  13.633  10.902
72389W        W44814  29.974  10.635  11.939
72390W        W44815  27.519   6.276  14.019
72391W        W44816  13.125  18.617  11.520
72392W        W44817  18.636  11.364  14.997
72393W        W44818   5.407   5.813  10.478
72394W        W44819  16.724  21.550  13.954
72395W        W44820  41.854  18.727  10.970
72396W        W44821  14.804  36.411   0.730
72397W        W44822   5.903  23.552   3.209
72398W        W44823  30.056   9.869  13.825
72399W        W44824   0.822  11.143  10.921
72400W        W44825   6.846  15.129   4.602
72401W        W44826  42.511  19.201  13.826
72402W        W44827  41.821  11.866  14.863
72403W        W44828   1.955  34.070   4.794
72404W        W44829  20.680  34.095  13.361
72405W        W44830  10.307  10.258  12.054
72406W        W44831  44.993  25.129   4.270
72407W        W44832   8.306  23.500   2.727
72408W        W44833   0.451   5.200  14.795
72409W        W44834  21.603  32.548  12.968
72410W        W44835   1.378   8.664   1.223
72411W        W44836   6.842  26.986   2.829
72412W        W44837  19.051  34.598   1.885
72413W        W44838   2.807  26.181  11.968
72414W        W44839  33.046   9.790   2.732
72415W        W44840  42.945  12.228   4.206
72416W        W44841  24.062  21.169  12.356
72417W        W44842  33.527  31.046   0.801
72418W        W44843   0.795  33.961  12.025
72419W        W44844  35.481  18.634  11.443
72420W        W44845  37.412  14.670   4.250
72421W        W44846  38.031   0.904   0.817
72422W        W44847  12.190  16.081   0.380
72423W        W44848  27.651  20.241   4.299
72424W        W44849  24.055  22.720  14.375
72425W        W44850  44.852  28.931  12.007
72426W        W44851  33.498  14.173  10.567
72427W        W44852   5.775   6.230  11.443
72428W        W44853  32.451  42.947   4.809
72429W        W44854  22.666  38.366  13.937
72430W        W44855  29.502  15.682  12.862
72431W        W44856   3.776  18.626  11.603
72432W        W44857   4.236  25.699  14.781
72433W        W44858  28.979  38.040  13.850
72434W        W44859  30.565  11.707  10.935
72435W        W44860   9.231  31.490  13.919
72436W        W44861  10.712  27.541   3.250
72437W        W44862  38.520   3.375   3.719
72438W        W44863   1.738  31.148  12.570
72439W        W44864  30.437  44.391  11.482
72440W        W44865  29.442  24.120   1.225
72441W        W44866  26.096  10.162   3.644
72442W        W44867  20.264  43.515   2.667
72443W        W44868  32.992  13.685   3.679
72444W        W44869  36.416  24.574   0.269
72445W        W44870  13.207  31.481   4.263
72446W        W44871  13.819   8.166  10.503
72447W        W44872  11.792  18.683   0.454
72448W        W44873  11.804  16.800  12.529
72449W        W44874  28.626  13.680   0.916
72450W        W44875   8.300  21.590  10.432
72451W        W44876   0.257  24.523  12.418
72452W        W44877  27.676   3.945  13.514
72453W        W44878  21.569   3.905  11.899
72454W        W44879  31.559  34.908   1.899
72455W        W44880   6.899  12.621  12.342
72456W        W44881   4.307  30.025  14.310
72457W        W44882  22.171  25.086  10.621
72458W        W44883  14.269  21.567   4.351
72459W        W44884  15.733  17.244  11.993
72460W        W44885  39.475  24.637   3.303
72461W        W44886  12.205   5.325  14.019
72462W        W44887  27.604  44.948   3.651
72463W        W44888   6.211  28.441  11.084
72464W        W44889  14.237  41.844   0.452
72465W        W44890  33.385   3.316  11.390
72466W        W44891  36.915   8.861  13.370
72467W        W44892   2.931   5.931   1.291
72468W        W44893  35.558   8.341   4.121
72469W        W44894  10.803  11.686   3.690
72470W        W44895  43.352   0.745   2.267
72471W        W44896  22.556  38.497   2.236
72472W        W44897  37.863  34.908  11.953
72473W        W44898  34.052  43.769  14.413
72474W        W44899  38.008  30.574   3.307
72475W        W44900  29.427  43.806   0.953
72476W        W44901  22.580  40.456   3.648
72477W        W44902  28.005  41.955  11.588
72478W        W44903  37.352  30.602  11.466
72479W        W44904  32.587  20.717  14.992
72480W        W44905  28.043  30.526   4.141
72481W        W44906  32.493  12.233  12.946
72482W        W44907  20.648   3.729  11.439
72483W        W44908  27.111  34.517  14.330
72484W        W44909  44.960  17.273  11.547
72485W        W44910   4.777  27.988  11.461
72486W        W44911  36.013  17.678  12.408
72487W        W44912  10.274  32.413  12.059
72488W        W44913  12.158  28.484   3.652
72489W        W44914  31.012  16.571   2.299
72490W        W44915   5.725   4.308  12.393
72491W        W44916  22.550  21.021   2.332
72492W        W44917  15.641  44.357  10.489
72493W        W44918  34.998  34.983  11.096
72494W        W44919  40.547  37.027  10.517
72495W        W44920  21.560  28.049  10.973
72496W        W44921  41.861   7.323   3.163
72497W        W44922  42.895   4.744   1.296
72498W        W44923  40.995   2.818  11.417
72499W        W44924  31.903  42.015  11.915
72500W        W44925  42.520   9.259  12.030
72501W        W44926  16.239  40.337   2.870
72502W        W44927   2.419  21.080  13.846
72503W        W44928  23.098   0.484   4.202
72504W        W44929  43.351  35.986   3.214
72505W        W44930  12.131  38.879  14.487
72506W        W44931  30.099  42.480   2.664
72507W        W44932   5.411   1.242  11.894
72508W        W44933   0.893  30.968  14.381
72509W        W44934   2.748  38.048   4.203
72510W        W44935  42.829  19.676  10.041
72511W        W44936   4.364  38.514  14.433
72512W        W44937  32.555   1.272   0.427
72513W        W44938  24.666  43.871  14.413
72514W        W44939  13.724   8.255  13.989
72515W        W44940  16.802  21.657   2.377
72516W        W44941  21.553  19.616   3.289
72517W        W44942   1.399   5.332   3.841
72518W        W44943   5.344  39.924   4.745
72519W        W44944  42.981  28.962   3.729
72520W        W44945  36.562  29.138   2.837
72521W        W44946  33.563   6.908   1.362
72522W        W44947  43.428  40.980   2.668
72523W        W44948  26.031  19.597   0.907
72524W        W44949  10.801  11.695   2.792
72525W        W44950  15.605  31.984   4.798
72526W        W44951  31.413  33.114   1.872
72527W        W44952   7.208  32.509   4.211
72528W        W44953  12.248   1.353   2.261
72529W        W44954  28.175  10.326  10.952
72530W        W44955  23.223  42.330   4.239
72531W        W44956  31.443   7.184  14.445
72532W        W44957   0.336  16.696   3.294
72533W        W44958  32.419  40.013   3.722
72534W        W44959   8.659   1.442   4.249
72535W        W44960  44.385  21.143   1.765
72536W        W44961  13.197  42.413  12.353
72537W        W44962  27.190  26.507   1.262
72538W        W44963  26.536  34.091   3.688
72539W        W44964   2.912  37.863  10.897
72540W        W44965  41.976  42.825  13.339
72541W        W44966  14.116  29.450   2.808
72542W        W44967  24.549  17.635  13.791
72543W        W44968   0.768  13.161   3.742
72544W        W44969  38.489  12.678  14.945
72545W        W44970  12.185  15.166  11.411
72546W        W44971  10.756  11.180   0.857
72547W        W44972  39.002  10.253  12.072
72548W        W44973   3.258  25.698   0.744
72549W        W44974  44.502  44.425   3.210
72550W        W44975  39.424  31.616   0.847
72551W        W44976  21.143  14.263  12.499
72552W        W44977   2.752  30.955  11.068
72553W        W44978  41.471  40.906   2.417
72554W        W44979  44.764  40.828  13.506
72555W        W44980  43.989  27.493   4.166
72556W        W44981   9.745  34.398   2.694
72557W        W44982  41.538  25.217   4.661
72558W        W44983  41.788  14.195  10.627
72559W        W44984   6.394  23.736  14.401
72560W        W44985   9.154  30.478  13.500
72561W        W44986  22.228  33.965  11.038
72562W        W44987  28.159  24.045  10.009
72563W        W44988  34.940   8.289  14.479
72564W        W44989  43.395  42.983  12.865
72565W        W44990  20.599  14.122  10.939
72566W        W44991  18.736  27.971  14.853
72567W        W44992   5.331  42.336  11.080
72568W        W44993  37.344  16.084  14.437
72569W        W44994  34.467  38.469  13.914
72570W        W44995  34.976  23.013  12.491
72571W        W44996  15.178  15.583   2.768
72572W        W44997   3.898  24.020   3.276
72573W        W44998  31.955  21.098   2.229
72574W        W44999  41.819   7.754  12.018
72575W        W45000  42.503  22.637  13.930
72576W        W45001  23.576  39.495  14.929
72577W        W45002  14.197  28.098  11.019
72578W        W45003  11.777  31.625   1.379
72579W        W45004  36.941  19.540  11.401
72580W        W45005  21.051  33.621  13.836
72581W        W45006  37.553  36.497   4.823
72582W        W45007   3.892  43.946   4.286
72583W        W45008  20.146  30.416  10.630
72584W        W45009  32.983   6.419   4.298
72585W        W45010   1.775  14.176  14.415
72586W        W45011  43.448  32.069  13.478
72587W        W45012  36.987  35.363  11.493
72588W        W45013  13.835  14.327   3.647
72589W        W45014  40.383  23.185  12.064
72590W        W45015  24.709  22.998  12.064
72591W        W45016  24.594  12.307  10.929
72592W        W45017  30.109   8.397  12.050
72593W        W45018  22.028  40.836   1.881
72594W        W45019  15.167  20.587   2.856
72595W        W45020   8.836  24.068  13.507
72596W        W45021   1.420  39.972  12.366
72597W        W45022  10.195  25.515   0.797
72598W        W45023  26.022  31.473   1.369
72599W        W45024  26.111  11.287   4.288
72600W        W45025  40.841  10.198  11.098
72601W        W45026  20.578   0.337   2.766
72602W        W45027  23.600   2.926  11.464
72603W        W45028  37.836  22.102  11.446
72604W        W45029  28.135  36.933   9.970
72605W        W45030  43.455  34.498  12.962
72606W        W45031  22.029  30.044  11.995
72607W        W45032  35.927  32.407  13.974
72608W        W45033  18.616  22.688   3.647
72609W        W45034   8.390   9.762   3.860
72610W        W45035  31.923  43.811   3.198
72611W        W45036  35.460  40.432   2.315
72612W        W45037  41.842  25.613  10.436
72613W        W45038  30.971  36.387   3.208
72614W        W45039  23.515  42.011  13.392
72615W        W45040  13.722  35.916   3.291
72616W        W45041  40.893   2.819   4.177
72617W        W45042  42.900  21.084   2.188
72618W        W45043  40.329  25.999   0.483
72619W        W45044  31.088   0.359  13.918
72620W        W45045  18.223  26.457  12.073
72621W        W45046   6.362  38.943  10.622
72622W        W45047   2.815  29.587   3.656
72623W        W45048  37.873  40.421  11.587
72624W        W45049  25.490   6.697   2.216
72625W        W45050  10.231  44.913   2.224
72626W        W45051  43.840   6.918  12.561
72627W        W45052   4.444  34.910  14.762
72628W        W45053  11.358  30.436   4.178
72629W        W45054  44.475   8.245  12.855
72630W        W45055   7.361   8.818   0.480
72631W        W45056  27.593  42.000  11.060
72632W        W45057   8.300   0.922  13.384
72633W        W45058  19.066  34.456   2.199
72634W        W45059  35.441  41.879  10.638
72635W        W45060  38.852   8.217  14.944
72636W        W45061   3.782  40.798  12.023
72637W        W45062  21.583  17.182   4.336
72638W        W45063  18.638   5.201   4.722
72639W        W45064  25.008   0.905  14.456
72640W        W45065  25.097  21.519  13.403
72641W        W45066  16.639  40.820  14.806
72642W        W45067  15.297  41.536  14.472
72643W        W45068  29.450   0.921  12.891
72644W        W45069  33.006  31.512   3.807
72645W        W45070  20.086  36.945  12.432
72646W        W45071  41.514  21.260   3.375
72647W        W45072  23.102  13.348   3.695
72648W        W45073   7.881  40.044  14.020
72649W        W45074  12.784   6.322  11.869
72650W        W45075  27.082   1.906  14.341
72651W        W45076  18.620  22.600  14.823
72652W        W45077  12.181  18.552   0.284
72653W        W45078   2.344  44.912  13.847
72654W        W45079  28.602  19.711   3.645
72655W        W45080  25.561  43.377   0.390
72656W        W45081  42.423  44.834   4.722
72657W        W45082  41.910  35.510  12.449
72658W        W45083  10.818  16.118  12.825
72659W        W45084  14.116  39.405   3.294
72660W        W45085  11.236  34.035   0.337
72661W        W45086   3.344  41.308  12.558
72662W        W45087  12.273  39.445  13.400
72663W        W45088  10.325  15.780  12.014
72664W        W45089  37.891  22.545  11.006
72665W        W45090  28.573  38.509  11.091
72666W        W45091   6.388   1.904  10.921
72667W        W45092  21.165  30.642  10.149
72668W        W45093   7.872  37.548  14.371
72669W        W45094  26.683  10.681  11.855
72670W        W45095  11.736  32.540  12.900
72671W        W45096   8.215  21.645   2.298
72672W        W45097  13.612   5.720  14.826
72673W        W45098  28.451  44.999   4.315
72674W        W45099  29.504   3.292  13.890
72675W        W45100  22.663   6.842  10.082
72676W        W45101  13.781   5.340   2.865
72677W        W45102   9.862  27.169   0.479
72678W        W45103  15.670  13.758   3.641
72679W        W45104  30.961  28.960  14.016
72680W        W45105  28.583  42.302   0.830
72681W        W45106  39.923  41.023  11.471
72682W        W45107   7.799  41.501   2.663
72683W        W45108  39.886  16.178  10.588
72684W        W45109  15.600  26.130   3.362
72685W        W45110  15.782  16.789  13.858
72686W        W45111  18.648  34.603  12.911
72687W        W45112   0.284  42.842  10.429
72688W        W45113  27.021  40.987   4.670
72689W        W45114  31.004  39.890   4.821
72690W        W45115  23.012   9.792   0.906
72691W        W45116  41.513  36.022  12.539
72692W        W45117  30.412   6.193   2.667
72693W        W45118  34.108  28.068  12.075
72694W        W45119  37.482   2.884  14.001
72695W        W45120  27.192  41.973  10.465
72696W        W45121  44.350  44.273  13.919
72697W        W45122  21.719  15.112  11.531
72698W        W45123  18.753  12.330  14.007
72699W        W45124  27.648   2.728   0.914
72700W        W45125  23.220   9.355  11.606
72701W        W45126  19.557  21.257   4.158
72702W        W45127   1.411  40.309  12.505
72703W        W45128  19.222  16.667   1.346
72704W        W45129  36.985  12.641  11.002
72705W        W45130  31.559  17.592  13.405
72706W        W45131   3.295  32.404  11.090
72707W        W45132  39.479  10.878  12.862
72708W        W45133  31.136  20.094   1.719
72709W        W45134  16.271  25.484  14.495
72710W        W45135   6.897  26.041  11.526
72711W        W45136  20.209  20.536   1.748
72712W        W45137  19.275  14.784   3.652
72713W        W45138  22.075  11.689  12.361
72714W        W45139  20.265   8.234   2.746
72715W        W45140   9.276  25.655  10.915
72716W        W45141  34.011   0.974   3.737
72717W        W45142  26.674  35.867   2.356
72718W        W45143  25.501   0.332  12.071
72719W        W45144  31.977  12.160  14.303
72720W        W45145  27.953   2.813   3.240
72721W        W45146  15.793   2.425   1.353
72722W        W45147  40.320  21.239   3.156
72723W        W45148  34.463  31.532   3.834
72724W        W45149   8.801  23.666   1.390
72725W        W45150  18.681  34.483  12.015
72726W        W45151  11.349  27.101  10.633
72727W        W45152  26.655  23.559  10.012
72728W        W45153  32.543   0.783   2.764
72729W        W45154  16.143   5.827  11.922
72730W        W45155  33.946  40.020   4.310
72731W        W45156  42.326  30.563  10.514
72732W        W45157  33.603  25.205   0.802
72733W        W45158  20.670  32.396  11.552
72734W        W45159  33.923  25.105   2.786
72735W        W45160  20.129   0.787  12.391
72736W        W45161  16.711  17.260  14.321
72737W        W45162  39.543  19.130  11.971
72738W        W45163  22.246  13.824  13.463
72739W        W45164   5.229  44.265  11.067
72740W        W45165  20.243   7.857  11.058
72741W        W45166  38.045  12.234  12.538
72742W        W45167  41.888  38.054   1.718
72743W        W45168  13.118   1.480   4.259
72744W        W45169  14.256  34.573   9.924
72745W        W45170   4.887  29.658   2.732
72746W        W45171  41.479  30.103  14.776
72747W        W45172  39.324   0.307   2.672
72748W        W45173  27.148  32.455   1.713
72749W        W45174  16.233  32.064   2.363
72750W        W45175  23.025   2.296  14.883
72751W        W45176  42.370  27.577   2.403
72752W        W45177  26.477  21.669   0.275
72753W        W45178   8.285   5.326  12.458
72754W        W45179  31.034  44.370   4.121
72755W        W45180  26.978   4.762  11.517
72756W        W45181   9.799  30.112   1.379
72757W        W45182   8.884  44.851   1.319
72758W        W45183  42.940  14.784   3.778
72759W        W45184  30.088  31.403   2.880
72760W        W45185   0.350  15.685  11.450
72761W        W45186  12.186  29.479   0.797
72762W        W45187  24.212   0.748  14.493
72763W        W45188  34.065  11.630   4.117
72764W        W45189  12.616   8.752  10.452
72765W        W45190  21.054  28.449   1.929
72766W        W45191  30.493  15.109   4.150
72767W        W45192  29.587  23.020  11.436
72768W        W45193   2.811  36.016  12.998
72769W        W45194   5.218  19.043   4.183
72770W        W45195   1.793  43.910   3.850
72771W        W45196   5.919  26.088   4.260
72772W        W45197  41.842  35.549  13.942
72773W        W45198   2.947  34.502   3.669
72774W        W45199  11.709  41.513   3.651
72775W        W45200  43.366  41.485   0.340
72776W        W45201  24.581  26.175   2.680
72777W        W45202  34.115   6.385   0.326
72778W        W45203  13.340  11.749  13.540
72779W        W45204  19.650   3.725   0.294
72780W        W45205   5.913  35.912   1.905
72781W        W45206  35.005  30.603   3.341
72782W        W45207   0.248  32.422   4.180
72783W        W45208  28.090   4.756   4.240
72784W        W45209  43.913  22.591   4.217
72785W        W45210  30.138  36.502  14.911
72786W        W45211   5.241   2.787   2.418
72787W        W45212  42.887  28.479   2.718
72788W        W45213  16.624  43.370   4.303
72789W        W45214  20.139  40.002   0.867
72790W        W45215  12.313  24.042   5.180
72791W        W45216  17.163  18.285  12.893
72792W        W45217  25.135  22.664  12.972
72793W        W45218  32.123  25.605   0.732
72794W        W45219  31.463  30.980  14.949
72795W        W45220  31.435  17.097  14.836
72796W        W45221  42.484  40.801  12.082
72797W        W45222  12.800  39.977   2.680
72798W        W45223  35.891  33.129   1.905
72799W        W45224  25.183  33.998  14.501
72800W        W45225   8.805   7.909   4.820
72801W        W45226  43.969   8.200   1.861
72802W        W45227  44.461  41.346   0.828
72803W        W45228  16.776  16.093  12.017
72804W        W45229  14.163  32.500  13.037
72805W        W45230  20.238   2.454  10.992
72806W        W45231  18.231  25.105   2.187
72807W        W45232  14.741  21.042  11.537
72808W        W45233  23.107  17.067   0.483
72809W        W45234  35.449   3.232   3.819
72810W        W45235  16.269  34.935   2.696
72811W        W45236  12.769  37.518   2.889
72812W        W45237  13.636  21.693  10.582
72813W        W45238  44.318  28.583  12.498
72814W        W45239  12.709  27.035   0.822
72815W        W45240  20.096  13.225  12.455
72816W        W45241  17.577  38.528  13.518
72817W        W45242  33.891  30.518   3.636
72818W        W45243  20.192  31.096  14.309
72819W        W45244  11.269  42.999  11.118
72820W        W45245  12.679  17.137  10.526
72821W        W45246  41.296   1.777  14.869
72822W        W45247  23.037  33.533  13.390
72823W        W45248   7.866  26.596  14.421
72824W        W45249  33.127  16.684   1.774
72825W        W45250   0.358   5.862   1.263
72826W        W45251   5.925  27.048   3.316
72827W        W45252   6.262  43.958   0.446
72828W        W45253  26.207  41.295  14.471
72829W        W45254  36.460  37.066   0.778
72830W        W45255  17.601  23.573  14.859
72831W        W45256  22.512  44.011  10.992
72832W        W45257  26.996  15.692   4.777
72833W        W45258  34.561   6.198  10.542
72834W        W45259  34.545  36.087   4.350
72835W        W45260  33.528  27.993  10.981
72836W        W45261  39.382  32.991  14.973
72837W        W45262  42.419  17.787  11.899
72838W        W45263  27.610   4.765  14.805
72839W        W45264  14.736  33.984  11.083
72840W        W45265  40.498  20.640   5.315
72841W        W45266  31.526  32.935   2.364
72842W        W45267  11.676   0.748  12.054
72843W        W45268  10.648  13.626   3.804
72844W        W45269  17.131  32.446  11.039
72845W        W45270  39.947   8.774  11.416
72846W        W45271  42.797  30.443  10.972
72847W        W45272  33.453  17.268  14.324
72848W        W45273   5.842  27.493  13.004
72849W        W45274  20.637  14.772  13.370
72850W        W45275  20.095  32.438  11.036
72851W        W45276   0.951   4.430   2.819
72852W        W45277  13.643  39.487  14.025
72853W        W45278  34.096   6.706  11.529
72854W        W45279  41.528  38.430   2.183
72855W        W45280  23.232  41.387  14.991
72856W        W45281   7.851  40.500  14.863
72857W        W45282  25.522  23.233   1.279
72858W        W45283  24.156  29.170  10.545
72859W        W45284  30.919   0.948  12.039
72860W        W45285  11.295  24.558   3.738
72861W        W45286  38.873  17.801  10.616
72862W        W45287  14.303  35.061  11.985
72863W        W45288  44.958  20.768   3.353
72864W        W45289  39.828  13.327   2.726
72865W        W45290  14.127  43.935   0.260
72866W        W45291  40.529  15.100   3.782
72867W        W45292  12.620  34.030   2.194
72868W        W45293  16.140  41.877  12.965
72869W        W45294   7.784  16.730  14.308
72870W        W45295  28.497  28.649   4.627
72871W        W45296  26.004  31.447   3.699
72872W        W45297   8.793  18.620   4.656
72873W        W45298  31.080  18.693  10.942
72874W        W45299  20.694  27.597  14.346
72875W        W45300  28.592  43.829  14.461
72876W        W45301  15.324  39.422   0.312
72877W        W45302  12.333   9.807  11.583
72878W        W45303  43.845  37.841  13.933
72879W        W45304  41.481   7.417  12.047
72880W        W45305  37.426   1.950   1.828
72881W        W45306  43.430   2.854  12.088
72882W        W45307  37.886   2.284  13.358
72883W        W45308  10.225  25.537  11.524
72884W        W45309  21.685  26.696  11.476
72885W        W45310  28.033  22.654   5.229
72886W        W45311  23.031  11.733   0.873
72887W        W45312  32.431  33.405   4.789
72888W        W45313  31.445  37.470  12.557
72889W        W45314   3.839  21.128   0.361
72890W        W45315  15.816  22.573   3.751
72891W        W45316  11.669   6.777  10.416
72892W        W45317  23.162  42.309   4.822
72893W        W45318  30.101  36.917   1.280
72894W        W45319  43.434  30.935  11.461
72895W        W45320  24.586   2.442  11.546
72896W        W45321  41.391  13.346  14.938
72897W        W45322  20.067  29.037  12.042
72898W        W45323   4.804  40.448  11.903
72899W        W45324  30.089  38.397  12.345
72900W        W45325  43.019  32.004  13.794
72901W        W45326   8.314  35.365  12.897
72902W        W45327  36.039   4.774  11.979
72903W        W45328  19.670  37.501  12.943
72904W        W45329  43.293  32.486   4.322
72905W        W45330   7.326  34.054  13.935
72906W        W45331  13.106  10.694   2.769
72907W        W45332  10.761  40.512  14.853
72908W        W45333  22.074  11.771   4.736
72909W        W45334  35.084  33.497  11.397
72910W        W45335   0.434  31.538   2.188
72911W        W45336  19.041  14.323   0.464
72912W        W45337  44.425   8.752   9.974
72913W        W45338  44.470  28.640   0.810
72914W        W45339  22.227  33.464  14.915
72915W        W45340  31.486  18.279  14.001
72916W        W45341  14.264  26.501  10.503
72917W        W45342  31.915  27.109   1.248
72918W        W45343  34.490  42.784  12.831
72919W        W45344  36.395  33.493  10.946
72920W        W45345  41.947  40.974  10.963
72921W        W45346  24.489  10.175  10.404
72922W        W45347  39.395  14.599  10.408
72923W        W45348  43.008  33.587   4.245
72924W        W45349  25.144  16.271  10.929
72925W        W45350  21.254  10.768  12.489
72926W        W45351  23.167  19.226  14.828
72927W        W45352  34.973  21.522  14.475
72928W        W45353  37.373   8.808   1.223
72929W        W45354  43.833  37.346  10.914
72930W        W45355  20.716  33.927  10.983
72931W        W45356  28.600  18.769  11.084
72932W        W45357  18.212  15.595  12.839
72933W        W45358  13.704  12.826   2.185
72934W        W45359  15.307  28.577   0.754
72935W        W45360  40.942   2.349   3.731
72936W        W45361  27.046  35.084   0.298
72937W        W45362  40.370  42.905   3.704
72938W        W45363  26.121  23.129   1.308
72939W        W45364  23.124   0.375  14.875
72940W        W45365  29.937  35.035  13.492
72941W        W45366  38.389  17.555   1.325
72942W        W45367  43.979  18.266  10.419
72943W        W45368   5.431  12.651   4.609
72944W        W45369   6.364   1.468  12.445
72945W        W45370  19.721  18.162   0.901
72946W        W45371   6.305   0.273  13.819
72947W        W45372   4.914  36.914   0.767
72948W        W45373   1.415  11.763  11.455
72949W        W45374  21.041  13.623   3.712
72950W        W45375  22.606  23.019  11.976
72951W        W45376  31.444  22.564   2.281
72952W        W45377   0.805  28.166  13.869
72953W        W45378  38.910  39.857   0.273
72954W        W45379  15.194  12.257  12.511
72955W        W45380  27.018  21.566   3.254
72956W        W45381  17.574   8.358   3.255
72957W        W45382  41.429  13.204   1.247
72958W        W45383  15.767  32.631   2.729
72959W        W45384   8.251  18.639  12.900
72960W        W45385  30.038   9.319   4.203
72961W        W45386   1.737  19.110   0.920
72962W        W45387   2.300  14.203   0.370
72963W        W45388  32.142  44.464   3.811
72964W        W45389  34.869  20.595  12.982
72965W        W45390  32.913  19.112  12.957
72966W        W45391  29.054   6.310   1.254
72967W        W45392  13.337  35.466  12.526
72968W        W45393  22.087  20.185  13.882
72969W        W45394  44.809  21.631  11.548
72970W        W45395  43.937  15.233  11.426
72971W        W45396   9.316  34.486   0.327
72972W        W45397  17.100   6.354  12.501
72973W        W45398  37.462  11.631   5.321
72974W        W45399  15.817  14.645   1.767
72975W        W45400  23.555   5.912  14.423
72976W        W45401   0.288  22.160  14.015
72977W        W45402   2.818  24.620   1.442
72978W        W45403  35.562  19.691   2.195
72979W        W45404  31.521  15.792   3.805
72980W        W45405  21.106  27.063  11.538
72981W        W45406  23.625  30.090   9.442
72982W        W45407  42.894   1.437   2.273
72983W        W45408  33.018   5.425   3.191
72984W        W45409  24.218  32.498  12.880
72985W        W45410  17.727  36.050  14.026
72986W        W45411  32.971  35.415   0.757
72987W        W45412  35.525  39.976  10.955
72988W        W45413   2.429  22.579   1.321
72989W        W45414  31.627  34.891   4.229
72990W        W45415  40.857  40.549   2.230
72991W        W45416  29.603   5.332  10.562
72992W        W45417   3.252   0.414  13.526
72993W        W45418  28.014  18.778  13.855
72994W        W45419  35.060  11.243  14.380
72995W        W45420  17.720  30.528   3.166
72996W        W45421   3.305   4.895   1.715
72997W        W45422   5.393  20.542   3.727
72998W        W45423  28.049   3.791  12.088
72999W        W45424   7.783  41.012  14.781
73000W        W45425   6.909  19.556   1.929
73001W        W45426   7.195  40.858   2.280
73002W        W45427  38.058  23.681   3.381
73003W        W45428  10.748   3.309  13.310
73004W        W45429  10.862   0.853  11.990
73005W        W45430  23.018   1.238  14.872
73006W        W45431   7.889  18.649  11.931
73007W        W45432  39.960  36.901   3.300
73008W        W45433  15.777  12.324  11.989
73009W        W45434  25.506  36.383   4.789
73010W        W45435  29.055   6.227   1.767
73011W        W45436   9.317  36.926  11.911
73012W        W45437  15.631  22.666  11.014
73013W        W45438  34.584  22.178  11.491
73014W        W45439   3.320  44.390   3.335
73015W        W45440  36.470   5.301   1.211
73016W        W45441  11.856  10.165  12.433
73017W        W45442   2.812  41.426   0.828
73018W        W45443  13.663  40.868  10.467
73019W        W45444  19.778   1.483  14.349
73020W        W45445  29.637  38.360   0.446
73021W        W45446  30.561  17.120  10.479
73022W        W45447   0.459   0.910  11.553
73023W        W45448  34.578  16.645   3.173
73024W        W45449  16.642   6.747  13.461
73025W        W45450  12.314  21.175  14.314
73026W        W45451  17.690  15.695  10.407
73027W        W45452   3.741   0.805   4.790
73028W        W45453  21.090   2.735   3.277
73029W        W45454  21.631  30.546   4.691
73030W        W45455   7.902   8.674   2.247
73031W        W45456   3.279  13.815  13.385
73032W        W45457  36.456  10.356   4.167
73033W        W45458  30.135  27.627   1.900
73034W        W45459  30.917   0.832  14.293
73035W        W45460  42.835  34.614   2.858
73036W        W45461  21.109   4.237   0.872
73037W        W45462   0.871  30.544   4.824
73038W        W45463  13.204   0.452  14.422
73039W        W45464  11.687  14.177  13.969
73040W        W45465  40.493  10.819   0.466
73041W        W45466   0.780  23.097   1.766
73042W        W45467  36.062  28.614  11.436
73043W        W45468   0.384   7.746  13.886
73044W        W45469   3.311   0.351   2.286
73045W        W45470  12.709  18.676   3.360
73046W        W45471  23.515   2.819   2.863
73047W        W45472  23.130  20.706   0.439
73048W        W45473   5.853  19.626   2.220
73049W        W45474  42.931  33.457  11.929
73050W        W45475  44.975  24.187  10.904
73051W        W45476  19.707  27.092  12.910
73052W        W45477  30.127  44.784   4.271
73053W        W45478  39.325  30.963   0.325
73054W        W45479   6.216  19.265  12.933
73055W        W45480  36.038  34.561   2.394
73056W        W45481  27.675  18.570   2.760
73057W        W45482  23.022  37.952  12.058
73058W        W45483  20.203  16.791   2.901
73059W        W45484  25.003  11.230   1.840
73060W        W45485  10.765  18.056  10.964
73061W        W45486  20.740  34.936  10.525
73062W        W45487   0.806  41.520   0.367
73063W        W45488   3.221  14.695  12.435
73064W        W45489   6.740  43.349  11.913
73065W        W45490   0.864  30.040   4.224
73066W        W45491  24.678   3.799   1.382
73067W        W45492  36.455  38.381   3.256
73068W        W45493  36.579  36.066   4.257
73069W        W45494  23.102   8.276   3.156
73070W        W45495  21.563  22.552  11.011
73071W        W45496  29.481  43.837   1.703
73072W        W45497  18.703  31.407   0.272
73073W        W45498  26.470  21.754  11.378
73074W        W45499  24.667   5.726  10.577
73075W        W45500  29.538  23.092   3.737
73076W        W45501  19.584  20.203   1.731
73077W        W45502   4.726  16.614  12.928
73078W        W45503   3.304  28.438   0.272
73079W        W45504   1.448  37.336  10.997
73080W        W45505  13.324  12.189   0.306
73081W        W45506  10.268  18.674  11.049
73082W        W45507   6.859  13.661   1.428
73083W        W45508   4.426   0.318  10.595
73084W        W45509  43.475  27.118   1.280
73085W        W45510  11.369   2.722   0.362
73086W        W45511  15.736  15.654   2.239
73087W        W45512  19.551   2.896  14.777
73088W        W45513  44.949  35.024  11.105
73089W        W45514   9.160  35.039  14.426
73090W        W45515  39.863  14.590  12.838
73091W        W45516   2.725  36.971   4.797
73092W        W45517  27.602  10.764  12.891
73093W        W45518   5.265   8.815  14.301
73094W        W45519   9.877  16.666   3.757
73095W        W45520  27.553  14.290  10.527
73096W        W45521  34.491   3.230  11.495
73097W        W45522  36.362  43.791   0.945
73098W        W45523  21.094  39.381   2.353
73099W        W45524  34.461  40.997  14.341
73100W        W45525  27.583   7.681   2.691
73101W        W45526  24.676  22.591   2.313
73102W        W45527  35.987  36.845   2.279
73103W        W45528  10.194  42.482   0.421
73104W        W45529   8.893  18.554  11.981
73105W        W45530  34.109  29.024  10.405
73106W        W45531  12.809  32.508  13.804
73107W        W45532   6.428   8.373   3.654
73108W        W45533  27.090  19.655   0.967
73109W        W45534  21.631  23.158  11.373
73110W        W45535  35.923  42.832   2.686
73111W        W45536  22.741   3.859  10.643
73112W        W45537  37.503  33.919  10.428
73113W        W45538  24.225  39.547   1.442
73114W        W45539  42.401  19.142  14.950
73115W        W45540  13.331  20.094  11.401
73116W        W45541  41.376  15.783   0.449
73117W        W45542  36.092   0.338   2.341
73118W        W45543   3.853  10.706   2.879
73119W        W45544  10.639  10.708  11.396
73120W        W45545   3.841  43.300   1.443
73121W        W45546  44.773  24.536  13.968
73122W        W45547   9.239   5.303  13.331
73123W        W45548  15.161   6.276   0.329
73124W        W45549  25.683  20.620   2.854
73125W        W45550  29.065  44.481   0.474
73126W        W45551  26.592  14.127   2.327
73127W        W45552   9.782  32.020   2.393
73128W        W45553   6.298  30.972   3.350
73129W        W45554  13.116   3.722   0.941
73130W        W45555   5.193   4.280   4.803
73131W        W45556   8.401  18.216   3.844
73132W        W45557  32.939  41.456  11.934
73133W        W45558   8.749  18.579  12.970
73134W        W45559  43.866  14.175  10.538
73135W        W45560  37.383  39.379   0.931
73136W        W45561   9.746  21.246   4.717
73137W        W45562  40.502   8.873  10.113
73138W        W45563   3.305  26.478   2.338
73139W        W45564  37.434  22.686  13.959
73140W        W45565  40.449  30.458  12.831
73141W        W45566  40.506  19.137  10.418
73142W        W45567   9.709  25.964  12.054
73143W        W45568  44.876   0.344   2.201
73144W        W45569   3.842  44.773   2.363
73145W        W45570  34.038  15.153   3.757
73146W        W45571  42.526   8.281  14.300
73147W        W45572  18.615  35.047  11.040
73148W        W45573  12.246  38.935   4.214
73149W        W45574  10.706  43.943   1.775
73150W        W45575  23.227  12.777   0.782
73151W        W45576  34.103  20.083  13.877
73152W        W45577  26.584  38.418   1.771
73153W        W45578  42.402  39.457   4.125
73154W        W45579  29.988   2.250  11.607
73155W        W45580  41.870  43.451  14.321
73156W        W45581   1.896  41.898   1.859
73157W        W45582  38.406  23.647  10.892
73158W        W45583  37.552  14.153   1.288
73159W        W45584  13.750  38.045   4.137
73160W        W45585  14.817  23.027   4.165
73161W        W45586  42.028  32.906  13.980
73162W        W45587  27.987  22.573   2.811
73163W        W45588  33.432  32.440  12.041
73164W        W45589  31.588   2.746   0.779
73165W        W45590  27.494  26.133   0.484
73166W        W45591  34.516  32.100  11.487
73167W        W45592  43.467  36.842  13.470
73168W        W45593  19.535  44.982   2.793
73169W        W45594   1.418   8.669  14.848
73170W        W45595  29.968   6.352   2.663
73171W        W45596  32.613  38.917   1.785
73172W        W45597  38.389  22.696   3.777
73173W        W45598   1.329  15.676   2.849
73174W        W45599  12.824  41.517   2.825
73175W        W45600   7.311  34.412  10.473
73176W        W45601  13.615   3.765  12.469
73177W        W45602  11.353  26.009  13.548
73178W        W45603  30.058  17.123   3.760
73179W        W45604  41.822  31.142  14.975
73180W        W45605   5.227  16.648   1.292
73181W        W45606  19.643  20.768  14.397
73182W        W45607  28.438  12.623  14.971
73183W        W45608  13.703  26.160  12.831
73184W        W45609   2.850  32.522   1.252
73185W        W45610  10.266  14.245   0.378
73186W        W45611  41.292  12.278  11.936
73187W        W45612  15.669  12.345  11.096
73188W        W45613   8.847  23.680  11.866
73189W        W45614  30.935  26.551  12.441
73190W        W45615  40.497  11.227  10.581
73191W        W45616  12.788  10.668  14.375
73192W        W45617  11.666  15.624   4.285
73193W        W45618  40.366   5.774   2.870
73194W        W45619  13.843   9.264  14.290
73195W        W45620  13.814  41.843  12.470
73196W        W45621  36.016  33.989  14.891
73197W        W45622  25.062  25.968   0.448
73198W        W45623  38.546  27.593  10.488
73199W        W45624   3.455  41.340   3.224
73200W        W45625  32.917  29.924   1.253
73201W        W45626  15.247  13.793  11.375
73202W        W45627  13.751  31.493   0.819
73203W        W45628   6.833  36.389  13.042
73204W        W45629  31.620  33.446  11.050
73205W        W45630  13.320  39.941   3.151
73206W        W45631  31.435  25.122   4.690
73207W        W45632  10.341  14.816   3.182
73208W        W45633  21.567  13.348  13.882
73209W        W45634  36.550   5.208  13.522
73210W        W45635   0.403   9.764  13.839
73211W        W45636   0.494  28.028  12.344
73212W        W45637   3.321  41.812  10.938
73213W        W45638  17.729   6.310   2.780
73214W        W45639  33.999  43.868   4.752
73215W        W45640   5.914  33.975   1.789
73216W        W45641   1.478   8.676  10.467
73217W        W45642  30.120  23.115   3.340
73218W        W45643  10.320  11.371   4.773
73219W        W45644  24.543  29.500  14.819
73220W        W45645   9.158   3.949   2.764
73221W        W45646   1.400  17.127   4.243
73222W        W45647  43.511  18.546   0.357
73223W        W45648  10.328  24.702  13.943
73224W        W45649   9.853   6.401   2.326
73225W        W45650  10.720  23.175   0.859
73226W        W45651  36.919  14.283  12.913
73227W        W45652   1.853  13.783  12.036
73228W        W45653  11.373  19.626  11.104
73229W        W45654  19.268  42.410   2.181
73230W        W45655  11.800   9.212   3.279
73231W        W45656  14.197  17.188   0.941
73232W        W45657  26.142   0.951   3.164
73233W        W45658   4.919  12.729  10.508
73234W        W45659  10.178  16.787   2.679
73235W        W45660   6.251  20.601  12.948
73236W        W45661  27.135   5.272   4.610
73237W        W45662   4.341  22.523  12.009
73238W        W45663  26.071  19.201   4.740
73239W        W45664   5.259  23.735  10.935
73240W        W45665  19.222  44.914   3.286
73241W        W45666  44.430  15.250   4.796
73242W        W45667  35.855  15.111  12.885
73243W        W45668  12.725  19.719  12.347
73244W        W45669  16.307   3.923  11.571
73245W        W45670  43.972  36.052   0.409
73246W        W45671  12.196  23.562  11.013
73247W        W45672   5.776  16.657  14.031
73248W        W45673  14.165  17.678   0.774
73249W        W45674  36.062  42.500  10.524
73250W        W45675  34.048  44.965   0.286
73251W        W45676  37.967  23.558  12.549
73252W        W45677  43.918  14.768   3.215
73253W        W45678   0.880  40.031   2.417
73254W        W45679  43.363   4.751  11.938
73255W        W45680   1.869  43.443   3.768
73256W        W45681  25.032   5.716  11.924
73257W        W45682  44.500  13.304   2.762
73258W        W45683   8.846  36.471  11.974
73259W        W45684  19.624  24.999  14.912
73260W        W45685  20.136  10.869  11.469
73261W        W45686  29.610  11.662   3.342
73262W        W45687  36.565  32.028   0.916
73263W        W45688  36.957  37.453  11.578
73264W        W45689  37.483  28.940  12.981
73265W        W45690  13.663  16.625  13.380
73266W        W45691  12.199  12.168  11.533
73267W        W45692  38.549   8.194  10.118
73268W        W45693  18.260  40.823  14.506
73269W        W45694   5.737  18.245   1.341
73270W        W45695  13.618  44.860  11.098
73271W        W45696  14.619  22.713   5.272
73272W        W45697  16.093  16.283   2.218
73273W        W45698  14.218  11.704  13.862
73274W        W45699  23.516  23.615   4.785
73275W        W45700  34.054  33.380   0.471
73276W        W45701   7.760  30.588  12.931
73277W        W45702  38.068  13.187  12.558
73278W        W45703  20.222  21.685   3.300
73279W        W45704  10.785  22.667   0.872
73280W        W45705  20.631   2.270  11.996
73281W        W45706  40.526  33.105  11.087
73282W        W45707   3.433  36.492  10.964
73283W        W45708  24.156  19.070   3.175
73284W        W45709  10.382   6.225   0.747
73285W        W45710  11.139  43.340   1.799
73286W        W45711  34.865  24.596  14.299
73287W        W45712  15.771   5.387   0.807
73288W        W45713  38.042  14.274   4.820
73289W        W45714  23.140  17.694   0.312
73290W        W45715  18.091  25.527   2.406
73291W        W45716  14.668  24.699  10.997
73292W        W45717  29.514  41.365   0.355
73293W        W45718  24.616   2.783   3.757
73294W        W45719  30.050   1.915  13.392
73295W        W45720  30.056  36.371   0.422
73296W        W45721  27.627   0.400  13.883
73297W        W45722  31.402   4.386   1.801
73298W        W45723  28.551  43.410  10.535
73299W        W45724  30.130  40.964  14.413
73300W        W45725  22.146  31.445  14.760
73301W        W45726   5.286  35.969   4.334
73302W        W45727   1.742  10.197   0.729
73303W        W45728  43.295  44.303   0.441
73304W        W45729   2.279  19.711   2.743
73305W        W45730  26.485  18.684  13.913
73306W        W45731  15.118  18.130  11.992
73307W        W45732  41.028  12.135   1.450
73308W        W45733  26.647  10.352  14.027
73309W        W45734  32.522  40.965   0.938
73310W        W45735  13.127  30.908  10.993
73311W        W45736  33.550  21.023   3.683
73312W        W45737  31.638  37.509   2.678
73313W        W45738   9.822  31.107  10.888
73314W        W45739  12.318  32.104   4.198
73315W        W45740  11.686  32.619   2.858
73316W        W45741  35.879  33.600   4.684
73317W        W45742  36.581  30.553   4.664
73318W        W45743  23.162   4.348  13.351
73319W        W45744  18.237  23.598  10.535
73320W        W45745  36.094  13.815  14.411
73321W        W45746  38.354  25.582  13.854
73322W        W45747  36.446   1.792  14.442
73323W        W45748  18.651   9.843  11.959
73324W        W45749  34.581  28.149  12.984
73325W        W45750  44.782  39.970   0.801
73326W        W45751   0.872  10.183  12.014
73327W        W45752   6.373  32.570  13.912
73328W        W45753  17.285   4.906   0.366
73329W        W45754  25.156  43.332  12.943
73330W        W45755   6.853  38.852  11.377
73331W        W45756  25.469  40.389  12.083
73332W        W45757  17.145  29.535  13.466
73333W        W45758  22.600  17.207  14.312
73334W        W45759  25.057  39.388  10.497
73335W        W45760  20.664  18.069  13.038
73336W        W45761  27.576   4.945  10.005
73337W        W45762  43.860  27.946  14.813
73338W        W45763  11.153  10.818  12.538
73339W        W45764  19.269  43.492  10.893
73340W        W45765   9.741   2.268  11.949
73341W        W45766  36.515   2.890   4.751
73342W        W45767  14.262   4.931  14.945
73343W        W45768  18.236  32.601   0.925
73344W        W45769  33.889  22.555  12.458
73345W        W45770  22.601   5.913   0.325
73346W        W45771  10.144  36.969  11.112
73347W        W45772   7.901   4.851   1.448
73348W        W45773   5.774  40.952  10.968
73349W        W45774  35.487  40.836  12.063
73350W        W45775  12.190   4.204  13.940
73351W        W45776  28.129  32.925  13.928
73352W        W45777  38.952  24.051  14.004
73353W        W45778  19.669  12.166  10.460
73354W        W45779  29.469  43.816   2.219
73355W        W45780  15.711   3.831  12.870
73356W        W45781   4.356  29.615   0.444
73357W        W45782  24.647  16.179   4.770
73358W        W45783  25.528  19.602   1.295
73359W        W45784  35.505   5.279   2.309
73360W        W45785  28.164  27.531  14.991
73361W        W45786  34.041  37.899  11.107
73362W        W45787  33.435  22.014  13.387
73363W        W45788   4.238  20.687  12.408
73364W        W45789  21.054  13.612   2.179
73365W        W45790  18.682  30.927   4.194
73366W        W45791  23.700  37.439  13.356
73367W        W45792  21.612  15.808   2.239
73368W        W45793   0.863  20.161  13.387
73369W        W45794   7.903   9.159  14.428
73370W        W45795  12.664  28.668   4.834
73371W        W45796  14.667  25.119   4.209
73372W        W45797  35.592  20.204  13.859
73373W        W45798  36.963  18.789  11.031
73374W        W45799  26.603   3.927  14.457
73375W        W45800  19.576   0.299  11.501
73376W        W45801   8.780  28.984  12.989
73377W        W45802   9.767  28.644  11.101
73378W        W45803  38.545  12.350   1.427
73379W        W45804   6.381  29.090  13.500
73380W        W45805  38.565  42.410   0.338
73381W        W45806  35.872  29.467   0.736
73382W        W45807  13.255  33.594  12.496
73383W        W45808  42.922  44.404  11.445
73384W        W45809  36.071  34.872  13.374
73385W        W45810   7.855  15.718   0.429
73386W        W45811  22.564  15.735  12.415
73387W        W45812   1.891  18.113   3.647
73388W        W45813   4.753  36.998   1.373
73389W        W45814  39.366  32.935  11.448
73390W        W45815   2.445  33.958   4.634
73391W        W45816  32.984   7.309  11.556
73392W        W45817  16.688   6.352   2.748
73393W        W45818  41.444  35.596   2.806
73394W        W45819  26.144  27.635  10.437
73395W        W45820  22.137  10.168   0.348
73396W        W45821  43.348   7.856  14.805
73397W        W45822  30.560  29.028  13.423
73398W        W45823   3.314  42.979   2.276
73399W        W45824   2.792  41.402   3.838
73400W        W45825  28.034  42.932  13.373
73401W        W45826  20.550  16.580   1.921
73402W        W45827  28.184   8.186  11.582
73403W        W45828   2.851   4.763   0.275
73404W        W45829  16.753  19.735   0.457
73405W        W45830  41.883  29.512   4.339
73406W        W45831  16.742  13.608  13.538
73407W        W45832  33.613  38.849  10.992
73408W        W45833  21.048  18.215  10.487
73409W        W45834  19.101  25.675  10.987
73410W        W45835  33.424  16.631  14.393
73411W        W45836  30.084  35.428   3.844
73412W        W45837  33.598  14.303   4.766
73413W        W45838  21.604  39.952  10.909
73414W        W45839  13.276   2.807   1.311
73415W        W45840   3.406  20.639   3.773
73416W        W45841   8.728  34.382   0.758
73417W        W45842  18.154  38.522  12.411
73418W        W45843  11.762  28.175   0.915
73419W        W45844  18.548  17.076   3.660
73420W        W45845  16.313  28.533  13.382
73421W        W45846  33.075   7.360  12.415
73422W        W45847  21.167  24.043  14.302
73423W        W45848  25.638  17.697  13.338
73424W        W45849  37.899   2.428   1.278
73425W        W45850   4.313  20.122   3.225
73426W        W45851   3.940   1.258  14.856
73427W        W45852  22.112  38.961   4.735
73428W        W45853  28.645   2.908   3.357
73429W        W45854  15.093  34.104  10.544
73430W        W45855  10.144  11.790   3.772
73431W        W45856  27.942  35.566  14.885
73432W        W45857   8.685  19.121  10.979
73433W        W45858   6.781  27.665   0.883
73434W        W45859  43.295  33.546   0.385
73435W        W45860  25.010   6.785  12.514
73436W        W45861  28.510  31.091   4.707
73437W        W45862  44.276   1.785  14.011
73438W        W45863  29.120  14.797  12.940
73439W        W45864  13.691   4.870  11.902
73440W        W45865  12.334  20.710  13.411
73441W        W45866  39.920   7.278   2.186
73442W        W45867   7.844  26.021  12.046
73443W        W45868  24.124   0.904   0.774
73444W        W45869  24.200  43.469  14.355
73445W        W45870  29.048  21.202  14.876
73446W        W45871  10.235  30.127   1.753
73447W        W45872  37.832  21.603  13.039
73448W        W45873  24.647  33.592   2.756
73449W        W45874  27.491  32.022  10.951
73450W        W45875  31.922  19.137  13.395
73451W        W45876   5.754  39.809   4.664
73452W        W45877  44.307  42.462  13.822
73453W        W45878   0.442  33.551  14.802
73454W        W45879  16.746  34.483   3.351
73455W        W45880  38.960  17.091  12.877
73456W        W45881  34.090   9.165   0.446
73457W        W45882   9.163  39.817  14.438
73458W        W45883  12.238  22.521   2.764
73459W        W45884  34.583   2.360  12.461
73460W        W45885  19.606  21.612  12.883
73461W        W45886  30.606  29.162  12.417
73462W        W45887  41.846   7.387   1.279
73463W        W45888  23.082   9.728  10.941
73464W        W45889  28.067  44.988  13.048
73465W        W45890  41.336  34.013  10.998
73466W        W45891  32.106  41.981  10.581
73467W        W45892  39.819  16.596  13.047
73468W        W45893   1.313  35.024   0.776
73469W        W45894   1.848   8.856  13.972
73470W        W45895  10.796  22.071   9.648
73471W        W45896  35.484  10.740   3.731
73472W        W45897  29.544  18.758  11.555
73473W        W45898  24.981  17.236  13.867
73474W        W45899  17.275  10.814  13.333
73475W        W45900  42.006  22.053  12.045
73476W        W45901   0.781   4.746  13.911
73477W        W45902   0.863   7.382   2.811
73478W        W45903  37.993  21.129  11.930
73479W        W45904  41.466   9.852  13.927
73480W        W45905  32.425  21.229   3.356
73481W        W45906   7.860  32.973  14.860
73482W        W45907  39.949  21.086  11.390
73483W        W45908   5.314  43.359  14.335
73484W        W45909  13.643  33.880  14.307
73485W        W45910  23.007  25.033   1.356
73486W        W45911   4.209   7.811  13.797
73487W        W45912  29.063  11.665   4.179
73488W        W45913  35.882  38.519  10.513
73489W        W45914  16.740  22.564   0.732
73490W        W45915   9.740  18.650  10.928
73491W        W45916  23.225  18.257  11.088
73492W        W45917  39.531  12.739   4.144
73493W        W45918   0.768  19.221  11.114
73494W        W45919  14.272  24.225   1.223
73495W        W45920   2.764   4.206  11.564
73496W        W45921  31.005  32.566   2.233
73497W        W45922   3.717  32.070  12.025
73498W        W45923  30.615  33.553   0.295
73499W        W45924  35.417  44.796  10.562
73500W        W45925  16.141  25.679   0.764
73501W        W45926   8.686   0.830  10.637
73502W        W45927   0.418  33.883  10.412
73503W        W45928  35.436  38.503  10.988
73504W        W45929  20.583   8.213   1.314
73505W        W45930  27.560  20.029  14.425
73506W        W45931  15.737   1.776  13.910
73507W        W45932   3.288   7.405  14.848
73508W        W45933  17.208   2.763  10.538
73509W        W45934  28.556  15.166  13.510
73510W        W45935  12.822  13.346   0.789
73511W        W45936  23.499   2.944  13.410
73512W        W45937   9.248  40.319  14.903
73513W        W45938   3.351  19.045   0.474
73514W        W45939  10.284  30.543   0.432
73515W        W45940  42.369  11.862  12.456
73516W        W45941   9.874  34.594  14.417
73517W        W45942  23.118   9.395  12.348
73518W        W45943  14.228   1.867  10.113
73519W        W45944   4.915   7.386  13.439
73520W        W45945  38.981  21.517   0.763
73521W        W45946  38.568  44.812   1.231
73522W        W45947  29.523  33.477  14.852
73523W        W45948  24.527  29.511   4.332
73524W        W45949   9.768   6.366   3.146
73525W        W45950  23.662  44.372   4.335
73526W        W45951  25.486  14.768  11.904
73527W        W45952   2.240  34.557   3.666
73528W        W45953  20.197   2.240  11.467
73529W        W45954   2.419   7.789  10.533
73530W        W45955   1.974  11.834  11.868
73531W        W45956  36.967  12.714   0.933
73532W        W45957  20.245  17.753  13.445
73533W        W45958  39.523   9.280   4.702
73534W        W45959  35.869  25.670   1.317
73535W        W45960  16.609  22.233   3.846
73536W        W45961  27.069  40.452  14.435
73537W        W45962  12.665  42.369  11.072
73538W        W45963  27.520  36.524   2.321
73539W        W45964  10.835  15.649   1.444
73540W        W45965  10.646  25.970   4.280
73541W        W45966   2.329  32.510  10.930
73542W        W45967  18.080  40.323   3.234
73543W        W45968  32.592  29.647   0.891
73544W        W45969  35.530  33.046   1.294
73545W        W45970  44.445  32.126   1.241
73546W        W45971  38.475  12.201   4.315
73547W        W45972  42.509   0.763  13.944
73548W        W45973  21.183  13.823  11.426
73549W        W45974  12.218  15.788   1.284
73550W        W45975  40.040  23.648  13.464
73551W        W45976  32.616  24.140   2.235
73552W        W45977   4.204   7.415   2.670
73553W        W45978  37.954  23.572  14.917
73554W        W45979   7.818  17.125  13.864
73555W        W45980  43.506  27.492   4.752
73556W        W45981  30.124  39.506   2.796
73557W        W45982  18.777  28.497  10.586
73558W        W45983  10.673   3.798   4.296
73559W        W45984   2.389  42.433  10.959
73560W        W45985  18.675   8.728   3.811
73561W        W45986  35.419   0.450  14.765
73562W        W45987  28.506  12.634  11.582
73563W        W45988  16.072   4.730  14.948
73564W        W45989  30.633  31.958  10.913
73565W        W45990  17.065  25.180   4.620
73566W        W45991  39.819  26.194  11.578
73567W        W45992  28.938  22.593  12.471
73568W        W45993   0.775  28.956   0.766
73569W        W45994  30.157  20.667   5.151
73570W        W45995  31.963   4.289  13.372
73571W        W45996  24.156   6.354  11.610
73572W        W45997  39.456  38.535  12.465
73573W        W45998   0.397  31.082  11.989
73574W        W45999  16.154  32.391   0.432
73575W        W46000  11.273  17.184  10.608
73576W        W46001  19.778  11.250  11.509
73577W        W46002  15.600  35.905   1.722
73578W        W46003  25.079  29.579   1.785
73579W        W46004  24.974  12.756   2.350
73580W        W46005  37.502   6.698  11.983
73581W        W46006  42.914  26.688   0.384
73582W        W46007   2.827  10.791  13.330
73583W        W46008  27.184  32.067   3.764
73584W        W46009   4.310  24.043   2.776
73585W        W46010  32.090  17.096  12.448
73586W        W46011  14.105   3.793   1.363
73587W        W46012  15.086  22.730   2.879
73588W        W46013  29.132  12.117  10.590
73589W        W46014  35.009  43.018  14.976
73590W        W46015  11.189  21.730   3.774
73591W        W46016  33.958   0.361  14.819
73592W        W46017  41.788   9.831  13.941
73593W        W46018  41.978  18.612   0.809
73594W        W46019  13.844  25.569  14.902
73595W        W46020  33.079  13.708   0.798
73596W        W46021   8.234   6.273   0.838
73597W        W46022  12.188  42.824  12.450
73598W        W46023  26.973  34.035  12.976
73599W        W46024   5.722  40.518   1.784
73600W        W46025   1.853   7.293   2.847
73601W        W46026   8.889  44.373  14.868
73602W        W46027  32.089  34.033   2.413
73603W        W46028  41.842   3.329  11.595
73604W        W46029  22.658  16.772   4.669
73605W        W46030  39.502  40.386   0.801
73606W        W46031   6.731  36.007  12.954
73607W        W46032  41.972   6.300  11.532
73608W        W46033  22.585  11.649  12.973
73609W        W46034  29.457  14.309  13.910
73610W        W46035  40.437  41.936  11.387
73611W        W46036  10.226  18.076   4.250
73612W        W46037  18.761   4.203   4.308
73613W        W46038  37.987  32.510   4.832
73614W        W46039  27.979  36.362   2.188
73615W        W46040   9.230   1.964   3.195
73616W        W46041  16.191  42.966   0.450
73617W        W46042  38.999  29.004  11.406
73618W        W46043  43.461  10.154  11.586
73619W        W46044  18.205   6.852   3.269
73620W        W46045  37.511  31.566  14.290
73621W        W46046  35.009  40.004  13.839
73622W        W46047   9.695  20.584   1.876
73623W        W46048  28.986  22.117   1.339
73624W        W46049  16.295  20.737  14.826
73625W        W46050  41.904  35.467  14.274
73626W        W46051  23.183  43.472   2.283
73627W        W46052   0.408  34.097   3.245
73628W        W46053  22.011  31.956   4.706
73629W        W46054   6.802   5.267   1.705
73630W        W46055  27.980  42.921  12.842
73631W        W46056   9.848  17.710   3.283
73632W        W46057   4.330  31.589  13.309
73633W        W46058  34.523   8.714  11.116
73634W        W46059   6.860  42.457  11.436
73635W        W46060  30.501   0.248   3.178
73636W        W46061  17.692  25.635  14.977
73637W        W46062   0.269  35.503  12.027
73638W        W46063  31.445  12.817  10.557
73639W        W46064  23.598  12.786   4.201
73640W        W46065  17.079   9.724  10.549
73641W        W46066  34.910  14.163   1.243
73642W        W46067   9.289  35.366   4.612
73643W        W46068  10.291  11.761  12.949
73644W        W46069  42.991  22.734   4.270
73645W        W46070  38.031  11.733   0.443
73646W        W46071  35.547  15.190  13.886
73647W        W46072   9.698  38.965  11.492
73648W        W46073  35.067  24.034  10.973
73649W        W46074  26.014   8.218   1.866
73650W        W46075   2.398   5.810  13.413
73651W        W46076  41.369  24.193   3.737
73652W        W46077   4.228  35.904   2.318
73653W        W46078  22.021  42.871  11.568
73654W        W46079  17.653  23.163   1.751
73655W        W46080  35.049   9.222  12.066
73656W        W46081   5.931  41.805  12.851
73657W        W46082  34.978  18.273   1.282
73658W        W46083  15.599  35.088   3.277
73659W        W46084  11.804  31.519   3.738
73660W        W46085  18.547  22.252  14.312
73661W        W46086  39.813  13.838   4.278
73662W        W46087  40.457  16.691   0.248
73663W        W46088  44.318  14.161   4.697
73664W        W46089  26.067  27.036  13.440
73665W        W46090  32.138  29.534   4.230
73666W        W46091  16.126  14.121   4.138
73667W        W46092  18.090  20.070  11.494
73668W        W46093  21.564  35.558   3.290
73669W        W46094  22.610  35.547   4.184
73670W        W46095  10.228  27.678  10.126
73671W        W46096   3.304   0.854  10.493
73672W        W46097  37.372  20.688   1.358
73673W        W46098  28.100  38.445  13.406
73674W        W46099  38.493  10.203  14.026
73675W        W46100  25.562  18.279  14.336
73676W        W46101  43.379  36.413  11.388
73677W        W46102  36.408   4.223   3.185
73678W        W46103  17.197  14.217   4.120
73679W        W46104   7.883   2.399  12.847
73680W        W46105  19.276  25.987  14.358
73681W        W46106   9.201   7.362  13.433
73682W        W46107  35.940  37.992  14.864
73683W        W46108  19.654  25.086   1.700
73684W        W46109  35.024  23.043  12.856
73685W        W46110  43.434  32.441  12.542
73686W        W46111  40.525  29.955  11.442
73687W        W46112  11.232  29.083  11.991
73688W        W46113  30.625  41.867  14.975
73689W        W46114  28.039  13.321   3.746
73690W        W46115  13.724   4.749   3.155
73691W        W46116   2.951   0.331  11.934
73692W        W46117   7.753   2.464  11.611
73693W        W46118  12.311   7.174  14.939
73694W        W46119  42.820   0.434  14.386
73695W        W46120   3.433  23.989   5.092
73696W        W46121  26.052  33.557  13.003
73697W        W46122  32.500  41.875   4.725
73698W        W46123  17.770  23.524   4.163
73699W        W46124  32.920  29.571  14.782
73700W        W46125  19.740  40.799  11.515
73701W        W46126  24.138  10.333  13.326
73702W        W46127  23.621  42.457  11.112
73703W        W46128  21.536  40.469   0.331
73704W        W46129  34.013  42.924   1.384
73705W        W46130  34.525  22.016  14.280
73706W        W46131   4.372  11.829   4.682
73707W        W46132  40.460  34.962  10.889
73708W        W46133  21.673  24.524   1.703
73709W        W46134  30.635  26.967   3.365
73710W        W46135  15.322  15.649   1.703
73711W        W46136   7.381   0.249   1.726
73712W        W46137   2.299  21.078   3.330
73713W        W46138  44.467  30.042  10.562
73714W        W46139   5.883   3.371  11.498
73715W        W46140  39.941  39.001   1.411
73716W        W46141  17.717  30.562  14.000
73717W        W46142  38.357  43.325   3.356
73718W        W46143  43.467  41.943  13.062
73719W        W46144  29.481  11.734  11.010
73720W        W46145  22.093  33.447  10.973
73721W        W46146  24.061  44.395  12.448
73722W        W46147  44.491  18.636   2.796
73723W        W46148  30.626  18.193  14.772
73724W        W46149  34.913  31.604   0.799
73725W        W46150  16.147  10.834   2.362
73726W        W46151  30.971  12.216  14.425
73727W        W46152   9.656  29.922   2.669
73728W        W46153  44.327  19.631   4.661
73729W        W46154  28.135  24.672  10.540
73730W        W46155  14.300   1.274  11.596
73731W        W46156  11.202  22.174   0.890
73732W        W46157  11.282  26.515  11.982
73733W        W46158  23.673  17.101  10.968
73734W        W46159  14.204   3.275  14.378
73735W        W46160  16.753  39.946  11.991
73736W        W46161   6.241  30.441  10.933
73737W        W46162  33.558  44.799  14.831
73738W        W46163   8.801  39.479   1.311
73739W        W46164   6.749  33.536   1.342
73740W        W46165  36.856  44.828   1.354
73741W        W46166  18.632  20.178  14.438
73742W        W46167  43.342  42.336   3.286
73743W        W46168  44.453  38.448   1.815
73744W        W46169  42.021   2.297  12.938
73745W        W46170  20.649   7.898   0.919
73746W        W46171  44.938  26.522   1.449
73747W        W46172  33.975  29.951  13.039
73748W        W46173  23.694  37.511  12.844
73749W        W46174  30.129  17.290  12.462
73750W        W46175   7.728  41.382   4.755
73751W        W46176  30.994  30.131  11.553
73752W        W46177  10.722  24.550  11.065
73753W        W46178  36.388  31.935   4.332
73754W        W46179  33.904  17.174   3.225
73755W        W46180  27.577  34.457  13.435
73756W        W46181  38.374   5.320  12.340
73757W        W46182  27.623  18.742  14.317
73758W        W46183  32.128  10.241  13.392
73759W        W46184   0.446  21.109   4.123
73760W        W46185  18.081  16.610   0.789
73761W        W46186  26.978  21.208  14.015
73762W        W46187  25.016  29.168  11.943
73763W        W46188  41.899  25.999   3.165
73764W        W46189  30.534  43.954  10.899
73765W        W46190  41.492  17.647   3.191
73766W        W46191   7.884  31.997   0.933
73767W        W46192  37.508   0.865  12.014
73768W        W46193  24.537   7.810  11.422
73769W        W46194  19.083  36.446  12.028
73770W        W46195  41.355  22.242   3.224
73771W        W46196  31.403  40.958   9.509
73772W        W46197  27.608  26.961   3.321
73773W        W46198  38.462   3.334   4.275
73774W        W46199   5.917  12.691  12.460
73775W        W46200  25.689  28.049   1.315
73776W        W46201  37.453   9.190   9.652
73777W        W46202  17.201   7.774   0.857
73778W        W46203  12.738  35.906   0.445
73779W        W46204  11.246  18.751   1.434
73780W        W46205  19.043  18.782   0.806
73781W        W46206  22.711   1.971   0.955
73782W        W46207  31.503  25.490  14.962
73783W        W46208  12.162  23.064  10.572
73784W        W46209  16.615  38.892   4.174
73785W        W46210  17.068  30.639  10.492
73786W        W46211  12.777  24.665   9.513
73787W        W46212  34.032   0.920  14.759
73788W        W46213  12.614  14.698   1.300
73789W        W46214  38.918  24.020   0.885
73790W        W46215  37.002  36.022   0.960
73791W        W46216   1.970   8.319  11.595
73792W        W46217  23.180   7.737  10.584
73793W        W46218  44.458  13.151  14.906
73794W        W46219  28.583  19.673  11.002
73795W        W46220  27.637  23.195   5.715
73796W        W46221  23.202  20.608   2.768
73797W        W46222  34.523  33.479   9.941
73798W        W46223  34.425  27.072   1.698
73799W        W46224  31.071  31.409  10.633
73800W        W46225  32.413  32.541   2.736
73801W        W46226   5.373   2.721  11.012
73802W        W46227  40.038   7.345   1.249
73803W        W46228  25.654  26.135   2.410
73804W        W46229  32.595   3.812  13.315
73805W        W46230  26.504  11.269  13.884
73806W        W46231   7.704  24.662  11.111
73807W        W46232  11.859  13.322  10.569
73808W        W46233  10.265  35.893  10.921
73809W        W46234  15.776  34.921   5.267
73810W        W46235  38.349   9.827   3.188
73811W        W46236   6.738  36.898  11.125
73812W        W46237  21.098  26.048  11.524
73813W        W46238   8.813  19.076  13.808
73814W        W46239  27.534  43.316  13.881
73815W        W46240  39.043  42.851   3.811
73816W        W46241  11.333  43.515  14.937
73817W        W46242  40.886  18.614   0.826
73818W        W46243  14.604   7.873   3.739
73819W        W46244  28.079  20.075   1.906
73820W        W46245  13.777  23.219  10.624
73821W        W46246  44.876  38.353  13.421
73822W        W46247  31.542   0.834   4.708
73823W        W46248   6.306  19.595  12.542
73824W        W46249  26.039  32.948   3.776
73825W        W46250  22.502  23.984   0.297
73826W        W46251  41.427  39.461   1.696
73827W        W46252  34.022  36.010  14.328
73828W        W46253  35.538  18.219  11.905
73829W        W46254  41.790  16.773   1.791
73830W        W46255  36.980   9.207   0.822
73831W        W46256  36.844  12.747  13.846
73832W        W46257  10.861  16.589  11.576
73833W        W46258  35.514  17.198  13.055
73834W        W46259  18.144  19.624  12.845
73835W        W46260  40.313  36.908  13.891
73836W        W46261   6.726  30.036  10.908
73837W        W46262  20.120  37.570   0.398
73838W        W46263   2.372   0.275  12.969
73839W        W46264   5.392   1.304   2.345
73840W        W46265   7.673  34.885   5.265
73841W        W46266  30.148  37.456  12.388
73842W        W46267   1.422   1.887  11.405
73843W        W46268  31.576   3.335  11.956
73844W        W46269  32.950   6.856  13.041
73845W        W46270  21.090  14.183   3.680
73846W        W46271  32.557  40.506  13.941
73847W        W46272  15.186   3.823  11.498
73848W        W46273  13.818  19.573  12.550
73849W        W46274  27.146  38.863  13.961
73850W        W46275   3.320   8.858  10.623
73851W        W46276  30.485   7.670  11.102
73852W        W46277  41.474   9.817  14.350
73853W        W46278  42.031  44.405  11.394
73854W        W46279  22.629  15.154  10.556
73855W        W46280  13.298   8.868  13.497
73856W        W46281  14.680   1.270  11.438
73857W        W46282  29.074  30.427   3.179
73858W        W46283  32.422  33.959  14.885
73859W        W46284  39.358  33.613  10.056
73860W        W46285  34.987   6.731   1.896
73861W        W46286  34.915  37.575  11.089
73862W        W46287  28.643   2.942  14.294
73863W        W46288  42.355  25.065   1.302
73864W        W46289  41.400  21.253   3.698
73865W        W46290  31.574  13.612   1.397
73866W        W46291  28.137  37.966  14.365
73867W        W46292  21.154  35.079   2.285
73868W        W46293  10.246   8.365   3.826
73869W        W46294  27.632  26.549   0.731
73870W        W46295  11.190  16.183  13.543
73871W        W46296  41.813  26.050  14.446
73872W        W46297  35.107  15.598   1.224
73873W        W46298  41.866   5.402  11.125
73874W        W46299  24.048  16.095   4.216
73875W        W46300  26.522   5.718  11.381
73876W        W46301  13.342  16.086   2.859
73877W        W46302   1.814   1.851  14.469
73878W        W46303   0.465  14.241   1.446
73879W        W46304  14.751  23.139  13.855
73880W        W46305  44.869  10.361  11.019
73881W        W46306  27.644  43.924  14.440
73882W        W46307  35.583  15.639  14.810
73883W        W46308   8.853  18.148  14.784
73884W        W46309  38.073  41.329   2.207
73885W        W46310  33.395   3.407  10.082
73886W        W46311   8.817  40.451   1.316
73887W        W46312  12.275  21.532   3.154
73888W        W46313  28.071  43.413   1.916
73889W        W46314   7.681  43.894   3.263
73890W        W46315  14.296   3.397   0.786
73891W        W46316  10.674  14.103  11.099
73892W        W46317   6.245   3.713  13.352
73893W        W46318  23.172  43.339   4.742
73894W        W46319  29.649   7.407  10.625
73895W        W46320  25.051  39.867  12.940
73896W        W46321  29.949  29.126  14.024
73897W        W46322  14.762  28.648  11.413
73898W        W46323  13.727  25.596  11.457
73899W        W46324  41.386  33.108  10.602
73900W        W46325  10.733   1.826  11.479
73901W        W46326  37.988  10.301   0.459
73902W        W46327  11.195   3.417   4.349
73903W        W46328  41.530  13.608   2.752
73904W        W46329  16.289  19.216   3.341
73905W        W46330  17.590  39.347  14.485
73906W        W46331   1.872  27.040   3.325
73907W        W46332  20.244  44.969  13.477
73908W        W46333  39.973  38.969  11.449
73909W        W46334  13.104  14.301   1.873
73910W        W46335   7.796  30.110  12.497
73911W        W46336  12.160  34.376  12.093
73912W        W46337  24.220  25.103  10.922
73913W        W46338   2.773  11.772   0.483
73914W        W46339  29.082   3.329  10.931
73915W        W46340   8.834  24.712   2.203
73916W        W46341  43.301  28.951  13.859
73917W        W46342  12.615  31.121  10.916
73918W        W46343   4.316  14.796   4.195
73919W        W46344  11.173  42.003   1.427
73920W        W46345  18.286  18.176  14.329
73921W        W46346  40.537   5.341  14.507
73922W        W46347   4.335   1.833  13.862
73923W        W46348  37.510  32.633  14.996
73924W        W46349  20.613  28.467  11.587
73925W        W46350  43.491   3.896   3.830
73926W        W46351  38.010   9.297  14.401
73927W        W46352  29.974  38.063  11.058
73928W        W46353  44.911  39.474   4.716
73929W        W46354  33.094  16.771  11.484
73930W        W46355  43.925  39.433  13.489
73931W        W46356  32.575   9.657  14.377
73932W        W46357  30.112  18.218  14.918
73933W        W46358  32.509  18.234  12.848
73934W        W46359  19.554   3.297  10.495
73935W        W46360  37.030  24.043  10.501
73936W        W46361  27.965   5.886  13.976
73937W        W46362  22.226  36.967  10.499
73938W        W46363  18.773   0.413  11.462
73939W        W46364  44.836   5.406   3.868
73940W        W46365  26.492  31.135   2.807
73941W        W46366  17.068  10.229  11.606
73942W        W46367  12.799  28.932  11.021
73943W        W46368  10.251  36.998   4.620
73944W        W46369   9.187   5.371  11.944
73945W        W46370  30.941  39.537   4.342
73946W        W46371   3.930  11.720  14.440
73947W        W46372  37.950   5.268   0.281
73948W        W46373   0.820  21.586  14.409
73949W        W46374  20.759  14.821  11.026
73950W        W46375  11.754  10.191   5.225
73951W        W46376  43.279  23.168   3.754
73952W        W46377  41.337  24.107  12.060
73953W        W46378  23.605  17.121  11.430
73954W        W46379  14.739   1.360   2.742
73955W        W46380  26.079   8.387  14.355
73956W        W46381  43.876  28.518  12.348
73957W        W46382  42.829  30.911   3.818
73958W        W46383  20.136   5.367  10.929
73959W        W46384  32.082  30.004   3.676
73960W        W46385   7.749   0.835   1.713
73961W        W46386  20.559  20.675   0.792
73962W        W46387  14.781   3.718   1.829
73963W        W46388  35.918  20.557   1.215
73964W        W46389  34.884  20.745   0.268
73965W        W46390  17.077   0.792  13.923
73966W        W46391   3.767  25.989   1.338
73967W        W46392  42.307  16.629  13.367
73968W        W46393  35.933   7.212   5.211
73969W        W46394  29.589  11.321  14.443
73970W        W46395  37.481   8.827  10.522
73971W        W46396  21.742  44.774  13.310
73972W        W46397  25.052  10.204  10.997
73973W        W46398   1.249  17.193   3.303
73974W        W46399   7.785  34.602   1.243
73975W        W46400   7.713   6.745  14.515
73976W        W46401  34.611  40.888  13.799
73977W        W46402  44.447  17.768  11.934
73978W        W46403  17.640   3.820   2.179
73979W        W46404  30.948   7.330   2.357
73980W        W46405   4.802  38.383   2.669
73981W        W46406   1.774  38.398  14.995
73982W        W46407  19.567  12.333   4.651
73983W        W46408  29.470  31.055   2.807
73984W        W46409  16.777  33.100   0.830
73985W        W46410  42.374  26.696   1.785
73986W        W46411  27.069   7.357   3.351
73987W        W46412  16.139  28.951   0.251
73988W        W46413  23.161  22.074  12.040
73989W        W46414  20.045  37.533  14.962
73990W        W46415  41.449  44.271  14.909
73991W        W46416   7.769   7.406   1.931
73992W        W46417  41.863   5.352   3.352
73993W        W46418  40.838  42.835   4.614
73994W        W46419  28.633  31.940   2.736
73995W        W46420  18.727  17.753  13.421
73996W        W46421  15.647  20.602   0.378
73997W        W46422  25.507  16.805   3.805
73998W        W46423   1.399  26.485   1.277
73999W        W46424  28.174  14.816   2.307
74000W        W46425   5.910   6.184   2.318
74001W        W46426  14.188  11.749  11.571
74002W        W46427  11.259   5.898   1.896
74003W        W46428  37.050  12.741   1.705
74004W        W46429  35.869   2.725   2.204
74005W        W46430  33.605  13.692  13.006
74006W        W46431  35.906  33.396   2.748
74007W        W46432  35.895  35.978  14.409
74008W        W46433  40.851  24.573   1.922
74009W        W46434  20.662  15.688  10.608
74010W        W46435   6.190  14.832   4.639
74011W        W46436  34.982   3.407  13.816
74012W        W46437  26.646  26.191  13.532
74013W        W46438   1.466  39.521   0.265
74014W        W46439  29.668   2.859   0.385
74015W        W46440  25.688  16.118  10.964
74016W        W46441   7.255   0.830  13.888
74017W        W46442  37.414   7.790  12.849
74018W        W46443  24.697   5.336  13.517
74019W        W46444  12.724  38.899   2.832
74020W        W46445  34.950  34.415   2.836
74021W        W46446  27.943  22.163   0.380
74022W        W46447  44.975  35.085   2.818
74023W        W46448   2.450  23.078   0.389
74024W        W46449  14.133  17.157  11.486
74025W        W46450  15.148  10.147  14.469
74026W        W46451  20.154  37.517  10.625
74027W        W46452  14.102  43.314   0.443
74028W        W46453   2.366  23.213   2.753
74029W        W46454  30.508  24.118   0.420
74030W        W46455  36.890   1.398   2.802
74031W        W46456  38.431  14.664   4.796
74032W        W46457  14.626  38.006  11.120
74033W        W46458  20.054  36.875   4.263
74034W        W46459  39.060  31.626   0.893
74035W        W46460  32.999  24.071   3.706
74036W        W46461  20.667  26.532  11.496
74037W        W46462  24.150  24.083   0.756
74038W        W46463  29.529  28.060   3.222
74039W        W46464  35.857  22.037   1.401
74040W        W46465  13.708  37.047   3.276
74041W        W46466   5.779  33.536  14.866
74042W        W46467  28.043  26.190  10.121
74043W        W46468   8.379   2.903  14.363
74044W        W46469  22.139  43.909  11.909
74045W        W46470  23.526   4.730   0.899
74046W        W46471   3.836  44.297  14.302
74047W        W46472  40.881  38.401   1.806
74048W        W46473   0.895  40.942  11.415
74049W        W46474   2.941   6.284   2.769
74050W        W46475  35.082  28.055  12.980
74051W        W46476  44.493  39.929   0.880
74052W        W46477  39.955  24.058  11.941
74053W        W46478   7.882  37.544  10.958
74054W        W46479  41.840  14.301   3.185
74055W        W46480  14.603  17.061   1.370
74056W        W46481  20.558   4.396   4.119
74057W        W46482  12.278  42.853  14.014
74058W        W46483  29.465  25.586  11.470
74059W        W46484  13.784  30.929  14.343
74060W        W46485  10.348  18.174   9.988
74061W        W46486  27.171  40.953  12.358
74062W        W46487  29.637   7.254  13.987
74063W        W46488  31.541  22.061  11.398
74064W        W46489  32.571  18.702   0.454
74065W        W46490  32.541   1.864   2.371
74066W        W46491  18.649  26.196   1.296
74067W        W46492   5.872  25.985  13.342
74068W        W46493  19.122   1.393  10.534
74069W        W46494  21.569  29.442   2.348
74070W        W46495   4.862  24.046   4.214
74071W        W46496  36.867  26.510  11.087
74072W        W46497   2.882  41.402  11.867
74073W        W46498  35.502   0.813  11.056
74074W        W46499  16.576   1.766  10.433
74075W        W46500  25.088   0.315  13.497
74076W        W46501   5.241  30.126   4.814
74077W        W46502  28.598  24.155  10.946
74078W        W46503  24.645  16.721   4.826
74079W        W46504  21.712  35.870  11.542
74080W        W46505  31.963  18.135   4.226
74081W        W46506   0.354  36.568   0.821
74082W        W46507   9.185  31.563  11.888
74083W        W46508   0.944  38.460   4.710
74084W        W46509  27.651   3.813  11.435
74085W        W46510  35.411  10.200   3.250
74086W        W46511   9.666  26.970  14.916
74087W        W46512  34.995  40.030   2.251
74088W        W46513  32.457  27.635  12.889
74089W        W46514   0.893   7.706   3.230
74090W        W46515  32.581  29.637   0.425
74091W        W46516  20.720   1.880  10.487
74092W        W46517  35.999   5.292   2.793
74093W        W46518  19.776  12.847  14.386
74094W        W46519   5.346   9.729   4.789
74095W        W46520  34.598  22.686   3.770
74096W        W46521  33.047  44.861  12.853
74097W        W46522   6.279  36.545  12.427
74098W        W46523  34.118  10.316  12.342
74099W        W46524  25.988  30.415  10.406
74100W        W46525  35.883  38.509   0.769
74101W        W46526  18.789   8.890   0.302
74102W        W46527   6.757  18.745   3.174
74103W        W46528   5.309  29.562   3.799
74104W        W46529  41.420  11.672   2.324
74105W        W46530  41.900  18.773  12.088
74106W        W46531   1.301  37.451   4.768
74107W        W46532  39.897  35.364  11.440
74108W        W46533  10.325   5.363  10.934
74109W        W46534  28.099  41.447   4.809
74110W        W46535  37.507  41.880   0.797
74111W        W46536  37.436  23.197  13.011
74112W        W46537  13.108  28.606  11.009
74113W        W46538  11.654  37.034   4.167
74114W        W46539  30.460  14.258   4.215
74115W        W46540  40.494  11.796   0.403
74116W        W46541  31.482  21.680   2.766
74117W        W46542   7.256  12.820   3.723
74118W        W46543  24.583   0.894  14.355
74119W        W46544  40.959  23.997  13.354
74120W        W46545  10.746   6.400  12.847
74121W        W46546  43.861  34.036   2.794
74122W        W46547  40.447  14.332  12.896
74123W        W46548  35.067  22.078  13.935
74124W        W46549  33.926  28.615  14.457
74125W        W46550  26.108  12.677   0.766
74126W        W46551  38.563  26.628   1.435
74127W        W46552  12.821   9.214  11.572
74128W        W46553  29.480  15.680  10.623
74129W        W46554  10.219  42.798   0.878
74130W        W46555  12.745  17.697  13.364
74131W        W46556  28.018  24.208  10.962
74132W        W46557   9.388  28.543  12.985
74133W        W46558  26.137  40.463  11.408
74134W        W46559  41.451  23.578  11.890
74135W        W46560   9.760  24.589  12.418
74136W        W46561   0.376  38.911   1.373
74137W        W46562  10.227  23.016  14.960
74138W        W46563  15.791  11.820  11.371
74139W        W46564  29.587   6.387  11.451
74140W        W46565  27.517  11.178   3.249
74141W        W46566  34.521  21.251   2.755
74142W        W46567  20.730  12.230  11.456
74143W        W46568   0.347  39.468  13.471
74144W        W46569  20.712   8.667  11.086
74145W        W46570  15.110  11.259   4.172
74146W        W46571  23.523  40.460   3.199
74147W        W46572  40.532   6.899   3.205
74148W        W46573   6.198  28.121   0.867
74149W        W46574  17.255  30.158   3.287
74150W        W46575  18.281  34.524  12.088
74151W        W46576   0.872  15.794   4.327
74152W        W46577  43.007  20.767  11.025
74153W        W46578  10.155  38.516   2.257
74154W        W46579  29.573  18.297  13.866
74155W        W46580  29.483  20.133  10.644
74156W        W46581  23.988  18.169  10.567
74157W        W46582  42.483  42.398   4.324
74158W        W46583   6.913  37.961  11.444
74159W        W46584  20.265  27.519  11.441
74160W        W46585  33.921  43.884  12.539
74161W        W46586  40.925  43.995   3.367
74162W        W46587  29.443  11.804  12.906
74163W        W46588  29.480   3.406   5.155
74164W        W46589   7.292  24.529   4.834
74165W        W46590   4.763  29.503   5.285
74166W        W46591  23.682  33.064   1.774
74167W        W46592  35.407  41.984   2.333
74168W        W46593  15.207  29.574   3.240
74169W        W46594  43.276  23.132   0.401
74170W        W46595  40.049  22.241   3.238
74171W        W46596  34.863   7.720  11.588
74172W        W46597  23.523  23.011  11.944
74173W        W46598  41.488   8.377  14.279
74174W        W46599  17.672   4.859  11.050
74175W        W46600  32.121  14.636  14.847
74176W        W46601   7.305  40.901  10.892
74177W        W46602  27.621  19.708   1.787
74178W        W46603  23.170  39.474  12.414
74179W        W46604   1.463  17.614  13.829
74180W        W46605  17.145  33.553   2.679
74181W        W46606  12.771   5.418  13.845
74182W        W46607  37.891   0.942  13.435
74183W        W46608   1.473  14.766  12.390
74184W        W46609  11.143  26.594   1.378
74185W        W46610  36.060  32.067  14.024
74186W        W46611  23.021  10.676   0.472
74187W        W46612   2.365  21.110  14.445
74188W        W46613  14.639  28.574  12.360
74189W        W46614  34.003  30.651  14.967
74190W        W46615  27.456  27.072  13.451
74191W        W46616   4.358  32.911  13.542
74192W        W46617   9.204  26.117  14.514
74193W        W46618  11.674  22.153   3.360
74194W        W46619  26.694   7.266   2.285
74195W        W46620   9.817  19.551  12.943
74196W        W46621  24.064  34.548   3.702
74197W        W46622   8.307   5.925   0.952
74198W        W46623  18.677  34.449   3.759
74199W        W46624  16.094  33.928   2.245
74200W        W46625  33.458   0.977  14.896
74201W        W46626   8.369  14.761   0.417
74202W        W46627  37.955  37.550  10.563
74203W        W46628   3.254   3.413   0.297
74204W        W46629  43.819   9.655   0.255
74205W        W46630  12.307  33.529  11.007
74206W        W46631  21.593  17.066   1.784
74207W        W46632  31.032  32.928   3.273
74208W        W46633  14.330  29.090  13.826
74209W        W46634   8.375  14.258   4.147
74210W        W46635  19.645  37.408   4.628
74211W        W46636  39.862  40.944   4.612
74212W        W46637  27.051   9.267   4.724
74213W        W46638  17.668  23.665   0.464
74214W        W46639  40.506  32.094  11.041
74215W        W46640  15.591  26.535  10.438
74216W        W46641  22.548  13.656  13.961
74217W        W46642  39.963  22.030  10.535
74218W        W46643  22.120  16.163   2.303
74219W        W46644   7.400  26.000  10.936
74220W        W46645  24.157   2.313   4.241
74221W        W46646  44.403  13.227  11.472
74222W        W46647  36.098  11.744  14.021
74223W        W46648  12.315  28.983  12.422
74224W        W46649  40.836  18.592   1.425
74225W        W46650  11.249  40.401   4.338
74226W        W46651  13.826  26.000   4.341
74227W        W46652  28.657   6.305   3.826
74228W        W46653   0.901  35.051  10.603
74229W        W46654   5.236   4.408  14.998
74230W        W46655   8.891  29.468  14.766
74231W        W46656  20.619   9.670  10.063
74232W        W46657  19.699  33.082   2.713
74233W        W46658  19.072  37.557   1.891
74234W        W46659  37.974  18.695  14.313
74235W        W46660  22.031  10.709   1.933
74236W        W46661   7.385  16.273   4.173
74237W        W46662   5.900   7.387   2.195
74238W        W46663   9.259  27.002   3.339
74239W        W46664  36.889  39.323  11.058
74240W        W46665   8.328  32.424  11.865
74241W        W46666  44.448  22.645  12.026
74242W        W46667  33.391   3.341   3.718
74243W        W46668   8.282   6.795   3.852
74244W        W46669  28.183   6.742  13.031
74245W        W46670   1.395  20.065  13.509
74246W        W46671  10.149  23.109  13.898
74247W        W46672  38.968  40.318  12.066
74248W        W46673  43.316  41.932  10.914
74249W        W46674   5.873  35.098   1.710
74250W        W46675  12.301  20.533  12.370
74251W        W46676   2.911  18.735   1.796
74252W        W46677  17.756  29.617   1.214
74253W        W46678  13.142  31.979   0.811
74254W        W46679  28.932  24.606   3.750
74255W        W46680  18.726  38.533  14.297
74256W        W46681   8.184   5.340   2.389
74257W        W46682  41.948  32.928   0.827
74258W        W46683  40.442  26.578   0.733
74259W        W46684   5.198  32.932  14.495
74260W        W46685  13.273  32.932   0.407
74261W        W46686  28.545  34.407  11.569
74262W        W46687  23.193  36.054   2.286
74263W        W46688  21.034  39.324   3.383
74264W        W46689  21.075  44.909  11.114
74265W        W46690  43.909  26.059  10.467
74266W        W46691  36.907  11.330   1.816
74267W        W46692  33.049   6.873  13.518
74268W        W46693  32.994  38.989   2.211
74269W        W46694  32.617   0.894  12.467
74270W        W46695   4.812  11.196   4.704
74271W        W46696  20.523  16.293   3.155
74272W        W46697   4.804  35.027   1.373
74273W        W46698   3.711  24.207   2.324
74274W        W46699  36.401  15.801  10.436
74275W        W46700  40.985  14.590  13.403
74276W        W46701  13.117  37.464  10.483
74277W        W46702   6.260   5.270   4.813
74278W        W46703  41.337  37.952  10.972
74279W        W46704  29.504  27.062   1.911
74280W        W46705   1.962  42.997  11.119
74281W        W46706  35.967   9.749   2.250
74282W        W46707  26.031  38.901   0.828
74283W        W46708   1.936  20.760   2.282
74284W        W46709   0.826  14.746   2.894
74285W        W46710   3.250  15.718  13.466
74286W        W46711  43.982   0.446  13.813
74287W        W46712  34.012  11.756   0.433
74288W        W46713  40.810  34.895   0.325
74289W        W46714  21.600  11.324   2.897
74290W        W46715   3.224  39.874  12.426
74291W        W46716  15.588  20.716   1.697
74292W        W46717  16.139  24.622  14.482
74293W        W46718  41.365  20.669  12.074
74294W        W46719  12.773  43.464   4.626
74295W        W46720   1.804  30.071  14.290
74296W        W46721   1.384  29.127  11.399
74297W        W46722   5.744  38.462  12.845
74298W        W46723  32.455   9.843   0.860
74299W        W46724   6.308  27.958   2.195
74300W        W46725  43.830  42.015  13.880
74301W        W46726  35.566  34.977  12.505
74302W        W46727  14.607  12.612  10.566
74303W        W46728  18.748   6.343   2.315
74304W        W46729  36.572  30.434  12.363
74305W        W46730   3.718   7.378  13.435
74306W        W46731  35.534  40.845  12.910
74307W        W46732   6.682  12.268   2.700
74308W        W46733  15.142  23.173  11.124
74309W        W46734  26.087   3.852   2.407
74310W        W46735  42.458  22.240   5.298
74311W        W46736   4.278  33.896   0.757
74312W        W46737  12.309  30.523   2.744
74313W        W46738  36.390  12.703  13.955
74314W        W46739  21.533  33.514  14.019
74315W        W46740  23.176  36.577  14.975
74316W        W46741  16.712  40.019  13.846
74317W        W46742   1.425  15.223   1.717
74318W        W46743  21.664  29.540   0.814
74319W        W46744  29.444   5.431   2.288
74320W        W46745  33.963  28.073   3.664
74321W        W46746   6.694  31.140   2.663
74322W        W46747  26.159   4.328   4.760
74323W        W46748  30.078  24.022  14.992
74324W        W46749  30.910  15.818   1.398
74325W        W46750   4.424  39.036  10.017
74326W        W46751  34.584  39.999   1.395
74327W        W46752  22.014  19.574  12.461
74328W        W46753  24.607   0.389  14.335
74329W        W46754  18.655  37.497  12.995
74330W        W46755  39.400  33.113  13.945
74331W        W46756  33.529  22.166  14.454
74332W        W46757  43.816  30.526  12.887
74333W        W46758  28.452  40.507   1.451
74334W        W46759  43.795  16.676  12.999
74335W        W46760  36.447  30.097  12.073
74336W        W46761  28.008  11.800   5.121
74337W        W46762  13.278   7.689   4.307
74338W        W46763   5.792   6.681   4.143
74339W        W46764   2.890  39.008  14.455
74340W        W46765   6.362   4.752  10.069
74341W        W46766  32.999  20.581   3.738
74342W        W46767  10.755  29.075  13.364
74343W        W46768  23.652  25.496   2.816
74344W        W46769  35.412  25.105   4.833
74345W        W46770   3.864  21.679   3.764
74346W        W46771   0.812   5.276   0.428
74347W        W46772  20.204  28.108   1.769
74348W        W46773  19.737  28.119   4.774
74349W        W46774   3.814  20.182   0.895
74350W        W46775  36.985   8.676   1.312
74351W        W46776  33.459   0.750  12.352
74352W        W46777  29.506  24.487  14.465
74353W        W46778  39.029  30.954   3.793
74354W        W46779  42.023  34.942   4.657
74355W        W46780  20.034   2.359  13.976
74356W        W46781  19.106  31.523   3.216
74357W        W46782  29.546  19.067  10.419
74358W        W46783  40.966  35.942  13.041
74359W        W46784  10.277  35.995  12.438
74360W        W46785  11.700  31.431  14.349
74361W        W46786  37.420  43.312   4.821
74362W        W46787   0.851   7.342   3.861
74363W        W46788  28.146  26.984  10.580
74364W        W46789  24.646   8.292  12.913
74365W        W46790  10.738  23.516  12.460
74366W        W46791   1.295  31.421  14.904
74367W        W46792  25.665  43.800  11.107
74368W        W46793  42.789   7.903   0.394
74369W        W46794  28.090  34.565   2.330
74370W        W46795  12.827   3.217  12.966
74371W        W46796  41.840  32.496   0.818
74372W        W46797  34.061  36.991  14.030
74373W        W46798   1.450  34.984   3.254
74374W        W46799  23.985  34.976   2.835
74375W        W46800  43.837   3.335  11.391
74376W        W46801  21.728  34.972   3.648
74377W        W46802   7.311  39.543  12.558
74378W        W46803   2.254   7.793   0.444
74379W        W46804   0.444   6.412  13.981
74380W        W46805  20.619  30.915  10.522
74381W        W46806  37.393  26.085  10.410
74382W        W46807  40.509  42.451   1.704
74383W        W46808  19.058  23.639  14.290
74384W        W46809   1.858  32.984   3.663
74385W        W46810  40.313  20.251   0.884
74386W        W46811   3.256  11.733  14.451
74387W        W46812  42.421  35.594   4.783
74388W        W46813  29.030  15.251   1.350
74389W        W46814  24.077  37.044   1.334
74390W        W46815   3.729  38.515   0.843
74391W        W46816  22.560  32.991  12.494
74392W        W46817   1.450  23.022   0.371
74393W        W46818  42.401  21.123  10.956
74394W        W46819  30.473   4.860   1.804
74395W        W46820  43.876   1.459   0.291
74396W        W46821  18.672  36.088  13.523
74397W        W46822  33.447  29.532   3.357
74398W        W46823  38.420  17.192   4.236
74399W        W46824  37.542  36.963   2.417
74400W        W46825  33.613  30.622  11.375
74401W        W46826  37.453   4.887  12.870
74402W        W46827  37.456  27.586  14.464
74403W        W46828   3.355  42.991   4.669
74404W        W46829  40.933  32.575   2.823
74405W        W46830  30.071  26.101   4.186
74406W        W46831   5.932   5.847   1.760
74407W        W46832   2.451  10.314  11.561
74408W        W46833  33.558  42.495  14.881
74409W        W46834  20.765  32.911   3.692
74410W        W46835  42.996  27.535  13.009
74411W        W46836  24.111  17.072  10.125
74412W        W46837  23.729  26.687  12.466
74413W        W46838  27.004  28.166   4.676
74414W        W46839   4.340  23.103   0.384
74415W        W46840   2.757   3.906   3.753
74416W        W46841   3.865  39.434  13.340
74417W        W46842  33.076  21.155  11.908
74418W        W46843  40.352  22.591   9.959
74419W        W46844   2.815  42.827  11.549
74420W        W46845  43.872   8.775  11.043
74421W        W46846  23.987  37.865   2.412
74422W        W46847  22.661  25.503  13.478
74423W        W46848  10.657  39.366  12.831
74424W        W46849  29.978  17.582  13.312
74425W        W46850   6.183  21.616  14.812
74426W        W46851  35.500   4.791  12.954
74427W        W46852  13.840  22.681   5.651
74428W        W46853  35.077  40.902   2.703
74429W        W46854  44.926  40.494  10.590
74430W        W46855  12.800   6.883   0.864
74431W        W46856   1.915  18.758  11.925
74432W        W46857  15.747  21.154   3.723
74433W        W46858  22.030  23.065   2.263
74434W        W46859   8.273  22.032   1.398
74435W        W46860  34.488  12.175   3.223
74436W        W46861  21.118  38.492   4.635
74437W        W46862  35.020  26.551  10.548
74438W        W46863  37.486  11.730   4.811
74439W        W46864  37.426   6.262   0.941
74440W        W46865  25.700  15.093   2.314
74441W        W46866  10.707  29.623  14.352
74442W        W46867   3.341   2.386   3.188
74443W        W46868   6.271  19.686  12.025
74444W        W46869  32.001   6.331   0.814
74445W        W46870  33.514  33.103  13.860
74446W        W46871  27.471   5.284   1.910
74447W        W46872  37.992   7.845  13.816
74448W        W46873  23.060   9.882   2.832
74449W        W46874   1.764   8.183   4.251
74450W        W46875  14.109  32.625  10.935
74451W        W46876   2.788  29.167  12.037
74452W        W46877  44.800   4.945  12.441
74453W        W46878  41.930  23.584  13.848
74454W        W46879  13.624  24.105  12.975
74455W        W46880  23.151  24.068  14.892
74456W        W46881  42.991  40.372  14.016
74457W        W46882  17.067  37.415   5.195
74458W        W46883  25.607  42.452   2.856
74459W        W46884  29.991  29.070  11.411
74460W        W46885  29.496  28.970   3.182
74461W        W46886  37.518  20.268   3.644
74462W        W46887  32.556   4.229   4.774
74463W        W46888  44.263   8.320  10.483
74464W        W46889  24.065  29.610  10.639
74465W        W46890  43.274  13.760   4.179
74466W        W46891  13.253   4.804  13.931
74467W        W46892  30.640   1.963  11.922
74468W        W46893  12.176  38.473   0.297
74469W        W46894  19.668  12.708   2.188
74470W        W46895  34.063  29.012  14.297
74471W        W46896  31.548  31.459  13.499
74472W        W46897   1.772  32.559  10.419
74473W        W46898  10.667  41.410  12.505
74474W        W46899  26.015   6.210   3.831
74475W        W46900  30.616  32.595   1.769
74476W        W46901   2.304  29.516  11.606
74477W        W46902  11.621  23.606  13.877
74478W        W46903  14.254  26.993  12.578
74479W        W46904  21.529  22.104  10.617
74480W        W46905  29.982  41.902   1.293
74481W        W46906  16.205  34.116  10.600
74482W        W46907  12.321  36.504  12.491
74483W        W46908   0.793  27.504   3.229
74484W        W46909  44.890  16.633  11.009
74485W        W46910  31.964  37.994  11.869
74486W        W46911  30.978  12.296  13.532
74487W        W46912  41.845   0.389   1.353
74488W        W46913  24.060  34.866  11.124
74489W        W46914   7.728  18.212   0.753
74490W        W46915  18.141  28.052   4.160
74491W        W46916  18.130  16.743   4.131
74492W        W46917  16.123   8.265   4.746
74493W        W46918   6.225   0.301  11.535
74494W        W46919  39.465  26.966  14.346
74495W        W46920  15.702   9.858  12.007
74496W        W46921  18.670  42.891   3.854
74497W        W46922  19.254  27.161   4.305
74498W        W46923  22.081  39.472   2.755
74499W        W46924  42.817   4.803   0.420
74500W        W46925  42.894  27.565  11.469
74501W        W46926  10.789  25.542   4.838
74502W        W46927   0.277   4.286   4.734
74503W        W46928   0.478  41.451  10.914
74504W        W46929  41.847  18.109   4.147
74505W        W46930  44.772   1.825  12.561
74506W        W46931  40.827  44.976   2.327
74507W        W46932  26.103   0.838   4.738
74508W        W46933   2.877  40.456  14.486
74509W        W46934   6.229  36.058   1.897
74510W        W46935  24.544  40.425  11.592
74511W        W46936  36.525  37.461  11.869
74512W        W46937  39.450  25.155   3.749
74513W        W46938  26.979   0.309  11.896
74514W        W46939  43.933  10.642   1.737
74515W        W46940  14.697  40.484  14.473
74516W        W46941   9.834  42.944  13.310
74517W        W46942  22.538  10.805  12.942
74518W        W46943   5.326  39.369   0.436
74519W        W46944  12.187  34.445  13.421
74520W        W46945  38.350  10.224   2.735
74521W        W46946   7.793  30.050   3.780
74522W        W46947  24.499  36.884  11.483
74523W        W46948  19.052  19.739   3.643
74524W        W46949  10.382   9.388   0.356
74525W        W46950  39.313  44.483  11.458
74526W        W46951   9.665   6.336  14.758
74527W        W46952  28.164  11.706   1.422
74528W        W46953  13.216  44.955  10.478
74529W        W46954  42.781  36.539   1.416
74530W        W46955  12.657  25.047  11.070
74531W        W46956  39.941  11.803  14.825
74532W        W46957  43.768  15.685   2.762
74533W        W46958  10.355  34.559  13.424
74534W        W46959  12.194  22.018   5.571
74535W        W46960  43.430  43.887  14.760
74536W        W46961  39.869  24.012  11.027
74537W        W46962  27.981  28.603   4.719
74538W        W46963  34.546  42.861  10.574
74539W        W46964  24.497   4.808   4.297
74540W        W46965  33.879   5.776  11.117
74541W        W46966  35.497  11.802  11.042
74542W        W46967   7.211  21.649  14.379
74543W        W46968  34.897  31.943   4.168
74544W        W46969  20.608  34.006   2.385
74545W        W46970  12.189  28.183  11.977
74546W        W46971  12.826   0.325  12.474
74547W        W46972  13.818  22.070  10.925
74548W        W46973  34.949  37.068   4.115
74549W        W46974  19.533  22.098  11.543
74550W        W46975  20.171  39.537   4.218
74551W        W46976  21.029  34.409  13.526
74552W        W46977  39.547  15.277   2.786
74553W        W46978   3.921  17.639   4.782
74554W        W46979  36.525  20.073   2.786
74555W        W46980   9.374  28.545   1.270
74556W        W46981  41.365  39.969  12.407
74557W        W46982  38.995  25.637   4.733
74558W        W46983  36.534  25.711  10.466
74559W        W46984  42.028  39.319   2.269
74560W        W46985  28.163  24.224   1.398
74561W        W46986  20.051  34.444  14.434
74562W        W46987  39.817  38.932  12.950
74563W        W46988  13.653   4.323   9.494
74564W        W46989  38.923  28.616   1.809
74565W        W46990  14.224  42.795   3.720
74566W        W46991   9.328   1.475  12.577
74567W        W46992  42.963   7.741  11.127
74568W        W46993  33.450   5.729  10.553
74569W        W46994  12.622  25.135   3.635
74570W        W46995   9.255  15.158   2.346
74571W        W46996  33.418  31.584  14.793
74572W        W46997  18.202  14.615   1.328
74573W        W46998  32.447  11.242   3.666
74574W        W46999  42.465  23.061   3.742
74575W        W47000  12.820  21.695   4.661
74576W        W47001  30.065  42.460   4.312
74577W        W47002  43.964  41.824   4.143
74578W        W47003  39.007  38.489  11.923
74579W        W47004  23.086  15.772  11.913
74580W        W47005  27.054  27.993  14.787
74581W        W47006   9.311   3.222  10.571
74582W        W47007  26.164  14.141  11.969
74583W        W47008  35.573  28.473  13.880
74584W        W47009  44.924  36.915   2.254
74585W        W47010  24.090  44.875  13.877
74586W        W47011   0.886  34.011  14.468
74587W        W47012  32.636  31.056  11.099
74588W        W47013  13.738  32.085   1.819
74589W        W47014  22.538  24.150  10.438
74590W        W47015  19.724  22.516   2.317
74591W        W47016  13.704  32.044  14.966
74592W        W47017  32.958  27.018  13.037
74593W        W47018  40.321  44.387  13.321
74594W        W47019  39.024  30.029   0.953
74595W        W47020  12.185  29.525   3.348
74596W        W47021   2.234  37.565   2.882
74597W        W47022  32.023  42.827   1.756
74598W        W47023  39.048  26.074  14.955
74599W        W47024  36.436  21.668   3.307
74600W        W47025   6.726  32.071   3.650
74601W        W47026   6.185  15.716   3.738
74602W        W47027   3.373   5.418  13.837
74603W        W47028  25.979   8.396   3.145
74604W        W47029  30.511  28.988  14.885
74605W        W47030  22.566  11.794   2.202
74606W        W47031  17.164  28.932  10.134
74607W        W47032  23.567   4.361  13.953
74608W        W47033  44.504  12.340  10.039
74609W        W47034  11.696  29.472   1.401
74610W        W47035  12.794  44.350  11.951
74611W        W47036  35.099  44.308  14.478
74612W        W47037  19.226  42.378   4.310
74613W        W47038  43.400  34.410   0.421
74614W        W47039   4.929  11.747  11.478
74615W        W47040  19.691  20.668   4.252
74616W        W47041   5.363  17.255   1.388
74617W        W47042   2.925  25.988   2.808
74618W        W47043  33.558  37.361   1.695
74619W        W47044  10.640   5.690  12.037
74620W        W47045  27.603  22.671  13.035
74621W        W47046  22.192  12.116  14.866
74622W        W47047  38.912  44.934   0.951
74623W        W47048   2.281   6.254   0.731
74624W        W47049  19.545  33.002  13.546
74625W        W47050  33.394  33.909   4.778
74626W        W47051  41.840  26.520   5.116
74627W        W47052   0.765  29.594   9.966
74628W        W47053  27.559  39.475   1.442
74629W        W47054  40.810  39.972   2.286
74630W        W47055  33.033  22.549   3.304
74631W        W47056  29.669  40.985  10.113
74632W        W47057  30.100  38.455   0.448
74633W        W47058  39.466  34.556  10.454
74634W        W47059   0.894  18.650  11.541
74635W        W47060  17.715  18.632   2.347
74636W        W47061  38.948  39.021   3.748
74637W        W47062  14.798  33.076   2.693
74638W        W47063  10.823   1.303   1.799
74639W        W47064  43.363  39.860  13.977
74640W        W47065  18.233  20.686   0.780
74641W        W47066   7.412  13.640   1.816
74642W        W47067   5.824   2.789  13.959
74643W        W47068  22.066  35.580  13.382
74644W        W47069  41.894  14.150  11.379
74645W        W47070  31.408  33.517   1.379
74646W        W47071   7.278  31.095   3.775
74647W        W47072  24.556  11.212   3.801
74648W        W47073  38.551  41.836   2.858
74649W        W47074  26.145  26.633   1.428
74650W        W47075  22.536  20.637  11.452
74651W        W47076   1.257  22.072   1.243
74652W        W47077  30.011  10.371   0.779
74653W        W47078  35.958  40.886   4.344
74654W        W47079  14.240  23.612  13.998
74655W        W47080  16.161  16.770  11.377
74656W        W47081  10.760  37.889   2.333
74657W        W47082  22.549  11.667   9.972
74658W        W47083  22.118  36.056   4.688
74659W        W47084  41.828   9.280  10.519
74660W        W47085   5.401  40.878   4.718
74661W        W47086  41.404  37.432   0.920
74662W        W47087  12.621  36.099   2.240
74663W        W47088  23.569  22.084   3.249
74664W        W47089  43.936  28.983   1.428
74665W        W47090   7.383  40.542  11.447
74666W        W47091  19.678  42.873   3.749
74667W        W47092  27.124  34.104   0.901
74668W        W47093  17.700  11.845  10.622
74669W        W47094  19.538  44.371  11.534
74670W        W47095  25.019  38.942  11.087
74671W        W47096  21.233  37.487  11.533
74672W        W47097  11.751  33.921  12.460
74673W        W47098  33.031  16.731  13.541
74674W        W47099   5.716  37.417   2.822
74675W        W47100  20.643  22.665  12.511
74676W        W47101   2.399   9.721   2.863
74677W        W47102  20.691   0.384   4.633
74678W        W47103  11.259   4.317   0.317
74679W        W47104  29.057   6.286   4.313
74680W        W47105   8.233  25.593   1.796
74681W        W47106   2.875  30.458   3.810
74682W        W47107   4.751  11.671  10.559
74683W        W47108  29.657  10.775  12.403
74684W        W47109  19.645  41.480   4.696
74685W        W47110  34.942  14.792   2.411
74686W        W47111   9.676   4.332   2.827
74687W        W47112  15.316  15.137  13.388
74688W        W47113   1.853   5.294  12.871
74689W        W47114  36.920  21.214   4.204
74690W        W47115   9.886  32.932  12.859
74691W        W47116   8.159  18.747  12.454
74692W        W47117   5.339  32.955   4.659
74693W        W47118  42.912  11.341  12.445
74694W        W47119  29.027  32.944   1.417
74695W        W47120  33.411   1.976   4.627
74696W        W47121  31.020   2.890  11.090
74697W        W47122  29.988  32.558  13.856
74698W        W47123  21.240   9.660  14.476
74699W        W47124  14.292  27.556  14.806
74700W        W47125  20.128  17.140   2.333
74701W        W47126  25.628  41.518  11.126
74702W        W47127   2.806  21.217  14.989
74703W        W47128   6.866   2.789   0.467
74704W        W47129  13.639  37.344  12.929
74705W        W47130  12.764  29.964   2.341
74706W        W47131  39.846   4.785   4.289
74707W        W47132  12.737  15.156   0.779
74708W        W47133  36.906  38.431   2.827
74709W        W47134  31.967  26.131   1.215
74710W        W47135  41.908  39.332  11.492
74711W        W47136  24.147  26.999  12.388
74712W        W47137  30.101  34.526  11.558
74713W        W47138  35.071   8.193   4.785
74714W        W47139  14.731  25.977  13.377
74715W        W47140   6.748  15.815  14.305
74716W        W47141  18.726  10.694  11.459
74717W        W47142  31.936   4.435   3.741
74718W        W47143  21.232  17.097   1.789
74719W        W47144  10.287  22.197   4.327
74720W        W47145  26.458  31.014   0.762
74721W        W47146   9.272  41.030  13.927
74722W        W47147  22.736  16.148  10.437
74723W        W47148  33.996  10.668  12.982
74724W        W47149  38.966   4.751  12.415
74725W        W47150  34.033   6.366  12.068
74726W        W47151  42.439  32.488  11.040
74727W        W47152  24.720  11.672  12.430
74728W        W47153  33.463  34.407  13.388
74729W        W47154  32.032  13.839   3.177
74730W        W47155   7.847  37.003  12.448
74731W        W47156  38.424  37.003   4.172
74732W        W47157   2.238  37.386   1.380
74733W        W47158  34.416  41.338   1.800
74734W        W47159  18.278  12.341  14.994
74735W        W47160  32.630   2.783  11.022
74736W        W47161  41.899  25.149  11.016
74737W        W47162  35.501   6.865   4.277
74738W        W47163  31.514  24.154   4.806
74739W        W47164  14.789  36.583  14.775
74740W        W47165  20.543  40.338  12.978
74741W        W47166  14.317  22.587   3.261
74742W        W47167  14.676  19.692  14.854
74743W        W47168  34.469  13.669   4.302
74744W        W47169  21.651  42.355  11.890
74745W        W47170  15.745   2.848   0.310
74746W        W47171  15.120   7.417  11.894
74747W        W47172  14.172  32.037   1.909
74748W        W47173   9.150   7.716  10.547
74749W        W47174  43.838   7.173   4.830
74750W        W47175   8.833  34.979   0.849
74751W        W47176  26.653  15.199   0.262
74752W        W47177  23.143   8.168  13.920
74753W        W47178  41.007  16.131   4.666
74754W        W47179  15.320  16.781  11.533
74755W        W47180  30.566  29.033   4.323
74756W        W47181  10.342  44.481  12.386
74757W        W47182  14.756  27.503   3.644
74758W        W47183  39.448   9.673  11.955
74759W        W47184  13.721  27.155   2.368
74760W        W47185  18.730  13.789  14.436
74761W        W47186  42.025   6.326   4.336
74762W        W47187  23.724   5.925   3.237
74763W        W47188  28.085  43.989   1.907
74764W        W47189  17.633   9.277   2.888
74765W        W47190   6.349  19.586  14.849
74766W        W47191   7.365  29.646  13.349
74767W        W47192  40.540  38.029   2.702
74768W        W47193  43.369  35.961   1.933
74769W        W47194  34.572   4.254   2.862
74770W        W47195  30.966   0.764  10.417
74771W        W47196   2.896   7.678   2.890
74772W        W47197   8.243  19.584  10.510
74773W        W47198  40.521  27.610   2.667
74774W        W47199  20.243  22.531   0.727
74775W        W47200   2.869  20.125   4.628
74776W        W47201  43.849  10.196   2.201
74777W        W47202  25.594  32.481  11.902
74778W        W47203  15.179  37.931   3.662
74779W        W47204   0.268  26.139   3.658
74780W        W47205   9.262  30.533   3.248
74781W        W47206  21.606  29.166  11.957
74782W        W47207  40.480  27.521   4.749
74783W        W47208  23.239  40.822   1.442
74784W        W47209  31.112  41.897   5.710
74785W        W47210  24.059  16.792   1.826
74786W        W47211  40.474  12.268  12.090
74787W        W47212  26.628  22.020   1.232
74788W        W47213  24.711  25.675   0.438
74789W        W47214   9.298   7.772  13.871
74790W        W47215  44.796  38.508  11.078
74791W        W47216  42.881   0.804   3.234
74792W        W47217   9.223  10.728  12.970
74793W        W47218  25.159   6.358   4.214
74794W        W47219  24.045   7.839   0.792
74795W        W47220  44.893   2.354   0.819
74796W        W47221  23.201  34.565   1.867
74797W        W47222  22.737  22.556   3.706
74798W        W47223  35.852  17.560  14.274
74799W        W47224   4.358   3.934   0.874
74800W        W47225  40.415  17.077  12.836
74801W        W47226  28.056   3.368  11.903
74802W        W47227  41.367  15.187  14.457
74803W        W47228   0.411  44.403   1.883
74804W        W47229  28.452  30.157   4.832
74805W        W47230  44.977  20.197   1.784
74806W        W47231  32.972  14.160  14.852
74807W        W47232   9.679  11.158   2.793
74808W        W47233  22.532  18.114   0.764
74809W        W47234  20.728  29.980   4.311
74810W        W47235  34.056   6.242   1.396
74811W        W47236  12.148  13.815   1.304
74812W        W47237  31.002   6.798   4.749
74813W        W47238  20.585   9.829   5.253
74814W        W47239   4.917  25.114  10.056
74815W        W47240  30.954  11.215  10.052
74816W        W47241  23.023   0.368  14.351
74817W        W47242  18.294  14.252   2.756
74818W        W47243  13.334  15.605   3.225
74819W        W47244  35.555  26.589   2.674
74820W        W47245  24.581   3.768  13.527
74821W        W47246  38.496  14.692  13.054
74822W        W47247  32.419  42.934  14.381
74823W        W47248   5.855  40.032   1.871
74824W        W47249  22.184  30.124   0.948
74825W        W47250  31.092   5.219   2.207
74826W        W47251  33.948  20.261   0.310
74827W        W47252  32.913  44.829   4.762
74828W        W47253   4.735  32.628   5.318
74829W        W47254  17.684  22.118   1.334
74830W        W47255   6.379  21.185  14.359
74831W        W47256   2.745  20.681   1.321
74832W        W47257  22.528  12.163   2.784
74833W        W47258  25.064   9.210   0.364
74834W        W47259  37.854  19.597   0.937
74835W        W47260  16.223   7.686   4.147
74836W        W47261  21.708   8.871  13.405
74837W        W47262   0.821  25.200  14.449
74838W        W47263  32.634  29.466  14.453
74839W        W47264  37.056  29.108   1.825
74840W        W47265  33.038   7.310   4.157
74841W        W47266   1.734  28.013  12.060
74842W        W47267  22.718  30.912   1.754
74843W        W47268  21.247  37.993   2.767
74844W        W47269  39.987  32.971  12.347
74845W        W47270  12.742  38.965  13.810
74846W        W47271  19.666  29.534   5.216
74847W        W47272  26.979   9.208  13.374
74848W        W47273  11.744  39.009  11.876
74849W        W47274  26.469  25.616  10.899
74850W        W47275   3.790   6.877   1.370
74851W        W47276   3.862   9.678  10.411
74852W        W47277  16.109  21.689   3.170
74853W        W47278  38.542  20.177  14.798
74854W        W47279  26.010  44.397   2.235
74855W        W47280  22.026  17.601  11.088
74856W        W47281  14.640  37.071  11.857
74857W        W47282   2.780   9.838   3.176
74858W        W47283  38.017  17.748   4.301
74859W        W47284  33.090  21.575  10.556
74860W        W47285  15.636  22.719   0.753
74861W        W47286  12.797  42.011  13.350
74862W        W47287  26.123  18.705  14.920
74863W        W47288  43.848  29.080   2.864
74864W        W47289  24.489  37.552  12.965
74865W        W47290  34.078  38.363  12.421
74866W        W47291  26.194  23.105   4.810
74867W        W47292   3.324   4.357   3.258
74868W        W47293  16.296   9.831  12.060
74869W        W47294  31.075  23.736  10.026
74870W        W47295  20.684  31.928  12.512
74871W        W47296  11.623   4.307  14.862
74872W        W47297   5.352  35.576  13.424
74873W        W47298  39.024  13.192  11.517
74874W        W47299  32.622  13.734   0.390
74875W        W47300  44.348  41.903  11.869
74876W        W47301  17.762   2.753   3.327
74877W        W47302  31.096  16.194  11.076
74878W        W47303  37.887  43.831  14.352
74879W        W47304  41.884  28.542   1.449
74880W        W47305  38.358  24.086  14.289
74881W        W47306   7.847   9.727   4.345
74882W        W47307  20.639  11.702   0.923
74883W        W47308   4.440   9.310  14.315
74884W        W47309  25.142  29.951  14.895
74885W        W47310   7.182  25.510   4.814
74886W        W47311   2.935   8.171   0.847
74887W        W47312  42.872  17.755   3.790
74888W        W47313  20.073   1.347   0.360
74889W        W47314  42.947   1.793   0.929
74890W        W47315  18.066  41.919   4.184
74891W        W47316   8.182  36.085   3.382
74892W        W47317  39.491  14.274  14.310
74893W        W47318  34.920  39.400  12.541
74894W        W47319  11.373  30.039   3.711
74895W        W47320   9.189  23.016  12.547
74896W        W47321  13.725  35.538  13.910
74897W        W47322   2.938  17.740   2.801
74898W        W47323   8.372  21.598   4.758
74899W        W47324  20.167  14.123  12.461
74900W        W47325  10.287   8.735   2.854
74901W        W47326  28.599  14.275  10.571
74902W        W47327   5.696  38.552   1.373
74903W        W47328  26.056  38.450   4.755
74904W        W47329  29.634  17.760   3.290
74905W        W47330  30.458  29.424   4.166
74906W        W47331  21.690  21.612   3.759
74907W        W47332  23.498  22.735   2.216
74908W        W47333   8.879  24.996   3.314
74909W        W47334  32.403  11.784   3.839
74910W        W47335  27.583  23.507  13.852
74911W        W47336  39.837  34.556   4.129
74912W        W47337  42.872  30.072   1.837
74913W        W47338  38.334   8.376   2.744
74914W        W47339   6.198  29.950   1.724
74915W        W47340   4.437   1.813   1.311
74916W        W47341  32.043  21.605   4.629
74917W        W47342   4.773  10.858  14.335
74918W        W47343  23.075  26.560  11.898
74919W        W47344  42.301   0.769  12.068
74920W        W47345   9.830  17.296  13.862
74921W        W47346  13.225  36.879  11.390
74922W        W47347  17.753  12.242   2.775
74923W        W47348  40.445  16.672   2.319
74924W        W47349  30.022  35.394   1.426
74925W        W47350  29.588  32.947  14.391
74926W        W47351  40.889  31.575   4.233
74927W        W47352  31.431  32.002  13.915
74928W        W47353  26.570  13.327  13.052
74929W        W47354  10.803  35.021   4.767
74930W        W47355  21.659  28.137  12.855
74931W        W47356  10.809  39.385  10.436
74932W        W47357  13.246  12.762  13.030
74933W        W47358  44.884   9.232  11.009
74934W        W47359  11.797  34.423   3.714
74935W        W47360  30.444   4.266   2.671
74936W        W47361  28.937   2.403  13.991
74937W        W47362  23.704  41.416  12.569
74938W        W47363  33.996  28.650  12.573
74939W        W47364  36.023   2.806   4.232
74940W        W47365  10.775  38.040  12.919
74941W        W47366   3.345  43.767   1.281
74942W        W47367   6.844  12.258  10.476
74943W        W47368  21.610  41.357   4.776
74944W        W47369  25.214   4.239  10.513
74945W        W47370  33.882   3.389   2.264
74946W        W47371   2.803  35.003   4.682
74947W        W47372  11.629  42.934  10.907
74948W        W47373  41.009  21.173   4.782
74949W        W47374   0.440  21.589  14.877
74950W        W47375  24.577  34.390  11.962
74951W        W47376  43.843  16.796   2.387
74952W        W47377   0.912  41.378  11.936
74953W        W47378  42.787  35.376  10.417
74954W        W47379  25.645  42.012   4.757
74955W        W47380  30.482  25.007   2.873
74956W        W47381  43.438   3.386   1.731
74957W        W47382  39.043  10.223  14.486
74958W        W47383  22.096  36.474   0.752
74959W        W47384  39.546  11.304   0.340
74960W        W47385  39.905  10.208  11.908
74961W        W47386  26.004  44.952   3.223
74962W        W47387  16.129  21.181  12.919
74963W        W47388  28.006  41.792  13.859
74964W        W47389  33.081   8.329   0.252
74965W        W47390  22.663  13.220   3.169
74966W        W47391  33.987   5.434  13.873
74967W        W47392   6.373  13.183   4.760
74968W        W47393  44.890  13.745  13.542
74969W        W47394  12.147  33.437   2.230
74970W        W47395  43.004  20.557  11.459
74971W        W47396   6.818  17.199  11.548
74972W        W47397   3.815  18.662  12.456
74973W        W47398  35.094  39.901  11.093
74974W        W47399  15.580   1.288   1.370
74975W        W47400  28.968  17.616  13.419
74976W        W47401  43.884  40.829  14.912
74977W        W47402   6.286  15.800   0.255
74978W        W47403  43.516   2.341  11.457
74979W        W47404  42.398   9.217  14.835
74980W        W47405  12.850  27.534  10.947
74981W        W47406  19.282  41.788   1.287
74982W        W47407  32.615  22.078   0.802
74983W        W47408  23.109  32.583   4.681
74984W        W47409  23.073  13.708  14.964
74985W        W47410  37.535  32.600   4.828
74986W        W47411  12.702  35.503   3.363
74987W        W47412  20.086  34.459   4.753
74988W        W47413  30.478  25.976   3.811
74989W        W47414  43.984  29.460  13.003
74990W        W47415  36.574  10.157   4.816
74991W        W47416  39.536   7.871  10.631
74992W        W47417  19.575   3.772   1.333
74993W        W47418  15.214  41.492   3.350
74994W        W47419   1.404  25.089  14.275
74995W        W47420  13.711   7.888  10.554
74996W        W47421  10.664  15.614   3.247
74997W        W47422   3.740  27.625  12.008
74998W        W47423  24.661   8.699  12.980
74999W        W47424   5.748  28.185   0.758
75000W        W47425  12.722  44.416  14.408
75001W        W47426  32.586  40.394   4.731
75002W        W47427  36.415  16.629   2.214
75003W        W47428  27.577  16.615   0.855
75004W        W47429  40.435  39.432  13.985
75005W        W47430  13.713  41.442  12.458
75006W        W47431  18.239  19.153   0.884
75007W        W47432  26.564  37.393   4.776
75008W        W47433   8.289  41.982   0.893
75009W        W47434  12.771  36.069  14.015
75010W        W47435   8.685   1.831   1.738
75011W        W47436   3.262  38.948   3.205
75012W        W47437  38.046  42.455   2.206
75013W        W47438  33.558  39.984   5.302
75014W        W47439  12.654  29.095  13.056
75015W        W47440  30.042  18.269  11.498
75016W        W47441  36.909   5.305   4.645
75017W        W47442   7.780  12.138  11.906
75018W        W47443  16.683  23.178  12.410
75019W        W47444  28.079  19.614   0.431
75020W        W47445  21.630  25.059  14.918
75021W        W47446  10.717  37.516  11.390
75022W        W47447  15.744  19.641  10.574
75023W        W47448  20.595   0.965  11.085
75024W        W47449  15.595  27.487   1.780
75025W        W47450  35.406  40.034   2.736
75026W        W47451   2.380  42.281   1.306
75027W        W47452  24.085   1.407  13.831
75028W        W47453  21.119  44.988   0.251
75029W        W47454   8.675  35.378  14.296
75030W        W47455   9.243  36.518  13.414
75031W        W47456  44.361  19.641  10.536
75032W        W47457  36.533  24.979   5.186
75033W        W47458   3.348   4.786  13.440
75034W        W47459  25.101  20.104   4.791
75035W        W47460   9.796   6.245  11.494
75036W        W47461  39.324  35.953  12.538
75037W        W47462  13.676   7.717  11.376
75038W        W47463  13.296   1.967   0.382
75039W        W47464  24.194  26.576  12.573
75040W        W47465   9.343  31.038  14.862
75041W        W47466  11.742   0.441  10.144
75042W        W47467  38.933  36.002   9.921
75043W        W47468  23.631   6.239  12.406
75044W        W47469   6.737  34.953   1.730
75045W        W47470   3.428  17.626  11.980
75046W        W47471  13.272  40.870  12.054
75047W        W47472  14.633  43.935   2.701
75048W        W47473  43.975   1.478   2.828
75049W        W47474  18.604  44.383   2.881
75050W        W47475  26.033  21.659  13.981
75051W        W47476  10.762   3.811   4.696
75052W        W47477  33.513  25.147   9.965
75053W        W47478  37.037   5.694   5.227
75054W        W47479  28.035  28.131  11.092
75055W        W47480  17.743  19.155   4.194
75056W        W47481  29.959   2.810  13.989
75057W        W47482   3.316  26.009   3.169
75058W        W47483  11.220  14.303  11.872
75059W        W47484  27.480  18.571   3.634
75060W        W47485  15.587  16.134  13.309
75061W        W47486  19.207  33.594  12.061
75062W        W47487   6.404  18.196   3.378
75063W        W47488   2.272  19.285   2.777
75064W        W47489   4.230   5.722   0.954
75065W        W47490  43.843  12.847  14.031
75066W        W47491  18.251  38.417   4.353
75067W        W47492  31.601  41.305  11.900
75068W        W47493  36.375  34.096  12.462
75069W        W47494   5.318  36.995  10.973
75070W        W47495  28.537  12.239   4.283
75071W        W47496  37.521   3.270   3.267
75072W        W47497  40.842  18.737   4.115
75073W        W47498  15.304  10.306   0.751
75074W        W47499  36.439  14.743  11.935
75075W        W47500   6.183  31.433  12.949
75076W        W47501  42.012  17.148   3.209
75077W        W47502  18.609  37.468   4.272
75078W        W47503   2.295  43.002   2.343
75079W        W47504  29.605  23.214  12.504
75080W        W47505  43.314  39.479  13.854
75081W        W47506  31.145  24.133  13.472
75082W        W47507  10.315  36.443   0.297
75083W        W47508   9.334  36.415   2.195
75084W        W47509  40.356  15.713  13.005
75085W        W47510  36.955  35.933  12.496
75086W        W47511   2.883  11.704  13.322
75087W        W47512  30.983  29.927  10.539
75088W        W47513  38.432  39.545  14.366
75089W        W47514   6.350   7.410   2.809
75090W        W47515  12.717   0.847  12.989
75091W        W47516  18.104   7.203  13.490
75092W        W47517  32.469  19.703  12.966
75093W        W47518  30.103  27.602   4.280
75094W        W47519  27.111  24.977   1.386
75095W        W47520  17.644  13.296  10.467
75096W        W47521  22.737  30.442  14.902
75097W        W47522   8.384  25.099   3.630
75098W        W47523  28.643  26.642   5.282
75099W        W47524   6.227  11.266  11.044
75100W        W47525  34.962  16.575  12.981
75101W        W47526  33.069  29.437   0.869
75102W        W47527  41.446   9.390   0.383
75103W        W47528  10.768   7.748   4.137
75104W        W47529   9.288  22.232   0.798
75105W        W47530  22.209  37.086   3.745
75106W        W47531  40.955  20.124  11.080
75107W        W47532  36.591   6.302  12.542
75108W        W47533  18.211  38.448   1.757
75109W        W47534   4.423  13.680   3.243
75110W        W47535  15.733   2.380   0.294
75111W        W47536   5.732  19.077  13.368
75112W        W47537  38.922   7.354  13.056
75113W        W47538  19.608  11.823  12.084
75114W        W47539   5.381  44.007   1.214
75115W        W47540  26.045  39.403  12.451
75116W        W47541  39.535  28.527  12.055
75117W        W47542  13.288  15.622   0.933
75118W        W47543   4.285  24.161  13.343
75119W        W47544  31.088  10.771   3.325
75120W        W47545   4.310  11.806   1.770
75121W        W47546   2.263  41.918   1.269
75122W        W47547   0.346  19.206  12.853
75123W        W47548  13.258  10.673   4.163
75124W        W47549   9.231   7.821  12.388
75125W        W47550   4.310  31.114  11.474
75126W        W47551  37.577  23.715  11.411
75127W        W47552  26.681   0.783   4.696
75128W        W47553  40.846  33.064  12.416
75129W        W47554  30.134   0.430  11.396
75130W        W47555  36.053  33.519  12.948
75131W        W47556  32.920   4.344   1.870
75132W        W47557  14.186  22.200  13.361
75133W        W47558  24.683  20.553   2.300
75134W        W47559  10.288   9.796   1.397
75135W        W47560   1.279  21.207   1.903
75136W        W47561   3.360   8.768  12.049
75137W        W47562  28.153  30.478  10.506
75138W        W47563  29.589  30.024  12.425
75139W        W47564  28.157  31.637  13.886
75140W        W47565  33.441  37.349  14.485
75141W        W47566  27.051  20.177  11.498
75142W        W47567  15.212  29.924  13.371
75143W        W47568   3.257  24.622  13.888
75144W        W47569  23.619  43.901   1.736
75145W        W47570  19.546  40.531   5.084
75146W        W47571  13.234   5.861   4.719
75147W        W47572  37.060  30.477   0.847
75148W        W47573   4.292  26.530   1.365
75149W        W47574  15.157  34.907   1.281
75150W        W47575   2.308   3.837  13.481
75151W        W47576  37.077  29.093  12.524
75152W        W47577  44.397  20.616   3.652
75153W        W47578  37.487   8.241   2.671
75154W        W47579  29.487  33.573   1.873
75155W        W47580  22.522   4.758   0.812
75156W        W47581   0.389  36.844   1.845
75157W        W47582  37.562  23.511  10.433
75158W        W47583  21.638   3.767   2.812
75159W        W47584  23.626   9.774   3.268
75160W        W47585   2.858  20.602  12.372
75161W        W47586  22.244  35.462   0.447
75162W        W47587  11.296  44.357   9.925
75163W        W47588  20.257   7.376   5.211
75164W        W47589  20.549  40.374  10.943
75165W        W47590   0.774  38.481   1.908
75166W        W47591  36.959  22.200   1.726
75167W        W47592  40.402  36.374   4.746
75168W        W47593   1.784   0.463  13.936
75169W        W47594  28.989  14.257   2.259
75170W        W47595   5.834  20.665   2.409
75171W        W47596  15.126   2.908   5.135
75172W        W47597  42.951   6.186   1.721
75173W        W47598  17.156  27.976   0.383
75174W        W47599  17.662  10.226   3.214
75175W        W47600  12.666  28.644  13.440
75176W        W47601  35.360  23.585   3.158
75177W        W47602   2.261  12.808  12.990
75178W        W47603  29.552  38.537   3.367
75179W        W47604  40.046   8.243   4.717
75180W        W47605  22.093  36.585   4.794
75181W        W47606  33.608  17.683   3.686
75182W        W47607   6.188  37.378  12.510
75183W        W47608   0.359  22.698   1.387
75184W        W47609  19.614   3.772  10.643
75185W        W47610  32.002  20.568   2.890
75186W        W47611   5.836  40.893  12.882
75187W        W47612  12.184  16.800  13.528
75188W        W47613  10.370  37.548  14.874
75189W        W47614  18.210   8.665   1.430
75190W        W47615  42.411  36.988  10.989
75191W        W47616   2.300  15.776   3.327
75192W        W47617   9.740  42.519   1.294
75193W        W47618  44.427  23.623   0.462
75194W        W47619   3.865  41.418  12.919
75195W        W47620  30.126  34.029  10.612
75196W        W47621  10.304   0.906  10.595
75197W        W47622  26.515  25.041  12.485
75198W        W47623  38.852  17.785  11.919
75199W        W47624  25.551  33.992  12.054
75200W        W47625   8.807  13.229   4.696
75201W        W47626  11.720  10.718  13.058
75202W        W47627  10.272   6.676  14.344
75203W        W47628  43.472  32.136  10.943
75204W        W47629  40.492  35.436   4.740
75205W        W47630  25.604  31.114   2.206
75206W        W47631  38.493   5.286  12.064
75207W        W47632  30.019  39.922   3.310
75208W        W47633  44.411  22.231   4.176
75209W        W47634  30.613  44.416   3.208
75210W        W47635  44.355  19.199   0.885
75211W        W47636  37.981   9.383   3.736
75212W        W47637  24.196   1.306   3.673
75213W        W47638  37.505  27.626   4.270
75214W        W47639  10.820  36.972   3.335
75215W        W47640  39.997   5.899   3.658
75216W        W47641   1.948  18.740   0.246
75217W        W47642  22.117  17.558   0.281
75218W        W47643   2.462  21.533  11.106
75219W        W47644  40.396  28.547   1.309
75220W        W47645  43.867  21.202   2.678
75221W        W47646  32.903   5.279   3.768
75222W        W47647  23.055   9.234  12.867
75223W        W47648  43.329  43.822  12.014
75224W        W47649  42.957  19.610  12.412
75225W        W47650  34.987  13.129   4.790
75226W        W47651   8.344  13.264   4.226
75227W        W47652  30.482  21.680   0.383
75228W        W47653  22.164   4.321   1.326
75229W        W47654  17.125  11.628  11.488
75230W        W47655  43.806   6.339   3.255
75231W        W47656   6.290  29.962  13.429
75232W        W47657  24.095  34.084  14.921
75233W        W47658  43.354   0.967   1.375
75234W        W47659  33.598  24.628   3.721
75235W        W47660  41.943   0.751  10.601
75236W        W47661   6.679  20.144  11.453
75237W        W47662  17.558   8.206  10.956
75238W        W47663   4.319   4.706  10.918
75239W        W47664  42.306  37.999   1.908
75240W        W47665  14.819  33.911   4.325
75241W        W47666   4.265  27.180   2.216
75242W        W47667   9.822   5.754   4.723
75243W        W47668  14.741  43.335  13.009
75244W        W47669  22.032  29.449   0.292
75245W        W47670  12.223  33.388  11.411
75246W        W47671  14.276   7.754   4.270
75247W        W47672  34.880  36.358  11.038
75248W        W47673  15.190  33.539   0.469
75249W        W47674   7.264  41.456   0.375
75250W        W47675   5.341  44.340   0.352
75251W        W47676  37.967  26.599  14.864
75252W        W47677  27.634  15.327  14.379
75253W        W47678  41.366  31.430  14.821
75254W        W47679  33.448  33.007   4.247
75255W        W47680   3.221  40.972   4.116
75256W        W47681   9.799  42.014  13.409
75257W        W47682  31.971  12.271  11.447
75258W        W47683  26.009  20.238   2.780
75259W        W47684  41.853  31.547   3.272
75260W        W47685  33.515  38.418   1.750
75261W        W47686  32.549  11.855   4.709
75262W        W47687  26.120  23.677   4.780
75263W        W47688  21.050  15.816  13.838
75264W        W47689  31.611  27.136   1.281
75265W        W47690   9.769  39.398   0.371
75266W        W47691  11.273   8.829   0.401
75267W        W47692  32.413  23.141  14.937
75268W        W47693  18.185  13.689  14.504
75269W        W47694  29.663  36.071  10.404
75270W        W47695  37.015  38.508   3.344
75271W        W47696  20.576  26.623  14.513
75272W        W47697  22.656  30.436   5.298
75273W        W47698  32.505  18.156   2.679
75274W        W47699  10.241  42.855  14.869
75275W        W47700  28.124   4.908   0.400
75276W        W47701  10.776  12.231  13.329
75277W        W47702  17.165  20.107  11.077
75278W        W47703   0.945  16.776  14.927
75279W        W47704   3.358  41.923   0.447
75280W        W47705  28.481  32.569  13.989
75281W        W47706  28.473  18.242   1.795
75282W        W47707  29.023  39.339  11.597
75283W        W47708  28.936  26.987   3.637
75284W        W47709  17.760  31.465  12.368
75285W        W47710   4.441  10.148  12.536
75286W        W47711  28.544  39.887   2.246
75287W        W47712  31.925  10.363  13.797
75288W        W47713   6.193  27.664   3.348
75289W        W47714  10.809  36.353  12.417
75290W        W47715  26.628  38.916  11.937
75291W        W47716   2.428  19.667   3.372
75292W        W47717   7.358  35.869   0.269
75293W        W47718   5.715  26.490  10.579
75294W        W47719  42.418  19.745   1.745
75295W        W47720  22.092  28.162   0.945
75296W        W47721   8.797  22.632   0.927
75297W        W47722  20.184  40.411   1.349
75298W        W47723   2.398   5.927   0.303
75299W        W47724  40.925  35.896   0.775
75300W        W47725  37.581  19.609  12.903
75301W        W47726   7.797  10.381   3.827
75302W        W47727  20.554  39.016   3.824
75303W        W47728  37.062  13.733  13.962
75304W        W47729  23.676  25.143  12.012
75305W        W47730   1.250  14.266  14.801
75306W        W47731  36.592   7.313  11.963
75307W        W47732  14.619  11.835  12.839
75308W        W47733  29.088  13.166   3.785
75309W        W47734  22.015  18.111  10.613
75310W        W47735   6.747  26.045   1.402
75311W        W47736  33.983  40.899  13.026
75312W        W47737  29.472  25.649   1.838
75313W        W47738  10.732  17.559   0.792
75314W        W47739   1.441  27.494   4.621
75315W        W47740  16.249  37.917   2.888
75316W        W47741  14.646  23.015   2.356
75317W        W47742  34.069  11.146   3.826
75318W        W47743   0.494  37.005  13.331
75319W        W47744  40.509  25.139   2.809
75320W        W47745  31.457   1.406   0.822
75321W        W47746  14.615  43.488  11.410
75322W        W47747  40.855  30.652   1.359
75323W        W47748  21.578  11.810  14.906
75324W        W47749  11.252  17.556  11.382
75325W        W47750  14.598   7.695  14.435
75326W        W47751  42.307  19.752   2.773
75327W        W47752  36.543  10.801   1.324
75328W        W47753  14.199  10.719  14.879
75329W        W47754   4.252  31.095  12.472
75330W        W47755  32.895  32.957   1.423
75331W        W47756   6.196  43.485  11.060
75332W        W47757  20.151  29.657   4.287
75333W        W47758   2.869   6.779  11.881
75334W        W47759  10.343  40.011  11.045
75335W        W47760  42.379   5.299   0.354
75336W        W47761  43.779  28.119   3.798
75337W        W47762   1.448  36.922  11.410
75338W        W47763  29.444  17.065   2.224
75339W        W47764  26.697  27.468   0.373
75340W        W47765   6.888  32.492   0.746
75341W        W47766  23.540  25.631   0.772
75342W        W47767  26.958  10.332   4.604
75343W        W47768  12.723  40.949   3.379
75344W        W47769  36.011  28.667  12.346
75345W        W47770  23.527  23.705   2.821
75346W        W47771  34.920  16.237  14.858
75347W        W47772  30.432  35.409   4.662
75348W        W47773   7.222  17.759   3.702
75349W        W47774  41.419   6.277   0.476
75350W        W47775  16.312  43.511   3.374
75351W        W47776  16.147  25.196  13.849
75352W        W47777  41.831   4.339   0.262
75353W        W47778  24.033  39.006   2.248
75354W        W47779  14.742  26.652  10.933
75355W        W47780  17.157  15.699  11.612
75356W        W47781  28.564  19.590   2.260
75357W        W47782  39.009  20.164   4.311
75358W        W47783  12.756  43.283  11.920
75359W        W47784   8.828  12.168   1.368
75360W        W47785  15.731  20.104   4.164
75361W        W47786   3.779   5.860  10.630
75362W        W47787  23.536  17.143   3.780
75363W        W47788  31.994   0.387  14.409
75364W        W47789  31.477   8.656  11.589
75365W        W47790   3.806  34.991  11.502
75366W        W47791  39.997  27.627   3.313
75367W        W47792  24.989  17.103  11.078
75368W        W47793  15.233  34.580  14.282
75369W        W47794  39.461   6.250  14.297
75370W        W47795  44.918  14.822   4.229
75371W        W47796   3.955   7.371   2.726
75372W        W47797  44.389   7.691   2.746
75373W        W47798  38.915   4.288   5.225
75374W        W47799  10.228   1.344   3.753
75375W        W47800  35.923  43.499   2.184
75376W        W47801  36.036   1.865  14.276
75377W        W47802  39.336  27.645  10.980
75378W        W47803  26.621   2.933   3.734
75379W        W47804   7.298  30.464   3.822
75380W        W47805  19.246  16.131   1.890
75381W        W47806  36.889   3.937  14.465
75382W        W47807  32.055  39.495  13.926
75383W        W47808  36.487   0.342  10.923
75384W        W47809  43.421  13.215   3.197
75385W        W47810  26.632  44.813   4.723
75386W        W47811  29.607  17.744   3.657
75387W        W47812  37.078  26.662   2.823
75388W        W47813  42.510   3.798   4.612
75389W        W47814  35.453   3.828  13.854
75390W        W47815  28.979  21.687  12.355
75391W        W47816  37.362  17.669  14.878
75392W        W47817   4.765  38.891  12.870
75393W        W47818  33.520  28.586  13.942
75394W        W47819  32.573  17.295   2.819
75395W        W47820  34.585  29.468   4.213
75396W        W47821  13.203  28.051   3.251
75397W        W47822  21.038  18.253   4.147
75398W        W47823  13.754  26.045   3.829
75399W        W47824  18.268  11.645  11.548
75400W        W47825  13.184  29.175  12.926
75401W        W47826  19.733  36.366   4.672
75402W        W47827  14.827  23.218  14.469
75403W        W47828  26.494  40.509  10.982
75404W        W47829  30.521   0.840  10.570
75405W        W47830  20.187  33.968  10.447
75406W        W47831  36.530  18.163  13.320
75407W        W47832  13.737  17.669   0.368
75408W        W47833  18.623   3.803  11.012
75409W        W47834  39.930  44.277   1.370
75410W        W47835  25.632  19.097   1.794
75411W        W47836   9.841  11.839  12.046
75412W        W47837  25.084  30.118   3.825
75413W        W47838  11.651   0.408  10.607
75414W        W47839   9.855  10.347  10.620
75415W        W47840  16.127   4.812   0.357
75416W        W47841  31.516  40.469   1.265
75417W        W47842  29.102  31.491   4.814
75418W        W47843  21.679  24.668  11.941
75419W        W47844   1.965  33.457  13.356
75420W        W47845   8.731  44.394  12.484
75421W        W47846  32.924  42.304  14.983
75422W        W47847  37.482  26.969  13.793
75423W        W47848  14.637   1.462   1.891
75424W        W47849  11.742  40.443   9.944
75425W        W47850   5.849  37.856  11.593
75426W        W47851  31.586  10.818   1.330
75427W        W47852  32.488  26.086   3.851
75428W        W47853  11.759   0.400   2.727
75429W        W47854  28.577  24.584   3.694
75430W        W47855  14.754   1.335  14.312
75431W        W47856  14.273   1.368  12.400
75432W        W47857  23.661  39.412  13.993
75433W        W47858  21.709  40.006   0.847
75434W        W47859  26.011  41.025  14.467
75435W        W47860  31.108  22.503   1.722
75436W        W47861  34.099   6.849   1.869
75437W        W47862  37.563  18.606  12.833
75438W        W47863  42.013  35.550  10.558
75439W        W47864  13.604  17.065   4.151
75440W        W47865   5.349  20.031   3.720
75441W        W47866  44.479  40.926  12.452
75442W        W47867  32.499  11.638   4.162
75443W        W47868   5.794   3.244   4.764
75444W        W47869  22.746  27.190  10.472
75445W        W47870   6.393  22.730   0.788
75446W        W47871   3.459   7.757  13.951
75447W        W47872  40.356  38.934  11.048
75448W        W47873  40.856  16.088   1.301
75449W        W47874  30.545   6.836   0.778
75450W        W47875   8.333  25.106  12.910
75451W        W47876   7.301  11.834   4.167
75452W        W47877   2.777  39.535   3.291
75453W        W47878  26.646   3.235  13.501
75454W        W47879   9.228  15.674   3.359
75455W        W47880  13.270   3.766   4.745
75456W        W47881  37.517   0.942  10.428
75457W        W47882  24.192  25.213  14.820
75458W        W47883  26.625  11.335   0.406
75459W        W47884  24.191  14.787  14.514
75460W        W47885  24.044  11.839  13.040
75461W        W47886   1.373  28.608  11.552
75462W        W47887  33.425   4.807  14.000
75463W        W47888   8.228  43.978  10.587
75464W        W47889  26.144   3.836   4.140
75465W        W47890  38.038   5.831  11.006
75466W        W47891  10.718  36.911  11.484
75467W        W47892  35.576  23.526  11.560
75468W        W47893   0.314  36.483  12.340
75469W        W47894  30.908  31.081  14.832
75470W        W47895  27.616  44.794  14.856
75471W        W47896  35.929   4.729  13.331
75472W        W47897   9.367  30.466  10.412
75473W        W47898  25.516  18.236   4.149
75474W        W47899  25.033  31.560   3.331
75475W        W47900   4.332  17.247  12.874
75476W        W47901  15.177  32.031  11.594
75477W        W47902   7.184  30.494  11.887
75478W        W47903  21.073   3.432  13.331
75479W        W47904   9.689  40.475  13.438
75480W        W47905   6.296  19.707  10.410
75481W        W47906  43.513  41.860  11.378
75482W        W47907  23.127  44.821  13.388
75483W        W47908  14.620  24.124  12.091
75484W        W47909  32.113  13.193  12.468
75485W        W47910  13.301   6.402   3.863
75486W        W47911  34.039  33.623   0.948
75487W        W47912  27.118   1.968   3.377
75488W        W47913  36.394  32.420  10.418
75489W        W47914  15.160  19.563   1.868
75490W        W47915   3.222  21.711   3.727
75491W        W47916  32.402  38.511   2.375
75492W        W47917  31.945  20.078   1.741
75493W        W47918  38.473   2.263   4.231
75494W        W47919  23.222  37.492   0.820
75495W        W47920  27.484  13.743   3.242
75496W        W47921  39.457  31.542  14.280
75497W        W47922  40.809  36.076  11.046
75498W        W47923  20.616  32.497  10.532
75499W        W47924  12.635   4.412  11.923
75500W        W47925   1.806  21.223   0.314
75501W        W47926  22.574  22.109  10.480
75502W        W47927  36.020  23.729  10.527
75503W        W47928  41.453  17.148  14.775
75504W        W47929  25.199  13.337  11.381
75505W        W47930  22.705  44.873   2.736
75506W        W47931  32.578  25.470   0.359
75507W        W47932  22.561   3.392   4.742
75508W        W47933  29.605  26.163  10.442
75509W        W47934  13.222   3.773  14.975
75510W        W47935  18.285  33.909  12.464
75511W        W47936  25.475  39.482   4.186
75512W        W47937  31.470  20.078   0.422
75513W        W47938  40.470  30.461   9.958
75514W        W47939   3.713  19.614   4.622
75515W        W47940  30.153   8.681   2.827
75516W        W47941  22.555  14.270   1.273
75517W        W47942  44.776  42.788  10.899
75518W        W47943  33.874  10.248  12.999
75519W        W47944   1.897  31.971  10.946
75520W        W47945  22.057  41.934  14.347
75521W        W47946  42.834  25.018   2.812
75522W        W47947  22.722   4.327   3.377
75523W        W47948  42.306  14.156  13.945
75524W        W47949   7.800   1.457  13.497
75525W        W47950  20.195  36.928   2.742
75526W        W47951   3.912  17.642   1.272
75527W        W47952  34.041  33.945   2.355
75528W        W47953  35.600  44.263   1.862
75529W        W47954  24.694  23.684   2.336
75530W        W47955  43.298  38.890  10.535
75531W        W47956  24.527  12.143   4.751
75532W        W47957  14.314  15.577   3.665
75533W        W47958  26.565  25.986   3.778
75534W        W47959  22.064   1.946  13.421
75535W        W47960  15.796  32.492   5.745
75536W        W47961  16.313  14.095  11.022
75537W        W47962   3.228  41.304   2.353
75538W        W47963   2.390   5.820   4.177
75539W        W47964  43.320  23.493   2.680
75540W        W47965   0.961   0.760  11.074
75541W        W47966  43.963   1.379  14.783
75542W        W47967  27.666   8.770   2.668
75543W        W47968  31.580   0.926  12.092
75544W        W47969  30.537  38.951   4.209
75545W        W47970  11.767  33.904   2.839
75546W        W47971  35.959  27.106  11.994
75547W        W47972  37.993   4.410  12.884
75548W        W47973  16.567   3.723  14.911
75549W        W47974  10.368  16.227  12.424
75550W        W47975  16.714  13.669  11.936
75551W        W47976   8.246  25.000   1.440
75552W        W47977  25.176  10.245   3.251
75553W        W47978  29.516  28.119   2.360
75554W        W47979   4.289  23.640   1.772
75555W        W47980   4.741  13.170  13.853
75556W        W47981  44.500  26.460   5.212
75557W        W47982  24.043  20.732   3.166
75558W        W47983  14.266   7.199  13.858
75559W        W47984  19.185  16.216  14.905
75560W        W47985  38.456  24.577   2.273
75561W        W47986  15.185  39.318   3.663
75562W        W47987  43.845   9.233  14.363
75563W        W47988  36.885   5.929   0.925
75564W        W47989  32.977  38.384   3.740
75565W        W47990  13.141   9.749   3.836
75566W        W47991  30.132   7.737  14.401
75567W        W47992  28.020   3.888   4.757
75568W        W47993  32.108  18.170   4.680
75569W        W47994  21.674  30.964  13.454
75570W        W47995  24.156  28.118  14.384
75571W        W47996  11.265  42.845  13.356
75572W        W47997  31.486  15.169   0.471
75573W        W47998  44.927  34.035   2.806
75574W        W47999  32.598  24.212  11.981
75575W        W48000  12.315  43.766   2.382
75576W        W48001   4.739  30.145   4.671
75577W        W48002  27.629  35.016   2.703
75578W        W48003   4.444   3.425  14.351
75579W        W48004  42.020  38.333   2.763
75580W        W48005  15.205  35.490   4.670
75581W        W48006   7.367   5.301  11.876
75582W        W48007  31.581  25.166  12.340
75583W        W48008  36.562  17.278  14.018
75584W        W48009  36.524  30.583  10.496
75585W        W48010  25.567  23.685   9.978
75586W        W48011   9.389  17.070   4.777
75587W        W48012  28.115  12.306  11.052
75588W        W48013   3.877   0.315  11.094
75589W        W48014  35.545  29.966   0.855
75590W        W48015  38.442  10.742  13.481
75591W        W48016  21.681   7.214  13.831
75592W        W48017  41.371  42.336  12.504
75593W        W48018  38.075  42.338   0.733
75594W        W48019  24.123  16.754   4.784
75595W        W48020   8.393  35.937  12.833
75596W        W48021  18.778  31.150  14.976
75597W        W48022  14.140  24.702  11.098
75598W        W48023  40.428  11.134  12.876
75599W        W48024  42.402  28.141   0.297
75600W        W48025   5.786   7.817   0.322
75601W        W48026  39.313  11.258  12.083
75602W        W48027  37.400  28.516  12.514
75603W        W48028   0.879  19.635  14.783
75604W        W48029  14.615  40.377   0.439
75605W        W48030  24.550  38.046   3.181
75606W        W48031  28.556  27.081   4.298
75607W        W48032  43.437  43.487  12.508
75608W        W48033  22.164  10.654  13.512
75609W        W48034  27.099  43.428   0.270
75610W        W48035  33.127  35.876   2.672
75611W        W48036   1.250   7.787  12.551
75612W        W48037  17.103  38.541  12.988
75613W        W48038  10.241  35.524   3.282
75614W        W48039  29.488  38.996   3.822
75615W        W48040  43.807  39.914   0.388
75616W        W48041  37.981  37.459   3.779
75617W        W48042  29.002  23.515  13.546
75618W        W48043  31.914  35.903  12.066
75619W        W48044   7.257   2.940  10.596
75620W        W48045  15.733  36.548   3.281
75621W        W48046  36.456  34.492   1.437
75622W        W48047  20.646  18.667  13.432
75623W        W48048  12.843   0.306  11.988
75624W        W48049  42.935  28.573  13.053
75625W        W48050   3.935  19.663   3.788
75626W        W48051  31.137  33.544  13.017
75627W        W48052  26.004  35.911   3.692
75628W        W48053  26.463  29.608  10.964
75629W        W48054  36.461  12.122  11.543
75630W        W48055   3.298  43.961  14.858
75631W        W48056  16.672  38.375  14.877
75632W        W48057  38.046  27.538   4.208
75633W        W48058  20.583  14.789   1.333
75634W        W48059   1.819  25.134   3.788
75635W        W48060   5.309  23.121  12.541
75636W        W48061  28.570  30.991  10.991
75637W        W48062   4.926  37.339  10.442
75638W        W48063   7.696  34.478   0.893
75639W        W48064   2.950  31.479   1.352
75640W        W48065   2.423   3.279  12.568
75641W        W48066  41.905  34.887   0.347
75642W        W48067  36.560  14.119   2.206
75643W        W48068  21.606  27.656   4.735
75644W        W48069   4.204  13.834  13.314
75645W        W48070  10.186  38.932  12.088
75646W        W48071  20.182  12.245   3.356
75647W        W48072  40.853  24.009   1.242
75648W        W48073  24.719  10.176  11.967
75649W        W48074  42.798  12.142  11.006
75650W        W48075  22.532  44.305   4.115
75651W        W48076  39.048   5.227   4.237
75652W        W48077  42.967  11.775  13.917
75653W        W48078   9.189  43.406  11.045
75654W        W48079  14.247  43.361   5.290
75655W        W48080   8.851  15.311   4.211
75656W        W48081  36.404   0.963  13.914
75657W        W48082   5.900   5.708   3.237
75658W        W48083  17.261  28.076   0.871
75659W        W48084  17.169   8.745   1.293
75660W        W48085  10.742  16.596   3.367
75661W        W48086   3.407  24.217  14.832
75662W        W48087  11.188   1.243  10.429
75663W        W48088  30.159  24.196   5.220
75664W        W48089  12.341   0.356  12.453
75665W        W48090  33.072  10.753  14.435
75666W        W48091  33.060   4.284   4.307
75667W        W48092  23.114  24.141   4.273
75668W        W48093   2.230  35.991   5.310
75669W        W48094  28.996  44.976  13.056
75670W        W48095  21.081  38.028   2.239
75671W        W48096   0.835  15.328   0.754
75672W        W48097   7.350   0.408  11.499
75673W        W48098  18.676  41.973   4.646
75674W        W48099   5.194  12.126   3.289
75675W        W48100  37.424  32.932   3.779
75676W        W48101  41.456  42.325   3.159
75677W        W48102  42.305   6.884   0.411
75678W        W48103  19.641  20.265  14.895
75679W        W48104   6.720  24.614   3.270
75680W        W48105  10.709  14.813   2.870
75681W        W48106  25.030  13.114  12.866
75682W        W48107  10.760  24.626  12.520
75683W        W48108  20.525  27.149  14.364
75684W        W48109  36.545  36.422  11.107
75685W        W48110   2.243  14.596   3.760
75686W        W48111   0.803  32.919   0.800
75687W        W48112  33.020  26.492  10.453
75688W        W48113  31.587  43.983  10.418
75689W        W48114  22.529  14.222   3.759
75690W        W48115   7.245  32.983  13.428
75691W        W48116  20.065  40.055  13.322
75692W        W48117  16.699  16.172   3.198
75693W        W48118  14.658  13.775  12.851
75694W        W48119  25.021  43.315   1.777
75695W        W48120  19.577  15.706   1.865
75696W        W48121  15.684  12.280  10.485
75697W        W48122   3.419   1.440   0.826
75698W        W48123   7.190  43.805  14.791
75699W        W48124  11.317  40.010   0.751
75700W        W48125  39.334  38.958   0.955
75701W        W48126  28.471  32.566  10.971
75702W        W48127   8.221  31.453  11.120
75703W        W48128  22.068  10.664   2.347
75704W        W48129  25.647  43.405   4.803
75705W        W48130  42.493  33.505   4.675
75706W        W48131   0.758  18.233   5.230
75707W        W48132  20.194  34.505   0.840
75708W        W48133  17.111  13.622   3.790
75709W        W48134  42.496  17.694   4.777
75710W        W48135   9.847  40.514  13.907
75711W        W48136  39.487  17.130  11.122
75712W        W48137  39.808  32.430  14.909
75713W        W48138  25.094  29.952  10.545
75714W        W48139  30.946  30.420   3.285
75715W        W48140  20.240   3.299  14.360
75716W        W48141  31.006  39.527   2.369
75717W        W48142   4.723   0.491   1.754
75718W        W48143  41.494  37.942   0.404
75719W        W48144   1.357  42.409   2.692
75720W        W48145  14.807   2.454   2.852
75721W        W48146   7.303  44.312   4.317
75722W        W48147  41.980  19.726   4.760
75723W        W48148  31.983  20.214   5.106
75724W        W48149  43.780  40.985   4.266
75725W        W48150  32.090  20.202  11.123
75726W        W48151  24.015  36.531   2.732
75727W        W48152  14.608  22.108   0.444
75728W        W48153  28.936  24.027  10.978
75729W        W48154  33.946  24.171   0.298
75730W        W48155  28.668   3.908   3.378
75731W        W48156  26.692  42.470  13.378
75732W        W48157  31.572  43.855   2.377
75733W        W48158  10.291  37.970   0.925
75734W        W48159  23.731  12.789   0.382
75735W        W48160   4.240  31.578  10.990
75736W        W48161  28.099  10.665  13.800
75737W        W48162  37.834  20.714  12.023
75738W        W48163  22.720  11.825   5.092
75739W        W48164  43.970  25.171   0.928
75740W        W48165   4.241  27.586  12.836
75741W        W48166   0.962   4.910  10.006
75742W        W48167   7.871  34.942  11.504
75743W        W48168   9.692  14.223   0.366
75744W        W48169  14.125  30.146   0.859
75745W        W48170  39.841   5.916  14.825
75746W        W48171  18.075  10.673   0.322
75747W        W48172   7.813   6.342   4.118
75748W        W48173   8.169  43.998  14.929
75749W        W48174   7.326   2.230   0.763
75750W        W48175  14.680  27.020   4.238
75751W        W48176   2.255  32.128  11.953
75752W        W48177  31.039  10.832  14.976
75753W        W48178   5.800  11.220   4.330
75754W        W48179  42.028  34.914   3.228
75755W        W48180  37.889   2.260   3.235
75756W        W48181   0.374  23.001  14.878
75757W        W48182  37.982  40.447   1.736
75758W        W48183  40.454  39.978  13.816
75759W        W48184  24.550  23.123  11.027
75760W        W48185  28.506   0.260   2.344
75761W        W48186  33.545  20.585  10.984
75762W        W48187   9.164  11.293   2.872
75763W        W48188  13.799  13.694  14.832
75764W        W48189  41.497  35.888  10.548
75765W        W48190  10.376   1.857  12.962
75766W        W48191  25.605  33.926  12.900
75767W        W48192  37.831  30.999  10.951
75768W        W48193  42.022   4.818  11.866
75769W        W48194  23.127   2.960   3.379
75770W        W48195  29.053  24.513  14.885
75771W        W48196  13.108  31.479  12.428
75772W        W48197   3.216   9.726  13.533
75773W        W48198  22.022  25.680   4.598
75774W        W48199  14.248  22.501   0.871
75775W        W48200  39.494  42.308  11.523
75776W        W48201  35.994  12.844   3.797
75777W        W48202  17.609  12.144   2.321
75778W        W48203  10.318  16.666   1.423
75779W        W48204  23.543   0.747   4.227
75780W        W48205  11.842  31.956  14.761
75781W        W48206  20.577  19.736   0.454
75782W        W48207  42.812  22.186   0.892
75783W        W48208   7.773  15.659   0.857
75784W        W48209  34.872  40.869  14.427
75785W        W48210  18.173  32.027  13.974
75786W        W48211  38.059   3.718   4.225
75787W        W48212  28.663   6.225  11.123
75788W        W48213  42.968  13.835   3.359
75789W        W48214   1.345  12.130   0.355
75790W        W48215   3.357  39.410  11.576
75791W        W48216  12.615   0.333  13.357
75792W        W48217  27.526  39.379  12.439
75793W        W48218  13.734  42.466  12.396
75794W        W48219  30.092  15.143   1.749
75795W        W48220  22.559  22.652  10.074
75796W        W48221  43.400  25.664  14.288
75797W        W48222  14.750  34.541   3.846
75798W        W48223   5.241   9.219   4.220
75799W        W48224  43.930  18.733  14.865
75800W        W48225   3.809  28.147  13.493
75801W        W48226  36.964  28.958   0.447
75802W        W48227  35.104   0.796  12.038
75803W        W48228  43.946  23.604  11.609
75804W        W48229  15.801  34.069  10.895
75805W        W48230  11.844  44.429   0.858
75806W        W48231  29.466  21.573   3.320
75807W        W48232  34.385  19.119   2.863
75808W        W48233  32.942  12.661   3.721
75809W        W48234  15.581   3.241  14.478
75810W        W48235  42.444   9.811  11.591
75811W        W48236  35.026  33.965  12.470
75812W        W48237  24.720   7.363  13.380
75813W        W48238  18.553   1.249   0.459
75814W        W48239   6.767   0.362  14.308
75815W        W48240  21.576  10.287  11.973
75816W        W48241  30.129  39.869  10.520
75817W        W48242  43.938  26.584  11.876
75818W        W48243   3.352  13.744  11.909
75819W        W48244   8.792  23.111   0.915
75820W        W48245  21.531  15.158   1.310
75821W        W48246  43.289  34.963  14.277
75822W        W48247  29.545  12.720   1.922
75823W        W48248   5.262  10.749  13.903
75824W        W48249  33.893  14.808  14.006
75825W        W48250  12.736  13.178   0.252
75826W        W48251  14.810  24.003  13.351
75827W        W48252  23.200  14.629  12.993
75828W        W48253  15.095  31.014  14.464
75829W        W48254   7.286  36.375  13.892
75830W        W48255  44.811   1.793   2.331
75831W        W48256  32.542  43.428  12.483
75832W        W48257  15.278  35.394   0.341
75833W        W48258  15.161  19.114  13.904
75834W        W48259  15.322  41.438   2.378
75835W        W48260  19.284  20.756  12.982
75836W        W48261  40.331  42.913  11.995
75837W        W48262   0.324  26.027   2.664
75838W        W48263  41.385  25.561   3.826
75839W        W48264  32.539   1.793   0.385
75840W        W48265   1.328  39.420   4.833
75841W        W48266   7.676  27.591   3.723
75842W        W48267  26.529   4.789   0.790
75843W        W48268   1.253  23.605  13.357
75844W        W48269  22.729  32.124  12.394
75845W        W48270   7.715   7.862  12.963
75846W        W48271  21.032   4.423   3.723
75847W        W48272  14.254  37.393   3.360
75848W        W48273  43.505  40.831  13.394
75849W        W48274   5.712   8.168  14.807
75850W        W48275  37.971  28.565  11.531
75851W        W48276  43.915   6.899  10.900
75852W        W48277  36.396  11.707  14.410
75853W        W48278   4.802  30.998   0.304
75854W        W48279  35.931  20.677  11.930
75855W        W48280  33.922  11.203  14.305
75856W        W48281  13.153  32.608   3.295
75857W        W48282  25.136  19.071  11.498
75858W        W48283  18.278  20.669   2.418
75859W        W48284  30.431  16.299   4.723
75860W        W48285  20.148  14.714   0.349
75861W        W48286  19.617  18.767  12.955
75862W        W48287   5.930  40.968   4.659
75863W        W48288  22.044  31.616   3.320
75864W        W48289  10.377   0.348  10.135
75865W        W48290  37.353   5.285   0.747
75866W        W48291  42.028   9.170  13.422
75867W        W48292  11.658   0.393  11.519
75868W        W48293   8.679  32.109  13.888
75869W        W48294  35.874  12.778  11.550
75870W        W48295   7.748  34.450  13.344
75871W        W48296   2.873  37.014   3.648
75872W        W48297  13.178   1.796  14.427
75873W        W48298  18.210  22.565  14.423
75874W        W48299  22.205  41.885   2.861
75875W        W48300  19.631  32.910  12.014
75876W        W48301  27.150   0.880  10.073
75877W        W48302  32.476  38.907   9.994
75878W        W48303  21.115   5.377  12.533
75879W        W48304  31.090  23.239   0.295
75880W        W48305  19.244  36.091   1.395
75881W        W48306   1.873  15.728  12.461
75882W        W48307   4.842  33.898  13.889
75883W        W48308  25.065  39.868   4.328
75884W        W48309  28.172   8.803   0.441
75885W        W48310  11.236  23.189  11.099
75886W        W48311  19.600  36.962   4.307
75887W        W48312  14.734  34.555  12.970
75888W        W48313  16.219  35.857   5.310
75889W        W48314  13.746  39.865   0.884
75890W        W48315  40.451  31.495  14.000
75891W        W48316  30.050  33.419   3.660
75892W        W48317  26.565  30.921  13.962
75893W        W48318   6.306  41.473  12.432
75894W        W48319  20.609  17.748  12.087
75895W        W48320  28.670   5.241   3.758
75896W        W48321   1.376  41.801   1.451
75897W        W48322  38.401  21.084   3.176
75898W        W48323  28.661  39.028  14.938
75899W        W48324   9.836   5.872   1.871
75900W        W48325  32.052  23.065   0.296
75901W        W48326  40.529   0.933   5.096
75902W        W48327  37.008  22.603   2.746
75903W        W48328  43.002   3.900   3.803
75904W        W48329  14.773   1.887  11.570
75905W        W48330  12.253   4.733   3.252
75906W        W48331   8.810  39.443   3.284
75907W        W48332  21.561  22.683  11.463
75908W        W48333   4.349  30.439  12.007
75909W        W48334  39.446  44.837   1.765
75910W        W48335  19.658   0.987   1.312
75911W        W48336   4.268   9.708  13.527
75912W        W48337  21.729  28.935   3.748
75913W        W48338  14.169  37.461   4.673
75914W        W48339  27.518  22.541   0.479
75915W        W48340  25.173   9.670  12.894
75916W        W48341  20.761  44.401  12.843
75917W        W48342   2.317  13.835  12.381
75918W        W48343  43.840   5.219   0.848
75919W        W48344  23.182  17.667  13.479
75920W        W48345  16.166   1.958  14.760
75921W        W48346  22.588  42.792  12.553
75922W        W48347   7.228  11.285   2.272
75923W        W48348  38.866  17.595  13.488
75924W        W48349  21.607  28.098   4.239
75925W        W48350  34.546  34.540  10.455
75926W        W48351  36.526  17.199   0.441
75927W        W48352  34.882   3.346   5.204
75928W        W48353  36.871  20.167   0.350
75929W        W48354   1.891  18.126  11.952
75930W        W48355  18.653  17.079  12.903
75931W        W48356  11.628  24.691   0.912
75932W        W48357   5.915   8.791  14.775
75933W        W48358  11.808  29.949   2.779
75934W        W48359  25.040   1.283  10.482
75935W        W48360  40.521  16.072  13.863
75936W        W48361  36.942  34.935  10.609
75937W        W48362  32.939  26.677  14.457
75938W        W48363  31.093   8.865   0.334
75939W        W48364  16.598  24.692   2.723
75940W        W48365  34.387   3.818   0.884
75941W        W48366   2.863  19.149   0.944
75942W        W48367   5.693  17.778  12.023
75943W        W48368  24.134   2.735   4.177
75944W        W48369  16.193  42.956  13.918
75945W        W48370   0.985  13.738   2.279
75946W        W48371  18.267  24.567   1.924
75947W        W48372  18.628   2.409   4.689
75948W        W48373  14.139   8.820   1.802
75949W        W48374   3.226  42.393   3.173
75950W        W48375  26.068  43.509  12.498
75951W        W48376  25.517  30.912  13.840
75952W        W48377   1.750   7.828  12.399
75953W        W48378  41.446  10.758  14.801
75954W        W48379  20.528  13.764   2.190
75955W        W48380  36.939  10.655   1.886
75956W        W48381   9.710  44.870   3.333
75957W        W48382   2.373  44.861   0.315
75958W        W48383   4.281  30.453   4.679
75959W        W48384  24.072  23.658   1.239
75960W        W48385  37.869  27.622   2.275
75961W        W48386   8.193  39.341   0.375
75962W        W48387  11.825   1.253  12.930
75963W        W48388  20.131  22.514  14.515
75964W        W48389  30.047  35.374  12.826
75965W        W48390   1.929  23.155   0.940
75966W        W48391  38.562   8.859  14.410
75967W        W48392  42.488  22.742  10.047
75968W        W48393  23.639  17.683   4.119
75969W        W48394   8.379  19.561  14.775
75970W        W48395  41.815  41.493  12.053
75971W        W48396  33.621   6.827  11.604
75972W        W48397  39.951   4.730  13.947
75973W        W48398  25.993   9.698  12.348
75974W        W48399  34.612  27.479  12.554
75975W        W48400  24.482  35.503   4.148
75976W        W48401   3.940   8.250  14.322
75977W        W48402  35.900  39.032   1.871
75978W        W48403  40.340   2.960   1.286
75979W        W48404  16.075   8.258  13.355
75980W        W48405  36.864  41.477  14.438
75981W        W48406   4.209  41.917  10.441
75982W        W48407  35.009  44.501  10.541
75983W        W48408  11.305  11.690  14.399
75984W        W48409   1.961  39.501  12.422
75985W        W48410  32.895  21.591   4.686
75986W        W48411  41.409  30.540   2.851
75987W        W48412   6.902  30.625  13.531
75988W        W48413  41.877   7.863  14.505
75989W        W48414  17.100   0.755   1.741
75990W        W48415  39.056  35.449  10.472
75991W        W48416   0.456  13.682   3.859
75992W        W48417  30.060  13.285   2.217
75993W        W48418  41.865  13.197  11.495
75994W        W48419  41.520  35.423  11.032
75995W        W48420  31.068  11.788  14.338
75996W        W48421  13.110  19.588  11.005
75997W        W48422  38.056  12.357   4.274
75998W        W48423   7.350   3.385   2.751
75999W        W48424  33.094  42.497   3.348
76000W        W48425  23.239  34.948   2.663
76001W        W48426  28.966   6.361   0.884
76002W        W48427  10.775  25.098   0.484
76003W        W48428  34.989  19.757   4.340
76004W        W48429  43.781  41.024  11.001
76005W        W48430  14.613  29.955  12.999
76006W        W48431   3.396  35.883  14.491
76007W        W48432  18.118   3.339   0.966
76008W        W48433  28.106   5.793   2.309
76009W        W48434  32.458  31.510  12.953
76010W        W48435   0.960  35.080  12.050
76011W        W48436   2.463  33.416  14.017
76012W        W48437  18.552  31.599   1.749
76013W        W48438  32.453  34.551   3.271
76014W        W48439   5.730  33.420   3.741
76015W        W48440  26.146  19.070  13.851
76016W        W48441  21.125  24.124   2.758
76017W        W48442   6.923   6.363   2.341
76018W        W48443  16.680  23.031  14.409
76019W        W48444  21.070  29.946   4.157
76020W        W48445  40.821  39.858  11.864
76021W        W48446  32.486   7.885   3.236
76022W        W48447  17.219  24.190   4.728
76023W        W48448  14.198   5.367   4.682
76024W        W48449  25.186  42.891  12.829
76025W        W48450  19.574  37.509   4.261
76026W        W48451  43.006  16.181  12.007
76027W        W48452  35.951  40.798  12.465
76028W        W48453  16.150  12.815  10.466
76029W        W48454  38.868  35.018   5.193
76030W        W48455  15.807  44.890  10.984
76031W        W48456  20.600   4.344  11.029
76032W        W48457   5.840  28.647   1.730
76033W        W48458  43.856  23.651   3.336
76034W        W48459  14.739   9.187   3.759
76035W        W48460   9.690  34.057   2.865
76036W        W48461  10.265   1.474  12.904
76037W        W48462  18.714  30.529   3.653
76038W        W48463  41.911  44.780   2.885
76039W        W48464  37.986  17.271  12.359
76040W        W48465  21.219  11.823   3.728
76041W        W48466  22.533  29.003  11.444
76042W        W48467  21.585  42.902  11.909
76043W        W48468  35.857  16.614   2.225
76044W        W48469  44.842  41.476   2.318
76045W        W48470  29.587  43.010   4.789
76046W        W48471  35.560   2.321  11.451
76047W        W48472  35.437  25.084  12.412
76048W        W48473  26.582  39.883  10.976
76049W        W48474  35.975  17.637   3.667
76050W        W48475  26.088  42.984  10.437
76051W        W48476  33.506  26.120   1.872
76052W        W48477  21.717  43.368   4.315
76053W        W48478  32.459  36.083   4.661
76054W        W48479   0.938  19.213  14.500
76055W        W48480  24.499  43.387   3.826
76056W        W48481   4.825  30.483   3.677
76057W        W48482   7.816  25.201  11.986
76058W        W48483  29.949  17.788   0.331
76059W        W48484  42.366  24.545  14.842
76060W        W48485  44.358  44.949  10.620
76061W        W48486  11.815  25.094  14.362
76062W        W48487  38.953  41.840   3.261
76063W        W48488  22.008   2.870   2.851
76064W        W48489  13.266  18.695  13.881
76065W        W48490  36.500  22.693   2.851
76066W        W48491  33.567  22.643  13.464
76067W        W48492  19.160  27.129  14.397
76068W        W48493  32.975  21.555  14.965
76069W        W48494  38.428  32.078  13.466
76070W        W48495  31.122  42.327   0.335
76071W        W48496  43.015  23.512   1.232
76072W        W48497   0.913  27.571  10.417
76073W        W48498  43.348  14.295   4.673
76074W        W48499   8.713  36.050  10.022
76075W        W48500   9.238  18.607  14.774
76076W        W48501  41.438  30.069   3.359
76077W        W48502  12.808  43.403   0.858
76078W        W48503  33.564  18.246   2.861
76079W        W48504   9.685  22.510  13.824
76080W        W48505  19.062   5.403  11.410
76081W        W48506   2.865  22.736  10.555
76082W        W48507   4.205  21.642   3.280
76083W        W48508   4.258  16.635   2.903
76084W        W48509   8.822  34.593  11.470
76085W        W48510  41.452  26.051  14.307
76086W        W48511  13.697  39.367  12.065
76087W        W48512   5.203  37.003   3.774
76088W        W48513   0.797  17.565  14.323
76089W        W48514  21.237  15.169   4.353
76090W        W48515  36.886  20.237   3.786
76091W        W48516  23.607  40.930  10.612
76092W        W48517  21.178  17.069  13.332
76093W        W48518  41.495  25.009   0.799
76094W        W48519  19.727  22.099  11.096
76095W        W48520  19.042   7.208   1.883
76096W        W48521   6.726  17.655   4.602
76097W        W48522  17.649  29.143   2.679
76098W        W48523  16.772   5.719   1.810
76099W        W48524  26.084  25.478  13.893
76100W        W48525  34.421  10.795  14.015
76101W        W48526  33.935  29.642   3.366
76102W        W48527  44.927  11.309  10.560
76103W        W48528  27.658   8.689  14.874
76104W        W48529   3.290  16.291  11.490
76105W        W48530  14.821  10.370  13.922
76106W        W48531  34.059   6.226   2.263
76107W        W48532  16.639   1.301  13.058
76108W        W48533  40.492  31.445   3.319
76109W        W48534  15.679   1.423   1.851
76110W        W48535  14.326  16.654   2.190
76111W        W48536  18.238  30.977   1.356
76112W        W48537  26.493  43.287  12.061
76113W        W48538  36.855  35.588  11.994
76114W        W48539  32.885   1.477   0.825
76115W        W48540   5.270   7.364  12.407
76116W        W48541  25.985   1.736  12.495
76117W        W48542  21.115   7.392   0.746
76118W        W48543  30.935   3.930  12.532
76119W        W48544  15.176  42.334   3.342
76120W        W48545   9.315  39.514   3.862
76121W        W48546  34.014   4.314  10.428
76122W        W48547  25.670  18.174  13.872
76123W        W48548  19.117   1.743  10.525
76124W        W48549  15.596   4.751  12.993
76125W        W48550  13.622  35.358   2.409
76126W        W48551  25.542   3.315   4.711
76127W        W48552  18.632   9.707   3.224
76128W        W48553  43.807  41.026  14.404
76129W        W48554  31.409  30.583   1.361
76130W        W48555   1.410   9.261  10.625
76131W        W48556  32.579  31.924   9.999
76132W        W48557  22.102   4.743  10.614
76133W        W48558   2.853   1.374  10.574
76134W        W48559  21.613  24.045  13.385
76135W        W48560  23.057  44.298  10.133
76136W        W48561  33.445  29.959  10.597
76137W        W48562  40.929  17.230   2.191
76138W        W48563  26.495  26.173  12.980
76139W        W48564  30.908  41.352   4.292
76140W        W48565  24.137   3.816  14.953
76141W        W48566   7.398  12.842  10.622
76142W        W48567  10.271  33.897   1.794
76143W        W48568  16.778  14.101  11.940
76144W        W48569   5.766  20.611   1.308
76145W        W48570  16.302  17.275   2.196
76146W        W48571  43.815  43.352   0.735
76147W        W48572  44.978  18.723  10.422
76148W        W48573  41.393  39.032   1.372
76149W        W48574   6.211   7.682   0.967
76150W        W48575  23.594  36.503   3.727
76151W        W48576   9.783  19.131  14.280
76152W        W48577  38.380  38.950   0.799
76153W        W48578  28.562  22.678   1.261
76154W        W48579   5.430  34.987  14.320
76155W        W48580  39.826  18.238   1.857
76156W        W48581   8.347  37.376  13.807
76157W        W48582  29.481  17.289  10.506
76158W        W48583   6.710  43.365  14.866
76159W        W48584  15.180   1.402   2.185
76160W        W48585   5.253  22.713  10.974
76161W        W48586   6.786   0.388  13.330
76162W        W48587  27.666  41.429  12.022
76163W        W48588  41.536  38.381  12.552
76164W        W48589  32.122  26.065  14.384
76165W        W48590  20.086  42.418   0.763
76166W        W48591  37.442   7.301   3.866
76167W        W48592  30.112  33.078  14.426
76168W        W48593   4.736  30.931  10.978
76169W        W48594  19.218  25.080  12.971
76170W        W48595  22.147  24.488  13.535
76171W        W48596  25.159   4.284   4.333
76172W        W48597  27.512  43.999  13.401
76173W        W48598  29.622  33.113  12.063
76174W        W48599  14.282   5.367  10.564
76175W        W48600  12.325   4.333  14.290
76176W        W48601  15.141  35.557   1.792
76177W        W48602  18.746  35.106   2.855
76178W        W48603  12.347  43.313  12.037
76179W        W48604  29.986  36.409  11.505
76180W        W48605  11.770   8.222   3.854
76181W        W48606   3.257  14.188  12.960
76182W        W48607  33.470  37.460   2.321
76183W        W48608  12.288  10.371  14.977
76184W        W48609  32.907  11.266  14.308
76185W        W48610  23.018  21.602  11.381
76186W        W48611  20.273  32.631  14.500
76187W        W48612  28.985  14.208  14.875
76188W        W48613  26.008  41.491  10.976
76189W        W48614  20.661  12.349   4.276
76190W        W48615  22.026  19.683   1.777
76191W        W48616  34.589  10.646   0.261
76192W        W48617  29.655   6.776   4.226
76193W        W48618  14.163  11.167  13.878
76194W        W48619  43.994   9.255   0.262
76195W        W48620  27.102  25.068   1.705
76196W        W48621  10.743  31.068  12.531
76197W        W48622  21.578  41.861  11.416
76198W        W48623  28.489  10.768  11.885
76199W        W48624  24.117  42.298  14.332
76200W        W48625  25.993  37.998  10.521
76201W        W48626  17.084  27.685  10.498
76202W        W48627  18.264  44.799  14.328
76203W        W48628  37.391  18.174   1.717
76204W        W48629  21.177  27.118   3.750
76205W        W48630  15.696   9.709   3.723
76206W        W48631  16.178  39.418   4.803
76207W        W48632   1.312  20.107  10.918
76208W        W48633   4.414   6.884  11.043
76209W        W48634  18.659  16.620   0.792
76210W        W48635  37.030   5.906  13.858
76211W        W48636  29.159  25.027  12.905
76212W        W48637   2.824  22.010   4.775
76213W        W48638   0.980   6.681  11.935
76214W        W48639  41.022  23.024   2.890
76215W        W48640  25.521  14.270   1.352
76216W        W48641  10.259   2.280  13.880
76217W        W48642  35.073  40.040   4.742
76218W        W48643  43.424  27.570  10.536
76219W        W48644  17.148  22.697   4.713
76220W        W48645  30.446   6.902  10.496
76221W        W48646   1.386  42.823   4.221
76222W        W48647  13.334  25.052  11.590
76223W        W48648  38.033  10.265  11.532
76224W        W48649  24.990  17.625   4.735
76225W        W48650   5.207  13.726   2.385
76226W        W48651   1.333  15.273  10.630
76227W        W48652  39.822  39.356  11.418
76228W        W48653   2.349  37.029   2.214
76229W        W48654  29.170  21.034  12.977
76230W        W48655  19.764  14.610  11.575
76231W        W48656  12.697  19.225  14.931
76232W        W48657  14.259  41.863  11.468
76233W        W48658  34.427  26.057   2.722
76234W        W48659  37.085   2.407  14.473
76235W        W48660  34.529  15.139   2.386
76236W        W48661  21.100  41.430  10.487
76237W        W48662  19.695  37.509   3.287
76238W        W48663  20.706   1.416  12.361
76239W        W48664  36.074   6.388  10.557
76240W        W48665  39.857   7.787   0.453
76241W        W48666  42.373  38.981  10.588
76242W        W48667  35.576   1.249   3.218
76243W        W48668  44.470  34.996   2.715
76244W        W48669  37.408  40.008  13.965
76245W        W48670   6.839  16.668   3.280
76246W        W48671  22.501  41.913  13.404
76247W        W48672  32.007  38.361   2.312
76248W        W48673  24.077  43.795  13.794
76249W        W48674  18.696  15.281  10.460
76250W        W48675  35.506   1.270  10.629
76251W        W48676  34.510  21.543  10.514
76252W        W48677  12.302  10.822   0.291
76253W        W48678  27.197  35.359  13.326
76254W        W48679  18.751  35.496   1.750
76255W        W48680  27.542  30.133  11.525
76256W        W48681  31.057  22.147  13.827
76257W        W48682  18.134  12.137  14.418
76258W        W48683  28.592  13.685  13.417
76259W        W48684  44.323   2.831   2.872
76260W        W48685  19.733  12.202   1.829
76261W        W48686  44.286   6.333  11.086
76262W        W48687   0.270  34.023  13.912
76263W        W48688  12.309  36.550   1.819
76264W        W48689   0.884  12.305   0.932
76265W        W48690  28.966  22.627  11.493
76266W        W48691  24.706  13.686  11.484
76267W        W48692  35.416  16.625  13.049
76268W        W48693  15.679  27.002  12.933
76269W        W48694   4.328  13.144  11.554
76270W        W48695  11.249   8.686  12.853
76271W        W48696  42.293  23.989   2.406
76272W        W48697  26.147  25.644   3.327
76273W        W48698   3.856  11.349   4.649
76274W        W48699  40.344  13.325   1.373
76275W        W48700  44.851  30.440   4.738
76276W        W48701  10.226  26.036  12.557
76277W        W48702  27.963  29.136   2.719
76278W        W48703   1.937   5.876  14.834
76279W        W48704  11.775   7.384  13.044
76280W        W48705  39.459  17.704   2.844
76281W        W48706   9.154  16.660   3.160
76282W        W48707  22.725  19.196   2.664
76283W        W48708  27.990  16.124  11.106
76284W        W48709  27.471  38.025  14.973
76285W        W48710  37.396  28.990  12.383
76286W        W48711  40.455  25.053   3.266
76287W        W48712   5.922  30.092   3.721
76288W        W48713   2.296  12.817   3.762
76289W        W48714  36.438  39.495  11.963
76290W        W48715  26.525  10.840   0.904
76291W        W48716  23.002  23.571   0.345
76292W        W48717  42.813  26.666  11.100
76293W        W48718  42.860  26.654  12.393
76294W        W48719   1.891  40.990  11.528
76295W        W48720  36.012  20.243  13.883
76296W        W48721  20.121  25.582  14.906
76297W        W48722  33.888  24.063   0.839
76298W        W48723  17.697  33.047   0.768
76299W        W48724  34.376  24.182  11.094
76300W        W48725  36.907  20.631  12.982
76301W        W48726  17.195  33.539  12.072
76302W        W48727  26.005  35.369   0.726
76303W        W48728   3.735  41.538  11.505
76304W        W48729  22.146   0.355   1.249
76305W        W48730  44.910  29.558  14.931
76306W        W48731  41.894  22.698   4.771
76307W        W48732  29.506  11.332  11.572
76308W        W48733   9.226  33.957   3.871
76309W        W48734  29.473   2.358  14.454
76310W        W48735  33.599  30.501   2.786
76311W        W48736   1.938  17.572  12.468
76312W        W48737   1.734  14.767  12.463
76313W        W48738   1.468  13.163  12.462
76314W        W48739  14.676  10.731  10.984
76315W        W48740  17.627  35.005  12.483
76316W        W48741  44.935  34.431   0.464
76317W        W48742  35.489  32.982   2.771
76318W        W48743  20.601  38.046   2.888
76319W        W48744  15.651  15.817   2.894
76320W        W48745  39.868   0.898   1.726
76321W        W48746  10.670  25.608   3.830
76322W        W48747  39.496  29.496  10.899
76323W        W48748  26.990   2.360   3.667
76324W        W48749  29.937  43.898   4.692
76325W        W48750   5.903  24.695  14.477
76326W        W48751  20.646  37.521   1.438
76327W        W48752  31.533   8.871   1.788
76328W        W48753  10.691   9.713   1.261
76329W        W48754  36.535  24.710  14.295
76330W        W48755  12.349  27.661  13.818
76331W        W48756  27.493  33.093  11.877
76332W        W48757  31.495   2.785  14.447
76333W        W48758  25.623  24.992   3.317
76334W        W48759  24.974   9.792  13.976
76335W        W48760  42.392  21.718  10.462
76336W        W48761  10.322  11.224  13.987
76337W        W48762  14.173  13.265  13.008
76338W        W48763  29.646  41.821  14.834
76339W        W48764  15.665  33.606  11.547
76340W        W48765   9.324  33.393  10.540
76341W        W48766  29.501  14.630   1.841
76342W        W48767  37.439  13.611   0.344
76343W        W48768   9.159  38.510   1.257
76344W        W48769  10.692  25.587  12.976
76345W        W48770  20.728  32.011  14.393
76346W        W48771   9.747  44.371   2.246
76347W        W48772  29.105   1.335   0.286
76348W        W48773  30.586   7.220   1.385
76349W        W48774  29.072  31.556  14.315
76350W        W48775   1.875  41.418  12.001
76351W        W48776   1.869   2.397  13.521
76352W        W48777  28.007  33.893  11.508
76353W        W48778  13.632  27.662  15.000
76354W        W48779  23.991  15.122  14.032
76355W        W48780  35.525  12.147   3.149
76356W        W48781   6.350   4.782   1.318
76357W        W48782  42.481  25.665   3.665
76358W        W48783  26.990  20.180  12.828
76359W        W48784  44.908   0.954  10.507
76360W        W48785  22.585   5.212  12.382
76361W        W48786  20.233  18.112   2.792
76362W        W48787  42.934  26.620   1.405
76363W        W48788  16.785  21.571   0.307
76364W        W48789  32.403  11.262   0.740
76365W        W48790  26.538  14.696   3.717
76366W        W48791  36.082  16.595  11.408
76367W        W48792  35.455  21.658   2.860
76368W        W48793  29.078   5.203   0.821
76369W        W48794  29.524  20.693   3.284
76370W        W48795  40.878  41.917   3.724
76371W        W48796  17.189  24.659  10.564
76372W        W48797   1.883  17.613   0.855
76373W        W48798  35.946  37.536  10.965
76374W        W48799  38.347  35.491  13.313
76375W        W48800  18.134  27.158  11.462
76376W        W48801  24.655  44.443  13.346
76377W        W48802  42.510  37.375   2.772
76378W        W48803   2.377  44.401  13.361
76379W        W48804  43.938  41.527  12.409
76380W        W48805  42.422  14.755  13.870
76381W        W48806  25.498   7.172   3.837
76382W        W48807  26.535  37.487  10.590
76383W        W48808   9.232  12.733   3.194
76384W        W48809  40.936   7.347  14.984
76385W        W48810   4.392  35.962  12.969
76386W        W48811  17.147   8.375  13.526
76387W        W48812  30.140  25.120   4.779
76388W        W48813  26.076  14.281  13.019
76389W        W48814   4.378   0.826  13.810
76390W        W48815  39.454  23.229   2.413
76391W        W48816   3.222  14.237  10.929
76392W        W48817  19.585   8.737  11.533
76393W        W48818   7.714   9.296   2.285
76394W        W48819  19.255   3.759   1.289
76395W        W48820  20.577  15.652  12.002
76396W        W48821  22.211  17.182   0.822
76397W        W48822   8.749  40.049   9.999
76398W        W48823   1.916  31.534  11.431
76399W        W48824  26.105  15.747  13.894
76400W        W48825  15.668  14.124  10.514
76401W        W48826   7.176  44.437  14.791
76402W        W48827  14.674  31.036  11.988
76403W        W48828  39.465  24.215   0.958
76404W        W48829  27.568  12.304  13.053
76405W        W48830  15.822  12.643   0.742
76406W        W48831  32.455  17.302  14.924
76407W        W48832  19.598  44.337   1.792
76408W        W48833  31.114  12.231   2.809
76409W        W48834   4.800  12.176   1.870
76410W        W48835  34.502  44.825   1.441
76411W        W48836  29.586  15.723   3.734
76412W        W48837  40.504  43.319   4.632
76413W        W48838  10.720  35.448   1.759
76414W        W48839   6.909  27.581   0.428
76415W        W48840  34.058   1.237   1.723
76416W        W48841  40.798   3.743   0.896
76417W        W48842   3.393  38.351  11.482
76418W        W48843  27.655  20.256   2.871
76419W        W48844   1.414  41.908   3.209
76420W        W48845  37.422  24.580  12.083
76421W        W48846  31.073  11.812  10.473
76422W        W48847  33.934   8.814  12.947
76423W        W48848  11.222  12.333  12.862
76424W        W48849  18.128  26.086  10.590
76425W        W48850  15.618  31.546  14.277
76426W        W48851   0.413  10.184   1.364
76427W        W48852  42.855  11.275  13.828
76428W        W48853  32.562  39.542  13.373
76429W        W48854  39.344  14.177   2.780
76430W        W48855   9.697  41.023   3.773
76431W        W48856  24.986  20.139   1.262
76432W        W48857  27.481  44.353  10.072
76433W        W48858  17.287  37.450  14.940
76434W        W48859   0.345  10.765  13.970
76435W        W48860  44.974  44.286  11.057
76436W        W48861  31.478  18.230  11.940
76437W        W48862  23.082  24.221  12.848
76438W        W48863   6.744  38.854   3.225
76439W        W48864   9.790  41.922   0.327
76440W        W48865   8.731  25.582  14.492
76441W        W48866  28.660  30.605   1.367
76442W        W48867  16.621  42.854   1.323
76443W        W48868  19.535  11.128  14.485
76444W        W48869  15.677  33.942  12.458
76445W        W48870   4.884  18.262   4.291
76446W        W48871  12.351   8.853   2.756
76447W        W48872   3.853  18.274   0.298
76448W        W48873  19.125  37.457  14.960
76449W        W48874  14.795  10.819  12.973
76450W        W48875  17.092   9.691  10.110
76451W        W48876  18.760  28.665   0.834
76452W        W48877  34.002  40.376   2.318
76453W        W48878  31.991  23.558  12.345
76454W        W48879  22.510  27.575  11.484
76455W        W48880  11.154   7.752   4.744
76456W        W48881   8.723  18.088  11.886
76457W        W48882   5.839  29.458   0.756
76458W        W48883  19.651   3.932  13.476
76459W        W48884  34.909   2.237   0.248
76460W        W48885  29.155   7.324  12.381
76461W        W48886  16.132   9.652   2.781
76462W        W48887  27.455  32.407  10.507
76463W        W48888  27.090   1.293   1.242
76464W        W48889  10.808  18.196   0.440
76465W        W48890   3.348  38.427  13.380
76466W        W48891  23.069  42.452  12.833
76467W        W48892  42.526  32.460  12.073
76468W        W48893  20.718  44.349  14.311
76469W        W48894  38.892  43.778  12.913
76470W        W48895   4.782  34.972   0.243
76471W        W48896  12.692  20.589  10.946
76472W        W48897  34.964   4.870  11.903
76473W        W48898  20.635   6.738   1.809
76474W        W48899  12.819   9.252  13.891
76475W        W48900   1.785   7.905  11.551
76476W        W48901  28.488   2.800   4.804
76477W        W48902  34.524  37.425   2.682
76478W        W48903  24.524  38.408   1.317
76479W        W48904  33.095  23.220  13.968
76480W        W48905  38.541   1.841  13.860
76481W        W48906  35.084  34.939  11.903
76482W        W48907  41.421  24.511   4.180
76483W        W48908  24.705  33.956   1.279
76484W        W48909  25.157  16.271  11.574
76485W        W48910   7.408  20.702   3.215
76486W        W48911  40.843   0.890  13.935
76487W        W48912   8.407  40.952  11.075
76488W        W48913  28.153  11.642  10.895
76489W        W48914   4.392  22.647   0.726
76490W        W48915   7.732  18.627   1.403
76491W        W48916  35.903  39.316   1.759
76492W        W48917  14.677  28.550   2.369
76493W        W48918   2.772  14.810  11.114
76494W        W48919  37.417  22.252  12.919
76495W        W48920  36.368  25.176  12.467
76496W        W48921  10.780  10.788   4.646
76497W        W48922  13.294  41.538   0.826
76498W        W48923  44.839  27.032  13.335
76499W        W48924   3.341  17.663   2.841
76500W        W48925  15.781  32.565   1.896
76501W        W48926  25.696  34.512  12.566
76502W        W48927  10.794  10.161  10.975
76503W        W48928  30.082  14.218   2.314
76504W        W48929  29.131  10.177  10.960
76505W        W48930  21.617  42.494  10.628
76506W        W48931  38.041  43.279   4.314
76507W        W48932  10.148   8.753   4.118
76508W        W48933  11.799  30.111  14.389
76509W        W48934  31.612  27.563   0.770
76510W        W48935  28.158  26.010   0.836
76511W        W48936  22.077  40.812  14.812
76512W        W48937  12.611  26.673   2.754
76513W        W48938  30.460  29.132   3.324
76514W        W48939  40.482   2.308   2.842
76515W        W48940  16.297  14.764  10.620
76516W        W48941  14.105   7.369  13.488
76517W        W48942  40.474   0.982   2.280
76518W        W48943  37.972  29.065   3.181
76519W        W48944  15.113  38.498  12.372
76520W        W48945  12.839   0.313   1.331
76521W        W48946  23.210  33.446  11.870
76522W        W48947  18.145  38.444   2.852
76523W        W48948  17.263   7.781  10.518
76524W        W48949  14.159   4.708   3.336
76525W        W48950  23.114  14.116  14.948
76526W        W48951  13.750   0.348   0.878
76527W        W48952  43.511  20.529   4.239
76528W        W48953  27.153  41.017  13.359
76529W        W48954  31.134  16.184   1.748
76530W        W48955   4.208  28.034  14.766
76531W        W48956  22.556  39.416  13.016
76532W        W48957   1.893  25.551   0.889
76533W        W48958  28.671  21.154   0.310
76534W        W48959  25.006  20.596   1.785
76535W        W48960  41.418  10.709   4.701
76536W        W48961  36.992  31.627  14.453
76537W        W48962   4.878  22.563  13.029
76538W        W48963  29.603  30.436   1.437
76539W        W48964  17.608  30.570  14.785
76540W        W48965  40.842   3.723  14.502
76541W        W48966  28.053  22.084   2.802
76542W        W48967  23.095   8.170  11.887
76543W        W48968  14.147  16.091   1.823
76544W        W48969  35.985  28.559   3.730
76545W        W48970  20.194  20.534  10.894
76546W        W48971  34.556  26.032  11.514
76547W        W48972  44.784  44.464  10.494
76548W        W48973  13.611  16.172  13.860
76549W        W48974  19.562  24.187   1.262
76550W        W48975  42.988  33.395   3.220
76551W        W48976  15.688  27.524  11.399
76552W        W48977  37.002  32.929   2.357
76553W        W48978  27.106  25.138   0.257
76554W        W48979  32.593  30.452   4.119
76555W        W48980  34.426   4.749  13.535
76556W        W48981   9.278   0.886   2.275
76557W        W48982  15.328  35.076  11.428
76558W        W48983  40.511  14.143   4.833
76559W        W48984  41.804  20.234  12.051
76560W        W48985  32.486  43.950  13.006
76561W        W48986  28.484  37.345  10.546
76562W        W48987  10.139  39.374   3.246
76563W        W48988   4.757  40.940  14.489
76564W        W48989  28.148  29.155   1.313
76565W        W48990   6.428  29.089  14.958
76566W        W48991   3.400  24.163   1.853
76567W        W48992  10.868  18.583   3.727
76568W        W48993  14.138  34.533   3.851
76569W        W48994  37.364   6.709  14.449
76570W        W48995  17.770   1.915   0.348
76571W        W48996   0.980  21.520  13.831
76572W        W48997  17.640   5.400  14.828
76573W        W48998  15.604  43.413  13.546
76574W        W48999  34.556   1.849   2.245
76575W        W49000   0.922  10.292  11.120
76576W        W49001  27.505   1.786  13.003
76577W        W49002  22.145  11.699  14.463
76578W        W49003  32.488  41.844  10.536
76579W        W49004  19.227  38.053   4.166
76580W        W49005  30.487   0.408   3.678
76581W        W49006   1.290  19.586   0.439
76582W        W49007  29.437  19.229  14.323
76583W        W49008  32.537  37.448  13.998
76584W        W49009  42.903  37.493  11.087
76585W        W49010  38.393  11.216  14.386
76586W        W49011  39.975  21.207   4.197
76587W        W49012  28.490  32.124   3.379
76588W        W49013  27.639  11.691  12.495
76589W        W49014   2.893   9.393  11.389
76590W        W49015  22.175  23.149  14.429
76591W        W49016  20.028  13.277  11.560
76592W        W49017  11.202  16.738  13.937
76593W        W49018  18.105  18.715  13.520
76594W        W49019  14.145  40.455  14.275
76595W        W49020   6.791  21.260   0.402
76596W        W49021  40.885  13.127  12.391
76597W        W49022  26.618   2.871  10.604
76598W        W49023  37.554  37.403  11.998
76599W        W49024   4.903  36.072  11.888
76600W        W49025  22.678   7.878   3.256
76601W        W49026  21.571   4.928  14.987
76602W        W49027  15.291  13.238   3.269
76603W        W49028  25.195   7.252   4.731
76604W        W49029  16.793  16.709  12.880
76605W        W49030  10.812  10.680  12.028
76606W        W49031  36.018   7.277  14.390
76607W        W49032  15.782   2.326   2.830
76608W        W49033   4.315   0.455   1.315
76609W        W49034  36.869   9.209  10.154
76610W        W49035   2.752   6.897  12.431
76611W        W49036  31.911   2.345   1.874
76612W        W49037  16.643  13.140   3.635
76613W        W49038  43.804  31.570  11.509
76614W        W49039   8.834   9.304  14.486
76615W        W49040   9.205  30.948   4.679
76616W        W49041  36.402  25.032  11.466
76617W        W49042  39.942  18.144   3.813
76618W        W49043  39.357  38.881   1.234
76619W        W49044  31.509  32.005  11.989
76620W        W49045  43.330   8.379   1.289
76621W        W49046  39.861  22.746   2.256
76622W        W49047  14.823  37.535   1.834
76623W        W49048  33.610  39.968  13.325
76624W        W49049  29.999  44.392  11.028
76625W        W49050  23.490  37.362   5.109
76626W        W49051  38.424  17.785   2.330
76627W        W49052  20.568  31.524  12.522
76628W        W49053  26.656   1.868  10.431
76629W        W49054  37.383  43.486   3.269
76630W        W49055  39.375  39.351   3.216
76631W        W49056  14.161  26.081  14.008
76632W        W49057  13.612  10.261   1.316
76633W        W49058  30.979  20.049   0.453
76634W        W49059  27.588  10.740  10.942
76635W        W49060  42.485  26.148  13.385
76636W        W49061  10.778  31.567  11.390
76637W        W49062  12.234   5.201   3.862
76638W        W49063  31.999  21.718  14.912
76639W        W49064  29.139  37.007   1.824
76640W        W49065  30.605   4.917   4.328
76641W        W49066  37.377  43.460   1.379
76642W        W49067   8.800  34.077   1.709
76643W        W49068   8.730  42.419   4.346
76644W        W49069  25.118  16.304   2.882
76645W        W49070  19.052  38.470  12.966
76646W        W49071  28.090  10.363  13.959
76647W        W49072   6.718   8.693   0.868
76648W        W49073  19.593   1.288   0.299
76649W        W49074  29.528   9.827   2.682
76650W        W49075  26.575  22.743  13.365
76651W        W49076  14.613  42.980   3.281
76652W        W49077   4.210  12.231  13.386
76653W        W49078  41.972  13.143   4.722
76654W        W49079  26.508  24.692   2.243
76655W        W49080  26.624   8.386  12.962
76656W        W49081   6.229  14.122   4.633
76657W        W49082  27.019   1.783  14.886
76658W        W49083  26.691   4.442  12.907
76659W        W49084  11.128   5.696  14.859
76660W        W49085  11.267  36.005   1.825
76661W        W49086  43.986  15.641  14.793
76662W        W49087  22.168   4.780   1.764
76663W        W49088  33.428  11.205  11.587
76664W        W49089  42.781  12.257  14.880
76665W        W49090   9.360  43.980  14.390
76666W        W49091  19.554  24.625   2.856
76667W        W49092  44.459  14.269  13.827
76668W        W49093  35.985  30.486  14.988
76669W        W49094  18.566  33.423   3.188
76670W        W49095   7.831  23.225   1.375
76671W        W49096  17.065  29.170  14.479
76672W        W49097  17.683  31.402   0.431
76673W        W49098  19.074  25.210   2.286
76674W        W49099  16.238  38.371   3.758
76675W        W49100  14.230  27.478  11.063
76676W        W49101  12.785  34.442   1.765
76677W        W49102  31.908   6.822   0.327
76678W        W49103  28.941  26.466   1.346
76679W        W49104  41.820  31.103   0.443
76680W        W49105  33.980  13.627   4.269
76681W        W49106  30.571   1.275   3.717
76682W        W49107  39.414  36.997  13.401
76683W        W49108   3.379   7.359   4.293
76684W        W49109   8.169  17.713   1.929
76685W        W49110   8.303  28.572   1.346
76686W        W49111  34.020   7.303  12.399
76687W        W49112  30.613  21.669  12.035
76688W        W49113  34.032   1.965  14.477
76689W        W49114   6.394  30.604  13.491
76690W        W49115  13.130  41.025   2.855
76691W        W49116  35.860  41.840  11.876
76692W        W49117  21.156  35.397   1.706
76693W        W49118   5.920  20.671  14.904
76694W        W49119  16.602  10.814  11.572
76695W        W49120  38.994  14.323  13.473
76696W        W49121  30.117  43.905  13.021
76697W        W49122  35.458  18.594   3.727
76698W        W49123  43.475  43.014  13.341
76699W        W49124  14.605   5.746   4.708
76700W        W49125  21.060  30.556   1.903
76701W        W49126  19.107   3.883   4.352
76702W        W49127   2.295  22.650   2.258
76703W        W49128  12.247   8.691   3.277
76704W        W49129   3.458  29.617   4.677
76705W        W49130  40.905  33.582   3.746
76706W        W49131  30.525  15.586  13.329
76707W        W49132  26.689  43.819  10.976
76708W        W49133  23.522  10.718  11.937
76709W        W49134  27.457  20.690   4.196
76710W        W49135  42.327  28.558   1.849
76711W        W49136  27.018  10.325  14.383
76712W        W49137  13.328  34.008  14.460
76713W        W49138  28.503  32.129  14.290
76714W        W49139   6.870  17.197   2.297
76715W        W49140  18.734  18.050  10.043
76716W        W49141  42.520  32.997   4.837
76717W        W49142   5.868  32.995   2.806
76718W        W49143   9.679  44.878  13.526
76719W        W49144  23.205  33.911   2.203
76720W        W49145  33.880  18.224   0.919
76721W        W49146  16.574   0.858  13.461
76722W        W49147  41.014  40.347   3.278
76723W        W49148  35.971  26.185   1.389
76724W        W49149  12.202  33.986  12.979
76725W        W49150   4.793  40.048   2.279
76726W        W49151  41.846  21.237  11.599
76727W        W49152  42.803  44.944  10.470
76728W        W49153   4.208   7.848  12.054
76729W        W49154   7.342  10.354   0.363
76730W        W49155  22.618   0.760   1.823
76731W        W49156   9.325  23.734   3.170
76732W        W49157  36.975  40.997  10.542
76733W        W49158  39.936  44.806  12.545
76734W        W49159  41.919   7.260  14.843
76735W        W49160  25.218  15.710   1.306
76736W        W49161   7.222  19.601   2.712
76737W        W49162  20.103  38.519  12.442
76738W        W49163  25.480  33.599  10.598
76739W        W49164   5.716  37.980   2.857
76740W        W49165  43.864  43.381   0.281
76741W        W49166  27.075  28.008   0.457
76742W        W49167  15.644  28.185  13.411
76743W        W49168  22.179  26.532  13.332
76744W        W49169  13.127  34.433   5.315
76745W        W49170  43.878  21.130   4.697
76746W        W49171   0.278   0.283  12.919
76747W        W49172  29.168   1.453  14.984
76748W        W49173  31.932  18.776  14.025
76749W        W49174  25.165  39.818   1.738
76750W        W49175   5.219   8.673   3.714
76751W        W49176  27.483   7.195  13.444
76752W        W49177  20.148  36.892   3.252
76753W        W49178  35.604  33.395  13.049
76754W        W49179  43.341  36.853   1.910
76755W        W49180  27.155  26.173  12.447
76756W        W49181  22.708   7.360  11.016
76757W        W49182   9.261  14.755  12.352
76758W        W49183  30.513   8.747  11.584
76759W        W49184  12.163  44.397   3.160
76760W        W49185  14.777  40.518   5.140
76761W        W49186  30.972   2.323   3.860
76762W        W49187  36.380  17.230   3.869
76763W        W49188  44.890   7.862   2.190
76764W        W49189  41.375  10.323   3.336
76765W        W49190  26.207  41.028  10.568
76766W        W49191   5.798  11.286   1.442
76767W        W49192  24.620  13.202  11.449
76768W        W49193  44.878  24.981   2.901
76769W        W49194  33.116  30.014   0.299
76770W        W49195  35.534  36.006  11.069
76771W        W49196  32.486  27.130  11.054
76772W        W49197  23.055  15.282   4.676
76773W        W49198  28.547  21.117   1.710
76774W        W49199  43.324  31.575  11.943
76775W        W49200  27.986  11.703  14.277
76776W        W49201  36.028  12.127  12.470
76777W        W49202   6.867   7.245  12.510
76778W        W49203   3.289  15.124  11.936
76779W        W49204  41.508  22.585   3.863
76780W        W49205  24.059  44.944  10.913
76781W        W49206   1.347   3.289  14.900
76782W        W49207  38.891  36.874  13.495
76783W        W49208  29.029  10.720   1.359
76784W        W49209  35.873  44.813  10.468
76785W        W49210  26.552  28.609  12.518
76786W        W49211  27.561   1.822  10.589
76787W        W49212   9.863  24.623   3.733
76788W        W49213  18.241  38.462   2.237
76789W        W49214  34.477   2.737  13.548
76790W        W49215   4.891  37.493  13.888
76791W        W49216  30.966   1.403  14.358
76792W        W49217  37.830  26.156   0.904
76793W        W49218  31.104  37.492   3.762
76794W        W49219  22.200   4.349  12.355
76795W        W49220  10.864  42.509   3.682
76796W        W49221  38.529  10.357  12.340
76797W        W49222  32.444  36.014  11.948
76798W        W49223   2.926  40.935   3.833
76799W        W49224  38.051  24.037   3.758
76800W        W49225   6.866  40.544  10.570
76801W        W49226  39.346  38.048   1.908
76802W        W49227   5.873   6.773   3.184
76803W        W49228   6.732  32.936  11.898
76804W        W49229  40.431  42.007  10.490
76805W        W49230   3.231  31.025   4.215
76806W        W49231  41.877  43.469  10.951
76807W        W49232  38.507  29.931  11.465
76808W        W49233  15.732  42.513   1.334
76809W        W49234  37.835  22.244  11.122
76810W        W49235   8.900  30.482  10.588
76811W        W49236  24.678  26.555  11.390
76812W        W49237   0.759  26.699   3.367
76813W        W49238  11.694  15.130  11.452
76814W        W49239   7.733  15.307  10.418
76815W        W49240   4.808   9.219   2.761
76816W        W49241  32.597   4.350   2.222
76817W        W49242  36.087   0.951  13.501
76818W        W49243  23.524  20.611  10.919
76819W        W49244  32.904   6.727   4.645
76820W        W49245  44.314  38.497   1.298
76821W        W49246  21.260  20.110   4.625
76822W        W49247  31.477   4.877  12.363
76823W        W49248  16.148  25.132   0.854
76824W        W49249   9.212  39.533   0.857
76825W        W49250  29.669   1.250  12.911
76826W        W49251  28.558  17.712   0.470
76827W        W49252  10.675  31.553   0.893
76828W        W49253  37.494  14.304  14.768
76829W        W49254  24.204  30.469   4.605
76830W        W49255  12.614   8.887   0.361
76831W        W49256  14.121   2.326  13.037
76832W        W49257   7.859   5.373  10.504
76833W        W49258  21.735  30.137   0.893
76834W        W49259  14.795  27.091   2.371
76835W        W49260  30.932  10.854   1.755
76836W        W49261  15.730  36.921  11.574
76837W        W49262  41.375   8.782  12.514
76838W        W49263  33.884  43.273   1.324
76839W        W49264   0.790  33.008   1.211
76840W        W49265  20.137  26.699   1.426
76841W        W49266  26.025   3.796   3.349
76842W        W49267   7.297   9.643   2.774
76843W        W49268  20.043  11.216  12.938
76844W        W49269   7.706  29.099  10.450
76845W        W49270   4.864  24.685  13.958
76846W        W49271   0.342  23.665  12.010
76847W        W49272  21.726  18.702  13.811
76848W        W49273   1.796  26.171   4.755
76849W        W49274  36.845  30.084   3.368
76850W        W49275   8.168  12.270   3.639
76851W        W49276  21.666  29.008  14.809
76852W        W49277  30.917  14.094  11.472
76853W        W49278  35.001   6.858   0.898
76854W        W49279  22.543   5.923   3.222
76855W        W49280  37.397  28.627  13.397
76856W        W49281  42.494  22.200   1.807
76857W        W49282  31.417  25.026  14.855
76858W        W49283  30.160  39.350  10.444
76859W        W49284  21.020  25.150   1.792
76860W        W49285  38.461  40.799   4.693
76861W        W49286   6.723  26.958  12.069
76862W        W49287  40.876  27.472  10.558
76863W        W49288  41.313  38.356   4.815
76864W        W49289  24.643  38.060   2.418
76865W        W49290  34.005  30.444  11.012
76866W        W49291   7.178  23.550   4.680
76867W        W49292  21.252   1.880  10.908
76868W        W49293  23.077  13.798   4.281
76869W        W49294  44.462  34.470   2.784
76870W        W49295   2.776  30.144  12.049
76871W        W49296   2.807  26.205   3.301
76872W        W49297  23.700  35.099  12.957
76873W        W49298   1.895  35.015  11.891
76874W        W49299  12.686  36.926   1.830
76875W        W49300  14.165  21.675  10.418
76876W        W49301  33.969  43.395  12.523
76877W        W49302  14.718  36.453  13.042
76878W        W49303  14.152  31.961  13.811
76879W        W49304  35.536  34.426   3.778
76880W        W49305  11.263  17.657  14.484
76881W        W49306  37.503  21.080   1.896
76882W        W49307  33.988  40.343   4.154
76883W        W49308  24.587  26.520   4.212
76884W        W49309  44.807   5.743   1.923
76885W        W49310  28.017  26.141   0.281
76886W        W49311  11.845   5.202  13.018
76887W        W49312  32.019   3.361  14.015
76888W        W49313  10.772   0.752   2.385
76889W        W49314  40.517  10.808  14.769
76890W        W49315  36.393  15.133  11.095
76891W        W49316  42.403  40.917   4.230
76892W        W49317   3.260  21.738  13.005
76893W        W49318  14.328  28.046   0.849
76894W        W49319  22.545  11.176   1.262
76895W        W49320   0.346  30.039   4.766
76896W        W49321  44.360  13.329  13.859
76897W        W49322  10.695  23.133  12.083
76898W        W49323  36.435  34.523  13.860
76899W        W49324  18.244  12.261   1.904
76900W        W49325  14.099   3.789  11.105
76901W        W49326   7.752  10.186   4.251
76902W        W49327  14.302  20.545  11.877
76903W        W49328  15.723  19.080   0.458
76904W        W49329  40.331   5.246  11.520
76905W        W49330  25.558  21.045  10.534
76906W        W49331  40.423  10.312   0.928
76907W        W49332   6.231  13.706  14.408
76908W        W49333  16.150  20.566  13.446
76909W        W49334  11.685   5.429   0.960
76910W        W49335  29.481  35.454  10.487
76911W        W49336  38.056  11.359  14.888
76912W        W49337  40.430   0.746   4.135
76913W        W49338  25.039  29.985   1.773
76914W        W49339  44.937  35.381  12.921
76915W        W49340   0.986  38.557   3.632
76916W        W49341   6.327   7.874   3.841
76917W        W49342   8.296   0.258  13.442
76918W        W49343  30.599   2.396  12.373
76919W        W49344  29.450  23.125   1.448
76920W        W49345   3.268  44.761  13.058
76921W        W49346  21.174  13.629   1.723
76922W        W49347  40.038  10.234   0.406
76923W        W49348   4.906  24.150  12.065
76924W        W49349  43.398  19.203   2.734
76925W        W49350   3.344   1.348  13.374
76926W        W49351   6.911  33.382  13.453
76927W        W49352  19.254  17.128  12.994
76928W        W49353  23.600  43.307  11.083
76929W        W49354   5.353  27.491  10.991
76930W        W49355   8.239   8.665  14.429
76931W        W49356   9.679  14.746  11.549
76932W        W49357  31.072  30.008  13.352
76933W        W49358  42.965  41.030  11.489
76934W        W49359   5.907  41.035   1.765
76935W        W49360   6.403  10.785  13.436
76936W        W49361  43.328  25.007  13.945
76937W        W49362  14.215  39.902   2.224
76938W        W49363   8.665  14.273   4.237
76939W        W49364  38.945   9.262  11.491
76940W        W49365  38.010   4.292  11.398
76941W        W49366  41.977  13.616  13.485
76942W        W49367  37.578  30.487  12.995
76943W        W49368  38.041  20.223   0.260
76944W        W49369  30.151  31.453   3.288
76945W        W49370  31.942  39.539  14.982
76946W        W49371  35.554  29.493   2.390
76947W        W49372  33.079  31.914   1.325
76948W        W49373  40.882   6.248  11.116
76949W        W49374  44.375  24.995   1.780
76950W        W49375  32.125  43.488  10.453
76951W        W49376  34.959   9.645  10.421
76952W        W49377  22.229  41.532  13.967
76953W        W49378  42.852  41.982   1.228
76954W        W49379  22.743  20.700   0.477
76955W        W49380  24.002   9.275  11.502
76956W        W49381  32.014  36.043   4.323
76957W        W49382   3.834  12.260   3.354
76958W        W49383  27.944  28.154  10.626
76959W        W49384  30.033  21.225  13.796
76960W        W49385  17.706   5.285   0.967
76961W        W49386  18.271  37.460   4.811
76962W        W49387   4.707  44.305   0.851
76963W        W49388  13.181  31.136  13.816
76964W        W49389  27.585  38.511   3.854
76965W        W49390  44.833   8.321  13.045
76966W        W49391   8.740  37.426  14.497
76967W        W49392  29.523   1.308  13.496
76968W        W49393  30.420  24.090  12.395
76969W        W49394  35.901  28.488   1.340
76970W        W49395  28.667  23.112   0.784
76971W        W49396  21.064   5.779  12.842
76972W        W49397  32.438  34.579  11.962
76973W        W49398  43.386   2.911   2.271
76974W        W49399   7.306  32.530  12.561
76975W        W49400   8.891   0.375  12.538
76976W        W49401  37.511  10.797  11.037
76977W        W49402   4.839  13.148   2.842
76978W        W49403  33.132  12.235  11.027
76979W        W49404  33.485  34.980   1.341
76980W        W49405   6.366  13.346   3.701
76981W        W49406  40.538   0.268   1.724
76982W        W49407  40.311  22.675  13.803
76983W        W49408  41.833   2.946  14.280
76984W        W49409   6.787  20.594  13.984
76985W        W49410   0.481   8.708   1.241
76986W        W49411   8.326  40.944  13.316
76987W        W49412  29.159   9.340   3.263
76988W        W49413  39.318   5.226  12.881
76989W        W49414  18.058  26.139  14.956
76990W        W49415  29.096  37.064  10.626
76991W        W49416  39.938   6.413  12.975
76992W        W49417  40.535  43.895  14.432
76993W        W49418  41.865   5.883   2.185
76994W        W49419  17.755  16.677  13.934
76995W        W49420  16.243  20.041   1.242
76996W        W49421  25.068   3.823  10.591
76997W        W49422   6.789  23.133  11.543
76998W        W49423  28.455   4.259  11.042
76999W        W49424   9.245   1.360   0.404
77000W        W49425  22.225  23.497   1.308
77001W        W49426  36.455  44.483   3.273
77002W        W49427  10.758  40.854  13.993
77003W        W49428  29.117   4.215   2.832
77004W        W49429  12.174  21.667  14.443
77005W        W49430  38.068  12.610   4.144
77006W        W49431  26.159   2.403  11.482
77007W        W49432  26.030  25.057   3.173
77008W        W49433  36.993   9.205   1.793
77009W        W49434   6.362  23.165  12.036
77010W        W49435  17.161  27.613  13.057
77011W        W49436  23.167  34.529  13.029
77012W        W49437  24.641  27.013  12.871
77013W        W49438  11.662  41.876  11.439
77014W        W49439  18.572  24.595   0.747
77015W        W49440  25.181  43.008  12.452
77016W        W49441   2.254  24.545   0.845
77017W        W49442   3.370  11.329  13.045
77018W        W49443  23.241  19.726  11.404
77019W        W49444  43.871  43.945   2.747
77020W        W49445  33.918  40.394  14.500
77021W        W49446  13.643  37.486  13.948
77022W        W49447   4.940  40.035   3.243
77023W        W49448  41.506  31.407   4.222
77024W        W49449  44.876  13.662   4.236
77025W        W49450  12.811  44.443   3.365
77026W        W49451  11.301  34.528  13.491
77027W        W49452  43.454  12.823   3.858
77028W        W49453  44.300   1.388   2.357
77029W        W49454  37.362  20.644  13.006
77030W        W49455  42.886  44.374  13.842
77031W        W49456  33.945  27.948  11.375
77032W        W49457  21.045   3.279   2.181
77033W        W49458  40.307  26.521   4.701
77034W        W49459  40.498   9.368   2.415
77035W        W49460  13.655  21.743   3.189
77036W        W49461   4.226  25.091   1.352
77037W        W49462  38.838  31.003   1.758
77038W        W49463  42.523  10.143   3.808
77039W        W49464  34.004  22.006   4.273
77040W        W49465  26.989  10.330   3.199
77041W        W49466  32.029  36.997   2.266
77042W        W49467  17.642  23.536  11.968
77043W        W49468  35.930  10.838   2.870
77044W        W49469  10.741   8.219   3.228
77045W        W49470  15.094  11.624  11.948
77046W        W49471  32.412  20.172   2.282
77047W        W49472  34.982   0.767   2.185
77048W        W49473  37.495  38.363  14.839
77049W        W49474  28.039  13.239  11.548
77050W        W49475  10.278  15.697   3.821
77051W        W49476  21.661   9.670  14.416
77052W        W49477  31.130  11.733  13.012
77053W        W49478  10.212   2.406   3.167
77054W        W49479   3.777  15.651   2.414
77055W        W49480  42.347  28.979   1.293
77056W        W49481  27.677  17.613   2.898
77057W        W49482  44.411  22.204   3.321
77058W        W49483  40.525   6.385   3.361
77059W        W49484  20.653  10.757   9.955
77060W        W49485   5.209  20.560  11.604
77061W        W49486  13.207   8.795  11.033
77062W        W49487  13.652   9.290  13.328
77063W        W49488   9.788  41.469   2.199
77064W        W49489   0.469   0.776   3.180
77065W        W49490  27.024  12.313  11.581
77066W        W49491   0.381  33.122   1.736
77067W        W49492  32.120  33.550  11.044
77068W        W49493  16.682   3.865  13.935
77069W        W49494   5.934  36.404  13.804
77070W        W49495  28.951  38.963  12.367
77071W        W49496  40.918  32.131  14.358
77072W        W49497  31.081  33.065   3.824
77073W        W49498   4.398  39.503  12.002
77074W        W49499   0.354  21.542  12.545
77075W        W49500  19.747   4.873  12.508
77076W        W49501  44.454  28.478   4.229
77077W        W49502  22.153   5.329  11.412
77078W        W49503  22.746  16.704  13.505
77079W        W49504   6.289  42.473   3.167
77080W        W49505  37.043   7.829  11.494
77081W        W49506   5.863  41.526  11.118
77082W        W49507  22.218   2.419  14.028
77083W        W49508  33.526   2.917   3.328
77084W        W49509   2.251  10.684  14.315
77085W        W49510  17.065  43.996   2.207
77086W        W49511  24.482   3.331  13.473
77087W        W49512  44.894  18.077   3.275
77088W        W49513   4.323  21.514  11.563
77089W        W49514  24.721  40.513   0.366
77090W        W49515  20.723  11.358  14.345
77091W        W49516   5.337   3.286   4.795
77092W        W49517  33.917   1.806  11.118
77093W        W49518   1.263   1.291  13.464
77094W        W49519  28.658  28.049  14.008
77095W        W49520   5.697   5.846  13.404
77096W        W49521  39.372  28.514   3.819
77097W        W49522  27.508  31.526   5.215
77098W        W49523  43.483  29.123   0.796
77099W        W49524   2.294  23.639   2.859
77100W        W49525  24.195  34.475   1.222
77101W        W49526  11.742  19.143   3.782
77102W        W49527  20.173  21.562  13.804
77103W        W49528  37.913   4.944   0.389
77104W        W49529  19.576   8.801  14.318
77105W        W49530   9.265  19.194   1.377
77106W        W49531  20.546   9.854   3.255
77107W        W49532   5.889  33.562   4.603
77108W        W49533  41.482  11.143  13.481
77109W        W49534  35.507   3.736   2.237
77110W        W49535  31.898   0.488  11.034
77111W        W49536  31.582  18.206  12.361
77112W        W49537  17.164  24.624  11.042
77113W        W49538  23.232   6.357  14.874
77114W        W49539  25.503  12.223   3.822
77115W        W49540   7.814  32.044  11.993
77116W        W49541  15.751  26.600  12.877
77117W        W49542  26.588  33.972  14.372
77118W        W49543  26.603  27.032  10.555
77119W        W49544  35.551  28.033   3.188
77120W        W49545   7.685   8.360  11.032
77121W        W49546  29.645  20.078   4.233
77122W        W49547  40.437  44.359  14.828
77123W        W49548  18.201  24.638  12.887
77124W        W49549  33.602  28.498   4.296
77125W        W49550   6.919   1.867   0.360
77126W        W49551  30.017  16.218   2.353
77127W        W49552  32.993   3.726   3.770
77128W        W49553  30.615   2.720   2.872
77129W        W49554  28.101   6.920  12.094
77130W        W49555   3.323  42.780   3.224
77131W        W49556  28.477  32.604  12.913
77132W        W49557  38.060  18.240   4.268
77133W        W49558  18.708  25.170   1.761
77134W        W49559  28.501   9.292   3.715
77135W        W49560  32.104  28.458  12.449
77136W        W49561  17.173  42.494  14.922
77137W        W49562  26.514  25.548  14.470
77138W        W49563  19.057  35.470   2.336
77139W        W49564  21.038   2.725   4.329
77140W        W49565  38.898  44.398   0.328
77141W        W49566   3.943  32.418   4.774
77142W        W49567  33.024   1.358  13.333
77143W        W49568  10.829  31.528   1.879
77144W        W49569  18.154  36.848   2.330
77145W        W49570  39.333   0.296   3.732
77146W        W49571   3.253  12.830  11.918
77147W        W49572  28.589  10.693  14.007
77148W        W49573  29.586   8.320   3.166
77149W        W49574  14.706   3.419   0.384
77150W        W49575   7.255  35.974   1.792
77151W        W49576  38.422  29.116  13.889
77152W        W49577   2.345  23.637  11.391
77153W        W49578  41.488  24.669  14.928
77154W        W49579  25.669   2.720   1.414
77155W        W49580   0.929  31.629  12.484
77156W        W49581   9.309   5.766   2.269
77157W        W49582  13.787  16.698   0.416
77158W        W49583  43.992  21.229   3.308
77159W        W49584  31.020  19.629   1.367
77160W        W49585  36.861  15.106  11.057
77161W        W49586  38.959  16.225  11.454
77162W        W49587  34.375  21.697   4.681
77163W        W49588  34.981  37.981  10.957
77164W        W49589   1.825  11.266   2.661
77165W        W49590  44.878  38.022   2.834
77166W        W49591  44.982   5.789  11.411
77167W        W49592  17.158  15.789  13.930
77168W        W49593   4.343   1.385  11.463
77169W        W49594  15.701  16.167   2.781
77170W        W49595  10.286   7.217  11.491
77171W        W49596   2.349   5.259   1.804
77172W        W49597  28.995  30.020   4.208
77173W        W49598   8.241  17.119   1.934
77174W        W49599  10.663   5.864   2.354
77175W        W49600  19.210  27.545  13.978
77176W        W49601  28.500  17.626   3.268
77177W        W49602   8.341  13.803  14.438
77178W        W49603  38.501  15.281   2.723
77179W        W49604   9.688  30.077  11.570
77180W        W49605  13.656  17.281  14.942
77181W        W49606  40.315  30.449  12.455
77182W        W49607  11.280  22.574  14.791
77183W        W49608   8.697  42.889  13.486
77184W        W49609  35.870  30.969  14.466
77185W        W49610  27.642  21.060  13.866
77186W        W49611  10.747  23.517   4.612
77187W        W49612  13.813  10.666  10.470
77188W        W49613  16.268  11.340  11.096
77189W        W49614   7.854  21.072   2.868
77190W        W49615   1.399  13.325   3.659
77191W        W49616  42.455  32.543  13.487
77192W        W49617   3.239  18.155   0.480
77193W        W49618  23.113  34.513   3.300
77194W        W49619  24.051  24.114  11.398
77195W        W49620  20.128   8.207  11.434
77196W        W49621  14.732  15.598   0.891
77197W        W49622  20.119  35.109   0.445
77198W        W49623  19.695   6.404   1.933
77199W        W49624   1.300   2.726   4.701
77200W        W49625   6.217  42.373   0.759
77201W        W49626   1.402  39.873  14.936
77202W        W49627  17.775   8.683   3.326
77203W        W49628  20.633   0.344  11.077
77204W        W49629  27.106  37.926  13.425
77205W        W49630  35.002  18.672   2.318
77206W        W49631  35.911  42.494  11.028
77207W        W49632  30.435  43.371  12.863
77208W        W49633   2.809  38.468   4.791
77209W        W49634  36.971  22.173  13.966
77210W        W49635  27.964  38.399  13.990
77211W        W49636   3.347  39.496   0.293
77212W        W49637  28.932  37.581  11.862
77213W        W49638  26.062   3.359   2.699
77214W        W49639  40.880  34.415  13.473
77215W        W49640  15.260  39.418  11.602
77216W        W49641  43.012  22.100   1.258
77217W        W49642  28.580  38.951   9.963
77218W        W49643  23.495  44.801   3.668
77219W        W49644  42.523   2.924   3.794
77220W        W49645  42.375  21.680  14.828
77221W        W49646  16.269  28.533   2.403
77222W        W49647  25.130   5.230   4.212
77223W        W49648  14.298  24.584  11.423
77224W        W49649  13.616  31.022   1.271
77225W        W49650  20.251  13.225  10.641
77226W        W49651  19.110  11.741   1.926
77227W        W49652  36.028  11.785   0.951
77228W        W49653  30.614  38.879   1.835
77229W        W49654  16.084  30.069  11.567
77230W        W49655   4.330  24.676  14.285
77231W        W49656   0.490  30.584  10.441
77232W        W49657  15.190   0.258  13.472
77233W        W49658   1.932  32.060   4.148
77234W        W49659  44.463  11.710  14.933
77235W        W49660  23.150   2.895  13.322
77236W        W49661  12.142  38.020  14.311
77237W        W49662  39.491  33.612   3.371
77238W        W49663  34.003  24.487   1.834
77239W        W49664  43.465  37.552  12.921
77240W        W49665  29.133  33.423  14.275
77241W        W49666   8.728  41.904  12.912
77242W        W49667  37.435  39.061   2.254
77243W        W49668  41.942   6.765   3.658
77244W        W49669   4.805  18.224  11.023
77245W        W49670  13.197  32.953  12.488
77246W        W49671  32.616  28.566  10.632
77247W        W49672  44.315  26.160   0.267
77248W        W49673  44.311   8.854   4.822
77249W        W49674  19.567  30.019   3.258
77250W        W49675  21.205  40.858   4.227
77251W        W49676  40.503  32.446   0.339
77252W        W49677  15.205  28.106  11.404
77253W        W49678  30.991  30.112  14.357
77254W        W49679  24.167  14.231   3.845
77255W        W49680  28.588  33.478   3.640
77256W        W49681  33.889  21.758   4.743
77257W        W49682  36.009  39.314   3.796
77258W        W49683   9.205  44.968  11.541
77259W        W49684  17.782  10.333  11.108
77260W        W49685   8.295  38.496  11.052
77261W        W49686   7.795  40.878   1.862
77262W        W49687  11.158  40.510   3.316
77263W        W49688  23.621  18.066  12.459
77264W        W49689  30.149   7.326  14.956
77265W        W49690  31.974  38.871   1.408
77266W        W49691   4.419  24.535  11.385
77267W        W49692  24.647  34.918  12.414
77268W        W49693  17.678  25.160   4.226
77269W        W49694   9.881  11.342  12.528
77270W        W49695  25.078  15.715  11.512
77271W        W49696  34.891  37.994  10.451
77272W        W49697   3.880  21.111   2.412
77273W        W49698  28.127  21.220  12.412
77274W        W49699  14.588  32.073  13.547
77275W        W49700   1.748  33.453  14.506
77276W        W49701  38.502  23.091  13.463
77277W        W49702  20.198   2.755   3.212
77278W        W49703  41.879  44.915  14.937
77279W        W49704  24.624  23.703   0.441
77280W        W49705   2.410  40.484  14.304
77281W        W49706  25.565   6.893  13.532
77282W        W49707  31.124  17.624   0.840
77283W        W49708  37.486  23.103   0.337
77284W        W49709  39.002  19.707   1.319
77285W        W49710  19.562  25.004  14.314
77286W        W49711  18.781  25.021   3.310
77287W        W49712   1.275  33.624   1.422
77288W        W49713  12.272   8.662   4.287
77289W        W49714  27.134  38.489   4.169
77290W        W49715  34.884  38.490   1.723
77291W        W49716  27.681  35.603  14.384
77292W        W49717  43.950  19.125   3.814
77293W        W49718  11.287  11.685  12.345
77294W        W49719  23.629   6.392   1.824
77295W        W49720   4.899  38.839   3.669
77296W        W49721  24.657  27.473  11.424
77297W        W49722   9.188  36.551  13.012
77298W        W49723  41.363  11.331   4.333
77299W        W49724  32.075  25.678   3.254
77300W        W49725  28.649  40.982  10.511
77301W        W49726  42.849   1.913  12.966
77302W        W49727  15.759  28.632  12.071
77303W        W49728  25.712  20.725   1.806
77304W        W49729  34.946  20.144  11.507
77305W        W49730  31.947   5.816  11.486
77306W        W49731   9.221  36.403   4.343
77307W        W49732  26.140  39.468   3.296
77308W        W49733   6.907  22.586   3.737
77309W        W49734  38.412  34.079  14.469
77310W        W49735   3.743  42.453   4.827
77311W        W49736  33.448  17.617   1.896
77312W        W49737  23.094   5.816  11.603
77313W        W49738  35.419  28.458  10.499
77314W        W49739  19.137  16.118  12.852
77315W        W49740   1.429  25.478   1.448
77316W        W49741  32.575  37.911   0.850
77317W        W49742  10.338  16.585  11.981
77318W        W49743   6.864  17.278   0.449
77319W        W49744  15.309  35.482   0.730
77320W        W49745  37.833   6.721   5.170
77321W        W49746  42.883   9.780   0.389
77322W        W49747  17.619  38.539   1.760
77323W        W49748  14.133   9.169  11.865
77324W        W49749  30.529  32.045  11.976
77325W        W49750  19.683  24.554  14.859
77326W        W49751   4.228   3.274   0.392
77327W        W49752   6.370  25.196   1.296
77328W        W49753   8.656  14.809   2.327
77329W        W49754  29.087  42.011  10.132
77330W        W49755  27.588  30.035  12.009
77331W        W49756  24.126  30.150   1.738
77332W        W49757  32.943  10.639   4.214
77333W        W49758   3.878  33.541  10.959
77334W        W49759   2.937  31.097   2.815
77335W        W49760  15.322  24.001  11.870
77336W        W49761   7.374   2.784   1.414
77337W        W49762  12.292   8.725  14.480
77338W        W49763  32.613  35.570  13.504
77339W        W49764  36.026  21.580  11.560
77340W        W49765  15.196  39.500   1.223
77341W        W49766  42.978  11.141  14.840
77342W        W49767   0.410  39.950   1.888
77343W        W49768  14.098  33.054   0.846
77344W        W49769  29.031   7.768   2.259
77345W        W49770   6.770  21.707   3.866
77346W        W49771  40.332  28.619   0.875
77347W        W49772  17.226  23.081   2.178
77348W        W49773  21.173  31.404   1.396
77349W        W49774  33.957  25.650  14.403
77350W        W49775  22.593  19.578  14.276
77351W        W49776   6.899  10.198   5.104
77352W        W49777  10.245  18.126  14.765
77353W        W49778  34.513  10.677   0.754
77354W        W49779  33.984  36.535   3.799
77355W        W49780   3.723   3.309  14.841
77356W        W49781   5.708  33.121   3.681
77357W        W49782  39.365  31.999   1.697
77358W        W49783  18.596  40.025   3.381
77359W        W49784  19.621  42.327  10.591
77360W        W49785  12.196   2.754  13.455
77361W        W49786  18.076   9.669   4.163
77362W        W49787  12.224  14.754   4.719
77363W        W49788  26.555  28.554  13.350
77364W        W49789   2.401  36.920   0.815
77365W        W49790  37.936  35.515  10.631
77366W        W49791  10.796  13.743   0.968
77367W        W49792  36.873  29.509   1.385
77368W        W49793  36.020   2.887  14.024
77369W        W49794   7.875   8.765  10.902
77370W        W49795  30.129   2.252  12.368
77371W        W49796  20.693  19.219  13.808
77372W        W49797  10.166  22.230  14.320
77373W        W49798  17.700   4.768  11.511
77374W        W49799  21.231  33.590   3.249
77375W        W49800  12.173  30.137   3.775
77376W        W49801  17.767  33.563  10.129
77377W        W49802  25.218  14.787  14.989
77378W        W49803  40.498  20.576   3.196
77379W        W49804  11.682  35.064   4.751
77380W        W49805  20.158  34.608   9.979
77381W        W49806  21.164  36.517  14.300
77382W        W49807   1.834  40.990   4.123
77383W        W49808   7.229  29.160  10.558
77384W        W49809  34.505  18.272   2.194
77385W        W49810  44.276  25.108  13.413
77386W        W49811   9.804  33.397  12.973
77387W        W49812  16.244   9.164  12.411
77388W        W49813  27.126  43.018  14.976
77389W        W49814   8.884  25.151   1.226
77390W        W49815  34.005   3.368  11.531
77391W        W49816  12.332  18.618   2.388
77392W        W49817  43.859  32.061  13.986
77393W        W49818  13.311  21.235   3.866
77394W        W49819  23.691  28.115  11.431
77395W        W49820  29.035   9.689   0.916
77396W        W49821   3.333  21.640   1.917
77397W        W49822  27.549  39.388  13.365
77398W        W49823  40.362  34.012  10.995
77399W        W49824  16.750  13.288   1.748
77400W        W49825  39.331  21.234   1.396
77401W        W49826  43.513  22.628   0.824
77402W        W49827  30.094  23.163   2.662
77403W        W49828   0.745  18.211   2.769
77404W        W49829  41.364  27.161  12.396
77405W        W49830   3.346  42.997   2.897
77406W        W49831  41.530  41.415   3.807
77407W        W49832  36.892  25.627  13.415
77408W        W49833  18.183   6.737   4.695
77409W        W49834  41.455  15.789  11.422
77410W        W49835  44.444  23.026   5.250
77411W        W49836  30.478  41.876   4.625
77412W        W49837   6.854  41.479   0.820
77413W        W49838  42.375  39.906  12.048
77414W        W49839  37.519  39.918  10.637
77415W        W49840   0.900   8.810   4.157
77416W        W49841  40.806  17.603  11.004
77417W        W49842  29.140  18.556  13.518
77418W        W49843  44.846  20.736  12.091
77419W        W49844  14.599  37.957  10.637
77420W        W49845  22.122  40.832   0.466
77421W        W49846  24.698  24.651  12.823
77422W        W49847   8.747  35.568   2.863
77423W        W49848  39.541  37.399   2.367
77424W        W49849  12.301  26.009   0.303
77425W        W49850  26.578  39.969   3.856
77426W        W49851  18.660  43.423   3.753
77427W        W49852  16.601  18.702  12.472
77428W        W49853  25.618  22.558  13.363
77429W        W49854  15.263  27.178   1.702
77430W        W49855  20.247  28.515  12.035
77431W        W49856  14.189  24.577   0.966
77432W        W49857  23.136   4.814   4.315
77433W        W49858  29.591  36.086  12.530
77434W        W49859  13.223  38.960   3.635
77435W        W49860  39.016  41.002   1.733
77436W        W49861  20.698  32.462   0.910
77437W        W49862   4.358  11.776  10.496
77438W        W49863  23.181  18.075  12.081
77439W        W49864  26.140  36.930   0.381
77440W        W49865  16.781   9.873   2.902
77441W        W49866  11.652  24.124   3.191
77442W        W49867  22.581  33.435  12.531
77443W        W49868  37.400   6.798  14.758
77444W        W49869   6.241  24.083  12.445
77445W        W49870  17.637  32.923   0.456
77446W        W49871  14.177  33.131  14.841
77447W        W49872  39.548   7.410   0.803
77448W        W49873  22.086  19.230   0.283
77449W        W49874   9.241  12.809   0.479
77450W        W49875  13.689  36.373  13.813
77451W        W49876  38.530   2.745  12.993
77452W        W49877  23.612  23.557   0.790
77453W        W49878  35.436   9.195  12.528
77454W        W49879  21.245  41.025  14.465
77455W        W49880  39.882  11.647   1.912
77456W        W49881  32.142  18.236   2.278
77457W        W49882   4.845  32.885  12.076
77458W        W49883  29.621   0.390  12.823
77459W        W49884  36.856  38.036  13.311
77460W        W49885  43.288   0.392   0.830
77461W        W49886  31.071  24.497   0.379
77462W        W49887  33.481   1.926   3.165
77463W        W49888  22.105  22.234   0.806
77464W        W49889  14.279   0.363   0.735
77465W        W49890   3.923  11.318  12.035
77466W        W49891   1.888  32.885  14.914
77467W        W49892  41.892  18.546  10.531
77468W        W49893   8.825   8.219  11.513
77469W        W49894   5.785   2.470  11.002
77470W        W49895   9.217  31.068   0.359
77471W        W49896  40.309  18.609   4.646
77472W        W49897  39.480   8.218  12.069
77473W        W49898  14.285   4.445   1.751
77474W        W49899  26.146   7.811  12.459
77475W        W49900  29.084  33.904  13.533
77476W        W49901  28.593  18.159   3.678
77477W        W49902  22.228  16.302  12.917
77478W        W49903  31.910  10.870   3.222
77479W        W49904  37.455  30.026  12.531
77480W        W49905  27.985  42.340  14.374
77481W        W49906  13.735  19.677  12.025
77482W        W49907  24.124  31.057   3.708
77483W        W49908  10.198  39.495   1.879
77484W        W49909  23.507  38.047   1.889
77485W        W49910  22.541  37.451  13.989
77486W        W49911  21.262  27.470   5.160
77487W        W49912  24.626  13.761   4.220
77488W        W49913  23.230  10.268  11.584
77489W        W49914  23.662  10.862   1.822
77490W        W49915   8.809  22.682   4.338
77491W        W49916   2.905  33.398  11.606
77492W        W49917   6.864  21.111   3.774
77493W        W49918  37.045  35.952   0.355
77494W        W49919  30.587  30.147  11.951
77495W        W49920  29.955  17.245  14.345
77496W        W49921  43.376   4.879  12.546
77497W        W49922   9.693  38.872  10.440
77498W        W49923   0.375  15.153   4.140
77499W        W49924  27.049  14.320  11.861
77500W        W49925   7.825  44.944   4.296
77501W        W49926  18.687  18.737   0.880
77502W        W49927   9.874  34.890  12.016
77503W        W49928  13.219  42.340  13.517
77504W        W49929  33.964   2.945   1.379
77505W        W49930  36.885  14.826  12.083
77506W        W49931  25.699  41.296  12.978
77507W        W49932  36.050  42.307   1.438
77508W        W49933  36.588  43.851  10.901
77509W        W49934   0.435   8.193   2.279
77510W        W49935  39.007  35.576  11.588
77511W        W49936   7.758  15.083   0.383
77512W        W49937  34.964   4.311   4.141
77513W        W49938   0.480  27.584   3.230
77514W        W49939  32.060  19.052  13.944
77515W        W49940   0.746  22.704  12.966
77516W        W49941  32.580  13.291   3.720
77517W        W49942  43.847  30.547  12.082
77518W        W49943  24.117  28.454  11.581
77519W        W49944  18.106  15.802   3.859
77520W        W49945  43.353  29.636   3.705
77521W        W49946   1.293  27.612   2.706
77522W        W49947  12.706  42.851   4.698
77523W        W49948  18.717   4.271  13.818
77524W        W49949  37.893   3.462   1.935
77525W        W49950  19.257  14.222  13.800
77526W        W49951  44.486  34.547  10.140
77527W        W49952  24.207   8.774  10.547
77528W        W49953  42.842   9.365  10.592
77529W        W49954  26.514  33.895   1.357
77530W        W49955  13.799  22.102   3.289
77531W        W49956  37.064  33.416  12.340
77532W        W49957  39.487   4.386  10.493
77533W        W49958   6.340   3.339  11.036
77534W        W49959   7.377  44.910   4.307
77535W        W49960  27.091   2.398   2.783
77536W        W49961  33.568  35.510  13.937
77537W        W49962  18.289   4.209  10.616
77538W        W49963   6.879  13.800  14.946
77539W        W49964  37.052  14.276  14.874
77540W        W49965   8.262  33.972   4.147
77541W        W49966  38.033  42.434   3.214
77542W        W49967  12.213  29.034  11.542
77543W        W49968   0.454  21.579   1.926
77544W        W49969  40.540  26.631  11.030
77545W        W49970  18.222  14.697   0.388
77546W        W49971  34.112  39.013  10.406
77547W        W49972  40.852   6.896  13.462
77548W        W49973  24.571  20.626  14.000
77549W        W49974   7.408  25.559   5.174
77550W        W49975  41.461  29.463  13.016
77551W        W49976  15.771  17.753  14.452
77552W        W49977   6.317  44.432   5.158
77553W        W49978  17.653   9.259  14.936
77554W        W49979   4.848  15.777   3.806
77555W        W49980  39.855  14.717  14.479
77556W        W49981   0.383  15.165  10.458
77557W        W49982  26.051  37.575   3.150
77558W        W49983  36.575  40.369  13.993
77559W        W49984  22.637   4.212   0.886
77560W        W49985  26.142  28.122   4.670
77561W        W49986  29.007   6.694   2.744
77562W        W49987  43.854  37.858  11.447
77563W        W49988  10.261  26.045  11.563
77564W        W49989  41.489   4.340   4.249
77565W        W49990  21.670  22.214   0.244
77566W        W49991   4.767  28.675  11.046
77567W        W49992  15.127  25.513  14.418
77568W        W49993  19.570  15.234  11.889
77569W        W49994  37.568  37.571  13.998
77570W        W49995   6.230  37.912   3.863
77571W        W49996   1.964   5.816   1.444
77572W        W49997   9.883   2.328   2.901
77573W        W49998   5.737  31.913  14.961
77574W        W49999  41.886   9.811  12.356
77575W        W50000  23.155  29.551   2.318
77576W        W50001   3.788  10.383   3.222
77577W        W50002  13.235  42.965   5.124
77578W        W50003  32.974  20.635   1.411
77579W        W50004  11.346   8.163   0.272
77580W        W50005  24.997   7.184   3.734
77581W        W50006  15.151   6.420  12.436
77582W        W50007  32.497  40.811   4.749
77583W        W50008  27.500  17.697   4.817
77584W        W50009   7.351  17.166   5.156
77585W        W50010  23.523  12.242   5.685
77586W        W50011  16.206  22.199  14.792
77587W        W50012  30.944  38.452   0.758
77588W        W50013  37.883  33.495   2.196
77589W        W50014  20.624   9.172   3.200
77590W        W50015   5.409  13.659  14.017
77591W        W50016  35.942   6.390   3.196
77592W        W50017  25.214  40.808   2.321
77593W        W50018  13.804  44.357  10.972
77594W        W50019  23.066  20.124  12.839
77595W        W50020  26.658  20.176   0.858
77596W        W50021  44.386  23.536   5.255
77597W        W50022  21.099  37.985  12.362
77598W        W50023  32.414  30.079  13.378
77599W        W50024  21.136  39.517  11.592
77600W        W50025  30.928  10.342   4.614
77601W        W50026  16.220  13.130   2.836
77602W        W50027  38.439  36.070   4.140
77603W        W50028  42.030  21.748  12.521
77604W        W50029  27.004  31.013  13.990
77605W        W50030  40.540  20.750   9.505
77606W        W50031  22.666  35.465   3.743
77607W        W50032  28.679  30.030  11.015
77608W        W50033  25.670  39.874  11.015
77609W        W50034  31.065  17.084   1.291
77610W        W50035  31.132  41.505  11.548
77611W        W50036  25.001   4.409  13.381
77612W        W50037  16.685  26.986   2.834
77613W        W50038  33.059  39.841   0.477
77614W        W50039  33.468   6.343  14.947
77615W        W50040   5.800   8.801  13.048
77616W        W50041   2.753  20.710   4.600
77617W        W50042   9.738  42.429  13.309
77618W        W50043   1.811   8.227   0.400
77619W        W50044   4.741  29.100   0.305
77620W        W50045  14.329  27.469   0.379
77621W        W50046  30.087  34.035   2.775
77622W        W50047   8.813  44.938  10.615
77623W        W50048  10.743   2.804  11.557
77624W        W50049  14.236  42.934  12.876
77625W        W50050   0.477  28.644   4.774
77626W        W50051  10.661  42.438  10.427
77627W        W50052  34.422  34.611   3.147
77628W        W50053   0.871  43.442  12.372
77629W        W50054  38.882  37.048  10.407
77630W        W50055  10.753   1.328   4.698
77631W        W50056  33.988   0.978  14.312
77632W        W50057  22.092  20.034   4.626
77633W        W50058  33.550  35.364   2.367
77634W        W50059  12.362   4.898   2.245
77635W        W50060  29.612  40.002   2.705
77636W        W50061   4.828  41.415   1.216
77637W        W50062   8.870   7.312   1.319
77638W        W50063  24.082  44.427  11.542
77639W        W50064  32.407  15.241  12.985
77640W        W50065  32.464   6.834   4.830
77641W        W50066  44.904   2.849   0.265
77642W        W50067  21.079   5.391   3.773
77643W        W50068  21.127   5.342   1.832
77644W        W50069   4.786  32.974   3.384
77645W        W50070   6.814   3.386  12.020
77646W        W50071  14.705  37.841  12.030
77647W        W50072  12.323  32.439  14.006
77648W        W50073   0.864   0.372   4.235
77649W        W50074  43.774  33.473  14.954
77650W        W50075  24.195  32.028   3.719
77651W        W50076  22.560  24.986  10.045
77652W        W50077  11.761  28.544   0.896
77653W        W50078   6.233  41.797  10.979
77654W        W50079  29.987  25.086  14.303
77655W        W50080   0.951   1.971   3.700
77656W        W50081  42.831  21.558   3.659
77657W        W50082  40.997  11.789   2.830
77658W        W50083  42.802   4.944   0.907
77659W        W50084  37.997   3.334  11.073
77660W        W50085  21.102  25.134  12.025
77661W        W50086  24.568  20.631  10.519
77662W        W50087  38.035  28.959   3.732
77663W        W50088   5.209  30.038  12.576
77664W        W50089  44.008   7.257   2.198
77665W        W50090   4.939  30.960  10.479
77666W        W50091  37.419  35.597   4.775
77667W        W50092  43.353  14.679  12.913
77668W        W50093  42.809  21.740  14.029
77669W        W50094  44.413  38.404   3.179
77670W        W50095  20.129  30.493   0.839
77671W        W50096  10.670  27.978   3.856
77672W        W50097  27.655  16.222  13.025
77673W        W50098  31.432  11.209  13.478
77674W        W50099  12.172   6.782  13.428
77675W        W50100  21.656  43.292  13.387
77676W        W50101  24.516  32.970   1.798
77677W        W50102  18.216   1.761  11.880
77678W        W50103  16.295  18.576  10.587
77679W        W50104  37.512  35.592  11.103
77680W        W50105  16.242  30.095   1.920
77681W        W50106  39.924   3.943   4.726
77682W        W50107  36.851  18.087  13.920
77683W        W50108  38.866   7.878  12.401
77684W        W50109  16.087   4.349  11.076
77685W        W50110  13.810  25.693   0.249
77686W        W50111  40.397  31.963   1.436
77687W        W50112  34.992  27.532  11.996
77688W        W50113   6.425  23.591   2.314
77689W        W50114  25.206  34.933   4.179
77690W        W50115  42.825  32.531   1.702
77691W        W50116  17.594  42.866   2.673
77692W        W50117  32.983   7.733  12.367
77693W        W50118   1.809  34.978  12.501
77694W        W50119  36.927  29.925  13.383
77695W        W50120  28.105  22.731   0.414
77696W        W50121   1.434  26.686  11.903
77697W        W50122  12.283  14.153   3.665
77698W        W50123   2.792   4.808   2.293
77699W        W50124  11.355  22.113  10.645
77700W        W50125  25.497  40.828  13.807
77701W        W50126  18.201  28.933   3.743
77702W        W50127  36.087  42.337   1.697
77703W        W50128  21.171  26.616   3.713
77704W        W50129  11.658  39.511   2.256
77705W        W50130   0.317  39.523  13.832
77706W        W50131  29.566  40.392   4.291
77707W        W50132   6.287  23.163  10.497
77708W        W50133  29.082  32.477   4.775
77709W        W50134  40.834  19.726  11.436
77710W        W50135   5.914  35.895   3.669
77711W        W50136   1.330  24.587   0.932
77712W        W50137   4.367  43.391  10.489
77713W        W50138  15.186  28.933   2.667
77714W        W50139   7.686  36.580  10.933
77715W        W50140  17.626   3.347  12.378
77716W        W50141  22.633  17.649   2.802
77717W        W50142  29.107  12.731   1.247
77718W        W50143  27.070  27.102  11.126
77719W        W50144   8.794  37.462  12.952
77720W        W50145   5.855  38.430  14.286
77721W        W50146  42.441  13.333   1.882
77722W        W50147  15.216  26.578   2.418
77723W        W50148  26.611  29.534  13.867
77724W        W50149  28.524  39.322  11.612
77725W        W50150  18.135  36.855   3.640
77726W        W50151  38.064  33.387   2.712
77727W        W50152  31.554  38.852   4.631
77728W        W50153   1.356  40.374   1.912
77729W        W50154  22.046  21.224  12.825
77730W        W50155  20.555  43.497  12.870
77731W        W50156  44.452  13.290   1.259
77732W        W50157  40.966  13.677   2.883
77733W        W50158  19.141  34.872  11.949
77734W        W50159  43.943  14.329   4.649
77735W        W50160   6.819   6.874  12.508
77736W        W50161  21.178  18.124  14.285
77737W        W50162  40.960   3.715   1.428
77738W        W50163  25.610  15.730   2.772
77739W        W50164  19.160  42.932  13.883
77740W        W50165  26.567   6.773   2.188
77741W        W50166   3.848  10.778   1.287
77742W        W50167   6.821  10.787   1.331
77743W        W50168  10.239   3.231  14.005
77744W        W50169  28.062   8.764  13.014
77745W        W50170  11.296  14.213  13.002
77746W        W50171  43.936  43.886  12.055
77747W        W50172  24.980  44.432  14.508
77748W        W50173  39.007  19.631  10.055
77749W        W50174  40.448  44.266   1.710
77750W        W50175   9.311  42.373  10.936
77751W        W50176  35.456  18.743  14.472
77752W        W50177  12.181  20.040  11.105
77753W        W50178   3.345  41.519   1.869
77754W        W50179  13.174  38.364  12.453
77755W        W50180   0.958  35.487   2.350
77756W        W50181   2.272  18.265  14.396
77757W        W50182  17.703  15.242   3.323
77758W        W50183  41.007   4.878   1.296
77759W        W50184   3.433  14.297  12.485
77760W        W50185  22.039   0.861  11.487
77761W        W50186  15.241   5.375   0.821
77762W        W50187  19.182   1.445   0.879
77763W        W50188  30.084   3.325   2.671
77764W        W50189  40.314  17.139   2.885
77765W        W50190  14.138  42.328   2.667
77766W        W50191  33.529  35.402   4.173
77767W        W50192  22.668  13.302  12.049
77768W        W50193   1.316  28.990   2.779
77769W        W50194  41.815  12.321  10.632
77770W        W50195  39.885  42.493   3.149
77771W        W50196  37.471  13.751  12.531
77772W        W50197  30.655   1.347  11.046
77773W        W50198  37.001  42.007  12.540
77774W        W50199  14.824  13.240   3.849
77775W        W50200   6.420   8.225   2.393
77776W        W50201   3.450  36.971   0.447
77777W        W50202   9.867  17.760  14.367
77778W        W50203  24.515  23.494   1.792
77779W        W50204  14.608  43.983  11.380
77780W        W50205   4.436   6.752   1.795
77781W        W50206  40.504  38.506  11.914
77782W        W50207  43.847   4.268  10.555
77783W        W50208  20.760  17.266  10.612
77784W        W50209  28.471  30.640   4.294
77785W        W50210   1.425  13.195   1.727
77786W        W50211  40.962  27.530   4.802
77787W        W50212  30.578   9.184  10.964
77788W        W50213   7.800  12.132  10.943
77789W        W50214  24.188   6.196  13.811
77790W        W50215  30.947  41.894   4.191
77791W        W50216  14.592  38.535   1.746
77792W        W50217  26.557  16.636   3.741
77793W        W50218  39.542  18.614  11.494
77794W        W50219   0.759  25.607  14.377
77795W        W50220  40.367  27.061   4.127
77796W        W50221  14.124  38.943   2.787
77797W        W50222   5.414  19.696   2.366
77798W        W50223  32.920  23.531  11.857
77799W        W50224   5.734   3.725  14.762
77800W        W50225  27.683  42.822  12.940
77801W        W50226  16.700   2.359   0.881
77802W        W50227  16.251  41.441  13.338
77803W        W50228  34.863  42.970  11.424
77804W        W50229  24.080  34.030   4.216
77805W        W50230  41.030  29.118   4.280
77806W        W50231   2.412  29.620  12.360
77807W        W50232  26.585   8.317  14.763
77808W        W50233  16.307   5.793  13.904
77809W        W50234  17.733  17.242  10.490
77810W        W50235  42.313  36.066  10.952
77811W        W50236  31.922   0.480   0.755
77812W        W50237  27.615   9.184  14.332
77813W        W50238   4.237   4.328  12.434
77814W        W50239  40.029  16.234  13.974
77815W        W50240  37.972   3.335  12.362
77816W        W50241  31.605  33.087   0.751
77817W        W50242  23.658  40.398  13.545
77818W        W50243  44.387  38.506  11.007
77819W        W50244  20.732  17.596   0.931
77820W        W50245  11.658  24.118   1.291
77821W        W50246  41.871  26.969  14.477
77822W        W50247  44.501  22.737  12.985
77823W        W50248  23.119  35.867   1.771
77824W        W50249  22.148   1.289   0.480
77825W        W50250  15.131  34.518  10.022
77826W        W50251  36.878  14.286   3.757
77827W        W50252  18.584   3.805  12.357
77828W        W50253   9.874   4.374  12.996
77829W        W50254   3.352   2.455  13.940
77830W        W50255  25.190  38.343  10.447
77831W        W50256  44.961  36.985  11.036
77832W        W50257  27.035  14.762  11.986
77833W        W50258   0.419   8.782   0.480
77834W        W50259  44.912  31.430   2.860
77835W        W50260  34.078  14.124  11.555
77836W        W50261  39.884  30.011  11.048
77837W        W50262  25.670   6.185   0.425
77838W        W50263  17.651  34.042  10.924
77839W        W50264  18.662  29.596  13.011
77840W        W50265  28.495  28.648  12.519
77841W        W50266  41.531  23.123  13.543
77842W        W50267  30.984   6.781  14.812
77843W        W50268  11.233  22.168  11.104
77844W        W50269  14.314   2.361   4.811
77845W        W50270  37.061  40.821  14.779
77846W        W50271  16.621  23.723  13.930
77847W        W50272  12.728  29.660  12.928
77848W        W50273  24.978  32.015  13.931
77849W        W50274  18.604   1.431   3.261
77850W        W50275  20.269  25.015   9.920
77851W        W50276  43.983  26.995  14.786
77852W        W50277  44.326  22.215   9.982
77853W        W50278  18.249   3.315   3.786
77854W        W50279  10.856  37.072   2.347
77855W        W50280  29.619  38.838   4.655
77856W        W50281  24.014  15.157   0.380
77857W        W50282  29.497  24.111  10.486
77858W        W50283  22.132  44.003  13.354
77859W        W50284  30.072  32.621  11.456
77860W        W50285  35.563  22.105   1.309
77861W        W50286  44.500  10.698   0.251
77862W        W50287  31.950  34.080   0.381
77863W        W50288  33.041   9.784  13.835
77864W        W50289  14.819  26.458   2.790
77865W        W50290  44.382  10.783  14.781
77866W        W50291  43.391  22.642   4.144
77867W        W50292  16.161  30.941   3.273
77868W        W50293   0.490  26.529  12.373
77869W        W50294   5.424  36.994   3.371
77870W        W50295   1.458   5.713   3.240
77871W        W50296  29.989  41.002  10.486
77872W        W50297  29.453  15.687   0.405
77873W        W50298  36.515   6.704   9.540
77874W        W50299   7.823   5.754   9.995
77875W        W50300  15.710   1.748   9.981
77876W        W50301  22.519  28.436  14.499
77877W        W50302   2.822  36.485  12.550
77878W        W50303  40.835  16.566   4.134
77879W        W50304  30.119  44.790   0.358
77880W        W50305  11.742  31.092   0.800
77881W        W50306  13.317  13.292   0.963
77882W        W50307  21.018   2.965  14.018
77883W        W50308  11.864  16.742  11.543
77884W        W50309  30.445  40.832   3.377
77885W        W50310  24.130   5.715   3.792
77886W        W50311   9.326  18.207   1.832
77887W        W50312   6.916  28.152   1.821
77888W        W50313  20.196  10.763  13.989
77889W        W50314  21.058   0.351   2.270
77890W        W50315  26.108  13.234  13.445
77891W        W50316  12.251   4.930  13.440
77892W        W50317   3.794  27.124  12.445
77893W        W50318  11.652  27.481   4.148
77894W        W50319  43.432  12.206  13.051
77895W        W50320  22.072   2.334   3.847
77896W        W50321   7.855  17.626  13.790
77897W        W50322  43.327  14.743   1.274
77898W        W50323   0.925  23.053   3.189
77899W        W50324  37.568  32.013   5.282
77900W        W50325  44.882  44.011   1.362
77901W        W50326   0.833  16.087   2.900
77902W        W50327  21.213  31.611  12.916
77903W        W50328  31.586  21.173   4.705
77904W        W50329  42.430  44.979  10.566
77905W        W50330   1.263  31.441  13.495
77906W        W50331  21.195  23.145  14.363
77907W        W50332  14.121   3.308   1.874
77908W        W50333  38.398  26.073   1.929
77909W        W50334  23.711  23.091  11.056
77910W        W50335  37.877  18.767   2.411
77911W        W50336   8.298  35.080   3.198
77912W        W50337  17.284  32.135  10.560
77913W        W50338  30.111  21.614  10.013
77914W        W50339  32.573  34.463  13.359
77915W        W50340  28.159  32.086  10.034
77916W        W50341  41.835  39.505  14.760
77917W        W50342  43.017  21.634   1.263
77918W        W50343  30.152  42.031  11.035
77919W        W50344  20.610  33.577   2.721
77920W        W50345  24.981  16.225   1.705
77921W        W50346   8.799  33.599  10.514
77922W        W50347  35.409  40.540   2.740
77923W        W50348   5.242   0.250  12.398
77924W        W50349  13.252  31.026   0.771
77925W        W50350   4.290  24.044  13.894
77926W        W50351  22.220  35.086   1.918
77927W        W50352  44.834  37.534  12.509
77928W        W50353  43.848  24.041   1.860
77929W        W50354  43.382   1.770  10.893
77930W        W50355  12.353  19.168  13.398
77931W        W50356  23.003  42.903   1.787
77932W        W50357  16.195  22.119  14.425
77933W        W50358  44.440  13.686  14.970
77934W        W50359  33.616  13.696   3.791
77935W        W50360  14.303  32.394   3.739
77936W        W50361  14.163  33.074   2.735
77937W        W50362   1.354   5.739  13.063
77938W        W50363   3.718  30.594   0.967
77939W        W50364  11.257  43.975   0.880
77940W        W50365  28.151  32.963  14.445
77941W        W50366  42.830  34.970   0.830
77942W        W50367  12.772   7.704  11.377
77943W        W50368  31.425  12.299  11.868
77944W        W50369   1.407  43.806  14.872
77945W        W50370   2.352   8.193  11.430
77946W        W50371  30.509   5.420  11.939
77947W        W50372  10.222   0.280   1.287
77948W        W50373   6.227  28.142   3.706
77949W        W50374  44.761  29.592   2.356
77950W        W50375  43.019  41.012  13.472
77951W        W50376  23.634  15.302   4.180
77952W        W50377   9.310  15.129   4.254
77953W        W50378  15.100  28.650   2.670
77954W        W50379  42.401   8.259  14.878
77955W        W50380   4.734  26.572   3.871
77956W        W50381  33.131  24.532   4.753
77957W        W50382   2.735  18.281   1.382
77958W        W50383  16.239  29.124  14.311
77959W        W50384  43.356  10.361   4.773
77960W        W50385  21.690  20.129   4.238
77961W        W50386  20.683  37.977   3.791
77962W        W50387  25.579   2.859  11.456
77963W        W50388  21.681  10.780  13.996
77964W        W50389  44.849  25.491  14.783
77965W        W50390  32.142   1.873   0.917
77966W        W50391  42.468  40.514   3.260
77967W        W50392   6.256  40.340  13.958
77968W        W50393   9.253  44.774   2.870
77969W        W50394  40.389  28.576   4.813
77970W        W50395  37.336  26.104   3.771
77971W        W50396  43.979  19.056  12.543
77972W        W50397  33.383  38.553  12.894
77973W        W50398  36.434   7.900  11.394
77974W        W50399  37.073  32.586   2.199
77975W        W50400  25.623   9.378  14.350
77976W        W50401  10.773  38.838  10.913
77977W        W50402  22.995  42.782  10.526
77978W        W50403  44.788  23.529   1.264
77979W        W50404  36.866   6.370   1.416
77980W        W50405   1.933  34.446  11.020
77981W        W50406  14.205   4.906  10.930
77982W        W50407  20.057  22.189   1.261
77983W        W50408  22.578   7.717  11.436
77984W        W50409  35.065  23.566  13.850
77985W        W50410  26.052  24.501  13.485
77986W        W50411  23.724  35.358   3.305
77987W        W50412  26.014  13.652   2.418
77988W        W50413  36.869  40.479  10.620
77989W        W50414   2.814   5.823   2.355
77990W        W50415  44.300   2.370   1.450
77991W        W50416   6.842   0.330   4.630
77992W        W50417  16.690  33.955  11.555
77993W        W50418  11.659   8.697  10.436
77994W        W50419  15.585  37.883  13.059
77995W        W50420   9.670  41.810  12.406
77996W        W50421  21.558  27.514   3.849
77997W        W50422  36.584   1.448   3.658
77998W        W50423  32.945   2.393   1.322
77999W        W50424   8.262   7.791  10.510
78000W        W50425  41.352   6.913   3.354
78001W        W50426  11.755  17.674  13.052
78002W        W50427  23.706  33.424  14.512
78003W        W50428   8.880  38.562   2.673
78004W        W50429  31.589  21.065   1.235
78005W        W50430  20.155  29.533   0.872
78006W        W50431   7.196   8.265  10.953
78007W        W50432  35.047  25.513   4.124
78008W        W50433  14.601  20.112   3.249
78009W        W50434   8.206  15.312  14.824
78010W        W50435  23.202  14.766   0.892
78011W        W50436  23.669  17.749   4.652
78012W        W50437   0.435  15.135  13.497
78013W        W50438  13.173   1.249   0.342
78014W        W50439  27.958  44.272  13.859
78015W        W50440  19.567   9.382  10.438
78016W        W50441  14.265  15.669  12.013
78017W        W50442  20.153   0.978   3.314
78018W        W50443   8.870  36.440   3.354
78019W        W50444  29.986  31.483  12.857
78020W        W50445   3.791  31.952   5.306
78021W        W50446   6.838  23.568   1.257
78022W        W50447   1.744   9.843  13.542
78023W        W50448  11.294   9.324   4.644
78024W        W50449  22.541  39.497  13.453
78025W        W50450   4.809  32.914  13.802
78026W        W50451  37.396   0.795  14.834
78027W        W50452  37.977  39.327  13.032
78028W        W50453  43.279  14.671   3.328
78029W        W50454  24.104   3.798   1.782
78030W        W50455  40.520   7.255   2.402
78031W        W50456   6.187  43.394  14.274
78032W        W50457  22.581  38.008  13.824
78033W        W50458  22.247  31.494  13.008
78034W        W50459   9.381   1.940   9.979
78035W        W50460  11.828   2.229   3.164
78036W        W50461  21.117  37.450   1.720
78037W        W50462  20.161  23.236  14.491
78038W        W50463  24.054   4.407  10.414
78039W        W50464  26.066  28.671  13.407
78040W        W50465  43.931  13.120   3.158
78041W        W50466  37.949  14.299  14.004
78042W        W50467  21.740  15.220   0.912
78043W        W50468   6.896  20.633  11.393
78044W        W50469  12.355  11.212   4.726
78045W        W50470  10.753  23.734   0.764
78046W        W50471  37.510  23.215  14.325
78047W        W50472  27.096  12.832  11.010
78048W        W50473  16.781  38.384  12.889
78049W        W50474   6.211  30.112  10.941
78050W        W50475  12.174  15.328   2.771
78051W        W50476  40.544  22.251   2.666
78052W        W50477  28.156  14.143   0.937
78053W        W50478   2.727  23.088   0.964
78054W        W50479  39.895  12.636  13.527
78055W        W50480  30.984  15.290  11.452
78056W        W50481  43.937  38.326  13.896
78057W        W50482  38.839   1.236   1.729
78058W        W50483  42.999  41.003  12.341
78059W        W50484  44.866  30.942  12.082
78060W        W50485  38.468  31.527   3.698
78061W        W50486  28.935   6.337   2.892
78062W        W50487  30.538   5.844   2.819
78063W        W50488  30.590  25.495  14.795
78064W        W50489  24.590  37.055   4.161
78065W        W50490  12.121   3.340  13.453
78066W        W50491   0.907   1.480   2.297
78067W        W50492  12.161   2.451  10.025
78068W        W50493  22.142   3.766   2.351
78069W        W50494  37.510  14.219   9.922
78070W        W50495  39.405  13.755  14.505
78071W        W50496  22.563  11.177  13.911
78072W        W50497  39.878   0.255   2.725
78073W        W50498  25.160  25.518  10.970
78074W        W50499  22.233  16.122  11.371
78075W        W50500  24.548  22.179   1.443
78076W        W50501  29.464  38.957   1.433
78077W        W50502  11.333  43.990  12.867
78078W        W50503   0.750  38.867   3.185
78079W        W50504  11.188  20.169  10.463
78080W        W50505  24.554  27.089  13.382
78081W        W50506  23.213  28.976  13.048
78082W        W50507  30.495  16.135   1.424
78083W        W50508  19.748  44.798  10.466
78084W        W50509  38.961  17.217   4.651
78085W        W50510  18.674  26.684   3.152
78086W        W50511  18.697  42.005  14.493
78087W        W50512  40.937  17.738   3.341
78088W        W50513  26.117  22.248   4.259
78089W        W50514  30.064   3.938   3.336
78090W        W50515   1.470  17.305  12.990
78091W        W50516   7.266  17.621  13.546
78092W        W50517   0.480  43.428   2.285
78093W        W50518  29.019   9.861   4.821
78094W        W50519  30.439   9.766  11.966
78095W        W50520  19.210  44.874   1.292
78096W        W50521  18.675  35.494   1.400
78097W        W50522  15.824   8.825  12.571
78098W        W50523  13.183  10.733  12.828
78099W        W50524  25.115  25.671  12.429
78100W        W50525  11.674   6.249   3.691
78101W        W50526  33.486  29.639  10.888
78102W        W50527  20.701   0.873   3.864
78103W        W50528  19.743  17.115   3.689
78104W        W50529  10.337  32.395   4.127
78105W        W50530  19.772  31.594   1.279
78106W        W50531  32.057   3.772   5.096
78107W        W50532  20.683  23.549  11.117
78108W        W50533  35.893   1.956  11.406
78109W        W50534  42.851  11.654  10.464
78110W        W50535  18.087  41.811   2.784
78111W        W50536  16.163  20.197   1.834
78112W        W50537   6.239  17.280  10.892
78113W        W50538  41.339  28.117  14.437
78114W        W50539  19.160  32.968   2.357
78115W        W50540  14.603  19.282   2.753
78116W        W50541  24.105   9.696   4.772
78117W        W50542  27.546  42.814  14.390
78118W        W50543  16.283  35.401   1.418
78119W        W50544  32.115  12.278   3.749
78120W        W50545  25.657  40.954  12.524
78121W        W50546  18.567   6.697  10.595
78122W        W50547  23.058  17.764  10.967
78123W        W50548  16.593  28.537   0.861
78124W        W50549  39.444  44.874   2.808
78125W        W50550  14.137   1.762  14.433
78126W        W50551  44.279  17.758  13.050
78127W        W50552  38.911   1.260  14.497
78128W        W50553  25.476  30.648  14.353
78129W        W50554  40.946  24.543  14.390
78130W        W50555  17.567  21.142  13.349
78131W        W50556  17.747  32.105  13.829
78132W        W50557  41.484  19.726  10.436
78133W        W50558  36.357  43.507  12.921
78134W        W50559  35.560  43.511  10.449
78135W        W50560  21.179  42.391  10.503
78136W        W50561  18.293   8.322   1.807
78137W        W50562  35.377  13.218  12.071
78138W        W50563  24.624   8.788  10.895
78139W        W50564  15.774   7.804   2.386
78140W        W50565   2.408  27.188   4.336
78141W        W50566  25.973  32.137   4.272
78142W        W50567  25.981  26.465   1.911
78143W        W50568  13.661  22.232   1.368
78144W        W50569   2.879  43.478  11.119
78145W        W50570  17.723  44.429  14.400
78146W        W50571  27.111   2.835  14.819
78147W        W50572  28.088  16.199  10.021
78148W        W50573  37.521   7.875   4.118
78149W        W50574  36.386   5.932  13.450
78150W        W50575  41.320  41.823  10.526
78151W        W50576  30.095  38.447   1.431
78152W        W50577  41.487  12.835   0.873
78153W        W50578  10.276  37.083   1.413
78154W        W50579  35.497  33.936  12.461
78155W        W50580  25.188  23.102  11.493
78156W        W50581   5.280  23.115  12.093
78157W        W50582  30.449  36.531  10.459
78158W        W50583   1.273  19.233   3.240
78159W        W50584  27.609  31.959   9.438
78160W        W50585  31.086  33.097  14.494
78161W        W50586  37.431  17.229   0.930
78162W        W50587  32.087   1.260  14.288
78163W        W50588   1.739  23.197  14.280
78164W        W50589  13.119   3.330  10.963
78165W        W50590  11.248  29.116   0.300
78166W        W50591  32.052   9.733   1.824
78167W        W50592  18.581  40.476  12.906
78168W        W50593  13.782   4.765  10.500
78169W        W50594  19.774  20.241  13.850
78170W        W50595  34.511   0.393   2.707
78171W        W50596   7.376  20.546  14.863
78172W        W50597  43.399  31.581  13.314
78173W        W50598  41.867  10.855  11.897
78174W        W50599  38.926  13.282  12.367
78175W        W50600  25.029  24.652  13.539
78176W        W50601  35.052   8.292   9.599
78177W        W50602  10.719  39.015   3.757
78178W        W50603  31.048  44.410  11.575
78179W        W50604   6.884   2.725   3.769
78180W        W50605  16.291  10.752   4.262
78181W        W50606  30.626   3.220   5.140
78182W        W50607   1.327  36.467   2.850
78183W        W50608  31.073  23.675  11.882
78184W        W50609  41.976  14.272   0.951
78185W        W50610   9.658   3.330  10.950
78186W        W50611   4.913  27.464   2.669
78187W        W50612  38.341  31.425  12.934
78188W        W50613   7.310  40.005   2.204
78189W        W50614   9.711  41.970   4.700
78190W        W50615  17.636  35.075   0.895
78191W        W50616  10.818   7.206   2.395
78192W        W50617  15.131  14.323   0.815
78193W        W50618   0.350   9.770  12.540
78194W        W50619  25.650  27.658   2.221
78195W        W50620  16.079  24.073   1.257
78196W        W50621   7.286  44.490  14.387
78197W        W50622  22.225   3.283  13.400
78198W        W50623   2.848  26.120  13.829
78199W        W50624  14.237  36.563   4.700
78200W        W50625  33.528  12.662   2.340
78201W        W50626  41.339   3.776  14.931
78202W        W50627  15.726  19.188   4.700
78203W        W50628   2.720  23.136  11.542
78204W        W50629   7.281   8.873  14.789
78205W        W50630  18.588   6.840   1.314
78206W        W50631   4.902  32.595  12.411
78207W        W50632  16.579  23.673   2.844
78208W        W50633  44.771  42.453  13.980
78209W        W50634  21.083  22.106   2.396
78210W        W50635  41.820   7.670   2.182
78211W        W50636  13.237   1.325  12.891
78212W        W50637  34.081  12.793  11.054
78213W        W50638   9.724  11.690   3.314
78214W        W50639  22.038  35.947   4.249
78215W        W50640  32.411  14.292  12.504
78216W        W50641   8.723  35.504   0.787
78217W        W50642   2.819   7.840  10.639
78218W        W50643  39.059  35.958   2.221
78219W        W50644  37.971   7.349  11.966
78220W        W50645   4.772  30.061   4.129
78221W        W50646  13.607  29.667   4.244
78222W        W50647   9.154   4.326  14.325
78223W        W50648  34.886  10.291   0.783
78224W        W50649   7.695  29.129   3.663
78225W        W50650  17.747  18.092   0.266
78226W        W50651  44.886  36.359   0.442
78227W        W50652  21.223  26.494   4.754
78228W        W50653   0.804  26.179   0.297
78229W        W50654  27.162   8.197  13.338
78230W        W50655  14.327   7.695  13.311
78231W        W50656  34.503  30.619  14.391
78232W        W50657  13.790  41.461   0.348
78233W        W50658  17.141   0.460   9.952
78234W        W50659  34.913  30.450  12.966
78235W        W50660  21.127   0.893  10.497
78236W        W50661   2.935  12.623  11.075
78237W        W50662  16.224  35.904  11.452
78238W        W50663   3.320   8.335  13.003
78239W        W50664  31.547  29.571   4.643
78240W        W50665   0.263  10.811   2.351
78241W        W50666  14.237  23.204   0.413
78242W        W50667  30.916  25.609  14.382
78243W        W50668  38.413  39.817  11.038
78244W        W50669  42.984  12.820   4.301
78245W        W50670   4.211  30.645  14.985
78246W        W50671  20.232   2.748   0.360
78247W        W50672  32.557  39.023   1.243
78248W        W50673   3.283  22.704  14.394
78249W        W50674   0.988  11.318   3.833
78250W        W50675   0.490  20.608   3.320
78251W        W50676  33.590  11.716  10.053
78252W        W50677  42.920  23.514   0.359
78253W        W50678  18.114  39.384   0.789
78254W        W50679  19.144  10.183   1.421
78255W        W50680  20.646   2.924   2.680
78256W        W50681  36.390  27.969   1.744
78257W        W50682  22.517   0.753   3.377
78258W        W50683  16.106   0.296   0.341
78259W        W50684  30.551  10.380  13.915
78260W        W50685  32.399   0.824  14.465
78261W        W50686  31.961   1.818   0.393
78262W        W50687  43.981  23.656   0.856
78263W        W50688   0.319  21.716  12.886
78264W        W50689   6.235  17.632  14.977
78265W        W50690  44.503  23.613   3.645
78266W        W50691  10.139  30.445  10.436
78267W        W50692  21.203   4.942  11.979
78268W        W50693  30.024  23.239  14.874
78269W        W50694  32.453  32.478  13.884
78270W        W50695   5.847  15.717  14.817
78271W        W50696  22.717   1.432  12.925
78272W        W50697  13.759  24.701  14.922
78273W        W50698  10.220  24.186  13.332
78274W        W50699   9.655  32.111   3.193
78275W        W50700  16.803  10.191   2.727
78276W        W50701  11.636  22.156   0.260
78277W        W50702   3.830   6.227  10.002
78278W        W50703  10.272  15.263   0.363
78279W        W50704   6.345  34.049  12.915
78280W        W50705  15.685  19.707   4.735
78281W        W50706  36.973  34.001  12.531
78282W        W50707   6.817  23.578  11.963
78283W        W50708  18.223  36.563  14.496
78284W        W50709  15.305  33.112  14.458
78285W        W50710  33.096  34.972  12.432
78286W        W50711  25.477  20.564  10.420
78287W        W50712  12.813  22.020  14.799
78288W        W50713  11.341  42.990   2.283
78289W        W50714  22.537  15.257   2.784
78290W        W50715  27.512   4.243   3.713
78291W        W50716   8.897  44.416   4.740
78292W        W50717  40.881  13.659   3.248
78293W        W50718  42.361  27.638  13.357
78294W        W50719  36.090  12.791  13.439
78295W        W50720  22.204  13.211   3.157
78296W        W50721   8.223  41.944  12.018
78297W        W50722  37.987  25.695   1.836
78298W        W50723  37.511  10.848   2.261
78299W        W50724  14.647  26.493   0.729
78300W        W50725  28.619  21.724   0.791
78301W        W50726  11.630  38.500   1.933
78302W        W50727  34.526   3.951  10.957
78303W        W50728  18.161  27.653  12.851
78304W        W50729  42.962   5.911  11.398
78305W        W50730  26.200  37.011  10.589
78306W        W50731  35.881  18.735   1.868
78307W        W50732  27.496  35.093   4.637
78308W        W50733  29.547   9.685  14.465
78309W        W50734  23.687  36.977  10.408
78310W        W50735  25.714   4.847  13.917
78311W        W50736   0.448  37.417  10.896
78312W        W50737  38.398  22.145   0.840
78313W        W50738  38.531  41.829  14.916
78314W        W50739  14.317  20.593  12.534
78315W        W50740  27.555  38.341   2.766
78316W        W50741  31.900  42.913   1.351
78317W        W50742   1.848  36.951  12.384
78318W        W50743  22.539  19.257  13.828
78319W        W50744   0.302  18.666  11.579
78320W        W50745  30.539   4.307   3.174
78321W        W50746  17.184  24.075   0.346
78322W        W50747   0.266  44.802  12.881
78323W        W50748  10.657  38.996  14.773
78324W        W50749  20.561  13.162   3.218
78325W        W50750  14.262  43.797   0.821
78326W        W50751  38.962   5.870   2.667
78327W        W50752  34.081  38.014   2.705
78328W        W50753  29.150  13.718  14.014
78329W        W50754  41.516  43.437  12.915
78330W        W50755  34.558  33.622   1.903
78331W        W50756   1.926  29.653   3.674
78332W        W50757  13.143  39.908  13.998
78333W        W50758   1.301   4.214   0.289
78334W        W50759  27.109  17.181   3.365
78335W        W50760   0.398  25.005  13.398
78336W        W50761  22.677  31.061  11.070
78337W        W50762  38.477  41.907  10.972
78338W        W50763  43.880  29.501  12.533
78339W        W50764  18.731   8.289  11.936
78340W        W50765  25.584  33.403  10.982
78341W        W50766  37.474   3.840  11.088
78342W        W50767   5.334  20.588   1.724
78343W        W50768  30.914  20.742   1.425
78344W        W50769  10.274  43.440   1.254
78345W        W50770  42.839  22.513  12.068
78346W        W50771  40.863   5.852   1.852
78347W        W50772  33.439  24.678   4.620
78348W        W50773   4.903  11.797  13.349
78349W        W50774  38.862  18.180   2.187
78350W        W50775  11.141  40.309   4.782
78351W        W50776   6.203  34.380   3.189
78352W        W50777  13.179  31.614  10.407
78353W        W50778  36.512   6.725  14.456
78354W        W50779  43.387  38.873  11.022
78355W        W50780  20.617   3.429  12.422
78356W        W50781  39.422  25.159   0.290
78357W        W50782  30.508  28.451  14.514
78358W        W50783  11.759  41.814   4.641
78359W        W50784  14.136  37.023  14.374
78360W        W50785  23.008   9.164   5.275
78361W        W50786  32.925  21.066  12.898
78362W        W50787  29.473  42.011   2.185
78363W        W50788  36.438   3.258  10.473
78364W        W50789   8.798  21.221   4.684
78365W        W50790  12.832  31.959   0.377
78366W        W50791   3.387  16.652  13.420
78367W        W50792   0.424  19.256  13.353
78368W        W50793  22.087   3.397  14.978
78369W        W50794  10.282   6.358  11.059
78370W        W50795  17.254  17.065   4.764
78371W        W50796  39.446  44.308  13.521
78372W        W50797  23.533  12.695   2.343
78373W        W50798  27.674  42.292   4.711
78374W        W50799   8.885   7.747   0.831
78375W        W50800   7.726  13.697   4.134
78376W        W50801  21.155  44.316   0.455
78377W        W50802  17.780  20.730  12.432
78378W        W50803   7.353   5.286   4.279
78379W        W50804   6.402  43.797  14.876
78380W        W50805  20.698  36.038   2.816
78381W        W50806  29.518  21.586   0.379
78382W        W50807  32.434  18.764  14.859
78383W        W50808  42.474  25.163  10.597
78384W        W50809  42.924  31.604   3.857
78385W        W50810   6.886  40.819  14.320
78386W        W50811  34.557  33.455  13.514
78387W        W50812   0.493  18.117  12.352
78388W        W50813  10.713  22.526   4.797
78389W        W50814  24.598  21.747   3.381
78390W        W50815  17.584  39.913  12.056
78391W        W50816   6.863  14.186  11.533
78392W        W50817  29.488  13.608   1.805
78393W        W50818   2.811  14.743  11.509
78394W        W50819   4.862  31.597  14.799
78395W        W50820   7.733  31.477  11.118
78396W        W50821  11.839  19.270  13.348
78397W        W50822   3.795  30.556   2.698
78398W        W50823   4.785   9.789   1.735
78399W        W50824   4.268  35.926  11.015
78400W        W50825  33.127  30.006   1.742
78401W        W50826  34.979  23.028   4.164
78402W        W50827  42.301  11.848  14.292
78403W        W50828  16.141   2.786  13.056
78404W        W50829   8.894  33.080   3.340
78405W        W50830  37.039   7.362   4.609
78406W        W50831  26.691  17.606   4.819
78407W        W50832  38.949   0.797  11.928
78408W        W50833  28.634  24.541   0.361
78409W        W50834  34.947  16.182   1.847
78410W        W50835   7.217  23.672   1.870
78411W        W50836   1.898   0.787   3.178
78412W        W50837  20.078   3.885   0.454
78413W        W50838   0.253  10.641  14.824
78414W        W50839  36.518   9.297   1.713
78415W        W50840  15.602  20.764  12.411
78416W        W50841   8.278  30.029  11.410
78417W        W50842  39.356  27.040   3.381
78418W        W50843  38.832  20.244   0.853
78419W        W50844  31.641   2.908   1.696
78420W        W50845  21.744  30.048  12.948
78421W        W50846  19.703  22.110   1.759
78422W        W50847  10.654   7.302  13.009
78423W        W50848  22.653  35.865  13.400
78424W        W50849  13.638  41.536   0.927
78425W        W50850  15.110  18.285  14.992
78426W        W50851   6.404  32.995  13.843
78427W        W50852  41.449  40.811  10.934
78428W        W50853  26.659   3.924   1.445
78429W        W50854   7.238  39.338  11.031
78430W        W50855  40.846  41.350  12.479
78431W        W50856  16.792   6.729   3.658
78432W        W50857   6.306   9.843  12.376
78433W        W50858  18.280  20.542  11.957
78434W        W50859  14.316  12.148   1.879
78435W        W50860  13.701  33.014  11.921
78436W        W50861  42.322  32.936  14.959
78437W        W50862   0.881  10.749  13.353
78438W        W50863   7.386  32.042   0.893
78439W        W50864  34.955  16.100   4.203
78440W        W50865  19.691  37.037   1.435
78441W        W50866   0.463  17.198   4.263
78442W        W50867  11.814  27.624  11.055
78443W        W50868  37.512  42.969  12.403
78444W        W50869  37.515  35.928  12.374
78445W        W50870  22.545  34.401  11.444
78446W        W50871  31.055   3.418   3.155
78447W        W50872  12.833  25.495   1.797
78448W        W50873  34.376  16.226   0.902
78449W        W50874   8.679  21.519  13.537
78450W        W50875  13.189  29.008   3.154
78451W        W50876  32.077  15.594   1.793
78452W        W50877   7.372  29.588  11.024
78453W        W50878  12.752  24.559   2.822
78454W        W50879  14.809  30.604   3.745
78455W        W50880   0.386  20.145   2.232
78456W        W50881  17.612  21.530  13.006
78457W        W50882  28.601   6.238  13.927
78458W        W50883  32.942  12.296  13.424
78459W        W50884  15.133   2.355  14.363
78460W        W50885  11.700   5.425  11.078
78461W        W50886  35.500  10.261   1.851
78462W        W50887  25.542   0.807  10.420
78463W        W50888   7.894  18.161   1.800
78464W        W50889  27.967  27.460  10.046
78465W        W50890  10.163  35.457   4.790
78466W        W50891  40.435  30.077  14.371
78467W        W50892  32.505  12.354  11.393
78468W        W50893  11.648  18.650   2.197
78469W        W50894  13.647  10.764  12.506
78470W        W50895   3.850  24.087   4.316
78471W        W50896  19.126  14.261   2.223
78472W        W50897  21.583  15.291  10.414
78473W        W50898  29.923  35.050   3.661
78474W        W50899   7.886   8.811   1.865
78475W        W50900  31.486  41.399   3.672
78476W        W50901  35.480  11.654   3.813
78477W        W50902   9.747  38.400  10.405
78478W        W50903  44.295  29.656  13.352
78479W        W50904  34.070  18.650   3.254
78480W        W50905  21.230  32.046   5.205
78481W        W50906  18.708  27.095   1.842
78482W        W50907   0.384  23.998  12.545
78483W        W50908  40.826  27.540  10.947
78484W        W50909  41.468   4.919  14.990
78485W        W50910  34.050  20.177  14.950
78486W        W50911  32.605  40.419   4.280
78487W        W50912  33.991  19.047  13.479
78488W        W50913   5.304  13.811  12.539
78489W        W50914  22.651  34.492  10.481
78490W        W50915   1.417  43.901   1.834
78491W        W50916   9.316  22.517  14.996
78492W        W50917  12.821  11.642   2.202
78493W        W50918  35.108  13.275  10.941
78494W        W50919  28.964  12.683   3.216
78495W        W50920  34.448  42.863  14.367
78496W        W50921  29.051  38.534   0.859
78497W        W50922  15.816  43.840   3.352
78498W        W50923  26.197   5.302   1.348
78499W        W50924  22.543  24.506  11.107
78500W        W50925  32.447  38.053   1.447
78501W        W50926  42.907  24.614  11.603
78502W        W50927  27.053  34.102   3.801
78503W        W50928  35.437  36.439   3.683
78504W        W50929  25.036  22.140  14.914
78505W        W50930  20.543  27.975   0.435
78506W        W50931  17.675   8.825  13.344
78507W        W50932  25.015  26.570  12.918
78508W        W50933  31.037  22.095   3.717
78509W        W50934   9.877   8.843  10.454
78510W        W50935  38.055  25.046  12.384
78511W        W50936  39.818  37.060  14.495
78512W        W50937  22.688  23.642  14.291
78513W        W50938  35.065  36.916  10.624
78514W        W50939  23.997  35.867   1.284
78515W        W50940  37.910  39.506  13.345
78516W        W50941  24.172  25.549   0.334
78517W        W50942  15.267  40.940  12.533
78518W        W50943  44.980   0.473   3.170
78519W        W50944  11.763  31.554   4.183
78520W        W50945  32.555  44.420  12.421
78521W        W50946   5.392  27.943   0.299
78522W        W50947  30.553  23.724  14.441
78523W        W50948  42.020   4.272  10.911
78524W        W50949  43.799  12.325  12.530
78525W        W50950  10.166   3.300   2.183
78526W        W50951  37.078  41.340   1.278
78527W        W50952  13.675  23.068  11.076
78528W        W50953  20.169   3.412   4.301
78529W        W50954   6.782  25.583  14.322
78530W        W50955  36.948   2.452  14.933
78531W        W50956  29.964  35.939   3.147
78532W        W50957  16.228  42.925  10.471
78533W        W50958  14.213   1.797   4.123
78534W        W50959  30.441  35.909  13.791
78535W        W50960  16.675  39.390   2.297
78536W        W50961  13.682  28.002  12.409
78537W        W50962  39.542   5.398   2.304
78538W        W50963   5.431   4.210  10.565
78539W        W50964  13.816  43.987  12.858
78540W        W50965  33.949   7.837  14.823
78541W        W50966  11.252  22.713  13.837
78542W        W50967   4.945   5.401   4.318
78543W        W50968  20.219  16.246  13.509
78544W        W50969   2.429   9.163  13.924
78545W        W50970  19.056  23.662  13.544
78546W        W50971  19.774   8.216  11.042
78547W        W50972  18.058  19.154   3.791
78548W        W50973  42.981  43.850   1.782
78549W        W50974  32.020  10.796   3.742
78550W        W50975  23.505  12.777   3.373
78551W        W50976   4.377  29.464  14.488
78552W        W50977  34.888   9.654  14.375
78553W        W50978  15.718  43.468   4.743
78554W        W50979  37.557  26.513   5.177
78555W        W50980  18.698  16.640  10.514
78556W        W50981  34.108  29.433  12.476
78557W        W50982  26.503  16.721  14.000
78558W        W50983   7.845  23.623   9.972
78559W        W50984  34.087  35.867   1.920
78560W        W50985  15.670  29.441   1.233
78561W        W50986  10.178  38.006   2.391
78562W        W50987  21.116  18.070  13.400
78563W        W50988  34.880  37.399   3.747
78564W        W50989  25.057   8.706  13.018
78565W        W50990  33.046   9.148   0.366
78566W        W50991   2.411  13.646  11.112
78567W        W50992  16.702  11.851   4.751
78568W        W50993   6.822  37.336   3.269
78569W        W50994  20.073   2.817  11.512
78570W        W50995  40.426  33.440   5.286
78571W        W50996   5.819  36.579   2.257
78572W        W50997  16.145  24.092   1.890
78573W        W50998  36.007  32.922   3.255
78574W        W50999  16.299   8.702  11.979
78575W        W51000  31.973  31.572   3.756
78576W        W51001  20.558  26.561   0.357
78577W        W51002  21.609  15.222   2.372
78578W        W51003  31.584  32.043  12.912
78579W        W51004  14.166  35.886  13.400
78580W        W51005  26.988  31.517  14.780
78581W        W51006  44.934   0.956   2.868
78582W        W51007  13.840   8.301   0.832
78583W        W51008  37.893  24.165  11.576
78584W        W51009  16.578   8.688   5.204
78585W        W51010  32.549  39.451   1.315
78586W        W51011  26.459   9.213   0.371
78587W        W51012  38.515   5.750  10.496
78588W        W51013  13.276  30.027  12.943
78589W        W51014  18.143  38.876  10.498
78590W        W51015   3.934  37.424   4.604
78591W        W51016  37.864  10.319  13.452
78592W        W51017  30.516   8.291   0.275
78593W        W51018  43.500  14.738  14.785
78594W        W51019  24.560  25.558  12.959
78595W        W51020  34.962  19.205  11.530
78596W        W51021  14.118   9.837  11.906
78597W        W51022  40.908  31.564   3.218
78598W        W51023  39.552   3.772   0.938
78599W        W51024  21.070  32.434  10.590
78600W        W51025  23.501  22.070  14.964
78601W        W51026  39.545  22.021  13.313
78602W        W51027  43.343   4.754   4.302
78603W        W51028  22.724  23.734   5.239
78604W        W51029  43.399  28.561   4.240
78605W        W51030  41.306  15.736  13.376
78606W        W51031   9.310  20.034   2.665
78607W        W51032   7.751  25.609   3.207
78608W        W51033   8.251  42.874   1.278
78609W        W51034  28.936  29.521  12.363
78610W        W51035  21.551  12.120   1.440
78611W        W51036  32.434  15.095   4.723
78612W        W51037  37.429  24.228   4.245
78613W        W51038  44.291  25.504   3.743
78614W        W51039  20.563   8.900  12.430
78615W        W51040   6.815  19.085  13.406
78616W        W51041  34.038  19.086   2.662
78617W        W51042  26.140  23.022  12.825
78618W        W51043  32.515  22.541  14.445
78619W        W51044  16.130   8.364   2.844
78620W        W51045  24.196  43.797   2.715
78621W        W51046   0.392   0.868   4.650
78622W        W51047   0.271   0.295   4.770
78623W        W51048   1.790  40.497   3.310
78624W        W51049  33.459  28.476  11.541
78625W        W51050  26.972   7.254  11.406
78626W        W51051  10.835  27.520   0.758
78627W        W51052  43.922  15.643   4.622
78628W        W51053  27.476  41.459   4.743
78629W        W51054  44.475  35.398   4.598
78630W        W51055  17.164  33.912  14.963
78631W        W51056  39.512  11.141   4.626
78632W        W51057  30.123  20.109   3.256
78633W        W51058  11.127  25.530   0.474
78634W        W51059   5.692  24.539   3.199
78635W        W51060   9.394  17.690   2.730
78636W        W51061   8.694  29.166   0.294
78637W        W51062   8.401  29.545   1.420
78638W        W51063   2.733  21.633   1.913
78639W        W51064  29.465   8.706   4.825
78640W        W51065  37.960   4.807   4.241
78641W        W51066  23.179  16.762  14.968
78642W        W51067  24.163   0.327   4.186
78643W        W51068  10.313  36.354   3.745
78644W        W51069  22.180  20.609  14.296
78645W        W51070   3.222  14.776  12.875
78646W        W51071  19.735   8.365  13.912
78647W        W51072   6.887   1.973  12.514
78648W        W51073   5.883   5.863  13.961
78649W        W51074  25.114  11.796   0.425
78650W        W51075   0.368  26.682  13.917
78651W        W51076  44.890  21.580   1.255
78652W        W51077  12.825  30.590   0.914
78653W        W51078  39.356   1.745   0.360
78654W        W51079  19.061  14.185  14.408
78655W        W51080  17.205   3.343  11.008
78656W        W51081   2.378  30.023   1.718
78657W        W51082   6.422  15.659  13.463
78658W        W51083   0.410  33.012  12.928
78659W        W51084  12.279  19.758   3.178
78660W        W51085  37.544  13.778   2.363
78661W        W51086  41.294  40.514  13.873
78662W        W51087  38.408  26.044  14.442
78663W        W51088  12.299  10.378  10.489
78664W        W51089  29.066   9.752  10.430
78665W        W51090  40.875  11.725   1.931
78666W        W51091  28.988  28.611   1.303
78667W        W51092   9.377  17.067  10.007
78668W        W51093  11.660  11.323  12.566
78669W        W51094  37.557  39.822   2.879
78670W        W51095  18.625  41.503  14.930
78671W        W51096  21.625  36.399   2.833
78672W        W51097  10.823  19.150  13.431
78673W        W51098  23.027  10.867  12.545
78674W        W51099  16.666  23.519  10.618
78675W        W51100   4.829   2.428   0.325
78676W        W51101  17.651  34.434   0.420
78677W        W51102   3.848   6.394  12.448
78678W        W51103  37.064   6.399  12.467
78679W        W51104  26.066  44.904  10.979
78680W        W51105   5.269  29.568   2.822
78681W        W51106   4.867  39.861   0.945
78682W        W51107   0.903   5.879   4.780
78683W        W51108  35.533  37.557  13.471
78684W        W51109   8.268  25.631  14.442
78685W        W51110  14.122   1.830   3.701
78686W        W51111   3.328  23.205  14.760
78687W        W51112  13.674   5.711  14.514
78688W        W51113  40.420   1.461  10.903
78689W        W51114  42.519   1.325   3.703
78690W        W51115  11.370  39.929  14.825
78691W        W51116  18.210  25.041  11.900
78692W        W51117  38.489  24.600  12.499
78693W        W51118  29.994   9.330   3.271
78694W        W51119  12.324  22.229   1.824
78695W        W51120  44.495   6.346  10.467
78696W        W51121  27.167  32.014   0.404
78697W        W51122   7.828  41.394   5.259
78698W        W51123  18.732  12.819  14.775
78699W        W51124  21.039  28.993   2.783
78700W        W51125   9.747  39.872   1.734
78701W        W51126  33.079  34.971   1.424
78702W        W51127  33.110  44.391  12.532
78703W        W51128  16.119   0.455  14.792
78704W        W51129  31.582  40.813  11.986
78705W        W51130  37.910   9.239   5.147
78706W        W51131   3.305  38.895   1.846
78707W        W51132  25.503  17.101   2.188
78708W        W51133  12.845   2.290   2.406
78709W        W51134  22.009  15.193  14.316
78710W        W51135  39.862   6.691   1.881
78711W        W51136  31.556   9.250   1.274
78712W        W51137   8.230   3.933   3.699
78713W        W51138   2.803  25.618  13.516
78714W        W51139  29.621   8.350  13.808
78715W        W51140  40.043  36.587   3.316
78716W        W51141   4.228   1.319   4.725
78717W        W51142  10.871  38.350  11.517
78718W        W51143  40.512  43.018  14.432
78719W        W51144  26.157  17.604  12.846
78720W        W51145   1.886  33.902   1.228
78721W        W51146  38.456  11.133   0.808
78722W        W51147  21.676  37.959   0.761
78723W        W51148  20.718  41.946  12.496
78724W        W51149  10.158   3.899   5.214
78725W        W51150   3.326  40.348  10.557
78726W        W51151  43.775  33.489  12.951
78727W        W51152  33.583  38.382  10.576
78728W        W51153  18.212  16.717  12.559
78729W        W51154  40.348  33.028   2.268
78730W        W51155  13.831  20.540   3.682
78731W        W51156   0.858  17.278   1.799
78732W        W51157   5.772   5.355   0.901
78733W        W51158  34.920  29.999   3.664
78734W        W51159   4.927   2.829  11.960
78735W        W51160   7.746  44.370   4.739
78736W        W51161  25.112  10.170   0.917
78737W        W51162  25.985  13.171  14.782
78738W        W51163  33.438  15.727   3.221
78739W        W51164  27.956  41.522   2.815
78740W        W51165  30.014  36.875   2.899
78741W        W51166   7.280  19.674   1.383
78742W        W51167  23.108   9.291   3.808
78743W        W51168  29.645   8.388  14.464
78744W        W51169  38.414  19.214   1.421
78745W        W51170  41.867  12.725  13.350
78746W        W51171  43.305  30.112   2.281
78747W        W51172  26.690   2.842  13.350
78748W        W51173  10.233  25.187  10.548
78749W        W51174  12.622  30.437   4.612
78750W        W51175  44.462  16.278  14.361
78751W        W51176  26.154  28.679  10.985
78752W        W51177  28.994  26.558  14.481
78753W        W51178  42.425  19.254  10.906
78754W        W51179  24.692  41.327  12.018
78755W        W51180  17.567   6.237  11.070
78756W        W51181  25.569  24.061   3.713
78757W        W51182  27.477  39.442  13.928
78758W        W51183  23.608  12.766   1.811
78759W        W51184  16.132  39.500  13.002
78760W        W51185  40.945  44.470  10.618
78761W        W51186   3.909  36.025  14.443
78762W        W51187  30.568  19.061   4.664
78763W        W51188  34.881  32.477   0.731
78764W        W51189  42.862  10.634  11.043
78765W        W51190  27.553  29.143  12.411
78766W        W51191  40.894  39.870   4.174
78767W        W51192  26.687  13.285   0.839
78768W        W51193   9.712   0.403  14.985
78769W        W51194  22.655  40.966   1.697
78770W        W51195  30.047  34.572  13.322
78771W        W51196  18.695  28.013  12.953
78772W        W51197  23.193  33.578  13.815
78773W        W51198  34.018  22.696  12.003
78774W        W51199  29.424  42.318   3.345
78775W        W51200   0.952  22.597   2.673
78776W        W51201  16.209  13.684   4.683
78777W        W51202  16.119  31.984   4.680
78778W        W51203  32.885  31.422   3.374
78779W        W51204  28.028  28.933  11.441
78780W        W51205  37.473  14.775  14.332
78781W        W51206  17.098  41.529   4.751
78782W        W51207  14.650   5.268   1.782
78783W        W51208  33.017   7.353  14.314
78784W        W51209   7.889  44.310  10.637
78785W        W51210  30.460   6.842  13.491
78786W        W51211   6.802  34.970   3.318
78787W        W51212   2.731  24.110  11.554
78788W        W51213  14.159   3.254  10.991
78789W        W51214  15.111  42.025  12.993
78790W        W51215  37.918   9.245   5.708
78791W        W51216  11.353  10.789   2.800
78792W        W51217  35.523  12.195   1.239
78793W        W51218  33.472  22.132   1.347
78794W        W51219   3.447  36.353   3.159
78795W        W51220   0.920  10.755  14.777
78796W        W51221   7.796  43.875  13.856
78797W        W51222  34.586  44.789   4.779
78798W        W51223   9.263  15.752  13.349
78799W        W51224   8.788  12.131  14.781
78800W        W51225  30.596   3.386   1.325
78801W        W51226  34.939  22.741  10.422
78802W        W51227  31.580  28.162   3.258
78803W        W51228  33.072  17.243   0.809
78804W        W51229   2.854  22.570   0.849
78805W        W51230   8.383  27.088  11.905
78806W        W51231  26.702  20.595   0.964
78807W        W51232   6.395   9.683   2.413
78808W        W51233  32.494  41.517   5.278
78809W        W51234   3.386  26.544  14.942
78810W        W51235  40.413  31.518  12.464
78811W        W51236  20.608  34.582   3.267
78812W        W51237  28.184  35.062   3.277
78813W        W51238  19.080   1.746  13.440
78814W        W51239  33.919  41.403  10.624
78815W        W51240  14.676   9.810  12.846
78816W        W51241  21.213   4.354  11.018
78817W        W51242  43.316  10.195  12.343
78818W        W51243   1.439  10.845  13.423
78819W        W51244  25.045  41.803  14.842
78820W        W51245  31.079  24.025   1.781
78821W        W51246   7.700  31.914   1.431
78822W        W51247  35.409  24.494   1.313
78823W        W51248  11.820  23.601   0.825
78824W        W51249  39.445  21.197  13.792
78825W        W51250   7.901  35.553  13.355
78826W        W51251  22.671   0.954  11.034
78827W        W51252  11.701   0.836  13.481
78828W        W51253  44.381  35.532  14.868
78829W        W51254  37.911  16.214  11.606
78830W        W51255  43.785  43.461   3.692
78831W        W51256  36.861  34.947   0.939
78832W        W51257  39.386  13.641   3.255
78833W        W51258   5.731  21.739  12.494
78834W        W51259  29.629  32.049   5.319
78835W        W51260  10.691  42.392  11.114
78836W        W51261  21.059  11.812   1.775
78837W        W51262  28.447   7.405  11.980
78838W        W51263  10.735  42.285  12.418
78839W        W51264  27.534  43.423   4.684
78840W        W51265  28.025  34.454   1.869
78841W        W51266  17.176  21.228  12.071
78842W        W51267  24.715  42.837   4.296
78843W        W51268  40.901  12.255  10.571
78844W        W51269  44.985  23.629  10.992
78845W        W51270  33.392  16.257   4.135
78846W        W51271  33.393  29.958   1.273
78847W        W51272   1.257  24.147  10.902
78848W        W51273   9.800   5.199  10.593
78849W        W51274  42.383  33.940  10.990
78850W        W51275   8.221   5.277  11.069
78851W        W51276  39.982  32.949  12.876
78852W        W51277  39.392  20.061   2.295
78853W        W51278  21.685  29.977   1.303
78854W        W51279  35.033  22.589   2.813
78855W        W51280  19.249  44.324   0.370
78856W        W51281  27.617  34.396   3.376
78857W        W51282   2.738  29.972  14.398
78858W        W51283  32.430  30.633  12.829
78859W        W51284   1.792  33.969   0.900
78860W        W51285   5.869  38.367  10.409
78861W        W51286   3.336   2.760  13.511
78862W        W51287  16.123  41.350  12.985
78863W        W51288  34.539  26.091   2.288
78864W        W51289  27.659   0.333   4.738
78865W        W51290  20.067  12.339  14.877
78866W        W51291   6.712  23.152   0.847
78867W        W51292  33.594   3.948   0.435
78868W        W51293  28.658   8.289   2.249
78869W        W51294  22.550  36.486   3.350
78870W        W51295   9.655  21.689   2.708
78871W        W51296  43.948  10.146  12.955
78872W        W51297  21.235  15.171  13.519
78873W        W51298  40.875   0.373  14.872
78874W        W51299  24.510  42.997  13.438
78875W        W51300   5.342  21.238  11.941
78876W        W51301  29.540  10.828   1.885
78877W        W51302   7.375  36.507  11.898
78878W        W51303  19.115  39.819   3.806
78879W        W51304  28.106  40.865  14.382
78880W        W51305   5.312   1.805   4.751
78881W        W51306  15.319  34.433   0.832
78882W        W51307  44.902  10.331   0.866
78883W        W51308  15.591  24.479  13.324
78884W        W51309  21.037   5.859  12.053
78885W        W51310  43.980  14.650  11.064
78886W        W51311  41.399  44.796  12.050
78887W        W51312   1.790  38.414  14.373
78888W        W51313  33.028  20.105   4.136
78889W        W51314  26.568  27.679   1.350
78890W        W51315  26.001  19.698  13.427
78891W        W51316  44.802  27.128   4.643
78892W        W51317  17.733  39.467  12.937
78893W        W51318  36.870  44.411   1.354
78894W        W51319   2.941  30.109  13.930
78895W        W51320  22.514   9.173  12.851
78896W        W51321  25.136  38.974  10.632
78897W        W51322  28.511  40.410  10.644
78898W        W51323  17.682   9.877   3.304
78899W        W51324  34.026  33.970   0.831
78900W        W51325   3.398   3.780   0.858
78901W        W51326  22.561  13.310   1.372
78902W        W51327  18.175  14.761  14.913
78903W        W51328   3.715  11.823   4.663
78904W        W51329  30.086  26.588  11.892
78905W        W51330  32.073   5.765   3.339
78906W        W51331  38.451  28.089   2.196
78907W        W51332  13.844  33.898  10.923
78908W        W51333  23.603  37.857  12.984
78909W        W51334  20.694   9.760  14.808
78910W        W51335  12.295  21.604  13.917
78911W        W51336  32.487  22.536  13.985
78912W        W51337  28.136  24.045   4.173
78913W        W51338  44.901  33.400  10.442
78914W        W51339  30.922  39.508   0.250
78915W        W51340   5.378  23.113  13.344
78916W        W51341  39.386  10.216   1.762
78917W        W51342  11.686  28.100   1.798
78918W        W51343   4.773   1.933   4.638
78919W        W51344   2.770  26.026   2.278
78920W        W51345  40.458  38.352   0.887
78921W        W51346  29.531   1.787  14.437
78922W        W51347  11.256  22.117   5.651
78923W        W51348   3.711   0.932  11.589
78924W        W51349  20.607  26.680   4.681
78925W        W51350  44.360  33.582  14.498
78926W        W51351  24.985   3.268  12.990
78927W        W51352  21.710   2.371  12.944
78928W        W51353  15.205  17.197   4.222
78929W        W51354   0.863  30.434   3.337
78930W        W51355  20.265  20.255  12.518
78931W        W51356  10.263  16.703  13.493
78932W        W51357  21.023   1.430  10.475
78933W        W51358  27.552   7.341  14.399
78934W        W51359  36.983  38.937   0.876
78935W        W51360  30.635  12.851   0.451
78936W        W51361  29.654  22.520  13.507
78937W        W51362   3.398   3.350  13.821
78938W        W51363  26.090  10.807   0.889
78939W        W51364  35.382  25.608   3.180
78940W        W51365  38.536  16.774  13.349
78941W        W51366  25.654  40.942   0.454
78942W        W51367   3.899  32.126   2.831
78943W        W51368   3.347   9.326   0.760
78944W        W51369  27.450  28.957  14.951
78945W        W51370  20.527  20.650   3.842
78946W        W51371  11.300  16.646   2.327
78947W        W51372   5.910   5.235  14.901
78948W        W51373  12.167   7.267  10.962
78949W        W51374  30.159   5.303   4.740
78950W        W51375  10.370  25.980  10.119
78951W        W51376  10.190   0.487  12.444
78952W        W51377  30.010  21.599  13.854
78953W        W51378  26.474  15.722  14.976
78954W        W51379  39.896  14.182  10.452
78955W        W51380  25.981  36.067   2.413
78956W        W51381  26.637  16.766   1.220
78957W        W51382  13.807  23.670   1.786
78958W        W51383  30.091   0.281   1.451
78959W        W51384   5.395   7.225  10.522
78960W        W51385   6.766  17.643  12.072
78961W        W51386  19.125  20.041   2.771
78962W        W51387   5.261  26.134  10.937
78963W        W51388  30.622   1.459   2.848
78964W        W51389  26.489  40.960   0.324
78965W        W51390  19.174   5.374   2.710
78966W        W51391  25.474  43.308   2.238
78967W        W51392  19.764  30.164  11.451
78968W        W51393  11.208   2.956   2.226
78969W        W51394   9.153  19.266  12.437
78970W        W51395  42.329  36.095   4.183
78971W        W51396  43.327  16.637   0.810
78972W        W51397  28.997  17.177   0.868
78973W        W51398  23.652  34.046   1.795
78974W        W51399  18.246  35.382  10.919
78975W        W51400   5.337  27.586  14.878
78976W        W51401  35.401  26.065  11.386
78977W        W51402  42.951   6.402   4.130
78978W        W51403   6.236  32.608  12.960
78979W        W51404  44.955  22.660  12.410
78980W        W51405   7.237  24.046  11.126
78981W        W51406   9.686   1.367  14.430
78982W        W51407  36.436   0.403   2.796
78983W        W51408  42.979  17.571   0.428
78984W        W51409  18.783  22.210   4.289
78985W        W51410  32.005  37.834   3.168
78986W        W51411  29.556  27.648   4.723
78987W        W51412  11.732  12.757  11.505
78988W        W51413  26.478  10.240   1.761
78989W        W51414  14.312  20.078  13.910
78990W        W51415   7.358  24.547   0.269
78991W        W51416  12.702  11.624   1.297
78992W        W51417  25.063  10.378   1.351
78993W        W51418  24.058  19.111  12.828
78994W        W51419  17.656   6.892   4.133
78995W        W51420  30.423  18.554  14.772
78996W        W51421   0.789  36.027  14.327
78997W        W51422  34.960  12.309   2.387
78998W        W51423  28.108  19.720  13.852
78999W        W51424   8.259  35.408   3.280
79000W        W51425  20.087  20.640   1.359
79001W        W51426  26.509  27.014   1.282
79002W        W51427  11.713  12.848  12.512
79003W        W51428  13.757  16.124   1.851
79004W        W51429  23.672  31.087   0.321
79005W        W51430  16.682  40.048   2.250
79006W        W51431  28.963  31.620   0.811
79007W        W51432  28.082  44.484   0.344
79008W        W51433  11.629   6.371   0.944
79009W        W51434  25.590   1.338  10.576
79010W        W51435  24.038  32.096   5.123
79011W        W51436  19.648  39.949   2.831
79012W        W51437  44.833   6.363   0.929
79013W        W51438  27.669  44.916   1.890
79014W        W51439   4.879   0.264  14.468
79015W        W51440   2.809  25.132   1.922
79016W        W51441  34.589   8.786   4.740
79017W        W51442  31.149  28.061   4.332
79018W        W51443  31.456  17.147   2.367
79019W        W51444  24.199   6.420   5.131
79020W        W51445  12.125  13.617   4.199
79021W        W51446  17.295  18.744  10.453
79022W        W51447   3.326  42.329   1.756
79023W        W51448  33.386  11.177   0.305
79024W        W51449   6.777  30.536  11.428
79025W        W51450   9.770  40.318   2.257
79026W        W51451  15.291  42.938  12.520
79027W        W51452  37.056  40.957  11.056
79028W        W51453   2.367  19.679  12.056
79029W        W51454  40.419   7.679  11.104
79030W        W51455  30.022   6.807  14.454
79031W        W51456  16.200   1.475  14.844
79032W        W51457  40.017   3.852  13.322
79033W        W51458  21.613  32.068   2.210
79034W        W51459  29.663  16.802  14.907
79035W        W51460  32.617  30.163  12.561
79036W        W51461  35.512  44.962   3.288
79037W        W51462   2.230  41.506  11.567
79038W        W51463  11.770  25.634   3.650
79039W        W51464   0.773  13.331  14.402
79040W        W51465  36.364  22.039  11.517
79041W        W51466  13.781  36.468  11.874
79042W        W51467  15.809  30.990  12.391
79043W        W51468  34.534  24.091   0.782
79044W        W51469  15.268  39.011  13.916
79045W        W51470  41.326  31.974   0.873
79046W        W51471  21.669  28.045   0.398
79047W        W51472  36.564   3.739  10.627
79048W        W51473  42.911  44.496   5.085
79049W        W51474   7.175  36.441   3.827
79050W        W51475  11.761  25.019  13.023
79051W        W51476  21.682   5.417  10.469
79052W        W51477  44.441  16.581  12.824
79053W        W51478  15.107  41.463  11.464
79054W        W51479  25.127  30.029   0.827
79055W        W51480  38.397   6.310  12.527
79056W        W51481  43.484  42.980  10.581
79057W        W51482  18.075  31.030  11.467
79058W        W51483   0.853  35.432  13.463
79059W        W51484   6.741  35.527  13.037
79060W        W51485  16.665  40.492  14.500
79061W        W51486  36.992  12.661  10.631
79062W        W51487   9.197  15.817  11.964
79063W        W51488  27.551  35.372   2.855
79064W        W51489  18.114  38.026   3.289
79065W        W51490  15.307   3.791   5.734
79066W        W51491  36.526  27.131  12.390
79067W        W51492   1.965  38.486   1.750
79068W        W51493   1.306  33.430   4.288
79069W        W51494   6.776  35.865   3.307
79070W        W51495  39.328  13.197   2.183
79071W        W51496   0.743  34.048   1.797
79072W        W51497  30.096  38.969   2.706
79073W        W51498   2.810  30.560   1.311
79074W        W51499  11.647   8.742   1.224
79075W        W51500  39.039  18.685   5.249
79076W        W51501  14.671  42.989  10.158
79077W        W51502  28.165  11.646   2.263
79078W        W51503  15.798   3.950   2.744
79079W        W51504   8.882  32.507  14.942
79080W        W51505  17.119   0.323  11.596
79081W        W51506  34.408   2.949   2.302
79082W        W51507  22.239  20.153  14.902
79083W        W51508  26.110  39.486   0.931
79084W        W51509  44.409  31.102   0.947
79085W        W51510  18.186  16.583  14.302
79086W        W51511  22.561  24.660   2.827
79087W        W51512  44.432  34.027   5.574
79088W        W51513  13.638  43.841  11.038
79089W        W51514  10.279  44.262  11.454
79090W        W51515   0.841  26.496  13.959
79091W        W51516  13.666   7.338   0.337
79092W        W51517  35.989  28.035   1.758
79093W        W51518  24.692  30.977   0.416
79094W        W51519   3.349  17.096   3.675
79095W        W51520  44.493  20.733   0.802
79096W        W51521  26.552  26.196  14.933
79097W        W51522  17.628  33.973  12.557
79098W        W51523   3.834  39.521  11.051
79099W        W51524  12.324   0.480  14.426
79100W        W51525  26.192  30.944   3.297
79101W        W51526  24.500   4.358  13.036
79102W        W51527  28.635   3.822  11.371
79103W        W51528  11.233   5.384  13.322
79104W        W51529  31.131  17.133   3.311
79105W        W51530  34.511   0.743   2.710
79106W        W51531  10.751  18.659  14.010
79107W        W51532  30.121  20.271  14.420
79108W        W51533   6.358  42.485   2.895
79109W        W51534  11.785  34.024  14.785
79110W        W51535  12.179   2.229   3.660
79111W        W51536  26.666  37.856  11.395
79112W        W51537  20.101   8.738   3.171
79113W        W51538  26.683  18.211   4.696
79114W        W51539  31.939  30.450   0.802
79115W        W51540  37.061  31.564  10.897
79116W        W51541   3.733  20.047  12.927
79117W        W51542  15.707  38.504  12.484
79118W        W51543  21.625  27.117   1.747
79119W        W51544   6.806   9.723   3.203
79120W        W51545  24.486  28.052   1.442
79121W        W51546  11.770  28.679  13.445
79122W        W51547  36.870  14.263   1.408
79123W        W51548   4.271   5.896   1.411
79124W        W51549  19.538  25.128  11.978
79125W        W51550  42.523  39.950   4.197
79126W        W51551  39.903  19.599  14.880
79127W        W51552   7.394  39.490  11.944
79128W        W51553  29.670  10.321   0.855
79129W        W51554  43.887  11.153  12.481
79130W        W51555   5.761  24.150   1.412
79131W        W51556  40.340  21.747   1.725
79132W        W51557  21.603  19.234   3.287
79133W        W51558  20.107   6.286  11.070
79134W        W51559   2.924   2.849   2.670
79135W        W51560  26.121  13.668  12.360
79136W        W51561  20.161  11.632  13.355
79137W        W51562  27.094  29.949   0.937
79138W        W51563  26.077   1.955  13.046
79139W        W51564  22.068  25.060   4.120
79140W        W51565   2.867  36.585  11.523
79141W        W51566  41.342  43.924   1.334
79142W        W51567  24.225  18.104  11.077
79143W        W51568   4.927  39.063   4.618
79144W        W51569  43.366  33.589   3.803
79145W        W51570  20.584  31.095   0.385
79146W        W51571  27.944  20.265   3.784
79147W        W51572  42.502  32.395  14.019
79148W        W51573   2.296  30.448  11.611
79149W        W51574   6.403  17.221  12.095
79150W        W51575  19.074  32.433   3.238
79151W        W51576  11.854   2.883   4.696
79152W        W51577  15.618   0.284  12.055
79153W        W51578   0.747  37.057  14.818
79154W        W51579   3.283  24.005  14.438
79155W        W51580   0.414  32.435   2.824
79156W        W51581  30.563  27.682   0.363
79157W        W51582  42.953  40.474  13.309
79158W        W51583  17.135  40.031   4.808
79159W        W51584   2.381  22.055   4.606
79160W        W51585  31.940   7.727  11.501
79161W        W51586   6.717  28.160   3.784
79162W        W51587  29.135  11.143  12.525
79163W        W51588  29.049   0.400   4.760
79164W        W51589  26.169  23.238  10.945
79165W        W51590  44.861  34.392   1.768
79166W        W51591  39.053   6.827  12.550
79167W        W51592  27.980  18.681   0.837
79168W        W51593  40.964  12.756   1.371
79169W        W51594  21.602  11.301  10.457
79170W        W51595  16.298  34.021   5.089
79171W        W51596  24.621  31.025  13.363
79172W        W51597  40.001  12.842  10.501
79173W        W51598  14.129   1.434   9.485
79174W        W51599  42.421  40.027   4.744
79175W        W51600  16.628   5.244  10.907
79176W        W51601  35.502  27.074  13.313
79177W        W51602   9.332  10.383  14.295
79178W        W51603  40.425  18.545  12.916
79179W        W51604  22.732  15.631   3.324
79180W        W51605  11.674  11.158  14.298
79181W        W51606   9.645   3.749   1.892
79182W        W51607  39.393  40.495  13.988
79183W        W51608  29.938  15.182   1.371
79184W        W51609  16.095  18.688   4.736
79185W        W51610  43.307  17.655  13.881
79186W        W51611  19.126   9.811   3.177
79187W        W51612   3.731   1.438   3.809
79188W        W51613  14.783  26.177   4.292
79189W        W51614  43.015  35.974   3.287
79190W        W51615   1.937  17.218  12.459
79191W        W51616  38.004   4.738   3.152
79192W        W51617   0.752   9.329  13.836
79193W        W51618  36.878  36.453  12.068
79194W        W51619  26.581   6.423  11.561
79195W        W51620  33.390  19.090   3.851
79196W        W51621  41.418  24.492  14.007
79197W        W51622  33.125  14.673   1.712
79198W        W51623  44.777   1.390  13.035
79199W        W51624  35.100  30.514  13.468
79200W        W51625  29.588  43.789  12.041
79201W        W51626  24.167  31.028  12.457
79202W        W51627  37.881  44.497   2.270
79203W        W51628  34.420   2.414   1.349
79204W        W51629  12.755  33.120   0.965
79205W        W51630   6.731  37.942   2.845
79206W        W51631  16.704   0.285  11.109
79207W        W51632  12.122  41.024   2.787
79208W        W51633   4.921  20.599   2.765
79209W        W51634  31.582  19.552  11.509
79210W        W51635  27.516  26.960  14.306
79211W        W51636  31.640  44.820   2.726
79212W        W51637  32.579   5.409   1.806
79213W        W51638  26.594   7.782   1.726
79214W        W51639  17.565  13.208   4.345
79215W        W51640  24.478   7.202  11.054
79216W        W51641  42.942  37.520   5.112
79217W        W51642  11.854  23.674  14.903
79218W        W51643  23.542  13.320  10.949
79219W        W51644  16.120  38.066   4.685
79220W        W51645  17.683  15.741   1.797
79221W        W51646  44.489  35.444   0.935
79222W        W51647  16.316  25.624   0.368
79223W        W51648   6.832  23.170  10.525
79224W        W51649  22.228  20.076  11.475
79225W        W51650  26.189   1.953  13.984
79226W        W51651   3.416  32.581   1.713
79227W        W51652  44.342   7.223  11.884
79228W        W51653  36.551  13.218  11.926
79229W        W51654   3.825  11.828  11.900
79230W        W51655  10.634  14.186  11.484
79231W        W51656  18.593  22.049  10.556
79232W        W51657  23.190  18.105  13.398
79233W        W51658   5.777  13.154  11.487
79234W        W51659  13.840  20.189  13.929
79235W        W51660  30.080  27.678   1.440
79236W        W51661  33.394   5.828   5.294
79237W        W51662  26.567  22.242  12.427
79238W        W51663  28.654  15.140  12.484
79239W        W51664  32.615  15.117  10.545
79240W        W51665  13.738  32.967  11.476
79241W        W51666  18.568  15.708  13.502
79242W        W51667  10.652   3.929  14.921
79243W        W51668  21.622   5.701   4.209
79244W        W51669  20.037  33.105   3.260
79245W        W51670   9.243   9.175   1.362
79246W        W51671   9.814  32.083  11.928
79247W        W51672  37.954  36.026  11.986
79248W        W51673  37.975  28.146   3.254
79249W        W51674  36.853  33.908   0.857
79250W        W51675  30.926  11.775   2.224
79251W        W51676  36.412  13.768   2.196
79252W        W51677  13.135  22.014  10.076
79253W        W51678  14.589  21.227   0.868
79254W        W51679   8.733  33.562   4.312
79255W        W51680  28.995   3.721   3.386
79256W        W51681  16.272  30.125   3.718
79257W        W51682  17.249  36.918   2.228
79258W        W51683   5.882   9.800  12.875
79259W        W51684   1.365  25.688   1.863
79260W        W51685  28.645   3.396   0.470
79261W        W51686   8.830  11.732  12.552
79262W        W51687  20.228  32.059  12.962
79263W        W51688  35.879  20.740  13.845
79264W        W51689  23.189  27.468   0.438
79265W        W51690   3.386  29.052   4.118
79266W        W51691  30.918  13.147   3.858
79267W        W51692  18.275  35.933   0.472
79268W        W51693  21.040  33.461   2.250
79269W        W51694   7.234   9.668   0.827
79270W        W51695  44.274  31.909   3.200
79271W        W51696  20.691  12.186   4.630
79272W        W51697  14.624  36.566   2.673
79273W        W51698  37.481  42.832  11.376
79274W        W51699  37.462  35.981  14.937
79275W        W51700   7.899   0.261   2.239
79276W        W51701   0.913  16.737  10.547
79277W        W51702  40.542  29.584   2.281
79278W        W51703  38.828  22.577  13.029
79279W        W51704   3.920  24.996  14.894
79280W        W51705  30.498  31.463   1.359
79281W        W51706  17.087  40.417   9.949
79282W        W51707  44.445  41.826  13.430
79283W        W51708  11.370  29.537  10.541
79284W        W51709  41.479  12.713   3.644
79285W        W51710  43.489  22.168   3.312
79286W        W51711  36.504   3.286  13.341
79287W        W51712   4.237  33.112   4.700
79288W        W51713   0.448  17.566  14.785
79289W        W51714   2.729   7.291  12.374
79290W        W51715  24.230  44.314  10.044
79291W        W51716   1.303  40.481   2.876
79292W        W51717  35.915  29.503   5.126
79293W        W51718   8.779  33.888   3.836
79294W        W51719  42.283   6.198  13.030
79295W        W51720  17.562  37.377   3.739
79296W        W51721  13.252  22.167  14.907
79297W        W51722  39.934  39.843   0.459
79298W        W51723  29.153  20.552   5.105
79299W        W51724  35.989  11.241  13.005
79300W        W51725   8.681  14.680  13.351
79301W        W51726  14.171  30.091  14.950
79302W        W51727  16.286  32.634  10.474
79303W        W51728  24.481  42.330   4.180
79304W        W51729   2.403  24.075  12.094
79305W        W51730  18.138  22.678   0.394
79306W        W51731  13.195   2.859  14.363
79307W        W51732  26.532  39.865   1.730
79308W        W51733  28.172  15.771   5.270
79309W        W51734  16.583  36.564  11.456
79310W        W51735  15.771   4.305  14.859
79311W        W51736  43.886  14.829  12.339
79312W        W51737  40.309  29.037   3.307
79313W        W51738  30.514   6.209   0.251
79314W        W51739  18.156  34.377  13.454
79315W        W51740  39.380  20.613   2.397
79316W        W51741  23.080  29.647  10.539
79317W        W51742  37.474   0.345  11.423
79318W        W51743   7.819  40.344   3.188
79319W        W51744   1.796  16.796  11.051
79320W        W51745  14.174   5.849  14.798
79321W        W51746   2.758   7.331   0.817
79322W        W51747  31.932  41.425   4.664
79323W        W51748  22.540  27.491  14.418
79324W        W51749  38.881  25.616  12.096
79325W        W51750  33.588  32.945   1.855
79326W        W51751  25.533  30.052   5.281
79327W        W51752  29.478   0.960  13.312
79328W        W51753  31.422   0.956  11.542
79329W        W51754   7.211  17.616  12.553
79330W        W51755  28.064  20.158  14.465
79331W        W51756  12.196  14.695   1.250
79332W        W51757   7.231  44.917   1.908
79333W        W51758  26.609   3.834  10.445
79334W        W51759  19.049  22.145   3.331
79335W        W51760   8.665  26.531   4.115
79336W        W51761  39.936  21.256   4.729
79337W        W51762  20.060  22.612  10.470
79338W        W51763   8.797  32.483   4.234
79339W        W51764  24.595   6.314   4.119
79340W        W51765  13.599  27.465   2.326
79341W        W51766  44.875  35.472   4.619
79342W        W51767  22.542  16.124  10.946
79343W        W51768   0.943  21.023  13.492
79344W        W51769  29.552  12.613   3.843
79345W        W51770   6.915   4.236  11.460
79346W        W51771   9.345  41.906   2.815
79347W        W51772  25.541   8.370  12.011
79348W        W51773  30.514  41.931  13.490
79349W        W51774  22.579   3.720  12.433
79350W        W51775  34.899  37.000  11.902
79351W        W51776  28.127   7.408  11.564
79352W        W51777  22.089  19.220  14.345
79353W        W51778  23.088  42.479   1.878
79354W        W51779  38.915  12.850  14.469
79355W        W51780  19.241  37.509  11.936
79356W        W51781  31.613  18.774   1.775
79357W        W51782  27.613   5.337   4.603
79358W        W51783   2.334   9.807   3.719
79359W        W51784   9.249  32.021   3.238
79360W        W51785   7.696   8.882   9.971
79361W        W51786  29.457  38.452   5.709
79362W        W51787  11.344   1.256   2.242
79363W        W51788  23.203   3.778  14.936
79364W        W51789  42.917  35.864   2.785
79365W        W51790  37.434   8.659   5.588
79366W        W51791  27.547  28.161  11.582
79367W        W51792  17.098   3.411  11.920
79368W        W51793  32.080  10.867  12.976
79369W        W51794  15.768  19.622  14.460
79370W        W51795   5.244  33.917   3.260
79371W        W51796  13.728  13.701   3.321
79372W        W51797  26.697  16.200  11.414
79373W        W51798  29.162  23.494   1.283
79374W        W51799  16.306  30.622  12.342
79375W        W51800  31.560  35.090  12.963
79376W        W51801  20.167  29.098   1.443
79377W        W51802  14.788  20.651   0.880
79378W        W51803  25.626  44.429  14.017
79379W        W51804  20.733  43.415   1.321
79380W        W51805   7.902  43.406   1.810
79381W        W51806   5.261  28.933   5.265
79382W        W51807   7.867  33.543  10.963
79383W        W51808   4.799  43.430  14.897
79384W        W51809  23.152  23.078  10.494
79385W        W51810  21.251   0.984   2.267
79386W        W51811  16.662  28.126   0.885
79387W        W51812  29.028  21.227  13.465
79388W        W51813  16.197  32.068  10.918
79389W        W51814  26.541  32.598  11.573
79390W        W51815  15.673  12.627   5.100
79391W        W51816  14.214   8.337   1.267
79392W        W51817  23.113   7.297   0.249
79393W        W51818   8.258  34.380   0.306
79394W        W51819  21.604   2.756   4.713
79395W        W51820  41.412   6.260  13.411
79396W        W51821  27.044   0.749  10.637
79397W        W51822  10.802  44.500   3.678
79398W        W51823  32.036  13.766   0.783
79399W        W51824  13.235  30.601  10.532
79400W        W51825  43.516  32.016   1.847
79401W        W51826   2.738   3.443  10.014
79402W        W51827  21.737  43.482  11.010
79403W        W51828  42.471   6.321  11.865
79404W        W51829  22.168   2.343   1.312
79405W        W51830  24.634  33.544  11.465
79406W        W51831   2.725  22.032   2.210
79407W        W51832   4.933  30.519   2.742
79408W        W51833   2.420  44.986   2.681
79409W        W51834  33.124  30.580   0.359
79410W        W51835  32.044   5.364  13.901
79411W        W51836  29.596  13.299  11.869
79412W        W51837  44.377  11.825  13.815
79413W        W51838   1.292  11.365  13.470
79414W        W51839  42.007  31.468   1.281
79415W        W51840  13.157  40.519   3.284
79416W        W51841  27.015  20.702  14.461
79417W        W51842   3.355   0.783  12.875
79418W        W51843  31.021  10.276  10.084
79419W        W51844  17.725  43.889  12.012
79420W        W51845  10.159  15.732   2.859
79421W        W51846   1.480  34.875  14.858
79422W        W51847  16.088  20.683  11.068
79423W        W51848  15.245  41.848  12.428
79424W        W51849  27.531  28.064  14.346
79425W        W51850  29.012  37.481   3.732
79426W        W51851  14.177  24.725   9.444
79427W        W51852   4.905  19.768   0.424
79428W        W51853  33.984  42.783  10.893
79429W        W51854  30.148  34.095  14.762
79430W        W51855  31.402  13.844   4.740
79431W        W51856  21.547   8.797  14.494
79432W        W51857  23.198  26.138  12.432
79433W        W51858  28.009  24.514   1.861
79434W        W51859  27.011  37.335   0.751
79435W        W51860  40.943   6.219  11.505
79436W        W51861  17.591  18.766  10.621
79437W        W51862  36.448  44.402  12.347
79438W        W51863  42.496  12.630   4.796
79439W        W51864  14.792  29.164   0.730
79440W        W51865  43.364  31.606   0.475
79441W        W51866  12.327   6.254   0.363
79442W        W51867  14.668  44.424   3.384
79443W        W51868  18.605   1.822  14.962
79444W        W51869  33.958  32.533  11.869
79445W        W51870  41.303   3.932   0.269
79446W        W51871  34.547  38.570   0.482
79447W        W51872  15.696  31.929   4.276
79448W        W51873   7.764  14.175   3.283
79449W        W51874  19.096   0.855   3.825
79450W        W51875  27.605  44.476   4.835
79451W        W51876   6.236   6.893  14.507
79452W        W51877  36.568   5.273  10.471
79453W        W51878  11.240   1.834   4.209
79454W        W51879  23.152  22.024   3.657
79455W        W51880  34.976   3.763  13.971
79456W        W51881   5.887  22.635   0.301
79457W        W51882  21.586  38.499   1.284
79458W        W51883  18.553  41.462   3.200
79459W        W51884  15.802  42.466  13.457
79460W        W51885  16.173  18.728   0.387
79461W        W51886  43.341  11.834   0.357
79462W        W51887  27.992  42.819   2.337
79463W        W51888  37.971  18.589  13.992
79464W        W51889  33.444   9.782  12.982
79465W        W51890   3.236  24.096   4.186
79466W        W51891  23.142  19.567   1.869
79467W        W51892   7.828  44.968  12.040
79468W        W51893   2.430  17.664  10.972
79469W        W51894  21.182  34.560   1.435
79470W        W51895   1.809  38.376  13.336
79471W        W51896  42.883  16.639   1.216
79472W        W51897  44.780  20.553   0.347
79473W        W51898  38.845   9.243  14.017
79474W        W51899   7.298  27.545  10.497
79475W        W51900  37.079  29.478  13.013
79476W        W51901  42.975   8.858   3.644
79477W        W51902  25.620  29.932  11.992
79478W        W51903  16.651  26.600   0.408
79479W        W51904   4.809  32.413  10.910
79480W        W51905   1.731  15.218   4.349
79481W        W51906  27.688  19.159  14.766
79482W        W51907  36.002  20.058   0.425
79483W        W51908  18.740  20.043   3.648
79484W        W51909  33.111   4.331  13.928
79485W        W51910   8.293  16.313   1.859
79486W        W51911   1.939  13.105   3.305
79487W        W51912  27.631  41.918   1.794
79488W        W51913  13.721  40.798   2.182
79489W        W51914  21.757  40.025   4.294
79490W        W51915  42.518  11.688  11.469
79491W        W51916   7.325  24.637   1.265
79492W        W51917  26.559  31.107   2.187
79493W        W51918  38.972   4.833   3.154
79494W        W51919  28.499  44.841   2.286
79495W        W51920  12.330  21.740   0.875
79496W        W51921  36.072  38.978   0.467
79497W        W51922   8.293   4.273  11.933
79498W        W51923  11.627  15.150   1.700
79499W        W51924  25.984  22.637  14.338
79500W        W51925  41.930  32.606   3.805
79501W        W51926  14.214  44.430   2.253
79502W        W51927  43.355  37.458  11.519
79503W        W51928   2.806   7.290  13.801
79504W        W51929  35.455   0.407  13.977
79505W        W51930   3.814   2.825  10.975
79506W        W51931  17.202  26.556  13.479
79507W        W51932  16.125  18.131  13.433
79508W        W51933   0.864  25.152   0.442
79509W        W51934   5.204  20.200  10.626
79510W        W51935  42.491   4.714   3.273
79511W        W51936  25.705  44.412   1.854
79512W        W51937  19.600  27.492  14.981
79513W        W51938  42.833  13.170  12.984
79514W        W51939  14.160  17.187  14.448
79515W        W51940  13.618  20.736   1.238
79516W        W51941  12.125   7.864   0.253
79517W        W51942   1.295  15.647   1.442
79518W        W51943  33.557  44.414   3.271
79519W        W51944  41.321  44.979  14.427
79520W        W51945   3.450  16.748   0.284
79521W        W51946  44.474  15.214   1.257
79522W        W51947  21.073  33.459   3.676
79523W        W51948  27.484  11.702  10.642
79524W        W51949   2.760  27.055   3.867
79525W        W51950  33.063  30.517  12.934
79526W        W51951   2.806  28.070   4.320
79527W        W51952  17.296  37.556   0.863
79528W        W51953  28.664  36.479  12.426
79529W        W51954  30.028  19.768  13.860
79530W        W51955  35.579  30.907   1.309
79531W        W51956  14.778  21.185   0.450
79532W        W51957   4.415  32.412   4.802
79533W        W51958   6.679  23.663   4.755
79534W        W51959  42.899  35.410  14.887
79535W        W51960  40.833   9.810   2.876
79536W        W51961  31.424   1.825  12.437
79537W        W51962   5.278  41.889  14.343
79538W        W51963  25.999   6.352   3.283
79539W        W51964  14.259  16.291  13.958
79540W        W51965   3.782  39.516  12.971
79541W        W51966  20.261  13.737   1.718
79542W        W51967  10.707   7.279   0.271
79543W        W51968  43.506  20.203  12.510
79544W        W51969  33.906  30.462  11.883
79545W        W51970  16.671  24.084   4.350
79546W        W51971  18.288  12.685   1.377
79547W        W51972  27.007  34.906   3.353
79548W        W51973  33.431  36.024  10.642
79549W        W51974   6.740  19.227   2.835
79550W        W51975   7.288   9.307   2.673
79551W        W51976  40.372  16.100   3.786
79552W        W51977  33.466  22.194   0.319
79553W        W51978  38.021  13.154  14.806
79554W        W51979  25.091  40.927   0.793
79555W        W51980  29.122  18.782   2.789
79556W        W51981  42.326  21.644   9.971
79557W        W51982  22.579   0.853   4.133
79558W        W51983  23.136  42.298  12.417
79559W        W51984  32.488  35.982  11.511
79560W        W51985  32.511  10.199   2.389
79561W        W51986  43.875  25.656   4.190
79562W        W51987  20.041   1.254   2.353
79563W        W51988   3.875  35.436  13.967
79564W        W51989  29.061  10.687  11.587
79565W        W51990  32.439   4.719   0.751
79566W        W51991  33.983  30.604   4.775
79567W        W51992  35.597  39.496  11.580
79568W        W51993   3.382  23.077   2.343
79569W        W51994   0.746   5.337   0.779
79570W        W51995  35.013  27.006  10.999
79571W        W51996  34.403  41.857   2.261
79572W        W51997  15.138   4.339   1.910
79573W        W51998   8.203   9.242  14.900
79574W        W51999  41.426  19.652   4.834
79575W        W52000  18.632   4.907  10.145
79576W        W52001  44.780  30.422   1.753
79577W        W52002  38.442  29.040  13.420
79578W        W52003   5.308  42.286  11.506
79579W        W52004  18.553  24.136  11.456
79580W        W52005   9.292  38.545   0.796
79581W        W52006   6.285   2.270  12.389
79582W        W52007  24.091   7.855   2.892
79583W        W52008  31.932  18.788   0.341
79584W        W52009   7.788  19.155   1.402
79585W        W52010  36.390   4.769  12.566
79586W        W52011   7.902   3.712   0.749
79587W        W52012  10.243  20.721  10.957
79588W        W52013  16.216  13.179   2.200
79589W        W52014   6.320  42.398  13.308
79590W        W52015  19.719  33.410  14.921
79591W        W52016   1.802  27.995   4.749
79592W        W52017  23.698  40.366  12.951
79593W        W52018  40.802   4.412   0.476
79594W        W52019  12.183  34.419   2.741
79595W        W52020  25.675   5.258   2.717
79596W        W52021  25.974   9.362  10.430
79597W        W52022  12.810  27.981   0.263
79598W        W52023   9.728  38.556  13.329
79599W        W52024  33.129   7.319   0.410
79600W        W52025   5.426  36.589  12.947
79601W        W52026  19.170  29.076  10.975
79602W        W52027  21.731   1.821   4.647
79603W        W52028  10.342   8.752   3.725
79604W        W52029  11.369  30.115   4.665
79605W        W52030  22.070  27.685  11.940
79606W        W52031  26.113   3.790  14.878
79607W        W52032  39.470   7.839  10.968
79608W        W52033  26.008  10.261   3.320
79609W        W52034   8.777  27.167  14.865
79610W        W52035  14.269  27.186   0.885
79611W        W52036  35.371  27.489  14.887
79612W        W52037  42.009   7.215   2.765
79613W        W52038  39.936  11.130   1.324
79614W        W52039   8.791   4.241  14.883
79615W        W52040   6.728   8.256  12.017
79616W        W52041   0.896  40.983   4.336
79617W        W52042  17.216  40.929   9.955
79618W        W52043  11.308  24.547   5.738
79619W        W52044  16.614   5.700   0.252
79620W        W52045  37.896   0.902   0.386
79621W        W52046   3.317  23.525  14.500
79622W        W52047   7.836  11.281   3.737
79623W        W52048  13.747  42.009   2.348
79624W        W52049  23.712   2.288  13.029
79625W        W52050   6.392  44.372   3.224
79626W        W52051  13.836  27.009   0.269
79627W        W52052   6.826  43.479   2.404
79628W        W52053  35.095  33.441   2.848
79629W        W52054   1.338  21.120  14.927
79630W        W52055  31.547   1.926  13.331
79631W        W52056   0.484  11.805  14.778
79632W        W52057   5.769  41.834   2.301
79633W        W52058   7.270  36.414   3.218
79634W        W52059  36.939  18.211   4.657
79635W        W52060  34.517   6.783  13.971
79636W        W52061  39.337  38.033  11.582
79637W        W52062  39.939  23.506   1.931
79638W        W52063  37.854  28.999  11.485
79639W        W52064  43.822   1.975  13.975
79640W        W52065  22.628  31.954  11.971
79641W        W52066   7.840   3.337   4.767
79642W        W52067  39.016  23.494  14.468
79643W        W52068  21.149  20.560  10.970
79644W        W52069  34.458  24.174   3.841
79645W        W52070  38.492   9.190  12.046
79646W        W52071  36.520  17.740  11.570
79647W        W52072  12.833  20.574   0.286
79648W        W52073  42.000  42.362  13.064
79649W        W52074  15.780  25.045   5.132
79650W        W52075  30.628  38.989   3.152
79651W        W52076  12.184  41.973  10.954
79652W        W52077  43.898  31.470  14.330
79653W        W52078   8.252  24.610  12.958
79654W        W52079  17.074  33.409  13.466
79655W        W52080  14.132  24.144  11.097
79656W        W52081  14.734  25.606  11.062
79657W        W52082   0.308  24.533   4.327
79658W        W52083  34.423  33.031  12.971
79659W        W52084  10.744  26.494   2.368
79660W        W52085  41.492  41.941   2.221
79661W        W52086  18.711  18.274   2.332
79662W        W52087  17.282  11.245  11.512
79663W        W52088  17.762   5.826   4.638
79664W        W52089  32.486   4.820  14.908
79665W        W52090  26.199  17.615   4.128
79666W        W52091  41.989  29.608   3.816
79667W        W52092  27.515   0.956  12.889
79668W        W52093   2.762   2.785  11.430
79669W        W52094   7.867  33.912  14.935
79670W        W52095  31.115   8.770  13.871
79671W        W52096  39.445  26.157  11.123
79672W        W52097  26.680  43.010  10.923
79673W        W52098  22.128  37.423   1.744
79674W        W52099  21.627  26.624  14.963
79675W        W52100   1.334  20.241  14.892
79676W        W52101   6.193  41.463   4.645
79677W        W52102   2.732  40.494   4.345
79678W        W52103  15.647  37.469   3.151
79679W        W52104  35.459  22.052  12.365
79680W        W52105  33.549  16.684   2.692
79681W        W52106  12.224  27.084   2.755
79682W        W52107  31.554  44.806  12.877
79683W        W52108  30.458  23.167  10.009
79684W        W52109  37.373  41.427   4.187
79685W        W52110  16.311   1.394  12.939
79686W        W52111  41.502   7.286  14.457
79687W        W52112  41.510  19.707   2.253
79688W        W52113  29.524  17.670   2.207
79689W        W52114  17.677   8.381  11.454
79690W        W52115  13.714  22.598   4.729
79691W        W52116  11.809  28.645   1.382
79692W        W52117  27.510   5.366  10.429
79693W        W52118  24.054  14.656  11.472
79694W        W52119   4.279  27.639   1.730
79695W        W52120  42.984  27.530  10.905
79696W        W52121   8.718  40.953   3.194
79697W        W52122   2.739  26.122  10.888
79698W        W52123   3.821   5.201  10.645
79699W        W52124  19.072  15.280  12.401
79700W        W52125   5.770  36.419  12.018
79701W        W52126  37.966   7.222   2.719
79702W        W52127  42.920   7.849   4.224
79703W        W52128   7.847   3.945  12.407
79704W        W52129  16.076   4.849  11.123
79705W        W52130  24.680  32.569   4.315
79706W        W52131   0.806  17.752  12.515
79707W        W52132  15.786  28.513  11.420
79708W        W52133  31.033  19.222  11.089
79709W        W52134  22.216  16.667   1.278
79710W        W52135  42.367  43.921  14.374
79711W        W52136  16.315  36.371   1.712
79712W        W52137  21.059  35.590  10.416
79713W        W52138  13.814  19.668  13.827
79714W        W52139  24.546  33.877  14.790
79715W        W52140  20.178   1.450   3.173
79716W        W52141  14.258   9.193  12.895
79717W        W52142  37.434  38.045  12.484
79718W        W52143  41.438   2.813  13.476
79719W        W52144  24.690  19.154  10.569
79720W        W52145  40.409  39.886  13.405
79721W        W52146   2.263  43.849  10.920
79722W        W52147  36.979  11.656   0.267
79723W        W52148   9.160  26.480   4.836
79724W        W52149  26.677  12.667   4.681
79725W        W52150  37.516  41.293  10.485
79726W        W52151  21.177  15.613  10.633
79727W        W52152  23.094  39.422  14.314
79728W        W52153  24.641  42.408   0.785
79729W        W52154  44.296  41.906   1.322
79730W        W52155  35.595  39.823  14.470
79731W        W52156  14.792   3.355  11.528
79732W        W52157  13.781   2.455   3.679
79733W        W52158  27.558  16.291  10.566
79734W        W52159  35.996  19.733  12.979
79735W        W52160  37.900   9.727   1.353
79736W        W52161  42.969  37.531   1.327
79737W        W52162   9.687   9.824  13.884
79738W        W52163  24.520  19.625  14.971
79739W        W52164  31.498  21.091  11.975
79740W        W52165  10.232  10.823   2.807
79741W        W52166  24.121   3.396   2.365
79742W        W52167  36.440  19.713   2.370
79743W        W52168  16.191  14.102  11.384
79744W        W52169   1.476  38.957   0.443
79745W        W52170  38.457  23.115   2.190
79746W        W52171   8.391   7.232   3.710
79747W        W52172  32.060   6.750  12.926
79748W        W52173  20.684  29.935  13.810
79749W        W52174  36.559  37.400   4.682
79750W        W52175  17.087  37.396  13.366
79751W        W52176  22.640   3.839   0.905
79752W        W52177  19.097   2.292   0.393
79753W        W52178  18.559   2.916   1.411
79754W        W52179  26.628   8.401  11.425
79755W        W52180   1.347  34.539  14.352
79756W        W52181  27.146   4.889   3.756
79757W        W52182  15.770  13.351  11.979
79758W        W52183  19.666  14.331  14.810
79759W        W52184  39.390   2.353   4.653
79760W        W52185   0.378  29.986  12.055
79761W        W52186  19.612  12.833   4.605
79762W        W52187   7.408  33.902   1.393
79763W        W52188   9.303   9.217  13.947
79764W        W52189   2.351   3.439  13.801
79765W        W52190   4.224  34.552  12.545
79766W        W52191  38.076   5.426   4.708
79767W        W52192  31.524  31.012   1.333
79768W        W52193  14.590   4.727   2.673
79769W        W52194   6.732  18.106  10.545
79770W        W52195  21.102  34.465   0.451
79771W        W52196  20.132  43.799  14.483
79772W        W52197  21.088  10.148   2.413
79773W        W52198  19.629  14.201  13.930
79774W        W52199  19.099  33.491   1.442
79775W        W52200   7.851  38.907  11.375
79776W        W52201  32.994  11.680  12.440
79777W        W52202  22.039  26.542   1.713
79778W        W52203  38.392  40.307  12.428
79779W        W52204   9.149  37.496   2.391
79780W        W52205  12.805  37.051  14.515
79781W        W52206  20.195  18.133   1.451
79782W        W52207   6.807  21.236  11.010
79783W        W52208  22.543  32.524   1.277
79784W        W52209   4.365  11.849  12.005
79785W        W52210  41.346  31.519   2.360
79786W        W52211   8.324  29.507  13.831
79787W        W52212  17.664  40.043  14.508
79788W        W52213  23.590   5.199  14.943
79789W        W52214  34.588  18.205  11.380
79790W        W52215  43.412  24.560  13.038
79791W        W52216   0.258  14.784  13.839
79792W        W52217   1.292  40.388   4.344
79793W        W52218  25.706  28.546  14.944
79794W        W52219  17.591  11.170  13.895
79795W        W52220  43.306  34.519  10.942
79796W        W52221  27.950   3.942  14.025
79797W        W52222  26.558  35.098   2.882
79798W        W52223  23.156  43.923   1.361
79799W        W52224  34.089  29.041   3.282
79800W        W52225   2.946   2.363  12.856
79801W        W52226  10.738  24.117  11.481
79802W        W52227  23.662  31.436   4.252
79803W        W52228   3.874  27.486   3.782
79804W        W52229   8.897  43.801   2.897
79805W        W52230  36.973  17.256  13.903
79806W        W52231  42.286  27.575   4.260
79807W        W52232  21.127  41.313  13.480
79808W        W52233  30.955  15.142   2.692
79809W        W52234  18.224   7.348   4.207
79810W        W52235  32.104  21.723  10.630
79811W        W52236   1.773   8.681   1.253
79812W        W52237  34.427  41.998   4.248
79813W        W52238  32.452  38.899  11.108
79814W        W52239  13.238   7.300  14.825
79815W        W52240  32.612  23.594   1.696
79816W        W52241  15.130  36.846  11.446
79817W        W52242   8.262  30.550  14.306
79818W        W52243  16.664   5.304   2.280
79819W        W52244  13.153  38.515   2.789
79820W        W52245   0.331  13.250   4.613
79821W        W52246  13.642  35.602  11.457
79822W        W52247  38.836  14.162   0.870
79823W        W52248  11.733  14.300   1.752
79824W        W52249  25.991  28.173   0.870
79825W        W52250  22.020   9.311  14.397
79826W        W52251  12.756   7.254   1.267
79827W        W52252  37.899   1.765   4.779
79828W        W52253  12.718  36.396  10.961
79829W        W52254   6.332  20.134  13.940
79830W        W52255  13.130   2.338   1.739
79831W        W52256  12.184  30.564  11.128
79832W        W52257  34.419  11.673   1.742
79833W        W52258  35.951  33.571  11.557
79834W        W52259  23.202   3.266  14.356
79835W        W52260  11.286  11.749  10.492
79836W        W52261  39.847  19.138   0.418
79837W        W52262  39.021  29.971  10.419
79838W        W52263  38.393  42.847   3.375
79839W        W52264   0.850  42.981   3.350
79840W        W52265   5.821  32.931   0.419
79841W        W52266  15.259  17.696  13.349
79842W        W52267   5.295  20.127  12.093
79843W        W52268  24.528  44.493   4.230
79844W        W52269  19.711  13.275  14.925
79845W        W52270  30.414  23.234  11.068
79846W        W52271  19.104  43.021   3.665
79847W        W52272  26.150  43.350  14.950
79848W        W52273  21.125   2.414  11.946
79849W        W52274  31.138   9.643   4.605
79850W        W52275  20.523   3.881   4.802
79851W        W52276  41.965   0.308  12.369
79852W        W52277  32.888  37.079  13.884
79853W        W52278   0.887  18.267   4.622
79854W        W52279  35.929  37.077   2.707
79855W        W52280  39.924  41.021  12.945
79856W        W52281   7.804   6.820   3.838
79857W        W52282  25.638  12.743   2.798
79858W        W52283  37.561   4.720   1.801
79859W        W52284  34.866   7.871  12.414
79860W        W52285   0.826   0.359   0.450
79861W        W52286   8.753  21.679   2.291
79862W        W52287  36.369   8.178  14.931
79863W        W52288  29.967  37.361   0.873
79864W        W52289  15.767  33.119  12.949
79865W        W52290  42.306  17.179  11.962
79866W        W52291  36.536  33.130   3.259
79867W        W52292  40.876  21.753  13.029
79868W        W52293  32.529  31.915   0.739
79869W        W52294  22.689  19.714  12.570
79870W        W52295  26.151   1.306   3.761
79871W        W52296  34.986  29.131   0.880
79872W        W52297  23.166  29.645   2.736
79873W        W52298  21.583  19.084  12.093
79874W        W52299   0.752  13.264  12.519
79875W        W52300  25.696  22.716   4.272
79876W        W52301  35.912   7.399   3.302
79877W        W52302   1.399  22.580   4.236
79878W        W52303  10.857  30.620   4.225
79879W        W52304  11.351  42.284   3.329
79880W        W52305  34.906   9.335   2.661
79881W        W52306   3.918  27.011   1.856
79882W        W52307  12.726   5.333   4.280
79883W        W52308  27.089   0.896   4.675
79884W        W52309  14.703   2.325  14.487
79885W        W52310   5.695  42.308  11.594
79886W        W52311  19.771  14.822  12.527
79887W        W52312  13.687  15.289   4.186
79888W        W52313  18.261  35.555  10.539
79889W        W52314  44.783   3.356   9.943
79890W        W52315  40.460  34.933   2.754
79891W        W52316  12.212  41.027  10.542
79892W        W52317  44.903  31.965  11.083
79893W        W52318  39.340  33.568   1.797
79894W        W52319  33.548  13.301   3.716
79895W        W52320  39.500  27.491   0.344
79896W        W52321  18.061  40.868   0.310
79897W        W52322  41.021  32.446   3.669
79898W        W52323  11.288  33.964  11.000
79899W        W52324   0.869  23.088  13.368
79900W        W52325  22.208  20.744  11.956
79901W        W52326  25.975  30.437   0.749
79902W        W52327   7.346  12.732   0.474
79903W        W52328   5.708  26.051   2.262
79904W        W52329  43.462   1.330  12.461
79905W        W52330  16.075  38.017  14.024
79906W        W52331  43.990  41.329  12.946
79907W        W52332   9.335  29.035   2.395
79908W        W52333   5.249  44.302  14.422
79909W        W52334  15.096  32.059   2.369
79910W        W52335  14.773   3.832  11.985
79911W        W52336  28.125  11.155  14.841
79912W        W52337   8.386  15.292   0.327
79913W        W52338   6.745   6.829   2.778
79914W        W52339  13.841   6.817   0.769
79915W        W52340   0.383  39.532   4.153
79916W        W52341   6.238   6.395  11.055
79917W        W52342   3.369  41.989   3.663
79918W        W52343  27.192   3.419  12.343
79919W        W52344  27.450  28.478   1.741
79920W        W52345  42.805  27.609   1.703
79921W        W52346   0.356  14.639   4.804
79922W        W52347  21.203  41.328   0.380
79923W        W52348  12.612  40.467   2.326
79924W        W52349   9.249  21.230   4.753
79925W        W52350   8.237  20.203   3.370
79926W        W52351  29.459   8.835  14.877
79927W        W52352   1.885  35.568   0.246
79928W        W52353  16.209  32.011  13.886
79929W        W52354  14.611  25.118   0.421
79930W        W52355  16.292  39.996  10.953
79931W        W52356  28.661  12.646  10.436
79932W        W52357  19.747  40.961  14.865
79933W        W52358  12.745  11.671   4.744
79934W        W52359  44.836  37.378  14.346
79935W        W52360   8.889  10.214  10.910
79936W        W52361  44.336  19.739   2.706
79937W        W52362   5.285  11.297   0.350
79938W        W52363  13.805  30.604   3.791
79939W        W52364  13.749  19.694  11.376
79940W        W52365  38.965  33.016  14.761
79941W        W52366   1.822  18.738  10.520
79942W        W52367  38.070  34.432  11.000
79943W        W52368   5.873  32.975   1.695
79944W        W52369  15.797  23.084  14.931
79945W        W52370  18.273  21.070  11.412
79946W        W52371  26.584  15.688  12.085
79947W        W52372  32.608  40.798   1.809
79948W        W52373   1.294  17.742   3.197
79949W        W52374   3.760  27.613   1.875
79950W        W52375  44.335  35.015  13.829
79951W        W52376  14.225  37.863   1.824
79952W        W52377  23.596  20.728   0.864
79953W        W52378  16.237  17.269   1.817
79954W        W52379  14.792  21.529   0.779
79955W        W52380  25.474  24.065   1.379
79956W        W52381   4.728  11.822  14.358
79957W        W52382  10.376  12.176  10.035
79958W        W52383   3.900   8.166   2.897
79959W        W52384  14.215  37.408   3.671
79960W        W52385  25.632  42.028   1.370
79961W        W52386  17.280  16.579  12.848
79962W        W52387   5.860  29.511   2.848
79963W        W52388  44.853  38.440   3.367
79964W        W52389  39.550  23.643   2.903
79965W        W52390   8.723  36.966  14.032
79966W        W52391   0.370   2.797   0.332
79967W        W52392  19.780  10.842  13.331
79968W        W52393  40.395  33.488  11.994
79969W        W52394  19.128  16.252  11.505
79970W        W52395  39.814   5.794   2.387
79971W        W52396  26.145  40.387  12.880
79972W        W52397  16.568  28.023  12.356
79973W        W52398  26.009  17.221  13.991
79974W        W52399  36.898   2.436   1.211
79975W        W52400   5.329   4.852   4.124
79976W        W52401  12.720   2.443  11.487
79977W        W52402  42.816  33.438  12.454
79978W        W52403   1.849  24.655  10.986
79979W        W52404   6.309  41.790   1.740
79980W        W52405  20.600  16.642  13.425
79981W        W52406  15.138   4.348   2.704
79982W        W52407  15.159  12.817   3.767
79983W        W52408  30.612  30.937   5.115
79984W        W52409   7.666  19.717   1.879
79985W        W52410  13.313  19.731  12.095
79986W        W52411  22.096  21.691  12.832
79987W        W52412  27.687   1.901  13.856
79988W        W52413   2.843  19.610  11.894
79989W        W52414  28.535  33.594  14.781
79990W        W52415  42.837  32.983  14.508
79991W        W52416  27.114  28.565   0.351
79992W        W52417   9.781   3.877  11.473
79993W        W52418  20.178   3.954  13.457
79994W        W52419  34.610  13.225  12.500
79995W        W52420  42.285  12.839   3.842
79996W        W52421  32.102  17.563   0.396
79997W        W52422  31.921   4.207  12.457
79998W        W52423   2.963  33.475   4.296
79999W        W52424  37.839   6.736  14.974
80000W        W52425  13.717  44.492  10.468
80001W        W52426  39.028  17.772   2.678
80002W        W52427  44.001   3.218   1.909
80003W        W52428  32.497  32.954   2.880
80004W        W52429  17.264  28.026   4.277
80005W        W52430  16.718  28.656  14.461
80006W        W52431  23.525   4.236   4.780
80007W        W52432  13.314   4.438   1.242
80008W        W52433   6.343   0.963   2.322
80009W        W52434  11.224  31.455  10.486
80010W        W52435   6.779  22.740   1.854
80011W        W52436  24.050  35.998  13.907
80012W        W52437  10.184  13.350  10.064
80013W        W52438   9.855  18.252  13.048
80014W        W52439  30.131  35.397  14.991
80015W        W52440   8.657   4.400   3.241
80016W        W52441  41.516  27.074  12.919
80017W        W52442  10.677  17.642   1.283
80018W        W52443  22.050  11.836  14.986
80019W        W52444  29.009  22.548   1.866
80020W        W52445  44.361   4.416  11.001
80021W        W52446  44.347  32.461  10.973
80022W        W52447  25.191  26.098   4.709
80023W        W52448  19.715  38.531   0.758
80024W        W52449  27.660  29.159  14.326
80025W        W52450  30.626  41.015   5.308
80026W        W52451   2.790   1.481   4.218
80027W        W52452  28.518  32.457   4.125
80028W        W52453  16.249  28.546  11.375
80029W        W52454  30.087  23.170  13.930
80030W        W52455   4.710  15.320   3.378
80031W        W52456   9.246   4.875   0.900
80032W        W52457  12.684  39.975   1.890
80033W        W52458  34.986   2.904  14.013
80034W        W52459  31.099   5.739   0.320
80035W        W52460   3.779  17.294  12.048
80036W        W52461  27.547   2.730  10.605
80037W        W52462  19.053   3.219   4.688
80038W        W52463   8.244  32.408   3.726
80039W        W52464  27.482  41.965  12.434
80040W        W52465  23.731  16.689  13.926
80041W        W52466  22.170  37.476  11.900
80042W        W52467  26.066  40.010   4.314
80043W        W52468   6.864  14.281  12.508
80044W        W52469   7.257  26.667  14.419
80045W        W52470  43.461  33.433  13.817
80046W        W52471  24.075  43.503   2.875
80047W        W52472  20.715  37.563  11.613
80048W        W52473   3.395  14.620  13.814
80049W        W52474  35.061  23.050  11.990
80050W        W52475  37.368  35.597  14.281
80051W        W52476  40.388  23.219   2.848
80052W        W52477   8.811  23.554  11.034
80053W        W52478  38.979  43.285  14.855
80054W        W52479  16.691  20.101   2.273
80055W        W52480  27.078  43.405  12.069
80056W        W52481  31.961  34.427  14.937
80057W        W52482  14.126  17.718  11.590
80058W        W52483   5.735   7.358   3.253
80059W        W52484  21.558  43.853   3.776
80060W        W52485  26.542  41.033   3.753
80061W        W52486   4.860   1.862  14.770
80062W        W52487  41.359   6.320   1.792
80063W        W52488  43.867  26.153  11.883
80064W        W52489  32.071   8.342   3.841
80065W        W52490  33.106  10.684   2.882
80066W        W52491  18.570  40.965   3.685
80067W        W52492   6.259  13.827   0.264
80068W        W52493  27.195  10.686  13.914
80069W        W52494  25.013  15.231   3.850
80070W        W52495  26.097  21.698  12.565
80071W        W52496   2.275  10.748   2.887
80072W        W52497   3.937  17.160  11.445
80073W        W52498  38.004  35.945  10.561
80074W        W52499   9.704  27.525  14.417
80075W        W52500  39.924  17.789  14.346
80076W        W52501  29.428   3.793  13.467
80077W        W52502  15.316   4.904   4.768
80078W        W52503  39.341   2.339   3.148
80079W        W52504  40.318  10.650   2.891
80080W        W52505  43.308  33.535   2.696
80081W        W52506  43.358  21.658   3.340
80082W        W52507  42.498  19.740   3.173
80083W        W52508  30.119  15.105   3.148
80084W        W52509   5.320  32.410  12.042
80085W        W52510  19.224  13.112  12.064
80086W        W52511  33.010   9.358  13.858
80087W        W52512  40.485  13.647   1.432
80088W        W52513   8.756   4.299  12.522
80089W        W52514  31.998  30.083   4.755
80090W        W52515  14.257  42.789   0.280
80091W        W52516   6.893  36.588  11.503
80092W        W52517  13.210  13.776  11.067
80093W        W52518  16.263  31.486   5.127
80094W        W52519  27.596  29.500   0.804
80095W        W52520  10.732  17.658  11.488
80096W        W52521   5.309  27.124  12.567
80097W        W52522  26.676  39.879  13.492
80098W        W52523  31.971  12.747   0.800
80099W        W52524  30.415   8.352  13.532
80100W        W52525  24.655   1.245   0.337
80101W        W52526  22.690  28.039  11.936
80102W        W52527  42.467  24.195  11.026
80103W        W52528  30.933  38.073  13.053
80104W        W52529  13.120  35.397  10.443
80105W        W52530  42.792   3.290  13.044
80106W        W52531  29.077  39.315  13.802
80107W        W52532  36.041  14.661   4.177
80108W        W52533  43.989   9.195   1.312
80109W        W52534  12.322  17.220  13.802
80110W        W52535  39.857  15.253  12.853
80111W        W52536  44.293  37.873  10.957
80112W        W52537   0.311  23.107   4.807
80113W        W52538  36.419  27.646  13.390
80114W        W52539   0.350  14.288  12.994
80115W        W52540  28.589   5.266   1.790
80116W        W52541  35.033   5.804  14.803
80117W        W52542  23.677  43.507   4.169
80118W        W52543  26.151  11.844   2.812
80119W        W52544  27.472  21.032   0.320
80120W        W52545  44.813   3.736  11.398
80121W        W52546  44.426  31.126   1.881
80122W        W52547  31.490  15.612   3.323
80123W        W52548  35.101  17.166  14.889
80124W        W52549  11.131  31.615   4.679
80125W        W52550  40.950  28.628  10.637
80126W        W52551  43.390  29.967   1.784
80127W        W52552  32.108  24.124   4.182
80128W        W52553  19.722  14.195  13.378
80129W        W52554  27.511  13.761  11.915
80130W        W52555  21.723  18.133   4.218
80131W        W52556   0.353  36.996   2.362
80132W        W52557  42.815  44.979  14.480
80133W        W52558  27.585  20.632   2.868
80134W        W52559  32.079  38.355  13.965
80135W        W52560  41.006  33.918  10.489
80136W        W52561  21.682  35.072  12.981
80137W        W52562  10.727  34.921  11.873
80138W        W52563  32.891  35.505  10.575
80139W        W52564  31.470  21.589   0.915
80140W        W52565  44.301  42.351   3.191
80141W        W52566  37.028   1.471  12.380
80142W        W52567  32.036   8.344   0.431
80143W        W52568   9.747   9.262   1.871
80144W        W52569   0.361  38.417  10.560
80145W        W52570  28.133  36.555   3.229
80146W        W52571  14.730  24.507   1.308
80147W        W52572  32.963  17.787  11.118
80148W        W52573  18.220  19.221  10.930
80149W        W52574  28.111  30.978   3.752
80150W        W52575  18.207  41.916  14.863
80151W        W52576  42.819  37.885   2.746
80152W        W52577   3.937  35.102  11.082
80153W        W52578  27.636  22.686   2.408
80154W        W52579  10.248   1.290  10.596
80155W        W52580  14.096  15.140   1.853
80156W        W52581   4.284  14.689  13.882
80157W        W52582  10.663  32.394  11.382
80158W        W52583  11.657   3.787   0.750
80159W        W52584   4.317  17.730  14.405
80160W        W52585  39.915  44.927   2.769
80161W        W52586  14.627   1.284   5.181
80162W        W52587   3.873  11.810  14.781
80163W        W52588  22.551  42.349   1.314
80164W        W52589  40.884  21.630   0.377
80165W        W52590  30.942   2.317  14.810
80166W        W52591  11.370  24.481   0.791
80167W        W52592  20.189   5.698   0.741
80168W        W52593   7.278  33.033   2.398
80169W        W52594   4.765  24.507   3.262
80170W        W52595  28.960   8.263   3.829
80171W        W52596  42.387  13.131   0.960
80172W        W52597  31.104  27.154  10.461
80173W        W52598  20.175  14.592  14.310
80174W        W52599   5.288  29.955   3.842
80175W        W52600  40.924  44.355  14.850
80176W        W52601  14.264  12.804  12.400
80177W        W52602  41.918  39.485  12.907
80178W        W52603   7.326  18.274  13.033
80179W        W52604  37.364  25.686   0.288
80180W        W52605  19.621  25.156  13.860
80181W        W52606  25.530  42.958   0.949
80182W        W52607  32.633  19.064  14.351
80183W        W52608  27.478  27.576  10.908
80184W        W52609  28.549  16.708  12.542
80185W        W52610  29.532  38.435  11.538
80186W        W52611  44.485  15.195  12.838
80187W        W52612  24.661  11.785   2.313
80188W        W52613  40.344  26.038  11.026
80189W        W52614  42.937   5.906  14.439
80190W        W52615  33.405  30.049   0.942
80191W        W52616  30.590  35.566   3.191
80192W        W52617  44.504  16.271  12.503
80193W        W52618  28.630  36.874  14.874
80194W        W52619  21.043  29.635   0.258
80195W        W52620   4.829  33.946   2.205
80196W        W52621  27.594   3.840  14.809
80197W        W52622   5.900  33.016  14.477
80198W        W52623  38.888   9.166  12.034
80199W        W52624  37.378   8.361  11.514
80200W        W52625  10.680  19.164  14.966
80201W        W52626  22.041  29.959  10.481
80202W        W52627  11.162   2.925  12.063
80203W        W52628  17.567  33.926  12.866
80204W        W52629  43.460  42.488   1.436
80205W        W52630   0.375  14.706   3.630
80206W        W52631  30.605  17.583   2.369
80207W        W52632   5.907  13.323   2.361
80208W        W52633  13.119  40.427  13.927
80209W        W52634  37.060  16.604   3.663
80210W        W52635  10.668  36.476  10.587
80211W        W52636   0.954  37.570  14.970
80212W        W52637  17.187  26.501   1.749
80213W        W52638   5.712  41.424   1.396
80214W        W52639  15.581  35.500   5.294
80215W        W52640  37.454  30.465   1.810
80216W        W52641  22.623  24.973  14.460
80217W        W52642  44.390   5.360   0.361
80218W        W52643  27.619  36.374   1.402
80219W        W52644  20.622  41.023   4.252
80220W        W52645   5.774  10.808   3.244
80221W        W52646  29.106  35.978  14.418
80222W        W52647  37.398   4.778  11.047
80223W        W52648  44.423  31.593   3.859
80224W        W52649  40.914  13.165  14.436
80225W        W52650  20.566  29.433  10.494
80226W        W52651  27.601  31.610  11.425
80227W        W52652  22.630  36.882   0.322
80228W        W52653   0.775  31.029   9.950
80229W        W52654  33.428  24.037  10.514
80230W        W52655  39.427   0.298   3.280
80231W        W52656   0.349  18.052   1.428
80232W        W52657   8.364   2.845  13.835
80233W        W52658  17.229   6.807   1.231
80234W        W52659  37.550  20.650   2.701
80235W        W52660  39.475  35.054   1.290
80236W        W52661  13.294  17.790  11.475
80237W        W52662  17.676  36.070  11.406
80238W        W52663  10.658  41.317  11.953
80239W        W52664   5.846  43.919   2.735
80240W        W52665  14.206   7.177   3.386
80241W        W52666  22.520  13.301   1.769
80242W        W52667  32.565  26.075  13.952
80243W        W52668   2.828  26.183  13.043
80244W        W52669   1.914  29.048  10.435
80245W        W52670  37.975  24.008   1.260
80246W        W52671  31.049   7.200   3.216
80247W        W52672  21.105  31.929   0.937
80248W        W52673  42.807  11.783   5.312
80249W        W52674  40.327  14.178  13.316
80250W        W52675  21.678  10.865   4.705
80251W        W52676  23.699  24.176  11.536
80252W        W52677  41.879  31.899   2.804
80253W        W52678   1.897  28.051  13.889
80254W        W52679  34.982   8.200  10.537
80255W        W52680  14.110   9.201   0.764
80256W        W52681  27.593  38.524   1.238
80257W        W52682  10.316  39.531  11.972
80258W        W52683  41.381  16.300   1.217
80259W        W52684  18.588  26.679  11.060
80260W        W52685   7.261  16.086   0.919
80261W        W52686  21.545  34.041   4.628
80262W        W52687  25.500   4.315  13.436
80263W        W52688  29.152   4.906  12.557
80264W        W52689  32.034  21.699   3.867
80265W        W52690  17.081  30.505  14.007
80266W        W52691  40.838  35.971  11.491
80267W        W52692  33.472  35.912   0.441
80268W        W52693  12.246  22.739  11.421
80269W        W52694  25.635   9.193   1.780
80270W        W52695  25.136  44.322   4.314
80271W        W52696  20.128  27.661  12.966
80272W        W52697   4.838   1.960  13.919
80273W        W52698   8.833  40.393   2.339
80274W        W52699   9.331  28.075  13.530
80275W        W52700  19.736  23.690   0.429
80276W        W52701  42.992  11.133   2.733
80277W        W52702  14.228  17.790   3.669
80278W        W52703  22.160  38.499   3.250
80279W        W52704  25.586  19.123   0.362
80280W        W52705  16.572  37.060   1.877
80281W        W52706   5.365  44.323  10.121
80282W        W52707  18.714  13.266   1.861
80283W        W52708  27.673  17.213  12.577
80284W        W52709   1.924  25.015  13.966
80285W        W52710  41.525  20.700   4.780
80286W        W52711  32.509  36.422   4.734
80287W        W52712  44.295  40.862  12.876
80288W        W52713  39.824   0.295  11.084
80289W        W52714  27.509  31.920   2.233
80290W        W52715   0.335  42.939  14.805
80291W        W52716  31.456  11.142  14.275
80292W        W52717  15.707   6.764  13.322
80293W        W52718  17.594  13.222   0.897
80294W        W52719   1.361  37.470   0.820
80295W        W52720  12.657   5.300  12.077
80296W        W52721   1.891  32.136  12.510
80297W        W52722  31.561  21.114   3.262
80298W        W52723  21.105  23.020  11.381
80299W        W52724  41.999  19.125   1.302
80300W        W52725  29.063  17.745  14.941
80301W        W52726   0.819  14.244  11.576
80302W        W52727  24.674   9.230   1.783
80303W        W52728  27.991  37.859  14.859
80304W        W52729  12.661  30.656  10.420
80305W        W52730  21.754   9.826   0.769
80306W        W52731  39.809  30.585   4.740
80307W        W52732  18.669  33.456  14.002
80308W        W52733  34.105  28.535   2.189
80309W        W52734  43.904  33.395   1.402
80310W        W52735  34.923   8.842   5.088
80311W        W52736  11.347  22.174  12.397
80312W        W52737   4.876  12.293  14.893
80313W        W52738   5.707  14.699   4.339
80314W        W52739  30.067  22.999   1.351
80315W        W52740  19.251   0.441  13.466
80316W        W52741  12.712  22.031   4.275
80317W        W52742  34.944  22.587   4.228
80318W        W52743   0.253  28.984  12.036
80319W        W52744   6.843  34.587  12.416
80320W        W52745  40.957  43.471  12.028
80321W        W52746  44.879  17.299   0.371
80322W        W52747  32.069  17.699   1.803
80323W        W52748   9.253  19.676  13.372
80324W        W52749   7.259  15.227   0.728
80325W        W52750  22.563   1.807  14.806
80326W        W52751  29.962  22.011   2.377
80327W        W52752   1.434   4.376   2.832
80328W        W52753  20.035  29.600   2.351
80329W        W52754  28.575  39.050   3.800
80330W        W52755  42.884  16.569  10.516
80331W        W52756  24.663  13.778   4.770
80332W        W52757  22.695  25.563  11.553
80333W        W52758  20.665  25.090   2.270
80334W        W52759  42.460  21.519   4.305
80335W        W52760  31.151  18.587  11.450
80336W        W52761   1.454   1.970   1.274
80337W        W52762  21.065   8.783  14.015
80338W        W52763  43.919  40.376  14.978
80339W        W52764   3.791  37.401  13.376
80340W        W52765  17.657  14.635  12.862
80341W        W52766  22.600  24.183  13.412
80342W        W52767  20.759  37.988   1.445
80343W        W52768   0.946  38.556  11.026
80344W        W52769  42.327  29.036  10.993
80345W        W52770  26.183   8.252  12.517
80346W        W52771   5.203  10.705  12.921
80347W        W52772  17.560  34.971   2.890
80348W        W52773  15.801  36.008  10.609
80349W        W52774  22.630   8.730   3.799
80350W        W52775  39.436  18.578  14.032
80351W        W52776  26.125   0.429  10.452
80352W        W52777  31.622  36.410   4.645
80353W        W52778  36.871  40.431  12.877
80354W        W52779  26.065  28.153  10.951
80355W        W52780   4.843  20.259  14.495
80356W        W52781  22.670  40.509   4.262
80357W        W52782   3.868  23.499   1.355
80358W        W52783  24.533  21.734  11.600
80359W        W52784  23.696  41.986  10.509
80360W        W52785   7.836  37.410  13.950
80361W        W52786   2.336   2.825   0.370
80362W        W52787   8.863  44.837  14.298
80363W        W52788  30.955   2.826  13.965
80364W        W52789  23.069  10.161   5.238
80365W        W52790  25.124  33.420  11.060
80366W        W52791  10.831  10.232   3.360
80367W        W52792  37.041  26.655   1.789
80368W        W52793  41.993  22.629  12.427
80369W        W52794  38.867  19.708  13.412
80370W        W52795  30.522   6.400   3.748
80371W        W52796   3.865  30.103   1.866
80372W        W52797  26.008   6.358   0.896
80373W        W52798  11.326   6.324  10.595
80374W        W52799  15.591  16.689  12.535
80375W        W52800  31.636  18.234   0.274
80376W        W52801  13.665  42.019   2.859
80377W        W52802  11.711  21.558  12.366
80378W        W52803   7.731   8.265   1.450
80379W        W52804  39.840  10.206   3.819
80380W        W52805   7.786   3.362   0.819
80381W        W52806  30.586   5.284   3.643
80382W        W52807   5.711  31.538   2.801
80383W        W52808  21.199  15.282  13.857
80384W        W52809  41.966  40.441  13.795
80385W        W52810  19.250  20.625  12.342
80386W        W52811   0.845  35.387  12.564
80387W        W52812  25.609  12.346   2.785
80388W        W52813  38.926   4.730  14.365
80389W        W52814  29.145  31.031  14.874
80390W        W52815   3.244   3.420   0.763
80391W        W52816  25.574  20.087  11.079
80392W        W52817  39.813  41.444   2.316
80393W        W52818  24.067   0.357  13.490
80394W        W52819   7.719  44.888   4.691
80395W        W52820  18.635   6.358  10.904
80396W        W52821   6.415   0.361  13.054
80397W        W52822  38.527  43.774  12.915
80398W        W52823  26.459   9.884   1.219
80399W        W52824  44.373  17.300  13.846
80400W        W52825  27.041  31.953  11.927
80401W        W52826  23.492  26.165  13.490
80402W        W52827   7.833  13.117   0.316
80403W        W52828  43.392   3.271   2.682
80404W        W52829  12.846  43.887  14.408
80405W        W52830  29.569  37.896  14.855
80406W        W52831  23.064  32.019  13.426
80407W        W52832  42.517  23.033   1.851
80408W        W52833  14.290  11.218   2.403
80409W        W52834   0.384  22.111   2.667
80410W        W52835  23.538  42.834  14.792
80411W        W52836   9.308   6.249   2.753
80412W        W52837   2.419  28.565  13.437
80413W        W52838  31.417  37.409  14.867
80414W        W52839  13.130   4.299  11.919
80415W        W52840  27.113  12.329   0.437
80416W        W52841  40.485  14.165  13.811
80417W        W52842  23.724  30.487   1.377
80418W        W52843  38.386  43.286   1.705
80419W        W52844  44.980  20.245  11.374
80420W        W52845  24.688  40.840  12.082
80421W        W52846  14.193  29.013   2.396
80422W        W52847  40.922  29.067   3.200
80423W        W52848  10.297  10.764  10.900
80424W        W52849   6.779   8.240   2.404
80425W        W52850  41.344   8.801   2.207
80426W        W52851  21.733  21.714  14.776
80427W        W52852  41.986  28.619  12.922
80428W        W52853   6.240   1.854  14.492
80429W        W52854  29.621  25.474  12.830
80430W        W52855   5.751  13.129   2.745
80431W        W52856  16.684  42.001   1.845
80432W        W52857  39.315  13.163   1.750
80433W        W52858  31.036   8.203  14.943
80434W        W52859  22.518  30.640  13.059
80435W        W52860  22.207  38.832  14.904
80436W        W52861  25.703   2.443  10.474
80437W        W52862  15.218  21.220   4.265
80438W        W52863  15.727  25.566   9.984
80439W        W52864  31.128   5.385  13.542
80440W        W52865  40.375  44.360  13.996
80441W        W52866   5.374   9.697  14.429
80442W        W52867  43.453  28.943  10.406
80443W        W52868  21.574  26.564   4.210
80444W        W52869  32.463  44.358  12.852
80445W        W52870  43.386   4.795  10.450
80446W        W52871  22.685  37.887   0.422
80447W        W52872   6.789  36.855   2.274
80448W        W52873  14.595  30.965  10.582
80449W        W52874  37.987  30.914   2.665
80450W        W52875  39.385   0.373   4.647
80451W        W52876  14.766  44.484   2.291
80452W        W52877  32.049  21.188   2.730
80453W        W52878  26.635   4.886   1.859
80454W        W52879  16.732  19.674   4.801
80455W        W52880   7.782  30.921   4.342
80456W        W52881  27.102   5.367   3.640
80457W        W52882  33.048   1.780  11.543
80458W        W52883  27.469  39.396   0.246
80459W        W52884   4.292  39.415   3.307
80460W        W52885  38.505  13.191  11.509
80461W        W52886   0.425  32.450   0.943
80462W        W52887   7.827  41.985  13.396
80463W        W52888  24.663  13.725  12.455
80464W        W52889  17.618   7.717  11.015
80465W        W52890  26.481  16.787  11.373
80466W        W52891  40.412  30.556   2.784
80467W        W52892   6.746  21.604   2.318
80468W        W52893  44.408  21.725   3.669
80469W        W52894  14.252  34.422   1.214
80470W        W52895  43.869  41.939  11.124
80471W        W52896   0.784  23.637   4.235
80472W        W52897   5.338   9.272  13.036
80473W        W52898  36.423  42.312  11.094
80474W        W52899  15.735  34.983  13.035
80475W        W52900   7.841  39.370   0.862
80476W        W52901  15.085   6.886  10.969
80477W        W52902  38.919   5.858   1.843
80478W        W52903  36.499  12.759  12.959
80479W        W52904  14.600  16.213  10.517
80480W        W52905   9.211  40.961   3.860
80481W        W52906  34.428  18.100   3.724
80482W        W52907  13.174  43.490   2.718
80483W        W52908  17.264  18.224  14.993
80484W        W52909   5.367  28.042  13.901
80485W        W52910  10.854  13.717   2.408
80486W        W52911   6.901  18.160  14.360
80487W        W52912   5.810  43.477   4.304
80488W        W52913  38.040  39.493   0.766
80489W        W52914   6.767  32.526   2.723
80490W        W52915  35.532  14.170  14.835
80491W        W52916  35.458  17.624   0.363
80492W        W52917  16.111  40.539   0.462
80493W        W52918   4.263  33.940   3.167
80494W        W52919  15.324  27.548  11.486
80495W        W52920  39.405   2.245  12.034
80496W        W52921  10.144  16.706  12.471
80497W        W52922   5.244  38.515   0.311
80498W        W52923  12.749  38.074   2.396
80499W        W52924  12.171  37.017  10.589
80500W        W52925  43.374  22.610  13.977
80501W        W52926  39.906  39.470  14.505
80502W        W52927  18.140  28.581   4.607
80503W        W52928  32.542   0.944   0.748
80504W        W52929  12.268  18.063   1.304
80505W        W52930  23.680  28.524   4.720
80506W        W52931  27.096  35.959  14.003
80507W        W52932  41.980  22.657   1.372
80508W        W52933  28.631  27.627   1.295
80509W        W52934  34.049  13.201   1.402
80510W        W52935  11.363  12.698  13.542
80511W        W52936  31.404  33.975   1.763
80512W        W52937  34.452  35.003  13.928
80513W        W52938  37.083  28.543  14.816
80514W        W52939   1.462   5.239  14.769
80515W        W52940  32.052   2.921  11.483
80516W        W52941  40.388  21.056  10.536
80517W        W52942  17.610  13.779   1.722
80518W        W52943  11.728   4.292  13.034
80519W        W52944  27.111  35.385  11.934
80520W        W52945  26.659   4.352  11.961
80521W        W52946  30.015  10.147  14.886
80522W        W52947  33.126  33.474   0.856
80523W        W52948  41.887  17.671  12.951
80524W        W52949  42.401   1.745   1.350
80525W        W52950  33.468  12.140   2.767
80526W        W52951  24.510  43.492   3.165
80527W        W52952   6.843  35.976  10.902
80528W        W52953  10.721  40.041  13.337
80529W        W52954  42.011  35.886   1.238
80530W        W52955  15.302  13.709   1.935
80531W        W52956  30.443  27.116  14.410
80532W        W52957  27.089  16.751  10.970
80533W        W52958  35.486  37.899  11.430
80534W        W52959  39.412  19.190  12.891
80535W        W52960  38.415   3.827   3.189
80536W        W52961  25.615  38.863   2.796
80537W        W52962  38.019  19.645  12.356
80538W        W52963   6.364  40.030   0.341
80539W        W52964  24.036  11.631  10.005
80540W        W52965  32.554  15.720   0.248
80541W        W52966  29.668  35.042  12.426
80542W        W52967  16.261  12.161   0.439
80543W        W52968  14.773  42.954  13.816
80544W        W52969  27.684   0.839   0.288
80545W        W52970   6.209  27.540   0.299
80546W        W52971  35.458   9.173   2.853
80547W        W52972   3.897  23.118  13.050
80548W        W52973   3.847  16.301   0.417
80549W        W52974   4.295  31.103   4.648
80550W        W52975   9.192  39.441  13.406
80551W        W52976   8.383   4.912  12.356
80552W        W52977  44.943  35.005  14.795
80553W        W52978   4.837  13.137   4.672
80554W        W52979  30.146  39.843  10.888
80555W        W52980   3.845  18.658   1.782
80556W        W52981  30.931  25.112   1.330
80557W        W52982  17.064  35.060   0.385
80558W        W52983  38.530   6.699   2.400
80559W        W52984  32.407   6.707   0.267
80560W        W52985  11.356   4.401  11.546
80561W        W52986  12.304  24.536   5.668
80562W        W52987  17.152  43.390  14.278
80563W        W52988  29.446  12.700  11.086
80564W        W52989  39.404  32.477  14.935
80565W        W52990  29.457  10.373   4.150
80566W        W52991  39.042  26.479   1.927
80567W        W52992  41.884  44.361  12.060
80568W        W52993  19.040  22.673  12.048
80569W        W52994   0.487   9.216   4.648
80570W        W52995  11.346  37.012   1.846
80571W        W52996  10.760  23.236   2.785
80572W        W52997  29.172  13.329   3.259
80573W        W52998  39.973  13.647   1.743
80574W        W52999  28.461  34.098  11.066
80575W        W53000  15.179  37.867  14.401
80576W        W53001  29.650  31.997  11.516
80577W        W53002  32.620  14.282   2.867
80578W        W53003   1.303   3.793  10.504
80579W        W53004  20.556  32.397  12.427
80580W        W53005   1.237  19.637   4.744
80581W        W53006  28.491  28.435  10.411
80582W        W53007  24.015  42.920   3.319
80583W        W53008   6.773  38.882   1.812
80584W        W53009  14.099   0.986  13.988
80585W        W53010  28.516  37.438   0.804
80586W        W53011  31.971  22.177  11.523
80587W        W53012  19.140  10.371   4.687
80588W        W53013  31.933  44.993   1.866
80589W        W53014  15.193  10.169   3.257
80590W        W53015   4.426  22.733  14.371
80591W        W53016  23.619  30.152  12.861
80592W        W53017  32.538  42.283   4.739
80593W        W53018  38.974  26.990  10.514
80594W        W53019  29.072  39.424  14.982
80595W        W53020  36.400  12.135   0.363
80596W        W53021  12.283  34.873  11.934
80597W        W53022  33.066  23.523   0.349
80598W        W53023   2.312  30.647   3.274
80599W        W53024  21.233   1.978  12.916
80600W        W53025  42.956  31.594   4.745
80601W        W53026  25.515  32.606   0.902
80602W        W53027  34.938  42.377  13.938
80603W        W53028  12.741  29.535  11.041
80604W        W53029  35.389  35.990  12.487
80605W        W53030  26.184   3.241   3.819
80606W        W53031  42.298  43.375   3.643
80607W        W53032  40.422  25.675  13.991
80608W        W53033  38.858   1.828  13.937
80609W        W53034  22.138  32.451  13.906
80610W        W53035  28.174  12.194  14.480
80611W        W53036   9.796  21.574  10.931
80612W        W53037  41.486   3.249  12.472
80613W        W53038  41.818  15.824   0.321
80614W        W53039  25.531  18.563  12.390
80615W        W53040   0.754  41.788   0.471
80616W        W53041  35.588  14.815   1.695
80617W        W53042  44.001  33.951   0.944
80618W        W53043  18.290   3.329   0.273
80619W        W53044  22.233  27.690  14.370
80620W        W53045  41.855   1.977  14.445
80621W        W53046  23.221   3.392   5.283
80622W        W53047  34.878  22.600   3.725
80623W        W53048  36.954  10.159   2.822
80624W        W53049  38.524  14.202  11.038
80625W        W53050  18.653  40.454  14.397
80626W        W53051  20.709  12.250   2.247
80627W        W53052  11.266   2.366   5.639
80628W        W53053  37.024   8.207  10.952
80629W        W53054  29.669  33.973  12.559
80630W        W53055   6.206  14.121  13.042
80631W        W53056  44.266  29.989   1.298
80632W        W53057  25.524  11.773  12.471
80633W        W53058   5.314  38.862  10.480
80634W        W53059   2.804  28.508   3.304
80635W        W53060  11.250  18.059  14.868
80636W        W53061   4.265  13.256   2.786
80637W        W53062  37.830  33.940  12.400
80638W        W53063  36.478   8.284  11.498
80639W        W53064  43.419  24.097  14.513
80640W        W53065  20.133  11.285  10.618
80641W        W53066  16.758  30.157   1.341
80642W        W53067  35.906  30.046  11.434
80643W        W53068   6.881  25.155   1.325
80644W        W53069  26.970  24.108   3.640
80645W        W53070  29.067   4.749  13.354
80646W        W53071  30.028  39.497   0.336
80647W        W53072  17.198  33.074   1.887
80648W        W53073   8.181   1.243   4.752
80649W        W53074   7.867  18.544  14.966
80650W        W53075  43.849  19.221   4.208
80651W        W53076   7.361  19.213   3.640
80652W        W53077   3.432  10.736  10.521
80653W        W53078  36.500  27.104  11.938
80654W        W53079   2.798  23.606  14.906
80655W        W53080  32.086   0.969  10.592
80656W        W53081  31.453  22.624   9.547
80657W        W53082  11.719  22.582  10.093
80658W        W53083  19.580   4.812   0.755
80659W        W53084  21.173   6.263  11.051
80660W        W53085  37.364   6.240  11.969
80661W        W53086   1.800  18.228  13.468
80662W        W53087  42.481  16.651   4.604
80663W        W53088  44.345  43.346  14.293
80664W        W53089  43.901  11.721  12.990
80665W        W53090  30.910  22.025   4.208
80666W        W53091   7.413   2.961   0.957
80667W        W53092  17.200  26.631  11.857
80668W        W53093  18.783   8.263   1.347
80669W        W53094  16.572  24.503   3.839
80670W        W53095  44.999  31.966  12.551
80671W        W53096  24.186  20.274   1.751
80672W        W53097  25.084   8.858   0.308
80673W        W53098  19.114  35.495  13.994
80674W        W53099  43.976  37.490   0.934
80675W        W53100  23.497  27.978   0.735
80676W        W53101  40.377  32.042   5.260
80677W        W53102  27.600  32.041  13.956
80678W        W53103  23.183  30.424   4.189
80679W        W53104  18.747  18.096   5.166
80680W        W53105   8.204  44.385  13.981
80681W        W53106  36.423  19.209  12.976
80682W        W53107  37.934  29.090   4.786
80683W        W53108  44.888  37.997  14.787
80684W        W53109  15.810  20.579   2.235
80685W        W53110  10.784  12.225  10.900
80686W        W53111   8.346  28.052   3.731
80687W        W53112  39.493  42.313  12.838
80688W        W53113  22.012  31.415   1.240
80689W        W53114  12.122  35.422  11.949
80690W        W53115   3.880  42.018   2.218
80691W        W53116   0.288   8.705  11.560
80692W        W53117  18.788  35.919  12.067
80693W        W53118  18.100  29.154   2.683
80694W        W53119  29.499  26.690   0.385
80695W        W53120  41.300  14.269  14.783
80696W        W53121  22.198  10.818   0.463
80697W        W53122   7.230  39.549  14.469
80698W        W53123  27.017  24.158   0.956
80699W        W53124   3.304  35.891   1.378
80700W        W53125   6.399  16.119  14.848
80701W        W53126  10.217  23.070   5.303
80702W        W53127  34.435  39.842  10.534
80703W        W53128  19.108  29.072  10.453
80704W        W53129  13.118  33.413   2.382
80705W        W53130  16.311  22.059   2.817
80706W        W53131  34.989   7.731  13.973
80707W        W53132  16.130   8.666  11.612
80708W        W53133  24.219   3.387  12.429
80709W        W53134  22.636  29.951   2.355
80710W        W53135  44.891   2.787  11.875
80711W        W53136  10.306  35.533  14.328
80712W        W53137  12.776   8.399  14.467
80713W        W53138  39.499   5.344  10.961
80714W        W53139  17.630  32.551   1.225
80715W        W53140   4.910   6.238  14.342
80716W        W53141  11.751  13.625  10.426
80717W        W53142  22.528  31.441   2.796
80718W        W53143   2.293  31.107  13.897
80719W        W53144  31.412  18.219   1.697
80720W        W53145   8.748   3.732   1.338
80721W        W53146  39.026  22.593   3.198
80722W        W53147  11.320  21.119   4.705
80723W        W53148   2.725  14.228   0.889
80724W        W53149   9.842   6.908   1.302
80725W        W53150  11.242  38.859  14.464
80726W        W53151  20.562  42.776  10.888
80727W        W53152  14.099   7.795  12.483
80728W        W53153  31.137  34.103   4.782
80729W        W53154  24.004  12.115   0.890
80730W        W53155   2.447  42.912   5.087
80731W        W53156  38.380  17.639  14.842
80732W        W53157  39.325  22.684   2.298
80733W        W53158  33.574   7.328  12.512
80734W        W53159  12.218  34.423   0.885
80735W        W53160  25.188  19.727  14.936
80736W        W53161  39.515  15.598   1.860
80737W        W53162  14.721  14.636  14.798
80738W        W53163  29.024  11.284  10.503
80739W        W53164  25.989  23.026   2.899
80740W        W53165  19.210   8.804  13.991
80741W        W53166  19.277  21.639  10.531
80742W        W53167  15.137  12.161   0.259
80743W        W53168   4.937  39.426   1.437
80744W        W53169  24.017  26.050   4.136
80745W        W53170   3.892  44.336   2.330
80746W        W53171  20.082  27.008   2.864
80747W        W53172  25.501  34.518  11.874
80748W        W53173  31.568   5.339   4.745
80749W        W53174  14.269  17.088  11.998
80750W        W53175  32.475  28.950  14.500
80751W        W53176  34.554  14.722  12.897
80752W        W53177  12.669  16.754  14.897
80753W        W53178  19.155  26.623   3.305
80754W        W53179  28.085  19.153   1.271
80755W        W53180   8.656  22.164  14.439
80756W        W53181  32.542  29.931   3.364
80757W        W53182  12.236   6.186   4.781
80758W        W53183  18.121  32.565   3.255
80759W        W53184  16.301   1.762   0.938
80760W        W53185  32.479  36.047   0.936
80761W        W53186   0.375  34.054   3.722
80762W        W53187  37.510  31.980  14.320
80763W        W53188  26.108   5.916  13.926
80764W        W53189  29.585  37.539   4.731
80765W        W53190  14.267  24.594  13.799
80766W        W53191  27.951  44.437  12.002
80767W        W53192  20.134  20.749  14.790
80768W        W53193   8.693   4.779   2.887
80769W        W53194  34.906   5.701   1.922
80770W        W53195  42.818  34.600  13.542
80771W        W53196  34.924   6.409  10.556
80772W        W53197  24.498  42.816   3.301
80773W        W53198  34.033  26.969   4.210
80774W        W53199  15.176  24.711   1.273
80775W        W53200  32.420  40.902  11.595
80776W        W53201  30.456  26.692   0.345
80777W        W53202   0.254   9.884  12.086
80778W        W53203   2.853  33.029  12.089
80779W        W53204   9.391  37.011  13.326
80780W        W53205  38.000   2.319  14.310
80781W        W53206   5.438   6.815  14.006
80782W        W53207   0.342  29.055   0.738
80783W        W53208  40.489  27.607  10.448
80784W        W53209  23.032   1.977  12.959
80785W        W53210  10.384  32.059   5.106
80786W        W53211  29.147  13.191   2.225
80787W        W53212  31.124  23.659   9.602
80788W        W53213  27.115  19.682   2.810
80789W        W53214  33.963  23.693  14.924
80790W        W53215   9.649  23.042  12.418
80791W        W53216  36.408  11.175  14.032
80792W        W53217  13.140  30.907   2.237
80793W        W53218  10.783  41.861   3.668
80794W        W53219  31.037  19.590  12.038
80795W        W53220  10.844  11.648   3.176
80796W        W53221  16.734  25.553  13.403
80797W        W53222  30.489  23.055   4.310
80798W        W53223  19.235  44.960   2.291
80799W        W53224  14.283  10.749   1.749
80800W        W53225  42.518  20.271   3.334
80801W        W53226  30.977  40.424  10.455
80802W        W53227   5.435  39.537  13.481
80803W        W53228  32.420  36.575   1.749
80804W        W53229  13.223   0.248  12.939
80805W        W53230  20.067   2.328   0.257
80806W        W53231   0.836  25.047   3.658
80807W        W53232  28.978  38.531   1.715
80808W        W53233  33.968  32.450   1.422
80809W        W53234   2.404  21.752  12.572
80810W        W53235   6.309  22.234   1.428
80811W        W53236  32.914   2.306   1.935
80812W        W53237  22.557   9.238   4.210
80813W        W53238   3.332  23.519  10.534
80814W        W53239  19.590  18.067  11.514
80815W        W53240  14.789   9.289   3.299
80816W        W53241  27.125  38.435  12.882
80817W        W53242  26.963  31.114   0.408
80818W        W53243  40.885   9.719   3.191
80819W        W53244  27.968   2.956  13.792
80820W        W53245  10.832  11.843   4.616
80821W        W53246  11.648  20.085  11.376
80822W        W53247  20.062  32.496  13.463
80823W        W53248  42.853  36.398  12.413
80824W        W53249  31.527  18.664  12.915
80825W        W53250  43.474  42.502  13.955
80826W        W53251  34.605  38.396   1.245
80827W        W53252  24.659  28.680   3.348
80828W        W53253  38.968   0.336  12.495
80829W        W53254  16.787  16.750   0.464
80830W        W53255   7.246  37.913   3.685
80831W        W53256  39.518  38.380  13.025
80832W        W53257  20.192  42.441   0.479
80833W        W53258   4.316  31.036  13.051
80834W        W53259  38.892  14.668   2.696
80835W        W53260  39.516   4.791   1.720
80836W        W53261  40.375  28.547  12.436
80837W        W53262  36.362  15.736  12.944
80838W        W53263  30.039  14.766   0.351
80839W        W53264  43.002   9.862   3.760
80840W        W53265   4.258  30.580   3.188
80841W        W53266   0.277   7.332   1.825
80842W        W53267  12.127  39.536   2.335
80843W        W53268  28.459  20.652  13.963
80844W        W53269   1.444  28.445  13.031
80845W        W53270   6.294   9.874  12.968
80846W        W53271  34.503   8.396   3.279
80847W        W53272   3.775   3.337   4.719
80848W        W53273  42.021  13.705   3.824
80849W        W53274   1.238  29.017   1.744
80850W        W53275  15.090  33.452   3.718
80851W        W53276  34.928   6.695   2.306
80852W        W53277   9.666  34.564  14.870
80853W        W53278  15.277  40.047   0.920
80854W        W53279  12.661  18.672   0.400
80855W        W53280  13.846  31.959  11.052
80856W        W53281  10.815   9.232   4.619
80857W        W53282  33.542  43.363   4.269
80858W        W53283  36.946  25.100   0.386
80859W        W53284  17.596   9.688  13.046
80860W        W53285  25.624  44.320   3.772
80861W        W53286  39.928  37.381   1.799
80862W        W53287  39.899  40.854   0.753
80863W        W53288  15.154  40.810  13.443
80864W        W53289  40.304  20.274   4.147
80865W        W53290  43.410  39.996   5.256
80866W        W53291  15.275  13.319   2.317
80867W        W53292  26.139  34.078  12.856
80868W        W53293   2.819  28.154   2.204
80869W        W53294  33.517  19.633   3.680
80870W        W53295   3.744  27.539  11.561
80871W        W53296  10.859  33.490  13.937
80872W        W53297   6.909  34.489  10.434
80873W        W53298  26.503  23.207  13.527
80874W        W53299  15.240   4.299  11.979
80875W        W53300  42.391   5.347  12.421
80876W        W53301  17.241  39.390   4.267
80877W        W53302  14.106  38.430  14.022
80878W        W53303   7.323  41.428  14.410
80879W        W53304  12.776   9.863  14.876
80880W        W53305  43.895  19.681  13.495
80881W        W53306   8.897   5.786   0.922
80882W        W53307  13.289  37.889   3.281
80883W        W53308   8.255  28.630   0.822
80884W        W53309  27.010  32.456  13.467
80885W        W53310  31.920  36.891  12.487
80886W        W53311  11.632  14.612  14.282
80887W        W53312  16.794   1.342  13.307
80888W        W53313  41.448  14.730   0.855
80889W        W53314  32.569   2.349  10.956
80890W        W53315   5.304  16.157   4.708
80891W        W53316  38.052  44.983  13.525
80892W        W53317   0.749  11.709  10.592
80893W        W53318  25.214  34.520  14.297
80894W        W53319   5.763  22.154   3.159
80895W        W53320  42.436  28.544  12.434
80896W        W53321  41.499   1.873  14.347
80897W        W53322  14.722   7.762  11.392
80898W        W53323   7.256  37.945   1.785
80899W        W53324   7.783  10.229   1.722
80900W        W53325  29.962  10.642  14.866
80901W        W53326  40.548   2.403  13.325
80902W        W53327  26.149  20.707   4.204
80903W        W53328  19.672  33.597   0.339
80904W        W53329  42.932  39.923   3.241
80905W        W53330  43.346  34.508  11.375
80906W        W53331  30.436  24.480   4.237
80907W        W53332  25.121  22.737   4.292
80908W        W53333   4.847   0.259   2.313
80909W        W53334  30.489  43.913   0.462
80910W        W53335  24.525  11.821   4.681
80911W        W53336  24.723  29.073  12.950
80912W        W53337   8.852  31.550  11.985
80913W        W53338  38.386  13.619   2.336
80914W        W53339   9.369  28.084   3.838
80915W        W53340   9.247  21.659   4.822
80916W        W53341  38.991   6.869   2.387
80917W        W53342  29.646  22.645  12.418
80918W        W53343   4.227  29.987   4.347
80919W        W53344  40.899   0.277  11.443
80920W        W53345  38.329  39.926  14.348
80921W        W53346  43.840  42.001  11.581
80922W        W53347  10.664   3.833  12.056
80923W        W53348  43.886   7.379  14.846
80924W        W53349  10.161   3.377  11.080
80925W        W53350  35.464  12.625   1.752
80926W        W53351  37.855  11.346  11.553
80927W        W53352  25.707  24.649   2.885
80928W        W53353  39.487  19.284   1.789
80929W        W53354  34.071  19.192  14.878
80930W        W53355  23.536  15.090  13.799
80931W        W53356  10.841   0.285  10.454
80932W        W53357  22.591  26.557  11.427
80933W        W53358   1.356  26.636  11.083
80934W        W53359  28.496  28.148   1.232
80935W        W53360  23.604  17.300  10.464
80936W        W53361   2.428   8.176  14.298
80937W        W53362   6.767  31.032   3.166
80938W        W53363  15.781  17.587   4.227
80939W        W53364  41.791  39.415  11.048
80940W        W53365   2.239   4.922  11.958
80941W        W53366  27.498  11.141   4.704
80942W        W53367  36.362  19.119  10.425
80943W        W53368  43.501  43.831   1.438
80944W        W53369  37.902   9.709  12.513
80945W        W53370  44.834  11.298  11.957
80946W        W53371   4.881  11.288   2.713
80947W        W53372  13.309  42.968  10.103
80948W        W53373  37.003  23.075   3.353
80949W        W53374   1.267   4.728  14.904
80950W        W53375  21.704  17.674  11.482
80951W        W53376  44.309   1.325   4.788
80952W        W53377  25.148  44.815  10.602
80953W        W53378  21.543   6.387   1.770
80954W        W53379  24.637  44.973   3.784
80955W        W53380  17.075  27.033  14.351
80956W        W53381  21.118  25.051  13.463
80957W        W53382  14.816  39.983   4.651
80958W        W53383  41.911  27.943   3.731
80959W        W53384  35.411  23.540   3.831
80960W        W53385  34.082  26.612  11.084
80961W        W53386  14.704  27.562   4.256
80962W        W53387  10.633  39.852   3.240
80963W        W53388  26.207  43.845  13.366
80964W        W53389  43.273   0.880   3.716
80965W        W53390  25.552  17.285  10.054
80966W        W53391  26.541  43.828   3.241
80967W        W53392  12.655  36.889   2.387
80968W        W53393  12.296   5.874  10.634
80969W        W53394  27.977   4.209   1.782
80970W        W53395  26.540  40.043   4.223
80971W        W53396  16.274  17.632  13.858
80972W        W53397  23.538  25.605  11.609
80973W        W53398  13.614  26.132   0.468
80974W        W53399  10.796   3.378   0.267
80975W        W53400  16.187  24.523  12.420
80976W        W53401   7.351  20.134   0.771
80977W        W53402  13.302  24.130   1.841
80978W        W53403  38.831   3.310  10.489
80979W        W53404  18.279  37.922  12.877
80980W        W53405  40.400   5.867  10.940
80981W        W53406   1.744  37.416   3.775
80982W        W53407   0.748  11.345   4.143
80983W        W53408  24.547  24.618   4.351
80984W        W53409  15.728  42.789   1.798
80985W        W53410  15.099  41.839  14.852
80986W        W53411  24.077  11.723   2.858
80987W        W53412   4.748  34.381   1.337
80988W        W53413  10.172   9.725  14.814
80989W        W53414   4.928  40.963  12.380
80990W        W53415  25.474  32.628  14.823
80991W        W53416  29.027   2.860   2.888
80992W        W53417  28.008  39.422   2.812
80993W        W53418  19.125  11.710  12.549
80994W        W53419   1.382   3.393  12.059
80995W        W53420  18.269   6.302   2.295
80996W        W53421  35.896  36.468  12.939
80997W        W53422  15.606   8.806  11.533
80998W        W53423  12.213  19.114  11.939
80999W        W53424  28.104  22.242  14.409
81000W        W53425  11.332   6.315  14.919
81001W        W53426  41.333  25.586   4.283
81002W        W53427  21.253   1.258   1.428
81003W        W53428  17.789   3.266   2.759
81004W        W53429   6.685  19.201   1.353
81005W        W53430  22.173  31.015  11.407
81006W        W53431  43.867  29.002  14.020
81007W        W53432  43.817  14.289   1.755
81008W        W53433   7.222   9.197   1.263
81009W        W53434  11.625   0.873   4.639
81010W        W53435   9.784  35.942   2.791
81011W        W53436   2.871   4.436   0.869
81012W        W53437   8.191  33.924  13.520
81013W        W53438  38.345  19.146   4.767
81014W        W53439  19.096  16.183   3.766
81015W        W53440  44.821  10.791  14.392
81016W        W53441  15.820  21.515  10.568
81017W        W53442   4.877  24.693  12.087
81018W        W53443  42.868  28.447  14.017
81019W        W53444  29.947  44.477   2.844
81020W        W53445  23.726  10.837   3.256
81021W        W53446  29.168  36.098   3.660
81022W        W53447   0.289   2.309  10.907
81023W        W53448  20.261  37.482  12.050
81024W        W53449   1.878   8.739  13.063
81025W        W53450  20.680   9.789   4.145
81026W        W53451  30.517  20.594  11.430
81027W        W53452   2.245  33.934   2.816
81028W        W53453  11.174  29.158   2.353
81029W        W53454  38.953   1.411  12.530
81030W        W53455  14.099  44.500  12.460
81031W        W53456   5.773  25.122  14.777
81032W        W53457  11.838  27.095  12.862
81033W        W53458  16.734  38.374   1.372
81034W        W53459  31.451  26.481   2.286
81035W        W53460  31.519  15.095  13.803
81036W        W53461  18.737   5.276   1.280
81037W        W53462  15.731  31.515  12.849
81038W        W53463  27.451  16.128   2.344
81039W        W53464  31.008   5.903   2.302
81040W        W53465  32.950  17.694  14.467
81041W        W53466  25.632   9.718   3.168
81042W        W53467  12.122  37.838   1.904
81043W        W53468   9.265  18.104  13.492
81044W        W53469  24.050  39.393   4.598
81045W        W53470  11.744   2.323   0.285
81046W        W53471  10.650   8.399   1.341
81047W        W53472  17.148  26.168   1.399
81048W        W53473  23.727  15.085   0.961
81049W        W53474  42.921  19.583  13.548
81050W        W53475  11.641  26.472  14.846
81051W        W53476  26.048  19.182   3.828
81052W        W53477  27.975  12.700   2.381
81053W        W53478   4.330  26.203   3.751
81054W        W53479   9.647  20.730  12.577
81055W        W53480  23.685  33.001  13.464
81056W        W53481  15.585  24.603   3.852
81057W        W53482  42.963   3.302  11.110
81058W        W53483  29.944   0.310  13.451
81059W        W53484  13.138  15.123   4.338
81060W        W53485  43.480  40.382  10.620
81061W        W53486  35.402  14.631  10.889
81062W        W53487   4.389  22.098  12.344
81063W        W53488  15.775  22.712  14.823
81064W        W53489  22.721  24.012   9.953
81065W        W53490  18.282  35.978   3.242
81066W        W53491  27.948  14.689  11.112
81067W        W53492  31.941  36.069   0.314
81068W        W53493  32.062  36.391   2.844
81069W        W53494  27.133  41.959  12.484
81070W        W53495  44.801  43.777  11.486
81071W        W53496  35.068  29.491  12.419
81072W        W53497  18.615  42.803   2.382
81073W        W53498  31.069  31.912   2.776
81074W        W53499  12.258   7.336   1.868
81075W        W53500  32.424  15.706   3.854
81076W        W53501  22.068  22.659  14.998
81077W        W53502  40.916   2.376  12.580
81078W        W53503   5.827  15.630  11.905
81079W        W53504  34.568  19.735   2.368
81080W        W53505  16.692  32.449   1.844
81081W        W53506  17.617  18.145  12.023
81082W        W53507  30.147  27.589   2.757
81083W        W53508  23.992  19.758  14.373
81084W        W53509  19.163  20.085  14.908
81085W        W53510  27.542  30.060   2.713
81086W        W53511   5.338   9.295   0.399
81087W        W53512  27.502  39.004   3.780
81088W        W53513   3.331  22.669  12.430
81089W        W53514  15.155   9.210   1.373
81090W        W53515  18.277  29.980  14.444
81091W        W53516  32.409  28.936   0.763
81092W        W53517  39.049  32.983  13.884
81093W        W53518  43.421  21.060  12.481
81094W        W53519  43.780  31.516  13.504
81095W        W53520   0.942  34.380   0.278
81096W        W53521  20.708  12.610  13.356
81097W        W53522  23.173  44.982  11.594
81098W        W53523  22.673  25.058  10.924
81099W        W53524  40.378  21.579  10.484
81100W        W53525  24.594  18.753  12.527
81101W        W53526   1.780  34.993  13.837
81102W        W53527  19.069  28.178  11.613
81103W        W53528  29.433  43.021   5.299
81104W        W53529  18.202  18.573  11.933
81105W        W53530  39.525  25.553   3.296
81106W        W53531  27.960  22.672  14.958
81107W        W53532  23.011  31.526  11.122
81108W        W53533  36.522  23.216  12.093
81109W        W53534  36.578  32.500  12.572
81110W        W53535  24.064  23.717  14.458
81111W        W53536   4.871  19.601   4.652
81112W        W53537  39.351   0.290  10.475
81113W        W53538   0.427  37.992  13.505
81114W        W53539  24.623  35.964   0.280
81115W        W53540  33.926   7.197  14.920
81116W        W53541   7.249  13.682   3.828
81117W        W53542  13.620  22.066   0.889
81118W        W53543  43.502  17.775   3.734
81119W        W53544  37.414  27.587  14.928
81120W        W53545   3.764  20.613  14.811
81121W        W53546  31.919  19.666   0.478
81122W        W53547   6.723  39.964   2.792
81123W        W53548  24.112   4.221  14.805
81124W        W53549  28.935  23.644   9.579
81125W        W53550  23.649  21.227   2.228
81126W        W53551  22.205  32.602   1.444
81127W        W53552  24.145  18.092  14.007
81128W        W53553  35.601  26.695  13.407
81129W        W53554  35.016   1.845  13.455
81130W        W53555   2.900  13.255   0.808
81131W        W53556  13.271  32.404  11.030
81132W        W53557  24.013  21.580  12.967
81133W        W53558   2.230  22.199   1.714
81134W        W53559  34.110   0.394  10.444
81135W        W53560   6.686  30.919   2.374
81136W        W53561  32.028  13.166   0.253
81137W        W53562   3.808   5.747  14.382
81138W        W53563   8.843  28.651   0.948
81139W        W53564  39.477  11.163  13.015
81140W        W53565  11.252  44.412  14.424
81141W        W53566   9.156  25.626   4.152
81142W        W53567  28.621  32.055  10.597
81143W        W53568   1.263  29.458  13.532
81144W        W53569  36.587   7.357   3.161
81145W        W53570  15.184  37.448  12.474
81146W        W53571  40.870  44.964   1.385
81147W        W53572   8.778  15.684   2.347
81148W        W53573   5.798  32.446   0.339
81149W        W53574  42.787   9.283  12.511
81150W        W53575  11.204  14.750   2.798
81151W        W53576   9.755  10.177   4.717
81152W        W53577  24.615   1.294   2.722
81153W        W53578  33.912   3.881  10.980
81154W        W53579   6.406  11.705  12.930
81155W        W53580  27.963  28.152   0.402
81156W        W53581  20.239  12.225  13.428
81157W        W53582   9.760  23.115   4.121
81158W        W53583  37.505  29.953  12.975
81159W        W53584  25.976  40.836  11.968
81160W        W53585  20.211  30.098  11.415
81161W        W53586  24.499  33.897  12.024
81162W        W53587  11.858   6.862   0.471
81163W        W53588  35.372  15.822   0.746
81164W        W53589   7.330  18.622  11.425
81165W        W53590  40.936  25.503  13.017
81166W        W53591  22.613   7.225  10.520
81167W        W53592  19.549  26.618  11.374
81168W        W53593  27.593  12.180   4.204
81169W        W53594  20.121  23.608  14.462
81170W        W53595  44.478   2.449   3.361
81171W        W53596  17.585  12.321  13.816
81172W        W53597  13.791  37.547   2.391
81173W        W53598  22.692  34.414   2.297
81174W        W53599  27.135  33.440   2.393
81175W        W53600   3.887  39.990  10.970
81176W        W53601  23.230   7.900   0.293
81177W        W53602  37.429   2.229   1.840
81178W        W53603   3.245  14.797  14.805
81179W        W53604  24.015  14.824  12.843
81180W        W53605  36.959  40.862   0.309
81181W        W53606   4.702  21.540  13.928
81182W        W53607  18.055  19.599   0.756
81183W        W53608   9.717   1.924  12.055
81184W        W53609  31.110  30.925  12.398
81185W        W53610  22.562   4.843   5.092
81186W        W53611  20.101   2.900  13.970
81187W        W53612  27.687  41.966   0.797
81188W        W53613  21.066   3.826  10.951
81189W        W53614  28.929  39.515   0.291
81190W        W53615   4.301  12.748  11.003
81191W        W53616  32.138  28.176   1.863
81192W        W53617   5.411  22.028   4.674
81193W        W53618   0.387  12.856  14.407
81194W        W53619  33.530  32.473   2.784
81195W        W53620  11.348  27.625   0.811
81196W        W53621  11.211   7.819   2.379
81197W        W53622  20.617  27.655  11.048
81198W        W53623   4.310   5.783   2.242
81199W        W53624  23.503  33.555  11.567
81200W        W53625  40.465  44.920   4.661
81201W        W53626  21.072  24.681   4.798
81202W        W53627   3.436  17.117  14.311
81203W        W53628  24.585   0.965   4.294
81204W        W53629  11.768   0.884   0.337
81205W        W53630   3.434  27.009   1.412
81206W        W53631  20.548  28.978  12.895
81207W        W53632  40.515  16.075  12.356
81208W        W53633  23.636  17.695  13.547
81209W        W53634  26.557  10.783  13.961
81210W        W53635  21.232  12.719   3.779
81211W        W53636   9.672   5.857  13.920
81212W        W53637  20.660   8.322  13.049
81213W        W53638  39.044  23.144  13.971
81214W        W53639  34.434  40.358   0.933
81215W        W53640   6.304  32.930   1.305
81216W        W53641  40.511  24.617   0.438
81217W        W53642  27.567  30.037   0.301
81218W        W53643   0.777   1.439   2.785
81219W        W53644  44.799   1.809  10.896
81220W        W53645  30.916   5.276   3.660
81221W        W53646  15.145  28.005   0.425
81222W        W53647  28.594  24.207  12.918
81223W        W53648  14.774  44.781  11.901
81224W        W53649   7.855  37.517   4.618
81225W        W53650  18.186  15.648  14.438
81226W        W53651  27.011   8.872  12.555
81227W        W53652  26.055  33.925   3.796
81228W        W53653  30.113   5.204   4.212
81229W        W53654   4.793   8.852  12.531
81230W        W53655  10.379   7.763  13.380
81231W        W53656  24.160   8.699   3.361
81232W        W53657  14.288   5.789   4.815
81233W        W53658  11.704  15.614  11.498
81234W        W53659  34.528  32.542  11.099
81235W        W53660  13.259   0.380  13.495
81236W        W53661  13.788  24.596   1.431
81237W        W53662  27.628  32.047   1.443
81238W        W53663  36.413   5.241  13.848
81239W        W53664  33.581  30.974   3.292
81240W        W53665  39.911  25.069  13.434
81241W        W53666  25.209  33.582  12.356
81242W        W53667  26.481   4.382   4.688
81243W        W53668  37.011  14.275  11.573
81244W        W53669  15.593   3.950  12.353
81245W        W53670  29.591  43.827  13.418
81246W        W53671  39.841  22.659  12.532
81247W        W53672  44.994  12.713  13.797
81248W        W53673  43.391  26.685   3.784
81249W        W53674  37.956  42.845  10.928
81250W        W53675  21.174   3.249  13.043
81251W        W53676  31.616   5.343  14.278
81252W        W53677  36.446  26.680   3.723
81253W        W53678  20.217  10.185   3.676
81254W        W53679   1.372  19.760  11.031
81255W        W53680  17.692   7.670   1.451
81256W        W53681  28.580   8.750   4.241
81257W        W53682   7.692   1.259   0.932
81258W        W53683  30.417   4.206   4.230
81259W        W53684   2.295  13.347   3.840
81260W        W53685  26.984  37.048  13.049
81261W        W53686  20.715  38.392   4.686
81262W        W53687  28.048   1.931  14.393
81263W        W53688  12.334  10.842  14.952
81264W        W53689   6.693  21.158   4.264
81265W        W53690  42.788  43.977  11.467
81266W        W53691  31.900  29.578   5.313
81267W        W53692   6.779  29.592   2.291
81268W        W53693  23.104   9.857  13.969
81269W        W53694  22.573   6.906   0.902
81270W        W53695  34.468  24.183   2.764
81271W        W53696  26.169  40.820   1.820
81272W        W53697   2.852  37.545  13.987
81273W        W53698  36.433   6.187   0.366
81274W        W53699  21.183  15.600  14.783
81275W        W53700  33.576  32.887   3.198
81276W        W53701   6.810  44.279  13.528
81277W        W53702  34.507  41.503   4.743
81278W        W53703  31.574   1.344   2.381
81279W        W53704   2.330  31.624   4.806
81280W        W53705   5.316  18.092  13.387
81281W        W53706   6.395  35.917  10.544
81282W        W53707  35.438  40.921  14.958
81283W        W53708   9.318  39.899   3.342
81284W        W53709  23.133  18.781  12.477
81285W        W53710  20.094  41.020  13.874
81286W        W53711  35.948  19.063   1.436
81287W        W53712  12.705  27.550  14.413
81288W        W53713  40.923   2.730   1.386
81289W        W53714  37.552  43.454   3.637
81290W        W53715  17.224  23.213   4.290
81291W        W53716  31.006  36.021  13.989
81292W        W53717  40.361  36.970  13.394
81293W        W53718   7.717   5.930  11.457
81294W        W53719   2.329   5.901   0.863
81295W        W53720   4.804   4.286   5.318
81296W        W53721  40.879  14.145  13.532
81297W        W53722  35.452  30.116   3.829
81298W        W53723   4.898  39.989  12.530
81299W        W53724  24.212   9.658   2.344
81300W        W53725  44.407  17.793  13.371
81301W        W53726  25.626  43.795   0.883
81302W        W53727  18.593  30.080  14.856
81303W        W53728  28.185   9.716  13.312
81304W        W53729   7.749  43.879  12.070
81305W        W53730   7.710   4.755   0.941
81306W        W53731  39.419  12.651  10.922
81307W        W53732  13.128  26.021   4.188
81308W        W53733   9.663  37.531   4.724
81309W        W53734  27.941   9.164  12.369
81310W        W53735  19.244  41.453  11.499
81311W        W53736  42.311  43.806   0.475
81312W        W53737   9.786   1.242   1.276
81313W        W53738  10.212  35.871   9.978
81314W        W53739  40.842  33.981   0.398
81315W        W53740  25.588  31.491  14.022
81316W        W53741   6.919  25.662   0.452
81317W        W53742   1.928  13.777   1.820
81318W        W53743  16.274  36.094   1.818
81319W        W53744   1.280  32.890   2.228
81320W        W53745   8.328  17.802  10.934
81321W        W53746  16.306   8.727  12.377
81322W        W53747  14.153  42.301  12.019
81323W        W53748   4.768  18.596   1.790
81324W        W53749  35.923  27.149   1.712
81325W        W53750  21.058  33.623  11.424
81326W        W53751  39.510  31.549   4.154
81327W        W53752  33.533  18.788  13.060
81328W        W53753  37.890  36.508  14.333
81329W        W53754  11.223  15.121   0.291
81330W        W53755  24.492  19.652  10.914
81331W        W53756  38.846  37.843   3.286
81332W        W53757   3.373  29.169   2.662
81333W        W53758  30.065  34.378   3.342
81334W        W53759  27.189  34.004  12.067
81335W        W53760   5.880   5.268  10.507
81336W        W53761  28.629  37.960  11.593
81337W        W53762  41.448  10.803   1.228
81338W        W53763  13.695  24.218  14.957
81339W        W53764  40.464  12.325   2.696
81340W        W53765  19.126  21.560   3.631
81341W        W53766  21.239  39.989  13.035
81342W        W53767   7.294  42.944   0.384
81343W        W53768  27.195  13.731   4.235
81344W        W53769   1.375  35.371   4.121
81345W        W53770  34.476  17.790  13.030
81346W        W53771  26.104   4.427   4.270
81347W        W53772  36.945  12.755  13.456
81348W        W53773  28.456   1.405  11.128
81349W        W53774  27.194   0.806  14.824
81350W        W53775  35.944  38.050  11.489
81351W        W53776  29.522  27.960   5.119
81352W        W53777  27.578   7.847  10.616
81353W        W53778   9.828  21.258  10.490
81354W        W53779  42.916  27.035   0.483
81355W        W53780   9.289   8.727   2.761
81356W        W53781   5.357  12.254   1.402
81357W        W53782  32.395  37.938  11.058
81358W        W53783   1.892  32.091   1.290
81359W        W53784   0.275  35.420  13.461
81360W        W53785  34.866  10.774  11.956
81361W        W53786  35.368  31.919   0.388
81362W        W53787  24.697  19.647  12.954
81363W        W53788  33.053   0.964  13.863
81364W        W53789  11.293  33.405  14.824
81365W        W53790  32.577  39.449  14.879
81366W        W53791  19.185   8.298  14.347
81367W        W53792   4.235   0.775  13.410
81368W        W53793  23.548  12.239   0.346
81369W        W53794  38.933   0.273   3.708
81370W        W53795  12.279  37.360   4.321
81371W        W53796  26.955  17.675   0.838
81372W        W53797   2.738  19.185  10.972
81373W        W53798  12.629  37.982   3.643
81374W        W53799  33.959  29.505   0.815
81375W        W53800  23.620  29.473   2.801
81376W        W53801  30.081   4.302   0.335
81377W        W53802  12.656  12.197  14.337
81378W        W53803   0.979  35.952   1.307
81379W        W53804  30.505   5.900   3.686
81380W        W53805  38.504  39.560   0.432
81381W        W53806   8.744  44.942   0.881
81382W        W53807  11.629  41.029   1.909
81383W        W53808   4.403  38.927  10.565
81384W        W53809  40.313  41.804   2.725
81385W        W53810  20.686  38.836   0.780
81386W        W53811  31.122  23.683   4.726
81387W        W53812  40.429  40.924   4.317
81388W        W53813   4.825  23.083   2.790
81389W        W53814   4.300  17.753  11.897
81390W        W53815  38.405  10.218  10.934
81391W        W53816  25.022  41.836  11.516
81392W        W53817   3.372  38.959  14.356
81393W        W53818  39.813  33.941  10.977
81394W        W53819  38.005  24.108   0.954
81395W        W53820  30.654  11.748  10.425
81396W        W53821  21.605  10.759   3.703
81397W        W53822  38.045   1.800   1.431
81398W        W53823  29.118   0.766   1.839
81399W        W53824  34.997  20.193  12.014
81400W        W53825  15.254   4.728   3.696
81401W        W53826   5.390  12.139  13.812
81402W        W53827  22.996  33.027  12.973
81403W        W53828   1.471  31.111  13.968
81404W        W53829  42.301   6.776   4.673
81405W        W53830   4.869   7.289   5.288
81406W        W53831  21.167  36.037   2.801
81407W        W53832  12.305  16.088  12.393
81408W        W53833  25.207  11.769  11.994
81409W        W53834  38.828  42.389  14.032
81410W        W53835  43.499   2.938  13.869
81411W        W53836  21.196  44.823   0.774
81412W        W53837  30.414  15.803   2.213
81413W        W53838  22.663  37.420   3.360
81414W        W53839  36.915   0.402  10.475
81415W        W53840  31.634  19.094   2.817
81416W        W53841  41.360  13.282   3.842
81417W        W53842  14.103  14.245  11.062
81418W        W53843  19.134  25.021  14.395
81419W        W53844   5.397   6.358  10.517
81420W        W53845  44.836   4.748  14.391
81421W        W53846  20.706  27.542  12.002
81422W        W53847  25.043  36.397  13.492
81423W        W53848   4.734  13.808   0.270
81424W        W53849  42.833  17.188  12.428
81425W        W53850  44.885  15.819  14.878
81426W        W53851  23.000   2.242   2.319
81427W        W53852  26.174  11.731  13.491
81428W        W53853  22.723  36.975   2.227
81429W        W53854  24.019  33.034  13.870
81430W        W53855  39.428   0.871  14.937
81431W        W53856  34.034  23.065   1.358
81432W        W53857  24.103  20.199   2.718
81433W        W53858  27.646  12.234  12.065
81434W        W53859  16.794  24.220   1.284
81435W        W53860  27.085  14.658  14.353
81436W        W53861  10.304   9.712  11.472
81437W        W53862  14.333   5.766  10.997
81438W        W53863   8.297  35.992  12.002
81439W        W53864   9.682  38.435   3.690
81440W        W53865  13.655  35.869   4.798
81441W        W53866  24.143  27.676   2.843
81442W        W53867   9.800  42.912   3.352
81443W        W53868  37.021   6.346   0.871
81444W        W53869   9.271  44.760   1.428
81445W        W53870  26.609  12.620   3.806
81446W        W53871  34.070  17.221  12.887
81447W        W53872   4.260  34.604  14.450
81448W        W53873  30.612   9.235   4.272
81449W        W53874  27.993   1.461  13.525
81450W        W53875   6.782  31.072  12.842
81451W        W53876   5.370  37.995  10.452
81452W        W53877  38.504  21.240  11.082
81453W        W53878   6.738  24.205   2.192
81454W        W53879   9.647   4.347  11.899
81455W        W53880  44.431  37.982   2.353
81456W        W53881  38.849  11.714  12.960
81457W        W53882   3.741   6.899  11.546
81458W        W53883  39.317   1.368  12.024
81459W        W53884  14.775   8.308  12.401
81460W        W53885  10.233  18.772  14.940
81461W        W53886  27.137  15.126  10.546
81462W        W53887  41.315  19.202  10.899
81463W        W53888  31.582  38.552  10.980
81464W        W53889   9.871  25.174   2.375
81465W        W53890   8.219  35.511  10.459
81466W        W53891  44.480  18.238   0.732
81467W        W53892  34.526  38.399   4.314
81468W        W53893   4.707  27.081  13.817
81469W        W53894  22.674  11.812   9.505
81470W        W53895  21.251  36.061   4.809
81471W        W53896  34.094  26.485   3.150
81472W        W53897  20.618  38.047  14.285
81473W        W53898  29.973  40.353   3.848
81474W        W53899   5.744  35.571  11.503
81475W        W53900  41.358  28.490   1.294
81476W        W53901  43.320  26.560  10.426
81477W        W53902  30.498  32.941  14.997
81478W        W53903  20.717   6.424  13.016
81479W        W53904   3.304  17.251  11.459
81480W        W53905   4.755   3.833  11.562
81481W        W53906  35.068  19.671   5.123
81482W        W53907   5.791  40.044  13.908
81483W        W53908   0.468   1.384   1.334
81484W        W53909   6.198   2.925   2.783
81485W        W53910  37.966  41.929   1.450
81486W        W53911  19.119  18.213  13.037
81487W        W53912  14.219  38.394  11.402
81488W        W53913   0.482  30.611   4.679
81489W        W53914  17.604  22.721   1.283
81490W        W53915   9.294  18.701  11.867
81491W        W53916  33.579  44.453  11.943
81492W        W53917   5.232  27.652   3.171
81493W        W53918  16.620  14.259  12.527
81494W        W53919  39.892  20.679   4.293
81495W        W53920  33.074   5.234  13.370
81496W        W53921   1.969  36.949  10.889
81497W        W53922   9.863  19.218   2.299
81498W        W53923  33.971  24.704  11.406
81499W        W53924   4.308  30.107   1.210
81500W        W53925  27.169  22.591   2.182
81501W        W53926  35.994  36.062  11.540
81502W        W53927  33.051  28.622   2.802
81503W        W53928  20.665  31.636   4.732
81504W        W53929  38.333   8.329   9.495
81505W        W53930  13.666   4.913  12.358
81506W        W53931  40.466  13.183   3.664
81507W        W53932  11.360  27.175  11.069
81508W        W53933   1.320  33.003  10.016
81509W        W53934  16.667   5.425   0.366
81510W        W53935  27.629   9.839   2.356
81511W        W53936  34.540  39.460   2.339
81512W        W53937  10.833  38.517  11.078
81513W        W53938  24.716  31.470  13.888
81514W        W53939  23.053  44.783  10.408
81515W        W53940   4.379  23.162  12.939
81516W        W53941  31.134  26.101  10.460
81517W        W53942   4.876  40.511   3.828
81518W        W53943  26.536  22.015   9.987
81519W        W53944   8.784  24.510   4.157
81520W        W53945  20.652  13.155   2.194
81521W        W53946  41.800  10.375   3.211
81522W        W53947  27.133  31.618  13.947
81523W        W53948  20.589   9.829  11.487
81524W        W53949  15.268  16.183   2.191
81525W        W53950  21.586  35.954  13.890
81526W        W53951   8.698  42.868   4.801
81527W        W53952  24.489  35.038  14.850
81528W        W53953  37.031   4.313   0.840
81529W        W53954  19.759  12.251   0.736
81530W        W53955   4.307  28.502  13.545
81531W        W53956   4.382   2.286   0.451
81532W        W53957  21.695  19.279  13.913
81533W        W53958  18.734  17.705   0.433
81534W        W53959   1.800  15.680   2.849
81535W        W53960  41.320   2.466  10.938
81536W        W53961  33.434  12.826  10.082
81537W        W53962  34.941  28.011   4.785
81538W        W53963   5.689  19.543   0.883
81539W        W53964  13.696  42.339   2.778
81540W        W53965  24.169  11.764   5.608
81541W        W53966  14.207   4.325   4.746
81542W        W53967  13.153  19.546  13.894
81543W        W53968  24.479  20.631   0.808
81544W        W53969  42.902  29.001   3.386
81545W        W53970  13.719   6.257  11.024
81546W        W53971  19.633   2.452  13.384
81547W        W53972  43.386  15.124  12.931
81548W        W53973  34.094  40.030  14.280
81549W        W53974  13.602   9.195   4.264
81550W        W53975  17.770  44.794  13.313
81551W        W53976  38.432  10.698  12.050
81552W        W53977  15.724  17.563   4.788
81553W        W53978   7.727  32.106  13.514
81554W        W53979  19.175   1.909  14.944
81555W        W53980  21.619  35.966  14.407
81556W        W53981   3.778  38.407  14.781
81557W        W53982  25.613  16.597  11.487
81558W        W53983  30.003   6.762  13.020
81559W        W53984  22.578  32.405  12.574
81560W        W53985   1.356  30.445  11.571
81561W        W53986   6.762   1.940   3.240
81562W        W53987   5.375  10.242   2.743
81563W        W53988  24.051  32.456   9.599
81564W        W53989  44.834  41.010   0.243
81565W        W53990   5.220  38.928  11.919
81566W        W53991  10.293  10.147   5.207
81567W        W53992   5.314  43.434  13.434
81568W        W53993  26.479   4.277   1.907
81569W        W53994  44.378  23.117   2.253
81570W        W53995   1.947   2.244  14.320
81571W        W53996  19.612   2.775   2.373
81572W        W53997  23.544  16.270   4.614
81573W        W53998  44.354  18.073   2.386
81574W        W53999  36.497  43.373  10.905
81575W        W54000  15.699   0.806   5.237
81576W        W54001  11.747  18.248  14.025
81577W        W54002   8.311   3.947   4.287
81578W        W54003  27.954  28.013  11.879
81579W        W54004  41.872  19.062  12.339
81580W        W54005   9.731  33.467  12.485
81581W        W54006  27.551  26.564   4.244
81582W        W54007  21.684  18.722   0.366
81583W        W54008  22.157  26.640   1.291
81584W        W54009  20.666  20.143   2.763
81585W        W54010  14.293  17.121   4.664
81586W        W54011   6.709  18.596  12.051
81587W        W54012  13.652  33.069   0.363
81588W        W54013  42.415   4.345  10.616
81589W        W54014   2.722  10.754  13.933
81590W        W54015  23.097  17.182   2.299
81591W        W54016  34.422  25.164   4.661
81592W        W54017  17.567   5.393   0.363
81593W        W54018   5.741  16.749   0.316
81594W        W54019  41.391  30.970   2.207
81595W        W54020  25.105  31.595   2.245
81596W        W54021  17.744   6.186   0.269
81597W        W54022   3.382  19.142   1.405
81598W        W54023  16.157  31.044   4.804
81599W        W54024  43.433  23.593   3.786
81600W        W54025  19.193  32.099   1.261
81601W        W54026  31.916  28.019  13.401
81602W        W54027  26.145  23.101  11.990
81603W        W54028   6.858   0.980   0.760
81604W        W54029   5.388   3.744   4.281
81605W        W54030  24.636  36.487  12.481
81606W        W54031   9.149  30.638   0.847
81607W        W54032  43.963  10.774   0.814
81608W        W54033  36.954   7.269   2.712
81609W        W54034   4.279  14.755   3.187
81610W        W54035   2.926  16.207  14.893
81611W        W54036  17.248  11.724  12.489
81612W        W54037   4.431  20.558  10.525
81613W        W54038  26.582  20.241  14.767
81614W        W54039  35.988  35.875  12.399
81615W        W54040  14.669  24.215  10.465
81616W        W54041   7.766  27.674   1.307
81617W        W54042  32.451  34.930   2.380
81618W        W54043  38.540  27.154  10.414
81619W        W54044  26.478  16.583  12.492
81620W        W54045   1.813  21.601   1.383
81621W        W54046   7.347  23.233   1.714
81622W        W54047  41.448   6.718   0.429
81623W        W54048  17.224   4.834   1.357
81624W        W54049  32.115  13.707  11.609
81625W        W54050   1.888  17.611   1.429
81626W        W54051  32.472  29.436  13.545
81627W        W54052  36.445   5.929   1.446
81628W        W54053  21.206  35.059   2.801
81629W        W54054  29.651   3.229   2.307
81630W        W54055  34.471  10.203  11.376
81631W        W54056  24.205  42.416   0.243
81632W        W54057  24.676  25.996  14.487
81633W        W54058  28.029   9.205  10.576
81634W        W54059   1.949  25.055  14.304
81635W        W54060  28.491  17.139  11.418
81636W        W54061  30.058  11.756  12.026
81637W        W54062  33.884  27.064  13.890
81638W        W54063  14.320  36.925   3.808
81639W        W54064  30.974  26.686   0.870
81640W        W54065  23.114  21.517  13.381
81641W        W54066   1.346  17.122  12.025
81642W        W54067   6.363   4.786  11.413
81643W        W54068  20.571  42.940   0.892
81644W        W54069  30.038  18.257   4.749
81645W        W54070  10.722   9.665   0.888
81646W        W54071  18.190  25.678  11.419
81647W        W54072  12.748  22.589  14.790
81648W        W54073   9.740  10.842   3.762
81649W        W54074  19.685  14.214   1.269
81650W        W54075  10.694  20.668  10.492
81651W        W54076  43.918   2.967   4.742
81652W        W54077   8.230  15.112   2.709
81653W        W54078  21.091  41.352   4.729
81654W        W54079   1.461  31.102   4.776
81655W        W54080   7.749  28.474   1.749
81656W        W54081  35.023   6.416  11.540
81657W        W54082  24.038  25.046   3.868
81658W        W54083  15.162  25.125   3.712
81659W        W54084  29.149  15.634   3.674
81660W        W54085  30.971  33.595   2.195
81661W        W54086  21.573  29.072   3.194
81662W        W54087  10.765  24.506  13.910
81663W        W54088  36.541  41.034  12.033
81664W        W54089  41.406  24.639  14.302
81665W        W54090  43.352   1.737   2.809
81666W        W54091  25.104  36.392  10.451
81667W        W54092  41.376  38.532  13.937
81668W        W54093  39.971  32.998  11.485
81669W        W54094  12.830  43.797   2.895
81670W        W54095  41.306  33.890  13.012
81671W        W54096  12.815  33.549  11.049
81672W        W54097  38.480  26.186  10.485
81673W        W54098  28.436  27.133   3.221
81674W        W54099   6.184   6.340  14.484
81675W        W54100  15.751   2.964  10.419
81676W        W54101  19.039  39.338   4.181
81677W        W54102  40.900  11.798   4.766
81678W        W54103  24.173  24.044  12.975
81679W        W54104  15.687   6.746   3.796
81680W        W54105  19.604   0.804  14.435
81681W        W54106  32.056  16.646  14.825
81682W        W54107  41.538   2.304   0.256
81683W        W54108  37.063   3.856  10.512
81684W        W54109  16.121  25.669  13.871
81685W        W54110  10.788  15.177  14.886
81686W        W54111  44.263  38.921  13.469
81687W        W54112  23.076  38.968  14.819
81688W        W54113  11.699  25.120  10.893
81689W        W54114  38.021  26.623   0.358
81690W        W54115  24.008  25.658   4.633
81691W        W54116  15.107  24.177   2.220
81692W        W54117  30.113  22.055   3.302
81693W        W54118  21.736   1.832  10.986
81694W        W54119  14.754   6.689  14.298
81695W        W54120  43.271  33.101  13.474
81696W        W54121  30.987   6.834  12.470
81697W        W54122   6.301   6.403  14.810
81698W        W54123   0.457  23.567  11.446
81699W        W54124   5.294   2.745   3.336
81700W        W54125   8.869   0.832  13.953
81701W        W54126  41.471   7.781  13.945
81702W        W54127   0.430  29.971  10.888
81703W        W54128  34.547  36.992   0.367
81704W        W54129   4.398  23.567  10.554
81705W        W54130  27.512  16.138  11.114
81706W        W54131  33.469  30.059   3.383
81707W        W54132   8.340  44.318   1.216
81708W        W54133  28.472   4.844  12.029
81709W        W54134  43.872  28.580   1.773
81710W        W54135  31.997  29.495   3.318
81711W        W54136  20.624  20.138  13.391
81712W        W54137  43.942   8.215  12.922
81713W        W54138  18.181  10.360   4.268
81714W        W54139  34.896   3.353   4.310
81715W        W54140  43.907  30.552   4.830
81716W        W54141  29.533   5.863  13.933
81717W        W54142   6.280  40.000  13.457
81718W        W54143  38.467  24.517   0.466
81719W        W54144  24.585  24.715   3.851
81720W        W54145  29.627  33.607  11.941
81721W        W54146  31.529  24.989  13.983
81722W        W54147   8.178   4.794  13.531
81723W        W54148  17.243  12.254  12.575
81724W        W54149  28.985  34.529  14.766
81725W        W54150  11.790   9.373   3.646
81726W        W54151   3.398  39.341   3.835
81727W        W54152   2.239  33.102   4.702
81728W        W54153  11.673  42.832  14.318
81729W        W54154  27.466  23.497  14.768
81730W        W54155  30.054  27.071   1.318
81731W        W54156  44.787  42.495  12.426
81732W        W54157  30.445  36.081  10.636
81733W        W54158  31.096  28.989  10.958
81734W        W54159  36.869  20.567   3.260
81735W        W54160  29.021  13.263  12.454
81736W        W54161  17.224  32.579  12.000
81737W        W54162  12.806   0.313  13.939
81738W        W54163  30.653  40.921   2.718
81739W        W54164  11.854  26.964   3.375
81740W        W54165   0.461  24.600   0.818
81741W        W54166   5.842  36.941   3.842
81742W        W54167  11.278  44.787   3.870
81743W        W54168  39.053  19.545  14.774
81744W        W54169  40.412  42.464  14.790
81745W        W54170  35.542  23.168   0.457
81746W        W54171  42.873  40.978  10.511
81747W        W54172   4.872  21.170  13.038
81748W        W54173  22.139  13.709   3.209
81749W        W54174  35.592  18.719   0.315
81750W        W54175  11.147  38.883   0.748
81751W        W54176  40.494  16.077  13.458
81752W        W54177  16.108   7.295   1.747
81753W        W54178  16.298   7.724   2.337
81754W        W54179  39.362   5.212   1.225
81755W        W54180   1.345  32.490   2.237
81756W        W54181  10.346  44.350  14.022
81757W        W54182  20.728  17.305   2.814
81758W        W54183   7.794  42.943  11.966
81759W        W54184   2.437   8.373   0.777
81760W        W54185  32.118  26.083   2.682
81761W        W54186  39.398  29.137   2.695
81762W        W54187   2.857  23.205   3.308
81763W        W54188  40.841  12.159  12.906
81764W        W54189  34.572   9.846   1.307
81765W        W54190   5.704   5.240   1.841
81766W        W54191  35.057   6.757   4.716
81767W        W54192  10.174  42.823   2.199
81768W        W54193   4.241  30.104   0.394
81769W        W54194  41.912   3.334  12.861
81770W        W54195   5.397  19.065  11.963
81771W        W54196  27.002  22.700  10.458
81772W        W54197  30.124  37.448  13.865
81773W        W54198  38.059  37.938   3.250
81774W        W54199  25.101   1.356   4.300
81775W        W54200   8.855   0.392  13.547
81776W        W54201  31.438  14.613  13.409
81777W        W54202  36.468  44.405   0.366
81778W        W54203  40.905   8.704   2.827
81779W        W54204  34.472   8.362   0.738
81780W        W54205   9.815  34.520  11.383
81781W        W54206  39.037  31.086   2.871
81782W        W54207   4.902  43.514   1.868
81783W        W54208  34.081  22.574   3.210
81784W        W54209   2.430  26.088  10.923
81785W        W54210  18.723   2.940   0.271
81786W        W54211  33.900   6.846   0.388
81787W        W54212  37.945  31.018  12.475
81788W        W54213   2.901   9.270  12.978
81789W        W54214  18.098  39.946   1.419
81790W        W54215   8.277   4.406  11.422
81791W        W54216  23.647  27.099   2.839
81792W        W54217  38.480   5.207  14.482
81793W        W54218  36.013  28.933   0.888
81794W        W54219  21.613  36.953  13.051
81795W        W54220  44.463   6.907  12.845
81796W        W54221  14.650  21.630  11.577
81797W        W54222  39.898  38.398  14.981
81798W        W54223  25.522   4.803   5.196
81799W        W54224  30.086  38.826   9.936
81800W        W54225   1.909  32.568  13.848
81801W        W54226  14.738   8.777  11.069
81802W        W54227  23.018  43.495  11.458
81803W        W54228  37.467  26.531   2.734
81804W        W54229  27.640  21.215   4.187
81805W        W54230   0.893  38.888   0.952
81806W        W54231   1.934   8.234  13.365
81807W        W54232  30.116  41.485  10.591
81808W        W54233  21.704  40.392   1.330
81809W        W54234  13.676  29.622   1.323
81810W        W54235  16.141  23.609  14.458
81811W        W54236   0.936  15.714   0.868
81812W        W54237  36.983  26.516  14.343
81813W        W54238   2.865  30.157   3.816
81814W        W54239  34.374  21.523   2.378
81815W        W54240   8.292  14.698  10.603
81816W        W54241  34.377  22.721  13.933
81817W        W54242  24.538  10.223   4.181
81818W        W54243   7.797  37.900  12.885
81819W        W54244  28.443  23.994  12.511
81820W        W54245  29.462  13.191  11.120
81821W        W54246  12.234   0.814  11.931
81822W        W54247  38.875  20.660  11.122
81823W        W54248  44.467   7.172   1.334
81824W        W54249  29.144  22.546  13.047
81825W        W54250   6.382  31.967   5.248
81826W        W54251  11.282  18.153   4.622
81827W        W54252   4.832  33.591  13.407
81828W        W54253  19.086  21.652  12.885
81829W        W54254  39.022  12.668  14.841
81830W        W54255  31.902   8.844   9.993
81831W        W54256   0.773  13.638   4.184
81832W        W54257  40.901   5.343  11.990
81833W        W54258   4.767   0.806   5.156
81834W        W54259  23.724  27.130   3.296
81835W        W54260  20.757   0.431  12.039
81836W        W54261  34.009  25.485  11.555
81837W        W54262   9.859  31.579  13.060
81838W        W54263  43.867   5.831  13.332
81839W        W54264  31.525  14.243  14.454
81840W        W54265   8.733  18.232   2.351
81841W        W54266  13.265  35.560   4.261
81842W        W54267  37.893  20.183  13.364
81843W        W54268  29.140   9.277  14.499
81844W        W54269  21.039  41.324  14.365
81845W        W54270  29.545   4.891   1.444
81846W        W54271  42.981  26.463   4.131
81847W        W54272  27.561  27.983   3.685
81848W        W54273  30.496  13.148  14.830
81849W        W54274  35.399  35.358  14.029
81850W        W54275  39.489  12.806   0.247
81851W        W54276  31.028  14.240  14.028
81852W        W54277   6.822  40.933   0.793
81853W        W54278   2.804  37.016   1.871
81854W        W54279   5.406  30.637   2.224
81855W        W54280  15.165   2.360   9.563
81856W        W54281  15.670  26.960   4.328
81857W        W54282  12.667  32.630  13.469
81858W        W54283  16.755  34.544  10.109
81859W        W54284  34.934  14.280  10.895
81860W        W54285  39.040  37.365   4.780
81861W        W54286  11.678   4.433   2.361
81862W        W54287   7.848  44.265   0.805
81863W        W54288  37.573   1.811  13.497
81864W        W54289  21.641  12.784  11.961
81865W        W54290   0.753   1.743   2.895
81866W        W54291  15.784  10.236  12.562
81867W        W54292  24.504   0.460  10.506
81868W        W54293   7.724  35.007   4.226
81869W        W54294  32.545  29.066   2.737
81870W        W54295   1.777   7.408   3.220
81871W        W54296   0.751   6.706  11.076
81872W        W54297  28.135  41.436   0.446
81873W        W54298  23.169  30.970  13.403
81874W        W54299  16.236  24.544  12.933
81875W        W54300  36.856  42.943  11.991
81876W        W54301  44.997  23.546  13.883
81877W        W54302  10.365   7.314   4.663
81878W        W54303  11.811  20.723  14.896
81879W        W54304  24.135  21.019  14.374
81880W        W54305  12.233  25.055   0.763
81881W        W54306  26.497  27.555   2.852
81882W        W54307  32.593  22.621   3.200
81883W        W54308  41.821  24.040  12.929
81884W        W54309  38.942   2.777   4.143
81885W        W54310  19.730  38.843   0.812
81886W        W54311   6.895   2.241   2.843
81887W        W54312  27.686  15.309   4.246
81888W        W54313   4.213   7.179  11.578
81889W        W54314  32.547  43.006   0.354
81890W        W54315  44.908   2.905   1.854
81891W        W54316  40.983  18.633   1.733
81892W        W54317   6.882  20.528  14.302
81893W        W54318   8.707  23.600   2.266
81894W        W54319   0.810  10.335  10.619
81895W        W54320  39.983  39.466  12.846
81896W        W54321  20.562  30.567  11.926
81897W        W54322  14.833  14.113   4.345
81898W        W54323  12.324  34.965   3.808
81899W        W54324   5.436  25.059   4.286
81900W        W54325  35.065   8.311   5.686
81901W        W54326  19.764  33.449  10.537
81902W        W54327  11.270  30.011  10.548
81903W        W54328  40.488  38.511   4.161
81904W        W54329  41.037   8.710  14.958
81905W        W54330  14.217  27.128   2.225
81906W        W54331  29.137  37.990  12.362
81907W        W54332  36.382  33.915  13.534
81908W        W54333   7.739  40.324  12.922
81909W        W54334  19.682  10.680  11.067
81910W        W54335  33.536   1.943  12.026
81911W        W54336  39.950  20.551  13.926
81912W        W54337  40.848  14.222   4.815
81913W        W54338  43.306  35.040   4.663
81914W        W54339   1.384  28.449   2.881
81915W        W54340  10.811  26.539  12.055
81916W        W54341  14.302  41.023   3.748
81917W        W54342  10.207  11.159  10.069
81918W        W54343  35.097  11.746   1.801
81919W        W54344  27.029   6.760   0.785
81920W        W54345  22.051  36.506  11.521
81921W        W54346  10.207  19.065  12.404
81922W        W54347  21.076  16.227  13.421
81923W        W54348  24.558  42.836   0.304
81924W        W54349  42.985  44.946   0.919
81925W        W54350  43.877  44.478  10.982
81926W        W54351  22.734  39.320   3.354
81927W        W54352  39.040   6.339   0.842
81928W        W54353   8.803  25.666   2.678
81929W        W54354  30.558  25.124   2.381
81930W        W54355  42.473  10.841  11.023
81931W        W54356  44.480  17.752   2.283
81932W        W54357  14.327  38.863  11.088
81933W        W54358  22.515  28.608  12.911
81934W        W54359  24.722   2.415   4.666
81935W        W54360   5.367  33.598  12.399
81936W        W54361   7.226  11.350   3.243
81937W        W54362  25.524   4.369  12.416
81938W        W54363  28.513  26.024  12.059
81939W        W54364  17.239  38.921   0.409
81940W        W54365  42.500  39.938   1.847
81941W        W54366  27.521  29.436  14.393
81942W        W54367  42.861  40.381  12.070
81943W        W54368  35.059  18.722  12.998
81944W        W54369  38.974   9.821   0.483
81945W        W54370  18.692  24.539   4.624
81946W        W54371   4.246  41.865   3.723
81947W        W54372  27.970   9.846   1.361
81948W        W54373  29.117  31.940   2.784
81949W        W54374  28.555  15.212   2.187
81950W        W54375   4.897  15.171   4.681
81951W        W54376  43.378  25.217  12.892
81952W        W54377  11.638  34.030  10.962
81953W        W54378  30.415   1.337  13.841
81954W        W54379  36.410  44.477   0.943
81955W        W54380  43.785   8.718  14.308
81956W        W54381  18.709  33.426   0.738
81957W        W54382  14.297  21.642  11.998
81958W        W54383  42.340   6.323  10.515
81959W        W54384   7.737   6.713  13.956
81960W        W54385  13.218   5.398   3.288
81961W        W54386  25.986  30.555   3.864
81962W        W54387  27.127  17.099   1.775
81963W        W54388  24.211  22.515  11.126
81964W        W54389  17.228  15.695  10.158
81965W        W54390  25.622  44.779   4.611
81966W        W54391  27.147  25.032   0.836
81967W        W54392  28.540  15.267   1.894
81968W        W54393  40.996  33.028   1.321
81969W        W54394  40.010   0.480   1.857
81970W        W54395  29.045   1.278  10.642
81971W        W54396  24.036  18.570  11.886
81972W        W54397  17.591   5.756  11.882
81973W        W54398  42.902  27.474   4.252
81974W        W54399  24.019  15.702  11.485
81975W        W54400  44.881  24.013   3.277
81976W        W54401  15.233  11.129   3.229
81977W        W54402  33.126  19.057  11.449
81978W        W54403  38.380  19.137  11.493
81979W        W54404  20.078  18.712  11.036
81980W        W54405  30.532  27.026  11.910
81981W        W54406  16.181  24.171  11.423
81982W        W54407  30.639   7.741  12.394
81983W        W54408  35.927  27.946   0.408
81984W        W54409   5.706  11.708   2.841
81985W        W54410  28.087  21.577   4.150
81986W        W54411   3.227  27.477  13.344
81987W        W54412   4.225  39.476   0.265
81988W        W54413  28.530   0.279  13.916
81989W        W54414  22.112  35.042  14.331
81990W        W54415  16.184  40.836  12.899
81991W        W54416  10.864  27.169   2.749
81992W        W54417   2.296  43.275  11.579
81993W        W54418  29.000  14.742  12.031
81994W        W54419  42.459   6.284   4.143
81995W        W54420  36.559  10.230   2.365
81996W        W54421  16.705  34.512   1.893
81997W        W54422  15.096   4.240   5.696
81998W        W54423  27.140  30.426  13.034
81999W        W54424   9.661   7.289  12.992
82000W        W54425  12.668  22.023   2.254
82001W        W54426  12.283  26.140   4.211
82002W        W54427  33.062   6.686   3.769
82003W        W54428  41.989  30.487  13.367
82004W        W54429  18.258  32.889   0.919
82005W        W54430  27.476  15.734   4.782
82006W        W54431   6.754   5.195  12.433
82007W        W54432  28.653   5.437   2.831
82008W        W54433  38.910   1.813   5.094
82009W        W54434  21.663   1.315  14.424
82010W        W54435   1.876  24.989   4.195
82011W        W54436  31.923   4.818  14.372
82012W        W54437   0.884  24.165  13.341
82013W        W54438   0.769  14.186   2.263
82014W        W54439  41.819  26.106  12.408
82015W        W54440   8.224  29.606  13.004
82016W        W54441  31.119  42.299  12.856
82017W        W54442  38.949  29.995  14.435
82018W        W54443  39.977  31.040   2.774
82019W        W54444   0.940  39.471  14.978
82020W        W54445  19.239  23.614   2.203
82021W        W54446  36.043  24.496  10.565
82022W        W54447  19.624   7.372  12.084
82023W        W54448  25.076  29.485   5.276
82024W        W54449  26.513  16.715  10.160
82025W        W54450  13.131   7.911   2.186
82026W        W54451  42.526  19.268   0.294
82027W        W54452  20.051   4.764   3.336
82028W        W54453  11.179  22.217   3.242
82029W        W54454  31.590  42.306  10.963
82030W        W54455  13.846  18.175  13.883
82031W        W54456  11.347  32.589  14.896
82032W        W54457  28.979   7.277   3.796
82033W        W54458  35.589  34.561  11.563
82034W        W54459  22.191   8.747   3.783
82035W        W54460  44.305   8.673  13.366
82036W        W54461  20.677   2.914  11.445
82037W        W54462   8.705  36.991  12.893
82038W        W54463  33.541  12.306  12.479
82039W        W54464   8.747   5.775   2.806
82040W        W54465  41.877  40.855  13.396
82041W        W54466  19.078  33.108   0.835
82042W        W54467   1.255  31.488  10.469
82043W        W54468   0.884  33.420   4.165
82044W        W54469   4.904  16.609  10.645
82045W        W54470  32.439   7.743   0.843
82046W        W54471  26.633   3.889   4.215
82047W        W54472  25.664   3.411   1.258
82048W        W54473  30.429  33.078  12.527
82049W        W54474  23.639  29.938   3.748
82050W        W54475   3.953  10.776   4.665
82051W        W54476  24.481  21.752  13.452
82052W        W54477   8.261  40.841  11.900
82053W        W54478  23.178  36.518  13.954
82054W        W54479  15.662  18.213  11.919
82055W        W54480   3.718  39.937   3.648
82056W        W54481  13.767   8.331  14.935
82057W        W54482  35.928  29.139  13.881
82058W        W54483  20.542   6.209   1.795
82059W        W54484  43.455  26.598   1.731
82060W        W54485  27.017  37.367   0.307
82061W        W54486   4.715  38.877  11.574
82062W        W54487   8.369  34.566  14.923
82063W        W54488  42.413  29.556  12.429
82064W        W54489  24.536   7.759  14.785
82065W        W54490  43.497   8.315  11.973
82066W        W54491   0.841  31.115  13.799
82067W        W54492   5.261  44.504   4.246
82068W        W54493   7.274  36.940  10.973
82069W        W54494   5.738  28.104  14.413
82070W        W54495  17.232  11.685  11.931
82071W        W54496  44.296  25.981  14.471
82072W        W54497  13.239  10.714   0.749
82073W        W54498  39.872   3.832  12.369
82074W        W54499  32.894   1.861   1.870
82075W        W54500  14.671  12.246  14.842
82076W        W54501  24.080  35.591   1.355
82077W        W54502  13.244  36.350  12.396
82078W        W54503  10.842   7.775   1.734
82079W        W54504  15.610  36.552  13.358
82080W        W54505  40.445   3.382   2.291
82081W        W54506  42.946  30.096   0.464
82082W        W54507  43.969   7.784   1.364
82083W        W54508  34.956  14.665   1.738
82084W        W54509  43.017  32.954  10.490
82085W        W54510  36.998  25.647   1.319
82086W        W54511  33.126  19.571  10.404
82087W        W54512   3.366  33.997   4.823
82088W        W54513  19.058   2.826  13.798
82089W        W54514  24.997  38.015  14.984
82090W        W54515  27.993  27.151   2.669
82091W        W54516  27.505  23.148   3.223
82092W        W54517  20.126  26.463  12.016
82093W        W54518  26.666   0.914  13.932
82094W        W54519  30.155  20.572   3.670
82095W        W54520  20.060  13.673  11.588
82096W        W54521  19.167  43.965   4.599
82097W        W54522   3.257  32.011   3.198
82098W        W54523   9.171  39.855  13.924
82099W        W54524  34.866   4.347   2.662
82100W        W54525  42.282  43.516   4.125
82101W        W54526   2.400  18.155  10.454
82102W        W54527  40.380  34.892   0.301
82103W        W54528  22.701  19.158  12.074
82104W        W54529  22.689  38.408  10.104
82105W        W54530   8.878   6.882   3.323
82106W        W54531   2.785  24.506  11.382
82107W        W54532  20.591   6.869   3.854
82108W        W54533   0.867  19.157  12.030
82109W        W54534   2.838   0.388   1.723
82110W        W54535  30.477   8.741   4.330
82111W        W54536  33.381  28.049   5.222
82112W        W54537   3.350  12.779  14.323
82113W        W54538   5.925   0.323   2.372
82114W        W54539  17.150   6.884  13.812
82115W        W54540  20.615  29.459   0.797
82116W        W54541  32.108   9.821  12.059
82117W        W54542  33.568   7.302   0.865
82118W        W54543  39.016  14.203  12.869
82119W        W54544  36.394   6.195  10.134
82120W        W54545   8.237  43.991   0.301
82121W        W54546  36.573  14.319  10.419
82122W        W54547  13.231  42.373  10.958
82123W        W54548  40.495  31.982  14.821
82124W        W54549  43.796  32.035   0.391
82125W        W54550  33.463  14.160  13.438
82126W        W54551   1.432  43.285  14.904
82127W        W54552  18.726  26.169  11.407
82128W        W54553  42.377  32.415   4.225
82129W        W54554   8.242   7.777   1.779
82130W        W54555  12.756  31.590  11.438
82131W        W54556  34.109  39.413  11.578
82132W        W54557  10.632  21.134  10.940
82133W        W54558  10.778  24.541  14.964
82134W        W54559  30.443   2.769  12.545
82135W        W54560  25.048   7.365   2.273
82136W        W54561  34.525  18.580  13.041
82137W        W54562   9.816  23.513  10.638
82138W        W54563  13.261  35.391   1.706
82139W        W54564  29.537   0.356  14.906
82140W        W54565  12.646  40.940   4.180
82141W        W54566  39.003  42.780  14.986
82142W        W54567   6.255   9.873   4.256
82143W        W54568  25.048  41.331  14.900
82144W        W54569  21.554  29.565  13.409
82145W        W54570  25.131  37.549  11.103
82146W        W54571  32.621  18.732  14.365
82147W        W54572  27.090  33.986  14.794
82148W        W54573  37.984  19.086  13.890
82149W        W54574  43.825  33.995   3.717
82150W        W54575  34.508  41.894   3.721
82151W        W54576   5.790  14.758   1.705
82152W        W54577  11.750  10.833  11.855
82153W        W54578  30.150  42.888  14.006
82154W        W54579  34.554   0.464  13.533
82155W        W54580  37.506   0.264   0.915
82156W        W54581  35.376  43.924   1.920
82157W        W54582  22.106  44.878   2.738
82158W        W54583  41.029  12.709   3.638
82159W        W54584  20.696   8.338   0.875
82160W        W54585  13.825  37.452   0.280
82161W        W54586  34.867  36.428  12.390
82162W        W54587  39.898   7.751   1.229
82163W        W54588  35.455  40.911  13.956
82164W        W54589  22.202  36.428  12.473
82165W        W54590  20.578   9.185  14.963
82166W        W54591  44.866  30.980  10.074
82167W        W54592  14.620  40.524   3.194
82168W        W54593   7.871  13.619  12.348
82169W        W54594   6.728  39.862  11.440
82170W        W54595  34.926  14.289   0.420
82171W        W54596  32.949   6.819   2.788
82172W        W54597  44.998  30.941   1.289
82173W        W54598  25.524  28.447  12.376
82174W        W54599  23.697  29.488  12.829
82175W        W54600  36.348   9.245  13.830
82176W        W54601  30.542  36.935   2.331
82177W        W54602  25.645  31.562  14.859
82178W        W54603   6.229   6.743   2.809
82179W        W54604  10.868  33.544   4.768
82180W        W54605  31.497   5.720  14.022
82181W        W54606  19.245  16.612   0.876
82182W        W54607   6.855  15.117  13.044
82183W        W54608  27.081  30.415  11.470
82184W        W54609  23.125   7.279  10.890
82185W        W54610   9.322   7.181   4.186
82186W        W54611  32.937   1.750   1.400
82187W        W54612  17.277  37.912   1.251
82188W        W54613  16.208  27.175   4.222
82189W        W54614  44.915   5.274  13.495
82190W        W54615  26.485  34.506   1.271
82191W        W54616  28.968  30.963  13.923
82192W        W54617   6.802  16.773   2.227
82193W        W54618  19.648  42.789  13.455
82194W        W54619  36.059  30.012   4.662
82195W        W54620  43.473  25.527   2.802
82196W        W54621  17.114  35.000   1.290
82197W        W54622   2.787   0.449   4.193
82198W        W54623   7.768   0.875  12.954
82199W        W54624  24.160  15.323  12.556
82200W        W54625  28.183  42.361   2.826
82201W        W54626  34.592  35.911  12.504
82202W        W54627   8.881  41.530   1.439
82203W        W54628  15.170   5.759  10.456
82204W        W54629  14.139   6.300  13.964
82205W        W54630  15.822  33.929   5.202
82206W        W54631   7.906  19.164  14.822
82207W        W54632  18.240  14.269   0.387
82208W        W54633  14.804   5.414   2.267
82209W        W54634  19.062  24.626   2.817
82210W        W54635  35.391  39.002  11.086
82211W        W54636  29.072  39.943   2.276
82212W        W54637  36.495  23.204  11.547
82213W        W54638  36.052  33.573  14.391
82214W        W54639  43.937  18.241  13.532
82215W        W54640  30.609  17.264   3.183
82216W        W54641   8.787  36.061   1.329
82217W        W54642  26.960  19.045   2.322
82218W        W54643  27.940  30.910  10.966
82219W        W54644  16.104  28.155   4.624
82220W        W54645  32.962  19.688  12.834
82221W        W54646  18.773  32.397  14.821
82222W        W54647  36.976  39.346  14.960
82223W        W54648  24.580   3.429   2.367
82224W        W54649   8.177   1.757  12.451
82225W        W54650  34.561   3.891   2.403
82226W        W54651  20.735  28.626   2.785
82227W        W54652  39.970  19.763  14.514
82228W        W54653  20.619  27.614  14.005
82229W        W54654  23.729  19.673  13.853
82230W        W54655   0.345  19.256  14.406
82231W        W54656  16.803   9.314   0.748
82232W        W54657  25.681  39.824  12.861
82233W        W54658  22.632  30.937   2.413
82234W        W54659   6.800  44.400  11.956
82235W        W54660  27.084  16.686  12.823
82236W        W54661  30.003  18.233  12.067
82237W        W54662  44.831  41.451   3.251
82238W        W54663  24.549  21.190   1.786
82239W        W54664  16.089  40.544  13.322
82240W        W54665  33.091   2.807   2.880
82241W        W54666   5.206  20.728  13.813
82242W        W54667  33.031  33.875   0.861
82243W        W54668  32.577  24.074  10.021
82244W        W54669  39.904   7.674  10.407
82245W        W54670  42.426  35.985  14.017
82246W        W54671  21.516  27.049  13.931
82247W        W54672  30.642  30.619   4.651
82248W        W54673  20.148  10.835   0.334
82249W        W54674   8.347  17.594  14.357
82250W        W54675  16.138  24.101   4.650
82251W        W54676   1.942  11.741   1.357
82252W        W54677  44.871   1.891  11.992
82253W        W54678  39.816   5.394  10.518
82254W        W54679  25.706   2.267  11.529
82255W        W54680   5.331  16.725   4.685
82256W        W54681  34.023  20.674   3.260
82257W        W54682  44.951  11.303  12.516
82258W        W54683  16.105   6.208  10.112
82259W        W54684  30.043  37.839   0.823
82260W        W54685   4.350   7.704   1.738
82261W        W54686  33.042   7.867   2.246
82262W        W54687   0.868  35.530  11.941
82263W        W54688  27.077   5.876   4.745
82264W        W54689  24.653  33.125   3.676
82265W        W54690  41.511  43.281   3.776
82266W        W54691  40.427  37.835   0.928
82267W        W54692  34.493  21.158   4.142
82268W        W54693   7.730   4.867  11.892
82269W        W54694  44.395   7.799   3.716
82270W        W54695  10.752  27.063  13.811
82271W        W54696  40.457  36.391   1.239
82272W        W54697  30.011   5.203  10.454
82273W        W54698  26.668  13.785   2.256
82274W        W54699  34.114  23.145   0.362
82275W        W54700  18.240  37.440   1.863
82276W        W54701  42.471   9.678   3.751
82277W        W54702  39.481  19.166  11.588
82278W        W54703  19.664  40.409   2.237
82279W        W54704  17.263  40.920  13.449
82280W        W54705  26.491  32.098  11.081
82281W        W54706   1.309   1.237   4.286
82282W        W54707  35.391  17.149  12.387
82283W        W54708  21.527  29.006  12.849
82284W        W54709  35.501  42.389   4.722
82285W        W54710  21.246  19.225  10.522
82286W        W54711  35.067   1.955   3.197
82287W        W54712  40.402   0.989   4.800
82288W        W54713   9.694   2.388   2.189
82289W        W54714   3.329  36.075  11.941
82290W        W54715   7.819  20.237   2.366
82291W        W54716   9.313  43.820   3.863
82292W        W54717   9.255  26.619  14.331
82293W        W54718  38.362  22.126   4.263
82294W        W54719  33.389   1.295  12.059
82295W        W54720   5.395  40.519   1.810
82296W        W54721  27.193  28.656   2.263
82297W        W54722  11.253  20.111  13.825
82298W        W54723  24.982  37.520   0.852
82299W        W54724   6.348   2.398   1.904
82300W        W54725  31.969  14.169   4.147
82301W        W54726  22.083  10.789   4.297
82302W        W54727  15.815  35.064  10.940
82303W        W54728  35.589  34.117   1.314
82304W        W54729  38.397  13.159  13.897
82305W        W54730   6.860  21.572  14.872
82306W        W54731  30.089  23.500   1.359
82307W        W54732  44.911   2.402   1.331
82308W        W54733  41.966  44.291  11.084
82309W        W54734  36.571   6.342  13.058
82310W        W54735  19.283  14.321  12.499
82311W        W54736  25.161  19.669   2.729
82312W        W54737  14.782  23.007  10.494
82313W        W54738  17.693  21.749   1.764
82314W        W54739  39.408  30.653   3.346
82315W        W54740  25.996  13.697   0.351
82316W        W54741  40.888   0.820  11.381
82317W        W54742   7.243  22.551  11.573
82318W        W54743   0.810  13.241   0.911
82319W        W54744  23.586  11.210   2.257
82320W        W54745  25.020   6.296  10.990
82321W        W54746  37.047  32.019   4.825
82322W        W54747  32.515  25.581  10.954
82323W        W54748  26.977  38.907   0.322
82324W        W54749  10.238  32.951   2.419
82325W        W54750  24.680  35.015   3.805
82326W        W54751  30.436  14.246  12.062
82327W        W54752   6.295  21.535   1.855
82328W        W54753   1.820  12.697  13.393
82329W        W54754   8.889  17.757   0.795
82330W        W54755  34.015   5.746  12.979
82331W        W54756  29.931  13.204   0.477
82332W        W54757  18.548  17.097  13.382
82333W        W54758  37.047  18.776  12.575
82334W        W54759   0.964  31.588   4.119
82335W        W54760  41.500  35.439   1.898
82336W        W54761  15.587   3.783   9.995
82337W        W54762  27.975  23.069   2.314
82338W        W54763  19.188  23.684   0.901
82339W        W54764  21.125  37.354  14.006
82340W        W54765  36.493   3.455   2.406
82341W        W54766  29.046   7.406  10.936
82342W        W54767  10.802  27.485  10.610
82343W        W54768  19.547  14.786  14.280
82344W        W54769  16.573  32.460   5.568
82345W        W54770  30.949  36.372   2.661
82346W        W54771  22.550  17.225   1.800
82347W        W54772  23.145  26.648   5.136
82348W        W54773  26.681   5.910   0.254
82349W        W54774  12.173  24.011  11.128
82350W        W54775  41.354  31.898   0.272
82351W        W54776   5.907   6.358   3.763
82352W        W54777   6.895  15.098  14.306
82353W        W54778  34.383  30.925   3.831
82354W        W54779  30.151  12.232   1.448
82355W        W54780   0.919   6.369   2.701
82356W        W54781  19.540  28.953  13.823
82357W        W54782   4.873  32.086   5.178
82358W        W54783  35.418  30.028  13.518
82359W        W54784  30.156  26.969  10.576
82360W        W54785   6.203  18.564   4.765
82361W        W54786   6.361  16.805   4.615
82362W        W54787  31.422  16.733  12.537
82363W        W54788  36.951  12.656   3.180
82364W        W54789  38.856  16.091  12.473
82365W        W54790  42.917  25.622  12.389
82366W        W54791  33.513  33.979   2.346
82367W        W54792  35.921   7.358  11.594
82368W        W54793  19.619  14.114  10.156
82369W        W54794  25.972  15.817  14.506
82370W        W54795  37.474  25.148  10.135
82371W        W54796   8.754  38.514   3.296
82372W        W54797  10.846  33.008  14.023
82373W        W54798   4.395  21.185  12.938
82374W        W54799  30.973  33.089   4.289
82375W        W54800  25.583  18.057  11.935
82376W        W54801  34.973  26.204  10.480
82377W        W54802   1.333  41.310   0.468
82378W        W54803  33.498  37.530  11.610
82379W        W54804  39.361  21.677  12.085
82380W        W54805  13.640  24.595   9.974
82381W        W54806  31.529  21.571   5.655
82382W        W54807  13.612  22.534  14.854
82383W        W54808  15.176  24.568  14.835
82384W        W54809  18.674  16.679   2.681
82385W        W54810  30.594   9.653   1.324
82386W        W54811   4.288  12.325   2.287
82387W        W54812  24.652  37.830  12.834
82388W        W54813  16.288  29.629  13.463
82389W        W54814  14.687   3.860   0.264
82390W        W54815   8.786  16.730   3.183
82391W        W54816  40.813  20.061   5.227
82392W        W54817  15.754  29.003  11.560
82393W        W54818  35.577  39.883  13.819
82394W        W54819  37.932   4.272  10.624
82395W        W54820  37.956   4.864   4.789
82396W        W54821  34.042  38.831  11.531
82397W        W54822  18.771  42.844   4.756
82398W        W54823   8.761   9.697   0.433
82399W        W54824  15.773  37.383   1.927
82400W        W54825   3.269  31.130   2.212
82401W        W54826  43.982  43.495   4.615
82402W        W54827   1.893   2.933   1.809
82403W        W54828  21.601  22.240   3.336
82404W        W54829  25.154  20.156  11.426
82405W        W54830   5.764   0.907   3.206
82406W        W54831  33.013   2.943  12.373
82407W        W54832  38.526  33.903   2.887
82408W        W54833  17.776  22.524  10.409
82409W        W54834  32.911  43.281  12.032
82410W        W54835  11.692  22.662   5.119
82411W        W54836  21.720  28.944   1.887
82412W        W54837  32.489  10.872  14.948
82413W        W54838  31.535  15.610  14.958
82414W        W54839  33.947   4.415  13.384
82415W        W54840   1.347  34.431  12.528
82416W        W54841   9.389  37.087   0.906
82417W        W54842  23.568   8.218   3.227
82418W        W54843   5.715   5.803  12.062
82419W        W54844  34.931  25.048  14.001
82420W        W54845  24.666  44.942  13.940
82421W        W54846  34.466   9.245  11.565
82422W        W54847  25.174  21.665   0.964
82423W        W54848  14.774  38.504  12.873
82424W        W54849  39.861   2.888   3.837
82425W        W54850  40.351  39.527  14.392
82426W        W54851  22.695  30.439   4.747
82427W        W54852  26.494  40.317  11.962
82428W        W54853  22.249  29.605  13.443
82429W        W54854  25.608  35.107   2.669
82430W        W54855  34.023  44.351  12.435
82431W        W54856   3.940   0.366   0.765
82432W        W54857  29.561   8.273   3.646
82433W        W54858  42.889  19.655   9.648
82434W        W54859  10.324  28.157  13.369
82435W        W54860  44.901  38.543  14.451
82436W        W54861  21.060  41.921   5.132
82437W        W54862  15.282   6.759   0.300
82438W        W54863   6.249  37.473  11.116
82439W        W54864  30.492  19.125  14.398
82440W        W54865   9.346   4.263   4.734
82441W        W54866  17.772  28.166  10.532
82442W        W54867   3.259  14.309   2.289
82443W        W54868   5.390  33.387   0.954
82444W        W54869  12.612  19.181   3.285
82445W        W54870  18.599   0.466  14.878
82446W        W54871  35.070  19.655   3.232
82447W        W54872  17.122  23.500  12.833
82448W        W54873  32.028  15.781   4.799
82449W        W54874  15.298  30.626  11.410
82450W        W54875   3.831  20.050  11.540
82451W        W54876  33.047   4.778  12.379
82452W        W54877   7.360  23.626  13.931
82453W        W54878   3.836   2.329  10.446
82454W        W54879  17.201  44.961   1.705
82455W        W54880  28.558  20.106   3.187
82456W        W54881  27.627  41.799   0.244
82457W        W54882   9.772  19.068   1.824
82458W        W54883  40.948  30.412   1.827
82459W        W54884   1.384  19.281  14.312
82460W        W54885  12.317   2.463  13.339
82461W        W54886  35.428  21.017   4.814
82462W        W54887  11.218  26.543  14.498
82463W        W54888  32.937  25.016   1.875
82464W        W54889   6.306  28.111  10.103
82465W        W54890  23.624  18.665  13.381
82466W        W54891  34.115  21.068   0.327
82467W        W54892  13.770  31.147   2.891
82468W        W54893  23.685  30.416   4.822
82469W        W54894  41.977  25.112   3.660
82470W        W54895   3.461  28.024   4.202
82471W        W54896  12.766  12.291  13.807
82472W        W54897  29.091  40.334   2.750
82473W        W54898  12.342   2.335   1.269
82474W        W54899  37.376  14.320  13.534
82475W        W54900  12.804  10.753   4.273
82476W        W54901  28.090   9.255   2.225
82477W        W54902  18.672  23.019   0.938
82478W        W54903  32.421  27.609   1.915
82479W        W54904  14.641  38.942  13.398
82480W        W54905  12.791  20.695  11.604
82481W        W54906  16.686  10.754   1.735
82482W        W54907  22.631   5.361   3.153
82483W        W54908  24.576  34.911   4.814
82484W        W54909  10.779  19.588   2.323
82485W        W54910  32.527  30.615  13.520
82486W        W54911  16.290  29.461  10.500
82487W        W54912  15.618  18.158   1.284
82488W        W54913  28.955  18.699  14.924
82489W        W54914   9.168  18.756  14.011
82490W        W54915  35.516  16.290  12.070
82491W        W54916   6.813  36.440   3.848
82492W        W54917  20.605  13.742  13.333
82493W        W54918  25.559  27.176   2.669
82494W        W54919  23.077  16.254   4.765
82495W        W54920  25.039  18.133   2.322
82496W        W54921  22.132   6.303   3.335
82497W        W54922  44.368   9.221   0.376
82498W        W54923  27.459  24.147  13.485
82499W        W54924  44.415  39.926  14.425
82500W        W54925  21.156  43.892  13.351
82501W        W54926  40.438  23.693  10.419
82502W        W54927  27.957  37.476   0.753
82503W        W54928  40.969   6.741  12.378
82504W        W54929  36.917   0.810  13.800
82505W        W54930  40.420  13.752   1.772
82506W        W54931  20.751  44.829   0.417
82507W        W54932  17.121   9.333  13.339
82508W        W54933   4.296  15.243  12.027
82509W        W54934  23.693  22.704  14.987
82510W        W54935   7.267  10.265  13.823
82511W        W54936  13.632  14.820   2.744
82512W        W54937   9.280  43.362   0.391
82513W        W54938   5.424   3.745   0.265
82514W        W54939  11.855  18.139   0.801
82515W        W54940  39.943  37.048   2.823
82516W        W54941  35.928  37.043  13.811
82517W        W54942   7.852  41.828  10.987
82518W        W54943   5.838  39.330  13.053
82519W        W54944  38.856  15.212  11.950
82520W        W54945  12.174  24.013   4.774
82521W        W54946  14.217  34.984   3.827
82522W        W54947   2.857  39.961  13.059
82523W        W54948   6.922  35.374  10.573
82524W        W54949  36.077  26.538  10.032
82525W        W54950  40.404  42.873   2.324
82526W        W54951  36.522  22.576  10.509
82527W        W54952   2.966  22.620   4.634
82528W        W54953  25.470  31.041  13.344
82529W        W54954  31.128  30.658  11.857
82530W        W54955  44.824  25.595  11.411
82531W        W54956   6.736  41.934  14.018
82532W        W54957   3.898  30.536  12.086
82533W        W54958  42.801  44.944   3.738
82534W        W54959  43.020  13.845   3.636
82535W        W54960  12.843  28.486  11.595
82536W        W54961  35.486   8.804   3.689
82537W        W54962  14.725  10.291   2.760
82538W        W54963  17.070  18.159  11.000
82539W        W54964   0.388  30.992  13.492
82540W        W54965  44.877  17.294  12.045
82541W        W54966  32.609   4.932  13.392
82542W        W54967  14.602  33.467  13.375
82543W        W54968  18.684   0.455  10.575
82544W        W54969  20.275  25.576  13.353
82545W        W54970   1.973  20.069  12.425
82546W        W54971  12.618  27.179  12.981
82547W        W54972  35.979   9.354  12.410
82548W        W54973  32.604  18.257   3.241
82549W        W54974  41.871   7.229   0.287
82550W        W54975  28.050   1.291  13.020
82551W        W54976  13.323   0.896   1.845
82552W        W54977  28.606  20.758  14.794
82553W        W54978  21.637  12.290   4.146
82554W        W54979  34.523   5.888   4.129
82555W        W54980  35.568  11.777  13.496
82556W        W54981  18.767  40.458   3.204
82557W        W54982  28.062  26.574   0.966
82558W        W54983  20.273  27.497   0.924
82559W        W54984  11.664  28.048   0.270
82560W        W54985  17.283  16.209   0.879
82561W        W54986  34.464  31.439   4.704
82562W        W54987  28.939  37.524   4.145
82563W        W54988  23.549  30.476   0.401
82564W        W54989   4.721  25.129   2.218
82565W        W54990   3.755   1.791   0.738
82566W        W54991  12.679  27.094  10.987
82567W        W54992   9.259  38.881  14.288
82568W        W54993   3.896  15.292   2.689
82569W        W54994   3.364  18.555   4.803
82570W        W54995  33.580   4.214  10.931
82571W        W54996  36.445  38.951  11.123
82572W        W54997  27.023   2.933   0.914
82573W        W54998  32.976  24.543  14.501
82574W        W54999   7.379  10.319  12.359
82575W        W55000  18.076   8.897  13.460
82576W        W55001  27.987  20.137  14.764
82577W        W55002  42.947   8.259  10.944
82578W        W55003   9.319  14.202  12.501
82579W        W55004  33.882  31.017   3.794
82580W        W55005  35.471  35.558  12.937
82581W        W55006  21.678  11.637   4.313
82582W        W55007  43.347  14.133  13.481
82583W        W55008  41.832   2.247   2.857
82584W        W55009  37.083   8.186   2.239
82585W        W55010  31.919  16.140   2.709
82586W        W55011  31.109  43.894  10.947
82587W        W55012   2.355  33.626   3.234
82588W        W55013  33.590  14.300  11.086
82589W        W55014  23.549  32.896   1.286
82590W        W55015  31.931   5.807   3.793
82591W        W55016  25.974  43.826   1.719
82592W        W55017   7.773  43.855  10.925
82593W        W55018   8.367  18.680   1.845
82594W        W55019  23.516  42.498  14.976
82595W        W55020   6.742   3.447  10.435
82596W        W55021   2.962  21.662   2.687
82597W        W55022  11.141  21.190   2.367
82598W        W55023  11.231  12.188  12.399
82599W        W55024  42.518   3.764   0.927
82600W        W55025  18.060   4.929  14.801
82601W        W55026   4.721  18.766  14.912
82602W        W55027   6.754  13.297   1.925
82603W        W55028  16.294  13.607  10.970
82604W        W55029  18.106  23.045   4.240
82605W        W55030  30.909  28.486   1.732
82606W        W55031   4.805  20.099   3.634
82607W        W55032   6.320   1.922   1.329
82608W        W55033   3.794  33.118  13.834
82609W        W55034   8.189  42.395   4.605
82610W        W55035  27.116  34.988  11.857
82611W        W55036   3.952  40.330  11.102
82612W        W55037  11.664  16.173   1.765
82613W        W55038   3.763  26.107   2.412
82614W        W55039  18.128  37.354  13.020
82615W        W55040  35.087  42.905  13.948
82616W        W55041  17.658   8.718   0.416
82617W        W55042  10.349  42.389  14.007
82618W        W55043  19.753  28.631   1.279
82619W        W55044  13.724  33.034  13.501
82620W        W55045   0.286  34.489   2.180
82621W        W55046  14.199  30.919   2.284
82622W        W55047  23.123  32.009  11.560
82623W        W55048   3.321  31.133  14.013
82624W        W55049   8.267  28.555   4.655
82625W        W55050  39.825   5.254   0.862
82626W        W55051  26.688  20.155   4.625
82627W        W55052   8.279  21.523  12.381
82628W        W55053  25.059  19.220   4.809
82629W        W55054  10.289  13.208   3.181
82630W        W55055   1.843   9.392   0.932
82631W        W55056   1.413   0.325   2.826
82632W        W55057  31.079  27.191   3.183
82633W        W55058  42.444   6.903   2.221
82634W        W55059  40.468  21.730   5.566
82635W        W55060   6.328  13.760   1.731
82636W        W55061   1.401  18.623  10.520
82637W        W55062   7.232  26.596   3.716
82638W        W55063  37.836  29.612  13.542
82639W        W55064  16.212   9.771  14.289
82640W        W55065  31.601   2.911   1.427
82641W        W55066   0.874  36.081  13.368
82642W        W55067   8.851  14.748  12.358
82643W        W55068  24.050  29.551  13.028
82644W        W55069  17.752   8.759   2.254
82645W        W55070  21.172   3.235   0.871
82646W        W55071   6.700  42.927   1.265
82647W        W55072  27.565   0.924   3.311
82648W        W55073   0.742   8.366   3.340
82649W        W55074  14.165  12.241   2.318
82650W        W55075  41.295  43.840   2.282
82651W        W55076  44.272  27.127  14.949
82652W        W55077   6.322  27.082  12.913
82653W        W55078   7.895  20.028  12.480
82654W        W55079  25.623   6.752  12.973
82655W        W55080  33.074   4.942  11.394
82656W        W55081  32.609  13.642   1.428
82657W        W55082  16.292  29.518   3.371
82658W        W55083   0.876  42.961  11.588
82659W        W55084  44.768  29.576  12.446
82660W        W55085  19.267   4.413   4.133
82661W        W55086  12.674  16.620  10.518
82662W        W55087  26.616  37.961   2.368
82663W        W55088  17.080  29.029   3.207
82664W        W55089  29.052  43.798   3.655
82665W        W55090  28.633   1.958   1.838
82666W        W55091  38.826  41.845  12.510
82667W        W55092   5.713  24.629   4.272
82668W        W55093  35.023  38.444  14.514
82669W        W55094  17.578  30.514  11.064
82670W        W55095  12.271  32.081   0.329
82671W        W55096  41.985  42.026  14.031
82672W        W55097  35.888  21.062  12.863
82673W        W55098  32.518  12.162   4.606
82674W        W55099  19.763  38.918  11.957
82675W        W55100  38.842  11.312  13.376
82676W        W55101  26.524   7.416  12.387
82677W        W55102  29.921  17.100   2.378
82678W        W55103  25.695   3.953   2.885
82679W        W55104  13.256   7.220   0.406
82680W        W55105  14.654   2.793   4.337
82681W        W55106  13.756  19.062  12.878
82682W        W55107  15.179   6.361  13.833
82683W        W55108  33.094  30.504   0.923
82684W        W55109  25.476   1.756  10.086
82685W        W55110   3.817  14.817   3.200
82686W        W55111  14.134   4.371  13.020
82687W        W55112  25.064  23.502  14.345
82688W        W55113  11.350  43.863   1.750
82689W        W55114   9.322  36.362   0.419
82690W        W55115  39.975   1.453   2.282
82691W        W55116  38.526   4.919  14.986
82692W        W55117  42.509   7.785  14.936
82693W        W55118  38.373  15.095  11.390
82694W        W55119  42.917  35.552  12.059
82695W        W55120  13.656  24.034  10.612
82696W        W55121  10.167  40.043   3.153
82697W        W55122  31.497  19.580   1.896
82698W        W55123  16.172  32.611   5.186
82699W        W55124  16.138  22.058   4.121
82700W        W55125  30.114  44.817   2.675
82701W        W55126  12.852  12.235   4.249
82702W        W55127  24.047  10.750   1.293
82703W        W55128  25.139  39.881  13.847
82704W        W55129  26.078  18.058  14.937
82705W        W55130   5.354  36.392   1.294
82706W        W55131  22.185   6.182   4.181
82707W        W55132  33.426  14.156  10.037
82708W        W55133  15.111  39.423   1.901
82709W        W55134   9.820  37.457   1.832
82710W        W55135  41.811  35.370   0.927
82711W        W55136  12.225  30.057   1.410
82712W        W55137  23.532  32.898  14.512
82713W        W55138   9.292  22.249  14.979
82714W        W55139  36.367   7.843  14.010
82715W        W55140   5.426   7.402  11.907
82716W        W55141  14.668  25.583   0.243
82717W        W55142  37.541  13.832   3.301
82718W        W55143  43.391  29.125   2.368
82719W        W55144  27.475  36.580  11.538
82720W        W55145  10.313  34.603   1.750
82721W        W55146  14.649  23.050  11.375
82722W        W55147   8.371   8.250  12.464
82723W        W55148  24.652  18.618  13.470
82724W        W55149  18.624  20.662  12.903
82725W        W55150  17.601  36.358  13.919
82726W        W55151  37.550   2.286  13.897
82727W        W55152  36.910  14.633   2.355
82728W        W55153  40.344   2.824  12.444
82729W        W55154  44.772  28.676   1.885
82730W        W55155   3.444  28.541   1.857
82731W        W55156  28.932  20.604  10.445
82732W        W55157   4.347   5.402  11.947
82733W        W55158  17.195   9.747  14.884
82734W        W55159   0.361   8.161   3.824
82735W        W55160  39.918   8.711  13.909
82736W        W55161  18.296   9.395   1.281
82737W        W55162  38.828   4.398  12.464
82738W        W55163  21.720  35.488   4.354
82739W        W55164  35.880  36.404  11.592
82740W        W55165  18.163   9.202  10.611
82741W        W55166  34.532  26.135  12.021
82742W        W55167   4.383  24.627  12.473
82743W        W55168  16.720   1.459  14.355
82744W        W55169   6.424  21.183   5.251
82745W        W55170  29.979  21.742   0.872
82746W        W55171  23.727   9.859   2.722
82747W        W55172  22.723  15.252   3.184
82748W        W55173  23.187  44.837   2.384
82749W        W55174   7.215   4.243  13.450
82750W        W55175  27.946  24.688   3.373
82751W        W55176  21.670  37.884   1.858
82752W        W55177  36.548  33.401  10.102
82753W        W55178  31.548  34.105   3.365
82754W        W55179   4.334  31.404   2.236
82755W        W55180   6.331   7.766  11.535
82756W        W55181  30.136  37.362  14.928
82757W        W55182  33.915  11.704  11.565
82758W        W55183   8.787  19.146   0.958
82759W        W55184  19.182   0.795  11.016
82760W        W55185  32.392  44.819   0.404
82761W        W55186  32.404  42.026  13.025
82762W        W55187  35.051   9.700  11.574
82763W        W55188   3.751  31.522   2.317
82764W        W55189  18.584  43.977   2.877
82765W        W55190  44.825   7.417   0.916
82766W        W55191  10.296  39.492   4.632
82767W        W55192   4.241   5.848  14.342
82768W        W55193  16.206   5.274   0.908
82769W        W55194   6.866  28.438  14.309
82770W        W55195   3.300   4.216   1.320
82771W        W55196  28.619  30.077   0.387
82772W        W55197  18.660  23.711   1.349
82773W        W55198   9.873   7.383   2.793
82774W        W55199  38.959   6.881  14.334
82775W        W55200  17.240  19.639   1.240
82776W        W55201  36.085   6.341   0.861
82777W        W55202  40.959  37.884   0.287
82778W        W55203  34.389  28.135   3.158
82779W        W55204  16.674  44.760  10.626
82780W        W55205  41.892  23.568   0.767
82781W        W55206  26.513  33.603  11.954
82782W        W55207   6.354  43.353   4.132
82783W        W55208   9.266  26.990  12.427
82784W        W55209  31.075  35.368   2.797
82785W        W55210  35.367   4.401  12.038
82786W        W55211  19.150  34.074  14.893
82787W        W55212  13.348  30.607  12.459
82788W        W55213  25.962  19.059   2.830
82789W        W55214  35.099  39.820   0.432
82790W        W55215   0.459  27.948   3.671
82791W        W55216  38.926  16.627  14.993
82792W        W55217  13.278  17.627   4.345
82793W        W55218   4.388  34.907   3.670
82794W        W55219  30.940  44.413   0.282
82795W        W55220  28.178  26.064  10.625
82796W        W55221  10.725   0.429  12.525
82797W        W55222  17.761   4.750  13.879
82798W        W55223  37.987  32.606   2.889
82799W        W55224  34.910  41.316  10.909
82800W        W55225   5.830  25.569   1.356
82801W        W55226  37.379  37.562  14.814
82802W        W55227  14.214  11.353  11.520
82803W        W55228  33.458  29.989  11.003
82804W        W55229  22.600  23.202  14.435
82805W        W55230  41.353  32.996  11.103
82806W        W55231   7.670   0.871   4.794
82807W        W55232   0.281   5.717   2.373
82808W        W55233  41.915  35.036  10.926
82809W        W55234   1.265  43.999   0.890
82810W        W55235   4.707   8.385  12.578
82811W        W55236  26.189  33.563  13.943
82812W        W55237   1.421  41.032  13.898
82813W        W55238  28.070  27.992   5.163
82814W        W55239  37.026  25.031  13.804
82815W        W55240  35.536  36.948   2.295
82816W        W55241  21.099  39.997   2.321
82817W        W55242   5.347  12.309  12.049
82818W        W55243  33.383  25.175   0.474
82819W        W55244   5.774   3.311   2.736
82820W        W55245   1.368  16.113  11.059
82821W        W55246  30.099  29.969   1.445
82822W        W55247  35.102  21.130   1.761
82823W        W55248  18.743   3.938   3.223
82824W        W55249  43.324  35.477   4.270
82825W        W55250  35.908  19.677   2.266
82826W        W55251  23.492   8.780   3.285
82827W        W55252  36.508  11.330  12.536
82828W        W55253   4.435  18.765  12.089
82829W        W55254   0.358  33.069  11.564
82830W        W55255   6.910  36.416   2.855
82831W        W55256  36.844   5.741  10.146
82832W        W55257  17.617   2.378  11.608
82833W        W55258  33.470  10.298   0.891
82834W        W55259   1.442  16.721  12.424
82835W        W55260  32.447  25.132   5.151
82836W        W55261  24.114  43.346  13.912
82837W        W55262   3.287  24.200  11.100
82838W        W55263  43.951  20.192  14.405
82839W        W55264  15.630  24.526   0.477
82840W        W55265   0.335   8.386   2.851
82841W        W55266   2.877  27.671   4.302
82842W        W55267  11.287  19.635  14.885
82843W        W55268  32.960   5.406   2.374
82844W        W55269  39.939  11.218   2.729
82845W        W55270  33.557  33.941   2.669
82846W        W55271  38.055   2.413  12.469
82847W        W55272  29.155  42.525   3.800
82848W        W55273  38.851  22.030  14.923
82849W        W55274  10.211   5.208  12.054
82850W        W55275  37.429  44.397   1.877
82851W        W55276   3.843   9.762   2.789
82852W        W55277  20.696  34.878   0.804
82853W        W55278  18.073   0.267   0.749
82854W        W55279  22.192   9.231   3.216
82855W        W55280  14.120  20.074  10.964
82856W        W55281  27.107  10.221  10.490
82857W        W55282  16.172  14.780   3.860
82858W        W55283   8.318  43.016   3.346
82859W        W55284  41.806  24.708   2.284
82860W        W55285   4.923   6.682   4.797
82861W        W55286  40.524  12.741  12.399
82862W        W55287  43.987  11.172   0.762
82863W        W55288  43.998  35.069   1.919
82864W        W55289  29.042  31.619   3.733
82865W        W55290  14.834   4.266   1.900
82866W        W55291  20.123  40.798   2.874
82867W        W55292   3.251   1.866  14.773
82868W        W55293  23.222  42.879  11.887
82869W        W55294   0.306  33.474   0.948
82870W        W55295  13.243  18.113   3.770
82871W        W55296   5.374   0.755   2.871
82872W        W55297  39.397   5.733  12.969
82873W        W55298  13.611  27.603   0.867
82874W        W55299  38.014  43.800   4.171
82875W        W55300  44.405  19.270  14.861
82876W        W55301  16.199  14.295   3.735
82877W        W55302  37.038  25.492   3.219
82878W        W55303  33.065  40.428   1.322
82879W        W55304  33.403  38.395   1.269
82880W        W55305  14.297  29.634  13.051
82881W        W55306  31.005   6.789   1.249
82882W        W55307  26.207   0.477   2.684
82883W        W55308  15.101  37.088   1.377
82884W        W55309  18.790   4.853  11.901
82885W        W55310  38.033   9.844  14.345
82886W        W55311   3.731  26.515   1.748
82887W        W55312   5.344   4.854  13.984
82888W        W55313  42.981  39.848   0.839
82889W        W55314  32.018  41.985   0.895
82890W        W55315  27.154   8.901   2.315
82891W        W55316   6.190  38.853   3.383
82892W        W55317  25.709  22.574  12.495
82893W        W55318  15.750  41.493  10.128
82894W        W55319  36.021  44.443  11.072
82895W        W55320  20.127  28.529  14.832
82896W        W55321  23.633  28.060   1.261
82897W        W55322  29.657   1.429  11.976
82898W        W55323  27.969  13.116  13.395
82899W        W55324  18.285   5.802   3.789
82900W        W55325  22.245  39.409   1.385
82901W        W55326  19.218   8.778  14.976
82902W        W55327   8.674  28.179   1.696
82903W        W55328   3.322  27.196   0.854
82904W        W55329  44.807  38.347   3.745
82905W        W55330  36.920  27.162   0.340
82906W        W55331  24.060  32.507   0.271
82907W        W55332  39.380  11.765  11.590
82908W        W55333  40.507  30.507   1.816
82909W        W55334  20.631   4.842  12.958
82910W        W55335  34.048  38.426   4.705
82911W        W55336  27.117  16.139   2.308
82912W        W55337  25.526   6.857   1.915
82913W        W55338  34.010  44.991   4.834
82914W        W55339  43.788  37.436  13.935
82915W        W55340  24.206  18.550   0.938
82916W        W55341  19.061  14.699   1.219
82917W        W55342  27.055  42.858   4.269
82918W        W55343  36.497   6.209  13.341
82919W        W55344  43.301  21.089  14.028
82920W        W55345  15.760  44.854   2.829
82921W        W55346  16.217  27.137  12.432
82922W        W55347  28.674  44.988   2.764
82923W        W55348  29.470  27.093   2.313
82924W        W55349  12.826  44.411  13.940
82925W        W55350   5.300  25.557  12.404
82926W        W55351  38.525  15.618  12.943
82927W        W55352  39.355  30.463  10.560
82928W        W55353   0.322  39.032  11.118
82929W        W55354  15.135   7.777  10.639
82930W        W55355  28.102  43.890   4.788
82931W        W55356   9.269  16.107  11.481
82932W        W55357  15.665  35.391  12.972
82933W        W55358  41.442  27.499   1.808
82934W        W55359  15.127  26.165  12.955
82935W        W55360  35.107  33.907   3.201
82936W        W55361  26.189  29.455  13.985
82937W        W55362  39.338  39.533  11.098
82938W        W55363  44.814  18.654  11.593
82939W        W55364  23.206   8.302   0.909
82940W        W55365  30.120  26.465   2.818
82941W        W55366   1.818   5.895  13.326
82942W        W55367   4.397  22.123   0.410
82943W        W55368  19.545  31.585  10.410
82944W        W55369  21.229  26.655  11.375
82945W        W55370  34.448  39.876  11.112
82946W        W55371  43.288  20.109   9.652
82947W        W55372  28.108   7.874  12.055
82948W        W55373  34.473  17.586  10.475
82949W        W55374  23.546   3.313  12.984
82950W        W55375  43.450  42.983  14.339
82951W        W55376  17.664  24.041  11.122
82952W        W55377  21.150  12.670   4.672
82953W        W55378  31.483  11.208  12.048
82954W        W55379   9.706  39.887   3.327
82955W        W55380  24.506  19.592  11.426
82956W        W55381  18.604  29.025   1.837
82957W        W55382   5.909  15.169  12.842
82958W        W55383  27.599  34.968  10.935
82959W        W55384  35.866  13.274   0.263
82960W        W55385   9.267  22.137  13.366
82961W        W55386  30.922  15.793   2.683
82962W        W55387  17.281  32.968  11.081
82963W        W55388  28.478  23.705   1.849
82964W        W55389  34.994   0.869   4.221
82965W        W55390  20.184  22.550  12.578
82966W        W55391   9.263  35.937   3.369
82967W        W55392  43.933   6.272   1.792
82968W        W55393   3.955  15.136  11.092
82969W        W55394   4.869  14.691   3.743
82970W        W55395  37.835  21.584  13.440
82971W        W55396  32.922  33.072  13.816
82972W        W55397   1.823   4.280  11.076
82973W        W55398  29.143  16.661  12.498
82974W        W55399   5.414  38.053  14.352
82975W        W55400  18.105  39.324  12.415
82976W        W55401   4.358  11.282  13.505
82977W        W55402  40.947  27.057  13.390
82978W        W55403  41.000  37.469   3.165
82979W        W55404  23.092  40.366  14.884
82980W        W55405  44.950  11.742  12.384
82981W        W55406  26.693  21.748   0.894
82982W        W55407  28.098   9.797  10.940
82983W        W55408  29.996  17.231  13.475
82984W        W55409   4.295  37.405   1.845
82985W        W55410  17.794   5.833   3.165
82986W        W55411   4.766   8.760   4.802
82987W        W55412  31.937   8.800   4.689
82988W        W55413  26.646  32.585   3.238
82989W        W55414  15.234  39.985  13.035
82990W        W55415  37.335  20.061   0.772
82991W        W55416  15.747  26.134  14.515
82992W        W55417  44.852  33.410   0.304
82993W        W55418  11.685  29.468  11.866
82994W        W55419  42.880   3.353   4.767
82995W        W55420  10.767  14.130  12.358
82996W        W55421  23.517  19.138   1.231
82997W        W55422  32.110  11.268  12.568
82998W        W55423  22.041  40.453  10.953
82999W        W55424  41.882  11.813   2.406
83000W        W55425   2.342  25.009   3.189
83001W        W55426  20.650  34.386  14.409
83002W        W55427  12.288  18.293   0.908
83003W        W55428  22.673  17.563   1.373
83004W        W55429   9.372  19.636  12.537
83005W        W55430  12.306  12.825   4.239
83006W        W55431  32.623   3.747   2.732
83007W        W55432   1.451  27.991  11.406
83008W        W55433  29.472  23.099  11.908
83009W        W55434  19.607   2.244   2.704
83010W        W55435   1.827  41.869   2.252
83011W        W55436  28.543  18.209   4.785
83012W        W55437  36.457  38.375   0.462
83013W        W55438  15.810   5.853  14.883
83014W        W55439  25.105  12.160   0.954
83015W        W55440  12.768  43.870   0.329
83016W        W55441  13.627  29.126   4.347
83017W        W55442   4.941  11.834   2.348
83018W        W55443  17.277  18.209   0.323
83019W        W55444   7.849  10.229   2.693
83020W        W55445  32.079  16.764  14.470
83021W        W55446  16.217  29.025   3.303
83022W        W55447  17.107  29.499   0.286
83023W        W55448  40.011  44.371  13.980
83024W        W55449   0.792   5.255  12.478
83025W        W55450  40.887  41.972  11.007
83026W        W55451  13.185   7.342   0.732
83027W        W55452  44.487  30.452  13.547
83028W        W55453  17.589  25.002  14.831
83029W        W55454  44.326   4.908   4.153
83030W        W55455  36.963  40.041   2.367
83031W        W55456  25.604  30.024  12.575
83032W        W55457   0.298  29.039  10.887
83033W        W55458  31.614   9.191  13.460
83034W        W55459  35.939  20.626   0.350
83035W        W55460  42.364  36.507   3.860
83036W        W55461  12.760  21.643   0.857
83037W        W55462  32.523  40.523  12.540
83038W        W55463  22.095  34.052   2.897
83039W        W55464  41.480  42.792   0.476
83040W        W55465  33.613  44.495  12.962
83041W        W55466   5.311  14.651  10.453
83042W        W55467  23.725  27.038  12.428
83043W        W55468  29.586  10.145  12.874
83044W        W55469  21.109  18.594   2.832
83045W        W55470  22.676  36.507  14.931
83046W        W55471  11.241  17.671  10.444
83047W        W55472  42.333   4.344  13.469
83048W        W55473  29.628  25.998   1.811
83049W        W55474  41.018   3.381  11.104
83050W        W55475  28.462  38.065  10.548
83051W        W55476  32.426   8.726  11.940
83052W        W55477  27.464  41.975  13.413
83053W        W55478  25.536  12.757   3.197
83054W        W55479  14.272   3.843  13.816
83055W        W55480  38.374  13.698  11.506
83056W        W55481  42.308  13.644  11.424
83057W        W55482  17.730  26.673   2.845
83058W        W55483   0.832   8.696   1.265
83059W        W55484  35.970   3.847  11.578
83060W        W55485   1.374   3.436   4.259
83061W        W55486  25.679   4.902   3.712
83062W        W55487  34.579  20.090   3.208
83063W        W55488   1.766  22.587   4.143
83064W        W55489  20.634  33.059  11.950
83065W        W55490  40.990  30.996  10.925
83066W        W55491   2.795  11.664  10.636
83067W        W55492  39.370  36.528   1.929
83068W        W55493  23.559  18.269  11.390
83069W        W55494  44.893  22.081  13.862
83070W        W55495  33.921  28.011  14.865
83071W        W55496  28.510   9.669  11.486
83072W        W55497   4.387  13.169  12.497
83073W        W55498  43.783  43.472  14.001
83074W        W55499   2.821  29.036  14.513
83075W        W55500  23.703   5.739  13.498
83076W        W55501  44.803  41.944  12.034
83077W        W55502   4.798  42.514  13.840
83078W        W55503  30.046   1.773  14.405
83079W        W55504   5.754  18.268   3.363
83080W        W55505   9.278  43.485   3.293
83081W        W55506  26.039  43.844   2.669
83082W        W55507   0.971  43.969   1.709
83083W        W55508  36.067  36.998  10.605
83084W        W55509  37.536  14.270   2.355
83085W        W55510  12.619  15.656  10.504
83086W        W55511   1.927  10.241  10.153
83087W        W55512  38.392   2.784   1.821
83088W        W55513  43.773  19.191  11.606
83089W        W55514  23.699  37.971   3.720
83090W        W55515   1.382  26.118  14.433
83091W        W55516  26.071  31.074  14.310
83092W        W55517   6.343  41.996  13.959
83093W        W55518  33.499  33.503  12.071
83094W        W55519  24.186  17.208  14.969
83095W        W55520  19.176  16.222  12.504
83096W        W55521  17.153  42.397  13.954
83097W        W55522  27.037  11.180   0.404
83098W        W55523  17.659  12.131  13.055
83099W        W55524  40.488  30.024   3.816
83100W        W55525  36.917   7.386   3.233
83101W        W55526  42.375  30.104  11.892
83102W        W55527  27.977   0.957  10.560
83103W        W55528  44.852  37.505  14.840
83104W        W55529  41.939  43.822  12.466
83105W        W55530   0.432  18.752   2.293
83106W        W55531  39.920   9.287   3.797
83107W        W55532  42.966  42.410  10.475
83108W        W55533  38.849  39.823   0.859
83109W        W55534  29.946  13.640   1.852
83110W        W55535   6.690   0.754   3.385
83111W        W55536   5.417  10.236   2.314
83112W        W55537  35.430  37.923  13.831
83113W        W55538  44.271  31.996   4.760
83114W        W55539  40.538  22.129  14.474
83115W        W55540  21.032   3.236   4.277
83116W        W55541   3.786   5.327   2.816
83117W        W55542  38.455   9.839  12.859
83118W        W55543  26.645  41.822   5.291
83119W        W55544  34.505  43.921  13.527
83120W        W55545  29.097  27.582   4.703
83121W        W55546  27.515   4.427   1.752
83122W        W55547  27.544  39.352   1.819
83123W        W55548  36.080  34.020   1.767
83124W        W55549   6.731  41.800   1.916
83125W        W55550   6.768  25.208  13.346
83126W        W55551  18.223   0.408   4.616
83127W        W55552   7.305  17.199   2.688
83128W        W55553  34.495  32.421   0.877
83129W        W55554  12.818  38.893   0.350
83130W        W55555  33.553  14.752  10.476
83131W        W55556  22.502  44.394   1.248
83132W        W55557  18.121  16.761  13.972
83133W        W55558  16.122  34.010   1.888
83134W        W55559   6.889  18.255   4.683
83135W        W55560  31.151  15.670   1.904
83136W        W55561   9.733  38.954  14.013
83137W        W55562  12.722  39.404   0.383
83138W        W55563   0.434  19.581  13.967
83139W        W55564  39.489  27.523  12.946
83140W        W55565  16.693  18.764   0.360
83141W        W55566  42.791  28.171   3.801
83142W        W55567  32.897  33.605  12.958
83143W        W55568  23.165  14.782  12.545
83144W        W55569  19.242  32.003   4.203
83145W        W55570  15.696   2.872  12.846
83146W        W55571   1.736  22.103   0.280
83147W        W55572  20.269   1.907  10.108
83148W        W55573  43.343  33.960   0.839
83149W        W55574  12.139  14.744   0.932
83150W        W55575  38.887  15.188   3.812
83151W        W55576   3.723   4.431   0.295
83152W        W55577  32.612  26.542   2.298
83153W        W55578  30.432  36.976  10.521
83154W        W55579   6.406  13.116   0.807
83155W        W55580  42.878  30.631  14.360
83156W        W55581  37.337  26.687  12.474
83157W        W55582  32.400  40.316  10.523
83158W        W55583  42.885  44.427   4.234
83159W        W55584  25.712  35.095  14.976
83160W        W55585  11.341   9.815  12.515
83161W        W55586  13.641  25.710   0.892
83162W        W55587   5.894   4.260  12.924
83163W        W55588  31.034  40.819   4.208
83164W        W55589  30.506   5.238  12.353
83165W        W55590  22.729  22.726   4.194
83166W        W55591  41.800   2.857   1.418
83167W        W55592  32.966  28.102  13.498
83168W        W55593  34.531  11.233   4.728
83169W        W55594  26.966  19.176  12.487
83170W        W55595  38.389  44.402  14.924
83171W        W55596  31.419  13.244   3.722
83172W        W55597   4.881   4.286  12.546
83173W        W55598  38.891  31.099   4.838
83174W        W55599  34.555  18.061  13.816
83175W        W55600  24.973   3.400   4.278
83176W        W55601  16.652  30.019   4.200
83177W        W55602  25.213  25.631  10.476
83178W        W55603  19.258  10.246   0.731
83179W        W55604  33.962  36.395  12.998
83180W        W55605  27.096   6.203  13.885
83181W        W55606  44.962  16.803   3.744
83182W        W55607   2.842  41.538  11.563
83183W        W55608  39.012  44.485  12.524
83184W        W55609  17.651  16.630  11.483
83185W        W55610   4.727   2.964   3.360
83186W        W55611   7.730  23.215  11.536
83187W        W55612   9.267  13.124  11.566
83188W        W55613  32.032   4.348   0.384
83189W        W55614   8.176   2.430  12.895
83190W        W55615  21.747  20.536  12.348
83191W        W55616  43.858  21.143  10.462
83192W        W55617  30.639   5.237   4.210
83193W        W55618  25.520  28.523   0.473
83194W        W55619  34.893  15.747  12.844
83195W        W55620  30.570  18.784  12.908
83196W        W55621  44.267  39.818  12.573
83197W        W55622  16.295   2.437   0.307
83198W        W55623   2.935  32.079   1.905
83199W        W55624   8.780  21.696   1.754
83200W        W55625   1.738  28.012   0.272
83201W        W55626  34.956  28.456  14.977
83202W        W55627   7.679   8.710   0.248
83203W        W55628   4.360  31.425  14.507
83204W        W55629   6.885  21.064   4.670
83205W        W55630  16.299  35.592  12.085
83206W        W55631   0.263  13.741   4.732
83207W        W55632  14.322  25.154   1.826
83208W        W55633  17.301  36.569  11.889
83209W        W55634   9.741  30.015  10.900
83210W        W55635   6.387  14.639   1.920
83211W        W55636  37.974  22.212   4.257
83212W        W55637  40.548  26.552  14.974
83213W        W55638  32.936   3.907  13.480
83214W        W55639  34.412  28.993   2.900
83215W        W55640  28.114   0.825   3.635
83216W        W55641  12.843  21.178   1.243
83217W        W55642  38.942  23.524   9.987
83218W        W55643  32.635  19.050  12.014
83219W        W55644  41.900  14.787  11.414
83220W        W55645   4.273   4.861  12.868
83221W        W55646  34.095  25.984  13.063
83222W        W55647  13.234  27.001  12.518
83223W        W55648  16.317  25.083   1.392
83224W        W55649  12.833  22.689   3.376
83225W        W55650  16.133  30.553  10.627
83226W        W55651   6.238   1.855   5.198
83227W        W55652  33.971   0.458   0.400
83228W        W55653  38.390   4.398  10.994
83229W        W55654  35.396  24.048   3.337
83230W        W55655   2.760   3.373  14.431
83231W        W55656   7.285  35.942   3.719
83232W        W55657  30.111  12.639  10.967
83233W        W55658   7.186  38.537  11.416
83234W        W55659  24.009  15.251   3.714
83235W        W55660   4.340  36.370   1.694
83236W        W55661  39.008   2.447   1.883
83237W        W55662  24.073  32.526   4.780
83238W        W55663  40.393  27.664  12.964
83239W        W55664   8.759   4.417   1.419
83240W        W55665  19.133  32.612  13.931
83241W        W55666   8.334   7.780  13.524
83242W        W55667  42.493  30.443   4.686
83243W        W55668  12.703   4.390   0.310
83244W        W55669  38.510   5.415  11.046
83245W        W55670  43.332  32.557  14.387
83246W        W55671  16.673  11.299   0.365
83247W        W55672   3.410  18.581  13.899
83248W        W55673  23.017   0.276  14.017
83249W        W55674   5.238  34.039  14.934
83250W        W55675  24.176  27.450  14.948
83251W        W55676  32.447  18.258  11.951
83252W        W55677  31.492  24.570   3.636
83253W        W55678   7.376  43.373   1.813
83254W        W55679  12.746  23.025  13.873
83255W        W55680  29.020  44.424   0.913
83256W        W55681  18.098  12.844   0.337
83257W        W55682  35.582  28.105   3.786
83258W        W55683  38.019  10.830   3.861
83259W        W55684  12.638  17.095   0.851
83260W        W55685  19.235  26.600  13.976
83261W        W55686   3.746  15.224   0.927
83262W        W55687   8.732  43.005   2.292
83263W        W55688  21.263  27.106   3.354
83264W        W55689  12.766  43.895  11.067
83265W        W55690  25.603  43.011  11.051
83266W        W55691   6.240  40.883   1.758
83267W        W55692  20.177  36.981  11.423
83268W        W55693  33.451  12.840  14.410
83269W        W55694  20.266  44.756   4.186
83270W        W55695  34.058   4.269   2.901
83271W        W55696  22.606  40.392   0.372
83272W        W55697  27.606  13.204  10.516
83273W        W55698   7.812  19.573  11.461
83274W        W55699  38.004  40.917   3.327
83275W        W55700  35.991  21.019  14.796
83276W        W55701  40.482   5.263   3.254
83277W        W55702  14.205  30.526   4.802
83278W        W55703   8.206  14.754  11.039
83279W        W55704   8.267  26.198  13.896
83280W        W55705  11.708   1.763   3.863
83281W        W55706  36.045  29.129  11.563
83282W        W55707  33.426  11.736   5.162
83283W        W55708   1.853  23.499   4.120
83284W        W55709  16.166  42.514   0.444
83285W        W55710  33.038  20.569   0.448
83286W        W55711  25.055   9.680  13.413
83287W        W55712  26.086  10.687   2.855
83288W        W55713  11.193  10.376  10.961
83289W        W55714  34.096  31.535   0.956
83290W        W55715  23.494  24.646   3.288
83291W        W55716   6.844  18.249  12.533
83292W        W55717   6.750  41.847   0.844
83293W        W55718  43.999  36.945   4.634
83294W        W55719  13.346  40.962  10.933
83295W        W55720  30.952   4.232   4.243
83296W        W55721  41.517  18.188   1.843
83297W        W55722  36.078   4.304  12.407
83298W        W55723  28.534  26.148   1.761
83299W        W55724  41.524  34.060  12.416
83300W        W55725   1.255  40.936   0.946
83301W        W55726   8.765   5.215  12.097
83302W        W55727  25.082  33.606   1.860
83303W        W55728  22.167   2.261  14.814
83304W        W55729  38.008  19.086  13.044
83305W        W55730  40.029  30.581   0.950
83306W        W55731  42.998  36.078  12.987
83307W        W55732  14.229  26.639   4.647
83308W        W55733  44.918  31.930   1.342
83309W        W55734  16.196  34.480   2.878
83310W        W55735  39.941  25.678  13.368
83311W        W55736  15.158  43.879  12.497
83312W        W55737  17.727  36.583   2.713
83313W        W55738   4.234  33.031   1.218
83314W        W55739  40.809  29.122  11.016
83315W        W55740  32.626   5.878   2.419
83316W        W55741  18.120  38.327  14.305
83317W        W55742  33.451   8.720   0.788
83318W        W55743  34.545   6.404   3.178
83319W        W55744  40.853   7.812   3.183
83320W        W55745  33.624  37.430   4.792
83321W        W55746  20.122  15.205  12.919
83322W        W55747  42.508   4.272  12.899
83323W        W55748   8.746   5.232   4.252
83324W        W55749  37.053   2.891  11.372
83325W        W55750  42.318  21.550   0.900
83326W        W55751  27.531  12.613  13.345
83327W        W55752   9.384  25.701  14.928
83328W        W55753   3.412   0.390  12.980
83329W        W55754  44.269  43.967   3.650
83330W        W55755  17.237  21.714  11.034
83331W        W55756  12.286  25.080   4.166
83332W        W55757  42.307  19.759  11.954
83333W        W55758   0.379  23.192   2.234
83334W        W55759  32.103  24.034   2.200
83335W        W55760  34.466  11.293  14.782
83336W        W55761   7.376   6.296  10.991
83337W        W55762  12.202  36.438   4.610
83338W        W55763  42.033   5.882  13.350
83339W        W55764  37.845  38.553   2.219
83340W        W55765  28.527   7.786  12.034
83341W        W55766  22.500  29.949   1.411
83342W        W55767  43.931  23.514   4.806
83343W        W55768  35.922  43.409   3.764
83344W        W55769  20.570   6.203  13.908
83345W        W55770  24.084   1.941  13.030
83346W        W55771  10.704  14.773   4.351
83347W        W55772  39.818  23.033  13.343
83348W        W55773  36.364  40.401  14.782
83349W        W55774  13.633  11.293  12.043
83350W        W55775   7.814  37.841  13.978
83351W        W55776  16.212  39.947  13.417
83352W        W55777  36.505  10.284  10.121
83353W        W55778  23.128  36.050  11.999
83354W        W55779  15.169  30.446  12.845
83355W        W55780  10.825  40.815   1.748
83356W        W55781   8.875  21.052  10.071
83357W        W55782  44.296   9.176   1.438
83358W        W55783  10.195   8.872   3.321
83359W        W55784  40.985  17.136   4.618
83360W        W55785  13.262  15.769   5.320
83361W        W55786  34.896  23.547   4.226
83362W        W55787  11.626  43.324   3.636
83363W        W55788  13.279  19.097   0.344
83364W        W55789  17.561  21.538  14.497
83365W        W55790  11.722  22.043  12.435
83366W        W55791   1.408  18.684  14.876
83367W        W55792  37.390  32.501   2.244
83368W        W55793  20.662   8.654  11.605
83369W        W55794   0.769  10.188  14.018
83370W        W55795   2.910  34.485   2.340
83371W        W55796  32.105  35.106  14.354
83372W        W55797  14.716   2.772   0.951
83373W        W55798   6.824  19.597  12.394
83374W        W55799  33.593  13.734   1.715
83375W        W55800  12.696  22.550   4.258
83376W        W55801  37.990  37.555   0.796
83377W        W55802   8.320  25.473  10.936
83378W        W55803  33.002  11.328  12.052
83379W        W55804  29.073   2.787   0.438
83380W        W55805  25.610  27.089   4.115
83381W        W55806  27.102  18.711  14.457
83382W        W55807  17.273  25.161   2.704
83383W        W55808  12.691  44.302   4.296
83384W        W55809  30.094   7.827   4.326
83385W        W55810  17.225  25.023  14.322
83386W        W55811   4.916  40.860  14.876
83387W        W55812  35.368  20.677  14.984
83388W        W55813  28.634   2.462  12.857
83389W        W55814  10.866  14.187   4.171
83390W        W55815  43.483   6.702  11.982
83391W        W55816  33.946  29.060   2.723
83392W        W55817  38.874  21.061  10.489
83393W        W55818  14.191  11.178  12.470
83394W        W55819  16.111  17.282  13.354
83395W        W55820  29.109  18.707   0.344
83396W        W55821  22.174  28.647  14.378
83397W        W55822  39.835   7.305  14.812
83398W        W55823  20.629  43.799   4.279
83399W        W55824  40.319  15.740   2.320
83400W        W55825   0.880   9.658  10.529
83401W        W55826  35.497   3.756  10.551
83402W        W55827  17.634  31.442  12.983
83403W        W55828  17.276  14.796  14.458
83404W        W55829  20.545   2.245  12.982
83405W        W55830  31.647   5.793  11.094
83406W        W55831  23.075  34.440   0.407
83407W        W55832  28.597   8.724  12.482
83408W        W55833  10.271  14.785   2.364
83409W        W55834  41.826  39.435  13.910
83410W        W55835   1.405  13.676  13.484
83411W        W55836  43.863   5.311  14.869
83412W        W55837  13.281  35.595   0.842
83413W        W55838  34.032  16.293   1.714
83414W        W55839  11.190   5.294  14.454
83415W        W55840   9.732  23.517  12.084
83416W        W55841  38.924  22.547   4.824
83417W        W55842  27.636  32.033   5.253
83418W        W55843  20.137  31.422   1.711
83419W        W55844  29.658  15.699   4.299
83420W        W55845  42.488  12.337  14.026
83421W        W55846  27.975  15.190   2.771
83422W        W55847  14.198  22.557  12.574
83423W        W55848  13.815   4.378  14.510
83424W        W55849  29.039  19.534   1.832
83425W        W55850  27.077  10.204   1.909
83426W        W55851   5.284  40.460   3.257
83427W        W55852   2.260   3.257   1.731
83428W        W55853  25.163   6.832  13.976
83429W        W55854  23.114  42.498  13.883
83430W        W55855  32.964  35.427  13.020
83431W        W55856  24.535  33.382  11.094
83432W        W55857  40.051  15.769  13.867
83433W        W55858  37.921   7.788   1.796
83434W        W55859  38.848  11.853   3.172
83435W        W55860  33.062  22.668  13.984
83436W        W55861  11.174   0.813  11.929
83437W        W55862  13.179   3.785   4.239
83438W        W55863  26.488  25.048  13.472
83439W        W55864  29.024  42.828   3.861
83440W        W55865  28.034  26.070  10.954
83441W        W55866  28.463   7.374  14.970
83442W        W55867  28.063  36.563  13.965
83443W        W55868  38.370  38.960  10.917
83444W        W55869  31.911  17.238   5.209
83445W        W55870   5.338  28.101   1.734
83446W        W55871  35.888  32.899  14.780
83447W        W55872   1.358  21.525  11.958
83448W        W55873   9.778   1.938   4.235
83449W        W55874  26.564  34.474   0.747
83450W        W55875  13.685  42.495   1.212
83451W        W55876   4.704   8.699  13.496
83452W        W55877   6.710  30.617  14.804
83453W        W55878  38.071  38.548  11.008
83454W        W55879  17.588  14.723  11.121
83455W        W55880   0.427  19.128  10.505
83456W        W55881  31.028  23.490  14.315
83457W        W55882  11.299  14.611  12.083
83458W        W55883  17.796  18.575  14.346
83459W        W55884  31.446  15.706   2.833
83460W        W55885  26.002  23.654  14.314
83461W        W55886  20.187  34.547   4.182
83462W        W55887  34.551  39.515  13.002
83463W        W55888   0.750   8.187   4.274
83464W        W55889  35.518  26.138  14.960
83465W        W55890  23.034  12.647  13.973
83466W        W55891   1.870  32.451  14.490
83467W        W55892  22.124  25.183   5.124
83468W        W55893  15.752   7.418   4.620
83469W        W55894  42.348  28.565  10.421
83470W        W55895  44.403  41.393   5.197
83471W        W55896  16.194  39.404  13.416
83472W        W55897  24.540  39.981   2.238
83473W        W55898  18.053  32.613  11.554
83474W        W55899  41.296  24.220   3.352
83475W        W55900  33.419  28.460   4.601
83476W        W55901   7.741  38.045  10.518
83477W        W55902   3.808  20.275  12.398
83478W        W55903  43.997  31.973  12.558
83479W        W55904  18.549  25.009  13.027
83480W        W55905  21.591  33.515   0.348
83481W        W55906  15.192  44.958   2.699
83482W        W55907  22.036  41.863  10.577
83483W        W55908   0.415   4.934  12.358
83484W        W55909  16.715   4.777   2.266
83485W        W55910  44.791  40.849   1.337
83486W        W55911  21.690  36.064  11.104
83487W        W55912  24.177   8.237  14.319
83488W        W55913   0.895  25.074  10.477
83489W        W55914   8.386   2.472  11.384
83490W        W55915   0.850  10.756  13.060
83491W        W55916  14.284  40.968   1.283
83492W        W55917  27.165  41.802   4.130
83493W        W55918  34.513  22.061  13.448
83494W        W55919   6.890  10.141  14.353
83495W        W55920  42.890   2.859  14.283
83496W        W55921  35.485  30.994  14.279
83497W        W55922  16.074  32.489   4.646
83498W        W55923  35.856  40.018   2.772
83499W        W55924  26.507  24.995  11.437
83500W        W55925   8.266  44.326  14.423
83501W        W55926  44.314  44.373  12.832
83502W        W55927   2.901  40.956  12.446
83503W        W55928  37.080  19.112   2.748
83504W        W55929  32.031  13.723  10.976
83505W        W55930   8.301  24.184  14.785
83506W        W55931  17.175  30.478  13.493
83507W        W55932  14.158  19.703   9.931
83508W        W55933  13.163   5.265  11.979
83509W        W55934  15.254  19.617   4.348
83510W        W55935  15.093  33.911  13.048
83511W        W55936  11.808  25.532   2.871
83512W        W55937  43.807  27.079   4.311
83513W        W55938   0.443   3.732   4.747
83514W        W55939  18.113  14.235   4.340
83515W        W55940   2.319  15.822  10.965
83516W        W55941  25.683  19.651  10.612
83517W        W55942   9.850  13.834  12.926
83518W        W55943  42.355  43.504  13.795
83519W        W55944   6.757   7.821  12.470
83520W        W55945  35.381   6.364  14.028
83521W        W55946  27.531   2.338  11.523
83522W        W55947  12.279  28.496  14.300
83523W        W55948  10.854  38.405   0.785
83524W        W55949  42.298  25.575  13.967
83525W        W55950  13.812   5.258  11.974
83526W        W55951  22.668  12.814  14.014
83527W        W55952  35.420  33.935  14.004
83528W        W55953  15.782  28.555   0.327
83529W        W55954  36.841  37.847  14.512
83530W        W55955   3.928  39.522   3.770
83531W        W55956  35.576   9.318   9.497
83532W        W55957  29.537   6.883  12.369
83533W        W55958  17.197   6.870   1.742
83534W        W55959  30.612  19.697   1.291
83535W        W55960  38.347  32.914   4.715
83536W        W55961  41.363  17.662   0.899
83537W        W55962  11.835  13.690  12.410
83538W        W55963  14.685  17.758   1.828
83539W        W55964   5.239  33.943  11.004
83540W        W55965  25.614  27.160  13.984
83541W        W55966  28.065   3.805  11.023
83542W        W55967  10.140  39.941   2.728
83543W        W55968  28.960  13.613   4.655
83544W        W55969  21.207  25.122  11.046
83545W        W55970  31.929  12.305   4.287
83546W        W55971   2.787  26.116  12.488
83547W        W55972  32.136  27.589   1.216
83548W        W55973  43.939  16.290  14.923
83549W        W55974  34.893   1.466  14.355
83550W        W55975  31.559  33.016   1.212
83551W        W55976  41.433  35.098   3.653
83552W        W55977  13.331  26.501  14.795
83553W        W55978  14.263  34.467  14.993
83554W        W55979  42.454  26.471  11.903
83555W        W55980   1.927  44.438  12.340
83556W        W55981  42.480   7.789   4.191
83557W        W55982  23.240   9.797  10.517
83558W        W55983  21.692  22.190   4.789
83559W        W55984  37.367   2.436  11.424
83560W        W55985   2.342  36.038  12.362
83561W        W55986   1.461  35.590  12.465
83562W        W55987  13.158  18.144  11.925
83563W        W55988  22.097  30.909   3.829
83564W        W55989  12.135  20.736   4.769
83565W        W55990  43.329  20.238   4.836
83566W        W55991   9.176  41.801   3.259
83567W        W55992  28.585  18.763   0.366
83568W        W55993  20.684  17.643   3.870
83569W        W55994  32.490  44.876   2.762
83570W        W55995  25.077   0.332  12.050
83571W        W55996   5.284  22.092   1.761
83572W        W55997  12.664  19.274  11.914
83573W        W55998  27.177  34.458   0.864
83574W        W55999  20.256  11.837  14.780
83575W        W56000  40.005  29.605   1.737
83576W        W56001   5.858  36.090  14.768
83577W        W56002   8.840   2.464  12.065
83578W        W56003  42.787  12.726  11.601
83579W        W56004  38.428  12.780   1.824
83580W        W56005  42.897  15.218   1.383
83581W        W56006  32.942  22.178   2.240
83582W        W56007  12.253  28.934  14.845
83583W        W56008  14.152   3.945  10.593
83584W        W56009  34.927  23.082  10.498
83585W        W56010  20.611   4.716   3.351
83586W        W56011  24.644  36.573   2.785
83587W        W56012  44.266  28.125   2.214
83588W        W56013  10.330  19.743   1.432
83589W        W56014   1.763  44.357   2.879
83590W        W56015  15.320  17.069   2.750
83591W        W56016  39.438  36.554  12.534
83592W        W56017  40.851  20.757  12.479
83593W        W56018  31.043  14.691   0.267
83594W        W56019  21.640  37.029   3.192
83595W        W56020  20.172  30.958   3.757
83596W        W56021  22.210  37.431   1.427
83597W        W56022  22.572  34.975  12.475
83598W        W56023  32.016  42.428   4.187
83599W        W56024  26.547  39.340  11.438
83600W        W56025  43.922   5.409  12.416
83601W        W56026  29.537  26.562   0.913
83602W        W56027  20.736  35.980   3.844
83603W        W56028   2.880  29.104  10.918
83604W        W56029  16.687   0.803   4.209
83605W        W56030   7.731  41.348  13.880
83606W        W56031   5.836  17.720  11.537
83607W        W56032  19.136  37.943   0.945
83608W        W56033   9.384  33.439   3.667
83609W        W56034   9.869   3.882   2.255
83610W        W56035  30.528  41.929   2.213
83611W        W56036  14.668  38.902   2.258
83612W        W56037  44.884  18.134  14.015
83613W        W56038  30.502  36.593  14.278
83614W        W56039  22.234   0.410  12.086
83615W        W56040  31.072  20.538   3.164
83616W        W56041  21.699  19.110  10.927
83617W        W56042  18.663  25.663  12.895
83618W        W56043  42.491   9.388   0.904
83619W        W56044  27.575  37.533  12.966
83620W        W56045  31.532  24.612   4.146
83621W        W56046   0.350  28.980   1.851
83622W        W56047  33.480  38.034   0.827
83623W        W56048   8.812  40.968   4.196
83624W        W56049  24.127  30.471  14.884
83625W        W56050  42.797  11.228   0.938
83626W        W56051  18.192  31.093  12.094
83627W        W56052  16.612  18.177   3.830
83628W        W56053   9.315  22.681   3.172
83629W        W56054  42.907   0.390  12.344
83630W        W56055  14.300  26.128  11.987
83631W        W56056  30.915  40.419   4.287
83632W        W56057  33.592  39.033  11.934
83633W        W56058   5.202  21.231   3.147
83634W        W56059  23.627  32.091  14.825
83635W        W56060  36.442  13.151   1.298
83636W        W56061  33.071   3.252  14.883
83637W        W56062  44.940  40.950   0.894
83638W        W56063  15.326  39.462  12.027
83639W        W56064  10.772   1.914   2.261
83640W        W56065  28.029  32.406   4.139
83641W        W56066  15.593  24.009   1.298
83642W        W56067  38.562  29.435  11.529
83643W        W56068  12.277  13.258  14.977
83644W        W56069  41.788  32.001  12.916
83645W        W56070  11.137   5.688  10.968
83646W        W56071  36.854   8.187   1.893
83647W        W56072  12.282  25.483  12.882
83648W        W56073  32.933  16.309   3.333
83649W        W56074  23.988  13.614   1.247
83650W        W56075  30.645   4.418   4.643
83651W        W56076  24.607  25.600   2.214
83652W        W56077  24.556  43.918   3.756
83653W        W56078  20.658  34.381  12.045
83654W        W56079  17.144  36.349   0.885
83655W        W56080  20.586  15.234  11.067
83656W        W56081  23.732  21.653  11.879
83657W        W56082  11.736  37.903   1.389
83658W        W56083  26.604   3.427  10.051
83659W        W56084  31.952  12.733   3.868
83660W        W56085  12.323  43.985   4.744
83661W        W56086  21.056  14.164   4.733
83662W        W56087  28.147  41.835   1.799
83663W        W56088  20.640  28.542   4.252
83664W        W56089  19.194  14.192  10.533
83665W        W56090   4.736   5.904  13.884
83666W        W56091  18.261  39.415  11.091
83667W        W56092  20.651  32.493   3.648
83668W        W56093  29.981  38.937   4.311
83669W        W56094  27.644  10.232   0.941
83670W        W56095  37.017  22.170   4.146
83671W        W56096  20.706  23.535  14.822
83672W        W56097  20.173  15.599   0.407
83673W        W56098  12.301  20.065  10.559
83674W        W56099  43.420  31.598  10.509
83675W        W56100  33.521  25.163  10.947
83676W        W56101  18.681   8.783   5.241
83677W        W56102  29.652   1.894  13.928
83678W        W56103   1.908  35.880  13.953
83679W        W56104  20.676  35.601   3.384
83680W        W56105  32.081   7.868  14.396
83681W        W56106   3.375   0.988   4.251
83682W        W56107  11.762  23.514   1.229
83683W        W56108  12.240  44.896   0.356
83684W        W56109  33.494   2.861  13.391
83685W        W56110  30.572  25.528   1.330
83686W        W56111  13.166  32.024   4.743
83687W        W56112  18.667  22.071  13.059
83688W        W56113  13.163  11.330  10.519
83689W        W56114  21.052  35.578  14.861
83690W        W56115  22.145  14.799  14.427
83691W        W56116  21.065  14.252   2.282
83692W        W56117  17.107  31.126   3.634
83693W        W56118  19.629  35.451   2.804
83694W        W56119   8.686  33.996  13.030
83695W        W56120   3.407  22.152   3.635
83696W        W56121  27.505  36.441  12.920
83697W        W56122   6.898  29.137  13.540
83698W        W56123  33.052  26.556   4.218
83699W        W56124  41.957  41.492  11.109
83700W        W56125  23.049  37.562  10.429
83701W        W56126  28.496  10.770  14.509
83702W        W56127   4.431  14.297   4.260
83703W        W56128   9.251   6.726  10.585
83704W        W56129   3.936  41.919  11.857
83705W        W56130  23.201  40.800  11.378
83706W        W56131  36.353  44.387   1.701
83707W        W56132  20.712  40.443   2.803
83708W        W56133   4.851  39.341  10.405
83709W        W56134  20.264  39.835   5.172
83710W        W56135  14.736  23.670   3.717
83711W        W56136  39.022  32.102   1.440
83712W        W56137  40.030  36.377   4.838
83713W        W56138  24.518  41.498  12.445
83714W        W56139   7.261  34.508  10.977
83715W        W56140  17.559  25.131  10.461
83716W        W56141   7.714  30.653  11.113
83717W        W56142  43.860  14.592   2.735
83718W        W56143  12.785   2.227  14.505
83719W        W56144   3.874   0.491  11.457
83720W        W56145  20.755  25.640  14.307
83721W        W56146  10.214  28.066   3.782
83722W        W56147  29.567  20.687  12.368
83723W        W56148  34.915  11.337   2.740
83724W        W56149  30.539  10.831  13.976
83725W        W56150  24.676  43.849   4.834
83726W        W56151  16.146  41.032  14.941
83727W        W56152  28.665   7.229  10.980
83728W        W56153  25.598  21.123  13.855
83729W        W56154  12.644   0.924   2.288
83730W        W56155  16.167  28.073   4.266
83731W        W56156  10.687  12.177  14.950
83732W        W56157  29.998  39.536   4.800
83733W        W56158  38.332  18.687   2.408
83734W        W56159   8.248  44.402   4.638
83735W        W56160   3.953   2.831  14.448
83736W        W56161  15.709   5.300  11.399
83737W        W56162   6.861  27.178   4.245
83738W        W56163  13.307   9.278  13.537
83739W        W56164  36.359  36.361   1.915
83740W        W56165   2.390  35.995   4.324
83741W        W56166  43.918  17.626   3.770
83742W        W56167  11.785  21.631  12.842
83743W        W56168  18.602   8.814  12.455
83744W        W56169  27.980  21.560  11.970
83745W        W56170  17.698  21.641  12.468
83746W        W56171  10.704  25.089   0.796
83747W        W56172  25.127   6.795   1.807
83748W        W56173  35.587   7.684   3.208
83749W        W56174  31.559   5.228  12.035
83750W        W56175   1.845  16.081   4.127
83751W        W56176   9.654  38.380  11.860
83752W        W56177  41.044  44.437  11.997
83753W        W56178   0.972  15.282   1.822
83754W        W56179   3.447  40.853   4.707
83755W        W56180   6.185  19.766   4.116
83756W        W56181  39.550   4.699  12.430
83757W        W56182  33.616   7.684   2.363
83758W        W56183  12.349  18.079   3.193
83759W        W56184  22.515   5.308   2.291
83760W        W56185  35.589  25.127   0.817
83761W        W56186  42.847  44.810  11.931
83762W        W56187   0.754  20.035   1.855
83763W        W56188  25.130   3.785   4.601
83764W        W56189   1.943  19.689  10.408
83765W        W56190  24.987  24.101  10.438
83766W        W56191  22.631  16.206   4.160
83767W        W56192   7.753  32.459   0.843
83768W        W56193  43.836  26.129  12.848
83769W        W56194  33.881   5.748   0.783
83770W        W56195   1.861   6.361   4.597
83771W        W56196  41.481  22.540   4.126
83772W        W56197   0.399   8.782   1.843
83773W        W56198  16.196   2.953  11.385
83774W        W56199  15.674  15.588   5.266
83775W        W56200  36.447  13.137   3.305
83776W        W56201  28.993  39.912   1.875
83777W        W56202  11.624  38.960  12.893
83778W        W56203  13.341  11.744  12.823
83779W        W56204  23.543  30.486   3.630
83780W        W56205  17.729  26.458  10.969
83781W        W56206  19.720   3.913  14.943
83782W        W56207   8.171  12.701   3.704
83783W        W56208   0.842  17.157   4.166
83784W        W56209   7.374  13.234  12.967
83785W        W56210   1.240  39.315  11.079
83786W        W56211  26.609  22.180  11.125
83787W        W56212  24.012  25.506   3.188
83788W        W56213  28.058  39.949   5.111
83789W        W56214  27.566  24.100   2.758
83790W        W56215   0.937  44.265   5.161
83791W        W56216   0.298  27.177   3.846
83792W        W56217  24.001  31.131  11.520
83793W        W56218   4.752  35.856  10.517
83794W        W56219   1.779  17.284   3.648
83795W        W56220  38.829  17.289   2.857
83796W        W56221  42.295  28.151  13.843
83797W        W56222  27.644   4.394   2.670
83798W        W56223  20.675  29.437   1.783
83799W        W56224  36.536  35.009  14.814
83800W        W56225  17.160  22.556   3.364
83801W        W56226   6.405  37.579   3.726
83802W        W56227  21.021   2.897  10.485
83803W        W56228  26.123  30.509   0.337
83804W        W56229  41.970  35.543  11.573
83805W        W56230  19.111  32.968   1.761
83806W        W56231  19.177   9.887   3.812
83807W        W56232  38.331  30.051   3.795
83808W        W56233  28.516  25.115  10.902
83809W        W56234  32.927   3.258   1.367
83810W        W56235  22.558  11.194  11.446
83811W        W56236  22.220  11.357   0.368
83812W        W56237  29.520  16.719   3.373
83813W        W56238  42.906  36.504   2.693
83814W        W56239  31.415  21.573  10.566
83815W        W56240   7.777  43.475   4.290
83816W        W56241  17.217   6.427   3.377
83817W        W56242  18.147  12.668  10.949
83818W        W56243  32.429  38.530   3.216
83819W        W56244  39.456  23.147  11.484
83820W        W56245  23.061   0.421  12.500
83821W        W56246   2.721   4.910   1.763
83822W        W56247  38.568  38.901   9.969
83823W        W56248   0.302  11.810   0.242
83824W        W56249  20.146  15.273   0.738
83825W        W56250  21.525  44.345   1.440
83826W        W56251  43.274  31.623   2.676
83827W        W56252   0.773  40.532  13.923
83828W        W56253  26.597  21.629  10.941
83829W        W56254  13.281   7.351  13.031
83830W        W56255   9.680  33.922   4.608
83831W        W56256  33.560   0.964   4.625
83832W        W56257  27.019  21.658   0.953
83833W        W56258  27.003  35.972   1.892
83834W        W56259  21.137  21.587  14.495
83835W        W56260  36.566  12.339   3.811
83836W        W56261  18.547  37.456   1.743
83837W        W56262  28.175  26.570   4.771
83838W        W56263  21.599  30.158  14.322
83839W        W56264  42.409  42.477   2.213
83840W        W56265  29.540  19.236   1.335
83841W        W56266  40.381  18.782  14.918
83842W        W56267  17.068  21.093   0.811
83843W        W56268   2.793  41.885   0.905
83844W        W56269  26.050   8.748   2.273
83845W        W56270   6.678   7.319  10.961
83846W        W56271  11.832   4.266  13.521
83847W        W56272  31.638  11.740   4.758
83848W        W56273   8.212   3.902   1.832
83849W        W56274  12.317  11.137   2.268
83850W        W56275  17.155   7.175   2.738
83851W        W56276  28.677   8.743   1.307
83852W        W56277  34.094  44.451   4.129
83853W        W56278  17.707   5.327  11.414
83854W        W56279  30.016  30.642  11.422
83855W        W56280  25.014  38.831   2.395
83856W        W56281   8.706  30.558  10.004
83857W        W56282  11.627  32.890  12.899
83858W        W56283  13.796  33.451   2.854
83859W        W56284  21.540  33.513   3.723
83860W        W56285  42.419  17.778   1.301
83861W        W56286  17.272  27.649   2.818
83862W        W56287  22.111  19.693   4.279
83863W        W56288  43.465  28.167  13.928
83864W        W56289  33.426  36.588   2.749
83865W        W56290  15.676  36.966  11.107
83866W        W56291  16.793   8.161   4.229
83867W        W56292  37.488  16.199  11.026
83868W        W56293   5.317   8.303   4.178
83869W        W56294  29.501  32.505  12.468
83870W        W56295  30.013   0.908   2.902
83871W        W56296   4.896  41.321  13.852
83872W        W56297  35.022  34.591   1.900
83873W        W56298  42.870  19.176  12.968
83874W        W56299  15.271  11.224  13.921
83875W        W56300  33.953  24.183   2.321
83876W        W56301  34.057  26.039  13.938
83877W        W56302  26.158  30.491  11.876
83878W        W56303  22.584  20.192  10.970
83879W        W56304  33.106  36.441  11.581
83880W        W56305   0.465  11.203   2.394
83881W        W56306  22.167  43.835  13.795
83882W        W56307  30.085  36.062   2.320
83883W        W56308  16.596  15.620  13.539
83884W        W56309   8.355  42.351  12.992
83885W        W56310  39.917  24.058  12.465
83886W        W56311  24.215  17.621   1.366
83887W        W56312  44.789  23.003  11.582
83888W        W56313  28.086  21.212  13.965
83889W        W56314  21.080  18.192  11.996
83890W        W56315  34.104  29.059   1.930
83891W        W56316  37.028   9.728   2.814
83892W        W56317  28.486   3.363   1.272
83893W        W56318   3.412  41.927   0.931
83894W        W56319   0.413  13.220  13.503
83895W        W56320  29.988  37.051   0.942
83896W        W56321  29.136  32.598   1.414
83897W        W56322  32.538   9.295  10.947
83898W        W56323  40.837  17.648   1.392
83899W        W56324   1.475  26.995  13.488
83900W        W56325  23.703  42.989  14.416
83901W        W56326  42.003  15.595  11.891
83902W        W56327  39.525  14.614  12.091
83903W        W56328  26.557   6.851  13.922
83904W        W56329  43.284  38.569   0.886
83905W        W56330  42.525  42.286  12.892
83906W        W56331  40.380  35.531   1.700
83907W        W56332   4.227  43.895  11.497
83908W        W56333  14.186  41.036  10.949
83909W        W56334  26.478  33.430   4.744
83910W        W56335  38.422   8.862   4.740
83911W        W56336   4.330  10.202   0.425
83912W        W56337  43.513  33.963  10.458
83913W        W56338  39.352  23.229   1.727
83914W        W56339  35.101  15.635   2.362
83915W        W56340   5.335   9.800  11.549
83916W        W56341  27.083  15.718  11.900
83917W        W56342  20.063  11.664   1.265
83918W        W56343  22.545  35.965   3.337
83919W        W56344  28.559  11.235  14.319
83920W        W56345  32.040  12.787   1.797
83921W        W56346   2.814  35.540   4.824
83922W        W56347  10.766  23.178   4.288
83923W        W56348  35.929  25.611   3.350
83924W        W56349  33.381   0.841  11.995
83925W        W56350  14.332  37.937  13.460
83926W        W56351  20.684  36.523   4.673
83927W        W56352  39.526  33.556   1.286
83928W        W56353   2.418  38.857  10.527
83929W        W56354  16.748   9.385   1.826
83930W        W56355  30.162   7.174  12.554
83931W        W56356  11.656  30.923   1.906
83932W        W56357  30.614   0.376   1.892
83933W        W56358   6.342  39.555  14.502
83934W        W56359  20.543  10.143   0.868
83935W        W56360  43.310  14.179  13.885
83936W        W56361  19.253  30.972   4.244
83937W        W56362  32.957  36.997  11.520
83938W        W56363  43.913  31.602  11.960
83939W        W56364  30.928  34.000   4.166
83940W        W56365  11.155  10.384   1.363
83941W        W56366  34.539  44.820   3.736
83942W        W56367  42.314  33.534   0.376
83943W        W56368  29.044  34.905  13.513
83944W        W56369  15.183  30.032  13.054
83945W        W56370   1.888  30.163  10.434
83946W        W56371  36.397  31.982  10.077
83947W        W56372   5.334  32.075  14.895
83948W        W56373  34.560  15.285  13.403
83949W        W56374  32.041  34.871   1.346
83950W        W56375  20.568  29.008   1.214
83951W        W56376  22.569  31.101  12.829
83952W        W56377  24.112  16.650  12.862
83953W        W56378   1.808   5.873  12.515
83954W        W56379   7.368  13.793   1.360
83955W        W56380   2.860  43.895  10.579
83956W        W56381  21.645   7.881   3.326
83957W        W56382  24.506   7.340  11.564
83958W        W56383  29.006  38.031   4.270
83959W        W56384  36.015  43.879  13.813
83960W        W56385  19.729  16.297   4.129
83961W        W56386  29.957  19.138  14.491
83962W        W56387  10.663  43.439  10.914
83963W        W56388  10.266   1.872   3.308
83964W        W56389  24.664  36.502   3.732
83965W        W56390  22.624  42.988  10.407
83966W        W56391  34.045  41.523   4.159
83967W        W56392  38.553  38.505   3.262
83968W        W56393  23.147   9.688   5.793
83969W        W56394  28.977  37.910   9.962
83970W        W56395  14.128  34.040   3.788
83971W        W56396  33.405  43.985   1.803
83972W        W56397  39.972  11.132   2.265
83973W        W56398  29.053  14.679   4.144
83974W        W56399  22.652  31.928   1.826
83975W        W56400  31.123  14.814  11.051
83976W        W56401  29.433  19.552  12.362
83977W        W56402  30.417  14.683  12.828
83978W        W56403  29.596  17.104  13.482
83979W        W56404   7.329  34.570  12.858
83980W        W56405  31.970   2.396  13.398
83981W        W56406  16.131  35.436  12.421
83982W        W56407  17.739  44.420  12.889
83983W        W56408  31.435  35.975  11.389
83984W        W56409  29.431  42.305   1.395
83985W        W56410  17.299  30.495   3.313
83986W        W56411  17.302  12.201   0.262
83987W        W56412  40.812  10.742  11.048
83988W        W56413  37.415  25.530  12.876
83989W        W56414  38.882  14.196   5.143
83990W        W56415   4.809  21.693  14.815
83991W        W56416  44.359   6.209   2.251
83992W        W56417  10.712  35.991  14.948
83993W        W56418  36.971  16.639   3.366
83994W        W56419  22.580  38.949  11.881
83995W        W56420   2.265  43.344  14.006
83996W        W56421  14.661  25.612  13.817
83997W        W56422  37.560   5.909   1.242
83998W        W56423   2.786   2.281   1.266
83999W        W56424  29.160   2.283   0.796
84000W        W56425  35.995  31.517  10.573
84001W        W56426  12.316  29.569  10.550
84002W        W56427  18.167  23.699   4.691
84003W        W56428  32.432  34.928  10.914
84004W        W56429  16.113   1.845   2.729
84005W        W56430  32.434   4.895  10.621
84006W        W56431   7.235   3.785  13.877
84007W        W56432  42.787  39.969  14.413
84008W        W56433  31.949   4.729   0.736
84009W        W56434  42.431  26.506  13.366
84010W        W56435  33.095   7.198   3.313
84011W        W56436  34.449   6.844   2.378
84012W        W56437  34.966  13.275   0.899
84013W        W56438  27.672   2.779  14.969
84014W        W56439  22.136  23.556  13.344
84015W        W56440  36.987   4.444  14.429
84016W        W56441  12.232  12.300  14.426
84017W        W56442  14.333  23.652   3.864
84018W        W56443  44.336   8.730   3.868
84019W        W56444  26.559  28.132   1.318
84020W        W56445  42.810  23.563   0.921
84021W        W56446  12.159   2.757  12.365
84022W        W56447   3.714  36.074   4.833
84023W        W56448  23.170  17.583   4.165
84024W        W56449  10.142  12.346   0.447
84025W        W56450  43.896  38.515   1.775
84026W        W56451  13.118  33.995   0.742
84027W        W56452  23.103   1.241  11.573
84028W        W56453  39.353   5.759  11.954
84029W        W56454  10.673  26.590   4.156
84030W        W56455  35.870  32.127  11.999
84031W        W56456   8.763  40.365  13.849
84032W        W56457  36.878   7.799  12.865
84033W        W56458  23.733  36.898   1.321
84034W        W56459  41.961  29.479  13.861
84035W        W56460   1.859  14.775  13.792
84036W        W56461  12.185   1.766  13.833
84037W        W56462  43.803  24.099   2.255
84038W        W56463  34.978  36.457   2.732
84039W        W56464  18.238  28.001  12.888
84040W        W56465   7.244  10.742  11.892
84041W        W56466   4.807  28.460   1.419
84042W        W56467  25.485  22.715  14.978
84043W        W56468  29.640  33.509   4.709
84044W        W56469  15.233   8.174  12.965
84045W        W56470  30.560  23.164  12.894
84046W        W56471  22.718  21.617   3.767
84047W        W56472  41.424   7.866   3.351
84048W        W56473   5.215  28.506  13.833
84049W        W56474  18.566  11.791  13.938
84050W        W56475  13.114   3.942  11.605
84051W        W56476  43.792  19.187  13.449
84052W        W56477  40.839   9.694  14.974
84053W        W56478   3.777  15.691   1.925
84054W        W56479  11.866   7.697  12.431
84055W        W56480  22.177  27.666  11.524
84056W        W56481  27.571  33.001  11.400
84057W        W56482  40.326  25.110  12.872
84058W        W56483  43.991  29.104  12.465
84059W        W56484  23.592  11.726  10.433
84060W        W56485  32.030  37.063  10.035
84061W        W56486  22.522  31.941  10.957
84062W        W56487  19.615  19.128  10.894
84063W        W56488  17.234  15.122  13.504
84064W        W56489  27.131  30.042   2.848
84065W        W56490   1.759  19.580   0.911
84066W        W56491  30.069  25.970   0.754
84067W        W56492  16.311  20.690   0.741
84068W        W56493  19.125   1.739  11.472
84069W        W56494   1.376  39.901  10.973
84070W        W56495   3.804   9.303  14.293
84071W        W56496   4.365  40.386  10.486
84072W        W56497  38.560  30.913  11.891
84073W        W56498  37.918   1.886  10.968
84074W        W56499  24.492   7.177   1.419
84075W        W56500  13.193   5.336  14.380
84076W        W56501   1.274  41.468  10.947
84077W        W56502  14.189  38.013   2.370
84078W        W56503   9.224  24.540   2.662
84079W        W56504   4.420  31.119  11.923
84080W        W56505  44.802  40.422  10.019
84081W        W56506  43.333   9.885  10.439
84082W        W56507  28.596  30.925  14.918
84083W        W56508  14.293   1.449  11.992
84084W        W56509  15.610   2.800  14.511
84085W        W56510  44.957  10.688  10.436
84086W        W56511  15.581   3.226   4.296
84087W        W56512  32.074  43.879   4.622
84088W        W56513   6.712  31.979  13.320
84089W        W56514   7.284  44.919   4.622
84090W        W56515  18.258   3.413  12.910
84091W        W56516  41.002   4.261  10.452
84092W        W56517  21.519   7.785  11.928
84093W        W56518   8.383  29.059   2.197
84094W        W56519  25.709  12.158   1.781
84095W        W56520  36.408  28.623   1.774
84096W        W56521  24.532  19.615  13.310
84097W        W56522  29.535  40.878   3.818
84098W        W56523  24.534  10.678   0.726
84099W        W56524  20.579  25.483  14.810
84100W        W56525   0.258   6.839   2.286
84101W        W56526  34.583   6.867  12.392
84102W        W56527  15.614   5.760  10.952
84103W        W56528  34.560   4.336   0.331
84104W        W56529   1.847   2.463   2.319
84105W        W56530  33.405  26.580   0.821
84106W        W56531  29.564  24.210  13.324
84107W        W56532  22.568  26.167   0.822
84108W        W56533   6.780  30.436  14.419
84109W        W56534  38.503  10.147   3.326
84110W        W56535  34.419   5.760   0.774
84111W        W56536  13.704  27.944  11.573
84112W        W56537  21.054  30.471  13.369
84113W        W56538  40.381   9.249  12.918
84114W        W56539  44.976  22.039  13.307
84115W        W56540  26.519  13.307  11.584
84116W        W56541   4.731   9.679  10.567
84117W        W56542   9.304  20.613   3.840
84118W        W56543  28.647  23.137  11.564
84119W        W56544   7.245  36.534  12.416
84120W        W56545  17.097  29.165   4.761
84121W        W56546  36.506  44.274  13.399
84122W        W56547  36.954  35.512   1.379
84123W        W56548  24.572  41.412  14.337
84124W        W56549  42.900  30.038   3.851
84125W        W56550  16.785  18.216  13.795
84126W        W56551  14.625  38.064  12.451
84127W        W56552  30.043  15.582   1.836
84128W        W56553   7.716  41.040   0.758
84129W        W56554  31.535  11.839   3.328
84130W        W56555  26.519  19.281   2.788
84131W        W56556  29.598   5.826  14.409
84132W        W56557  38.389  27.978   0.412
84133W        W56558  36.562  11.836   1.882
84134W        W56559  33.499   8.306   0.942
84135W        W56560  34.923  13.626   3.715
84136W        W56561  15.125  14.259   1.379
84137W        W56562  31.631   6.229  11.417
84138W        W56563   6.261  14.628  10.546
84139W        W56564  12.208  25.140   1.392
84140W        W56565  38.064  39.440   3.245
84141W        W56566  30.003  22.195  13.007
84142W        W56567  29.550  43.405  10.405
84143W        W56568  44.772  12.215   1.740
84144W        W56569  38.416  38.505  13.011
84145W        W56570   2.314  14.624  10.894
84146W        W56571  36.453  25.670   4.278
84147W        W56572   6.852  42.776  13.500
84148W        W56573  21.704  31.533   2.207
84149W        W56574  22.702  39.890  13.962
84150W        W56575   4.719  18.280  12.911
84151W        W56576   9.262   6.368  11.086
84152W        W56577  22.170  14.795  13.832
84153W        W56578  22.699   2.309  13.434
84154W        W56579  42.886  44.415   0.772
84155W        W56580  31.029   8.883   0.861
84156W        W56581   8.684  31.119  12.954
84157W        W56582  38.884  35.105  10.569
84158W        W56583  19.729  43.019   1.755
84159W        W56584   6.719  43.439   1.882
84160W        W56585  42.019  35.854   3.186
84161W        W56586  32.542  39.051  11.541
84162W        W56587  14.763  25.139   2.845
84163W        W56588  39.983  43.809  14.793
84164W        W56589  44.807  37.342   3.844
84165W        W56590   2.754  38.010   0.812
84166W        W56591   2.789  30.648   4.640
84167W        W56592  37.920  30.550  12.510
84168W        W56593  26.676  34.952  14.771
84169W        W56594  19.261  19.052  14.994
84170W        W56595   3.347  38.019  13.487
84171W        W56596   1.372  11.218  10.445
84172W        W56597  37.472  37.359  11.599
84173W        W56598  14.209   7.370  12.037
84174W        W56599  42.781  16.310   0.245
84175W        W56600  14.627  42.508   1.771
84176W        W56601  18.581   7.266   3.783
84177W        W56602  40.310  32.398  14.803
84178W        W56603  19.561  39.833   4.262
84179W        W56604  41.895  14.809  14.963
84180W        W56605  42.492  32.929   3.777
84181W        W56606  27.139   3.448   4.767
84182W        W56607  17.063  39.984   2.784
84183W        W56608  33.432  17.722  10.485
84184W        W56609  22.199  38.061   4.781
84185W        W56610  40.822  24.115  11.407
84186W        W56611  43.440  40.033  11.939
84187W        W56612  43.299  39.444   0.380
84188W        W56613  40.396  43.493  12.988
84189W        W56614  18.701  26.596  12.982
84190W        W56615  31.950  17.117   4.197
84191W        W56616  14.161  33.994   3.339
84192W        W56617   4.352  35.089  11.480
84193W        W56618  37.838  11.842  12.529
84194W        W56619  19.557  26.504   4.202
84195W        W56620  44.850  28.656  13.495
84196W        W56621  10.652  32.121   3.324
84197W        W56622  31.409  30.441  12.920
84198W        W56623  15.202  42.004  10.924
84199W        W56624  13.347  20.599   0.882
84200W        W56625  15.653  10.654  11.461
84201W        W56626  15.210  24.077  14.867
84202W        W56627  37.475  15.085  11.419
84203W        W56628  15.661  26.031   4.657
84204W        W56629   5.875  42.348   0.469
84205W        W56630  20.102  27.575   3.289
84206W        W56631  33.027  37.463   0.760
84207W        W56632   7.735  12.254   0.759
84208W        W56633   9.155  39.000   4.206
84209W        W56634  18.278  27.544   0.365
84210W        W56635  19.131   4.801  12.897
84211W        W56636  29.647  15.282   2.210
84212W        W56637  13.290  23.050  14.010
84213W        W56638  25.089  29.507   0.433
84214W        W56639   9.285   0.948   1.711
84215W        W56640   4.765  19.760   2.410
84216W        W56641   4.713  42.912  10.950
84217W        W56642  18.756   0.924  11.108
84218W        W56643  26.012  38.870   1.292
84219W        W56644  43.294   9.273  14.775
84220W        W56645  10.866   2.941   3.314
84221W        W56646  44.314   1.312   1.237
84222W        W56647   2.457  15.650   2.212
84223W        W56648  39.991  27.021  14.327
84224W        W56649  41.901  36.372  13.940
84225W        W56650  19.222  38.878  14.344
84226W        W56651  10.832  13.634  12.520
84227W        W56652  15.205  40.986   3.761
84228W        W56653   6.231  24.527  11.485
84229W        W56654  16.688  41.362  12.085
84230W        W56655   6.806   5.795  13.420
84231W        W56656  14.621  28.082  13.444
84232W        W56657   7.212   7.297   1.314
84233W        W56658  24.213  40.378   2.856
84234W        W56659  18.119   3.270  13.839
84235W        W56660  14.213   1.415  14.809
84236W        W56661  13.320  15.166   1.927
84237W        W56662  26.602  36.898  14.902
84238W        W56663   7.868  38.402   0.341
84239W        W56664  37.369  36.555  11.912
84240W        W56665  15.118  11.166   1.908
84241W        W56666   9.336  18.130   2.871
84242W        W56667  21.217   6.353  13.454
84243W        W56668  35.955  18.775  11.391
84244W        W56669  36.993  31.517  13.986
84245W        W56670  13.726  20.558   4.621
84246W        W56671  44.862  44.855  13.040
84247W        W56672  38.559  44.333   2.769
84248W        W56673   2.464  42.351   4.605
84249W        W56674   0.913  11.155  11.561
84250W        W56675  11.848   3.715   3.204
84251W        W56676  20.157  23.647  11.581
84252W        W56677  24.682   4.288  12.049
84253W        W56678  39.049  38.538  12.924
84254W        W56679  23.209  35.551   3.755
84255W        W56680  27.053   4.326   4.248
84256W        W56681  25.640  42.520  10.572
84257W        W56682  37.846  12.848   3.331
84258W        W56683  33.039  43.955  12.824
84259W        W56684  37.572  33.551  13.937
84260W        W56685  27.575   2.283  13.310
84261W        W56686  37.887   3.411   0.290
84262W        W56687   4.901  27.488  12.552
84263W        W56688  35.884  25.617  12.960
84264W        W56689   2.731  20.249  13.494
84265W        W56690   0.963   9.299   3.385
84266W        W56691   1.752  19.195  10.599
84267W        W56692  30.128  35.857   3.722
84268W        W56693  19.763   9.268   5.287
84269W        W56694  34.520  11.721  11.496
84270W        W56695  26.654   4.346  14.445
84271W        W56696  40.343   0.447  14.410
84272W        W56697  10.838  41.390   1.235
84273W        W56698  26.536   6.420  12.983
84274W        W56699  29.664  39.865  10.114
84275W        W56700  22.141   1.245   0.786
84276W        W56701  12.659  40.539   3.280
84277W        W56702  21.175  28.121  13.512
84278W        W56703  21.220  40.847  13.396
84279W        W56704  28.493  41.356  13.919
84280W        W56705  33.065  33.004  11.528
84281W        W56706  12.212  10.172   3.798
84282W        W56707   7.800   3.259   4.274
84283W        W56708   8.783  10.771  14.780
84284W        W56709   0.442  21.735  14.420
84285W        W56710   8.874  17.583   3.226
84286W        W56711  27.957  37.983  11.971
84287W        W56712  14.100   3.881   0.387
84288W        W56713  40.329  21.116   0.332
84289W        W56714   3.357  35.079  11.390
84290W        W56715  29.500  33.094  13.956
84291W        W56716  20.227  27.633   1.700
84292W        W56717   3.810   9.383   3.255
84293W        W56718  22.622   5.789   0.890
84294W        W56719  38.352  10.794  12.528
84295W        W56720  19.567   4.739   4.261
84296W        W56721  12.233  36.474  10.429
84297W        W56722  27.682  33.032  14.431
84298W        W56723  16.598  18.572  13.409
84299W        W56724   9.666  41.928  11.432
84300W        W56725  42.344  28.958   3.296
84301W        W56726  43.293  37.992   2.743
84302W        W56727   1.304  16.164   3.708
84303W        W56728   5.265  17.600   1.783
84304W        W56729  35.961  10.654   3.758
84305W        W56730   5.705  19.611  13.410
84306W        W56731  36.037   1.772   0.878
84307W        W56732   7.291   3.340  14.920
84308W        W56733  24.582  28.160  12.896
84309W        W56734  14.269  25.507   3.780
84310W        W56735  23.201  39.814   0.439
84311W        W56736   8.378  38.866  10.436
84312W        W56737  34.571  28.064  14.302
84313W        W56738  36.490  36.959   0.247
84314W        W56739  24.628   6.370  13.545
84315W        W56740  39.872  11.192  14.882
84316W        W56741  43.284  30.590   2.192
84317W        W56742   2.857  27.963   1.930
84318W        W56743   1.339  14.758  14.436
84319W        W56744  38.433  12.717   1.406
84320W        W56745  20.199  12.798   1.902
84321W        W56746  27.192   9.282  12.494
84322W        W56747  18.168   6.422  10.899
84323W        W56748  12.704  39.470  10.513
84324W        W56749  10.178   5.342   4.178
84325W        W56750  18.692  31.097   2.821
84326W        W56751  25.168   4.809   3.850
84327W        W56752  36.412   3.818   0.407
84328W        W56753  32.893   9.230  12.936
84329W        W56754  25.010  29.088  10.008
84330W        W56755  21.546   5.764   2.821
84331W        W56756  15.088   2.783   3.217
84332W        W56757  19.177  34.410   3.656
84333W        W56758   5.376   9.287  14.958
84334W        W56759  27.187  27.491  12.070
84335W        W56760  10.373  39.987  12.421
84336W        W56761  37.456  33.899   2.749
84337W        W56762  40.852  30.053  11.881
84338W        W56763  24.202   9.228   3.260
84339W        W56764  30.026   9.838   4.164
84340W        W56765  39.420  37.036   3.385
84341W        W56766  25.171  41.913   3.641
84342W        W56767   8.726  12.847  11.060
84343W        W56768  22.743  12.244  12.907
84344W        W56769  30.422  44.861   1.796
84345W        W56770  29.528  42.920   1.354
84346W        W56771  35.375  30.027   3.202
84347W        W56772  33.565   8.807  11.470
84348W        W56773  11.254   6.750   3.369
84349W        W56774  28.439  26.974  11.586
84350W        W56775  29.444  35.479  12.924
84351W        W56776  15.665  44.907  12.955
84352W        W56777  31.027  34.916   0.433
84353W        W56778   2.762  34.028  10.439
84354W        W56779  28.974  18.569   2.293
84355W        W56780  17.086  42.362  12.421
84356W        W56781   3.354  13.238   5.299
84357W        W56782   8.843  26.460   2.304
84358W        W56783  13.836  16.779  13.815
84359W        W56784  24.151  26.522   3.331
84360W        W56785   0.468  33.478   9.545
84361W        W56786  10.336   3.754   1.821
84362W        W56787  36.005  26.540  11.068
84363W        W56788  20.615   8.808   1.356
84364W        W56789   3.851  12.743   2.677
84365W        W56790  41.384  36.010   2.233
84366W        W56791  42.925  41.790   3.210
84367W        W56792  19.672  37.992   4.733
84368W        W56793   2.451   1.847  13.829
84369W        W56794  22.185  28.121   4.134
84370W        W56795  36.415  23.009   2.214
84371W        W56796  41.478  42.293   3.695
84372W        W56797  26.643  13.709  10.618
84373W        W56798  26.696   8.655  11.000
84374W        W56799  25.586  21.539   0.477
84375W        W56800  17.307   6.887   0.912
84376W        W56801  41.465  22.066  11.041
84377W        W56802  28.038  37.978  13.542
84378W        W56803  30.570  39.034  13.461
84379W        W56804  23.598  23.197   0.871
84380W        W56805   9.380  10.321   4.701
84381W        W56806  12.148   9.686   2.293
84382W        W56807  39.328  36.566  13.994
84383W        W56808  10.247  33.005  13.054
84384W        W56809  34.002  11.645   1.915
84385W        W56810  33.973   8.336   3.790
84386W        W56811   9.252  15.700  12.980
84387W        W56812   1.261   8.341  12.089
84388W        W56813   4.439  40.480  12.039
84389W        W56814  38.377  13.330  11.866
84390W        W56815  30.566  38.956   5.092
84391W        W56816  10.227  35.079   4.677
84392W        W56817  20.125  23.179   2.232
84393W        W56818  33.482   4.711   0.329
84394W        W56819  13.621   5.218  10.613
84395W        W56820  18.236  20.124   4.148
84396W        W56821  10.684   1.948   0.393
84397W        W56822   7.740  15.235  13.851
84398W        W56823  42.816  14.190  10.904
84399W        W56824   7.403  27.964   1.221
84400W        W56825  14.189   9.738   1.700
84401W        W56826  40.048  17.223  10.973
84402W        W56827   4.210  42.461  11.038
84403W        W56828  33.540  29.629   2.754
84404W        W56829  41.362  17.565   1.302
84405W        W56830  27.620  36.894   1.848
84406W        W56831  25.073  14.248  13.313
84407W        W56832   4.267  40.475   1.779
84408W        W56833  30.617  32.045   2.374
84409W        W56834  33.624   0.435   4.275
84410W        W56835  26.129   0.440   3.234
84411W        W56836   6.775  24.139   4.115
84412W        W56837  39.002  33.913   0.393
84413W        W56838  10.295  25.708  10.507
84414W        W56839   9.287  44.387   0.821
84415W        W56840   7.197  20.082  12.896
84416W        W56841  41.449   5.865  12.524
84417W        W56842  11.203  34.985  11.035
84418W        W56843  26.051   7.338   2.379
84419W        W56844  15.651  41.407   0.285
84420W        W56845   7.883  15.760  11.938
84421W        W56846  33.507  14.718   3.814
84422W        W56847  18.614   5.694   2.356
84423W        W56848  21.142   9.281  11.952
84424W        W56849  22.063  34.471  13.992
84425W        W56850  38.501   0.461  13.808
84426W        W56851  24.663   8.181   1.820
84427W        W56852   3.421   9.194  11.123
84428W        W56853  10.233  28.005   0.317
84429W        W56854  26.506  19.181   0.806
84430W        W56855   5.864  36.858   0.942
84431W        W56856   8.353  28.667  11.117
84432W        W56857  36.476  29.579  14.940
84433W        W56858  38.366  19.093   2.848
84434W        W56859  38.891   7.674   3.246
84435W        W56860  36.848  26.087   1.854
84436W        W56861  25.004  42.982   2.255
84437W        W56862   6.723  35.008   3.660
84438W        W56863  24.204  24.155   2.866
84439W        W56864  40.305  13.777  11.104
84440W        W56865  22.251  44.996  11.102
84441W        W56866  15.674  12.629   4.329
84442W        W56867  15.810  21.054  14.898
84443W        W56868   6.823  20.661   0.811
84444W        W56869  20.047  41.423   4.751
84445W        W56870  43.480  35.925   3.751
84446W        W56871  13.328   2.814  13.522
84447W        W56872  24.040  37.404  14.853
84448W        W56873  10.806  35.436   2.740
84449W        W56874   1.927  40.822  14.349
84450W        W56875   6.256   0.766   1.439
84451W        W56876   2.434   8.370   1.798
84452W        W56877  31.065   8.184  13.380
84453W        W56878  35.560  44.834  13.500
84454W        W56879   0.867   9.649   3.823
84455W        W56880   2.374  34.540  11.578
84456W        W56881  28.454  20.748  13.312
84457W        W56882  32.936  17.790  13.903
84458W        W56883  27.497  33.620  13.476
84459W        W56884  12.185  12.668  11.496
84460W        W56885  35.952   9.156  10.472
84461W        W56886  32.934  40.846   3.815
84462W        W56887  13.680   5.238  14.794
84463W        W56888  33.041  43.806   4.309
84464W        W56889  36.050  16.799   0.910
84465W        W56890   4.365  39.962   1.445
84466W        W56891  22.146  20.166   1.820
84467W        W56892  36.389  30.068  10.491
84468W        W56893  22.995   3.741  13.443
84469W        W56894   6.777   7.271   0.775
84470W        W56895  21.055  16.088  11.432
84471W        W56896  22.053  29.967   4.833
84472W        W56897  26.533  26.560  13.913
84473W        W56898   1.804  27.975  11.555
84474W        W56899  41.369   5.752   1.841
84475W        W56900  23.216  29.969  10.600
84476W        W56901  44.990  24.133   1.813
84477W        W56902  39.862   8.208   3.836
84478W        W56903  26.163  21.162  12.857
84479W        W56904   2.280   0.456   0.937
84480W        W56905   9.372  37.934   2.246
84481W        W56906   8.876  18.599  13.896
84482W        W56907  12.843  23.676  14.961
84483W        W56908  11.710  43.808   0.831
84484W        W56909   4.862  37.969  11.591
84485W        W56910  31.107  28.436   2.669
84486W        W56911  26.951  29.023   4.145
84487W        W56912   6.412  40.811   2.728
84488W        W56913  16.708   8.712   4.349
84489W        W56914   9.370  42.360  11.986
84490W        W56915  29.146  35.408   2.357
84491W        W56916  22.189   8.368   3.259
84492W        W56917  26.519  36.068   3.293
84493W        W56918  14.182  13.169   1.892
84494W        W56919  10.365  31.474  14.416
84495W        W56920  13.329   6.275   0.919
84496W        W56921  13.664  20.567   0.817
84497W        W56922   2.946  43.512   1.852
84498W        W56923  43.477  44.853   3.735
84499W        W56924  34.069  23.574  14.020
84500W        W56925   8.276  41.518  10.979
84501W        W56926  18.755  33.518  14.289
84502W        W56927  41.011  22.561  13.960
84503W        W56928  34.965  16.271  10.539
84504W        W56929  19.593   6.879  14.871
84505W        W56930  33.905  41.819  11.966
84506W        W56931  27.974  27.025   2.406
84507W        W56932  12.716  31.039   0.259
84508W        W56933  30.450  37.438  14.029
84509W        W56934   0.956  44.812   0.817
84510W        W56935  42.327  23.071   0.285
84511W        W56936  42.469  40.310   1.409
84512W        W56937  28.120  18.050  14.959
84513W        W56938  43.278  20.580  13.935
84514W        W56939  10.351  23.559   3.293
84515W        W56940   9.153  29.053  13.543
84516W        W56941   4.432   5.819  13.812
84517W        W56942  38.472   8.730  11.069
84518W        W56943  33.121  13.243  13.998
84519W        W56944  18.272  13.706  11.024
84520W        W56945  42.455  36.366  13.833
84521W        W56946  17.726   1.475   4.252
84522W        W56947  20.606  14.335   0.291
84523W        W56948  32.138   1.871  13.983
84524W        W56949   8.847   5.730  12.094
84525W        W56950  16.700  12.168   4.342
84526W        W56951   5.314  33.033   0.459
84527W        W56952   1.408  14.819  10.595
84528W        W56953   7.786  21.170   3.867
84529W        W56954   0.846   7.228  13.864
84530W        W56955  34.014  35.466   2.681
84531W        W56956  19.760  22.059   1.265
84532W        W56957  24.512   6.883   3.811
84533W        W56958  21.101  15.245   2.325
84534W        W56959  35.948  22.073  14.345
84535W        W56960   3.868  35.971   3.843
84536W        W56961  11.808   5.834  14.496
84537W        W56962  28.535  16.805   0.813
84538W        W56963   4.364  32.062   0.930
84539W        W56964  28.531  19.184   4.343
84540W        W56965  36.507  12.143  10.431
84541W        W56966  12.125  23.619  10.077
84542W        W56967  24.169  22.203   2.311
84543W        W56968  20.720   8.823  14.484
84544W        W56969  13.735  10.681   2.804
84545W        W56970  21.057  42.847  11.890
84546W        W56971  28.945  36.506   4.777
84547W        W56972  17.259   8.849   2.857
84548W        W56973  40.033  42.499  11.069
84549W        W56974   9.193   6.187   0.364
84550W        W56975  16.114  40.836   2.859
84551W        W56976  28.529  11.681   3.825
84552W        W56977   8.901  30.541   1.761
84553W        W56978  25.658  18.209   3.178
84554W        W56979  29.577   6.720   2.818
84555W        W56980  18.124  31.585  11.468
84556W        W56981  25.610  15.211  10.587
84557W        W56982  27.458  32.053   0.832
84558W        W56983   7.751  19.745  14.446
84559W        W56984  24.518  19.746   1.373
84560W        W56985  20.033   2.798   1.906
84561W        W56986  21.065  14.294   0.414
84562W        W56987  33.530  17.732  12.900
84563W        W56988  34.117  16.260  13.868
84564W        W56989  37.030  20.574  12.390
84565W        W56990  38.434  43.990   1.932
84566W        W56991  27.007  21.081   2.689
84567W        W56992   1.785  43.447   0.807
84568W        W56993  29.646  22.046   1.773
84569W        W56994   0.810  13.323   0.416
84570W        W56995  12.743  33.584  14.460
84571W        W56996  36.544  22.097  12.943
84572W        W56997  40.807  43.371   2.726
84573W        W56998  41.430  26.664   1.714
84574W        W56999  33.961   9.248   3.781
84575W        W57000  15.201  36.522  10.470
84576W        W57001   3.431  17.737   1.245
84577W        W57002  26.674  42.853   4.235
84578W        W57003  20.069  40.977  11.045
84579W        W57004   5.330  43.481  14.008
84580W        W57005  13.202  10.292  14.294
84581W        W57006  17.770  43.914  12.921
84582W        W57007  41.789  35.368   1.815
84583W        W57008  18.176  16.593   1.798
84584W        W57009  36.951   8.184  11.443
84585W        W57010  20.641   2.289   3.640
84586W        W57011   7.850  39.446  12.982
84587W        W57012  18.712  41.974   0.726
84588W        W57013  26.465  15.257   4.311
84589W        W57014  27.967  12.856  11.453
84590W        W57015  36.972  24.483  11.490
84591W        W57016  29.443  16.131  14.908
84592W        W57017  41.929  30.929  11.523
84593W        W57018  23.169  12.654  13.520
84594W        W57019   9.294  36.097   0.786
84595W        W57020  42.903  29.533   3.842
84596W        W57021  25.024  29.602  10.890
84597W        W57022  39.852  43.791   4.741
84598W        W57023  25.695  39.972   0.967
84599W        W57024  15.189  32.985   3.692
84600W        W57025   3.754   8.897  10.519
84601W        W57026  14.134   7.175   4.335
84602W        W57027  22.040  32.537   4.798
84603W        W57028  37.052   0.871  10.571
84604W        W57029  38.949  38.884  12.378
84605W        W57030  34.504  35.984   0.435
84606W        W57031  39.360  10.197  12.886
84607W        W57032  30.015  44.337  11.947
84608W        W57033  35.966  24.697  10.985
84609W        W57034  35.913  15.113   2.805
84610W        W57035  21.041  31.923  11.409
84611W        W57036  31.582  37.058  11.931
84612W        W57037  28.660  28.135   1.807
84613W        W57038  13.182  39.994  14.801
84614W        W57039  26.009  36.880  11.583
84615W        W57040  39.911   4.216  11.859
84616W        W57041  10.652  10.153  14.406
84617W        W57042   1.894   1.378  13.424
84618W        W57043  28.453  35.879  11.969
84619W        W57044   6.382  31.509  11.926
84620W        W57045  15.728  33.416  14.370
84621W        W57046  26.018  44.461  11.508
84622W        W57047  37.987  15.185  11.495
84623W        W57048  16.205  25.174   4.780
84624W        W57049  40.511  10.248   9.970
84625W        W57050  23.688  37.928   0.409
84626W        W57051  31.083  33.000   2.729
84627W        W57052   6.801  20.573  11.022
84628W        W57053   2.409  12.253   1.698
84629W        W57054  41.032   3.233  13.527
84630W        W57055  30.935  43.320  14.978
84631W        W57056  30.050   4.870  13.025
84632W        W57057  32.141   5.225  10.483
84633W        W57058  43.366  20.265  12.994
84634W        W57059   5.279  15.266   2.399
84635W        W57060  44.940  35.582   0.475
84636W        W57061  19.691   1.950   1.446
84637W        W57062  43.341  41.801   4.207
84638W        W57063   0.340  44.926  13.365
84639W        W57064  17.780  12.181  10.959
84640W        W57065  30.933  34.425   2.858
84641W        W57066  30.589  33.520   2.341
84642W        W57067  35.024  28.171   2.801
84643W        W57068   3.811   7.225  14.798
84644W        W57069   2.239   9.827  14.324
84645W        W57070   7.847  43.836  13.454
84646W        W57071  27.460  22.154   4.347
84647W        W57072  32.598  29.507   3.690
84648W        W57073  36.085  29.488  13.326
84649W        W57074   1.473  15.671   2.316
84650W        W57075  19.588   4.796   1.857
84651W        W57076  15.128  33.572  14.431
84652W        W57077  43.467  22.190  11.874
84653W        W57078  22.116  28.186  11.600
84654W        W57079  29.051  12.849  10.933
84655W        W57080   3.264  40.894   2.223
84656W        W57081  17.157  35.407   1.369
84657W        W57082  36.067  39.534   1.270
84658W        W57083  10.797   7.320  11.966
84659W        W57084  40.393  32.554  12.472
84660W        W57085  41.895  37.421   3.672
84661W        W57086  25.207  15.675   4.213
84662W        W57087   2.455  17.647   1.915
84663W        W57088  22.537  27.477  14.771
84664W        W57089  11.707  16.106  11.093
84665W        W57090  40.950  39.995   1.301
84666W        W57091  14.307  22.667   0.452
84667W        W57092  40.333  40.020  14.418
84668W        W57093   4.432  29.021  14.515
84669W        W57094  35.867  32.886  12.980
84670W        W57095  43.811   2.232  12.049
84671W        W57096  18.694  28.050  14.489
84672W        W57097  41.945  14.195  14.343
84673W        W57098   4.705   1.386  12.416
84674W        W57099   9.681  32.024  10.945
84675W        W57100   5.787  17.129  12.360
84676W        W57101  41.397  15.209   1.857
84677W        W57102  20.273  23.076   4.810
84678W        W57103  35.430  36.374  14.337
84679W        W57104  44.981   3.929   0.471
84680W        W57105  20.120  27.983  14.898
84681W        W57106  13.256  13.176   2.323
84682W        W57107   7.243  27.602  10.889
84683W        W57108  39.886  19.051  12.941
84684W        W57109  44.367  17.668   3.777
84685W        W57110  36.456  23.642   4.832
84686W        W57111   4.436   4.241  14.766
84687W        W57112  21.738   7.811  14.508
84688W        W57113  44.311   1.818  14.849
84689W        W57114  23.984  44.920   2.248
84690W        W57115  39.061  20.747  14.016
84691W        W57116  36.394  30.109  13.444
84692W        W57117  11.175  29.948   3.340
84693W        W57118  18.598  37.932  10.416
84694W        W57119  36.087  15.733  11.423
84695W        W57120  16.667  31.543   4.675
84696W        W57121  17.088  43.013   4.756
84697W        W57122  10.689   8.699  11.532
84698W        W57123  16.745  22.049   4.262
84699W        W57124  34.483  37.346   0.953
84700W        W57125  17.751  30.924   1.754
84701W        W57126  30.116   8.264   1.313
84702W        W57127  14.144  24.126  13.881
84703W        W57128  29.138  10.789   0.451
84704W        W57129  16.245  10.732   3.329
84705W        W57130   2.244  30.586  10.124
84706W        W57131  27.963  33.418  13.401
84707W        W57132  22.537   1.341  13.819
84708W        W57133  17.556  22.531  10.911
84709W        W57134  43.339  28.102   4.830
84710W        W57135  43.445  16.571  13.528
84711W        W57136   4.273  35.093  14.382
84712W        W57137  39.434  25.124   3.199
84713W        W57138  34.604  39.031   4.296
84714W        W57139   8.726   5.795   3.835
84715W        W57140  20.573   5.314   4.731
84716W        W57141  39.339  44.885   1.242
84717W        W57142   8.900  31.007   0.959
84718W        W57143  31.992  38.901   2.717
84719W        W57144  24.483   6.872  11.959
84720W        W57145   8.212  14.329   0.359
84721W        W57146  40.039  16.796   2.741
84722W        W57147  34.387  30.571   1.293
84723W        W57148  41.533  36.062  14.781
84724W        W57149  43.844  28.155  11.375
84725W        W57150   3.850  24.976  13.949
84726W        W57151  39.894  40.468  11.090
84727W        W57152  29.953  31.031  12.554
84728W        W57153  30.570  16.292   3.219
84729W        W57154  38.355   2.282   0.273
84730W        W57155   1.320  25.474   4.283
84731W        W57156  10.675  18.270   2.706
84732W        W57157  37.882  25.510   3.277
84733W        W57158   6.873   5.267   2.776
84734W        W57159  31.954  33.973   4.829
84735W        W57160  34.052  14.234   4.802
84736W        W57161  24.522  24.511   4.766
84737W        W57162  42.479   1.796  12.876
84738W        W57163  37.396   1.743   4.350
84739W        W57164  37.994  37.394   4.773
84740W        W57165   8.297  15.724   0.475
84741W        W57166   6.710   5.837   3.803
84742W        W57167   5.742  31.036  14.980
84743W        W57168   0.469  38.009  12.073
84744W        W57169  29.168  27.987  12.398
84745W        W57170  20.679  44.301  11.599
84746W        W57171   1.309  10.352  13.797
84747W        W57172   4.910  17.208   5.264
84748W        W57173  40.547  37.526   1.443
84749W        W57174  12.623  39.321   1.444
84750W        W57175  18.117   9.172   4.226
84751W        W57176  28.567  24.616   2.286
84752W        W57177  17.573  38.851   2.695
84753W        W57178  25.185  11.654   1.212
84754W        W57179  20.674   9.774   0.860
84755W        W57180   1.241   1.783   4.161
84756W        W57181  26.989  23.538  13.021
84757W        W57182  11.192  44.820   3.213
84758W        W57183  39.542  19.657   4.131
84759W        W57184  22.155  19.085  11.397
84760W        W57185  22.150  42.303  13.415
84761W        W57186  21.064  17.267   4.294
84762W        W57187  16.126  31.621   2.408
84763W        W57188  37.366  21.143  10.057
84764W        W57189  40.516  12.680  11.072
84765W        W57190   6.763   0.793  11.916
84766W        W57191  24.090  23.518   3.205
84767W        W57192  33.048   6.689   2.414
84768W        W57193  17.135  15.617  13.383
84769W        W57194  36.949   2.800   4.122
84770W        W57195   6.906  35.376   3.724
84771W        W57196  10.296   1.828   4.660
84772W        W57197  32.453  19.687   4.122
84773W        W57198  32.971  32.568   0.866
84774W        W57199  36.526  15.707   0.242
84775W        W57200  22.031  43.816   4.146
84776W        W57201  32.595   5.774   0.254
84777W        W57202  43.913  30.986   3.680
84778W        W57203  13.191  42.989   1.327
84779W        W57204   1.890  13.195  12.551
84780W        W57205   9.709  28.006   0.389
84781W        W57206  40.528   9.651   1.315
84782W        W57207   2.235  23.489   4.255
84783W        W57208  16.095  26.590  12.486
84784W        W57209  43.990  14.128  13.479
84785W        W57210  31.595  39.889   4.740
84786W        W57211  11.173  26.555  10.972
84787W        W57212  36.901  36.940   2.783
84788W        W57213   9.683  20.122  11.010
84789W        W57214   2.957  38.420   1.377
84790W        W57215  22.546  21.648   4.158
84791W        W57216  16.702  36.491  14.891
84792W        W57217  28.564  37.556  13.896
84793W        W57218  30.960  35.437  12.850
84794W        W57219   8.656  32.584   0.360
84795W        W57220  28.533  35.442   3.382
84796W        W57221  26.961  28.131   0.936
84797W        W57222  33.892  34.931  12.519
84798W        W57223   0.259  41.295   2.892
84799W        W57224  18.196  28.620   4.221
84800W        W57225  14.308  15.311   4.172
84801W        W57226  35.946  41.528   2.201
84802W        W57227   8.379  22.733   2.210
84803W        W57228  40.020  19.117   2.823
84804W        W57229   5.716  33.130   2.231
84805W        W57230  40.962  19.652  14.375
84806W        W57231  10.744  12.356   0.950
84807W        W57232  22.728  27.013   2.744
84808W        W57233  22.996  36.970  13.974
84809W        W57234  13.315  15.716   3.810
84810W        W57235   8.163  33.420  13.983
84811W        W57236  12.358  38.934  12.513
84812W        W57237  29.552  40.363  13.437
84813W        W57238  34.421  25.050  10.616
84814W        W57239  32.586  29.034   4.173
84815W        W57240  22.156  26.461   2.678
84816W        W57241  23.099  38.977   4.756
84817W        W57242  43.404  25.991   4.230
84818W        W57243  29.660  21.260  10.584
84819W        W57244  23.525   1.244   3.644
84820W        W57245  39.020  12.620   0.460
84821W        W57246  24.125  11.711  11.870
84822W        W57247  35.534   6.818   0.910
84823W        W57248  22.106  42.523   4.184
84824W        W57249   6.221  20.540  11.412
84825W        W57250  23.223  31.498   2.299
84826W        W57251  19.737  36.540   2.719
84827W        W57252  32.616  17.656  14.340
84828W        W57253  19.079  34.947   2.688
84829W        W57254  13.209  40.803   0.396
84830W        W57255  43.784  39.826  14.458
84831W        W57256  34.950   9.340  10.564
84832W        W57257  14.770   6.345  13.969
84833W        W57258   9.727  14.675  14.466
84834W        W57259  36.455  26.486   4.266
84835W        W57260   8.859  10.307  13.868
84836W        W57261  19.763  18.114  13.962
84837W        W57262  22.722  10.355  14.927
84838W        W57263   9.394  30.914  11.604
84839W        W57264  44.948  12.321  11.912
84840W        W57265   9.174  35.044   4.240
84841W        W57266  39.554  21.075  14.854
84842W        W57267  40.377  19.268  12.972
84843W        W57268  31.459  41.297  14.836
84844W        W57269  32.628  39.808   1.858
84845W        W57270  26.598  12.626  12.044
84846W        W57271  31.931  30.427   4.825
84847W        W57272  41.508  26.580   5.263
84848W        W57273  31.148   0.485  10.629
84849W        W57274   4.761   1.417   3.742
84850W        W57275  27.664   6.339   3.853
84851W        W57276  18.054   8.665  11.901
84852W        W57277  11.742  41.480  13.867
84853W        W57278  33.451   3.865   3.815
84854W        W57279  14.793  27.644  12.364
84855W        W57280   4.830  33.496  12.342
84856W        W57281  21.255   3.945   2.412
84857W        W57282  32.584  27.084  12.442
84858W        W57283   6.385   0.249  11.120
84859W        W57284   8.872  19.725   4.831
84860W        W57285  13.231  26.542  10.055
84861W        W57286  21.157   2.383  10.529
84862W        W57287   5.825  16.729  14.924
84863W        W57288  24.031  21.106  13.905
84864W        W57289  24.081  14.618   4.838
84865W        W57290  19.537  35.864  11.565
84866W        W57291  27.007  21.128   4.644
84867W        W57292  30.438  23.613   5.726
84868W        W57293  31.116  32.504  13.375
84869W        W57294  15.666  40.416   1.305
84870W        W57295  28.515   0.409   4.648
84871W        W57296  34.940  24.567  11.052
84872W        W57297  29.450  38.854  10.504
84873W        W57298  23.007   2.892  14.803
84874W        W57299  34.389  19.663  12.430
84875W        W57300  29.098   3.849   2.824
84876W        W57301  38.329  38.025   1.841
84877W        W57302  10.314  44.397   1.229
84878W        W57303  40.304  20.550   3.697
84879W        W57304  30.582  42.479   4.609
84880W        W57305  42.422  21.226   0.451
84881W        W57306  11.723  29.029   1.295
84882W        W57307   0.824  20.529   0.314
84883W        W57308  13.334   8.746  14.385
84884W        W57309  16.130  35.975   1.243
84885W        W57310   9.760  28.622   1.749
84886W        W57311  28.634  41.338  12.359
84887W        W57312  35.973  14.195  11.456
84888W        W57313  37.523  36.457   3.295
84889W        W57314  30.595  28.042   4.819
84890W        W57315   0.751  23.694   2.208
84891W        W57316  41.874  26.996  14.875
84892W        W57317  41.519  38.423   2.755
84893W        W57318  21.543  12.300   5.183
84894W        W57319  25.115  27.639  11.011
84895W        W57320  16.752  40.424  12.571
84896W        W57321  28.461   5.891   0.246
84897W        W57322  10.737  25.489   2.333
84898W        W57323  22.092  44.776   3.296
84899W        W57324  30.157  11.724  13.820
84900W        W57325  12.324  25.622  14.797
84901W        W57326  24.030  44.972  12.917
84902W        W57327   5.318  18.726  11.013
84903W        W57328  18.657  27.680  12.036
84904W        W57329  10.251  41.022   2.404
84905W        W57330  25.098  37.406   3.722
84906W        W57331  34.406  21.512  14.874
84907W        W57332  30.927  37.526  14.915
84908W        W57333  15.638  39.856  12.854
84909W        W57334  44.379  14.197  12.087
84910W        W57335  15.790  40.529   5.313
84911W        W57336   1.264  31.505  12.492
84912W        W57337  18.246  25.141  12.481
84913W        W57338  21.035   8.706  13.386
84914W        W57339  11.221  15.242  10.557
84915W        W57340  17.622  19.041   1.236
84916W        W57341  24.545  19.168   1.387
84917W        W57342  29.990  39.956  14.389
84918W        W57343  27.951  43.869   0.794
84919W        W57344  30.452  36.883   4.790
84920W        W57345  29.490   4.796  12.360
84921W        W57346   4.372  23.579  12.403
84922W        W57347  31.072  29.997  12.458
84923W        W57348   3.458  11.634  11.394
84924W        W57349  37.350  22.087   2.403
84925W        W57350  16.318  16.590  13.319
84926W        W57351  14.278  30.020  11.494
84927W        W57352  11.760  40.929   1.336
84928W        W57353  43.926  33.062   4.168
84929W        W57354  38.392  40.923   3.329
84930W        W57355  43.926  31.085   1.365
84931W        W57356  15.231  31.554   4.251
84932W        W57357   2.279   6.772  10.450
84933W        W57358  40.348  23.697  11.510
84934W        W57359  22.523  10.208  14.414
84935W        W57360  34.513  23.510   4.630
84936W        W57361  41.008  12.849   2.204
84937W        W57362  24.114  30.156   0.849
84938W        W57363   9.291  12.751   3.869
84939W        W57364  24.480   5.249  11.374
84940W        W57365  37.476   2.260   4.662
84941W        W57366   7.307  12.169  14.907
84942W        W57367  26.516   5.744  13.015
84943W        W57368  16.309  11.837   4.204
84944W        W57369  12.723  19.694   1.852
84945W        W57370  44.819  38.900   2.304
84946W        W57371  28.186  44.346   5.167
84947W        W57372  17.644  25.637  13.884
84948W        W57373  32.530  40.360  11.535
84949W        W57374   0.416  42.938  13.410
84950W        W57375  29.497  41.808  11.584
84951W        W57376  41.786  35.064  13.395
84952W        W57377   6.923  11.284  13.480
84953W        W57378   3.450  12.769   3.229
84954W        W57379  31.551  19.213  13.544
84955W        W57380  29.167   3.844  13.012
84956W        W57381  38.555  12.180   3.299
84957W        W57382  22.159  39.829  13.531
84958W        W57383  43.286  32.056   4.659
84959W        W57384   6.853  40.892   1.436
84960W        W57385  37.382  28.018  14.906
84961W        W57386  18.751  10.727  10.486
84962W        W57387  26.528   3.451  10.915
84963W        W57388  31.572  30.126  14.868
84964W        W57389  26.156  10.738  11.419
84965W        W57390  25.663  19.697   2.805
84966W        W57391  18.079  26.464  13.841
84967W        W57392  37.409  10.364  13.928
84968W        W57393  31.474  41.318   2.774
84969W        W57394   2.872   4.310   1.374
84970W        W57395  33.408  30.443   1.745
84971W        W57396   2.917  19.757  10.584
84972W        W57397  33.989   7.280   1.748
84973W        W57398  44.467  23.522  10.022
84974W        W57399  27.184  41.305   2.768
84975W        W57400  20.710  44.915  11.960
84976W        W57401  37.973  22.639  14.972
84977W        W57402  25.018  21.218   2.865
84978W        W57403  20.609  24.167   4.191
84979W        W57404  29.643   1.423   0.856
84980W        W57405  22.558  28.457   1.748
84981W        W57406  34.399  40.378   1.321
84982W        W57407  16.671  18.133  12.423
84983W        W57408  26.114  10.746  11.958
84984W        W57409   3.719  22.119  13.343
84985W        W57410  29.995  33.576  11.079
84986W        W57411  34.033  30.036   3.167
84987W        W57412   8.279  26.544   1.795
84988W        W57413   1.398  11.272  13.841
84989W        W57414  33.553  41.810  14.836
84990W        W57415  30.435  44.007  13.453
84991W        W57416   8.794  16.279   2.272
84992W        W57417  14.158   6.908   1.315
84993W        W57418   3.369  25.186  10.471
84994W        W57419  25.491   8.685   2.838
84995W        W57420  41.003  17.561   4.227
84996W        W57421   8.284   8.695  14.002
84997W        W57422  10.707  12.829   4.715
84998W        W57423  16.637  33.949   3.252
84999W        W57424  37.424  43.886   4.326
85000W        W57425  36.048   2.873  10.539
85001W        W57426  33.384  11.730  13.875
85002W        W57427  41.831  26.505   9.985
85003W        W57428  29.558  28.550   2.356
85004W        W57429  29.481  14.331   2.276
85005W        W57430  44.348  37.565  12.492
85006W        W57431  11.637  26.624  12.006
85007W        W57432  30.486  38.878  12.998
85008W        W57433  13.162  30.147   2.670
85009W        W57434  14.771  24.106  13.839
85010W        W57435  42.323  34.880   4.336
85011W        W57436   6.414  19.769  11.427
85012W        W57437   2.892  14.205   1.769
85013W        W57438   3.382  18.783  11.090
85014W        W57439  42.804   0.898  14.783
85015W        W57440  21.225  32.449   4.290
85016W        W57441   8.877  38.478   4.712
85017W        W57442  18.265  14.664   3.762
85018W        W57443  32.904   5.432  12.052
85019W        W57444  43.292  24.649  12.429
85020W        W57445  17.788   9.309   2.332
85021W        W57446  36.043   6.385  12.981
85022W        W57447  32.930  10.226   4.272
85023W        W57448  30.935  15.090   3.334
85024W        W57449  35.458   0.320  11.906
85025W        W57450  29.433  39.042   4.163
85026W        W57451  31.946  40.504   0.326
85027W        W57452  13.139   4.289   5.186
85028W        W57453  42.958  37.356   4.154
85029W        W57454  28.559  40.457   4.711
85030W        W57455  34.867  24.667   1.787
85031W        W57456  37.996  20.101  14.283
85032W        W57457  41.299  21.257   1.265
85033W        W57458   3.235  37.408  13.503
85034W        W57459  13.729  12.825  12.429
85035W        W57460  16.110   2.758  10.455
85036W        W57461   0.749   1.459  13.929
85037W        W57462  23.633  19.224  13.886
85038W        W57463  37.465  25.677  11.400
85039W        W57464  33.038   2.869  12.877
85040W        W57465  43.400   2.241  13.929
85041W        W57466  27.966   4.336   3.171
85042W        W57467   0.378   4.401  11.046
85043W        W57468  23.127  39.053   2.382
85044W        W57469   2.811  31.541  11.530
85045W        W57470  34.369  19.776  11.495
85046W        W57471  22.193  40.399   2.230
85047W        W57472  39.872  42.318   3.841
85048W        W57473  40.894  32.420  13.328
85049W        W57474  40.412  28.053  11.379
85050W        W57475   2.340  43.795   4.798
85051W        W57476   2.763  22.704   2.225
85052W        W57477  14.594  28.016  11.480
85053W        W57478  34.031  23.164  13.475
85054W        W57479  11.794  38.032  13.330
85055W        W57480  39.322  15.734  13.992
85056W        W57481  43.863  17.584  13.476
85057W        W57482  39.029  37.917  10.473
85058W        W57483  31.417  31.617  14.394
85059W        W57484  40.962  44.936  13.053
85060W        W57485  39.360  41.470   4.281
85061W        W57486  41.893  21.056   5.184
85062W        W57487  21.600   7.731   0.402
85063W        W57488   8.175  27.612  12.955
85064W        W57489  44.472   2.292  11.073
85065W        W57490   5.240  11.703   1.931
85066W        W57491  43.931  35.447   1.283
85067W        W57492   4.801  36.446  14.795
85068W        W57493  38.379  27.672   3.220
85069W        W57494   8.745  38.442   0.849
85070W        W57495  26.029  39.814  12.035
85071W        W57496  39.548   8.282  12.518
85072W        W57497  32.042  40.823   4.326
85073W        W57498  18.651   5.707   1.420
85074W        W57499  34.562  30.087  12.410
85075W        W57500  25.629  36.885   0.932
85076W        W57501   6.818   8.216  12.833
85077W        W57502   9.189  26.052   4.689
85078W        W57503  41.294  21.588   5.084
85079W        W57504  11.147  25.976   2.748
85080W        W57505   0.788  29.628  11.995
85081W        W57506  30.559  37.437   0.825
85082W        W57507   3.431  44.819  10.489
85083W        W57508   9.711  19.148   1.216
85084W        W57509  26.589  30.002   0.317
85085W        W57510  29.470   6.325   3.686
85086W        W57511  31.606  29.457   2.398
85087W        W57512  44.329   8.758  13.884
85088W        W57513  20.708  18.242  11.422
85089W        W57514  29.943  32.018  15.000
85090W        W57515  26.559  41.954   1.901
85091W        W57516  17.070  44.409   3.304
85092W        W57517  42.840  25.674  10.420
85093W        W57518  30.481   4.768  14.469
85094W        W57519   0.408  33.002  11.913
85095W        W57520  33.910  35.980  11.054
85096W        W57521  25.050   8.756  12.460
85097W        W57522  41.822  12.172   2.843
85098W        W57523  14.255  39.472   4.136
85099W        W57524  31.125  35.101  12.568
85100W        W57525  35.402  27.544   0.885
85101W        W57526  10.827  10.364  14.941
85102W        W57527  27.588  31.575   4.245
85103W        W57528  22.188  43.452  13.422
85104W        W57529  20.595  18.687  13.881
85105W        W57530  15.589  27.133   2.332
85106W        W57531   9.725  14.304   1.270
85107W        W57532  14.103   2.960  11.983
85108W        W57533   5.718  22.515   2.887
85109W        W57534   0.880  26.597  10.967
85110W        W57535  41.941  41.798  12.967
85111W        W57536  18.569  13.845   3.721
85112W        W57537   6.289  14.287   2.312
85113W        W57538  33.582  38.968  11.608
85114W        W57539  36.859  15.164   1.301
85115W        W57540  14.588  20.145  14.899
85116W        W57541  32.948   4.706  12.021
85117W        W57542  30.562  20.068   2.776
85118W        W57543  27.097  22.173   0.290
85119W        W57544  19.072   8.344   3.637
85120W        W57545  30.549  11.783  11.893
85121W        W57546  21.181   7.208   2.854
85122W        W57547  21.052  43.456   0.247
85123W        W57548  25.660   1.937   5.301
85124W        W57549   8.663  10.767  11.969
85125W        W57550  14.628   2.855   1.219
85126W        W57551   4.286  26.012  11.880
85127W        W57552  39.846  39.386  13.514
85128W        W57553  15.241   9.879  13.510
85129W        W57554  25.075  13.796  11.541
85130W        W57555  24.029   1.877   1.880
85131W        W57556   2.957  38.411   2.417
85132W        W57557   0.480   2.261  14.425
85133W        W57558  38.359  11.206  12.020
85134W        W57559  29.994  19.115  12.008
85135W        W57560  12.673   0.957  12.490
85136W        W57561  32.071  40.926  11.923
85137W        W57562   7.870  12.295   0.423
85138W        W57563  15.158  13.844   3.656
85139W        W57564  24.693  20.523  12.060
85140W        W57565   7.825  14.812  12.491
85141W        W57566  16.730   3.838  14.381
85142W        W57567   6.262  31.945   3.194
85143W        W57568  31.135  36.918   0.319
85144W        W57569  20.181  39.552   1.368
85145W        W57570  30.997  10.753  11.127
85146W        W57571  32.578  19.654   1.450
85147W        W57572  40.508  35.064  13.421
85148W        W57573  37.425  35.084   4.675
85149W        W57574  17.201  19.077   2.834
85150W        W57575  16.292   4.274   4.704
85151W        W57576  20.547   3.245   2.847
85152W        W57577  41.516   9.165   3.856
85153W        W57578  30.943   2.340  10.579
85154W        W57579   1.279   3.907  12.388
85155W        W57580  29.601  20.257   4.775
85156W        W57581   3.733  13.836   0.963
85157W        W57582  16.246  30.634   1.373
85158W        W57583   0.266  30.948  13.862
85159W        W57584  31.961  33.114   1.806
85160W        W57585   9.234  20.681   1.851
85161W        W57586  38.326  41.331  13.458
85162W        W57587  20.529  44.773   1.249
85163W        W57588  23.017  41.512  11.925
85164W        W57589   8.749  27.533  14.340
85165W        W57590  14.288  33.603  11.453
85166W        W57591  34.068   5.213   0.382
85167W        W57592  22.711  38.028   4.298
85168W        W57593  21.684  25.177   4.188
85169W        W57594  22.017  36.921  10.909
85170W        W57595   0.941  25.002   1.802
85171W        W57596  30.495  18.223   2.816
85172W        W57597  21.196   0.463   1.426
85173W        W57598  42.958  42.925   2.749
85174W        W57599   1.330  27.192  14.311
85175W        W57600  39.413  30.990   1.837
85176W        W57601  33.929  42.426  13.310
85177W        W57602  44.775  13.180   2.666
85178W        W57603  33.033  10.634  10.568
85179W        W57604  12.137  36.920  12.981
85180W        W57605  36.988   5.747   0.366
85181W        W57606  19.697  37.912   0.836
85182W        W57607  19.569  21.024  12.434
85183W        W57608  12.744  34.941  13.029
85184W        W57609  18.711  40.001  12.539
85185W        W57610  30.042  24.722   0.952
85186W        W57611  43.802   8.281   0.471
85187W        W57612   7.219  12.770   4.182
85188W        W57613  39.454  25.977   4.212
85189W        W57614  22.609   9.734   5.658
85190W        W57615  17.688  31.979   1.343
85191W        W57616  32.511  20.233   3.763
85192W        W57617  36.998  33.931  12.932
85193W        W57618  14.700  10.726   0.444
85194W        W57619  19.669   5.775   4.310
85195W        W57620  29.665  15.300  12.456
85196W        W57621  13.211   7.862  12.075
85197W        W57622  14.664   8.749   3.695
85198W        W57623  26.683  40.541   3.266
85199W        W57624  22.667  12.190   0.794
85200W        W57625  24.019  41.341  14.334
85201W        W57626  21.253   5.344   1.217
85202W        W57627  11.819  41.442  12.005
85203W        W57628  35.856  26.643   4.124
85204W        W57629  15.587  38.966  14.509
85205W        W57630  36.085  41.403  11.559
85206W        W57631  19.251  39.927   3.288
85207W        W57632  28.071   7.799   3.272
85208W        W57633   5.398  41.528  13.825
85209W        W57634  32.541   5.745  14.857
85210W        W57635  25.126   4.893   4.705
85211W        W57636   2.411  12.622  11.522
85212W        W57637  21.609  11.272  11.543
85213W        W57638  24.155  27.140   2.380
85214W        W57639  36.544  44.887  13.933
85215W        W57640  10.276   6.329   2.315
85216W        W57641  33.398   5.772   2.267
85217W        W57642  42.947  32.071  10.159
85218W        W57643  23.557  36.032  13.516
85219W        W57644  40.812  23.127   1.822
85220W        W57645   0.474  44.413   9.959
85221W        W57646  14.699  15.768  12.941
85222W        W57647  19.183  30.025   2.177
85223W        W57648  36.474  42.423   1.712
85224W        W57649  13.829  34.044   3.774
85225W        W57650  14.594   9.244  14.488
85226W        W57651  40.873  21.689   9.477
85227W        W57652  41.303   6.235  12.841
85228W        W57653  13.674  41.336  14.960
85229W        W57654  36.972  32.896  11.423
85230W        W57655   8.718   3.324   3.201
85231W        W57656  36.585  35.544  11.433
85232W        W57657  27.570  12.229  13.484
85233W        W57658   0.867  26.684   4.809
85234W        W57659   0.773  23.653   3.258
85235W        W57660  15.775  22.023  14.428
85236W        W57661  44.886  37.575  10.924
85237W        W57662  15.231  22.066   4.131
85238W        W57663  20.763  22.032  11.569
85239W        W57664   2.775  39.053   1.221
85240W        W57665  35.106   0.941   3.376
85241W        W57666  14.798  43.950  14.955
85242W        W57667  26.680   3.751  14.864
85243W        W57668  20.578   2.940  14.420
85244W        W57669  41.930  20.093   1.219
85245W        W57670   1.438  43.342   4.754
85246W        W57671  25.103  25.700  13.520
85247W        W57672  41.024  34.583   2.412
85248W        W57673  30.043  44.338  12.544
85249W        W57674   6.236  11.289  14.861
85250W        W57675   9.270  41.814  14.397
85251W        W57676  16.802  24.165   0.879
85252W        W57677   0.276  17.599  12.020
85253W        W57678  33.890  32.096   3.337
85254W        W57679  29.140  38.360   2.185
85255W        W57680  40.842  11.196  12.874
85256W        W57681  37.417  19.094  14.379
85257W        W57682  16.646  41.034   0.940
85258W        W57683  12.621  22.179   3.341
85259W        W57684   2.805  42.942   3.223
85260W        W57685  32.005  32.555   1.354
85261W        W57686  19.778   2.797  12.361
85262W        W57687  41.891  28.001  12.870
85263W        W57688   5.794  36.911  10.527
85264W        W57689   9.159   5.287  13.044
85265W        W57690  22.734   4.803   1.370
85266W        W57691  20.175  33.997  13.414
85267W        W57692  17.770   8.747  11.415
85268W        W57693  20.540  13.766   1.243
85269W        W57694  15.180   9.365   0.952
85270W        W57695   8.183  36.970  10.618
85271W        W57696   5.304  44.365  14.851
85272W        W57697  31.018  37.012  14.386
85273W        W57698   7.763  25.556   1.812
85274W        W57699  28.439  33.625   1.745
85275W        W57700  29.519  10.225  11.028
85276W        W57701  24.612  30.635  11.096
85277W        W57702  37.373   9.219   5.586
85278W        W57703   3.369  22.627   4.713
85279W        W57704  33.094  34.877  14.505
85280W        W57705   1.429  44.325   2.756
85281W        W57706  13.291  42.359   4.711
85282W        W57707   3.420  19.092  10.996
85283W        W57708  16.128  16.598   2.676
85284W        W57709  12.206   1.890   9.454
85285W        W57710  15.176  18.246  11.039
85286W        W57711  17.166  20.711   0.459
85287W        W57712  41.853  28.606   0.307
85288W        W57713  20.689  13.679   0.440
85289W        W57714   2.297  21.257  14.966
85290W        W57715   7.908  39.830   4.758
85291W        W57716   6.916  24.119   4.742
85292W        W57717   6.710  43.497  13.878
85293W        W57718  34.368  13.162  11.515
85294W        W57719  21.223  11.731   5.189
85295W        W57720  13.686  42.796   1.762
85296W        W57721  32.601   6.864   4.142
85297W        W57722  10.188  35.511   2.317
85298W        W57723  10.155  20.620   2.770
85299W        W57724  38.349  41.482  13.011
85300W        W57725  42.787  38.061  14.996
85301W        W57726  22.067  33.532   0.845
85302W        W57727   8.867  26.186  13.313
85303W        W57728  17.686  22.535  13.795
85304W        W57729  39.956  40.880  13.444
85305W        W57730   5.375  27.185  14.764
85306W        W57731  44.474  19.165   2.701
85307W        W57732   4.343  18.616  11.603
85308W        W57733  20.249  39.464  12.417
85309W        W57734  26.970  42.306  13.860
85310W        W57735   8.664   0.746  11.996
85311W        W57736  40.924  11.367   2.270
85312W        W57737   3.888  17.721  11.106
85313W        W57738   5.891  38.847   0.377
85314W        W57739  42.797  43.882   2.413
85315W        W57740  31.480  16.218  12.008
85316W        W57741  43.412  29.105   5.307
85317W        W57742   6.184  33.106  11.512
85318W        W57743  36.914  13.218   2.809
85319W        W57744  33.909  19.156  11.974
85320W        W57745  11.278  10.343  12.849
85321W        W57746  28.105  43.276  10.520
85322W        W57747  43.457  40.414  14.894
85323W        W57748  37.889   1.284   0.868
85324W        W57749  23.552   0.782  14.826
85325W        W57750  40.322  12.289   0.874
85326W        W57751  21.100  18.776   3.822
85327W        W57752  14.639  18.579   2.412
85328W        W57753  17.780  37.924   2.411
85329W        W57754  44.759  42.889   4.284
85330W        W57755  39.895  36.861  14.968
85331W        W57756  43.885  30.621   5.301
85332W        W57757   2.967   4.228   3.372
85333W        W57758   1.905  22.572   4.702
85334W        W57759   2.363  37.052  11.384
85335W        W57760  25.149  35.485  13.490
85336W        W57761   1.272   4.423  12.982
85337W        W57762   3.325  12.252   2.328
85338W        W57763  25.123  24.655   0.303
85339W        W57764   9.378   0.891   4.660
85340W        W57765  44.826  24.010  13.444
85341W        W57766  42.948  28.646  13.321
85342W        W57767  27.113  35.585  12.480
85343W        W57768   2.425  10.202   3.661
85344W        W57769  36.884   9.336  10.404
85345W        W57770  29.542  28.576   3.247
85346W        W57771   4.391  22.692   2.760
85347W        W57772  22.574  42.025  12.964
85348W        W57773   0.262  29.625   2.890
85349W        W57774  12.737   2.870  12.999
85350W        W57775  12.803  20.243   3.668
85351W        W57776  36.539  29.047   9.963
85352W        W57777  31.994  16.153   0.370
85353W        W57778   7.820   5.383   2.394
85354W        W57779   6.809  11.859   1.891
85355W        W57780  35.467  18.573  13.527
85356W        W57781  42.892   8.206  10.593
85357W        W57782  11.183  15.175  12.056
85358W        W57783  24.013  24.017  13.978
85359W        W57784  25.141  32.488   5.247
85360W        W57785  29.492  15.193  11.450
85361W        W57786   4.739  27.565   3.723
85362W        W57787  10.321  30.510  12.840
85363W        W57788   5.403  28.026   2.759
85364W        W57789   5.854  18.786  12.420
85365W        W57790  43.789   0.414  14.944
85366W        W57791  39.919  32.433  14.345
85367W        W57792   4.827  12.614   3.807
85368W        W57793  16.710  10.730   2.319
85369W        W57794  21.565   8.853  10.546
85370W        W57795  32.460  11.207   2.695
85371W        W57796  14.685  16.182  14.425
85372W        W57797  27.011  37.833  13.048
85373W        W57798   1.929  12.314  14.794
85374W        W57799  36.403  33.986   2.371
85375W        W57800   4.873   4.336  13.507
85376W        W57801  25.502  19.775  11.123
85377W        W57802  38.547  21.570  11.945
85378W        W57803  37.025  23.014   4.142
85379W        W57804  26.176   4.380  13.925
85380W        W57805  40.943   0.827   2.775
85381W        W57806  27.092  40.409  12.894
85382W        W57807  34.430  30.078  10.937
85383W        W57808  31.127  36.900  11.393
85384W        W57809  12.185  10.632  10.954
85385W        W57810   7.241  31.062  11.924
85386W        W57811  36.066  42.470  11.393
85387W        W57812   4.816   8.231  10.888
85388W        W57813  41.931  26.992  13.927
85389W        W57814  36.504  17.630   1.934
85390W        W57815   4.860  16.313  11.874
85391W        W57816  30.467  22.188   3.869
85392W        W57817  11.814  40.021   4.132
85393W        W57818  34.518  17.759  14.785
85394W        W57819  34.871  38.466  13.431
85395W        W57820  37.342   4.832   1.249
85396W        W57821  21.683  20.526  14.928
85397W        W57822  10.250  40.386  12.010
85398W        W57823   5.822  22.515   0.775
85399W        W57824  11.163  15.276  13.037
85400W        W57825   4.270   4.769   3.352
85401W        W57826  39.501   2.461   1.899
85402W        W57827  36.506  43.915  12.443
85403W        W57828  42.924  21.091   3.305
85404W        W57829  13.845  17.265  13.814
85405W        W57830  13.700  26.578   2.254
85406W        W57831  14.589  16.738   1.244
85407W        W57832  36.568  11.717   5.238
85408W        W57833   6.266  43.450  14.948
85409W        W57834   6.366  27.969  11.065
85410W        W57835  19.767   8.737   0.461
85411W        W57836  42.913   3.247   4.281
85412W        W57837   3.767   9.698  11.457
85413W        W57838  23.029  25.061   2.189
85414W        W57839   8.686  15.823   3.168
85415W        W57840  29.530  30.990   4.626
85416W        W57841   2.373   9.701   4.191
85417W        W57842   4.334  36.486  14.022
85418W        W57843  35.598  24.572   3.654
85419W        W57844  12.158  37.346   2.858
85420W        W57845  10.661  25.529  14.375
85421W        W57846  15.292  21.629  12.985
85422W        W57847  42.783  31.939   3.693
85423W        W57848  26.649  12.848  13.026
85424W        W57849  35.598  12.636  14.403
85425W        W57850  24.113  37.451  11.392
85426W        W57851  33.113  20.760   4.695
85427W        W57852  27.451  34.567   0.878
85428W        W57853  20.635  27.491   0.312
85429W        W57854  29.463  21.522   9.539
85430W        W57855  26.145   8.251  10.629
85431W        W57856  12.283  15.221   4.337
85432W        W57857  14.757   2.728   5.233
85433W        W57858   7.326  12.325   0.442
85434W        W57859  44.876  31.961  13.446
85435W        W57860  29.548   8.655   0.289
85436W        W57861   3.351  33.107  10.627
85437W        W57862  10.723  35.568  12.091
85438W        W57863  27.478   8.699  12.019
85439W        W57864  26.674   6.243  14.015
85440W        W57865  44.758  43.865  14.825
85441W        W57866   1.736  26.160   3.742
85442W        W57867  39.422  18.253   1.837
85443W        W57868   8.763  38.457  11.882
85444W        W57869   7.730   4.888   2.726
85445W        W57870  20.192  21.538   2.211
85446W        W57871   1.880  25.020  13.389
85447W        W57872  15.266   3.308  11.960
85448W        W57873  40.511  43.771   1.806
85449W        W57874   4.776  35.492  13.803
85450W        W57875   1.748   2.922  11.605
85451W        W57876  36.476  44.505  10.911
85452W        W57877   8.236  42.804   1.916
85453W        W57878   3.949  34.931   2.741
85454W        W57879  16.679  34.955  14.462
85455W        W57880  29.106   9.290  11.468
85456W        W57881  19.697   3.714   4.730
85457W        W57882  29.477   0.959  10.906
85458W        W57883  40.912  37.838   1.805
85459W        W57884   2.747  16.246   3.233
85460W        W57885   0.752  40.538   1.825
85461W        W57886  20.081  36.957  13.986
85462W        W57887  39.554  42.472   3.364
85463W        W57888   8.687   6.379  14.985
85464W        W57889  33.884  15.659  12.019
85465W        W57890  44.405  11.849   0.459
85466W        W57891  23.036  21.617  12.006
85467W        W57892  19.265   3.945  10.944
85468W        W57893   7.791  36.393   1.777
85469W        W57894  38.324  33.487  10.955
85470W        W57895  12.650  23.593  13.366
85471W        W57896  22.117  30.080  14.763
85472W        W57897   3.916  13.718   3.668
85473W        W57898  30.966  33.623  10.075
85474W        W57899  37.512  22.677   4.678
85475W        W57900  39.468   9.261   1.399
85476W        W57901  10.320  43.883  10.119
85477W        W57902  15.247  16.758  10.982
85478W        W57903  21.017  34.941   5.177
85479W        W57904  35.546   8.355   1.735
85480W        W57905   0.882   9.231   3.694
85481W        W57906  31.974  23.197  10.531
85482W        W57907  41.481  27.051   3.184
85483W        W57908  18.768  33.056  14.351
85484W        W57909  38.483  22.501  14.782
85485W        W57910  33.621  27.599   4.200
85486W        W57911  33.422  19.557  14.365
85487W        W57912   3.461   0.960  13.507
85488W        W57913   3.384   0.322   0.323
85489W        W57914  15.667  40.520  12.884
85490W        W57915   2.317   6.240   4.151
85491W        W57916  22.064  30.421  11.066
85492W        W57917  11.214  16.576  11.397
85493W        W57918  25.042  33.068  14.000
85494W        W57919   0.306   3.947   2.696
85495W        W57920  12.337  24.181   4.135
85496W        W57921  14.228  36.851  14.988
85497W        W57922  44.480   6.261  12.082
85498W        W57923  34.938  31.963  14.920
85499W        W57924  25.986   1.910   1.730
85500W        W57925  38.500  22.694   2.220
85501W        W57926  16.219  20.541  13.908
85502W        W57927  22.182  32.614   0.433
85503W        W57928   4.864   5.417   2.892
85504W        W57929  18.113   6.700  10.999
85505W        W57930  25.123  10.233  11.512
85506W        W57931  40.889  25.699   2.309
85507W        W57932  43.282  41.351   1.934
85508W        W57933  31.586  35.492  11.555
85509W        W57934  35.040  41.506   1.417
85510W        W57935  38.945   3.266  11.042
85511W        W57936  25.097  36.870   1.243
85512W        W57937  27.454   1.242   1.251
85513W        W57938  44.501  34.558  11.973
85514W        W57939  11.346  12.722  13.904
85515W        W57940  20.578  41.028  11.955
85516W        W57941   7.835   0.473   0.329
85517W        W57942  34.874  12.833  11.872
85518W        W57943  41.915  31.495  12.365
85519W        W57944   1.790  17.138  14.957
85520W        W57945  43.346  12.217  11.002
85521W        W57946  44.865  28.669   2.827
85522W        W57947  13.805  11.668   3.788
85523W        W57948   6.749  33.009   3.750
85524W        W57949  18.183   1.394  10.979
85525W        W57950  18.737  22.514  12.494
85526W        W57951  17.778  22.625  14.913
85527W        W57952  21.154  22.999  13.490
85528W        W57953  11.677  38.324   3.774
85529W        W57954  18.583  12.275  11.098
85530W        W57955  22.239  20.746   2.291
85531W        W57956   7.879  32.600   1.429
85532W        W57957  19.706   9.326  13.953
85533W        W57958  39.434  37.370   4.738
85534W        W57959   3.935  31.128  14.472
85535W        W57960  11.224  17.712  12.472
85536W        W57961  19.749  42.920   2.351
85537W        W57962  15.624  43.892  12.091
85538W        W57963  40.343  30.551  14.412
85539W        W57964   0.481   0.490  12.052
85540W        W57965  37.962  20.740   2.852
85541W        W57966  33.950   8.380   4.342
85542W        W57967  36.569  36.525  13.988
85543W        W57968  23.090  37.878   2.670
85544W        W57969   5.853  28.941   2.726
85545W        W57970   5.267  37.929   0.955
85546W        W57971  44.503  10.640   3.751
85547W        W57972  42.441  31.536  11.945
85548W        W57973  13.649  20.228  13.063
85549W        W57974   5.730  39.951  11.107
85550W        W57975   4.729  11.754   0.828
85551W        W57976   0.438  44.300   4.240
85552W        W57977  25.553   9.351  13.963
85553W        W57978   7.910  12.144  14.901
85554W        W57979  17.680  42.808   0.328
85555W        W57980  28.075  34.890   4.671
85556W        W57981  39.381  23.549  11.967
85557W        W57982  18.222  40.355   1.423
85558W        W57983  26.683  16.672  13.031
85559W        W57984  22.212  17.733  13.027
85560W        W57985   7.732   9.708  12.052
85561W        W57986  26.139  35.430   0.380
85562W        W57987  13.714  11.715  13.407
85563W        W57988   1.939  41.418   2.282
85564W        W57989  24.993  24.001  12.093
85565W        W57990  39.966  21.132  10.050
85566W        W57991  14.591  12.275   3.805
85567W        W57992   7.702   0.415  14.015
85568W        W57993   1.447  26.491  12.866
85569W        W57994  41.425   2.819  10.981
85570W        W57995  18.214  35.453   3.233
85571W        W57996  35.100   9.315  14.410
85572W        W57997  24.167  30.117   9.437
85573W        W57998  25.468  17.664   2.407
85574W        W57999  21.245  17.607  13.351
85575W        W58000  32.409  40.990   2.415
85576W        W58001  28.484   0.316   3.311
85577W        W58002  43.502  21.626  13.324
85578W        W58003  32.005  32.611   3.329
85579W        W58004  43.993  35.521   3.321
85580W        W58005   2.263  22.196  14.374
85581W        W58006  14.727   5.398  10.590
85582W        W58007  35.949  37.527  13.006
85583W        W58008  32.076  18.780  14.318
85584W        W58009  32.418   9.303   4.240
85585W        W58010  20.751  18.170  11.061
85586W        W58011   3.418   4.352   4.191
85587W        W58012  14.693  10.743   3.323
85588W        W58013  16.786  26.186  13.056
85589W        W58014  41.898  21.200  13.962
85590W        W58015  31.043  13.318   3.290
85591W        W58016  30.916  24.670  12.907
85592W        W58017  39.525  39.966  13.334
85593W        W58018  31.471  41.948   0.741
85594W        W58019  24.648  16.801   0.943
85595W        W58020  37.071   1.922   0.873
85596W        W58021  26.011  34.492  12.984
85597W        W58022  35.473  29.634   4.663
85598W        W58023  10.858  38.989   0.354
85599W        W58024  38.515  43.836   2.207
85600W        W58025  11.705  37.849  13.995
85601W        W58026  39.438  33.626   0.386
85602W        W58027  17.585  17.065   1.341
85603W        W58028  36.504  44.979   4.645
85604W        W58029  31.432   3.901   3.763
85605W        W58030  29.122   2.250   3.851
85606W        W58031   5.831   3.846  11.376
85607W        W58032  39.536   2.956   1.927
85608W        W58033  18.060   2.446   3.665
85609W        W58034   5.294  40.936   4.340
85610W        W58035  14.763  20.639   1.235
85611W        W58036   5.301  29.979   0.738
85612W        W58037  35.017  13.136  11.454
85613W        W58038   8.669  15.103  11.389
85614W        W58039   6.237   5.215  11.414
85615W        W58040  41.409  36.355   3.746
85616W        W58041   0.762  17.752  11.379
85617W        W58042  43.467  31.940   0.287
85618W        W58043   4.827   9.363  12.492
85619W        W58044  11.735  30.571  11.481
85620W        W58045  36.097  44.883   1.277
85621W        W58046  44.825   5.209  14.858
85622W        W58047  40.546   6.800   2.765
85623W        W58048   6.352  35.988   3.387
85624W        W58049  43.768  37.065  11.978
85625W        W58050  42.436  36.353   1.447
85626W        W58051  16.133  34.536  10.450
85627W        W58052  34.538   3.730   4.205
85628W        W58053  35.455  28.096   0.418
85629W        W58054  25.022  22.163  10.921
85630W        W58055   1.786  15.728  11.120
85631W        W58056  18.217  30.127  10.897
85632W        W58057  20.731  36.536   4.205
85633W        W58058  40.031  27.988   1.385
85634W        W58059  35.471  14.815   4.269
85635W        W58060  10.197   5.813  11.021
85636W        W58061  19.272  33.437   4.631
85637W        W58062   3.426  43.484   2.853
85638W        W58063  17.681  19.606  12.090
85639W        W58064   3.416  30.002  13.442
85640W        W58065  40.942  31.998   1.213
85641W        W58066   2.852  26.120   4.650
85642W        W58067  24.191  31.564   5.133
85643W        W58068  43.888  22.599  10.918
85644W        W58069   4.848  41.826   2.729
85645W        W58070  37.442  15.637   0.804
85646W        W58071  34.464  41.504  12.962
85647W        W58072  21.619  19.578   0.886
85648W        W58073  19.545  24.572   1.876
85649W        W58074  10.300  26.687  10.899
85650W        W58075  25.988  41.967   3.682
85651W        W58076  27.462   0.950  11.371
85652W        W58077  21.547  43.769  11.890
85653W        W58078  16.704  35.398  13.501
85654W        W58079  39.820  35.094   2.847
85655W        W58080  43.278  37.396   2.321
85656W        W58081  16.076  38.933  14.984
85657W        W58082  44.894  32.624   2.694
85658W        W58083  23.984   8.825  10.094
85659W        W58084  13.239  32.579  13.018
85660W        W58085   0.784   8.383   2.229
85661W        W58086  18.200   7.690  14.297
85662W        W58087   8.359  36.946  14.365
85663W        W58088  29.004  20.206  14.329
85664W        W58089  22.229   6.775  12.413
85665W        W58090  21.254   6.904   0.276
85666W        W58091  17.131  27.182  14.009
85667W        W58092  20.625  34.603  11.455
85668W        W58093  44.301   5.319   4.821
85669W        W58094  35.078  36.465   4.786
85670W        W58095  35.080   4.702  11.530
85671W        W58096   8.285  40.962   3.783
85672W        W58097  16.637  13.707   4.331
85673W        W58098  18.652  17.691   0.811
85674W        W58099  22.723   3.733  13.011
85675W        W58100  20.186  43.910  14.949
85676W        W58101   8.808   1.344  12.378
85677W        W58102   8.258  38.450   1.905
85678W        W58103  33.534  14.677   1.754
85679W        W58104  26.673  39.989  11.868
85680W        W58105  13.332  34.962  12.415
85681W        W58106   4.819  17.723  12.090
85682W        W58107  31.615   9.793   1.810
85683W        W58108  27.077  25.484  13.494
85684W        W58109  40.396   0.946  12.870
85685W        W58110  12.833   2.874   3.810
85686W        W58111   1.841   7.338  14.368
85687W        W58112  13.704  35.099   4.790
85688W        W58113  33.089  22.504  10.517
85689W        W58114  21.152  35.004  14.378
85690W        W58115  26.670  20.560   1.764
85691W        W58116  41.528  26.518   3.862
85692W        W58117  36.370   6.685   5.783
85693W        W58118  38.534  20.153   4.697
85694W        W58119   9.736   9.841   3.821
85695W        W58120  29.607  32.986  10.613
85696W        W58121  20.674  43.475  13.934
85697W        W58122  39.315  28.462   2.336
85698W        W58123  11.654  18.134   3.337
85699W        W58124  29.108  27.618   0.924
85700W        W58125  25.153   6.840  11.465
85701W        W58126  23.706  41.801  12.868
85702W        W58127  43.815  17.657   2.894
85703W        W58128  38.404  23.605  14.761
85704W        W58129  30.069  23.116   5.270
85705W        W58130  33.446  20.056   3.287
85706W        W58131  20.677  13.152   0.858
85707W        W58132   3.218  20.688  12.094
85708W        W58133  21.572   3.355  13.061
85709W        W58134  14.793  39.925  12.566
85710W        W58135  28.654  29.097  10.504
85711W        W58136  44.282  35.070  14.876
85712W        W58137  19.668   5.762   3.313
85713W        W58138  36.990  38.070  14.893
85714W        W58139  42.442  13.705   0.279
85715W        W58140   8.715   1.405   1.919
85716W        W58141  25.694  40.317  11.099
85717W        W58142   5.253  39.053  14.471
85718W        W58143   2.269   4.344  13.977
85719W        W58144  31.137  33.013   4.621
85720W        W58145  11.837  43.857  13.810
85721W        W58146  14.262  16.763  11.392
85722W        W58147  20.132  17.627   0.310
85723W        W58148  43.403  19.196  13.352
85724W        W58149  13.721  22.567   5.096
85725W        W58150  22.248  15.688  11.121
85726W        W58151   3.397  15.096   4.211
85727W        W58152  24.059  30.956   0.846
85728W        W58153  15.259  20.767   4.727
85729W        W58154  40.415  20.075   1.369
85730W        W58155  34.112  19.253   4.693
85731W        W58156  26.491  11.856  10.417
85732W        W58157   3.940  36.989  14.882
85733W        W58158  22.659  17.074  13.827
85734W        W58159  31.029   0.876  14.975
85735W        W58160  36.514  40.431  10.404
85736W        W58161  37.973  38.441  14.932
85737W        W58162  40.942   0.861  14.405
85738W        W58163  29.170  25.095   5.089
85739W        W58164  16.263  12.797   4.186
85740W        W58165  11.794  11.804  10.960
85741W        W58166  36.484  20.269   3.677
85742W        W58167  13.765  25.161  13.053
85743W        W58168  23.545  18.709   2.822
85744W        W58169  21.634   8.776  13.824
85745W        W58170   7.224  15.580   3.155
85746W        W58171  17.612  17.098   0.835
85747W        W58172  44.898   9.311   2.719
85748W        W58173   2.302  44.774   1.695
85749W        W58174  16.609   2.853   3.299
85750W        W58175  16.113  42.512   0.935
85751W        W58176  16.113   3.787  12.989
85752W        W58177   8.347  29.980  14.329
85753W        W58178  36.465  43.876   1.790
85754W        W58179  43.434  13.709  10.599
85755W        W58180  28.636  12.247   0.334
85756W        W58181  40.030  25.196  12.357
85757W        W58182  26.022  28.936  13.936
85758W        W58183  13.191   1.285  14.948
85759W        W58184  36.089  21.672   4.248
85760W        W58185  25.660  28.005   2.273
85761W        W58186  23.056  38.026  14.329
85762W        W58187   6.231   3.275   5.226
85763W        W58188  17.088  27.105  10.583
85764W        W58189  35.517  21.709  14.025
85765W        W58190   6.754  19.125   4.695
85766W        W58191  28.177   8.854  12.054
85767W        W58192  41.827  23.214   1.703
85768W        W58193  18.633   7.286  14.392
85769W        W58194   3.237   1.762   4.655
85770W        W58195  14.235   7.816   1.318
85771W        W58196  35.454  33.594   2.273
85772W        W58197   0.340  13.213  11.920
85773W        W58198  29.925  19.585   0.276
85774W        W58199  25.647   5.734  12.989
85775W        W58200  39.498  11.844  11.863
85776W        W58201  41.993  34.994  13.986
85777W        W58202   0.815   0.477  13.987
85778W        W58203  36.960  24.188   2.338
85779W        W58204  21.743  20.233  14.866
85780W        W58205  33.529  28.439  12.909
85781W        W58206  14.190  26.580  12.408
85782W        W58207  36.576  40.003   3.692
85783W        W58208  31.022  42.363   2.757
85784W        W58209  34.880   5.325   2.288
85785W        W58210  15.804  14.215   3.860
85786W        W58211  40.879  38.372   3.211
85787W        W58212  23.514  32.901  13.882
85788W        W58213   7.395  19.776   4.261
85789W        W58214  19.549   3.729  10.901
85790W        W58215  36.953   8.203   3.785
85791W        W58216  17.160  22.210   3.842
85792W        W58217  32.051  14.124   2.335
85793W        W58218  33.412   3.911   1.860
85794W        W58219  20.652  23.203  14.365
85795W        W58220  10.839  38.054  10.934
85796W        W58221  35.014  16.148   1.265
85797W        W58222  35.550  22.211  13.944
85798W        W58223  43.507  14.241   1.286
85799W        W58224  34.453  41.845  14.334
85800W        W58225  35.597   9.253   0.776
85801W        W58226  25.164  43.997   1.887
85802W        W58227  38.043  35.981  11.488
85803W        W58228  32.927  41.831   3.319
85804W        W58229  20.145  17.709   1.278
85805W        W58230  32.576  14.280  10.521
85806W        W58231   5.761   2.897   1.348
85807W        W58232   4.307  42.973  10.468
85808W        W58233  32.969  23.584  12.356
85809W        W58234   7.873  27.165   4.150
85810W        W58235  28.157  34.064   4.744
85811W        W58236  31.424  31.421   4.682
85812W        W58237  44.452   2.395  14.278
85813W        W58238  18.166  44.423  14.812
85814W        W58239   9.343   6.400   4.253
85815W        W58240  40.985  18.269  11.049
85816W        W58241  20.528  28.475  11.972
85817W        W58242  11.762  44.500   1.834
85818W        W58243  10.282  43.418   1.918
85819W        W58244  43.929  22.632  14.370
85820W        W58245  10.693  24.541   2.856
85821W        W58246  42.294  20.597  12.845
85822W        W58247  16.637  28.083  13.029
85823W        W58248   1.755  21.585   3.299
85824W        W58249  30.514   1.868   0.822
85825W        W58250   4.876  15.315   3.654
85826W        W58251  22.736  27.987   0.908
85827W        W58252  12.651  14.249  12.463
85828W        W58253  26.478  29.130   4.206
85829W        W58254  12.129  35.421   0.332
85830W        W58255  18.086  43.494  12.066
85831W        W58256   6.683   4.801   4.797
85832W        W58257  18.114  42.777   0.869
85833W        W58258  14.802  13.342   0.794
85834W        W58259  44.358  39.840   5.241
85835W        W58260   4.372  20.720  11.917
85836W        W58261   6.306  22.147  12.927
85837W        W58262   0.407  44.953   4.143
85838W        W58263  27.519  38.032   2.211
85839W        W58264  15.239  41.331  13.432
85840W        W58265  22.715  35.551  14.908
85841W        W58266  17.303  17.169  12.878
85842W        W58267  17.772  27.065   2.310
85843W        W58268  36.388  32.397   4.352
85844W        W58269  38.524  18.718  12.425
85845W        W58270  25.164  36.943   3.230
85846W        W58271  14.732  13.123   3.311
85847W        W58272  19.245  16.670   0.390
85848W        W58273  36.091   3.422   1.407
85849W        W58274  11.818  12.629   2.418
85850W        W58275  37.507  26.616  11.857
85851W        W58276  12.689   2.959   0.904
85852W        W58277  18.572  33.558   2.300
85853W        W58278  27.188  23.027  14.319
85854W        W58279   7.249  31.919  14.386
85855W        W58280   4.432   1.317   1.380
85856W        W58281   9.376  37.044  11.442
85857W        W58282  23.687  36.088  10.965
85858W        W58283  14.105   8.802  13.833
85859W        W58284   5.415  43.001   4.689
85860W        W58285  42.870  10.794   4.274
85861W        W58286  31.564  31.005  14.359
85862W        W58287   3.757  35.473  13.332
85863W        W58288   9.797   1.407   3.148
85864W        W58289  28.571  35.382   2.878
85865W        W58290  22.605  31.595  12.539
85866W        W58291  18.089  39.414   3.662
85867W        W58292  20.546  10.297  11.085
85868W        W58293  11.183   1.965   2.285
85869W        W58294  20.212  25.699  14.285
85870W        W58295  15.192  10.642   2.316
85871W        W58296  32.994  38.489  13.955
85872W        W58297  29.927  19.125   3.177
85873W        W58298  16.304  42.920  12.029
85874W        W58299  15.175   7.880  13.903
85875W        W58300  40.933  23.502   4.229
85876W        W58301  43.504  25.035   2.823
85877W        W58302  39.314  38.479   3.353
85878W        W58303  14.728  29.946  11.913
85879W        W58304   4.769  11.169   1.263
85880W        W58305  33.908  20.661  13.390
85881W        W58306   6.733  29.987   3.379
85882W        W58307  31.953  17.762  13.056
85883W        W58308   6.335  33.935   4.669
85884W        W58309  10.177   6.279   2.686
85885W        W58310   0.879   9.805  13.547
85886W        W58311  44.907   8.162   1.293
85887W        W58312  22.725  11.827  11.990
85888W        W58313  27.115  21.187  11.576
85889W        W58314  30.451  13.608   3.762
85890W        W58315  11.867  40.374  13.863
85891W        W58316  16.776  15.130  13.547
85892W        W58317  34.880  10.791   1.924
85893W        W58318  37.884  17.763  14.994
85894W        W58319  21.026  32.422  13.512
85895W        W58320  20.068  21.623   4.649
85896W        W58321  20.745   2.262  13.454
85897W        W58322  16.301  26.466   4.244
85898W        W58323  20.610  42.318  10.995
85899W        W58324  21.110  33.013  10.095
85900W        W58325  11.274  35.578  14.007
85901W        W58326   2.931  35.068   2.258
85902W        W58327  31.063  41.973  14.912
85903W        W58328  29.524  30.586   3.266
85904W        W58329  21.194  42.891   2.236
85905W        W58330   8.764  14.275  11.923
85906W        W58331  18.197   3.260   2.686
85907W        W58332  16.763  40.395   0.472
85908W        W58333  40.406  30.100   0.465
85909W        W58334  23.688  31.080   4.201
85910W        W58335  21.072  21.127   1.323
85911W        W58336  16.165  16.109  12.361
85912W        W58337  15.212  43.425   2.825
85913W        W58338  30.469  21.107   4.826
85914W        W58339  19.692   9.858  12.064
85915W        W58340  11.240  18.200  11.907
85916W        W58341  25.527  44.438   4.604
85917W        W58342  40.937  32.080   2.331
85918W        W58343   8.743  23.506  14.409
85919W        W58344   5.400  22.511   3.678
85920W        W58345  12.812  39.017  14.491
85921W        W58346  38.013  38.512   1.829
85922W        W58347  41.377  12.130  14.975
85923W        W58348  29.484  12.182   3.783
85924W        W58349  15.166  16.197   1.880
85925W        W58350  20.692  22.727  11.906
85926W        W58351  35.987   3.399   4.629
85927W        W58352  13.253   8.327   3.829
85928W        W58353   4.829  35.489   5.084
85929W        W58354  31.018   4.867   3.181
85930W        W58355  37.044  31.925   1.739
85931W        W58356  11.832  15.291   4.709
85932W        W58357   9.387  36.004  11.513
85933W        W58358   1.393  17.212   0.953
85934W        W58359  36.967  20.166   2.285
85935W        W58360  34.494  28.074   4.318
85936W        W58361  21.121  22.626  13.816
85937W        W58362   0.848   8.830  11.499
85938W        W58363  37.575  24.496   1.397
85939W        W58364  13.322  34.454   0.890
85940W        W58365  25.604  19.231   2.719
85941W        W58366  35.001  35.412   4.650
85942W        W58367  29.918  38.520   9.450
85943W        W58368  39.555  14.765   4.223
85944W        W58369  17.636  30.912  11.064
85945W        W58370  40.321  10.781  10.571
85946W        W58371  37.929  27.495   4.618
85947W        W58372   3.283  38.028   4.708
85948W        W58373   8.166  43.360   1.361
85949W        W58374  18.642  38.068   3.331
85950W        W58375  17.631   5.375   3.290
85951W        W58376  38.876   1.363   3.150
85952W        W58377  32.107  38.946   2.395
85953W        W58378  26.171  41.407   1.912
85954W        W58379  35.953  38.877  13.030
85955W        W58380   5.380  38.478   3.281
85956W        W58381  33.433  35.014  13.907
85957W        W58382  36.360  21.174  10.908
85958W        W58383  25.639   8.677   5.147
85959W        W58384  34.551  13.216   3.229
85960W        W58385   5.351  17.692   0.281
85961W        W58386  21.225  23.506   4.626
85962W        W58387  40.328   3.253  13.480
85963W        W58388   0.789  21.119  13.816
85964W        W58389  22.023  31.101   2.898
85965W        W58390  36.433   5.369  12.519
85966W        W58391  35.470  44.828   1.828
85967W        W58392   2.730  25.495  13.808
85968W        W58393  36.012  40.007  11.587
85969W        W58394  20.626  41.905  14.984
85970W        W58395  35.590   6.770  10.410
85971W        W58396  11.676  42.828  12.352
85972W        W58397  26.597  21.106  13.545
85973W        W58398  31.050  27.665   2.235
85974W        W58399   4.267  32.580  10.557
85975W        W58400  15.797  19.197  11.515
85976W        W58401  37.964  11.656  12.028
85977W        W58402   4.790  22.503   2.866
85978W        W58403  11.864  12.636   5.305
85979W        W58404  13.815  38.954   2.248
85980W        W58405  15.672  30.492  13.840
85981W        W58406  32.543  18.253   1.819
85982W        W58407   3.760   0.878   2.374
85983W        W58408  25.635  23.017   4.820
85984W        W58409  34.106  32.426   4.281
85985W        W58410  22.567  10.165  10.953
85986W        W58411   8.846  21.689  12.896
85987W        W58412  35.896  13.279  13.792
85988W        W58413  13.291  10.272   3.326
85989W        W58414   1.927  11.775  12.535
85990W        W58415  14.327   4.941   2.805
85991W        W58416  19.716  20.074  10.996
85992W        W58417  10.730  33.586  12.513
85993W        W58418  27.185  10.319  14.989
85994W        W58419  42.870  16.217   4.247
85995W        W58420  20.077  35.416  13.341
85996W        W58421  31.044  20.631  13.056
85997W        W58422  29.424   3.912  13.868
85998W        W58423  28.453  21.037  13.924
85999W        W58424   2.414  17.780   0.913
86000W        W58425  16.625  13.330  12.463
86001W        W58426  27.175  36.445   0.836
86002W        W58427  17.121   3.386   3.359
86003W        W58428  27.557  16.670   2.404
86004W        W58429  39.908   9.193  13.394
86005W        W58430  25.629  31.450   4.249
86006W        W58431   5.366  19.670   5.129
86007W        W58432   8.354  10.234  12.538
86008W        W58433  43.881  25.119   4.309
86009W        W58434  11.729  36.505  10.919
86010W        W58435  26.069   2.734   2.752
86011W        W58436  15.624   1.319   2.294
86012W        W58437  29.544   7.727  12.475
86013W        W58438  14.121  40.378  11.556
86014W        W58439  11.689  23.500   4.759
86015W        W58440  16.703   8.330   1.260
86016W        W58441  44.417  41.848   2.332
86017W        W58442  11.289  25.087  14.929
86018W        W58443   2.436   7.315   0.888
86019W        W58444  20.070  16.230   4.621
86020W        W58445   0.751  38.897  13.912
86021W        W58446  10.806   1.395  14.420
86022W        W58447  24.530  32.910  11.556
86023W        W58448   6.378  26.114  11.088
86024W        W58449  36.387  42.381   4.213
86025W        W58450  24.055  43.504  12.911
86026W        W58451  17.265   9.205   2.891
86027W        W58452  19.623  12.136   2.684
86028W        W58453  34.910  40.014  11.522
86029W        W58454  21.061  20.761  13.985
86030W        W58455  25.187  10.855  11.494
86031W        W58456   9.256   4.836   2.358
86032W        W58457  35.937  37.412  14.507
86033W        W58458  30.942  41.364  12.861
86034W        W58459  36.941  34.005  13.350
86035W        W58460  41.960  22.146   1.264
86036W        W58461  17.223   8.230   3.232
86037W        W58462  11.844  12.634  10.988
86038W        W58463   3.767   7.382   1.276
86039W        W58464  13.150  26.500   0.331
86040W        W58465  29.926  14.613  13.399
86041W        W58466   3.716  36.398   2.365
86042W        W58467  41.386  39.844  13.330
86043W        W58468  29.629  29.636  13.363
86044W        W58469   8.813  33.924  13.892
86045W        W58470   4.735  37.039  14.386
86046W        W58471  38.877  26.626  12.455
86047W        W58472  19.184   0.846   1.777
86048W        W58473  42.000  25.665   3.731
86049W        W58474   7.378   6.198   1.753
86050W        W58475  41.036   2.243   2.855
86051W        W58476   3.720   6.346  13.393
86052W        W58477   6.375  31.522   2.336
86053W        W58478  39.900  27.033  11.018
86054W        W58479  26.056  20.181  13.354
86055W        W58480   0.298   3.352  13.966
86056W        W58481  40.418  42.378   2.264
86057W        W58482  26.608  42.469   4.679
86058W        W58483  26.569  30.947   5.321
86059W        W58484  12.755  33.057  12.862
86060W        W58485  13.137  44.311  14.912
86061W        W58486  35.457  34.926   0.850
86062W        W58487  17.616  16.787  13.477
86063W        W58488  32.555  21.512   2.791
86064W        W58489  31.564   8.400  12.488
86065W        W58490  28.562   0.861  11.988
86066W        W58491  33.556  39.506   0.825
86067W        W58492  34.064   1.964   0.803
86068W        W58493   7.830  35.038  13.351
86069W        W58494   5.204  41.933   4.725
86070W        W58495  16.567   6.711  13.840
86071W        W58496   7.846  16.294  14.920
86072W        W58497  29.634  32.046   4.703
86073W        W58498  36.510  36.943  11.548
86074W        W58499   1.404   3.889  14.762
86075W        W58500  31.126  40.472   5.597
86076W        W58501  44.285   3.236   4.836
86077W        W58502   6.702  28.625  11.116
86078W        W58503   4.762  44.954   1.385
86079W        W58504  28.058  21.233  11.402
86080W        W58505   3.261  37.451   4.794
86081W        W58506  17.153  31.962   0.407
86082W        W58507   3.790  39.550   4.284
86083W        W58508  10.251  37.981   0.475
86084W        W58509  32.037  14.243  10.018
86085W        W58510  18.567  40.007   0.362
86086W        W58511  29.553  35.446  12.094
86087W        W58512   3.353  29.476   1.846
86088W        W58513  27.002  23.582   3.276
86089W        W58514  23.730  44.278   2.329
86090W        W58515  41.908  12.689  12.510
86091W        W58516   5.296   9.719   3.679
86092W        W58517  27.067  13.809  10.516
86093W        W58518  10.650  26.552  14.471
86094W        W58519  28.083  12.677   3.164
86095W        W58520  36.937   6.860  10.594
86096W        W58521  15.677   2.827   4.149
86097W        W58522  33.451   1.953  10.033
86098W        W58523  43.282  27.613  13.017
86099W        W58524  29.430  30.481   0.332
86100W        W58525  21.253  26.045   4.243
86101W        W58526  15.811  38.429  13.381
86102W        W58527  44.984   5.793   3.232
86103W        W58528  32.141  15.130  13.392
86104W        W58529   7.898  25.121   1.234
86105W        W58530  37.028   2.260   3.231
86106W        W58531  13.845  21.735   4.233
86107W        W58532  13.646   9.204   2.274
86108W        W58533   1.390  36.097  13.315
86109W        W58534  22.627   9.338  14.506
86110W        W58535  16.717  18.733   2.895
86111W        W58536   3.749  23.153   2.205
86112W        W58537  14.175   9.722   3.704
86113W        W58538  44.847  16.319  10.948
86114W        W58539  14.775  36.566   3.798
86115W        W58540  12.774   7.731   4.149
86116W        W58541  30.907  39.912  11.039
86117W        W58542   3.868  17.704   2.394
86118W        W58543  16.097   6.742   4.165
86119W        W58544  44.969  22.251  12.439
86120W        W58545  22.572  13.642   2.246
86121W        W58546   2.359  29.960   4.620
86122W        W58547   5.740  23.577  11.985
86123W        W58548  20.660  30.050   3.806
86124W        W58549  13.800  27.621  11.003
86125W        W58550   0.797  38.077   1.877
86126W        W58551  22.081  33.962   4.158
86127W        W58552   4.908  25.133   0.834
86128W        W58553  41.392  20.712   2.278
86129W        W58554  36.502  25.685  12.479
86130W        W58555  12.754  32.592   3.700
86131W        W58556  44.450  10.366   5.243
86132W        W58557  29.019  23.641   0.848
86133W        W58558   2.362   2.958   2.273
86134W        W58559  11.685   9.229  11.603
86135W        W58560  17.729  29.517   0.404
86136W        W58561  43.980  44.812   4.700
86137W        W58562  24.506  24.202  14.010
86138W        W58563   3.289   2.802  13.800
86139W        W58564   3.952  37.442   0.873
86140W        W58565  18.571   1.778  12.371
86141W        W58566  44.915  30.067   3.299
86142W        W58567   7.194  31.911   5.148
86143W        W58568  40.857  32.472   1.724
86144W        W58569  38.507   4.210  11.562
86145W        W58570  12.800  16.713  14.395
86146W        W58571  18.545  38.484   3.742
86147W        W58572  44.991  39.446   1.884
86148W        W58573  39.973  24.721  10.427
86149W        W58574  29.049  28.439  11.485
86150W        W58575   9.188  20.747   0.332
86151W        W58576  35.574  10.153   4.817
86152W        W58577  44.371   9.644   1.858
86153W        W58578  33.456  21.576   3.159
86154W        W58579   3.330  20.274  11.957
86155W        W58580   6.242  37.030  14.877
86156W        W58581   7.171  13.834  11.393
86157W        W58582  13.307  32.061   1.738
86158W        W58583  32.597  25.115  12.847
86159W        W58584  20.135   4.315   2.663
86160W        W58585  12.343  23.715  11.932
86161W        W58586  36.582  30.462  12.076
86162W        W58587  35.007  12.168   1.275
86163W        W58588  41.022  22.159  13.980
86164W        W58589  35.598  40.451  14.770
86165W        W58590  11.149  21.135   3.753
86166W        W58591  40.479  27.584   3.691
86167W        W58592  24.222  23.061   2.786
86168W        W58593   8.240  38.017   4.270
86169W        W58594  27.457  10.296  13.435
86170W        W58595  30.434  35.582  12.432
86171W        W58596  30.981  34.391  12.550
86172W        W58597  10.235  44.437  13.526
86173W        W58598  21.727  19.710   3.686
86174W        W58599  23.646  22.217   1.367
86175W        W58600  32.027  29.451   4.763
86176W        W58601   0.430  13.228   1.710
86177W        W58602  21.554  33.927  12.556
86178W        W58603  22.629   7.313  14.815
86179W        W58604  19.240  29.095  11.499
86180W        W58605  35.918  36.004   2.802
86181W        W58606  37.993  40.052   1.697
86182W        W58607   8.214  15.581  11.518
86183W        W58608  27.092  21.028  14.429
86184W        W58609  43.286  36.876   3.315
86185W        W58610  31.619  22.040   3.170
86186W        W58611  29.011  19.663   4.212
86187W        W58612  42.978   1.403   0.760
86188W        W58613   2.406  23.571   1.751
86189W        W58614   6.331  32.913   3.866
86190W        W58615  39.893  30.149   0.444
86191W        W58616  30.491  23.133  10.604
86192W        W58617  31.453   5.748  10.562
86193W        W58618  35.477  22.570   1.732
86194W        W58619  10.703   7.671  14.810
86195W        W58620  11.639   7.413   2.255
86196W        W58621  18.705  40.492   5.208
86197W        W58622   7.187  26.684  11.994
86198W        W58623  15.586  44.373  14.772
86199W        W58624  20.068  21.254  10.484
86200W        W58625  44.438  29.443  12.053
86201W        W58626  26.969  21.554  11.441
86202W        W58627  21.092  36.541   5.272
86203W        W58628  38.001   9.825  11.036
86204W        W58629  19.062  39.542   3.683
86205W        W58630  41.382  12.239  11.475
86206W        W58631  14.589  36.081  12.968
86207W        W58632  36.402  12.198   2.801
86208W        W58633  41.386  24.194   4.156
86209W        W58634  35.401  29.532  11.954
86210W        W58635  22.231  17.298  12.874
86211W        W58636   2.460  24.073   3.837
86212W        W58637   0.753  35.491  10.516
86213W        W58638   8.327  18.689   4.166
86214W        W58639  44.941  25.688  13.388
86215W        W58640   7.309  14.764  12.042
86216W        W58641  23.733  43.442  10.446
86217W        W58642  32.086   9.391   1.320
86218W        W58643  37.365   4.813  14.282
86219W        W58644   0.301   4.867  12.923
86220W        W58645  34.029  44.907   2.704
86221W        W58646  36.574  36.591  10.516
86222W        W58647  30.484  24.978   0.755
86223W        W58648  15.668  14.686  10.618
86224W        W58649  20.128   2.755   2.291
86225W        W58650  18.166  16.272   4.749
86226W        W58651  38.970  18.266  10.093
86227W        W58652  35.881  24.624   2.867
86228W        W58653  43.426   9.213  13.344
86229W        W58654  43.331  12.741  12.562
86230W        W58655  40.393   1.964  12.410
86231W        W58656  25.001  36.989  13.827
86232W        W58657   0.854  34.427   1.858
86233W        W58658  35.391  35.925   0.822
86234W        W58659  41.397  31.134  10.533
86235W        W58660  13.185   2.910  14.938
86236W        W58661  15.661   4.248   0.884
86237W        W58662   5.690  17.079   0.735
86238W        W58663  19.569  42.781   0.798
86239W        W58664  18.668  25.480   3.215
86240W        W58665  26.559   8.298   1.312
86241W        W58666  17.560  30.966  13.473
86242W        W58667  13.616  14.155   1.428
86243W        W58668   6.374  24.100   0.726
86244W        W58669  14.650  21.159   4.149
86245W        W58670  15.131  16.250   1.410
86246W        W58671  28.057   5.287   3.840
86247W        W58672  35.020  41.430  12.341
86248W        W58673  18.790  34.466   0.476
86249W        W58674  36.059  11.260   4.336
86250W        W58675  37.444  28.604  14.442
86251W        W58676  24.668   3.296  12.075
86252W        W58677  34.952   5.831  10.551
86253W        W58678  30.485   2.841   3.866
86254W        W58679  32.549  38.435  11.072
86255W        W58680  25.094  10.733   4.803
86256W        W58681  22.582  10.298   3.683
86257W        W58682  42.934  36.036  10.089
86258W        W58683  29.649  30.476  14.910
86259W        W58684  12.168  15.694   0.908
86260W        W58685  34.987  43.815  12.349
86261W        W58686  21.067  20.541   0.791
86262W        W58687   8.177  13.741  12.032
86263W        W58688  34.012  20.119   0.780
86264W        W58689  21.175  39.889  14.852
86265W        W58690  35.016  42.812   0.940
86266W        W58691  41.516   3.927   3.865
86267W        W58692  44.919   3.880  10.584
86268W        W58693  25.610  34.888  12.933
86269W        W58694  38.503   7.726   9.675
86270W        W58695  41.006   8.213  14.912
86271W        W58696   1.795  12.678   3.649
86272W        W58697  16.145  34.488  12.035
86273W        W58698  22.566  44.391   3.821
86274W        W58699  13.231   8.816  11.924
86275W        W58700   9.276  37.990  12.014
86276W        W58701  11.781  10.278   2.846
86277W        W58702   8.166  39.856   4.620
86278W        W58703  17.666   8.738   0.859
86279W        W58704  34.107   2.393  14.490
86280W        W58705  36.353  25.129   4.720
86281W        W58706  26.494   5.244   5.184
86282W        W58707  27.067  13.279   3.289
86283W        W58708  42.361  24.084   4.139
86284W        W58709   8.670  37.050   2.224
86285W        W58710  26.958  27.061   2.680
86286W        W58711   7.340   2.465  13.862
86287W        W58712   5.422   5.871  12.964
86288W        W58713  16.641  31.132   4.294
86289W        W58714  13.689  29.478  12.037
86290W        W58715  31.584  21.737   4.612
86291W        W58716  18.568  35.039  13.420
86292W        W58717  34.521  29.613   1.730
86293W        W58718  33.505  35.942   2.800
86294W        W58719  19.674  25.068   1.325
86295W        W58720  14.600  35.013  12.911
86296W        W58721   9.770  36.589  12.471
86297W        W58722  12.745  25.640   1.326
86298W        W58723  27.946  15.790  12.447
86299W        W58724  38.432  20.154  10.421
86300W        W58725   0.755  32.907   4.773
86301W        W58726  24.994  10.159  13.511
86302W        W58727   7.670  39.338  12.034
86303W        W58728  16.255   0.872  11.487
86304W        W58729  23.129  28.164  13.429
86305W        W58730  39.362  14.142   4.677
86306W        W58731  33.083  41.981   1.874
86307W        W58732  34.993  37.014   0.449
86308W        W58733  21.072   3.792   3.273
86309W        W58734   2.792   3.444   2.215
86310W        W58735  38.493   5.325  13.445
86311W        W58736  26.157  13.152   0.806
86312W        W58737  30.122   4.920  13.415
86313W        W58738  31.144  22.732   9.473
86314W        W58739  38.387   4.425   0.317
86315W        W58740  28.960  18.257  10.424
86316W        W58741  32.024  23.038  12.049
86317W        W58742  14.288   0.783  14.902
86318W        W58743  15.776  22.211  10.424
86319W        W58744   5.363  12.616   0.908
86320W        W58745  17.663  19.773   4.818
86321W        W58746  12.818  31.470   2.335
86322W        W58747  28.073   7.198   1.858
86323W        W58748  17.641  24.209   4.297
86324W        W58749   2.965  36.446  13.007
86325W        W58750  36.089  44.987  10.938
86326W        W58751  17.764  24.540   3.703
86327W        W58752  19.612  15.165   1.816
86328W        W58753  24.608   2.268  12.096
86329W        W58754  18.159  42.824  11.387
86330W        W58755   3.233  14.284   4.140
86331W        W58756  11.356  12.817  11.372
86332W        W58757   1.738  33.498   0.280
86333W        W58758  12.826  20.693   3.332
86334W        W58759  34.960  15.799   0.782
86335W        W58760  25.576   3.252  13.351
86336W        W58761  12.210  14.274  13.481
86337W        W58762  11.351  27.632  10.428
86338W        W58763  12.344   5.356  10.632
86339W        W58764  19.065  19.616  11.933
86340W        W58765  43.372  29.043   0.481
86341W        W58766   1.349   7.343  12.354
86342W        W58767  25.990   1.732  11.587
86343W        W58768  43.474  19.043   4.261
86344W        W58769  11.797  38.062   2.365
86345W        W58770  25.522  28.460  14.006
86346W        W58771  29.493  22.502   0.886
86347W        W58772  44.472  13.191   3.367
86348W        W58773   4.882  44.792   4.296
86349W        W58774  32.907  36.396  14.013
86350W        W58775   7.689  41.938   1.256
86351W        W58776  38.954   8.889  14.359
86352W        W58777  40.478  37.428  11.504
86353W        W58778  42.008  19.051   0.324
86354W        W58779   1.249  43.389   3.664
86355W        W58780  26.206   2.755   0.368
86356W        W58781   3.317  21.089   0.853
86357W        W58782  24.679  38.984  14.349
86358W        W58783   5.331  27.145  13.369
86359W        W58784   9.761  17.736   1.926
86360W        W58785  12.157  11.739  14.950
86361W        W58786  15.135  20.658   2.331
86362W        W58787  13.123  34.437  14.347
86363W        W58788  15.104  17.093   1.241
86364W        W58789   7.694   1.299  10.473
86365W        W58790  13.341   0.868  10.146
86366W        W58791  11.697  12.230  10.584
86367W        W58792  40.473  32.409   4.804
86368W        W58793  37.003  43.886   3.837
86369W        W58794  41.511   2.303   1.438
86370W        W58795  34.024  35.101   1.704
86371W        W58796  30.957   3.235   4.685
86372W        W58797  44.842  13.171  13.038
86373W        W58798   9.214  26.495  10.532
86374W        W58799  42.343  22.162   9.500
86375W        W58800   4.727   4.406   0.801
86376W        W58801  28.523  31.110   3.181
86377W        W58802  26.524  34.085  12.905
86378W        W58803  25.594   1.890   2.895
86379W        W58804  10.315   7.668   4.606
86380W        W58805  39.954  31.504   3.276
86381W        W58806  38.432   7.408   9.954
86382W        W58807  12.318  44.924  14.871
86383W        W58808  43.327   0.395  13.015
86384W        W58809  12.821  40.993   1.760
86385W        W58810  13.245  28.568   0.728
86386W        W58811  15.593  28.103  14.999
86387W        W58812  22.041   1.249  12.896
86388W        W58813  32.927  17.098   0.441
86389W        W58814  26.665  22.599   5.105
86390W        W58815  39.926   0.817  13.927
86391W        W58816  10.246  20.070  11.930
86392W        W58817   1.861   4.764   4.774
86393W        W58818   5.334   1.481  14.337
86394W        W58819  32.497   9.295  10.490
86395W        W58820  20.178  34.567   1.905
86396W        W58821   2.722   2.890  14.468
86397W        W58822  36.086  17.077   4.605
86398W        W58823  33.505  23.584  13.889
86399W        W58824   0.923  28.984   1.246
86400W        W58825   7.724  31.949   5.282
86401W        W58826  36.588  43.966  11.895
86402W        W58827  33.121  25.670   1.273
86403W        W58828  18.082  42.455   4.717
86404W        W58829  18.186  27.184  14.302
86405W        W58830  25.105  24.201  14.813
86406W        W58831  30.613   6.365  11.900
86407W        W58832  29.430  12.131  14.453
86408W        W58833  13.797  27.039  14.302
86409W        W58834  12.705   0.778   1.747
86410W        W58835  30.434  25.166   0.416
86411W        W58836  40.362  16.234   4.650
86412W        W58837  40.830  44.492  13.512
86413W        W58838  19.611  31.047   4.295
86414W        W58839  20.095   2.326   4.676
86415W        W58840  11.294   3.416   2.230
86416W        W58841  14.744   0.756   1.307
86417W        W58842  20.637   5.249   1.768
86418W        W58843  16.658   2.367  12.066
86419W        W58844  31.983  23.013  13.855
86420W        W58845  43.783  14.282   0.252
86421W        W58846  38.404   3.912   1.244
86422W        W58847  34.578  43.966  10.634
86423W        W58848  12.306  39.543  12.016
86424W        W58849   4.236  10.760   1.350
86425W        W58850  37.931  25.001   2.789
86426W        W58851   1.905  14.617   0.389
86427W        W58852  29.076  41.345  13.910
86428W        W58853  35.077  22.576   4.658
86429W        W58854   4.321  14.158  13.336
86430W        W58855  22.069   9.818   2.846
86431W        W58856  34.599  30.012   4.661
86432W        W58857   3.345  30.606  12.001
86433W        W58858  23.043  25.202   1.744
86434W        W58859  29.144  42.979   4.132
86435W        W58860  37.478   6.263   4.611
86436W        W58861  18.183  22.114   2.669
86437W        W58862  13.227  40.548  11.934
86438W        W58863   9.387   4.272   0.413
86439W        W58864   8.699  43.896   3.341
86440W        W58865   6.680  43.954   4.779
86441W        W58866  22.618  11.635  11.096
86442W        W58867  35.560  20.545   4.802
86443W        W58868  34.562   8.248   4.256
86444W        W58869   7.293  42.514   0.930
86445W        W58870  20.097  38.460  10.603
86446W        W58871  30.420  30.417   3.774
86447W        W58872   2.245  33.611   1.288
86448W        W58873   4.312  19.607  14.490
86449W        W58874  42.016   4.306  13.850
86450W        W58875  25.116   6.215   0.471
86451W        W58876  14.799   0.286   2.415
86452W        W58877  31.611  32.031   2.351
86453W        W58878  38.036  16.143  13.862
86454W        W58879  27.450  32.414   3.789
86455W        W58880   3.324  27.536   0.858
86456W        W58881   4.217  14.718   0.966
86457W        W58882  28.977  27.026  12.851
86458W        W58883  30.101  15.629   2.802
86459W        W58884  40.450  11.192   3.786
86460W        W58885  27.096  18.220   1.271
86461W        W58886  35.416  20.070  14.864
86462W        W58887  30.142   3.741  14.392
86463W        W58888  44.286  18.133  11.477
86464W        W58889  19.747  43.378   1.862
86465W        W58890  27.532  15.179  11.018
86466W        W58891  26.679  24.013   1.847
86467W        W58892  31.496  13.788  11.947
86468W        W58893  16.702  31.006  13.909
86469W        W58894  11.662  42.431   3.782
86470W        W58895  25.015  11.656   2.783
86471W        W58896  23.714  10.167  10.935
86472W        W58897  37.026  21.707   0.404
86473W        W58898  28.181   9.181  11.431
86474W        W58899  35.920  15.155  11.980
86475W        W58900  17.281  14.745   0.405
86476W        W58901  13.209  14.209   2.344
86477W        W58902  43.447  21.137   4.788
86478W        W58903  22.147   4.846  13.403
86479W        W58904  16.219  31.085  14.388
86480W        W58905  30.558   6.288  12.494
86481W        W58906  34.520  25.540   1.867
86482W        W58907   1.284  40.337   2.413
86483W        W58908  20.560  31.143  11.117
86484W        W58909   6.249  13.273  12.459
86485W        W58910  21.636  28.571   2.858
86486W        W58911  31.417   2.740  13.446
86487W        W58912   5.317  42.511   2.356
86488W        W58913  39.437  23.557   0.764
86489W        W58914   0.765  14.186   1.845
86490W        W58915   5.921  21.639  14.936
86491W        W58916   7.699  35.988   1.404
86492W        W58917  10.320  11.757   4.328
86493W        W58918   5.794  29.664  12.033
86494W        W58919   9.301  30.990  12.578
86495W        W58920  13.802  18.684  10.450
86496W        W58921   6.757  16.234   4.707
86497W        W58922   5.304  35.565  11.569
86498W        W58923  19.775   4.407  11.435
86499W        W58924   0.409  17.239   1.920
86500W        W58925  30.054  35.002  11.941
86501W        W58926  28.040  27.601   2.181
86502W        W58927  39.327  40.008   2.831
86503W        W58928  36.477  32.496  13.325
86504W        W58929  23.640  42.982  11.490
86505W        W58930  16.207   1.783  13.351
86506W        W58931  43.351   4.247  12.898
86507W        W58932  33.393   4.717   2.391
86508W        W58933  25.485  36.507   2.708
86509W        W58934   9.748   8.857  12.353
86510W        W58935  23.657   8.674  14.956
86511W        W58936   8.281   1.239  13.942
86512W        W58937  10.333  28.969  13.841
86513W        W58938  27.010  36.422  14.803
86514W        W58939  36.477  32.576   2.891
86515W        W58940   0.358   7.388   4.119
86516W        W58941  35.590  33.033   4.328
86517W        W58942  44.358   3.346   5.160
86518W        W58943  15.731  26.652   2.197
86519W        W58944  13.824  29.560  14.439
86520W        W58945  44.277   1.246  13.450
86521W        W58946  15.234  44.415   2.198
86522W        W58947   5.775  14.741   3.755
86523W        W58948   5.215  41.312   5.252
86524W        W58949   2.916  29.537  14.879
86525W        W58950  34.378  23.037  11.507
86526W        W58951  23.108   8.736  10.536
86527W        W58952   3.736  41.448   3.780
86528W        W58953  21.645   1.910   0.358
86529W        W58954  22.212  24.695   2.186
86530W        W58955  13.772  23.704  10.553
86531W        W58956  16.742  43.014   5.196
86532W        W58957  43.809  38.060  12.342
86533W        W58958  16.802  35.549  10.436
86534W        W58959   3.840  34.371   2.762
86535W        W58960  38.486  25.017   0.951
86536W        W58961   0.467  32.032  12.514
86537W        W58962  34.971   5.302   4.611
86538W        W58963  44.822  39.371  10.891
86539W        W58964  26.620  44.873   0.436
86540W        W58965   9.825  20.269   3.230
86541W        W58966  14.799   6.294  11.948
86542W        W58967  17.623   4.379   4.323
86543W        W58968  21.697  41.415  13.825
86544W        W58969  40.343  25.169  14.801
86545W        W58970  11.743  31.632   1.799
86546W        W58971  41.892  27.507  10.406
86547W        W58972  18.712  24.988  10.972
86548W        W58973  20.214   5.273  12.991
86549W        W58974  17.695  33.967   3.760
86550W        W58975  31.946  23.222   3.351
86551W        W58976  14.125  28.060  11.422
86552W        W58977  22.735  38.046  10.906
86553W        W58978  39.060  15.167  10.588
86554W        W58979  44.444  18.058  10.920
86555W        W58980  27.465   9.802  14.758
86556W        W58981  42.452  15.732   4.137
86557W        W58982  36.970   2.923  11.897
86558W        W58983  37.382   6.685  13.018
86559W        W58984   6.734  25.046  11.971
86560W        W58985  24.016  24.567  11.412
86561W        W58986  12.720  42.926   3.742
86562W        W58987  16.245  23.517   4.334
86563W        W58988  12.232  19.716   1.796
86564W        W58989  31.913  43.274   1.373
86565W        W58990   0.469   7.237  11.428
86566W        W58991   2.906  14.303  12.825
86567W        W58992  33.438  17.229   5.114
86568W        W58993  26.634  21.183   4.667
86569W        W58994  31.095  30.962   1.771
86570W        W58995  26.565  41.926  12.832
86571W        W58996   6.309   8.879   5.211
86572W        W58997  23.644  21.169   0.806
86573W        W58998  19.268  44.374  12.567
86574W        W58999  24.639  23.641  14.468
86575W        W59000  42.440  20.700  14.870
86576W        W59001  13.192  42.861  13.996
86577W        W59002  37.851  28.127   2.244
86578W        W59003  10.283  27.167   3.811
86579W        W59004  37.915   3.300  14.848
86580W        W59005  31.527   1.876   3.153
86581W        W59006   8.723  20.553   3.704
86582W        W59007  33.963   5.712  11.995
86583W        W59008   1.758  18.131   2.334
86584W        W59009  26.953  41.488  13.991
86585W        W59010  18.251  13.187  12.474
86586W        W59011   8.295  26.208  11.000
86587W        W59012  37.015   7.355   0.325
86588W        W59013  31.622  22.092   9.454
86589W        W59014  15.673   9.861   2.231
86590W        W59015  27.971  43.459   0.282
86591W        W59016  21.121  12.654  12.354
86592W        W59017  43.382  28.120   3.153
86593W        W59018  29.629  23.650  10.551
86594W        W59019  31.460   3.382   3.356
86595W        W59020  13.193   1.437   2.899
86596W        W59021  26.591  22.545   1.245
86597W        W59022   2.800   0.441   2.833
86598W        W59023   9.170  25.648   1.393
86599W        W59024  35.554  23.614   2.884
86600W        W59025  18.228  38.821  14.906
86601W        W59026  21.713   9.387   1.292
86602W        W59027  14.724  39.510  13.042
86603W        W59028  23.221  28.512  14.958
86604W        W59029  22.730  44.501   0.462
86605W        W59030  27.600  29.033  11.923
86606W        W59031  35.593  34.501  12.376
86607W        W59032  14.124  28.448  12.942
86608W        W59033  32.020  23.716   3.157
86609W        W59034  20.074  38.062   3.205
86610W        W59035  30.978  32.000  14.394
86611W        W59036  39.381   4.885  13.501
86612W        W59037  37.013  37.378  14.939
86613W        W59038   2.283  35.381   0.911
86614W        W59039   8.891   2.726  10.580
86615W        W59040  41.922  32.537  10.454
86616W        W59041  24.601  43.284   2.791
86617W        W59042  24.172  29.594  13.469
86618W        W59043  35.043   2.720   3.238
86619W        W59044   3.805  16.702   4.309
86620W        W59045  25.505  37.861   0.335
86621W        W59046   7.367   6.712   4.693
86622W        W59047  11.633   3.295   0.798
86623W        W59048   7.414  16.112  11.073
86624W        W59049  41.508  16.119  10.595
86625W        W59050  21.654  16.807  12.975
86626W        W59051  30.417  39.889   1.760
86627W        W59052   2.461  28.461  14.386
86628W        W59053  38.942  33.394   1.835
86629W        W59054  10.298  28.545   2.294
86630W        W59055  31.482  28.187  11.468
86631W        W59056   4.436  13.829  13.838
86632W        W59057   3.952  26.651  13.990
86633W        W59058  37.987  26.679  12.488
86634W        W59059   8.893  15.108   2.829
86635W        W59060  12.342  33.075   0.456
86636W        W59061  15.746   0.271   0.395
86637W        W59062  17.779  27.104   4.810
86638W        W59063  34.089  10.826  11.462
86639W        W59064  21.042  22.652  14.386
86640W        W59065  17.798  12.809  10.986
86641W        W59066   0.368  30.149  12.952
86642W        W59067  38.348  33.118  12.374
86643W        W59068  30.040  22.680  13.381
86644W        W59069  27.577  24.117   4.189
86645W        W59070  26.069  24.192  14.883
86646W        W59071  24.204  26.615  13.040
86647W        W59072   0.945  37.950  10.927
86648W        W59073  31.917  27.568   2.373
86649W        W59074  44.318  12.671   3.682
86650W        W59075  10.282  12.846  13.888
86651W        W59076   3.910  22.513  14.850
86652W        W59077  23.722  25.166  14.307
86653W        W59078  37.451  21.514   0.257
86654W        W59079  19.272  15.607  14.994
86655W        W59080  18.267   4.741   1.775
86656W        W59081  22.717  32.140   4.232
86657W        W59082  19.766  39.514   4.611
86658W        W59083  44.262  35.037  11.593
86659W        W59084  34.923  43.323   4.772
86660W        W59085  31.624  28.455   2.333
86661W        W59086  44.872  31.482   9.490
86662W        W59087  12.136  31.967  11.449
86663W        W59088  24.138  24.483  11.073
86664W        W59089  18.230  43.501   4.716
86665W        W59090  13.257  27.557  11.861
86666W        W59091   5.337   0.788   3.652
86667W        W59092  43.016   2.892  10.463
86668W        W59093  31.934  29.143   2.818
86669W        W59094  28.628  23.167  12.931
86670W        W59095  26.627  13.835  13.897
86671W        W59096  13.136  28.166   2.742
86672W        W59097  35.060  31.563   2.806
86673W        W59098   0.900   8.730   2.405
86674W        W59099   0.954  22.102  11.993
86675W        W59100   7.346   9.225  12.511
86676W        W59101   5.258  25.094  14.899
86677W        W59102  12.261  21.518  12.050
86678W        W59103  20.090  34.946  13.930
86679W        W59104   0.435  34.614   0.339
86680W        W59105  18.636  31.088   3.155
86681W        W59106  13.636  24.682  11.961
86682W        W59107  27.083  28.133   2.664
86683W        W59108  20.216  13.121  14.469
86684W        W59109  23.181  36.983   1.360
86685W        W59110  44.501  24.987   3.203
86686W        W59111  34.922   9.719  11.933
86687W        W59112  14.194  35.999  13.942
86688W        W59113  40.421  37.544   5.276
86689W        W59114   6.356  41.997  12.997
86690W        W59115  35.393   9.676   0.453
86691W        W59116  29.617  27.193   3.236
86692W        W59117  40.378  43.469  11.876
86693W        W59118  41.877   0.758   0.869
86694W        W59119  24.167  12.224  13.315
86695W        W59120   6.783  19.679   2.787
86696W        W59121   1.779  38.010   2.258
86697W        W59122   5.780  23.681   4.192
86698W        W59123  12.207  19.679   2.332
86699W        W59124  17.585  25.188  11.105
86700W        W59125   0.949  33.918   9.522
86701W        W59126  23.565  25.963   2.886
86702W        W59127  34.104  36.962   1.258
86703W        W59128  31.016  14.764  10.511
86704W        W59129  18.246  31.112  10.419
86705W        W59130  22.138  25.109   4.677
86706W        W59131  38.431  33.458   1.403
86707W        W59132  15.264   8.812  13.873
86708W        W59133  16.615  11.254   2.877
86709W        W59134  11.347   6.240   3.363
86710W        W59135  29.654  16.274   2.776
86711W        W59136  31.928   9.353  12.833
86712W        W59137  42.455  40.363  14.880
86713W        W59138  42.367  39.841   3.814
86714W        W59139  18.060  13.227   0.854
86715W        W59140  37.969  13.751   3.158
86716W        W59141   5.360   7.359  10.953
86717W        W59142  16.286  18.615   3.193
86718W        W59143  18.614  28.954   3.788
86719W        W59144  40.493  19.111   4.343
86720W        W59145  32.543  44.393   4.301
86721W        W59146  10.764  20.270   4.351
86722W        W59147  18.680  13.798   1.847
86723W        W59148  28.090  28.941   2.229
86724W        W59149  36.475  22.700  13.353
86725W        W59150  38.405  22.091  10.515
86726W        W59151   3.902  43.368  13.348
86727W        W59152  23.132   7.750   1.261
86728W        W59153   6.350   3.915   3.253
86729W        W59154   5.290   5.218   2.861
86730W        W59155  32.479   9.156   0.918
86731W        W59156  31.574  24.624   0.279
86732W        W59157  18.055  39.408  14.471
86733W        W59158  22.025  27.502   4.324
86734W        W59159  24.616   0.916   1.842
86735W        W59160  15.752  26.130  13.343
86736W        W59161  26.616   2.853  14.007
86737W        W59162  33.394  15.296   2.703
86738W        W59163  27.169   4.343  14.899
86739W        W59164   7.867  10.847  11.053
86740W        W59165  32.105   0.783  13.957
86741W        W59166  32.511   9.205  12.856
86742W        W59167  20.079  28.074  10.094
86743W        W59168  16.092  26.500   0.889
86744W        W59169  40.530  20.766  10.001
86745W        W59170  19.780   1.923   2.882
86746W        W59171   1.819  20.109  14.869
86747W        W59172  23.167   1.404   3.825
86748W        W59173  25.135  26.641   3.629
86749W        W59174  36.383  16.106   2.415
86750W        W59175  37.344  24.479  14.447
86751W        W59176  12.225  27.114   1.831
86752W        W59177  26.154  11.228  14.428
86753W        W59178   7.888  42.428  14.435
86754W        W59179  44.859  11.298   2.237
86755W        W59180  40.307  33.582   1.436
86756W        W59181  20.097  34.010  13.977
86757W        W59182  39.938  22.110   1.731
86758W        W59183  40.896  22.210  14.363
86759W        W59184  25.504  37.987   3.282
86760W        W59185  31.984  12.753  13.899
86761W        W59186  13.292  38.421   0.332
86762W        W59187  28.978  29.511  10.550
86763W        W59188  11.266  28.001  11.552
86764W        W59189  32.434  43.835  12.077
86765W        W59190  11.650  23.726  13.364
86766W        W59191  34.374  19.551   3.644
86767W        W59192   0.459  43.923   0.359
86768W        W59193   6.781  40.415   0.963
86769W        W59194   6.303  42.868  13.830
86770W        W59195  39.474  12.614   3.361
86771W        W59196  41.812  14.135   1.376
86772W        W59197   9.170  31.010  10.584
86773W        W59198  16.281  35.448  11.068
86774W        W59199  24.639  30.447   4.167
86775W        W59200  22.133   1.793  13.999
86776W        W59201  32.986  44.859  11.465
86777W        W59202  44.817  16.151   2.273
86778W        W59203  31.089  17.675   1.697
86779W        W59204  12.729   8.399   1.702
86780W        W59205  19.172   9.832   4.828
86781W        W59206  18.076   0.466   1.891
86782W        W59207  33.047  21.263   2.816
86783W        W59208  26.513  28.964  11.551
86784W        W59209  28.974  37.575  12.854
86785W        W59210  26.551  23.169   1.373
86786W        W59211  17.747  11.771  12.012
86787W        W59212  21.180  11.136   0.819
86788W        W59213  25.469   9.318   2.305
86789W        W59214   6.265   4.271   2.189
86790W        W59215  37.969  30.426   4.218
86791W        W59216  44.859   9.219   3.769
86792W        W59217   5.277  38.068  13.455
86793W        W59218  29.142  16.143  10.531
86794W        W59219  43.338  42.838  11.398
86795W        W59220  17.608  39.040   0.449
86796W        W59221  27.514  42.988  10.414
86797W        W59222  16.666  36.427  10.909
86798W        W59223  30.531  24.555  12.570
86799W        W59224   3.444  33.003   1.865
86800W        W59225  29.036  28.982   4.794
86801W        W59226  44.802  24.612  12.566
86802W        W59227  24.498  17.248   1.254
86803W        W59228  20.637  12.333   1.354
86804W        W59229  21.228  19.142  14.305
86805W        W59230  30.118   0.909  10.892
86806W        W59231  11.183  26.653   4.260
86807W        W59232  24.984  44.267   5.129
86808W        W59233  36.880   4.358  11.374
86809W        W59234  27.988  39.362  11.960
86810W        W59235  20.150  20.110   1.863
86811W        W59236   2.392  28.062   1.415
86812W        W59237  20.695   5.314  11.113
86813W        W59238   5.763   8.869  13.377
86814W        W59239  11.335  40.857  10.969
86815W        W59240  26.118  19.145  14.447
86816W        W59241  29.543   8.892  12.050
86817W        W59242  18.121  31.542   4.676
86818W        W59243  25.604  26.575  11.542
86819W        W59244  23.047  43.913  11.084
86820W        W59245  42.446  24.131   1.897
86821W        W59246  32.035  20.743  11.863
86822W        W59247  19.118  35.014   1.800
86823W        W59248   1.463  30.497  12.857
86824W        W59249  41.929  35.929  10.633
86825W        W59250  35.063   5.819   0.283
86826W        W59251  14.773  28.559  10.559
86827W        W59252  12.690  29.962   4.245
86828W        W59253  19.745  40.899  10.951
86829W        W59254  24.565   8.246  11.880
86830W        W59255  31.439  26.573  14.499
86831W        W59256  17.163  29.158   1.393
86832W        W59257  25.104   5.715  13.317
86833W        W59258  39.892   6.747   2.309
86834W        W59259  34.941  33.388   5.136
86835W        W59260  24.643   4.925   4.765
86836W        W59261  37.336  13.272   0.436
86837W        W59262   2.814  21.574  14.771
86838W        W59263  33.878  43.381  10.476
86839W        W59264   0.317  17.288   2.406
86840W        W59265  15.328  21.046  10.525
86841W        W59266   2.253  27.134  14.306
86842W        W59267   3.312  23.588   1.834
86843W        W59268  25.994  33.467   4.692
86844W        W59269  12.147  17.225   3.869
86845W        W59270  30.495  24.180  10.005
86846W        W59271  41.390  25.187   2.374
86847W        W59272  28.112  40.498   4.829
86848W        W59273  44.856  32.545  11.508
86849W        W59274  44.346   3.220   3.708
86850W        W59275  12.346  25.149  11.995
86851W        W59276  14.673  37.354  13.856
86852W        W59277   9.269  27.067   0.944
86853W        W59278  32.414  42.400   2.757
86854W        W59279   2.807  30.918   4.680
86855W        W59280  10.166   4.319   1.399
86856W        W59281  12.699  14.623  13.498
86857W        W59282  42.894  38.395   0.894
86858W        W59283   5.909  36.918  14.933
86859W        W59284  28.988   2.463   1.283
86860W        W59285   8.329  28.570   1.778
86861W        W59286  43.891  30.458   0.461
86862W        W59287  40.501  21.181   4.310
86863W        W59288  13.817  34.499   2.829
86864W        W59289   8.750  30.100  10.457
86865W        W59290  18.107  11.636  14.888
86866W        W59291   8.896  16.289  11.890
86867W        W59292   7.718  33.595   2.764
86868W        W59293  22.203  18.195   4.353
86869W        W59294  13.791  20.267   4.655
86870W        W59295   4.869  21.250  10.134
86871W        W59296  37.553  40.463  12.365
86872W        W59297  44.342  12.360   1.861
86873W        W59298  32.414  37.877  13.395
86874W        W59299   0.407  21.147   0.846
86875W        W59300  14.740  18.066  13.325
86876W        W59301  34.916  41.961  12.436
86877W        W59302   4.394   7.750  11.502
86878W        W59303  16.202   0.968   4.613
86879W        W59304  10.175  15.090   2.243
86880W        W59305  10.711  31.969   5.153
86881W        W59306  31.525  31.564  12.864
86882W        W59307   7.223  41.953   4.217
86883W        W59308  35.413  33.972  13.499
86884W        W59309  37.393   5.780  14.839
86885W        W59310  34.005   9.770  14.858
86886W        W59311  23.567  27.649  12.933
86887W        W59312   6.276  13.192   0.334
86888W        W59313  41.857  20.257   0.906
86889W        W59314  19.611  18.266   4.752
86890W        W59315  38.361   8.720   5.091
86891W        W59316  35.420  15.604   0.456
86892W        W59317  37.855  27.544   0.453
86893W        W59318  12.232  33.454   1.307
86894W        W59319   8.677  15.753   4.741
86895W        W59320  35.501  19.125   1.907
86896W        W59321  22.697  24.499   1.753
86897W        W59322  18.733  40.379   4.304
86898W        W59323  30.582  25.556  13.794
86899W        W59324   9.362   3.224  11.414
86900W        W59325  26.982   8.709  13.057
86901W        W59326   2.255   7.704   2.674
86902W        W59327  20.262  14.273  14.840
86903W        W59328   7.378  20.534   2.895
86904W        W59329  40.800  11.331  13.804
86905W        W59330  14.834  36.098   9.990
86906W        W59331  25.686   2.794   4.146
86907W        W59332   9.259  19.775   0.343
86908W        W59333   0.376  15.157   2.196
86909W        W59334  26.007  30.551   4.142
86910W        W59335  30.004  41.309  11.886
86911W        W59336  42.452   2.403   2.385
86912W        W59337  36.939  14.119   0.376
86913W        W59338  11.741  31.947  10.081
86914W        W59339  37.398  31.920   2.276
86915W        W59340   9.298  35.565  10.513
86916W        W59341  22.019   1.319  12.517
86917W        W59342  24.218   4.210   3.380
86918W        W59343  10.678  19.646   0.872
86919W        W59344  37.480  18.609   4.234
86920W        W59345  33.966   1.949  10.607
86921W        W59346  42.492   7.365   3.326
86922W        W59347  23.559  20.249   2.264
86923W        W59348  42.838  20.587  13.486
86924W        W59349  41.524  29.043   2.877
86925W        W59350  25.491  20.527  11.433
86926W        W59351  38.842   4.698   3.682
86927W        W59352  31.061  35.057  11.894
86928W        W59353  44.261  41.338  13.911
86929W        W59354   5.234  28.494   1.342
86930W        W59355  15.204  39.883  13.941
86931W        W59356  24.127  37.491  12.514
86932W        W59357  26.039  42.005  14.421
86933W        W59358  26.964   0.822  14.443
86934W        W59359  21.519   5.834   2.408
86935W        W59360  43.945  24.118  12.838
86936W        W59361  15.660  30.618   4.187
86937W        W59362  24.072  19.763  10.968
86938W        W59363  14.794  40.012  14.939
86939W        W59364  28.968  37.853  14.446
86940W        W59365  15.082  15.760  10.415
86941W        W59366  34.915  13.304  13.042
86942W        W59367  36.529   5.413   3.800
86943W        W59368   8.657   3.849  14.907
86944W        W59369   8.234  35.983  14.967
86945W        W59370   3.373  37.471  12.359
86946W        W59371  33.122  15.625   3.269
86947W        W59372  43.883  12.752  11.599
86948W        W59373   9.851  28.553   0.817
86949W        W59374  35.371  38.934   0.952
86950W        W59375  43.849  27.190  11.438
86951W        W59376  33.098  31.929   0.400
86952W        W59377  13.135   9.298   4.124
86953W        W59378   9.757  33.578  11.533
86954W        W59379  17.568  35.959   0.816
86955W        W59380   5.893  29.636  11.558
86956W        W59381  34.584   8.791   0.391
86957W        W59382  19.572  21.136   0.430
86958W        W59383  26.208  21.725   4.824
86959W        W59384  22.043  14.197  14.758
86960W        W59385  37.565  17.658  11.480
86961W        W59386  36.561  35.904   2.793
86962W        W59387  32.898  34.517  12.998
86963W        W59388  27.073  27.005  12.892
86964W        W59389   9.214  21.045  13.931
86965W        W59390   3.946  28.014   0.915
86966W        W59391  12.642   1.819   4.136
86967W        W59392  37.070  44.398  12.073
86968W        W59393  12.655  40.509   4.826
86969W        W59394  26.134  29.016   5.161
86970W        W59395   4.287   0.763   3.784
86971W        W59396  38.885  26.532  12.967
86972W        W59397   7.218  11.305  12.522
86973W        W59398  36.091   7.380   0.414
86974W        W59399  39.849  18.569   4.681
86975W        W59400  24.156   3.280   2.756
86976W        W59401  25.699  32.627  10.014
86977W        W59402  43.806   0.830   0.357
86978W        W59403  39.369   9.198   1.854
86979W        W59404  21.646   9.218   2.665
86980W        W59405  10.682  28.938  10.935
86981W        W59406  12.819  24.725  12.570
86982W        W59407  42.963   3.720  13.441
86983W        W59408  30.652  39.937   3.221
86984W        W59409  28.074   6.414  14.768
86985W        W59410  42.005  18.553  14.830
86986W        W59411   4.701  36.893  13.423
86987W        W59412  18.244  12.822   2.776
86988W        W59413   4.243  29.623   3.179
86989W        W59414  20.652   5.229  12.433
86990W        W59415  34.894  18.199   0.422
86991W        W59416  30.510   9.826  12.990
86992W        W59417  10.262  15.618  12.838
86993W        W59418  25.209  24.654  11.525
86994W        W59419  19.595  35.523  11.561
86995W        W59420   9.677  17.082  11.866
86996W        W59421  34.977   4.319   2.335
86997W        W59422  24.668  29.539   4.710
86998W        W59423  11.672  35.946  12.877
86999W        W59424   4.799  34.037   4.680
87000W        W59425   8.387  21.090   0.835
87001W        W59426   7.779  44.443  12.907
87002W        W59427  18.613  38.019  12.826
87003W        W59428  35.477  42.837   1.742
87004W        W59429  21.232  41.898   1.912
87005W        W59430   0.459   8.241  14.830
87006W        W59431  23.522  29.603   2.395
87007W        W59432   4.911   7.903  11.605
87008W        W59433  18.572  41.837   1.223
87009W        W59434  16.230  18.623   3.748
87010W        W59435  26.127  26.700   0.957
87011W        W59436  31.978  35.393  14.343
87012W        W59437  24.035  25.595  14.787
87013W        W59438   1.742  15.684  11.546
87014W        W59439   3.402  42.815   1.707
87015W        W59440   3.729  43.398  14.999
87016W        W59441  36.503   5.328   0.951
87017W        W59442  16.801  23.029  13.027
87018W        W59443  25.656  24.608  12.579
87019W        W59444  39.448   7.780  12.846
87020W        W59445  33.069  43.836  13.837
87021W        W59446  32.036  31.004   4.123
87022W        W59447   4.804   3.878   1.321
87023W        W59448  36.032  26.594  11.488
87024W        W59449  34.088  27.150   1.377
87025W        W59450  21.614  25.697   4.834
87026W        W59451  38.955  37.445  12.479
87027W        W59452  22.075  25.185  13.397
87028W        W59453  42.910  21.645  11.007
87029W        W59454  39.350   6.686  10.416
87030W        W59455  22.503  27.503   0.799
87031W        W59456  16.129   7.767   1.919
87032W        W59457  10.860  28.537  13.906
87033W        W59458  33.619  21.683   4.666
87034W        W59459   0.815  28.995  11.054
87035W        W59460  12.655   3.909  11.002
87036W        W59461  39.445  27.605  11.996
87037W        W59462  23.053  27.945  12.050
87038W        W59463   7.824  10.269  11.988
87039W        W59464  39.843  18.284   0.479
87040W        W59465  35.495  20.115   4.720
87041W        W59466  10.729  25.144  12.919
87042W        W59467  30.074  36.454   1.401
87043W        W59468  10.774  41.797   4.755
87044W        W59469  36.371  19.722  14.781
87045W        W59470  32.924  18.077   3.262
87046W        W59471  40.466  43.877   2.389
87047W        W59472   6.307   3.748   0.360
87048W        W59473  40.983  43.862   0.414
87049W        W59474  18.661   8.889   4.210
87050W        W59475  14.650  24.682  12.358
87051W        W59476  37.042  28.025   0.413
87052W        W59477  37.835  39.333  14.363
87053W        W59478   7.376  41.428   2.821
87054W        W59479  18.671  33.052   0.823
87055W        W59480  17.634  43.888   3.723
87056W        W59481   1.428  28.454   0.946
87057W        W59482  30.912   4.811  13.818
87058W        W59483  31.627  22.019  10.618
87059W        W59484  16.615  16.115   3.745
87060W        W59485  14.762  28.636   3.652
87061W        W59486  38.043   9.343  12.392
87062W        W59487  29.430  42.793  12.016
87063W        W59488  37.955  12.158  13.456
87064W        W59489  12.657  36.947  13.063
87065W        W59490   8.872  22.178  13.370
87066W        W59491  19.650  27.111   4.208
87067W        W59492  34.111  19.583   0.439
87068W        W59493  38.888   3.760   2.335
87069W        W59494  26.602  43.823   0.792
87070W        W59495   9.754  31.440   2.274
87071W        W59496  31.972   2.439   3.166
87072W        W59497  31.942  38.918  14.025
87073W        W59498  16.749  12.170   2.886
87074W        W59499  23.572  40.423  10.612
87075W        W59500   9.197   8.672   0.920
87076W        W59501  36.881   6.206  10.541
87077W        W59502  41.482  10.196   2.895
87078W        W59503   8.837  37.991   3.849
87079W        W59504  27.510   2.371   3.166
87080W        W59505  34.530  36.919   1.271
87081W        W59506  36.348  16.249   1.385
87082W        W59507  27.991  33.401  12.395
87083W        W59508   7.818  41.371  14.485
87084W        W59509  11.801   2.451  13.876
87085W        W59510   0.334  26.603   4.624
87086W        W59511  16.753  40.506  10.639
87087W        W59512  29.650   9.254  12.410
87088W        W59513  15.610  38.550   0.337
87089W        W59514  22.057  22.137  12.933
87090W        W59515  35.107   7.733   0.312
87091W        W59516  12.118  35.956   1.389
87092W        W59517   3.366   4.788   4.350
87093W        W59518   6.198  19.548  10.924
87094W        W59519  13.316  25.570  10.895
87095W        W59520  22.550  11.236   1.774
87096W        W59521   7.312  43.954  11.064
87097W        W59522  26.565  11.665  14.479
87098W        W59523  38.339   7.798   3.783
87099W        W59524  15.781   4.905  13.985
87100W        W59525   5.832  42.355  14.498
87101W        W59526   7.240  38.030  13.006
87102W        W59527  12.762  23.526  10.116
87103W        W59528  40.031   9.227  12.000
87104W        W59529   3.320   7.235  10.958
87105W        W59530   9.689  25.203  11.550
87106W        W59531  14.293  37.513   2.263
87107W        W59532   2.235  40.532   0.827
87108W        W59533  34.029   8.275   1.722
87109W        W59534  27.603  31.606  14.419
87110W        W59535  37.530  35.470   3.755
87111W        W59536  39.529  19.183   0.834
87112W        W59537  12.211  28.626   0.437
87113W        W59538  33.116  26.080  14.386
87114W        W59539  21.192  24.195  10.587
87115W        W59540  32.112  34.875  13.897
87116W        W59541  35.081  42.412   2.723
87117W        W59542  35.985   4.268  14.881
87118W        W59543  14.680  36.955   0.309
87119W        W59544  43.361  43.933  11.464
87120W        W59545  19.222   8.333   0.772
87121W        W59546  21.567   6.426  13.944
87122W        W59547  11.298  13.310  13.388
87123W        W59548  11.660  16.804  10.530
87124W        W59549   4.717  40.338   1.763
87125W        W59550  38.995  30.119  14.770
87126W        W59551   1.367  38.073  14.993
87127W        W59552   0.438  34.079   5.292
87128W        W59553  28.985  22.157   2.396
87129W        W59554  37.463  15.792   5.166
87130W        W59555  37.873  28.656   2.349
87131W        W59556  14.251  19.701   3.164
87132W        W59557  36.973  44.804  12.998
87133W        W59558   5.757  21.703   2.896
87134W        W59559   7.890   7.391  10.633
87135W        W59560  10.366  43.315   4.256
87136W        W59561  25.529  32.075  14.350
87137W        W59562  20.103   1.339   1.273
87138W        W59563   0.295   3.806  11.940
87139W        W59564  30.544  43.819   2.323
87140W        W59565  16.312  11.136   3.233
87141W        W59566  10.278  19.736  11.940
87142W        W59567  25.219  21.229  12.534
87143W        W59568   2.799  35.383  10.601
87144W        W59569  43.985   9.678  11.024
87145W        W59570  40.527   3.381  12.968
87146W        W59571  36.565  24.081  11.427
87147W        W59572  41.421   0.913   0.888
87148W        W59573   2.965  40.029   2.281
87149W        W59574  26.528  19.724   3.815
87150W        W59575  32.517  24.022   4.128
87151W        W59576  16.658  21.584   3.370
87152W        W59577  41.294  23.656   2.193
87153W        W59578  20.658  42.339  14.295
87154W        W59579  13.839  39.423   4.742
87155W        W59580  44.259  33.416  13.915
87156W        W59581  23.170  10.185  13.881
87157W        W59582  11.276  16.272   1.798
87158W        W59583  44.263   3.460  10.013
87159W        W59584  13.658  25.695   1.794
87160W        W59585  11.776  33.525  12.954
87161W        W59586  15.812  29.074  12.845
87162W        W59587  29.501  10.757  13.964
87163W        W59588  21.526  44.972   1.291
87164W        W59589  20.573  28.450   0.736
87165W        W59590   6.211  38.349   4.668
87166W        W59591  36.545  44.778  11.034
87167W        W59592   2.787  16.103   4.271
87168W        W59593   7.691  19.614  10.926
87169W        W59594  31.535  34.072  13.496
87170W        W59595   3.764   0.890  11.986
87171W        W59596  41.891  38.562  14.498
87172W        W59597   1.800  23.114  11.389
87173W        W59598  24.566  33.033   4.223
87174W        W59599  15.264  32.556   4.161
87175W        W59600  42.826  26.600   2.272
87176W        W59601  16.226  26.156   1.815
87177W        W59602  43.349   3.276   0.871
87178W        W59603  13.664   6.242   1.271
87179W        W59604   9.285  30.608   2.744
87180W        W59605  37.843  23.009   2.797
87181W        W59606  27.103  42.821  11.889
87182W        W59607  27.057  40.930  14.779
87183W        W59608   0.457   3.717  12.931
87184W        W59609   1.968  32.032   4.835
87185W        W59610  24.164  35.066   4.712
87186W        W59611  11.360  26.973   3.150
87187W        W59612  20.275  34.526   3.736
87188W        W59613  23.052  16.093  11.510
87189W        W59614   5.238   2.773  13.886
87190W        W59615  36.347  22.630   5.293
87191W        W59616  39.359  32.449   1.817
87192W        W59617  14.288  26.099   2.306
87193W        W59618  20.200  25.562   3.746
87194W        W59619   7.833  32.063  12.859
87195W        W59620  22.195  19.717   1.238
87196W        W59621   2.814  16.194  13.928
87197W        W59622   8.882  34.609  14.937
87198W        W59623  44.505   1.930  13.434
87199W        W59624  24.604  29.133  12.399
87200W        W59625  40.848  29.542   3.246
87201W        W59626  42.995  34.069  14.928
87202W        W59627  12.156  16.798   3.784
87203W        W59628  38.336   7.911   1.744
87204W        W59629  14.322  27.657  12.465
87205W        W59630  31.434  20.206   0.872
87206W        W59631   7.267  16.603   0.959
87207W        W59632  13.195   2.774  13.060
87208W        W59633  43.802  44.993   2.801
87209W        W59634  33.028  33.876  13.869
87210W        W59635  33.922  14.811  12.869
87211W        W59636  11.127  39.912  13.888
87212W        W59637  29.441  13.665  13.384
87213W        W59638  18.578  19.557   5.100
87214W        W59639  44.860  16.085  12.339
87215W        W59640  32.927  34.923  12.836
87216W        W59641  38.558   1.766  14.467
87217W        W59642  33.916   6.901   2.397
87218W        W59643  16.219  39.361   0.267
87219W        W59644  18.143  38.925  13.453
87220W        W59645  35.020   4.331   3.637
87221W        W59646  15.282  28.535  13.501
87222W        W59647   2.336  33.625   1.865
87223W        W59648  10.651   2.254   2.723
87224W        W59649  10.204   0.258   0.468
87225W        W59650  42.871  28.077   4.645
87226W        W59651  14.757   6.838   0.371
87227W        W59652  35.379  42.427   4.248
87228W        W59653   3.239  43.455  13.355
87229W        W59654  17.195  13.140   1.317
87230W        W59655   1.243  38.860  14.808
87231W        W59656  21.537  39.347  14.024
87232W        W59657   2.319  12.285  14.288
87233W        W59658  30.040  28.494  14.879
87234W        W59659   7.295  13.685   2.185
87235W        W59660  13.140  20.136   4.181
87236W        W59661  23.066  19.109   4.276
87237W        W59662  44.329  31.492   5.690
87238W        W59663   2.771  39.987   0.950
87239W        W59664  13.217  20.068  12.005
87240W        W59665   8.377  42.776   4.298
87241W        W59666   7.349  27.473  13.423
87242W        W59667  10.212  15.776   1.278
87243W        W59668   4.834   0.394  10.029
87244W        W59669  30.025  15.178  11.999
87245W        W59670  39.389  42.440   3.686
87246W        W59671  40.440   7.827  14.843
87247W        W59672  29.132  43.371  14.866
87248W        W59673  35.049  41.318   2.752
87249W        W59674  44.336  23.602  13.985
87250W        W59675   2.850  14.265   1.422
87251W        W59676  26.682   4.396  13.932
87252W        W59677   5.794  11.862   3.785
87253W        W59678  15.721   9.354   0.312
87254W        W59679  20.154   1.827  12.977
87255W        W59680  13.706  10.377   0.868
87256W        W59681  12.196  32.630   1.795
87257W        W59682  27.593  21.741   1.338
87258W        W59683   4.765  30.976  13.062
87259W        W59684  24.092  13.242  11.103
87260W        W59685  19.222  24.510  14.307
87261W        W59686  34.011  16.134   0.935
87262W        W59687  40.897  39.529   0.469
87263W        W59688  32.023  37.948   4.613
87264W        W59689  30.054  22.513  11.897
87265W        W59690  36.504   0.947   1.350
87266W        W59691   8.405   0.305   3.635
87267W        W59692  18.066  18.728  10.616
87268W        W59693   1.751  33.910  14.305
87269W        W59694  13.688  44.830   1.702
87270W        W59695  34.458  11.140  12.043
87271W        W59696  19.779  25.699   4.705
87272W        W59697  21.168  22.050  10.060
87273W        W59698  12.721  11.293   3.347
87274W        W59699   5.759  16.570  14.499
87275W        W59700  32.512   2.435  11.591
87276W        W59701   7.245  33.566  12.386
87277W        W59702   4.747  18.242   0.751
87278W        W59703   7.847   7.769   3.271
87279W        W59704   9.654  37.027   3.183
87280W        W59705  32.126   0.272   4.281
87281W        W59706   5.691  15.213   3.819
87282W        W59707  31.636  34.118  13.792
87283W        W59708  25.693  18.105  10.991
87284W        W59709   9.230  39.477   4.625
87285W        W59710  30.091   8.756  14.994
87286W        W59711  29.170  21.739  14.467
87287W        W59712  12.237   4.783  10.966
87288W        W59713  10.728  33.461  13.518
87289W        W59714  34.431   4.719   1.787
87290W        W59715   0.985  15.746   3.187
87291W        W59716  19.549   6.240  11.058
87292W        W59717  18.725  31.120   2.313
87293W        W59718  18.626  42.444   2.366
87294W        W59719  15.100  29.919   2.789
87295W        W59720  44.765  19.542   1.251
87296W        W59721  43.340  22.557   2.219
87297W        W59722  21.523  21.723  10.944
87298W        W59723  22.014  17.102   4.156
87299W        W59724  19.165  21.657   2.775
87300W        W59725   1.421   1.237   2.760
87301W        W59726  28.117  36.378   1.829
87302W        W59727  22.663   5.798   4.206
87303W        W59728  22.616  42.409  13.309
87304W        W59729  13.215  28.040  14.793
87305W        W59730  21.052  35.069   0.778
87306W        W59731  44.422  16.160  13.886
87307W        W59732  24.229  38.416   1.935
87308W        W59733  21.522  22.018  11.477
87309W        W59734  39.457  12.677  13.064
87310W        W59735   5.821  12.172   2.815
87311W        W59736  11.819  13.320  13.840
87312W        W59737  30.138   5.399   0.299
87313W        W59738   5.230   6.730  14.415
87314W        W59739  41.302   2.857   3.323
87315W        W59740  33.606   3.285  10.640
87316W        W59741  36.891  35.100  14.796
87317W        W59742  24.186  10.255  14.837
87318W        W59743   2.238  15.711   4.667
87319W        W59744  44.374  26.642   4.273
87320W        W59745  29.428  35.974   3.150
87321W        W59746  36.075   1.406   4.331
87322W        W59747  17.782  40.441   2.253
87323W        W59748  34.918  19.204  10.561
87324W        W59749  42.859  19.540  14.776
87325W        W59750   0.366  36.391   2.251
87326W        W59751   2.472   5.255  11.876
87327W        W59752   9.346   8.322  12.353
87328W        W59753  37.947  34.090  13.377
87329W        W59754  25.694   2.905   3.652
87330W        W59755   8.397  27.479   2.855
87331W        W59756   1.926  28.439   1.350
87332W        W59757  30.517  36.387  11.073
87333W        W59758  36.054  42.478  12.339
87334W        W59759  27.593  16.753  14.310
87335W        W59760  30.415  31.093  13.911
87336W        W59761  21.653   1.454   1.219
87337W        W59762  13.606   0.487  13.444
87338W        W59763  11.671  26.024   0.482
87339W        W59764  20.702   9.856  14.468
87340W        W59765  17.250  28.167   3.200
87341W        W59766  20.568  11.129   2.725
87342W        W59767  34.441   3.819  11.540
87343W        W59768  22.552  37.489   2.353
87344W        W59769  10.187  42.408   2.692
87345W        W59770  37.864  17.242   3.687
87346W        W59771  26.009  21.511  14.984
87347W        W59772  43.923  35.096   3.863
87348W        W59773  38.942   6.225   1.435
87349W        W59774  36.853  14.693  12.945
87350W        W59775   6.921  21.652  13.975
87351W        W59776  27.518  26.574  10.596
87352W        W59777  22.666  21.054  14.799
87353W        W59778  43.898  14.300   1.220
87354W        W59779  28.548  12.697  10.934
87355W        W59780  11.356   9.678   4.671
87356W        W59781  18.625  42.314   3.769
87357W        W59782  35.875  41.455   3.764
87358W        W59783  31.914  43.001  14.312
87359W        W59784  41.404   4.766  10.992
87360W        W59785  29.429  28.108   2.707
87361W        W59786  28.637  25.131   0.943
87362W        W59787  21.023  15.818   2.386
87363W        W59788  22.224  34.085  13.516
87364W        W59789  33.567  14.228   2.879
87365W        W59790  14.245  25.485  11.979
87366W        W59791  22.658  21.036   0.410
87367W        W59792   9.838   0.335  10.472
87368W        W59793  30.479  21.702   9.959
87369W        W59794  19.277  44.302   1.398
87370W        W59795  34.947  28.083   5.161
87371W        W59796  43.480  43.291  11.457
87372W        W59797  13.696  10.700   4.127
87373W        W59798  27.520  10.159   4.181
87374W        W59799  18.705  19.635  11.433
87375W        W59800  31.448  20.633  11.945
87376W        W59801  42.847  10.259   0.924
87377W        W59802  20.707  27.579   2.308
87378W        W59803   9.839   3.302  11.596
87379W        W59804  13.815  22.710  13.914
87380W        W59805  13.632  27.548   1.910
87381W        W59806  18.155   4.848   4.815
87382W        W59807   3.438   2.936  14.325
87383W        W59808  22.176  22.107  11.505
87384W        W59809  26.991  30.930  14.882
87385W        W59810  37.905  44.770   2.859
87386W        W59811  39.062  25.507   4.308
87387W        W59812  23.511  17.602   1.305
87388W        W59813  23.041  39.475  12.997
87389W        W59814   0.450  34.413  11.466
87390W        W59815  18.668  36.479  14.991
87391W        W59816  31.081  32.923  14.999
87392W        W59817  27.178  27.610   4.296
87393W        W59818   4.317   7.669   0.920
87394W        W59819  26.472  23.181  10.931
87395W        W59820  17.788   5.333   2.860
87396W        W59821   9.782  31.458   0.390
87397W        W59822   3.759  38.945  12.559
87398W        W59823   7.319  10.696  11.447
87399W        W59824  11.838   6.197  10.036
87400W        W59825  21.134  43.280  14.990
87401W        W59826  43.854   8.832  13.980
87402W        W59827  36.361   1.784   3.779
87403W        W59828  30.989  44.759  11.924
87404W        W59829  37.908  21.194  10.992
87405W        W59830  31.968   9.394  13.847
87406W        W59831  23.162  39.495   3.707
87407W        W59832  20.701  21.548  13.400
87408W        W59833  21.541   2.836   0.252
87409W        W59834  25.520  21.711  13.030
87410W        W59835  24.575  42.808  10.916
87411W        W59836   4.933   5.918  10.917
87412W        W59837  33.389  22.507   5.118
87413W        W59838  21.622  43.965   4.803
87414W        W59839  22.150  23.621  14.400
87415W        W59840   7.186  27.949  14.964
87416W        W59841  34.508   5.345   3.759
87417W        W59842  32.494  33.114   1.434
87418W        W59843  19.225  35.089   0.255
87419W        W59844  23.630   3.358   3.640
87420W        W59845  43.935  38.533  11.580
87421W        W59846  25.594   1.346  13.824
87422W        W59847   2.275  33.126   4.307
87423W        W59848  31.402  37.058  14.404
87424W        W59849  14.152  13.692   0.934
87425W        W59850   6.198  11.193   0.876
87426W        W59851  35.007  42.300   1.419
87427W        W59852  22.147  37.936  10.538
87428W        W59853  13.709  19.282   0.967
87429W        W59854   8.389  42.297  13.437
87430W        W59855  27.448  30.087   4.628
87431W        W59856  10.335  36.538   1.730
87432W        W59857  36.981  42.317   3.674
87433W        W59858   2.883  21.179   4.203
87434W        W59859  44.898  42.343  11.435
87435W        W59860  22.553  25.543  11.061
87436W        W59861  38.931  21.232   2.263
87437W        W59862  25.060  41.409   4.340
87438W        W59863   2.836   1.826  10.447
87439W        W59864   1.367  12.761  12.034
87440W        W59865  13.112  34.609   2.840
87441W        W59866  27.162  30.153   2.399
87442W        W59867   6.843   3.377  10.889
87443W        W59868  14.295   0.371   0.400
87444W        W59869  38.351  22.622   1.422
87445W        W59870   1.916  38.424  13.882
87446W        W59871  13.845  28.171   4.325
87447W        W59872  27.608  30.639  10.433
87448W        W59873   3.792   4.840  14.507
87449W        W59874   8.855  22.091  12.341
87450W        W59875  30.529  37.834   3.183
87451W        W59876   3.339   0.373   3.830
87452W        W59877  15.748   1.482   4.778
87453W        W59878  37.369  32.524  10.567
87454W        W59879  22.727   0.959  14.901
87455W        W59880  22.562  18.183   2.407
87456W        W59881  29.094  30.423   3.742
87457W        W59882  24.090  34.538  14.853
87458W        W59883  43.351  15.093  10.580
87459W        W59884  10.252  30.658   2.240
87460W        W59885  37.075  34.071   2.403
87461W        W59886   7.393  43.844   4.234
87462W        W59887  31.934  19.688  13.373
87463W        W59888  17.769  29.947  13.311
87464W        W59889   5.229   6.746   1.232
87465W        W59890  25.086  25.209  13.470
87466W        W59891  30.441  13.627  13.935
87467W        W59892   7.879  13.336  11.907
87468W        W59893   2.731  30.093   3.178
87469W        W59894  13.822   2.438  11.398
87470W        W59895  28.025  41.530  11.419
87471W        W59896  10.788  26.598  13.319
87472W        W59897   3.935  15.644   1.268
87473W        W59898   1.844   9.154   2.896
87474W        W59899  29.658  44.328   1.244
87475W        W59900  10.241  35.990   4.665
87476W        W59901  13.745  16.297  12.059
87477W        W59902  15.633   6.749   1.923
87478W        W59903  15.189  29.520  12.017
87479W        W59904  34.877  17.248   4.787
87480W        W59905  14.678  36.070  11.471
87481W        W59906   3.237  29.512   5.117
87482W        W59907   8.746   7.908  10.918
87483W        W59908  15.319  40.960   4.747
87484W        W59909  14.171   2.361  13.503
87485W        W59910  15.108  23.988   2.696
87486W        W59911  23.053  42.508   3.705
87487W        W59912   3.765  34.039   4.203
87488W        W59913   5.249  25.037   0.830
87489W        W59914  19.666   6.721  14.364
87490W        W59915  21.664   4.344   3.354
87491W        W59916   4.367  43.823  11.075
87492W        W59917  20.594  27.949  10.997
87493W        W59918  11.831  42.861   4.775
87494W        W59919  27.075  39.348   3.263
87495W        W59920  44.877  44.969   1.813
87496W        W59921  10.657  40.367   1.829
87497W        W59922  41.834  18.158  14.958
87498W        W59923  23.160  27.092   1.299
87499W        W59924  24.102   9.887   5.093
87500W        W59925  43.992  35.067   4.786
87501W        W59926  24.541   5.273   4.275
87502W        W59927   0.840  25.620   1.907
87503W        W59928   1.414   5.394  11.533
87504W        W59929  24.219  14.269   0.468
87505W        W59930  24.618  25.552   4.696
87506W        W59931  10.327  18.127   0.308
87507W        W59932  27.541  30.572   0.879
87508W        W59933  22.178   6.229   1.834
87509W        W59934  18.664   2.872  14.026
87510W        W59935  36.926  12.680   4.770
87511W        W59936  28.625   0.355   0.243
87512W        W59937   7.900  22.531  11.413
87513W        W59938  31.413  13.709  13.796
87514W        W59939  42.955  17.633  10.564
87515W        W59940   5.366  18.257   4.657
87516W        W59941  30.632  37.861  13.892
87517W        W59942  27.188   8.809   1.927
87518W        W59943  16.613  38.555   1.844
87519W        W59944  43.959  10.854  14.875
87520W        W59945  30.145   1.813   2.727
87521W        W59946  32.590  16.666  12.448
87522W        W59947  38.516  10.252   3.784
87523W        W59948  15.660  14.144   4.669
87524W        W59949   4.845  10.150   2.812
87525W        W59950  43.473  10.842  13.323
87526W        W59951  36.844  19.084  10.995
87527W        W59952  14.641  28.037   1.872
87528W        W59953  25.628  35.544  14.932
87529W        W59954  38.503  17.774  11.458
87530W        W59955  15.106  42.949   0.357
87531W        W59956  15.241  20.272   4.290
87532W        W59957  28.034  31.972   3.729
87533W        W59958  25.652  28.019  14.338
87534W        W59959  41.522  21.062   5.243
87535W        W59960   3.908   0.481  11.902
87536W        W59961  11.764  26.576   1.346
87537W        W59962  32.010  23.145  14.480
87538W        W59963  32.487  24.710   3.188
87539W        W59964   3.258  25.613  10.436
87540W        W59965  38.931  24.624   0.828
87541W        W59966  20.041  11.814  14.300
87542W        W59967  29.519   3.939   4.141
87543W        W59968  23.089  21.152  13.933
87544W        W59969  28.121  40.324   5.168
87545W        W59970  40.316   3.372   3.834
87546W        W59971  23.187  44.499   3.856
87547W        W59972  19.135   0.354   4.315
87548W        W59973  24.492  42.775  10.098
87549W        W59974  35.489  30.608  12.930
87550W        W59975  19.206  36.971   0.352
87551W        W59976  19.617  41.872   5.216
87552W        W59977   3.231   4.719   9.995
87553W        W59978   4.305  43.487  10.996
87554W        W59979   4.805  10.167  13.044
87555W        W59980  19.717  20.755   2.184
87556W        W59981  12.815   3.950  10.611
87557W        W59982  43.849  22.212  11.598
87558W        W59983  17.128   8.674  12.447
87559W        W59984  27.673  11.157  10.569
87560W        W59985  35.098  29.023   2.296
87561W        W59986  36.365  20.041   0.273
87562W        W59987   9.299  35.983  10.942
87563W        W59988  41.888   5.289  12.481
87564W        W59989  26.665   1.776  12.426
87565W        W59990   6.390  23.156   0.790
87566W        W59991  39.862   3.307  12.896
87567W        W59992  39.922  36.879   4.835
87568W        W59993  37.075   2.885  13.376
87569W        W59994   5.290  32.085  12.870
87570W        W59995   6.849  42.915  10.461
87571W        W59996  19.742  26.521  10.521
87572W        W59997   0.854  36.378   3.267
87573W        W59998  14.693  13.321   1.866
87574W        W59999   8.208  37.476  14.482
87575W        W60000  10.852  18.703  12.479
87576W        W60001   1.875   9.775   4.809
87577W        W60002  34.437  14.262  11.593
87578W        W60003  21.660  33.994  12.967
87579W        W60004  26.587  12.651  11.050
87580W        W60005   5.264  31.918  10.069
87581W        W60006  39.048  18.092   0.728
87582W        W60007  16.122  12.137  12.085
87583W        W60008   2.811  34.496   1.700
87584W        W60009  11.672  14.728   4.221
87585W        W60010  10.853  18.173   4.665
87586W        W60011  29.125  17.668  11.449
87587W        W60012  15.327  29.595  14.782
87588W        W60013  22.581  15.233   1.282
87589W        W60014   9.306   1.361   4.305
87590W        W60015  31.547  23.163   4.646
87591W        W60016   1.748   3.217  14.416
87592W        W60017  42.972   9.261  14.938
87593W        W60018  27.125  12.320   3.764
87594W        W60019  17.692   1.850  13.034
87595W        W60020  11.153  39.875   2.338
87596W        W60021   2.376  24.997   2.257
87597W        W60022   0.842  19.140   2.747
87598W        W60023  30.644  10.155  14.325
87599W        W60024  27.648  30.967   2.246
87600W        W60025  12.257  12.328   0.797
87601W        W60026  19.224  40.885  10.899
87602W        W60027  14.791  19.211  11.086
87603W        W60028  41.431  12.324   3.311
87604W        W60029  36.921  34.471  14.440
87605W        W60030   1.765  44.433  14.846
87606W        W60031  15.132  28.175  14.977
87607W        W60032  31.950  34.441  13.968
87608W        W60033  40.415  39.322   0.249
87609W        W60034   4.384  17.683  13.462
87610W        W60035  14.132  19.593   3.695
87611W        W60036  16.617  17.290   3.237
87612W        W60037  11.688  17.146  11.593
87613W        W60038  32.053  14.220  13.510
87614W        W60039   9.332  22.180  11.114
87615W        W60040  41.878  35.984   0.461
87616W        W60041  12.312  42.979  12.824
87617W        W60042  31.915  43.836  14.315
87618W        W60043   6.207  25.536   3.832
87619W        W60044  27.043  32.066  11.081
87620W        W60045  29.124  18.553   3.275
87621W        W60046  24.597  10.199   4.797
87622W        W60047  41.485  30.054  10.996
87623W        W60048  25.195  44.925   4.662
87624W        W60049  18.683   0.425  14.366
87625W        W60050  12.255   4.888   3.664
87626W        W60051   2.755  35.416  11.907
87627W        W60052   3.374  10.763   2.868
87628W        W60053  20.153  21.052  11.104
87629W        W60054  24.086  31.965   0.825
87630W        W60055  23.237  40.028   4.281
87631W        W60056  36.440  36.579   4.157
87632W        W60057  23.208  30.973   2.759
87633W        W60058  25.649  14.112  13.964
87634W        W60059  26.564  37.437   2.757
87635W        W60060   7.771   4.882   1.904
87636W        W60061   3.733   1.812  12.095
87637W        W60062  35.858  16.719  11.928
87638W        W60063  28.551  12.829   0.924
87639W        W60064  20.062  18.181  12.080
87640W        W60065  37.537  33.874  12.342
87641W        W60066  36.964   7.892   0.363
87642W        W60067   9.239  27.949  14.813
87643W        W60068  13.316  22.725   3.246
87644W        W60069  35.396  36.480  14.929
87645W        W60070  33.443  17.567   2.901
87646W        W60071  15.646  37.083  10.432
87647W        W60072  20.758  33.621   3.317
87648W        W60073  27.101  43.946   3.180
87649W        W60074  28.592  15.705   4.113
87650W        W60075  35.950  24.003   3.325
87651W        W60076  40.028  18.638   4.258
87652W        W60077   6.717  23.492  12.917
87653W        W60078   1.948  39.549   3.657
87654W        W60079   0.487  36.540  11.450
87655W        W60080  28.578  39.054  11.017
87656W        W60081  10.312  44.429   2.874
87657W        W60082  16.202   9.693   2.335
87658W        W60083  42.901  19.574  12.906
87659W        W60084  44.425  35.494   2.795
87660W        W60085  29.613  41.957  11.960
87661W        W60086  22.178   1.271   1.259
87662W        W60087  36.510  35.938  14.894
87663W        W60088  43.307   6.402  10.546
87664W        W60089  39.997  25.599  11.510
87665W        W60090  39.837  32.532   2.296
87666W        W60091  10.357  15.798   4.328
87667W        W60092  35.052  24.141  12.511
87668W        W60093  10.828   2.353  10.910
87669W        W60094  35.504  37.439   2.814
87670W        W60095  28.452  38.851   2.311
87671W        W60096  10.322  13.284  14.367
87672W        W60097  22.105  41.515   0.892
87673W        W60098  40.303  33.966  11.401
87674W        W60099  29.461  33.525  13.931
87675W        W60100  22.211   7.251  10.547
87676W        W60101   9.190  25.204  11.083
87677W        W60102  28.546   4.354   0.309
87678W        W60103  24.614  29.037  10.892
87679W        W60104  17.797  26.164  11.094
87680W        W60105  25.694  32.928   2.318
87681W        W60106  26.984  18.098  11.931
87682W        W60107  34.424  22.668  12.037
87683W        W60108  42.868  36.081  10.993
87684W        W60109  41.808  20.561   3.809
87685W        W60110   5.205   3.803  10.434
87686W        W60111  28.012  13.289  10.559
87687W        W60112   9.286  11.157  11.050
87688W        W60113  13.779  15.819  13.484
87689W        W60114   9.219  30.565   2.232
87690W        W60115  31.643   6.228  13.528
87691W        W60116  44.460  18.094  13.974
87692W        W60117  21.540  14.644  12.366
87693W        W60118  16.130  27.053  11.068
87694W        W60119  20.679   9.281  12.349
87695W        W60120   0.898  12.299  12.470
87696W        W60121   0.784  10.358   4.831
87697W        W60122  11.272  34.599  14.762
87698W        W60123  38.354   2.307   2.864
87699W        W60124  35.920  41.999   2.360
87700W        W60125  34.065   2.763   3.305
87701W        W60126   4.898  27.186  12.866
87702W        W60127  25.663  29.604  10.997
87703W        W60128  34.957  31.126  11.472
87704W        W60129  28.533  28.470   4.181
87705W        W60130   1.237  21.634   4.666
87706W        W60131  13.687   0.928   3.255
87707W        W60132  31.151  34.432  12.845
87708W        W60133  36.950  24.544   3.740
87709W        W60134  16.772  38.896  13.903
87710W        W60135  42.396   8.874  11.399
87711W        W60136  17.206  21.683   1.828
87712W        W60137  19.113  36.973  12.461
87713W        W60138  41.436  27.452   0.263
87714W        W60139   0.253  42.960  13.034
87715W        W60140  18.688  39.034  12.443
87716W        W60141  38.841   3.769   1.219
87717W        W60142  22.739  23.524  13.463
87718W        W60143  37.037  18.051   1.727
87719W        W60144  25.148  29.079  14.340
87720W        W60145  30.932  38.034   1.299
87721W        W60146  30.537  32.064   1.829
87722W        W60147  33.122  14.117  11.127
87723W        W60148  38.936  32.468   2.783
87724W        W60149   8.390  34.865   0.761
87725W        W60150  29.929  28.136   0.793
87726W        W60151  25.686  19.747   2.237
87727W        W60152  44.857  33.932   9.996
87728W        W60153   2.753  44.270   3.708
87729W        W60154  40.456  20.578   2.383
87730W        W60155   3.776  14.103   4.293
87731W        W60156  28.536  22.018   2.893
87732W        W60157  27.120  33.995   4.305
87733W        W60158   4.735  14.256   5.315
87734W        W60159  35.420   7.327   2.307
87735W        W60160  16.723  23.172   0.443
87736W        W60161  38.915  12.703   1.279
87737W        W60162  20.093   6.327   2.189
87738W        W60163  43.502  16.280   1.856
87739W        W60164  26.553  36.050  10.508
87740W        W60165   8.404  15.695  13.540
87741W        W60166  29.959   5.340   3.861
87742W        W60167   1.378  18.064   1.816
87743W        W60168  13.182   4.885   0.945
87744W        W60169  19.658  18.194  12.343
87745W        W60170   5.766  34.043  12.559
87746W        W60171  39.544  44.781  13.876
87747W        W60172  29.959  40.838  12.935
87748W        W60173  43.835  29.627   2.766
87749W        W60174  15.661   4.429   1.448
87750W        W60175   6.281  20.082   2.354
87751W        W60176  15.620  38.336   3.802
87752W        W60177  20.189  42.936  13.914
87753W        W60178  16.176   9.866  13.316
87754W        W60179  41.530   2.423   4.718
87755W        W60180  24.012  25.493  12.080
87756W        W60181   1.821  40.856  10.634
87757W        W60182  18.787  15.785  10.576
87758W        W60183   4.252   2.248  11.487
87759W        W60184  21.149  23.076  11.118
87760W        W60185  20.205   3.940   1.273
87761W        W60186  33.622  13.736  14.860
87762W        W60187  10.271  36.905  12.023
87763W        W60188  42.425   2.728  13.514
87764W        W60189   2.747   2.846  12.991
87765W        W60190  24.548  39.884   1.738
87766W        W60191  24.503   8.239   3.180
87767W        W60192  21.616  33.103   4.660
87768W        W60193  34.396  44.874  12.851
87769W        W60194  39.955   9.858   3.165
87770W        W60195  10.216  32.075  12.059
87771W        W60196   2.252  31.096  13.419
87772W        W60197  12.833  20.111  13.055
87773W        W60198   8.325  15.778  13.832
87774W        W60199   9.849  22.624  11.372
87775W        W60200  15.291  43.834   4.285
87776W        W60201  22.692   1.334   1.383
87777W        W60202  14.814   1.912   4.317
87778W        W60203   4.373  39.425  10.630
87779W        W60204  28.155  28.043   2.667
87780W        W60205  39.829  26.482  11.106
87781W        W60206  34.060  39.856   4.749
87782W        W60207  44.504  12.836   3.311
87783W        W60208  32.439  21.754   4.287
87784W        W60209   0.383   1.948   3.631
87785W        W60210   9.303  13.117   0.850
87786W        W60211  12.270   1.867   2.768
87787W        W60212   9.679   3.344  14.427
87788W        W60213  43.483  24.687   0.920
87789W        W60214  25.182  35.982   4.634
87790W        W60215  29.542  35.053   3.669
87791W        W60216  36.951   4.404  11.994
87792W        W60217  29.970   2.272   1.358
87793W        W60218  16.126  13.292   1.387
87794W        W60219  31.901  35.991  12.549
87795W        W60220  34.909   3.457  14.450
87796W        W60221  30.491  32.501   4.835
87797W        W60222  24.671  21.064  13.882
87798W        W60223   3.309   4.325   0.950
87799W        W60224  31.580  44.259   1.245
87800W        W60225  10.326  10.799  11.421
87801W        W60226   4.892  28.175  12.489
87802W        W60227  22.696  33.498   2.358
87803W        W60228  27.019   6.777   3.173
87804W        W60229  43.455   3.832   1.318
87805W        W60230  33.489  40.332   4.244
87806W        W60231   9.851  32.506   2.265
87807W        W60232  22.730  19.043   2.239
87808W        W60233  14.692  31.914   4.211
87809W        W60234   2.765  17.557   1.818
87810W        W60235   8.310  31.109  10.895
87811W        W60236  18.132  25.661   4.152
87812W        W60237  36.861  30.014   4.685
87813W        W60238   2.373  41.035   1.788
87814W        W60239  14.329  18.109   0.396
87815W        W60240   0.979  19.040   1.227
87816W        W60241  11.793   0.354   0.903
87817W        W60242  22.015  11.144  12.071
87818W        W60243  40.502  24.535   1.375
87819W        W60244  10.661   5.717   4.609
87820W        W60245  35.020  42.875  10.048
87821W        W60246   0.931   6.259   5.176
87822W        W60247  36.393   9.259   0.857
87823W        W60248  29.068  35.898   1.430
87824W        W60249  22.041  13.621   4.114
87825W        W60250  18.220  33.500  14.424
87826W        W60251  37.866  14.141  10.489
87827W        W60252  13.646   3.778  11.040
87828W        W60253  34.870  28.621   4.166
87829W        W60254   9.324  32.083  13.036
87830W        W60255   3.905  15.661   4.614
87831W        W60256  32.887  26.053  10.951
87832W        W60257  21.724  30.517   2.767
87833W        W60258  37.517   9.321   1.304
87834W        W60259  23.134  15.327  10.434
87835W        W60260  29.993   9.882  10.631
87836W        W60261  26.499  32.019  14.861
87837W        W60262   3.298  28.043  14.315
87838W        W60263  23.992  31.527   4.320
87839W        W60264  41.469   9.811   2.831
87840W        W60265   7.902  19.767  12.577
87841W        W60266  33.925  32.118  12.896
87842W        W60267  40.987  22.659  10.421
87843W        W60268  31.423  16.082   0.876
87844W        W60269   0.466  32.978  10.614
87845W        W60270  38.339  42.920   2.712
87846W        W60271  27.179  28.944   3.775
87847W        W60272   1.780  31.035   4.283
87848W        W60273   6.372  14.745   3.264
87849W        W60274  14.326  22.222  11.038
87850W        W60275  18.290  35.420   2.404
87851W        W60276  24.122  25.545  12.572
87852W        W60277  28.659   8.874   1.756
87853W        W60278  36.592  27.570   0.356
87854W        W60279  14.153  38.444   1.934
87855W        W60280  36.970  32.630   3.654
87856W        W60281  24.987   6.198  13.833
87857W        W60282  29.606  38.829  13.342
87858W        W60283  15.222  30.608   3.854
87859W        W60284   8.386  29.450  13.494
87860W        W60285  22.590   9.372   0.415
87861W        W60286  12.129  41.464  14.401
87862W        W60287  36.451  36.060   3.824
87863W        W60288  35.076  37.457   1.779
87864W        W60289   6.910  43.772   3.252
87865W        W60290  38.061  34.910   3.304
87866W        W60291  35.364  36.554  13.012
87867W        W60292  15.226  17.599   4.191
87868W        W60293  11.742  26.556   5.150
87869W        W60294  16.624  40.822  14.355
87870W        W60295  16.573  38.336  14.382
87871W        W60296   5.802  18.274   2.327
87872W        W60297  32.450   4.261  11.052
87873W        W60298  42.813  19.263   1.792
87874W        W60299  29.552  25.146  13.843
87875W        W60300  15.796  32.400  14.477
87876W        W60301   9.821   9.285   1.431
87877W        W60302  23.159  37.020   4.282
87878W        W60303  33.498   4.913   1.901
87879W        W60304  13.223  33.075   0.795
87880W        W60305  17.672  18.129  13.805
87881W        W60306  26.585  41.943  11.462
87882W        W60307  21.058  31.962  14.434
87883W        W60308  11.683  11.736  12.043
87884W        W60309  21.117   3.801   0.303
87885W        W60310  25.126  29.644  10.071
87886W        W60311  19.275  17.589  11.880
87887W        W60312  32.998  27.450  10.405
87888W        W60313  14.636  19.606  14.485
87889W        W60314  24.538  25.672  13.409
87890W        W60315  43.818  29.649  10.990
87891W        W60316  29.534   9.770   1.894
87892W        W60317  30.588  44.271  12.933
87893W        W60318   6.847  22.045  11.955
87894W        W60319  25.525  19.600   3.795
87895W        W60320  22.590  35.434  10.427
87896W        W60321  19.174   5.215   0.292
87897W        W60322  28.115  32.429   3.342
87898W        W60323  32.542   0.970   3.636
87899W        W60324   4.849   8.793   4.157
87900W        W60325  15.578  42.877   0.462
87901W        W60326   7.857  41.017   0.362
87902W        W60327  31.978  13.794   1.781
87903W        W60328   9.246   8.176  13.394
87904W        W60329  12.314  43.963   4.320
87905W        W60330  13.837   6.680  11.011
87906W        W60331  34.958  34.110   0.896
87907W        W60332  42.859  32.572   5.233
87908W        W60333  43.923   5.848   0.863
87909W        W60334  25.702  42.499  12.967
87910W        W60335  40.886  34.037  13.520
87911W        W60336   1.852  39.019  10.420
87912W        W60337  34.914   5.346  10.604
87913W        W60338  25.615  11.837  10.894
87914W        W60339  13.641  44.897  13.798
87915W        W60340  32.610  15.084  14.361
87916W        W60341  13.131   8.841   0.428
87917W        W60342  10.232   5.758  13.336
87918W        W60343   2.860   9.355   1.902
87919W        W60344  28.023  25.020  12.004
87920W        W60345   9.824  31.146   2.278
87921W        W60346  31.141  40.901  13.355
87922W        W60347   6.833  41.861  12.007
87923W        W60348  19.605  39.457  14.966
87924W        W60349  26.138  16.666  10.450
87925W        W60350  34.993  22.246  12.474
87926W        W60351  41.902  10.315  11.391
87927W        W60352  43.974   1.480  12.941
87928W        W60353  39.841  30.497  11.923
87929W        W60354   3.389  24.204  12.389
87930W        W60355   0.426  28.936  13.882
87931W        W60356  25.532  39.045  11.994
87932W        W60357  28.064   9.309   0.331
87933W        W60358  39.887  35.375   2.194
87934W        W60359  27.638  44.295   3.747
87935W        W60360  40.310  32.601   1.246
87936W        W60361  25.099  43.447   2.316
87937W        W60362  31.946  11.835  12.358
87938W        W60363  33.383  14.658   3.217
87939W        W60364  19.196  14.135   3.221
87940W        W60365  24.504  16.081   2.245
87941W        W60366   2.331  29.055   0.265
87942W        W60367  33.982  26.644  13.885
87943W        W60368  35.543  19.159   2.743
87944W        W60369  11.365   8.878   4.250
87945W        W60370  31.036  26.614  14.966
87946W        W60371  18.695  16.114  12.374
87947W        W60372  13.743  12.723  10.608
87948W        W60373   3.717  23.215  10.963
87949W        W60374  38.886  24.610  14.483
87950W        W60375  21.040  23.557   4.170
87951W        W60376  35.443  22.510   2.279
87952W        W60377  30.602  26.565   2.706
87953W        W60378  36.971  42.484  10.486
87954W        W60379  10.217  15.187   1.237
87955W        W60380  29.047  26.544  12.824
87956W        W60381  16.193  30.558   4.828
87957W        W60382  42.860  17.090  13.026
87958W        W60383   7.803  22.193  12.509
87959W        W60384  32.923  15.323   1.252
87960W        W60385   4.845  17.122   3.202
87961W        W60386  30.061  10.791   1.748
87962W        W60387   7.880  31.088   0.260
87963W        W60388  27.496  31.497   9.951
87964W        W60389  11.188  32.416  10.528
87965W        W60390   3.778  25.658  10.960
87966W        W60391  18.117  24.511   3.239
87967W        W60392  23.613  40.546  12.540
87968W        W60393  34.909  41.376   3.652
87969W        W60394  44.412   8.858   1.342
87970W        W60395  25.061  17.601  14.873
87971W        W60396  41.497  28.059   4.819
87972W        W60397  11.783   2.945   2.803
87973W        W60398  11.165   5.318   3.257
87974W        W60399  41.949  30.909   2.284
87975W        W60400   8.266   9.244   2.418
87976W        W60401  39.520  18.589   2.418
87977W        W60402  39.438  26.476   1.281
87978W        W60403  17.567  13.651  10.987
87979W        W60404  37.832  43.965  12.847
87980W        W60405  19.249  37.515  12.952
87981W        W60406  24.565  31.965  13.800
87982W        W60407  33.506  17.595  12.494
87983W        W60408  11.142  34.474   0.335
87984W        W60409  24.166  28.591  11.915
87985W        W60410   3.427  32.495   4.769
87986W        W60411  29.669   7.714  14.321
87987W        W60412  31.902   6.196  13.331
87988W        W60413  40.309  32.585  10.968
87989W        W60414  41.354  26.520   0.812
87990W        W60415   9.392  23.601   2.757
87991W        W60416  19.734  44.455  11.117
87992W        W60417  31.109   8.766  12.377
87993W        W60418  26.103   5.741  14.293
87994W        W60419   4.890  20.141   4.333
87995W        W60420  23.990   2.467  11.584
87996W        W60421  27.947   2.780  11.051
87997W        W60422   4.887  10.269   2.266
87998W        W60423  37.950  21.745  10.480
87999W        W60424  24.712   1.886  13.489
88000W        W60425  37.835   7.810  12.558
88001W        W60426  33.565  43.924  11.587
88002W        W60427  23.060  16.603   4.265
88003W        W60428  27.470  10.356  14.896
88004W        W60429  39.454   6.789  13.340
88005W        W60430  13.183  24.148  12.375
88006W        W60431   1.832  14.627   0.899
88007W        W60432  31.947  26.625  12.515
88008W        W60433  44.395  38.439  13.869
88009W        W60434   8.752   8.893  14.458
88010W        W60435  27.645   2.913   0.369
88011W        W60436   4.284   7.899   4.668
88012W        W60437   0.852  13.316  13.350
88013W        W60438  34.400  36.026   3.196
88014W        W60439  37.867  23.650   2.849
88015W        W60440  43.461  23.732   1.284
88016W        W60441  34.061   4.902  10.498
88017W        W60442  16.583  17.690  13.506
88018W        W60443  22.068   5.866  11.517
88019W        W60444   0.342  35.966  12.023
88020W        W60445   1.842  27.141  12.427
88021W        W60446  21.072  21.195  10.510
88022W        W60447  19.099  38.046   0.268
88023W        W60448   2.946  10.863  11.900
88024W        W60449   9.813  16.241   1.898
88025W        W60450  21.210  28.532   4.800
88026W        W60451   5.786  13.647   2.390
88027W        W60452  44.397  34.500   3.846
88028W        W60453  40.929   6.345  12.438
88029W        W60454  44.437  15.600  13.961
88030W        W60455  14.769  43.420  11.909
88031W        W60456  36.041  29.458   4.156
88032W        W60457   6.758  30.157  13.459
88033W        W60458  42.907  14.660   3.317
88034W        W60459  13.254  35.967  12.344
88035W        W60460   0.411  30.073  13.362
88036W        W60461   3.933  29.964  10.946
88037W        W60462   5.712  24.526  11.569
88038W        W60463  36.897  13.714  10.517
88039W        W60464  19.114   1.912   4.723
88040W        W60465   8.691  38.484   2.323
88041W        W60466  41.398  29.015  14.415
88042W        W60467  39.474  29.941  14.814
88043W        W60468  28.133  25.532  12.482
88044W        W60469   5.852   3.832  12.405
88045W        W60470  35.902  19.568  13.436
88046W        W60471   3.813  41.433  14.396
88047W        W60472  39.882  12.303  10.539
88048W        W60473  25.603  37.394  11.087
88049W        W60474  31.518   6.387  12.380
88050W        W60475  40.895  35.442   4.346
88051W        W60476  39.444  23.583  12.495
88052W        W60477  19.555   9.662   2.683
88053W        W60478  28.007  39.023  13.795
88054W        W60479  15.617  33.123   1.749
88055W        W60480  30.497   2.790  13.350
88056W        W60481  42.950  41.887  13.029
88057W        W60482  40.011  31.532  13.826
88058W        W60483  10.640  33.497  14.930
88059W        W60484  23.700  17.630   3.282
88060W        W60485  33.126  38.057   1.220
88061W        W60486  25.492  32.065  10.502
88062W        W60487  17.170   0.814  10.911
88063W        W60488   8.348  27.963  11.496
88064W        W60489  44.756  27.502  12.367
88065W        W60490  43.474   4.444   4.338
88066W        W60491   2.866  27.502   0.331
88067W        W60492  23.590  39.864  10.431
88068W        W60493  17.594  32.598   2.869
88069W        W60494  36.882  44.327  10.597
88070W        W60495  18.245  33.530  11.106
88071W        W60496  14.791  37.426   4.336
88072W        W60497   4.733   0.910   3.357
88073W        W60498  33.540  33.458  13.411
88074W        W60499   0.955  17.617   1.307
88075W        W60500   6.753  11.140   2.786
88076W        W60501  43.976   4.402   2.284
88077W        W60502  23.213  16.212  14.906
88078W        W60503   2.936  30.441  13.792
88079W        W60504  42.519   5.873  13.513
88080W        W60505  26.587  11.734   4.207
88081W        W60506  44.400   5.787  12.994
88082W        W60507   5.202  14.112   1.801
88083W        W60508  21.202  30.110   0.396
88084W        W60509  14.673  31.126   2.393
88085W        W60510  27.126   6.334  12.522
88086W        W60511  29.627  35.047   0.860
88087W        W60512  39.334   4.760   4.283
88088W        W60513  15.660  41.001  11.086
88089W        W60514  29.016  22.157   0.841
88090W        W60515  18.268   6.208  13.052
88091W        W60516   8.269   0.349   4.730
88092W        W60517  17.629  34.083   2.297
88093W        W60518   7.304  34.087  12.391
88094W        W60519  20.039  33.118  12.965
88095W        W60520   7.788  39.001  14.467
88096W        W60521  16.135  32.078   2.734
88097W        W60522   3.887  18.145  11.985
88098W        W60523  10.662  26.991  13.316
88099W        W60524  34.564  11.780  10.631
88100W        W60525  32.462  16.281   1.432
88101W        W60526  26.496   3.235   0.879
88102W        W60527   2.274   7.261   2.705
88103W        W60528  28.930  32.436  12.014
88104W        W60529  11.168  20.685   3.652
88105W        W60530  40.379  17.651   0.261
88106W        W60531  34.531   2.903  14.910
88107W        W60532  23.704  28.946   1.345
88108W        W60533  32.016  20.261  11.452
88109W        W60534  20.748  27.068   1.420
88110W        W60535   0.857  39.543  13.363
88111W        W60536  15.302  28.588  13.967
88112W        W60537  34.872   8.396   5.239
88113W        W60538  12.308   0.436   3.756
88114W        W60539  30.065  25.059  13.833
88115W        W60540  10.197   8.261  14.994
88116W        W60541  39.350   3.353   2.410
88117W        W60542   4.208  35.867  12.448
88118W        W60543  18.586   5.716  12.360
88119W        W60544  19.178  39.003   2.737
88120W        W60545  15.311  42.346  14.857
88121W        W60546  19.737  22.533  13.528
88122W        W60547  15.287   4.748   5.238
88123W        W60548  44.968  40.807   2.203
88124W        W60549  37.429  13.316   1.928
88125W        W60550  29.629  10.640   4.254
88126W        W60551  22.594   3.358  14.428
88127W        W60552   3.892  10.349   2.895
88128W        W60553  37.071  17.556   1.922
88129W        W60554  40.432  32.049   0.335
88130W        W60555  33.513   7.862   1.912
88131W        W60556  12.820  29.146   4.719
88132W        W60557  34.066  29.135  13.366
88133W        W60558  38.856   0.827  14.322
88134W        W60559  41.925  13.736   2.764
88135W        W60560  23.680  31.446   3.777
88136W        W60561  14.803  19.203   0.867
88137W        W60562   4.760  21.523   2.322
88138W        W60563  25.029   6.380   3.861
88139W        W60564  16.602  10.210   4.653
88140W        W60565  12.187   3.395  10.414
88141W        W60566  39.827  39.361   0.342
88142W        W60567  14.299  37.540   0.467
88143W        W60568  22.581  39.916  10.158
88144W        W60569   4.793   2.909   4.119
88145W        W60570  13.223   4.922  11.475
88146W        W60571   2.765   1.926   4.699
88147W        W60572   9.795  33.436   2.410
88148W        W60573  30.623  28.096  11.870
88149W        W60574  16.664  31.935   3.364
88150W        W60575  30.650  38.566   4.182
88151W        W60576  11.687   0.755   3.666
88152W        W60577  36.062  14.123  14.334
88153W        W60578  21.615  36.458   0.300
88154W        W60579  19.538  23.235   0.964
88155W        W60580  27.594   7.333   4.319
88156W        W60581  16.091  27.139   3.739
88157W        W60582  31.605  16.253  12.906
88158W        W60583  10.693  34.512  13.039
88159W        W60584  12.210   5.799   4.628
88160W        W60585  34.414   5.337  11.523
88161W        W60586  43.482   8.756  13.366
88162W        W60587   8.364  44.920   4.193
88163W        W60588  14.313  33.560  14.309
88164W        W60589  13.748   4.228  10.636
88165W        W60590  43.437  23.175  11.934
88166W        W60591  28.094   3.438  11.012
88167W        W60592  34.494   7.397  11.476
88168W        W60593  43.777   8.681  14.894
88169W        W60594  16.593  10.200  11.394
88170W        W60595  19.627  27.684   1.285
88171W        W60596  17.680  44.390   3.777
88172W        W60597  38.366  14.305  14.994
88173W        W60598  12.334  10.311  14.378
88174W        W60599  43.409   3.712   2.328
88175W        W60600  32.016  25.045  14.771
88176W        W60601  38.981  11.845  12.483
88177W        W60602  17.739  35.929   4.668
88178W        W60603  13.644  25.199  11.870
88179W        W60604  34.383  26.039   1.255
88180W        W60605  15.212   7.880   2.865
88181W        W60606  28.121  27.997   3.190
88182W        W60607  18.167  12.306   0.429
88183W        W60608  17.759  14.610   2.364
88184W        W60609  35.437  27.060  11.985
88185W        W60610  36.928  26.561  13.313
88186W        W60611   7.372   1.900   4.690
88187W        W60612  41.504  24.555   4.818
88188W        W60613  44.303   8.256   4.637
88189W        W60614  29.156  12.235   4.288
88190W        W60615  15.246  21.747  11.536
88191W        W60616   8.667  35.930   4.634
88192W        W60617  11.214  44.323  11.932
88193W        W60618  22.102  32.567  14.445
88194W        W60619   4.227   7.241  14.428
88195W        W60620  44.277  20.622  11.472
88196W        W60621  24.130  12.792  11.500
88197W        W60622   5.231  11.835   1.341
88198W        W60623   0.494  38.872  14.805
88199W        W60624  17.615  42.319  10.529
88200W        W60625  29.945  29.103   0.428
88201W        W60626  20.616  43.898  14.870
88202W        W60627  25.691  35.860   1.761
88203W        W60628  39.824   3.435  11.044
88204W        W60629  28.954  19.267   0.841
88205W        W60630  13.221  32.130  14.881
88206W        W60631  16.606  15.305   0.875
88207W        W60632  26.075   9.859  14.893
88208W        W60633  13.123  16.225   1.836
88209W        W60634  11.339  37.562   4.624
88210W        W60635  23.647   7.896   4.181
88211W        W60636  22.563   9.821  10.916
88212W        W60637   6.748   2.931  11.888
88213W        W60638  33.992  26.072   2.399
88214W        W60639  15.610  22.653   1.891
88215W        W60640  30.501  32.637   0.375
88216W        W60641  12.235  12.281   3.759
88217W        W60642  28.654  27.670   4.735
88218W        W60643  20.625   5.924  12.015
88219W        W60644   6.409  37.868  10.958
88220W        W60645  13.316  40.495   0.899
88221W        W60646  38.407   4.237   3.815
88222W        W60647   6.273  44.467  11.871
88223W        W60648  28.532  21.186  14.944
88224W        W60649  14.690   7.337   2.686
88225W        W60650   2.448  23.986   3.385
88226W        W60651  12.259  15.198  10.933
88227W        W60652  20.104   5.356   2.221
88228W        W60653   1.963  36.416   4.765
88229W        W60654  34.882  37.492  10.559
88230W        W60655   5.249  35.059   2.751
88231W        W60656  43.383   2.373   3.188
88232W        W60657  43.420   2.449   3.809
88233W        W60658  16.076  15.800  13.855
88234W        W60659  35.395  43.012   3.338
88235W        W60660  21.208   7.192  14.021
88236W        W60661  36.089  38.057   4.626
88237W        W60662   8.373  21.757  14.375
88238W        W60663  27.196  39.940   0.800
88239W        W60664  17.686  10.648  14.331
88240W        W60665  42.415  41.470   1.726
88241W        W60666   4.839   6.337  13.028
88242W        W60667   6.409  11.713   4.615
88243W        W60668  33.121  11.802   3.206
88244W        W60669  11.761  31.018  10.508
88245W        W60670  21.200   7.778   2.296
88246W        W60671  34.042  20.119   4.264
88247W        W60672   9.243  34.474  12.514
88248W        W60673  29.930  42.946  13.501
88249W        W60674   2.431  21.632   2.819
88250W        W60675  27.967   3.239   9.954
88251W        W60676  19.151  36.443  13.978
88252W        W60677   4.392  25.157  11.480
88253W        W60678   1.792  36.499   0.418
88254W        W60679  14.758  26.494   0.378
88255W        W60680  11.654  44.358   4.213
88256W        W60681  25.627   2.855  13.993
88257W        W60682   1.930   7.804  11.016
88258W        W60683  34.522   8.390  14.335
88259W        W60684  40.386  35.932  14.807
88260W        W60685   5.705  38.994   1.413
88261W        W60686  42.914  28.066   1.833
88262W        W60687  42.374  30.445  12.562
88263W        W60688  33.560   1.281   4.764
88264W        W60689  39.486  11.140   2.406
88265W        W60690  41.966   5.883  14.400
88266W        W60691  19.736   6.262   0.242
88267W        W60692   8.306  41.967   4.326
88268W        W60693  18.606  35.525  11.904
88269W        W60694  11.631  33.567   4.269
88270W        W60695  28.027  37.023  14.463
88271W        W60696  28.532  12.735   1.375
88272W        W60697  17.135  37.437  11.108
88273W        W60698   9.155  39.901  10.560
88274W        W60699  14.816  18.545  10.471
88275W        W60700  35.473  36.548  12.045
88276W        W60701   3.782  10.304  13.338
88277W        W60702   4.764   9.670   1.405
88278W        W60703  26.527   9.288   2.886
88279W        W60704   2.240  18.712  13.532
88280W        W60705  34.928  39.895  11.923
88281W        W60706  27.504  19.057  10.912
88282W        W60707  29.459   9.333   4.330
88283W        W60708  35.975  29.126   4.218
88284W        W60709   3.926   5.235  10.933
88285W        W60710  24.681  29.494  12.556
88286W        W60711   7.367  33.608   0.748
88287W        W60712   3.835  36.094  12.063
88288W        W60713  26.660   1.834   0.825
88289W        W60714  43.339   9.735   4.677
88290W        W60715  34.411  19.621   0.434
88291W        W60716  31.625  10.377   3.791
88292W        W60717  20.179  39.022  10.928
88293W        W60718  36.937  31.425   3.308
88294W        W60719  24.181  29.479  12.068
88295W        W60720   8.898  16.805  11.575
88296W        W60721   0.268   1.779  11.379
88297W        W60722   5.264  42.323   1.264
88298W        W60723   3.436  30.141   2.199
88299W        W60724  33.014  26.488   0.913
88300W        W60725  10.658  18.281   3.787
88301W        W60726  29.108  41.437  12.920
88302W        W60727  22.605  19.621   4.192
88303W        W60728  36.414  31.590  12.526
88304W        W60729  21.723   0.801  10.595
88305W        W60730  16.746  12.296   3.764
88306W        W60731  25.664  27.587  12.442
88307W        W60732  34.574   4.862   4.169
88308W        W60733  16.604  27.485   3.732
88309W        W60734  18.646  33.073  10.064
88310W        W60735  15.310   1.439  14.282
88311W        W60736  34.555  27.148   4.174
88312W        W60737   9.283   5.362  14.895
88313W        W60738  33.124  20.081  14.446
88314W        W60739  28.577  40.049   3.294
88315W        W60740  16.768  37.981  10.586
88316W        W60741  41.298  31.448  13.537
88317W        W60742  18.572   0.819  10.574
88318W        W60743   9.773   8.253  11.541
88319W        W60744  44.779  16.672   3.255
88320W        W60745  30.145  18.613  13.793
88321W        W60746   5.396  10.251   0.312
88322W        W60747  20.076  13.630  14.864
88323W        W60748  44.301  26.526  14.281
88324W        W60749  40.379   6.191   3.747
88325W        W60750  44.827  36.066   3.325
88326W        W60751  39.024  19.242  12.391
88327W        W60752  36.957   3.789  11.498
88328W        W60753   9.375   7.386  10.481
88329W        W60754  24.657   5.340   0.438
88330W        W60755  25.117  24.514   2.760
88331W        W60756  23.521  25.650   4.673
88332W        W60757  16.261  20.695   2.379
88333W        W60758  29.979   5.217  11.027
88334W        W60759   9.350  11.213   1.307
88335W        W60760  28.528  38.870  12.427
88336W        W60761   6.423  26.202   4.808
88337W        W60762  25.017  38.345  11.469
88338W        W60763  30.595  25.979   4.792
88339W        W60764  41.400  31.076   1.259
88340W        W60765  26.523  39.528  12.504
88341W        W60766  12.234   8.402   1.915
88342W        W60767  21.133   4.835  13.418
88343W        W60768  10.839  30.649  14.462
88344W        W60769  24.594  25.010   4.688
88345W        W60770  16.185   6.234  14.876
88346W        W60771  24.152  41.789   0.400
88347W        W60772  42.433  40.310  12.984
88348W        W60773  41.844  42.398  14.783
88349W        W60774  31.558  15.796   2.240
88350W        W60775  15.618  28.456   1.812
88351W        W60776  30.070  38.471  13.473
88352W        W60777   9.838  12.743  14.923
88353W        W60778   9.369  13.237   3.364
88354W        W60779   9.872  14.165   3.205
88355W        W60780  31.897  20.654   1.427
88356W        W60781  26.207  42.017   0.422
88357W        W60782  23.668   7.803  12.534
88358W        W60783  17.096   0.275  10.992
88359W        W60784  30.155  28.585   2.254
88360W        W60785   3.871  34.930   1.736
88361W        W60786   8.671   5.887   3.249
88362W        W60787  18.265  25.986   0.473
88363W        W60788  23.597  32.126   1.353
88364W        W60789  36.066  20.523   0.743
88365W        W60790  24.486  16.611   1.836
88366W        W60791   2.852  24.203   2.262
88367W        W60792  25.973  41.298  14.763
88368W        W60793  25.699  15.723   4.168
88369W        W60794  10.343   3.753   4.294
88370W        W60795  39.815  24.575  12.975
88371W        W60796  31.537  29.460  10.525
88372W        W60797  19.613   4.777  11.609
88373W        W60798  43.834  21.679  10.083
88374W        W60799  33.965  35.411   0.426
88375W        W60800   5.373  15.765  14.477
88376W        W60801  16.223   6.419   0.435
88377W        W60802  31.089  18.120  11.127
88378W        W60803  17.177  16.195   1.722
88379W        W60804   7.772   0.332   3.350
88380W        W60805   6.831  38.000  12.554
88381W        W60806  11.196  12.705   4.837
88382W        W60807   1.423  24.105   2.736
88383W        W60808  29.095  37.974   1.394
88384W        W60809  39.530  43.992   1.839
88385W        W60810  23.669  13.733   0.293
88386W        W60811  44.945  37.901  11.041
88387W        W60812  15.145  31.420  13.902
88388W        W60813  29.435   3.405   4.758
88389W        W60814  36.851  43.997   2.850
88390W        W60815  11.244  44.382  10.538
88391W        W60816  30.042  24.009   0.257
88392W        W60817  34.991  31.014  14.515
88393W        W60818  14.265   8.890  10.420
88394W        W60819  21.106   9.777   0.320
88395W        W60820  35.602   9.188  12.874
88396W        W60821  34.569  40.983  11.410
88397W        W60822  28.083  21.190   2.360
88398W        W60823  29.963   3.414  13.921
88399W        W60824  14.189  31.952  13.353
88400W        W60825  22.179  10.641   2.791
88401W        W60826  35.463   9.824  12.049
88402W        W60827  32.553   6.279   1.330
88403W        W60828  36.589  31.504  10.925
88404W        W60829   6.286   2.333   0.962
88405W        W60830  34.009  25.538   1.220
88406W        W60831   4.337   6.707  12.022
88407W        W60832  29.491  27.979   1.244
88408W        W60833  40.442  43.992   0.848
88409W        W60834  12.723  36.360   4.266
88410W        W60835  39.838   7.307   4.207
88411W        W60836   4.256  21.028  11.434
88412W        W60837  27.033  14.305   4.653
88413W        W60838  30.134  38.412   4.740
88414W        W60839  14.831   3.289  11.903
88415W        W60840  43.351  35.964  13.055
88416W        W60841  41.871   5.241  14.959
88417W        W60842  36.028   6.278   4.284
88418W        W60843   8.750  30.025   3.666
88419W        W60844   9.717  35.946   3.743
88420W        W60845  13.273   3.443  12.071
88421W        W60846  13.702  29.430  14.833
88422W        W60847  30.576  40.961   4.296
88423W        W60848   8.395  19.233   4.797
88424W        W60849  18.277  17.747   0.914
88425W        W60850  11.177  27.676  12.092
88426W        W60851  41.816  19.202   2.877
88427W        W60852  42.368  35.043  11.555
88428W        W60853  14.808  29.563  12.064
88429W        W60854  38.037   3.860  13.354
88430W        W60855  39.449   9.863   2.766
88431W        W60856   8.800  27.550  12.478
88432W        W60857   2.773   5.237   0.258
88433W        W60858  13.664  37.578  12.487
88434W        W60859  31.991  41.794   3.820
88435W        W60860  37.547   0.387   9.983
88436W        W60861  33.602  40.335  10.484
88437W        W60862  38.401  42.354   2.341
88438W        W60863  10.716  40.896  13.447
88439W        W60864  16.602  29.515   4.172
88440W        W60865   3.293   0.348   3.188
88441W        W60866  25.639  16.192   2.698
88442W        W60867  15.096   1.893   0.350
88443W        W60868   7.183   2.422   3.356
88444W        W60869  33.393  39.348   2.370
88445W        W60870  25.473  29.624   3.658
88446W        W60871   5.369  41.464   3.210
88447W        W60872  33.113  39.416   4.313
88448W        W60873  28.643  34.570   2.725
88449W        W60874  36.902  44.470   4.135
88450W        W60875  32.425  30.648  13.868
88451W        W60876  40.504   7.172   4.149
88452W        W60877  31.554  38.450   1.933
88453W        W60878  28.018  25.686  12.060
88454W        W60879   9.686  26.964  12.894
88455W        W60880   9.361  10.820   0.332
88456W        W60881  29.610  16.644   2.389
88457W        W60882  43.280  32.889  11.565
88458W        W60883  42.434  31.595  13.020
88459W        W60884  31.046  27.524   4.721
88460W        W60885  28.554  41.017   3.236
88461W        W60886  40.333  15.682  12.013
88462W        W60887  14.218  36.580  12.539
88463W        W60888  19.118   5.839   3.779
88464W        W60889  34.965  16.700  11.906
88465W        W60890  37.458  38.464   9.976
88466W        W60891  25.159  38.327  14.398
88467W        W60892  18.597  20.690   2.362
88468W        W60893   0.837   1.245  12.846
88469W        W60894  33.025  37.879  11.886
88470W        W60895   2.799  16.190  10.479
88471W        W60896  36.097  14.804   4.712
88472W        W60897   8.173   4.899   3.186
88473W        W60898   4.778  16.693   2.696
88474W        W60899  13.599  23.049  13.336
88475W        W60900  26.022   4.782  13.040
88476W        W60901  27.500  30.635   0.359
88477W        W60902  35.033  14.814   4.716
88478W        W60903   7.867  32.995   0.768
88479W        W60904  34.108  39.479   2.208
88480W        W60905  44.317   7.309  13.430
88481W        W60906  44.374   7.741  11.544
88482W        W60907  11.282   7.311  13.544
88483W        W60908  37.004   6.309   5.591
88484W        W60909  44.947  13.835   3.633
88485W        W60910   0.863   0.304   3.180
88486W        W60911  21.725   3.822   1.850
88487W        W60912  29.041  23.069  11.409
88488W        W60913   3.271   4.356  12.014
88489W        W60914  17.243   2.920  14.283
88490W        W60915  22.135  19.598   0.949
88491W        W60916  10.156   3.873  10.954
88492W        W60917  23.683  14.096  13.363
88493W        W60918   4.793  43.828  14.371
88494W        W60919  29.526  25.635  13.478
88495W        W60920   6.375  34.490   4.799
88496W        W60921   4.840  44.477   1.283
88497W        W60922   6.853  11.726   2.300
88498W        W60923  18.150  30.462   3.250
88499W        W60924  28.024  27.184  11.490
88500W        W60925   1.764  35.491  14.379
88501W        W60926  23.623  38.505   0.898
88502W        W60927   3.218  36.043  13.912
88503W        W60928  13.179  35.481  14.396
88504W        W60929  24.575  44.859  10.896
88505W        W60930  41.425  41.361  11.933
88506W        W60931  27.595  30.922  12.514
88507W        W60932  30.961  39.443  12.950
88508W        W60933  27.162  11.208   2.326
88509W        W60934  10.679  17.686   1.756
88510W        W60935  43.485  31.103   4.635
88511W        W60936   5.752  21.253   1.449
88512W        W60937  27.620  10.867  14.489
88513W        W60938  31.990  24.123   0.465
88514W        W60939  41.926  12.722  12.052
88515W        W60940  28.500  44.331   2.782
88516W        W60941  32.947  43.858   2.688
88517W        W60942  43.902   0.334  13.326
88518W        W60943  32.616  34.586  10.892
88519W        W60944  18.230  28.095   3.845
88520W        W60945  27.537   7.877   3.711
88521W        W60946  43.846  10.832   4.130
88522W        W60947   8.247  13.835   0.296
88523W        W60948   7.172  43.326  14.009
88524W        W60949  26.626  44.457   3.861
88525W        W60950   9.290  30.116   0.799
88526W        W60951  40.410  21.533  14.399
88527W        W60952  21.525  36.543  10.526
88528W        W60953  20.256  37.063  10.610
88529W        W60954  22.595  19.116   4.267
88530W        W60955  21.533  44.341  10.583
88531W        W60956  36.005   8.193   1.873
88532W        W60957   3.241  34.435  12.954
88533W        W60958   1.479  23.684   2.748
88534W        W60959   6.847   8.835  12.087
88535W        W60960  39.515   3.926   2.351
88536W        W60961  17.244  43.822  10.604
88537W        W60962  13.216  32.561   3.858
88538W        W60963   4.816  27.979   1.450
88539W        W60964  34.480  39.865  14.788
88540W        W60965  19.645  41.530   0.762
88541W        W60966  26.594  31.424  13.937
88542W        W60967  40.377  41.530  11.043
88543W        W60968  32.611  15.276  11.988
88544W        W60969  41.306  40.023  11.523
88545W        W60970   5.352   0.872  10.520
88546W        W60971   9.286  42.463  14.980
88547W        W60972  23.716  15.658   0.962
88548W        W60973  32.006   1.381   1.440
88549W        W60974  32.418  19.572  11.075
88550W        W60975  43.813  26.159  12.390
88551W        W60976  42.446   6.363   0.431
88552W        W60977   9.361   6.790  12.526
88553W        W60978  33.875  34.934  11.461
88554W        W60979  16.574  39.998  11.029
88555W        W60980   1.923  26.015   1.365
88556W        W60981  23.098  43.810   0.335
88557W        W60982  13.676   9.326   0.249
88558W        W60983  22.217  20.623  11.583
88559W        W60984  14.635  41.518  10.544
88560W        W60985  35.991   3.216  11.542
88561W        W60986  26.526  43.326  14.910
88562W        W60987   0.843  12.200  10.437
88563W        W60988  40.052  30.594  14.896
88564W        W60989   8.226  14.097   3.663
88565W        W60990  19.637  41.969  14.392
88566W        W60991   9.872  43.484  12.039
88567W        W60992   6.291   7.201  12.427
88568W        W60993   1.889  39.960  11.977
88569W        W60994  30.080  19.654  11.404
88570W        W60995  37.070  23.235  11.051
88571W        W60996  29.612  25.218  10.137
88572W        W60997  16.301  27.580  10.977
88573W        W60998   1.389   4.308   1.733
88574W        W60999  26.098  13.142   4.735
88575W        W61000   8.810  36.513   0.908
88576W        W61001  41.961  27.633  14.801
88577W        W61002  12.315   1.412  12.096
88578W        W61003  34.588  31.628  12.096
88579W        W61004   7.719   6.261   4.647
88580W        W61005  17.769  15.296   4.633
88581W        W61006  31.586   8.662  12.392
88582W        W61007  20.157  21.249   3.272
88583W        W61008  33.561  22.999  13.855
88584W        W61009   6.370   9.216  14.367
88585W        W61010  27.528  43.916   2.362
88586W        W61011   2.363  44.990   3.698
88587W        W61012   9.227  12.167  12.868
88588W        W61013   3.228  34.947   0.841
88589W        W61014   5.391  27.011   4.656
88590W        W61015  43.372  17.099  11.922
88591W        W61016   7.777  35.875   4.338
88592W        W61017   8.657  38.956  11.577
88593W        W61018  17.771  14.833   3.317
88594W        W61019  23.003  13.326  11.128
88595W        W61020  31.530  32.939   3.254
88596W        W61021  16.130   0.349  11.984
88597W        W61022  36.399  21.026  12.913
88598W        W61023   4.833  12.192   3.658
88599W        W61024  26.989  29.998  10.563
88600W        W61025  31.645  18.571  14.333
88601W        W61026  41.014  12.712   1.884
88602W        W61027  42.381  35.591   0.875
88603W        W61028   8.760  30.018   3.308
88604W        W61029  17.604  16.101  14.323
88605W        W61030  26.147  41.308  13.820
88606W        W61031   8.894  22.196   1.807
88607W        W61032  44.395  43.021  12.882
88608W        W61033   7.836  27.549  12.567
88609W        W61034  25.488  42.788   9.956
88610W        W61035   9.700  16.663   4.319
88611W        W61036  13.233  44.914   3.152
88612W        W61037  19.139  20.256   4.740
88613W        W61038   8.303  30.106   2.352
88614W        W61039  43.939  39.510  11.085
88615W        W61040  23.238   7.201   1.360
88616W        W61041  23.222  30.564   2.321
88617W        W61042   4.876  31.913   2.294
88618W        W61043  30.083  40.391  12.515
88619W        W61044  14.106  27.014   3.768
88620W        W61045  40.347  18.658   3.311
88621W        W61046  11.210  23.676   1.861
88622W        W61047  33.024  13.232  12.350
88623W        W61048  39.958  32.907  10.526
88624W        W61049   9.701  35.950   1.815
88625W        W61050  20.084  19.273  12.344
88626W        W61051  16.176  29.128  13.897
88627W        W61052  19.068  40.851  12.981
88628W        W61053  38.896  29.489   1.281
88629W        W61054   4.744   3.812  13.336
88630W        W61055  11.268   7.212  12.898
88631W        W61056   5.235  44.798  14.933
88632W        W61057  26.590  30.126  14.306
88633W        W61058  33.026  25.508   4.808
88634W        W61059  12.280  16.104  13.497
88635W        W61060  15.773  16.177   1.215
88636W        W61061  20.549   9.881   0.391
88637W        W61062   2.271  38.972  14.830
88638W        W61063  42.979  20.072  11.482
88639W        W61064  16.638  31.959   2.366
88640W        W61065  20.710  41.528  14.352
88641W        W61066  43.946   9.876   1.713
88642W        W61067   5.244  25.531   2.783
88643W        W61068  25.027  33.529   5.127
88644W        W61069  30.945   1.823  10.156
88645W        W61070  26.578   7.844  13.019
88646W        W61071  34.564   9.338  12.025
88647W        W61072  31.898  23.204   2.720
88648W        W61073  22.098  14.315   2.746
88649W        W61074  44.299   3.432  11.549
88650W        W61075   7.720  42.782   3.145
88651W        W61076  14.238   0.962  13.503
88652W        W61077   0.905  43.013   2.295
88653W        W61078  37.437  24.507  13.460
88654W        W61079  35.399  12.723  11.452
88655W        W61080  39.414  23.086  12.865
88656W        W61081  18.715  27.038   3.335
88657W        W61082  12.278   2.828  11.527
88658W        W61083   5.209  24.557   2.899
88659W        W61084  17.223  33.130  10.411
88660W        W61085  17.666  27.094   4.235
88661W        W61086  36.075  30.513   0.907
88662W        W61087   6.311  20.584  13.547
88663W        W61088  13.846  16.707   2.353
88664W        W61089  22.596   7.293   1.367
88665W        W61090  37.065  39.491   1.844
88666W        W61091  12.136  41.318  13.827
88667W        W61092  34.455  31.926   2.192
88668W        W61093  30.483  21.174   1.230
88669W        W61094   4.330  11.775  11.591
88670W        W61095  35.405  15.724  11.093
88671W        W61096  28.999  10.230   0.244
88672W        W61097  13.323  38.490   4.814
88673W        W61098  16.250  42.509  13.865
88674W        W61099  22.064  28.031  13.863
88675W        W61100  28.537  20.704   3.652
88676W        W61101  33.424  44.755   0.869
88677W        W61102  11.673  40.879   0.737
88678W        W61103   6.219  39.014   4.623
88679W        W61104   7.822   8.223   3.696
88680W        W61105   3.438  36.864  13.381
88681W        W61106  13.214  13.749  12.840
88682W        W61107  25.078   5.916  12.833
88683W        W61108  15.701  42.836   5.086
88684W        W61109  34.596  32.910   4.334
88685W        W61110   6.201   4.927  14.966
88686W        W61111  25.064  16.774  11.115
88687W        W61112  32.918  24.548   4.124
88688W        W61113  34.871  14.628   0.455
88689W        W61114  30.596  34.884  10.611
88690W        W61115  22.634  21.223  12.939
88691W        W61116  14.612  43.481  14.896
88692W        W61117   0.346  16.778   0.261
88693W        W61118   5.194   7.408   2.865
88694W        W61119  22.046   3.280   3.675
88695W        W61120  37.552  27.544  11.582
88696W        W61121  15.318  27.949  10.490
88697W        W61122  44.928  37.012  11.858
88698W        W61123  44.296  13.652  11.863
88699W        W61124  26.971   4.321  11.401
88700W        W61125  38.019  41.858   4.789
88701W        W61126  26.977   1.330  13.965
88702W        W61127  21.102   5.702  14.955
88703W        W61128  36.526  27.161   1.873
88704W        W61129   2.822  12.260  11.510
88705W        W61130  34.417   0.790   4.328
88706W        W61131  40.423   5.253   0.265
88707W        W61132  38.462  14.310  13.006
88708W        W61133   7.277  32.435   2.394
88709W        W61134  25.019  18.172   0.379
88710W        W61135  31.058  16.592  14.335
88711W        W61136  43.386  24.509  10.538
88712W        W61137   9.774  12.854   2.272
88713W        W61138  30.657  36.408   4.838
88714W        W61139  34.892   3.762  14.905
88715W        W61140  38.849  23.494   3.787
88716W        W61141  38.523  31.144   0.375
88717W        W61142   5.362  36.923   1.304
88718W        W61143  38.876  20.642  11.594
88719W        W61144  32.442  17.706  10.974
88720W        W61145   5.364  11.164  11.567
88721W        W61146  23.103  38.466   3.356
88722W        W61147  23.651   2.813  13.004
88723W        W61148  11.666  35.056  14.307
88724W        W61149  37.063  11.684  12.417
88725W        W61150   2.320  29.529  14.428
88726W        W61151  27.670   4.415   2.192
88727W        W61152   8.824  39.314   2.848
88728W        W61153   3.723  31.027   1.264
88729W        W61154  42.399  38.039  14.952
88730W        W61155  23.601   2.359   4.666
88731W        W61156  23.707  22.041   4.206
88732W        W61157  34.894  26.062   0.307
88733W        W61158  20.666  25.076  13.857
88734W        W61159  21.581  24.029  13.026
88735W        W61160  41.903   2.386   4.666
88736W        W61161  19.165  32.621   4.629
88737W        W61162  37.872  25.189  12.930
88738W        W61163  10.373   9.267  12.576
88739W        W61164  26.655  42.991   5.218
88740W        W61165  27.500  35.493   0.732
88741W        W61166  40.525  37.928  11.969
88742W        W61167  19.106  15.282   0.243
88743W        W61168  14.312  31.583  12.424
88744W        W61169   2.421   4.810   1.279
88745W        W61170   0.777  15.758  10.565
88746W        W61171  11.272  32.941  12.947
88747W        W61172  26.675  17.632   4.119
88748W        W61173   2.231  21.671  13.972
88749W        W61174  28.635  21.710   2.821
88750W        W61175  31.623  20.239  11.115
88751W        W61176  16.220  42.314  12.411
88752W        W61177  36.844  39.325   1.369
88753W        W61178  14.793   2.740  10.517
88754W        W61179  37.976  19.736  12.094
88755W        W61180  22.213   7.851   1.449
88756W        W61181  20.590  10.203   2.309
88757W        W61182  28.568  20.628   0.453
88758W        W61183   1.958  40.479   4.135
88759W        W61184  29.072  36.954   2.408
88760W        W61185  39.490  21.250  14.290
88761W        W61186   9.803  19.687   1.919
88762W        W61187  34.879  31.966   2.221
88763W        W61188  39.816  20.679  12.448
88764W        W61189  37.064  29.939  11.551
88765W        W61190  34.061  41.897   1.695
88766W        W61191   7.817  20.672  11.866
88767W        W61192   8.301  41.412   1.704
88768W        W61193  33.417   5.206  13.887
88769W        W61194  29.995  37.433  10.526
88770W        W61195   1.781  11.210   2.314
88771W        W61196  21.200  15.751   3.814
88772W        W61197  34.421  11.211  12.555
88773W        W61198   2.235  16.625   4.332
88774W        W61199  33.903  35.503  11.411
88775W        W61200   6.913   6.321  12.385
88776W        W61201  13.623   7.228  14.469
88777W        W61202  30.916  26.461   4.597
88778W        W61203   4.305  40.853   3.362
88779W        W61204  25.979  38.868  13.995
88780W        W61205  15.195  18.154   1.869
88781W        W61206  13.727  12.826  14.010
88782W        W61207   4.924  41.792  14.989
88783W        W61208  14.306  23.094  10.061
88784W        W61209   2.967  38.510  10.895
88785W        W61210  35.429  42.289  11.021
88786W        W61211  29.647  44.333  11.374
88787W        W61212  26.955   2.875   4.603
88788W        W61213  36.043  13.646  11.910
88789W        W61214  15.169  15.113   0.480
88790W        W61215   2.324  41.385  13.860
88791W        W61216   5.861  35.013  10.509
88792W        W61217  44.423   8.695  12.073
88793W        W61218  40.988  30.112   0.922
88794W        W61219  32.555  44.338   2.663
88795W        W61220  20.540  12.306  10.124
88796W        W61221  32.126  42.410  11.434
88797W        W61222   6.709  30.477   4.733
88798W        W61223  13.688  23.596  11.565
88799W        W61224  37.364  23.990   1.416
88800W        W61225  38.974  22.584   1.911
88801W        W61226  10.216  24.161   0.871
88802W        W61227   1.938   0.885   3.800
88803W        W61228  21.217  28.987   3.784
88804W        W61229  34.560  35.539  13.942
88805W        W61230  38.918  29.627  12.389
88806W        W61231  39.064  24.620  14.942
88807W        W61232   4.788  15.736   3.211
88808W        W61233  38.989  34.923  11.094
88809W        W61234  16.185  38.335   1.259
88810W        W61235  20.137  25.183   4.206
88811W        W61236  26.588  10.664   1.849
88812W        W61237  39.477  31.118   4.327
88813W        W61238  20.577  25.577   0.914
88814W        W61239  11.170  26.151   0.743
88815W        W61240   1.314  17.681   1.860
88816W        W61241   3.227  28.526   2.373
88817W        W61242  11.302  13.164   0.422
88818W        W61243  33.616  21.157  12.381
88819W        W61244  44.405  31.565  10.475
88820W        W61245  39.520   9.209   2.334
88821W        W61246   6.919   0.325  11.446
88822W        W61247   6.679  17.212  11.950
88823W        W61248  14.788   6.714   4.731
88824W        W61249  22.215  41.327   2.820
88825W        W61250  15.725  14.802   2.786
88826W        W61251   3.459   5.758   1.890
88827W        W61252  24.100  41.803   3.635
88828W        W61253  15.201  44.286   1.934
88829W        W61254   3.719  28.535   2.708
88830W        W61255  21.595  40.547  12.490
88831W        W61256  12.796  40.846  12.498
88832W        W61257   6.690  30.656  10.888
88833W        W61258  41.878  41.416  10.158
88834W        W61259  17.152   0.303   4.350
88835W        W61260  23.222   7.404  11.974
88836W        W61261  40.908  22.233  11.463
88837W        W61262  33.401  27.003  11.595
88838W        W61263  31.490  36.571   3.818
88839W        W61264  30.466  19.162   3.365
88840W        W61265  33.036  22.022   1.219
88841W        W61266  10.710  30.640  14.849
88842W        W61267  33.896  17.690   4.123
88843W        W61268   4.734  21.645   1.856
88844W        W61269  32.557  20.629  13.308
88845W        W61270  22.504  43.932   0.446
88846W        W61271  29.109  39.027   5.610
88847W        W61272  31.525   6.895  13.495
88848W        W61273  27.050  18.227   2.282
88849W        W61274   4.291  17.170  13.822
88850W        W61275  33.907   5.872  14.005
88851W        W61276  41.519  18.746   2.665
88852W        W61277  14.674   4.331  10.092
88853W        W61278  42.975   0.486   2.767
88854W        W61279  27.056   4.923  14.982
88855W        W61280  18.563  38.343  13.948
88856W        W61281  44.865  13.828   1.355
88857W        W61282  14.746  20.530  11.576
88858W        W61283   5.365  26.533   1.929
88859W        W61284   1.944  24.603   1.733
88860W        W61285   2.451  22.140   4.157
88861W        W61286   2.827   5.220  14.868
88862W        W61287  30.015   0.817   3.796
88863W        W61288  40.403  34.890  12.557
88864W        W61289  41.296  44.981   2.327
88865W        W61290  10.642  39.918   0.482
88866W        W61291  28.466   4.756   0.816
88867W        W61292  21.054  41.326   1.439
88868W        W61293   3.264  34.429  10.453
88869W        W61294  37.349  25.637   2.707
88870W        W61295   5.433  21.632  13.491
88871W        W61296  24.526  30.653  10.464
88872W        W61297  33.926  32.010  11.127
88873W        W61298  28.181  42.875   3.336
88874W        W61299   6.217  21.244   3.354
88875W        W61300   0.291  39.317  12.436
88876W        W61301   5.873  15.176  10.623
88877W        W61302  11.750   0.932  11.001
88878W        W61303  22.242  26.632   0.453
88879W        W61304   2.945  32.566  12.567
88880W        W61305  25.110  33.085   1.371
88881W        W61306  13.662  16.685   4.745
88882W        W61307   7.837  44.878   2.263
88883W        W61308  24.560  14.749  12.369
88884W        W61309   0.759  29.524   0.757
88885W        W61310  36.365  38.423   2.249
88886W        W61311   5.298  34.385   1.287
88887W        W61312   4.227  16.188   0.768
88888W        W61313  28.479  11.737  12.034
88889W        W61314  33.102  22.715  12.968
88890W        W61315  11.706  27.679   3.719
88891W        W61316  20.537   3.761  12.564
88892W        W61317  36.505  29.955   1.443
88893W        W61318   5.810  37.551  13.323
88894W        W61319  43.474   1.970   3.777
88895W        W61320   0.258  39.453  12.960
88896W        W61321   3.303  36.589   3.816
88897W        W61322  37.451  31.560  11.953
88898W        W61323   9.374  13.755  11.919
88899W        W61324   8.747  19.575   0.780
88900W        W61325  37.886  20.098   2.342
88901W        W61326  41.835   8.321   3.840
88902W        W61327   6.755  23.727  14.388
88903W        W61328  19.264  25.590  11.876
88904W        W61329  35.406   5.797   2.878
88905W        W61330  40.813  31.464  14.466
88906W        W61331   7.790   8.333   0.745
88907W        W61332  39.014  36.862   0.391
88908W        W61333  33.606  35.071  11.012
88909W        W61334  10.795  17.772   0.300
88910W        W61335   1.887  35.445   2.238
88911W        W61336  36.999   7.854  14.970
88912W        W61337  44.379  22.085  12.050
88913W        W61338  27.504  24.052   0.455
88914W        W61339  26.460  24.121  14.362
88915W        W61340  39.439  10.306  11.085
88916W        W61341  16.216   3.385  12.557
88917W        W61342  21.214   4.784  14.952
88918W        W61343   6.771  25.542   3.286
88919W        W61344  23.216  13.744  10.549
88920W        W61345  35.549  11.780   1.834
88921W        W61346  39.348  36.082  13.816
88922W        W61347   7.841  18.645  13.388
88923W        W61348   4.739   0.937   1.717
88924W        W61349  23.093  10.636   1.794
88925W        W61350  43.840  44.436  10.525
88926W        W61351  30.546   1.910  13.418
88927W        W61352  11.763  31.090  11.929
88928W        W61353  35.950   8.365  10.462
88929W        W61354  11.832  38.006  11.555
88930W        W61355  26.474  28.003   3.816
88931W        W61356  40.438  27.671   3.226
88932W        W61357  42.406  32.625   2.696
88933W        W61358  27.962  16.599   0.852
88934W        W61359  31.152   3.218  10.535
88935W        W61360  43.796  39.997  12.060
88936W        W61361  32.615  38.397  13.794
88937W        W61362  19.688  40.412   2.836
88938W        W61363   6.773  39.534   4.162
88939W        W61364  31.947  25.085  12.065
88940W        W61365  11.675  17.555  10.490
88941W        W61366  36.401  11.178  11.427
88942W        W61367   1.930  34.397   1.875
88943W        W61368  39.818   0.381  14.874
88944W        W61369  17.296  19.205  14.967
88945W        W61370   5.214   6.316  10.980
88946W        W61371  43.998   8.328   3.185
88947W        W61372  16.734  26.126  13.496
88948W        W61373  18.709  43.417  12.904
88949W        W61374  34.039   8.186  11.983
88950W        W61375   9.768  34.059   2.289
88951W        W61376   4.235  27.544  10.608
88952W        W61377  30.013  14.110  14.946
88953W        W61378   3.932  39.955   2.339
88954W        W61379  34.579   8.807   4.336
88955W        W61380  19.652  41.869   2.338
88956W        W61381  14.170  37.952   2.664
88957W        W61382  44.402  11.260   5.290
88958W        W61383  36.960  15.166   0.845
88959W        W61384  25.680  23.527   0.343
88960W        W61385   3.228  20.244   2.250
88961W        W61386  30.074  17.702  14.878
88962W        W61387  28.509  34.041   4.354
88963W        W61388   0.302  32.070  12.028
88964W        W61389  26.607  36.392   0.289
88965W        W61390  13.248   4.724   4.627
88966W        W61391  36.913  41.850  11.062
88967W        W61392  30.440  36.498   1.427
88968W        W61393  34.927  30.475  14.408
88969W        W61394  42.409  24.157  13.507
88970W        W61395  42.352  15.821   0.298
88971W        W61396  33.040  34.109   2.316
88972W        W61397   2.472  37.575   3.245
88973W        W61398  30.958  15.638   0.413
88974W        W61399  24.581   8.797  12.348
88975W        W61400  12.216  32.043  13.509
88976W        W61401  14.146  42.825  13.400
88977W        W61402  27.004   4.724  12.398
88978W        W61403  35.901  37.427   1.896
88979W        W61404   2.450  26.549  13.907
88980W        W61405  41.503   8.698   4.711
88981W        W61406  41.974  26.011   1.322
88982W        W61407  41.401  22.079   3.762
88983W        W61408  21.513  24.188   4.774
88984W        W61409  30.032  29.974  11.425
88985W        W61410  43.380  37.916   2.295
88986W        W61411  22.044  30.429  13.470
88987W        W61412   7.686  19.775  13.324
88988W        W61413  28.003  38.003   1.809
88989W        W61414  32.136  33.126  13.324
88990W        W61415   0.268   9.820   1.789
88991W        W61416  43.995  43.349   2.388
88992W        W61417  43.837   4.923   1.743
88993W        W61418  37.039  10.329  14.275
88994W        W61419  40.051  14.632   1.713
88995W        W61420  25.660  33.591   4.216
88996W        W61421   6.235  43.313   1.367
88997W        W61422  39.353   0.970  12.010
88998W        W61423  30.484   7.872   3.763
88999W        W61424  39.051  10.723  11.964
89000W        W61425  27.567  27.659   2.190
89001W        W61426   6.414   9.678   3.756
89002W        W61427  25.618  11.721   0.468
89003W        W61428  22.011   2.925   4.249
89004W        W61429  15.782  44.960   2.298
89005W        W61430  11.289  20.702  10.603
89006W        W61431  23.120  30.656   3.700
89007W        W61432  24.224  23.011  11.424
89008W        W61433   3.851  25.572  14.765
89009W        W61434  32.471  41.402  10.938
89010W        W61435  22.067  18.756  13.540
89011W        W61436  33.441  30.421  14.303
89012W        W61437  19.617  40.024  11.983
89013W        W61438  13.315  23.185   0.451
89014W        W61439  31.108  22.722   5.614
89015W        W61440  28.468  34.110   1.726
89016W        W61441  29.669  40.457  11.473
89017W        W61442  15.714  10.820   4.805
89018W        W61443  22.671  39.855   2.238
89019W        W61444  34.947   9.859  12.970
89020W        W61445  10.772  19.616   4.117
89021W        W61446  37.359  29.054   2.250
89022W        W61447  17.263  39.037  11.880
89023W        W61448  37.893  21.728   1.736
89024W        W61449   8.791  31.038   2.356
89025W        W61450  12.226  27.571  11.892
89026W        W61451   1.285   3.727   3.262
89027W        W61452  36.506  19.110   4.206
89028W        W61453  11.268   2.932  11.421
89029W        W61454   9.749   2.229   3.764
89030W        W61455  16.091  42.809  14.470
89031W        W61456   8.857   6.759  14.481
89032W        W61457  15.125   9.311  11.072
89033W        W61458   3.823  30.921   2.776
89034W        W61459  40.953   4.823  12.566
89035W        W61460  18.639  44.364   0.870
89036W        W61461  38.007  44.832  11.100
89037W        W61462  11.865  18.175  10.962
89038W        W61463  27.590   0.273   3.637
89039W        W61464  19.069  27.118   4.789
89040W        W61465  44.753  40.330  12.990
89041W        W61466  43.006  28.956  11.019
89042W        W61467   2.901  28.154  11.922
89043W        W61468  39.513  17.575  11.560
89044W        W61469  21.192  16.247   0.431
89045W        W61470  36.007  41.457  13.805
89046W        W61471  43.500  12.678  14.464
89047W        W61472  34.373   4.223  13.417
89048W        W61473   3.851   7.311  10.496
89049W        W61474  42.882   7.724  12.914
89050W        W61475  34.987  28.463   2.801
89051W        W61476   9.187  27.457   4.179
89052W        W61477   3.444  24.145  13.898
89053W        W61478  21.575  39.368   2.364
89054W        W61479   1.430  14.764   3.292
89055W        W61480  43.947  25.153  11.609
89056W        W61481  43.342   2.451   0.445
89057W        W61482   6.807   3.364  13.308
89058W        W61483   0.807  41.331  14.865
89059W        W61484  19.756  40.850   3.380
89060W        W61485   0.820   9.681   4.195
89061W        W61486  42.814  36.940   1.217
89062W        W61487  32.621   9.317   3.680
89063W        W61488  29.984  20.734  10.972
89064W        W61489   6.236  29.622   3.281
89065W        W61490  12.845  21.050  12.030
89066W        W61491  20.119  18.597  14.815
89067W        W61492  27.515   0.315  10.439
89068W        W61493   1.300  10.191  12.878
89069W        W61494  22.191  42.893   1.391
89070W        W61495   7.695  23.138  12.450
89071W        W61496   0.281   2.825   1.803
89072W        W61497  35.081  13.293  13.511
89073W        W61498  31.555  37.369  10.445
89074W        W61499  20.762  38.849   0.281
89075W        W61500  30.041  11.247  14.435
89076W        W61501  23.627   9.730   2.209
89077W        W61502  29.020  24.006  12.466
89078W        W61503  21.219  21.223   5.135
89079W        W61504  19.123  10.861  14.829
89080W        W61505  44.991   8.878  11.507
89081W        W61506  39.360  22.007  12.496
89082W        W61507  20.565   9.345  14.484
89083W        W61508  27.942  19.104  10.461
89084W        W61509   3.240  40.487   0.285
89085W        W61510  20.147  15.677  13.022
89086W        W61511  39.339  31.006   2.387
89087W        W61512   7.287  39.523   4.719
89088W        W61513   2.374  40.417   4.156
89089W        W61514   3.761  34.046  12.506
89090W        W61515   8.160  26.524  14.901
89091W        W61516   2.320  12.117   2.811
89092W        W61517  40.369  31.440   2.350
89093W        W61518  31.080  44.283  12.460
89094W        W61519  33.109  16.649   3.291
89095W        W61520  36.027  37.537  14.845
89096W        W61521   1.303  30.638   1.910
89097W        W61522  22.094  21.068  14.959
89098W        W61523  26.190  33.480  12.037
89099W        W61524  33.902  39.546  14.997
89100W        W61525  16.653  33.939  14.329
89101W        W61526  10.822   8.406   0.917
89102W        W61527  29.513  25.146   4.732
89103W        W61528  16.693  40.542   0.932
89104W        W61529  23.219  41.443   1.218
89105W        W61530  30.913  12.190   3.385
89106W        W61531  23.093  32.561   0.794
89107W        W61532  15.314  26.649   4.766
89108W        W61533  17.232  28.937   0.734
89109W        W61534  11.331  42.376   2.279
89110W        W61535  43.830  32.445  14.312
89111W        W61536  39.419  40.987   2.260
89112W        W61537  33.471  38.334  14.504
89113W        W61538  40.463   2.358  11.458
89114W        W61539  21.581  40.429  10.151
89115W        W61540  25.010   0.763  13.460
89116W        W61541   2.318  20.066  11.547
89117W        W61542  30.450   9.256  11.433
89118W        W61543  34.551  39.914  12.989
89119W        W61544  14.283  43.881  10.587
89120W        W61545  10.250   1.431  10.907
89121W        W61546  25.628  34.412  11.123
89122W        W61547  44.809   9.683   0.859
89123W        W61548   2.242  37.895   4.729
89124W        W61549  25.137  13.169   0.812
89125W        W61550  39.043   9.762  14.804
89126W        W61551  25.469  29.478  11.517
89127W        W61552  31.573  30.998   1.912
89128W        W61553   1.817  35.451   1.805
89129W        W61554  34.866  14.642   3.233
89130W        W61555  14.133   5.727  12.880
89131W        W61556  23.072  35.419  14.027
89132W        W61557  17.630  32.538   4.702
89133W        W61558  40.425  16.809  15.000
89134W        W61559  19.750  32.525  12.863
89135W        W61560   5.196  36.459   2.390
89136W        W61561  24.514   3.928   4.117
89137W        W61562  21.758  38.431  14.759
89138W        W61563  29.611  34.952   1.240
89139W        W61564  23.734  23.092   2.758
89140W        W61565   8.290  36.983   3.740
89141W        W61566  37.896  31.945   3.271
89142W        W61567   0.443  23.146  10.513
89143W        W61568  35.596  19.681  14.455
89144W        W61569  14.271  38.870  13.534
89145W        W61570  17.268  12.789   9.991
89146W        W61571  31.997  20.167   3.246
89147W        W61572   4.940  43.284  14.007
89148W        W61573   0.900  23.523  13.014
89149W        W61574  36.432  43.920   4.173
89150W        W61575  24.208  31.421   1.373
89151W        W61576   1.798  33.128   0.862
89152W        W61577   7.748  26.468   3.822
89153W        W61578  23.500  12.225   2.716
89154W        W61579  21.117  39.396   1.349
89155W        W61580  16.663  27.671   2.706
89156W        W61581  17.070  24.534  13.359
89157W        W61582  19.734  38.360   4.805
89158W        W61583  17.725  41.999   4.637
89159W        W61584  27.974   4.401  10.892
89160W        W61585  38.570  37.067  11.598
89161W        W61586  17.583  31.107   4.230
89162W        W61587  38.897  11.280  12.911
89163W        W61588  28.030  32.039   4.154
89164W        W61589  12.191  11.337  11.473
89165W        W61590  34.514  29.502   4.631
89166W        W61591  24.996   5.928   0.273
89167W        W61592  31.449  16.800  11.897
89168W        W61593  12.180  37.448   1.384
89169W        W61594  38.004   8.764   5.668
89170W        W61595  39.022  21.134   4.212
89171W        W61596  23.030   9.698  11.972
89172W        W61597   7.255  23.019   3.666
89173W        W61598  35.984   1.308   1.842
89174W        W61599  13.215  25.203  12.457
89175W        W61600   5.213  27.674   0.310
89176W        W61601  32.005  43.349   4.613
89177W        W61602  42.982  39.023   2.713
89178W        W61603  15.222  44.291   2.821
89179W        W61604  21.019   9.289  13.954
89180W        W61605  22.741   9.155   2.687
89181W        W61606  10.253  43.434  14.969
89182W        W61607  20.136  24.672  13.336
89183W        W61608  11.189  35.106  12.541
89184W        W61609  34.538  40.026   3.354
89185W        W61610  32.908  12.662  14.988
89186W        W61611  14.711  37.383   4.818
89187W        W61612  18.732   3.411  11.049
89188W        W61613  11.224  24.140  11.459
89189W        W61614  34.080  37.460  13.345
89190W        W61615  37.520  28.614   1.446
89191W        W61616  42.307   0.827  11.418
89192W        W61617  20.079  20.558  13.058
89193W        W61618  22.013  39.813   4.802
89194W        W61619  12.650  25.137   9.467
89195W        W61620   2.770   2.261   3.849
89196W        W61621   1.257  23.091   0.760
89197W        W61622  44.416  11.649   0.962
89198W        W61623  42.457   1.844  10.532
89199W        W61624  20.626   3.929   1.844
89200W        W61625  24.203  37.506   0.876
89201W        W61626   7.192  39.965   4.604
89202W        W61627  35.024  32.502   3.272
89203W        W61628  17.774  23.616   3.789
89204W        W61629   8.803  18.084  14.460
89205W        W61630  42.835  17.687  13.836
89206W        W61631  12.226  41.842  14.767
89207W        W61632  31.465   6.265  11.979
89208W        W61633  35.068  23.122  10.998
89209W        W61634  36.893  11.847  12.020
89210W        W61635  19.672  24.702   1.429
89211W        W61636  43.797  21.187  14.321
89212W        W61637  31.413  43.318   4.265
89213W        W61638  10.149  22.598   2.857
89214W        W61639  23.664   8.360   0.421
89215W        W61640  39.916   3.291   1.256
89216W        W61641  20.033  26.005   1.884
89217W        W61642  18.731  33.061  13.515
89218W        W61643  12.812  16.145   1.348
89219W        W61644  27.170  24.700  12.845
89220W        W61645  20.172   1.320  10.889
89221W        W61646   2.762  11.294   4.682
89222W        W61647  31.979  17.693   4.709
89223W        W61648   9.244  38.433  10.947
89224W        W61649  35.557   8.326   4.732
89225W        W61650   3.902  16.228  12.347
89226W        W61651  24.073  42.913  11.943
89227W        W61652  41.021  22.196  10.066
89228W        W61653  26.482   5.291   4.322
89229W        W61654  18.291   4.386   3.210
89230W        W61655   6.900  40.882  11.445
89231W        W61656  13.206  14.210  14.308
89232W        W61657  17.151   2.255   1.866
89233W        W61658  30.059  27.989   4.230
89234W        W61659  10.275  42.937   5.237
89235W        W61660   3.372  13.122  10.550
89236W        W61661  23.038  13.163   4.220
89237W        W61662  36.578  23.005  11.104
89238W        W61663  41.884  26.091  12.970
89239W        W61664   0.837   4.340  10.462
89240W        W61665  18.663   5.260   2.188
89241W        W61666  36.578  16.601   0.878
89242W        W61667   8.321  15.152   3.379
89243W        W61668  22.530  10.670  10.499
89244W        W61669  14.672  28.122   4.785
89245W        W61670  17.612  38.519  14.476
89246W        W61671  42.360  23.528   2.180
89247W        W61672  32.075  19.745   3.188
89248W        W61673  20.042  13.122   4.161
89249W        W61674  10.208   5.837   3.683
89250W        W61675  18.679  25.487  13.951
89251W        W61676  30.466  17.706   4.794
89252W        W61677   9.868  14.731   0.901
89253W        W61678  35.019  42.463   4.168
89254W        W61679  37.498  22.176   1.862
89255W        W61680  11.265   7.698   1.284
89256W        W61681  24.643  42.010   2.274
89257W        W61682  21.239   0.806   1.867
89258W        W61683   9.281   5.364   4.745
89259W        W61684  30.158  34.872   2.720
89260W        W61685  21.531  17.694  14.345
89261W        W61686   1.371  14.765   2.381
89262W        W61687  15.227  23.670   2.785
89263W        W61688  33.491   2.291  11.917
89264W        W61689  10.651   3.371  12.906
89265W        W61690  29.622  17.206   0.353
89266W        W61691   2.454   6.408  14.318
89267W        W61692  34.981  31.974  11.402
89268W        W61693  12.703  33.611   1.860
89269W        W61694  19.655  40.872   1.832
89270W        W61695  14.679   3.389   9.944
89271W        W61696  16.579  29.486  10.574
89272W        W61697  30.552  18.221   3.769
89273W        W61698  44.282  28.961   1.402
89274W        W61699  39.982  24.596   3.675
89275W        W61700  27.016  43.952  11.902
89276W        W61701   8.188  27.143   4.205
89277W        W61702  20.594   4.876   4.765
89278W        W61703  12.256  37.494   4.722
89279W        W61704  36.892  25.496  14.961
89280W        W61705  37.448  17.169  11.378
89281W        W61706   7.790   5.389  11.855
89282W        W61707  12.335  16.690   3.334
89283W        W61708   1.742  40.471   1.753
89284W        W61709  10.314   2.422  13.481
89285W        W61710   0.946  22.547   1.713
89286W        W61711  14.205  27.973   4.823
89287W        W61712  36.422  32.941   1.803
89288W        W61713  28.571  39.825  12.576
89289W        W61714   8.230  20.175   1.326
89290W        W61715  36.495  12.679  12.036
89291W        W61716  41.454   9.230   1.384
89292W        W61717   3.794  30.023  11.863
89293W        W61718  33.063  11.216  11.040
89294W        W61719  39.522  10.671   0.838
89295W        W61720  19.636  19.553  12.397
89296W        W61721  37.007  37.954   3.269
89297W        W61722  23.107  12.280   4.756
89298W        W61723   6.209  35.409   2.847
89299W        W61724  31.446  36.060  10.965
89300W        W61725   8.706  26.144  12.999
89301W        W61726  28.563  44.281   0.365
89302W        W61727   3.763  21.705   0.830
89303W        W61728   2.846   4.764   3.834
89304W        W61729  25.191  24.084   3.842
89305W        W61730  22.740  44.417  11.531
89306W        W61731  30.522  43.796  14.824
89307W        W61732  16.148  20.157  12.574
89308W        W61733  10.179  35.028   1.712
89309W        W61734  29.987  16.207  13.038
89310W        W61735   0.982  40.317  10.416
89311W        W61736  12.302  31.464  13.495
89312W        W61737   1.425   1.444   2.185
89313W        W61738  10.814  38.327   4.271
89314W        W61739  10.179  28.570   3.740
89315W        W61740   7.843   7.210   4.713
89316W        W61741  25.009  38.465   1.701
89317W        W61742  38.045  28.141   0.434
89318W        W61743  27.620  41.807   2.215
89319W        W61744  40.812   7.364  11.011
89320W        W61745  39.814   0.933  13.017
89321W        W61746  38.971  18.294  10.990
89322W        W61747  26.663   4.219  10.072
89323W        W61748  28.608   8.862  11.113
89324W        W61749  43.425   4.399   2.332
89325W        W61750   3.901  18.198   5.135
89326W        W61751  39.468  32.086  14.320
89327W        W61752  41.972  42.397  10.615
89328W        W61753   1.794  38.051  13.983
89329W        W61754   2.909   5.396   1.746
89330W        W61755  33.019  21.734   1.761
89331W        W61756  13.757  27.523  12.489
89332W        W61757  29.562  43.461   0.367
89333W        W61758   3.839  12.219   4.792
89334W        W61759  33.598  22.220  12.914
89335W        W61760  29.920  17.587   1.835
89336W        W61761  27.573  15.749  11.991
89337W        W61762  19.764  42.014   0.281
89338W        W61763  40.897  35.483  11.966
89339W        W61764   0.274   8.766   3.217
89340W        W61765   5.302  34.439   2.785
89341W        W61766  26.530   9.303   2.335
89342W        W61767  40.454  17.169  13.860
89343W        W61768  32.464  20.724   4.182
89344W        W61769   5.250  26.999   0.922
89345W        W61770  26.204  21.182   1.816
89346W        W61771  15.705  23.108  10.482
89347W        W61772  41.929  25.175  13.504
89348W        W61773  37.340  32.103   0.295
89349W        W61774   8.848  14.832   1.222
89350W        W61775  28.651  30.057  13.324
89351W        W61776   8.887  20.534  13.818
89352W        W61777  41.388  44.982  12.490
89353W        W61778  14.198  35.101   4.813
89354W        W61779  21.618  12.188   3.645
89355W        W61780   2.453  12.159   4.763
89356W        W61781  27.185  14.313  13.988
89357W        W61782   9.715  16.220  14.888
89358W        W61783  16.198  19.544  12.841
89359W        W61784  12.705  14.738  12.096
89360W        W61785  43.303  13.641   0.265
89361W        W61786  30.563   6.772  12.344
89362W        W61787  33.072   2.408   0.284
89363W        W61788  20.705  35.480   4.839
89364W        W61789  16.763  22.177  11.613
89365W        W61790  19.583   3.441   3.635
89366W        W61791   3.724  44.504   1.351
89367W        W61792  20.617   3.313   4.682
89368W        W61793  12.665   8.263  12.846
89369W        W61794  29.581  17.293  12.998
89370W        W61795  15.130  11.365  11.438
89371W        W61796   3.234  43.326   4.743
89372W        W61797  41.904  29.609  14.422
89373W        W61798  38.015  10.315  10.589
89374W        W61799   7.721  22.592   3.759
89375W        W61800  11.839  38.478  12.451
89376W        W61801  13.651  32.519  13.494
89377W        W61802  19.609  44.830   3.268
89378W        W61803  33.519  17.206   4.628
89379W        W61804   7.198  21.082   3.724
89380W        W61805   0.826  10.706  12.021
89381W        W61806  27.190  22.030  10.551
89382W        W61807  13.811  18.725  11.950
89383W        W61808  20.764  22.543   0.429
89384W        W61809  18.213  38.024   0.761
89385W        W61810  31.593  13.335  11.079
89386W        W61811  32.437   9.362  14.394
89387W        W61812  25.671  23.143  10.913
89388W        W61813  41.337  32.894   3.185
89389W        W61814  34.883  22.510  13.520
89390W        W61815  26.138  36.500   1.823
89391W        W61816  39.336  31.546   1.363
89392W        W61817  22.528   0.257  11.116
89393W        W61818  13.248  35.591  11.016
89394W        W61819  28.643  40.844   4.770
89395W        W61820  36.391  29.594   1.906
89396W        W61821  25.126  27.669   1.434
89397W        W61822  39.983  30.999   1.332
89398W        W61823  34.426  37.357   1.879
89399W        W61824  33.950   7.291  14.502
89400W        W61825   5.208   5.839  11.859
89401W        W61826  22.684  12.275   0.336
89402W        W61827  22.732  32.562   1.872
89403W        W61828  10.229   1.454   1.781
89404W        W61829  19.710   5.863   0.381
89405W        W61830   4.365  30.542  12.543
89406W        W61831   9.824  10.312   0.331
89407W        W61832   0.479  21.666   4.653
89408W        W61833  25.487  39.023   1.782
89409W        W61834  13.340   2.410  13.812
89410W        W61835  31.908   1.429  10.511
89411W        W61836  25.566  32.440   3.741
89412W        W61837  43.342  44.457  12.432
89413W        W61838  32.898  37.352  12.015
89414W        W61839  30.587   0.348   2.403
89415W        W61840   9.364  18.628  14.285
89416W        W61841  24.566  41.857  10.969
89417W        W61842  10.368  21.669  12.974
89418W        W61843   8.783  25.612  10.947
89419W        W61844  39.980  33.582   1.695
89420W        W61845   7.827   6.286   1.896
89421W        W61846  17.766  16.274   3.350
89422W        W61847  33.086  32.538  14.794
89423W        W61848  17.258  23.185   0.878
89424W        W61849   1.809  15.314   0.731
89425W        W61850  42.459  37.546   0.481
89426W        W61851  19.702  30.627   0.341
89427W        W61852   3.773  24.031  12.458
89428W        W61853  31.107   3.305  13.464
89429W        W61854  35.386  17.124  14.455
89430W        W61855  35.107  32.037  12.913
89431W        W61856  38.976   0.987  12.562
89432W        W61857  13.257  10.844  11.877
89433W        W61858   1.368  39.008  12.834
89434W        W61859  23.711  39.391  12.504
89435W        W61860  44.811  19.080  12.504
89436W        W61861  41.422  44.392  12.850
89437W        W61862  19.729  25.023   4.799
89438W        W61863  37.887  23.996   9.979
89439W        W61864  36.075  22.575  14.309
89440W        W61865  10.155   1.758  10.517
89441W        W61866  28.502  11.798   1.278
89442W        W61867  24.998  43.492   1.247
89443W        W61868   1.252  20.557  14.496
89444W        W61869  19.667  32.047   2.687
89445W        W61870  41.914  17.739   2.323
89446W        W61871  25.653   7.175  10.902
89447W        W61872  16.289   2.302  13.514
89448W        W61873  14.310  39.329  11.087
89449W        W61874  14.224  44.923  11.388
89450W        W61875   8.350  11.250   2.832
89451W        W61876   0.337  11.850  12.507
89452W        W61877  42.353  14.132  12.961
89453W        W61878  20.229  10.153  10.908
89454W        W61879  43.424  17.301   1.443
89455W        W61880  12.624  29.940  11.857
89456W        W61881  22.065  12.282  13.350
89457W        W61882  32.058  37.948  10.998
89458W        W61883  27.162  35.977  12.545
89459W        W61884  33.417   1.808  14.953
89460W        W61885  10.306  38.534  12.895
89461W        W61886  20.658  31.419   1.810
89462W        W61887  18.608   4.367   4.803
89463W        W61888  31.542  29.156   2.690
89464W        W61889  41.802  10.696  11.436
89465W        W61890  15.704  41.483  11.903
89466W        W61891  22.608   5.829  12.422
89467W        W61892  42.363  15.269   1.330
89468W        W61893   5.356  16.625  14.465
89469W        W61894  36.470   0.370  14.281
89470W        W61895   7.825  38.467  10.589
89471W        W61896  26.147  13.639  13.951
89472W        W61897  21.754   1.941   2.700
89473W        W61898  36.400  14.159  14.441
89474W        W61899  39.907  17.779  13.992
89475W        W61900  33.881  21.612  14.305
89476W        W61901  42.460  42.008  13.337
89477W        W61902  10.858  24.498   2.184
89478W        W61903  31.572  30.928   2.396
89479W        W61904  27.529   6.199   3.369
89480W        W61905  14.337  32.899  11.521
89481W        W61906   3.927  27.464   2.715
89482W        W61907  13.274  40.540   2.669
89483W        W61908  28.076   3.217  14.504
89484W        W61909  40.316   6.184  11.424
89485W        W61910  38.507  33.019  10.898
89486W        W61911  23.627  40.925   3.336
89487W        W61912  24.987   5.723   1.382
89488W        W61913  17.247  40.917   3.371
89489W        W61914  36.494  35.372   3.856
89490W        W61915  30.442   0.896  14.486
89491W        W61916   1.859  13.799  12.934
89492W        W61917  15.800   4.373   9.947
89493W        W61918   9.277  38.922   0.809
89494W        W61919   4.305  42.005  12.052
89495W        W61920  23.569   5.812   1.307
89496W        W61921  39.053  43.412   4.651
89497W        W61922  41.960  25.666  12.040
89498W        W61923  23.733  28.070   3.781
89499W        W61924  27.520  41.486   0.247
89500W        W61925  19.560  39.031   4.241
89501W        W61926  38.903  30.568  14.315
89502W        W61927   0.978   1.884  14.422
89503W        W61928  28.051  18.671  14.404
89504W        W61929   9.162  13.295   1.900
89505W        W61930   8.279  38.041  11.554
89506W        W61931  23.162  23.664   2.851
89507W        W61932   8.405  34.427  13.524
89508W        W61933  13.608  17.189  12.564
89509W        W61934  29.922  22.603   2.729
89510W        W61935  31.622  35.057   1.416
89511W        W61936  39.029  15.765   5.315
89512W        W61937  15.177  44.361  13.925
89513W        W61938   0.785  32.117   2.858
89514W        W61939  42.424   3.346  13.040
89515W        W61940  21.606   8.310   1.876
89516W        W61941  37.840  36.962  12.934
89517W        W61942   8.818  10.193  12.900
89518W        W61943  31.429  27.138  11.378
89519W        W61944  36.905  42.924  10.601
89520W        W61945  40.879  42.841  14.971
89521W        W61946  20.218  10.780  10.420
89522W        W61947   4.395  31.437  10.404
89523W        W61948  20.108  19.246  10.519
89524W        W61949  29.600  44.361   2.220
89525W        W61950  10.771  25.480   3.184
89526W        W61951  28.465  20.244   4.599
89527W        W61952   0.899  26.064  12.449
89528W        W61953  31.967  13.261   4.764
89529W        W61954  27.026  15.156  13.846
89530W        W61955  44.411  36.452  11.372
89531W        W61956   3.349  20.176  13.511
89532W        W61957   6.249  37.574  14.398
89533W        W61958  27.153  34.933  13.812
89534W        W61959  37.429  16.599   1.286
89535W        W61960  30.133  37.972   3.387
89536W        W61961  32.566  24.688  12.877
89537W        W61962  23.210  11.735   1.794
89538W        W61963  40.906   8.357  14.450
89539W        W61964   4.329   6.281  11.414
89540W        W61965   9.740  15.166   3.223
89541W        W61966   0.781   6.278  14.810
89542W        W61967  41.904  18.567   4.159
89543W        W61968  28.667  39.386   3.162
89544W        W61969  28.042  15.171  10.564
89545W        W61970   7.784  39.369  13.868
89546W        W61971  24.028  15.268  11.392
89547W        W61972  16.576  42.463   4.187
89548W        W61973  11.844   5.781  11.384
89549W        W61974  11.214   7.890  10.891
89550W        W61975  36.433  31.954   1.234
89551W        W61976  44.778  17.212  14.821
89552W        W61977  24.148  33.119   0.272
89553W        W61978  39.554   6.742   4.742
89554W        W61979  26.642  23.634   0.731
89555W        W61980  27.076  17.684   0.263
89556W        W61981  34.951  19.626  12.383
89557W        W61982   5.910  32.511  14.323
89558W        W61983  22.033  38.336   0.462
89559W        W61984   2.463  21.681   1.252
89560W        W61985  41.903  43.942  13.315
89561W        W61986   4.302  36.984  14.011
89562W        W61987   6.191  18.091  13.906
89563W        W61988  42.025  37.002   1.439
89564W        W61989  19.774  25.619  10.590
89565W        W61990  25.648  22.682   3.258
89566W        W61991  37.915  44.877   2.228
89567W        W61992  29.049   0.442   2.364
89568W        W61993   5.279  44.886  10.910
89569W        W61994  43.302  16.092  12.094
89570W        W61995  21.603  33.086   0.925
89571W        W61996  22.033  32.506   1.923
89572W        W61997  23.498  26.014  10.906
89573W        W61998  44.763   3.867  14.842
89574W        W61999  36.576   7.397   3.714
89575W        W62000  11.161  26.023   2.230
89576W        W62001  43.403  43.981   1.866
89577W        W62002   6.278  16.262  10.595
89578W        W62003  11.655   0.489   3.652
89579W        W62004  30.597  32.516   4.332
89580W        W62005  17.074  19.279  12.917
89581W        W62006  35.415  34.375  13.338
89582W        W62007  14.261  44.352   5.171
89583W        W62008  22.576  13.301   2.715
89584W        W62009  40.419  27.153  14.971
89585W        W62010  41.849  29.438  13.470
89586W        W62011  19.213  41.830   0.916
89587W        W62012  39.899  21.220   1.897
89588W        W62013  38.556  44.989   4.708
89589W        W62014   1.261  22.066  13.003
89590W        W62015  12.271   2.471  12.548
89591W        W62016  35.574   8.765   1.704
89592W        W62017  41.294   5.806  14.341
89593W        W62018  16.712  15.692   2.180
89594W        W62019  18.759  41.824   5.244
89595W        W62020  26.082  39.061  14.467
89596W        W62021  11.723  36.530  10.600
89597W        W62022  14.757  22.105  11.536
89598W        W62023   8.874   9.733  11.988
89599W        W62024   7.871  22.131  10.623
89600W        W62025  31.072  20.559   2.903
89601W        W62026  39.966   0.479   0.284
89602W        W62027  12.754  33.570   1.243
89603W        W62028  22.668  20.529   1.382
89604W        W62029  32.039  44.468   2.775
89605W        W62030   1.259  26.483   4.140
89606W        W62031   9.284  36.421  14.490
89607W        W62032  25.522  29.554   4.739
89608W        W62033  15.180  22.504   3.313
89609W        W62034  37.446  38.951  10.937
89610W        W62035   9.283   7.385   3.637
89611W        W62036  22.242  18.747  11.598
89612W        W62037  41.408  14.786   0.274
89613W        W62038   3.854  44.894  13.849
89614W        W62039  36.063  17.213  11.083
89615W        W62040  26.494  24.213  10.604
89616W        W62041  34.518   0.293   0.919
89617W        W62042   8.857   8.374  12.021
89618W        W62043  17.193  14.793  11.536
89619W        W62044  25.687  11.687   9.970
89620W        W62045  40.907   1.418  12.372
89621W        W62046  10.665   5.269   2.840
89622W        W62047  18.242  31.431   0.392
89623W        W62048  17.078  29.958  12.089
89624W        W62049  43.874  39.038   3.157
89625W        W62050  43.844  20.076   2.731
89626W        W62051  31.573  28.623  14.487
89627W        W62052  36.396   0.414  14.881
89628W        W62053  14.622   8.188   2.303
89629W        W62054  16.256  42.371   1.212
89630W        W62055   9.826  19.210  12.873
89631W        W62056   4.766  23.101  13.453
89632W        W62057  31.523  10.294  13.489
89633W        W62058  34.390  38.908   0.850
89634W        W62059  35.056  42.871  10.635
89635W        W62060  17.767  19.709   0.811
89636W        W62061  21.515  18.742   2.805
89637W        W62062  16.261  40.460   4.654
89638W        W62063  18.694  30.482   4.690
89639W        W62064  23.242  26.506   1.338
89640W        W62065  24.012  15.259   2.276
89641W        W62066   0.430  29.098   3.328
89642W        W62067  19.087  31.123   3.209
89643W        W62068  18.684  10.765  12.470
89644W        W62069  44.804  12.156  12.869
89645W        W62070  10.171  17.620   3.287
89646W        W62071  16.584  38.999  12.407
89647W        W62072  24.592  10.633   4.837
89648W        W62073  22.584  38.528   1.215
89649W        W62074  21.669  17.251  11.981
89650W        W62075  24.643  40.891   2.241
89651W        W62076   8.381  13.811   2.201
89652W        W62077  38.926   2.957  13.022
89653W        W62078  43.411  42.482   1.729
89654W        W62079  37.511  23.495   2.396
89655W        W62080  12.254   8.348  14.805
89656W        W62081  22.668  35.896   0.891
89657W        W62082  34.052  31.048  11.992
89658W        W62083  12.644  31.619  13.050
89659W        W62084   8.378  19.183   0.243
89660W        W62085  27.536  39.885  10.920
89661W        W62086  28.123   8.213   2.271
89662W        W62087  12.314  39.826  14.437
89663W        W62088  31.543  26.130  14.408
89664W        W62089  21.057  42.877  10.422
89665W        W62090  12.627  37.435   2.418
89666W        W62091  22.515  12.753   2.764
89667W        W62092  14.589   5.860   1.738
89668W        W62093  16.125  27.003   1.378
89669W        W62094  21.553  34.966  13.488
89670W        W62095  28.090  28.658  10.103
89671W        W62096  18.203  30.498   0.905
89672W        W62097   5.374   1.836  12.450
89673W        W62098  43.394  21.154   3.208
89674W        W62099  15.672  41.840   2.845
89675W        W62100  38.436  17.231  13.828
89676W        W62101  12.164  39.335   3.636
89677W        W62102  25.541   5.815   9.927
89678W        W62103  21.669  30.137  13.343
89679W        W62104  25.635  31.098   3.273
89680W        W62105   9.695  13.159  14.965
89681W        W62106  26.600  18.158  14.309
89682W        W62107   6.830   4.768   0.922
89683W        W62108  23.172  32.126   0.727
89684W        W62109  43.289  10.257   2.750
89685W        W62110  34.549  36.420   4.298
89686W        W62111  26.688  33.466   2.713
89687W        W62112  41.366  23.550  12.475
89688W        W62113  27.594  33.420  13.850
89689W        W62114  33.574   1.942   4.274
89690W        W62115  24.007   3.868   0.826
89691W        W62116  22.577  44.908   1.404
89692W        W62117  38.050  17.305  13.402
89693W        W62118  39.837   4.748  13.337
89694W        W62119  26.600  15.669   0.291
89695W        W62120   3.294  22.523   5.316
89696W        W62121  36.850  17.269  10.417
89697W        W62122  36.082  25.123   4.288
89698W        W62123  30.614   1.937   3.763
89699W        W62124  26.662   3.906  12.370
89700W        W62125  21.625  39.362  10.979
89701W        W62126  33.997  13.246   0.751
89702W        W62127   7.830  27.186  11.973
89703W        W62128   8.260  11.635  12.428
89704W        W62129  32.508   2.316  14.502
89705W        W62130  23.187  26.108  10.962
89706W        W62131  16.694  41.985   1.328
89707W        W62132  10.378  16.076  11.115
89708W        W62133  12.183   2.413  14.513
89709W        W62134  13.208   4.891   0.326
89710W        W62135  38.413   7.863   5.096
89711W        W62136   7.268  26.091   3.644
89712W        W62137   9.173  39.331  13.832
89713W        W62138  27.000   4.723  10.980
89714W        W62139  21.252  42.891  13.960
89715W        W62140  40.013  20.647   0.353
89716W        W62141  41.354   7.264  10.625
89717W        W62142  18.200   6.377   3.157
89718W        W62143  31.550  44.438   2.882
89719W        W62144  26.570  26.059   0.914
89720W        W62145  16.116  18.072   0.310
89721W        W62146  14.157   7.345   3.732
89722W        W62147  30.520  41.886  11.041
89723W        W62148   2.811  38.063  14.405
89724W        W62149  17.062  38.995  14.006
89725W        W62150  30.414  17.733   3.769
89726W        W62151  20.764   3.372  11.379
89727W        W62152  14.629   3.757   3.224
89728W        W62153  14.624   1.794   1.755
89729W        W62154  39.964   5.267   1.916
89730W        W62155   6.194  19.589  13.431
89731W        W62156  43.929  40.454  12.931
89732W        W62157  25.967  30.942   0.260
89733W        W62158  37.375  16.095   1.404
89734W        W62159  27.070  29.602  11.019
89735W        W62160  44.892  13.807   0.297
89736W        W62161   0.290  10.816   4.229
89737W        W62162  17.731  11.693  12.850
89738W        W62163   5.289  38.448   1.790
89739W        W62164  37.439  37.401  13.021
89740W        W62165   1.421  27.603   3.335
89741W        W62166  44.441  14.172   4.255
89742W        W62167  22.201   8.856  12.504
89743W        W62168   2.818   6.193  10.642
89744W        W62169   9.379  12.262   4.216
89745W        W62170  41.825  27.122   2.353
89746W        W62171  40.352  24.023  14.900
89747W        W62172   4.318  44.366   4.814
89748W        W62173   9.728  19.157   0.816
89749W        W62174  18.158  31.464  12.954
89750W        W62175  20.232  12.312   4.281
89751W        W62176   9.679  30.103  13.913
89752W        W62177  11.841  25.083  13.923
89753W        W62178   2.897  44.807  12.352
89754W        W62179   5.770  39.361   2.779
89755W        W62180  38.854   9.888   9.934
89756W        W62181  34.552  15.647  11.489
89757W        W62182  10.239  40.329  12.951
89758W        W62183   4.726  28.479   2.232
89759W        W62184  39.031  18.104   4.717
89760W        W62185   4.791   4.319  14.303
89761W        W62186   6.327  12.816  11.121
89762W        W62187  11.629  29.151  10.898
89763W        W62188  35.491   7.294   5.276
89764W        W62189  15.619   3.717   1.715
89765W        W62190  34.115   1.426   2.327
89766W        W62191   4.324  33.892  14.910
89767W        W62192  17.759  40.384   2.854
89768W        W62193  12.206   1.838   4.688
89769W        W62194  34.991  41.845   2.311
89770W        W62195  12.244  28.654   1.435
89771W        W62196  39.347  27.127   3.645
89772W        W62197   9.256  18.563   3.847
89773W        W62198  24.154   2.927   4.745
89774W        W62199  15.143   6.225   4.205
89775W        W62200  42.932  42.497   1.709
89776W        W62201   3.229  31.457   4.831
89777W        W62202  29.573  18.694  13.978
89778W        W62203   8.229  34.602  14.004
89779W        W62204  29.921  17.078   3.226
89780W        W62205  35.934  28.609   3.360
89781W        W62206  17.143  31.069  14.917
89782W        W62207  15.645  18.263  11.410
89783W        W62208  20.164   2.927  12.464
89784W        W62209   2.815  31.996  11.076
89785W        W62210  36.855  16.129  13.981
89786W        W62211   5.242  23.082   4.616
89787W        W62212  10.247  27.680  13.997
89788W        W62213  30.647  22.021   0.281
89789W        W62214  15.800  36.092   9.926
89790W        W62215  21.714  25.581   1.313
89791W        W62216  23.176  33.102   4.694
89792W        W62217   9.335  27.108  14.287
89793W        W62218  41.043   7.689   0.894
89794W        W62219  41.976  36.969   2.354
89795W        W62220  17.210   4.215  14.358
89796W        W62221  29.455  14.604  11.579
89797W        W62222  26.031  43.872  14.766
89798W        W62223  36.874  36.465   4.257
89799W        W62224  19.196  22.680   1.891
89800W        W62225  28.065  20.752  14.401
89801W        W62226  14.333  23.027  11.021
89802W        W62227  33.081  11.241  14.854
89803W        W62228   0.322  42.310  10.965
89804W        W62229   6.747   0.248   3.815
89805W        W62230  18.597  36.916  14.319
89806W        W62231  15.165  44.860   3.844
89807W        W62232   7.184  12.149   2.341
89808W        W62233  11.158  20.060   2.835
89809W        W62234  24.103  35.593  11.048
89810W        W62235  33.981  32.100  12.439
89811W        W62236  34.456   7.798   2.775
89812W        W62237   3.332  11.754   1.779
89813W        W62238   4.411  35.478  11.887
89814W        W62239  10.320  33.116   1.384
89815W        W62240  30.634  10.863  11.018
89816W        W62241  41.428  21.041  13.815
89817W        W62242  28.459  21.524   1.262
89818W        W62243  30.597   3.933  12.872
89819W        W62244   2.239  40.054  12.062
89820W        W62245  20.752  42.402  11.955
89821W        W62246  28.436  26.040   1.210
89822W        W62247  10.283   4.264  11.085
89823W        W62248   5.743   7.337  12.095
89824W        W62249  15.117  25.139   1.706
89825W        W62250  28.657  42.935  10.930
89826W        W62251   6.906  42.322   1.413
89827W        W62252  23.685  39.432  14.486
89828W        W62253  27.598  25.671  13.000
89829W        W62254  41.404  11.861  13.409
89830W        W62255  23.626  29.108  12.509
89831W        W62256  29.573   3.352   2.891
89832W        W62257  26.048  35.955   2.866
89833W        W62258  15.628  44.339  14.353
89834W        W62259  29.657   9.760   4.743
89835W        W62260  20.201  30.923   0.944
89836W        W62261  43.949  27.196   1.914
89837W        W62262  37.963  18.760  10.954
89838W        W62263  23.725  24.068   2.899
89839W        W62264   9.279  32.594  13.808
89840W        W62265  41.323  39.898  14.384
89841W        W62266   2.841  24.518   0.783
89842W        W62267  19.280  21.511  12.063
89843W        W62268  43.915  37.527   5.106
89844W        W62269  25.093  40.514  11.548
89845W        W62270   5.904  25.964  10.463
89846W        W62271  20.563  26.023   3.306
89847W        W62272  30.579  23.693   2.238
89848W        W62273  22.154  28.048  14.428
89849W        W62274  40.893  12.657  11.432
89850W        W62275  23.555  18.790   4.823
89851W        W62276  25.489  41.473  13.479
89852W        W62277  37.513  40.039  10.981
89853W        W62278  43.767  42.857  14.765
89854W        W62279  40.426  37.927   2.407
89855W        W62280   0.281   4.409   0.340
89856W        W62281  33.943  44.980  10.570
89857W        W62282  18.123  34.981  10.581
89858W        W62283  12.293  24.687  12.066
89859W        W62284  30.457  42.293   2.235
89860W        W62285   7.864  29.508  10.416
89861W        W62286  21.561  42.362   2.349
89862W        W62287  42.999  27.006  14.821
89863W        W62288  29.456  20.171  14.397
89864W        W62289  17.262  26.197  13.414
89865W        W62290  21.109  20.584   0.259
89866W        W62291   4.718  22.048  13.948
89867W        W62292  21.200  21.529  14.802
89868W        W62293   5.422   8.392  10.601
89869W        W62294  12.291  13.830  12.831
89870W        W62295  25.992  16.639  11.392
89871W        W62296   4.439  24.033   4.302
89872W        W62297   8.793  30.134   4.323
89873W        W62298  25.991  37.896  13.866
89874W        W62299  28.184   6.763   1.254
89875W        W62300   5.419  37.535  11.857
89876W        W62301  27.100   2.958   1.826
89877W        W62302   8.214   2.382  10.591
89878W        W62303   5.251  21.070  14.763
89879W        W62304  24.533  38.420   2.371
89880W        W62305  41.832   8.715   4.223
89881W        W62306  44.282   7.696   5.101
89882W        W62307   0.351   1.876   4.144
89883W        W62308  28.607  15.172  10.513
89884W        W62309   2.393  27.999   1.837
89885W        W62310  42.023  20.144  12.539
89886W        W62311  12.651   7.764  13.308
89887W        W62312  13.210   3.405   4.833
89888W        W62313  15.253   8.662   1.254
89889W        W62314  39.039   1.899  11.963
89890W        W62315  44.303  19.125   4.300
89891W        W62316  25.665   8.745  12.088
89892W        W62317  15.807  35.000  14.281
89893W        W62318  27.671  24.720   3.245
89894W        W62319  15.236  43.821  11.885
89895W        W62320  17.289  24.131   3.742
89896W        W62321  25.131  18.136  14.802
89897W        W62322  21.576  38.870  11.870
89898W        W62323   2.319  19.129   4.737
89899W        W62324  24.183  12.840   0.866
89900W        W62325   8.738  24.616   4.791
89901W        W62326  12.243  39.997   0.746
89902W        W62327  20.218  26.670   4.194
89903W        W62328  26.106  27.592   1.760
89904W        W62329   2.831  43.423   3.192
89905W        W62330  38.422  27.173  12.523
89906W        W62331   0.288  31.631  13.867
89907W        W62332   4.835  43.290   3.684
89908W        W62333  21.079  31.001   0.259
89909W        W62334  44.332   0.807   2.403
89910W        W62335  26.687   0.964   2.761
89911W        W62336  14.333   3.392  12.474
89912W        W62337   8.376  24.110  14.437
89913W        W62338  40.415  19.693   0.419
89914W        W62339  33.413  35.369  14.279
89915W        W62340  21.185  16.297   2.731
89916W        W62341  17.614  13.307   3.635
89917W        W62342  26.699  38.497   1.282
89918W        W62343  39.409  23.641   3.351
89919W        W62344  15.092  10.362   1.306
89920W        W62345   2.352  44.947  10.438
89921W        W62346   8.684  32.624   1.410
89922W        W62347  18.257  11.358   1.351
89923W        W62348  28.448   4.287  13.459
89924W        W62349  16.110  11.362   1.273
89925W        W62350  31.525   2.784   2.290
89926W        W62351  32.044  29.610   2.697
89927W        W62352  24.132   8.233   0.288
89928W        W62353  38.957  27.135   2.249
89929W        W62354  11.316  25.990  11.101
89930W        W62355  15.809   2.959   1.444
89931W        W62356  19.066  28.539  11.895
89932W        W62357  13.821  31.605   3.703
89933W        W62358   3.358  35.529  14.459
89934W        W62359  19.776  41.492   1.865
89935W        W62360  44.913  43.801   2.748
89936W        W62361  13.797  22.675   0.841
89937W        W62362   9.258  24.985   1.346
89938W        W62363   3.781  23.228  13.508
89939W        W62364   2.288  16.738   0.403
89940W        W62365  25.100  11.309   3.770
89941W        W62366  30.552  41.992  12.425
89942W        W62367  17.190  40.307   3.827
89943W        W62368  23.015  30.444  13.400
89944W        W62369  38.872  17.212  10.035
89945W        W62370   8.239  22.536   2.715
89946W        W62371  39.864  14.766   3.342
89947W        W62372  37.848   2.313  12.975
89948W        W62373  36.403   1.841   0.888
89949W        W62374  11.138  31.556  13.878
89950W        W62375  36.914  12.197   4.820
89951W        W62376  23.563  34.046  13.478
89952W        W62377  41.968  35.503   2.339
89953W        W62378  23.044   0.964   2.278
89954W        W62379  14.195  44.802   1.445
89955W        W62380  36.560   8.214   0.782
89956W        W62381  24.579  22.582  11.574
89957W        W62382  33.484  18.071  14.841
89958W        W62383  34.095  36.480  11.901
89959W        W62384   3.426  14.249   5.174
89960W        W62385  34.436  42.845   4.749
89961W        W62386  38.043  10.245  10.026
89962W        W62387   0.489   8.370   4.217
89963W        W62388  19.065   3.746   4.764
89964W        W62389  37.901  22.520  14.398
89965W        W62390  32.458  39.931  14.782
89966W        W62391   8.374   4.397  12.976
89967W        W62392  13.726  43.432  12.043
89968W        W62393  32.137   0.812   1.702
89969W        W62394  27.079  23.492  14.989
89970W        W62395  23.156   3.740   1.368
89971W        W62396  16.294  14.191  10.470
89972W        W62397  31.937   0.287  14.773
89973W        W62398  13.225   6.682   2.679
89974W        W62399  23.694  40.460  12.081
89975W        W62400  28.044   4.232  10.621
89976W        W62401  12.743  39.348  14.881
89977W        W62402  42.781  21.639  10.502
89978W        W62403  30.095  30.608   1.809
89979W        W62404  25.702  40.859   1.773
89980W        W62405  16.602  40.463  11.478
89981W        W62406  16.079  18.780  11.869
89982W        W62407  30.659  44.319  14.788
89983W        W62408  11.299  35.906   3.762
89984W        W62409  18.662  26.141  14.785
89985W        W62410  12.162  11.366  14.824
89986W        W62411   8.893   6.217   3.807
89987W        W62412  41.858  17.773  10.959
89988W        W62413  24.065  14.664  13.362
89989W        W62414  28.153   9.292  12.967
89990W        W62415   5.905  43.436   0.781
89991W        W62416  38.422  26.484   3.164
89992W        W62417  35.456  43.985  11.941
89993W        W62418  11.318  27.117  12.005
89994W        W62419   3.822  21.086   1.796
89995W        W62420   8.808  30.063  13.918
89996W        W62421  44.977  17.658  13.914
89997W        W62422  44.876  33.110  10.986
89998W        W62423  10.377  15.714  14.834
89999W        W62424  37.966  10.791   2.677
90000W        W62425   7.331  35.550  13.345
90001W        W62426  28.671  44.348  13.027
90002W        W62427  39.990   3.383   0.887
90003W        W62428  35.022  16.271  14.338
90004W        W62429  31.147  15.090   1.426
90005W        W62430   8.166   3.418  13.064
90006W        W62431  10.198  34.482  11.591
90007W        W62432   9.363   6.754   2.405
90008W        W62433   0.311   1.919  12.054
90009W        W62434  28.601  10.380  12.347
90010W        W62435  10.303  39.341   2.861
90011W        W62436  17.802  30.533   2.796
90012W        W62437  14.101  15.618   0.921
90013W        W62438  28.064   1.319   2.867
90014W        W62439   2.826  13.615   1.883
90015W        W62440   3.941  14.619   1.728
90016W        W62441   2.324  18.694  11.517
90017W        W62442  35.957  36.368  10.545
90018W        W62443  17.179   2.316  11.455
90019W        W62444  27.640   7.241  13.952
90020W        W62445  23.178  43.913  11.444
90021W        W62446  27.950   6.854  13.426
90022W        W62447  33.596  36.940  11.890
90023W        W62448   8.404  11.372   4.307
90024W        W62449  35.996   0.914  12.078
90025W        W62450  29.142   5.408  14.890
90026W        W62451   6.327  14.230   3.288
90027W        W62452  29.624  43.991   4.161
90028W        W62453  35.924  28.473  14.340
90029W        W62454   6.788  29.547  14.277
90030W        W62455  29.149  10.214   2.785
90031W        W62456  38.376  31.911  14.970
90032W        W62457  19.691  35.913  11.974
90033W        W62458  18.725   9.749   0.909
90034W        W62459  41.944  40.416  10.066
90035W        W62460  39.063  25.012   3.244
90036W        W62461  22.712   6.922   4.339
90037W        W62462  30.514  28.438   4.806
90038W        W62463  41.001  41.322  14.389
90039W        W62464  32.485  10.382  12.964
90040W        W62465  25.594  31.142  12.420
90041W        W62466   4.707   7.696   1.358
90042W        W62467  39.437   9.839  12.444
90043W        W62468   2.736  19.264   3.652
90044W        W62469  22.699  12.742  14.942
90045W        W62470   8.661   2.289   2.813
90046W        W62471  37.474  33.390   9.998
90047W        W62472  31.637  13.687  14.803
90048W        W62473  43.780   0.419   3.296
90049W        W62474   0.892  35.362   4.600
90050W        W62475   0.982  14.216   0.761
90051W        W62476  12.716  12.199  13.018
90052W        W62477  41.929  44.861   4.299
90053W        W62478   0.980  10.638  14.506
90054W        W62479  37.441  32.509   1.848
90055W        W62480  18.252  15.738  13.872
90056W        W62481  24.080  13.721  11.546
90057W        W62482  18.136   5.716   0.330
90058W        W62483  17.698  42.521  11.895
90059W        W62484  34.388   8.686  10.135
90060W        W62485  24.160  10.867  12.368
90061W        W62486  19.581   4.873   3.816
90062W        W62487   7.189  19.241  10.567
90063W        W62488  38.836  35.399   3.813
90064W        W62489  39.464  43.442  11.098
90065W        W62490  13.213   2.887  11.517
90066W        W62491  40.894   5.859   4.238
90067W        W62492  23.664   5.200   1.370
90068W        W62493  15.757  28.486   4.159
90069W        W62494  10.704  44.960  12.062
90070W        W62495  33.482   1.935   1.738
90071W        W62496  21.533   8.283  12.343
90072W        W62497  25.660   7.792  12.485
90073W        W62498  28.149  21.531   4.717
90074W        W62499  16.106   6.879   3.260
90075W        W62500  40.536  17.597   3.819
90076W        W62501  13.309  42.872   4.320
90077W        W62502   7.359  17.085  11.877
90078W        W62503  15.128  32.122  13.449
90079W        W62504  44.368  17.593   3.199
90080W        W62505  23.598  35.435  14.451
90081W        W62506  22.624  34.095  10.529
90082W        W62507  39.889   2.338  11.531
90083W        W62508  12.640   5.783   1.762
90084W        W62509  22.573   1.317   4.217
90085W        W62510  33.099  39.883   3.204
90086W        W62511  18.268  32.631   0.264
90087W        W62512  27.614  27.969   4.685
90088W        W62513  37.867  23.225   1.240
90089W        W62514  42.784  41.455   4.735
90090W        W62515  40.926   8.676   2.201
90091W        W62516  35.580   4.766   0.792
90092W        W62517  30.071  37.357   1.328
90093W        W62518  25.697  44.869  14.284
90094W        W62519  21.178   7.291  13.531
90095W        W62520  38.926  38.335  11.545
90096W        W62521  29.491   5.378  10.974
90097W        W62522  13.347  25.706   2.346
90098W        W62523   9.182   2.945   3.309
90099W        W62524  12.638  23.634   0.889
90100W        W62525  44.892  41.389   1.775
90101W        W62526  19.094   1.328   3.782
90102W        W62527  39.545  28.632   2.785
90103W        W62528  43.488  26.993   4.603
90104W        W62529  22.041  19.261   2.247
90105W        W62530  23.232  43.444   1.735
90106W        W62531   4.913  43.481   2.317
90107W        W62532  12.225  31.985  12.405
90108W        W62533   6.830  21.217   1.385
90109W        W62534  24.224  14.329  10.030
90110W        W62535  14.655  35.066   9.974
90111W        W62536  19.075  35.494  14.487
90112W        W62537  26.107  43.021  13.884
90113W        W62538  17.293  38.916   1.716
90114W        W62539  41.409  25.712  13.890
90115W        W62540  38.421   3.371   0.465
90116W        W62541   5.732  30.152  11.598
90117W        W62542  24.086  11.861  14.872
90118W        W62543   3.799  13.782  11.962
90119W        W62544  32.076  33.951  10.503
90120W        W62545   7.181  32.416  14.888
90121W        W62546  15.585  13.678   1.321
90122W        W62547  13.842  30.425   0.963
90123W        W62548  38.491  12.303   0.892
90124W        W62549  32.952  35.942  13.502
90125W        W62550  38.527  43.439  10.473
90126W        W62551  43.394  13.279   4.700
90127W        W62552  29.156  38.533   9.467
90128W        W62553  38.329   6.279  11.075
90129W        W62554  36.033   4.944  14.315
90130W        W62555  22.034  29.604   0.742
90131W        W62556  21.070   7.674   4.227
90132W        W62557  36.456   2.722  11.877
90133W        W62558  42.398   5.766  11.441
90134W        W62559  28.509   6.899   1.355
90135W        W62560   5.353  34.395   4.830
90136W        W62561  39.386  27.631  11.598
90137W        W62562   6.187  13.184   1.433
90138W        W62563  33.418  23.154   0.414
90139W        W62564  31.409  37.455   4.727
90140W        W62565  17.688   5.743  14.028
90141W        W62566   7.281  38.041  14.903
90142W        W62567   3.271  25.543   1.421
90143W        W62568  12.737  37.513  13.547
90144W        W62569  27.567  20.203   4.673
90145W        W62570  34.908  10.794   4.620
90146W        W62571  27.023  25.634   4.167
90147W        W62572  26.959  24.611   0.332
90148W        W62573  21.665  23.177  14.461
90149W        W62574   0.261  14.607  11.388
90150W        W62575   7.885  28.632  11.021
90151W        W62576   4.873  25.149   1.758
90152W        W62577  16.276  32.058  10.110
90153W        W62578  12.825  36.348  13.418
90154W        W62579  42.286  36.858  12.072
90155W        W62580   8.819  28.618   3.198
90156W        W62581  20.235  23.152  12.507
90157W        W62582   0.325   6.357  14.384
90158W        W62583   0.956  29.515   1.324
90159W        W62584  36.509  24.116  10.944
90160W        W62585   7.407  39.047  10.434
90161W        W62586  43.903  11.824   0.367
90162W        W62587  18.286  25.507  12.832
90163W        W62588  37.944   8.381   0.836
90164W        W62589  21.257   6.337   3.758
90165W        W62590   1.765  44.832  11.979
90166W        W62591  20.757  18.194  12.575
90167W        W62592   4.204  32.086   4.152
90168W        W62593  43.805  32.142   4.811
90169W        W62594  33.410  13.786   3.295
90170W        W62595   8.313  20.158  12.838
90171W        W62596   5.439  18.283  11.060
90172W        W62597   6.857   8.210  10.938
90173W        W62598  22.734  31.901   2.862
90174W        W62599  11.246  37.953   0.886
90175W        W62600  21.597   5.214   3.199
90176W        W62601   6.184  11.840   2.252
90177W        W62602  29.089  25.187  14.893
90178W        W62603   6.802  21.641  13.040
90179W        W62604  25.170   8.699  10.961
90180W        W62605  37.083  40.543  14.412
90181W        W62606  12.629  11.782   3.657
90182W        W62607  12.653  32.888  13.421
90183W        W62608  27.143  21.533  12.346
90184W        W62609  35.454  27.584   3.284
90185W        W62610  19.707  15.585  12.356
90186W        W62611   1.450  42.337  11.905
90187W        W62612  13.670  18.086   3.840
90188W        W62613  41.942  22.729  13.370
90189W        W62614   0.814  31.415  12.050
90190W        W62615   5.929  16.185   2.725
90191W        W62616  34.607   6.727  13.496
90192W        W62617  19.203  38.373   1.906
90193W        W62618  41.982  40.431   3.657
90194W        W62619  16.792  42.387   0.891
90195W        W62620  16.792  23.664  13.463
90196W        W62621  19.110  35.870   0.315
90197W        W62622   0.841  38.962   4.692
90198W        W62623  21.153  27.089   1.774
90199W        W62624  22.027   1.393   2.697
90200W        W62625  38.979  37.558  13.890
90201W        W62626  42.833   0.752  10.453
90202W        W62627   8.376  19.231  14.891
90203W        W62628  29.141  26.088   0.468
90204W        W62629  10.271  38.474  11.973
90205W        W62630  18.132   1.344  11.377
90206W        W62631   7.675  40.963   2.359
90207W        W62632  43.941  21.078  10.918
90208W        W62633  14.139  44.396  12.066
90209W        W62634  12.282  30.036  11.484
90210W        W62635  21.095  32.114   2.325
90211W        W62636  26.468  14.237  11.129
90212W        W62637   3.341  18.632  10.520
90213W        W62638  31.411  38.996   0.245
90214W        W62639  36.929  42.486  12.998
90215W        W62640  26.053  30.008   5.147
90216W        W62641  13.692   6.899  14.962
90217W        W62642  33.399  42.882  13.813
90218W        W62643  31.445  21.664  11.502
90219W        W62644  28.527  31.919  14.877
90220W        W62645   8.700  29.987   1.779
90221W        W62646   5.930   3.370  14.943
90222W        W62647   3.751  11.625  10.575
90223W        W62648  24.143  17.224   4.795
90224W        W62649   8.838  25.180  11.947
90225W        W62650  12.145   0.862   2.361
90226W        W62651  14.143  12.694  13.546
90227W        W62652   9.837   5.864  13.341
90228W        W62653   5.813  43.283   0.328
90229W        W62654  10.289  16.139  13.939
90230W        W62655   5.751  12.846   2.855
90231W        W62656  19.129   6.759   2.708
90232W        W62657  10.257  13.195   4.218
90233W        W62658  23.552  20.175   1.363
90234W        W62659  39.052  12.257   3.650
90235W        W62660  17.589  36.082  11.070
90236W        W62661  15.812  28.953   9.988
90237W        W62662  11.772  18.665   1.861
90238W        W62663  44.767  10.646  12.966
90239W        W62664  20.579  33.482   0.754
90240W        W62665  12.163  32.568  12.837
90241W        W62666   7.684  38.041  14.943
90242W        W62667  22.697   7.414   1.856
90243W        W62668  32.002  33.076   2.896
90244W        W62669  39.497  26.022  11.863
90245W        W62670  14.793  31.585   2.210
90246W        W62671  17.127  31.448  11.096
90247W        W62672  14.603  42.975   0.876
90248W        W62673  41.411  35.415   3.756
90249W        W62674  10.164   3.387   4.178
90250W        W62675  12.321   8.316   3.724
90251W        W62676  30.917   6.343   5.243
90252W        W62677   3.886  26.677   5.311
90253W        W62678  15.118   3.937   0.313
90254W        W62679  12.138  25.513   2.729
90255W        W62680  43.486   7.339   2.707
90256W        W62681  35.479  34.434  10.542
90257W        W62682  15.628  23.518   1.713
90258W        W62683  17.743  31.481   2.792
90259W        W62684  27.008  31.001   9.636
90260W        W62685  29.434  20.106  14.912
90261W        W62686  18.147  25.084   1.902
90262W        W62687  21.611  24.067  13.938
90263W        W62688  17.739   3.778   3.665
90264W        W62689  28.183  40.400  13.492
90265W        W62690  38.046  14.711   2.186
90266W        W62691  31.012  23.195   1.447
90267W        W62692  39.357  28.093   3.702
90268W        W62693   0.257  30.146  10.593
90269W        W62694  10.354  40.318  10.406
90270W        W62695  10.642  24.098  14.501
90271W        W62696  16.305   7.380   3.743
90272W        W62697  33.959  34.395   3.181
90273W        W62698   5.417  43.344  13.055
90274W        W62699  24.558  30.912   3.180
90275W        W62700  30.128  24.113   4.739
90276W        W62701  19.067   8.707  11.435
90277W        W62702  32.952  34.509  13.396
90278W        W62703  20.650  10.259   4.731
90279W        W62704  35.536  25.638  12.383
90280W        W62705  28.479  31.489  11.098
90281W        W62706  26.594  10.685   3.194
90282W        W62707  35.856  10.366   1.428
90283W        W62708   6.391  17.222   2.248
90284W        W62709  13.636  40.006  10.639
90285W        W62710  16.714  14.099  10.428
90286W        W62711  41.985   1.781  13.524
90287W        W62712   3.775  31.469  13.347
90288W        W62713  38.987   0.343  11.019
90289W        W62714  26.522  36.901  13.922
90290W        W62715  15.583  40.825  13.919
90291W        W62716  11.318  10.839   1.779
90292W        W62717   4.247  24.187   0.283
90293W        W62718  31.962  13.708  12.843
90294W        W62719  33.058  22.134  10.459
90295W        W62720  43.928   7.806   2.852
90296W        W62721  14.623   9.792  11.438
90297W        W62722  14.778  20.767  12.017
90298W        W62723  20.206  30.954   1.854
90299W        W62724  41.938  42.809   3.382
90300W        W62725  32.007  33.480   0.911
90301W        W62726  21.241  16.173   2.305
90302W        W62727  13.641  20.726  13.329
90303W        W62728  41.292   6.876  12.382
90304W        W62729   5.884  29.611  10.405
90305W        W62730  10.214  19.185   1.250
90306W        W62731  26.528  42.851   3.786
90307W        W62732  17.077  42.990  10.071
90308W        W62733   3.226  26.507  14.023
90309W        W62734   6.777   0.924  13.481
90310W        W62735  18.642  10.863  13.467
90311W        W62736  12.248  27.653  11.110
90312W        W62737  22.589  15.605   4.208
90313W        W62738  13.690   9.334   3.655
90314W        W62739  25.987  32.591   2.709
90315W        W62740  19.169   7.270   2.740
90316W        W62741  16.790  41.001   1.707
90317W        W62742  13.136  38.522   2.316
90318W        W62743   0.849  23.130   1.450
90319W        W62744   6.747  16.186  10.516
90320W        W62745   5.381  28.457   1.772
90321W        W62746  29.659  29.503   2.859
90322W        W62747  17.120   6.275   5.175
90323W        W62748  40.045  44.927  11.578
90324W        W62749   0.453  26.647   0.329
90325W        W62750  15.280  16.752  14.922
90326W        W62751  42.309  22.088  14.321
90327W        W62752  18.161  10.684   4.350
90328W        W62753   5.252  12.298  14.903
90329W        W62754  41.806  12.795   3.765
90330W        W62755  34.501  36.462  11.494
90331W        W62756   3.418  13.794   4.172
90332W        W62757  44.863  19.547  12.062
90333W        W62758   3.331  28.935  14.460
90334W        W62759   0.952  11.137  12.051
90335W        W62760  27.168   7.302   0.904
90336W        W62761  14.109  16.082   0.855
90337W        W62762  39.508  33.615   2.809
90338W        W62763   6.723  31.491  14.293
90339W        W62764  44.502  28.125  11.996
90340W        W62765  29.062   3.260   4.272
90341W        W62766  12.765   0.411  12.917
90342W        W62767   5.194  24.094  14.968
90343W        W62768  35.077  35.526   3.241
90344W        W62769  27.962  39.901  13.473
90345W        W62770  38.539  44.496   4.145
90346W        W62771   4.787  29.636   3.758
90347W        W62772  34.989   7.778   2.204
90348W        W62773  42.292   9.161   4.255
90349W        W62774   8.705   6.714  13.510
90350W        W62775  19.637  43.903   0.943
90351W        W62776  18.291  20.066  11.056
90352W        W62777  19.155   1.301   2.364
90353W        W62778   3.348  15.165   4.699
90354W        W62779  41.035  20.731  10.111
90355W        W62780   0.380  19.100  12.421
90356W        W62781  30.487  40.365  11.565
90357W        W62782   8.874   2.459   0.933
90358W        W62783  39.475  38.863  11.954
90359W        W62784  29.119  43.341   1.298
90360W        W62785   8.388  20.141  14.819
90361W        W62786  13.144  13.680  10.631
90362W        W62787  43.767  15.234   2.824
90363W        W62788  40.531  29.171  13.824
90364W        W62789   6.367  18.200  13.044
90365W        W62790  17.556  27.494   4.140
90366W        W62791  41.384  33.013  11.587
90367W        W62792   5.912  24.540   2.361
90368W        W62793  43.903  34.898   5.221
90369W        W62794  27.144  25.541   1.851
90370W        W62795  17.293  12.185  12.994
90371W        W62796  20.630  10.188   9.518
90372W        W62797  34.415  22.075  10.515
90373W        W62798  26.656  11.137  12.516
90374W        W62799  29.151  23.722  11.505
90375W        W62800  18.747  35.961   3.791
90376W        W62801   0.249  25.486  11.074
90377W        W62802  11.187   0.259   3.631
90378W        W62803   1.292   7.285  13.973
90379W        W62804  36.080  36.893  12.491
90380W        W62805  35.450  43.925   2.777
90381W        W62806  27.495   2.252  12.014
90382W        W62807  33.995  19.714   2.273
90383W        W62808  42.430  31.516   2.187
90384W        W62809  39.482  22.158   3.759
90385W        W62810   5.884  20.633  10.465
90386W        W62811  32.969  29.546   2.182
90387W        W62812  42.016  17.182   5.272
90388W        W62813  26.150  24.534   1.379
90389W        W62814  17.121  14.221   5.160
90390W        W62815  43.862  37.416   4.293
90391W        W62816  21.122  43.488   0.871
90392W        W62817  27.026  31.564   1.240
90393W        W62818  30.424  18.572   2.785
90394W        W62819  32.088  39.825  11.043
90395W        W62820  27.524  18.268  11.486
90396W        W62821  36.910  22.538   3.166
90397W        W62822  44.475  27.966   0.934
90398W        W62823  33.399  35.363   3.749
90399W        W62824  21.752  14.613  12.876
90400W        W62825  30.159  21.158   2.388
90401W        W62826  37.403  27.980   4.635
90402W        W62827  35.078   7.247  14.923
90403W        W62828  29.591  21.170   1.226
90404W        W62829  18.760  32.577  10.547
90405W        W62830  18.124  32.634   1.328
90406W        W62831  26.524  36.072   2.798
90407W        W62832   4.864  21.095  12.383
90408W        W62833  22.569  29.135   0.288
90409W        W62834  39.509  15.589  14.761
90410W        W62835  36.921   5.195   3.252
90411W        W62836  33.893  23.178  12.566
90412W        W62837  31.554  30.593  10.922
90413W        W62838   0.437  38.392   4.671
90414W        W62839  26.480  44.419  12.537
90415W        W62840  33.512  36.559   3.190
90416W        W62841  12.189   0.770  12.514
90417W        W62842  35.072  42.480   1.879
90418W        W62843  10.816  37.064   0.443
90419W        W62844   8.848  25.020  11.003
90420W        W62845  18.234  39.044   1.798
90421W        W62846  33.921  16.579  10.561
90422W        W62847  39.025  26.650   3.185
90423W        W62848  39.368  34.495   0.824
90424W        W62849  33.424  10.306  14.951
90425W        W62850  23.215  35.366  14.974
90426W        W62851   3.783  26.146   4.258
90427W        W62852  32.529  18.285  10.539
90428W        W62853   0.278  10.796  12.019
90429W        W62854  37.441  25.611   1.922
90430W        W62855  22.693  27.452  12.829
90431W        W62856  19.088  11.733  10.472
90432W        W62857  23.498  27.588  10.625
90433W        W62858  42.500  26.646  13.988
90434W        W62859  17.580  41.947  12.047
90435W        W62860  40.889  21.743  12.507
90436W        W62861  41.922  10.352  10.092
90437W        W62862   0.869  25.087   3.254
90438W        W62863  15.648  24.671   2.749
90439W        W62864  44.912   1.340   3.282
90440W        W62865   0.459  15.244   2.809
90441W        W62866  24.690  18.699  11.560
90442W        W62867  14.146  15.788   3.151
90443W        W62868   9.375  34.953   4.744
90444W        W62869  37.086  30.137  12.843
90445W        W62870  33.457  29.153   3.834
90446W        W62871  30.939  30.499  11.065
90447W        W62872  44.799   3.817   1.847
90448W        W62873  42.340  31.947  14.795
90449W        W62874  14.776  12.667   4.330
90450W        W62875  23.115  27.517   1.264
90451W        W62876   7.768  35.552   3.297
90452W        W62877   5.897  26.495   5.167
90453W        W62878  19.097  41.367  10.511
90454W        W62879  38.425   3.891   1.755
90455W        W62880  21.607   1.378  12.392
90456W        W62881  23.169  35.588   2.311
90457W        W62882  21.715  22.725   1.441
90458W        W62883  13.105  16.154  13.923
90459W        W62884  42.285  25.028  11.394
90460W        W62885  22.730  19.688   2.222
90461W        W62886   3.903  30.543   2.389
90462W        W62887  33.931  13.697  13.533
90463W        W62888  35.886  44.829   2.401
90464W        W62889  28.182  40.304  10.156
90465W        W62890   7.688  12.660  12.828
90466W        W62891  28.122   0.810  12.916
90467W        W62892  38.845   7.798  11.876
90468W        W62893  10.244  32.129  14.946
90469W        W62894  24.670   3.327   2.669
90470W        W62895  36.525  22.164   0.354
90471W        W62896  44.866  35.052   3.271
90472W        W62897  36.910  15.100  13.353
90473W        W62898  42.302  24.983   1.861
90474W        W62899  14.142  21.101   4.258
90475W        W62900  29.651   5.235  14.812
90476W        W62901   6.760  23.638  11.540
90477W        W62902  32.965  31.102  11.913
90478W        W62903  10.870   4.251   0.378
90479W        W62904  29.149  23.140   2.823
90480W        W62905  23.541  28.055   4.680
90481W        W62906   4.863  34.980   3.360
90482W        W62907  35.419  32.073  11.586
90483W        W62908  25.547  16.235   2.242
90484W        W62909  35.505  33.911  13.063
90485W        W62910  42.025   2.371  12.354
90486W        W62911  34.029  21.665  14.839
90487W        W62912  36.039  12.691  13.982
90488W        W62913  15.082   7.733  12.852
90489W        W62914  34.922  13.606  14.395
90490W        W62915   7.335  21.173   4.665
90491W        W62916  26.476  43.905   4.662
90492W        W62917  15.631  20.231   4.646
90493W        W62918  26.675  23.549  11.009
90494W        W62919   5.317  15.110   1.407
90495W        W62920   6.211  37.048   1.890
90496W        W62921  30.961  24.544   1.313
90497W        W62922  11.327  24.168   4.224
90498W        W62923  43.496  17.725   1.339
90499W        W62924  11.816  42.497  12.379
90500W        W62925  40.334  37.079   3.693
90501W        W62926   0.356  28.990  13.533
90502W        W62927   9.749  14.204   4.224
90503W        W62928  10.846   8.684   1.211
90504W        W62929   0.744   7.362  14.966
90505W        W62930   0.483  14.604   2.858
90506W        W62931  18.249  32.102  10.503
90507W        W62932  13.811  35.042  10.511
90508W        W62933  31.560  20.538   3.776
90509W        W62934  28.598  42.957   1.291
90510W        W62935   5.256  20.580  14.410
90511W        W62936  31.533  15.764  13.942
90512W        W62937   2.837  11.305  13.949
90513W        W62938  24.555  33.960   2.328
90514W        W62939  18.158  29.979  13.529
90515W        W62940  42.323   9.684  10.520
90516W        W62941  24.542   1.831   2.217
90517W        W62942  15.270  18.553  12.468
90518W        W62943  32.026  30.623  12.915
90519W        W62944  43.453  44.819  11.876
90520W        W62945  12.783  43.800   4.174
90521W        W62946   9.769  39.499   1.435
90522W        W62947  20.679  16.758   2.801
90523W        W62948  16.660  24.547  11.909
90524W        W62949  15.674   4.309  13.372
90525W        W62950  41.518  34.408  11.939
90526W        W62951  32.564   7.363   2.220
90527W        W62952   4.795  14.291  11.447
90528W        W62953  16.585  18.556   0.921
90529W        W62954  22.597  33.985   2.865
90530W        W62955  12.180  15.198   0.739
90531W        W62956   4.839  43.927  12.428
90532W        W62957  22.038  17.644   1.915
90533W        W62958  10.179  29.041  12.021
90534W        W62959  25.149  28.134   2.790
90535W        W62960  32.568  17.169   4.176
90536W        W62961   9.834  13.121   3.340
90537W        W62962  39.906  23.522  13.977
90538W        W62963  10.336  18.675   1.387
90539W        W62964  16.730  30.559   0.936
90540W        W62965  39.952  16.127  12.045
90541W        W62966  25.159  36.993  11.447
90542W        W62967  29.108  28.137   0.242
90543W        W62968  43.981  16.124  13.885
90544W        W62969   0.778  26.602  11.970
90545W        W62970  32.445  34.987  11.498
90546W        W62971  41.475   8.816   3.267
90547W        W62972  15.624  26.690  13.816
90548W        W62973  21.598  23.700  13.013
90549W        W62974  26.989  19.176  10.458
90550W        W62975  41.340  43.476  14.804
90551W        W62976   8.870  14.814  11.062
90552W        W62977  10.308  41.822  13.890
90553W        W62978   9.172  15.674   0.938
90554W        W62979  17.172  11.651  14.487
90555W        W62980   9.871  31.064  12.412
90556W        W62981  22.115  44.754   3.683
90557W        W62982  27.592   1.306  14.505
90558W        W62983  17.213   8.659  10.516
90559W        W62984  34.897  26.507  11.930
90560W        W62985  21.063  35.068  10.500
90561W        W62986  44.413  34.972   3.854
90562W        W62987  30.025   5.721  14.406
90563W        W62988  38.490  44.942  13.048
90564W        W62989  43.467  27.621  13.356
90565W        W62990  27.468  40.354   0.758
90566W        W62991   5.801  41.472   4.342
90567W        W62992  16.158  32.547  13.956
90568W        W62993  41.882  28.128  13.963
90569W        W62994  24.636  29.031  11.468
90570W        W62995  31.060   2.879  14.510
90571W        W62996   3.240  25.140   3.178
90572W        W62997  30.557  23.207   5.276
90573W        W62998   4.862  33.384   0.780
90574W        W62999  17.644  12.164   4.794
90575W        W63000   8.826  21.140  10.507
90576W        W63001  41.488  24.187  13.869
90577W        W63002   5.404  41.459  11.059
90578W        W63003   4.767  36.427  10.954
90579W        W63004  32.118  14.611   2.375
90580W        W63005   5.906  17.731   0.910
90581W        W63006  29.510  35.872  14.975
90582W        W63007  29.116  28.097   3.151
90583W        W63008  26.675  31.571   3.190
90584W        W63009  16.196  16.770   0.463
90585W        W63010  25.493  38.338  14.866
90586W        W63011  35.922  42.509   4.208
90587W        W63012   7.850  15.810  11.117
90588W        W63013   7.804   5.885   4.772
90589W        W63014   3.922  18.766   4.154
90590W        W63015  35.070   2.314   1.855
90591W        W63016   8.311  44.815  13.500
90592W        W63017   2.952  34.974  13.867
90593W        W63018  31.050  40.975   1.281
90594W        W63019  13.141  33.401  13.061
90595W        W63020   9.212  27.617  14.342
90596W        W63021  26.208  38.564  13.356
90597W        W63022  37.485  16.280   3.653
90598W        W63023  20.765  14.310   2.328
90599W        W63024  40.413  40.034  12.864
90600W        W63025   2.783   1.761   3.674
90601W        W63026  11.251   8.692  13.993
90602W        W63027  39.941   9.254   0.307
90603W        W63028  16.587  14.821  14.485
90604W        W63029  19.718  25.195   4.301
90605W        W63030  32.113  30.136  11.880
90606W        W63031  24.213  35.943  13.495
90607W        W63032  17.768  29.632   4.182
90608W        W63033  16.678  29.100   2.729
90609W        W63034  30.912  12.844   1.267
90610W        W63035   2.914  23.025   4.173
90611W        W63036  35.460   2.802  13.837
90612W        W63037   4.912  35.404  14.391
90613W        W63038  24.489  31.914   0.902
90614W        W63039  41.854  30.913   1.354
90615W        W63040  38.372  36.567  12.095
90616W        W63041  44.286  34.108   5.139
90617W        W63042  14.628  24.993  12.360
90618W        W63043   5.702  28.534   4.337
90619W        W63044   1.352  27.035  13.992
90620W        W63045   3.716   6.685   4.765
90621W        W63046  25.985  22.556   2.391
90622W        W63047  28.987  31.081   2.785
90623W        W63048   7.404  15.161  14.324
90624W        W63049  33.488  16.236  10.904
90625W        W63050  26.540  36.076  12.370
90626W        W63051  20.650  17.125   1.248
90627W        W63052  29.018  13.131   2.748
90628W        W63053  24.138  19.089   3.856
90629W        W63054  16.743  27.551  14.912
90630W        W63055   4.329  38.361   4.781
90631W        W63056  29.944  14.590  14.391
90632W        W63057  31.103  29.451   4.150
90633W        W63058  19.274  42.373  13.017
90634W        W63059  33.498   7.390  11.408
90635W        W63060   3.798  44.319  14.943
90636W        W63061  32.107  26.699  13.488
90637W        W63062  10.374  30.610   2.783
90638W        W63063   5.310   1.782  14.942
90639W        W63064  41.481  29.058  13.967
90640W        W63065   4.245  16.128   0.368
90641W        W63066  10.334  38.452   4.752
90642W        W63067  37.861  32.925   0.350
90643W        W63068   0.382  19.614   2.894
90644W        W63069  33.540  30.550  10.567
90645W        W63070  37.973  44.311   2.824
90646W        W63071  20.602  38.349   0.798
90647W        W63072   0.316  23.615   2.748
90648W        W63073   3.816  29.918  14.850
90649W        W63074   4.325  41.860   1.285
90650W        W63075  25.557  10.761  14.781
90651W        W63076   2.772  43.974   0.818
90652W        W63077  20.573   7.690  11.877
90653W        W63078  11.670  40.040   3.842
90654W        W63079  13.211  35.996  14.019
90655W        W63080  34.074  42.843   4.685
90656W        W63081  17.306   0.362  10.533
90657W        W63082   3.309  32.081   2.669
90658W        W63083  44.835  26.518  14.919
90659W        W63084  41.014   0.947  12.422
90660W        W63085   8.374   8.734   5.100
90661W        W63086  31.487  18.212  14.305
90662W        W63087   9.176  15.249   3.758
90663W        W63088   2.325  23.513  13.943
90664W        W63089   5.895  20.540   3.270
90665W        W63090  10.854  18.598  10.913
90666W        W63091  41.868   0.463   4.812
90667W        W63092  23.553  37.897  10.985
90668W        W63093  14.245  24.716  10.039
90669W        W63094   1.248  44.322   1.398
90670W        W63095   1.468  28.181  11.939
90671W        W63096  25.060  38.881   3.268
90672W        W63097  41.787  29.134   0.805
90673W        W63098  42.015  27.567   1.272
90674W        W63099  11.368  41.019   1.249
90675W        W63100   0.376  20.165  11.991
90676W        W63101   4.256  16.082  13.511
90677W        W63102  18.190   4.937   0.777
90678W        W63103  12.321  21.235   3.271
90679W        W63104  28.450  29.601  12.570
90680W        W63105  29.054  16.207   0.902
90681W        W63106  15.160  20.091  13.860
90682W        W63107  19.687  24.618   3.735
90683W        W63108  23.163   8.710  12.985
90684W        W63109  20.048  20.035  12.925
90685W        W63110  32.518  42.794  13.359
90686W        W63111  14.299  23.641   9.638
90687W        W63112   1.371  44.344  14.782
90688W        W63113  37.071  40.360   4.141
90689W        W63114  20.092  10.348   0.318
90690W        W63115  10.692  24.114   1.860
90691W        W63116   2.264  22.171   1.437
90692W        W63117   1.470   2.842  11.565
90693W        W63118  27.122  33.057   1.729
90694W        W63119  25.980  30.162   5.806
90695W        W63120  25.037  24.192   2.742
90696W        W63121  43.317  24.172  13.797
90697W        W63122  32.579  18.210   1.430
90698W        W63123  12.319  10.379   1.713
90699W        W63124  30.907  24.674  10.590
90700W        W63125  19.076   4.260  14.322
90701W        W63126  19.779  34.525  12.482
90702W        W63127  10.203  13.632   2.811
90703W        W63128  34.534   0.944   0.377
90704W        W63129  30.105  37.465  10.031
90705W        W63130  31.982  41.432   9.973
90706W        W63131  24.603  32.571   0.736
90707W        W63132   7.897  11.791  11.106
90708W        W63133  21.097  39.536   4.211
90709W        W63134  35.993  42.814  10.903
90710W        W63135  34.468  27.498   3.211
90711W        W63136  27.062  25.980  13.878
90712W        W63137  30.063  35.491  12.573
90713W        W63138  10.647  30.511   2.302
90714W        W63139  31.130  20.050  12.832
90715W        W63140  31.609  23.694   2.331
90716W        W63141  10.822   0.442  11.961
90717W        W63142  16.205  15.217  12.862
90718W        W63143  34.597   6.307  14.836
90719W        W63144  33.062  40.481  14.860
90720W        W63145  15.771   1.334  11.087
90721W        W63146  16.774   8.239  14.821
90722W        W63147  25.168   0.382   3.228
90723W        W63148  15.603   8.762   3.824
90724W        W63149  18.636  43.507  14.935
90725W        W63150  41.305  26.104   0.266
90726W        W63151  13.125   5.376   2.298
90727W        W63152  35.429  36.934  14.389
90728W        W63153   4.760  36.379  13.401
90729W        W63154  36.888  38.956   3.280
90730W        W63155  13.677  23.652   1.399
90731W        W63156  23.548  33.510   4.267
90732W        W63157  42.515  23.082  11.609
90733W        W63158  43.424  13.792   3.720
90734W        W63159  38.825   3.221  13.826
90735W        W63160  36.508   4.224  11.879
90736W        W63161  25.963  12.837   1.276
90737W        W63162   5.767  29.639   3.757
90738W        W63163   7.179  38.403  10.623
90739W        W63164  42.005  35.435   0.247
90740W        W63165  38.849  38.502   0.450
90741W        W63166  27.551   8.282   4.320
90742W        W63167  29.100  40.535   0.955
90743W        W63168   6.233  39.944   1.927
90744W        W63169  17.725  39.062  11.587
90745W        W63170   2.873   6.398   0.424
90746W        W63171   2.786   1.847  11.426
90747W        W63172  11.316  16.240   2.747
90748W        W63173  37.557  31.514  13.477
90749W        W63174   4.934   8.335   4.835
90750W        W63175  32.910  16.168   0.746
90751W        W63176  33.597  27.156   1.924
90752W        W63177  38.494  26.193   2.886
90753W        W63178   0.749  44.465   4.280
90754W        W63179  14.718  29.048   9.945
90755W        W63180  41.806   4.366  14.985
90756W        W63181   6.772  10.369  12.514
90757W        W63182  25.160  19.153  11.957
90758W        W63183  18.699  21.148  12.348
90759W        W63184   2.332  38.451  12.958
90760W        W63185   0.933  10.818   3.344
90761W        W63186  35.503  34.527  11.867
90762W        W63187  40.955  34.395  13.831
90763W        W63188   5.732  44.909   1.733
90764W        W63189  27.598  28.589   0.255
90765W        W63190  21.192  11.849  12.009
90766W        W63191  28.480   2.965  10.592
90767W        W63192  44.262  24.641   3.701
90768W        W63193  22.520   1.282  12.482
90769W        W63194  23.572   9.367   4.226
90770W        W63195  44.320  24.019  14.826
90771W        W63196   6.851  33.397   2.252
90772W        W63197  18.277  30.446   4.115
90773W        W63198  26.634  40.804   5.266
90774W        W63199  28.987  35.982   4.343
90775W        W63200   5.337  10.213  11.597
90776W        W63201  18.240  40.337  13.492
90777W        W63202   8.394  11.651   3.177
90778W        W63203  38.558  39.497  11.432
90779W        W63204  36.405  34.974  13.898
90780W        W63205   6.373   9.173  11.551
90781W        W63206   4.259   6.399  14.875
90782W        W63207  14.161  31.491  10.919
90783W        W63208  28.447  31.423   3.196
90784W        W63209  11.253  10.651  10.536
90785W        W63210  25.988   4.228   1.726
90786W        W63211  19.660  26.677   3.384
90787W        W63212  20.032  29.072  14.494
90788W        W63213   1.745  29.670   2.233
90789W        W63214  16.658  36.409   1.825
90790W        W63215  13.703  15.105  11.539
90791W        W63216  20.539  13.624   4.649
90792W        W63217  27.057  27.003   3.301
90793W        W63218   5.292  10.765   0.777
90794W        W63219  37.837  39.387   2.381
90795W        W63220  29.095  37.469  11.009
90796W        W63221   5.267  41.320  12.496
90797W        W63222  20.645  37.475  12.476
90798W        W63223  19.552  32.020  10.440
90799W        W63224  30.644  28.540  11.459
90800W        W63225   1.852  17.219  12.970
90801W        W63226   2.261  34.971  12.079
90802W        W63227  43.770  22.679  12.470
90803W        W63228  30.121  41.842   4.743
90804W        W63229  33.944  19.758   2.895
90805W        W63230  32.055  25.617   1.810
90806W        W63231  27.153   8.300   1.781
90807W        W63232  38.982  14.179  11.920
90808W        W63233  16.197  33.118   5.291
90809W        W63234  17.208   2.252  14.902
90810W        W63235  41.806   7.291  13.843
90811W        W63236  26.499  35.542   0.764
90812W        W63237  11.349  26.630  13.856
90813W        W63238   6.285  28.974  10.525
90814W        W63239  30.158  17.178  10.899
90815W        W63240  37.425  40.426   2.343
90816W        W63241  25.643  14.834   3.352
90817W        W63242  31.046  10.679  12.984
90818W        W63243  29.499  40.009   1.308
90819W        W63244   6.712  32.591  12.831
90820W        W63245   3.886   1.463   4.293
90821W        W63246  23.502   7.357  10.534
90822W        W63247   9.236   3.850  11.524
90823W        W63248  42.526  26.103  10.965
90824W        W63249  25.024  31.479  11.919
90825W        W63250  23.650  35.547   2.260
90826W        W63251   4.404  39.987   0.858
90827W        W63252  16.739  41.899  13.812
90828W        W63253   1.362  31.455   2.292
90829W        W63254   7.715   8.318   1.744
90830W        W63255  26.534  22.131   2.182
90831W        W63256  11.190  43.003   0.393
90832W        W63257   3.459  21.076   0.303
90833W        W63258  22.697  23.221   3.749
90834W        W63259  44.302  25.687  10.524
90835W        W63260   9.395  41.299   4.602
90836W        W63261  41.342   7.362   0.245
90837W        W63262  10.347  32.533  12.559
90838W        W63263  40.931  36.849   2.675
90839W        W63264  38.890  24.207  13.004
90840W        W63265  14.619  23.043  10.959
90841W        W63266  40.952   9.217   4.666
90842W        W63267  43.786  36.435  14.356
90843W        W63268  18.120  10.273  11.470
90844W        W63269  19.102  32.993  10.471
90845W        W63270   5.415  40.882  11.126
90846W        W63271  18.067   9.680  11.374
90847W        W63272   4.405   9.686   4.129
90848W        W63273  33.603  29.604   4.138
90849W        W63274  11.180  32.394   2.401
90850W        W63275   3.833  27.472  13.964
90851W        W63276  33.022  19.048  12.409
90852W        W63277   7.359  37.555  14.394
90853W        W63278  16.764  28.483  12.079
90854W        W63279  22.182   7.782  13.507
90855W        W63280  24.660  37.493  12.428
90856W        W63281   9.851  36.473  13.326
90857W        W63282  44.957  35.988  14.907
90858W        W63283  42.402  15.658  14.450
90859W        W63284   1.413  27.980   1.777
90860W        W63285  30.422  19.586  12.995
90861W        W63286  18.125   9.164  14.000
90862W        W63287  22.626  25.998   4.797
90863W        W63288  37.925  27.542  14.959
90864W        W63289  15.759  33.625  13.331
90865W        W63290  37.070  39.545  13.453
90866W        W63291  41.973  16.082  12.889
90867W        W63292   3.290  20.731   3.199
90868W        W63293   1.824  44.266   4.680
90869W        W63294   7.786   2.864  11.524
90870W        W63295   0.789  15.257   2.234
90871W        W63296  43.301  34.106  13.010
90872W        W63297  32.411  33.542  14.912
90873W        W63298  16.789   6.399  12.059
90874W        W63299  32.409  26.064  10.622
90875W        W63300  33.097  30.433   3.686
90876W        W63301   3.257  19.684   0.302
90877W        W63302  30.976  38.565  11.948
90878W        W63303  39.020   6.786  11.037
90879W        W63304  33.511  36.864  14.375
90880W        W63305   7.883  43.793  14.863
90881W        W63306  24.090  26.470  11.927
90882W        W63307   5.692  25.198   3.662
90883W        W63308  28.072  20.745   1.440
90884W        W63309  36.929  33.109   3.789
90885W        W63310   3.719  43.458   2.769
90886W        W63311  18.149  14.227  11.566
90887W        W63312   1.799  11.710  13.807
90888W        W63313  43.988  32.557  10.525
90889W        W63314  22.999  38.861  13.325
90890W        W63315   5.279  34.120   1.220
90891W        W63316  29.130   0.325   2.832
90892W        W63317  15.298  10.820   0.404
90893W        W63318  25.649  21.553  11.536
90894W        W63319  17.750  30.046   3.754
90895W        W63320   9.282  25.549   3.249
90896W        W63321  40.412   4.857   2.231
90897W        W63322  28.669  29.502   2.687
90898W        W63323   6.336   5.723   3.853
90899W        W63324  20.112  36.856   4.618
90900W        W63325  28.056   1.825   4.273
90901W        W63326  40.509  14.119   3.277
90902W        W63327  33.596  26.557   1.699
90903W        W63328  28.082  34.034  13.458
90904W        W63329   2.339   8.765  14.973
90905W        W63330  32.022  18.222   5.151
90906W        W63331   3.829  29.640   1.384
90907W        W63332  15.131  11.191  10.520
90908W        W63333  30.600   4.281   2.337
90909W        W63334  42.402  13.713  14.838
90910W        W63335  18.666   9.769  11.583
90911W        W63336  34.528  36.493   0.447
90912W        W63337  29.107  19.089  13.544
90913W        W63338  36.487  34.521  10.127
90914W        W63339  35.953  43.324  14.953
90915W        W63340  33.104  12.822  10.581
90916W        W63341   8.712   6.422  11.907
90917W        W63342  16.283  36.928   1.924
90918W        W63343  24.162   6.188  11.063
90919W        W63344  20.588  44.863  14.767
90920W        W63345   9.752   1.741   1.725
90921W        W63346  19.729  17.192   4.778
90922W        W63347   4.214   6.286   1.829
90923W        W63348  10.158  33.913   3.859
90924W        W63349  22.213  17.738  11.516
90925W        W63350  16.203  30.444   0.781
90926W        W63351  44.486   8.775   2.285
90927W        W63352  41.916  12.289   4.692
90928W        W63353   4.868  41.515   1.793
90929W        W63354  23.029  44.877  14.833
90930W        W63355  19.721  36.918   1.787
90931W        W63356  12.806  38.436   3.815
90932W        W63357   6.196   0.339  12.386
90933W        W63358  20.583  12.144  13.947
90934W        W63359  32.509  34.049   2.775
90935W        W63360  41.844  14.623   0.916
90936W        W63361  20.070  38.832  13.875
90937W        W63362  15.618  34.024   2.713
90938W        W63363  41.495   7.727   3.833
90939W        W63364  22.172  19.236  12.579
90940W        W63365   6.378  32.028   1.423
90941W        W63366  26.659  22.117   0.259
90942W        W63367  12.814  20.273  11.922
90943W        W63368  33.515   1.971  10.964
90944W        W63369  23.195  22.063  13.413
90945W        W63370  36.353  14.699   0.271
90946W        W63371  11.757  34.576   2.210
90947W        W63372  27.137  39.433   0.775
90948W        W63373  33.117  28.077   4.767
90949W        W63374   6.805  16.091   4.353
90950W        W63375  20.765  41.980  10.410
90951W        W63376  12.857  41.475  11.403
90952W        W63377  32.928  10.636  10.895
90953W        W63378  17.732   7.244   1.382
90954W        W63379  40.384  36.456  10.544
90955W        W63380  36.972  37.904  11.981
90956W        W63381   9.210  17.638   1.741
90957W        W63382   2.840  19.174   2.366
90958W        W63383   2.915  36.451   3.383
90959W        W63384  18.182  18.630  13.881
90960W        W63385   2.871  43.839   3.375
90961W        W63386  35.603  32.948   4.707
90962W        W63387  20.205   0.321  10.611
90963W        W63388  40.921  23.083  11.988
90964W        W63389  27.116  31.439   0.439
90965W        W63390  31.560  23.594  13.937
90966W        W63391   2.813   6.786   4.123
90967W        W63392  40.537  39.058  13.463
90968W        W63393  28.503   1.879  10.534
90969W        W63394  26.967  29.599  13.813
90970W        W63395   7.728  35.063  14.799
90971W        W63396   7.324   2.793  13.940
90972W        W63397  20.154  20.160   1.415
90973W        W63398  21.660  20.251  13.903
90974W        W63399  32.914  16.611   1.233
90975W        W63400  28.562  42.482   4.688
90976W        W63401  12.271  23.560  12.878
90977W        W63402  32.895  23.016   4.161
90978W        W63403  28.945   9.306  13.363
90979W        W63404  38.360   5.290  12.920
90980W        W63405   1.287  18.224  11.487
90981W        W63406  32.419  12.164   4.296
90982W        W63407   5.794  34.501  13.050
90983W        W63408  37.446  37.997  10.561
90984W        W63409  35.429   1.240   1.242
90985W        W63410  13.757  36.862   3.767
90986W        W63411  37.931  31.508  10.933
90987W        W63412  36.558  44.940  11.541
90988W        W63413  36.354  11.776  11.603
90989W        W63414  37.576  26.681  10.428
90990W        W63415  11.649  32.932   1.241
90991W        W63416  13.635  42.858  11.125
90992W        W63417  11.648  18.680   5.272
90993W        W63418  38.353  11.850   4.835
90994W        W63419  33.899  31.645  12.922
90995W        W63420  39.843  43.862   3.638
90996W        W63421  34.391  34.378   0.950
90997W        W63422  39.898  24.490   0.735
90998W        W63423  30.437  36.875  13.316
90999W        W63424  40.834  44.347   1.878
91000W        W63425   6.273  38.024   2.185
91001W        W63426  11.726  29.502   3.632
91002W        W63427  40.521  16.089   1.730
91003W        W63428  18.279   5.379   1.776
91004W        W63429  28.129  20.648   4.741
91005W        W63430  17.781  36.566  11.086
91006W        W63431  14.811  15.708   3.230
91007W        W63432  42.349  16.755   2.300
91008W        W63433  14.169   5.265  11.427
91009W        W63434  38.953  39.518   3.854
91010W        W63435   5.388  35.598   4.344
91011W        W63436  31.505  41.826   2.729
91012W        W63437  16.785  12.724   3.378
91013W        W63438  43.965  32.459  10.935
91014W        W63439   1.308  44.493  10.915
91015W        W63440  11.253  17.088   1.282
91016W        W63441  18.674  36.491   3.851
91017W        W63442  17.083  14.697  10.527
91018W        W63443  35.873  29.593  14.466
91019W        W63444   0.341  37.043  12.501
91020W        W63445   8.244   3.826  13.880
91021W        W63446  32.530  25.608   4.231
91022W        W63447   1.836  15.090   0.386
91023W        W63448  36.515  17.097  11.033
91024W        W63449  21.241  40.464  10.582
91025W        W63450   2.795  24.591  11.113
91026W        W63451  37.853   4.399  13.877
91027W        W63452  20.663  19.680   3.790
91028W        W63453  24.668  29.019  10.442
91029W        W63454  15.289   8.796  11.900
91030W        W63455  36.507  37.834  14.010
91031W        W63456  16.577  19.181   2.848
91032W        W63457  17.605   9.338  11.026
91033W        W63458   4.835  33.091   1.235
91034W        W63459  23.150   4.268  12.885
91035W        W63460  10.636  12.649  11.536
91036W        W63461   9.328  15.325  11.889
91037W        W63462   4.883  37.506  11.887
91038W        W63463  29.978  23.563  14.879
91039W        W63464  40.036  41.855  11.858
91040W        W63465  23.076  38.037   1.719
91041W        W63466  12.158  35.964  12.017
91042W        W63467  21.544   6.742  14.498
91043W        W63468  31.644  25.620  13.337
91044W        W63469   2.364  33.008   0.355
91045W        W63470  13.650   1.476   9.998
91046W        W63471  40.894   9.647  12.563
91047W        W63472  44.889   8.282   4.687
91048W        W63473  41.313  43.021   1.432
91049W        W63474  19.664  13.793  10.596
91050W        W63475  10.171  41.022   5.306
91051W        W63476   0.848  42.329  14.487
91052W        W63477   2.840   2.260   1.824
91053W        W63478   4.412  12.187  11.869
91054W        W63479   4.306  30.498  12.880
91055W        W63480  16.774  23.150  10.533
91056W        W63481  18.581  22.556  10.902
91057W        W63482  33.426  34.580  10.432
91058W        W63483  23.210   1.465   1.296
91059W        W63484  41.027  15.142   4.246
91060W        W63485   6.224  32.392  11.546
91061W        W63486  20.128  39.023   1.236
91062W        W63487  32.604   1.453   3.327
91063W        W63488   1.757  35.950   0.285
91064W        W63489  33.882   1.372  14.469
91065W        W63490   3.776  18.582  10.965
91066W        W63491  19.656   9.861  10.476
91067W        W63492   5.801  44.819  13.802
91068W        W63493  36.043  14.600   1.421
91069W        W63494  14.748  13.130  14.859
91070W        W63495  10.367  24.130  10.641
91071W        W63496   5.331  41.826   3.731
91072W        W63497  19.758   0.934  13.482
91073W        W63498   1.321  32.921   5.201
91074W        W63499  31.011  30.489  14.509
91075W        W63500  37.079  39.913  12.887
91076W        W63501   3.770  40.890  13.870
91077W        W63502  37.937  16.148   4.700
91078W        W63503  32.594   7.820   1.409
91079W        W63504  31.991  30.463  13.475
91080W        W63505  37.460  38.953  13.041
91081W        W63506  12.299  29.588  11.978
91082W        W63507  40.811  10.333   3.828
91083W        W63508  28.534  15.733  13.962
91084W        W63509  34.921  38.358   1.299
91085W        W63510  38.498  33.057   2.755
91086W        W63511  28.599  26.619  12.536
91087W        W63512  12.670  38.013   4.128
91088W        W63513  21.746  38.972   4.617
91089W        W63514  29.122  16.568  13.527
91090W        W63515  14.756  14.622  13.813
91091W        W63516  36.532  20.158  13.420
91092W        W63517  26.037  10.302   5.266
91093W        W63518  12.264  34.467   0.401
91094W        W63519   0.889  37.893  14.920
91095W        W63520   7.173  30.432   0.886
91096W        W63521   0.322   5.700   3.857
91097W        W63522  18.658   8.172  12.967
91098W        W63523  16.684  20.029   4.670
91099W        W63524  10.665  28.461  11.611
91100W        W63525   5.241  10.337  13.812
91101W        W63526  22.008  28.956  12.923
91102W        W63527   3.713  25.065  11.874
91103W        W63528  36.850  16.189   4.134
91104W        W63529  11.331  33.897  13.467
91105W        W63530  13.222  18.285   4.660
91106W        W63531  24.600   6.863  14.485
91107W        W63532  35.565  40.341   0.748
91108W        W63533  11.245  24.140  12.515
91109W        W63534  30.079  44.843  12.544
91110W        W63535  41.969   6.311   2.869
91111W        W63536  16.236  35.929  14.996
91112W        W63537  30.932   5.715  10.431
91113W        W63538  41.880   2.735   4.189
91114W        W63539  27.504  33.532   0.327
91115W        W63540   9.801  43.311   1.335
91116W        W63541  38.365  26.516   0.930
91117W        W63542  34.546  12.650  11.116
91118W        W63543  36.368  23.705  14.013
91119W        W63544  13.256  16.617   2.292
91120W        W63545  26.494   7.912  11.523
91121W        W63546   5.225  23.525  12.404
91122W        W63547  18.637  17.232  12.498
91123W        W63548  14.186   8.397  12.867
91124W        W63549   9.653  28.654   3.781
91125W        W63550  34.467  34.476  11.982
91126W        W63551  10.707  16.713  12.069
91127W        W63552   4.335   4.771   3.769
91128W        W63553  13.611  23.614   5.103
91129W        W63554  39.431  29.599  11.965
91130W        W63555   1.288   1.920   3.176
91131W        W63556  22.089  33.613  11.598
91132W        W63557  21.702   6.873   1.401
91133W        W63558   6.721  30.595   0.250
91134W        W63559  36.416  13.661  14.958
91135W        W63560  41.432   7.848   1.330
91136W        W63561  17.603   8.379   4.311
91137W        W63562   0.364  16.089  11.508
91138W        W63563  32.950  27.657   2.844
91139W        W63564  25.541  10.380   3.193
91140W        W63565  34.372   5.354  14.927
91141W        W63566  43.910  22.122   3.713
91142W        W63567  36.543  15.201   4.813
91143W        W63568  10.687   5.224   4.238
91144W        W63569  13.775  32.402   3.861
91145W        W63570   0.455   7.399  10.452
91146W        W63571  43.813  13.815  12.353
91147W        W63572   3.739  36.489   0.801
91148W        W63573  38.830  41.397   0.453
91149W        W63574   5.210  13.726   1.394
91150W        W63575  18.607  32.084   2.187
91151W        W63576  11.234  36.045  14.291
91152W        W63577  43.789   9.346  11.043
91153W        W63578  12.309  37.077   2.865
91154W        W63579   6.776   7.333   0.382
91155W        W63580  24.696  28.474  12.520
91156W        W63581  17.764  16.099  14.953
91157W        W63582  19.551  14.786   4.277
91158W        W63583  20.693  15.607   2.782
91159W        W63584  23.003  31.420  13.381
91160W        W63585  32.101  34.977  11.564
91161W        W63586  38.563  38.372  14.386
91162W        W63587  39.495  26.177  14.290
91163W        W63588  31.127   0.865   3.826
91164W        W63589  43.383  19.066  12.965
91165W        W63590   5.319  13.179  10.984
91166W        W63591   6.209  36.566   0.290
91167W        W63592   0.779   0.818  10.549
91168W        W63593   2.924   4.880  10.610
91169W        W63594  24.713  38.570   1.742
91170W        W63595  44.360  33.926   1.846
91171W        W63596  14.617   7.342   4.141
91172W        W63597  37.038  23.664   3.383
91173W        W63598  44.437  25.578   0.735
91174W        W63599   4.393  11.634  11.015
91175W        W63600   4.435   0.325  13.398
91176W        W63601  20.650  21.245  13.861
91177W        W63602   3.434   2.441   1.375
91178W        W63603  17.560  24.208  13.043
91179W        W63604  40.987  35.598   0.867
91180W        W63605  40.959  21.570   1.914
91181W        W63606  25.011  36.428   4.252
91182W        W63607  38.433  44.805   3.220
91183W        W63608  26.621  35.930  14.837
91184W        W63609  38.367  15.599  12.540
91185W        W63610   2.926   9.331   0.891
91186W        W63611  27.072  20.625   4.631
91187W        W63612  22.076  40.941  12.350
91188W        W63613  29.923  40.954   5.709
91189W        W63614  32.961  37.975  11.506
91190W        W63615  36.996  35.391   3.180
91191W        W63616  15.090  14.126  12.993
91192W        W63617  36.458  21.033   4.287
91193W        W63618  20.642   8.830   3.226
91194W        W63619  40.980  13.647  12.050
91195W        W63620   0.439  27.531  14.499
91196W        W63621  26.973  32.032  14.843
91197W        W63622   6.911   1.805  14.877
91198W        W63623  35.557  19.670   0.754
91199W        W63624  35.415  39.944   3.761
91200W        W63625   1.753  29.534  14.994
91201W        W63626  39.498  21.758  11.526
91202W        W63627  40.464  19.765  12.904
91203W        W63628   0.743   0.838   3.803
91204W        W63629  27.606  25.559   3.296
91205W        W63630  21.091  33.083  13.809
91206W        W63631  14.732   4.332   0.878
91207W        W63632  18.700  23.008  13.813
91208W        W63633  13.336  11.685   4.683
91209W        W63634  15.112  37.409  14.798
91210W        W63635  38.839  14.812   1.918
91211W        W63636  22.674  15.139  13.028
91212W        W63637   9.379  26.024  13.969
91213W        W63638  19.668  17.704  14.793
91214W        W63639   1.813   9.369  10.470
91215W        W63640  41.808  30.437  12.873
91216W        W63641  10.669   5.407  12.825
91217W        W63642  22.042  29.509  10.494
91218W        W63643  17.242   4.879  14.469
91219W        W63644  40.309  43.830  14.880
91220W        W63645  16.195  24.607   4.181
91221W        W63646  10.754  29.559   1.301
91222W        W63647   8.804  31.478   0.442
91223W        W63648  33.054  14.706  13.043
91224W        W63649  40.029  36.885   1.872
91225W        W63650  33.084  14.709  12.554
91226W        W63651  24.999  16.272  13.403
91227W        W63652  27.176  26.570  13.446
91228W        W63653  31.111  44.875  11.080
91229W        W63654  12.713  20.528  13.819
91230W        W63655  43.019  11.828   2.314
91231W        W63656   7.221  14.109  11.518
91232W        W63657   7.282  33.433  11.445
91233W        W63658  37.052  28.078   4.121
91234W        W63659  22.177   1.862   4.169
91235W        W63660  27.955  16.272   0.472
91236W        W63661   5.304  17.152   2.665
91237W        W63662  39.860  23.623  10.931
91238W        W63663   4.783  10.686   2.352
91239W        W63664  33.090   4.352  14.789
91240W        W63665  11.257  16.571  12.562
91241W        W63666  24.140   0.949  13.796
91242W        W63667  41.296   0.890   4.190
91243W        W63668  15.171   3.780   0.967
91244W        W63669  32.993   0.813  11.495
91245W        W63670   3.329  23.180   3.747
91246W        W63671  34.877  19.757   0.462
91247W        W63672  24.666  26.644  10.919
91248W        W63673  36.536   4.256   0.475
91249W        W63674  21.721  16.664   0.311
91250W        W63675   7.671  37.068  12.865
91251W        W63676   7.315  30.441   4.189
91252W        W63677  10.309  33.000  10.011
91253W        W63678  17.069  18.747   4.666
91254W        W63679  10.183   6.341  14.495
91255W        W63680  40.433   5.232  11.069
91256W        W63681  40.413  32.080   3.639
91257W        W63682   7.197  37.438   1.720
91258W        W63683  15.235  38.945   0.337
91259W        W63684  29.993  34.555   1.282
91260W        W63685  10.343  20.040   1.356
91261W        W63686  30.045   9.256  14.492
91262W        W63687  20.243   8.858   1.391
91263W        W63688   6.206  17.700  14.009
91264W        W63689  27.496  18.591  13.943
91265W        W63690   6.248   3.721   4.131
91266W        W63691  34.386  20.110  14.832
91267W        W63692  43.003   1.846  13.424
91268W        W63693   5.878  44.414   1.229
91269W        W63694  10.769   0.322   0.742
91270W        W63695  36.490  32.968   2.201
91271W        W63696  23.058  43.861   4.351
91272W        W63697  41.533   3.783   3.317
91273W        W63698  39.390  20.142   0.945
91274W        W63699   9.748  36.406   3.869
91275W        W63700  44.898  42.023   1.234
91276W        W63701   2.297  12.214  10.894
91277W        W63702  24.648   9.174   3.261
91278W        W63703   2.227   7.883  12.862
91279W        W63704   3.807  36.512  10.522
91280W        W63705  30.603  38.921  11.404
91281W        W63706  43.015  40.338   5.199
91282W        W63707  24.666   3.779   2.788
91283W        W63708  41.316  35.003   2.300
91284W        W63709  14.171  10.320  12.415
91285W        W63710  39.343   3.899  10.608
91286W        W63711  21.632  29.489  13.869
91287W        W63712  26.103   8.773   0.344
91288W        W63713  30.965  16.594  12.087
91289W        W63714   3.443  32.078  12.469
91290W        W63715  18.749  33.081   5.138
91291W        W63716  21.139  29.669  14.427
91292W        W63717  32.984  14.118   4.331
91293W        W63718  14.714   0.268  11.002
91294W        W63719  44.403   5.748  11.499
91295W        W63720  42.880  10.341   3.866
91296W        W63721  44.824  43.415   1.212
91297W        W63722  25.175   1.276  12.384
91298W        W63723  28.973  10.846  10.604
91299W        W63724  37.395  19.231  12.911
91300W        W63725  16.667  32.439  11.516
91301W        W63726  30.136  23.235  10.123
91302W        W63727  19.705  24.224   4.286
91303W        W63728  12.804  12.286  11.855
91304W        W63729  17.652  37.576   1.888
91305W        W63730  42.426   0.822  12.429
91306W        W63731  27.942  41.514  13.382
91307W        W63732  30.507  39.479  13.837
91308W        W63733  37.497  14.822   4.636
91309W        W63734  40.965  32.533  10.448
91310W        W63735  39.556  18.627   3.837
91311W        W63736  37.948  35.971  14.811
91312W        W63737  42.866  32.115   2.690
91313W        W63738  19.124  20.051   0.402
91314W        W63739   7.725  44.766  10.531
91315W        W63740  23.647  38.007   4.252
91316W        W63741  27.984   5.773  11.594
91317W        W63742   9.664  28.146  10.952
91318W        W63743   9.164  11.690  11.040
91319W        W63744  15.628  20.592  11.576
91320W        W63745   5.438   0.378  13.811
91321W        W63746  37.911  11.724   9.944
91322W        W63747  40.883  37.507   1.795
91323W        W63748  44.430  23.038  13.359
91324W        W63749  36.092  29.091  12.034
91325W        W63750  33.994  28.093   4.774
91326W        W63751  33.556  15.290   3.280
91327W        W63752   7.181   0.802   1.273
91328W        W63753  17.673  12.669  13.398
91329W        W63754  37.507  17.678  10.554
91330W        W63755   1.464  28.560  11.870
91331W        W63756  26.079  14.595  13.005
91332W        W63757  13.172  33.623  14.947
91333W        W63758  19.684  13.734   2.687
91334W        W63759  35.566  44.899   0.357
91335W        W63760   2.394  22.207  11.408
91336W        W63761   2.798  39.013   1.766
91337W        W63762  37.504  40.987   2.235
91338W        W63763  33.590  38.838  14.900
91339W        W63764  21.088  34.010   0.801
91340W        W63765   5.407  34.472   3.860
91341W        W63766  16.798  26.578  13.839
91342W        W63767  34.054   1.948   3.824
91343W        W63768   6.895  21.622  10.644
91344W        W63769  20.076  35.554  10.513
91345W        W63770  10.147  21.095  10.433
91346W        W63771  25.177  10.190   4.696
91347W        W63772  44.269  42.514   0.282
91348W        W63773  32.628  43.918  13.349
91349W        W63774  30.126   2.452  13.921
91350W        W63775   1.243  26.978  10.501
91351W        W63776  30.068  12.830   0.271
91352W        W63777  38.059  24.150   2.358
91353W        W63778   7.229  27.091   4.684
91354W        W63779   5.915  15.154   2.411
91355W        W63780  25.564  44.850  14.980
91356W        W63781  27.461   6.834   4.299
91357W        W63782  37.887  30.937  13.927
91358W        W63783  15.673  20.272  14.342
91359W        W63784  38.013  19.111   0.749
91360W        W63785  31.119  10.201  13.873
91361W        W63786   7.207   9.874   0.328
91362W        W63787  12.301  33.410  13.057
91363W        W63788  22.677  41.031   3.243
91364W        W63789   3.316  33.598   4.216
91365W        W63790  44.938  35.459  12.089
91366W        W63791  26.125  33.624  10.994
91367W        W63792  34.898  34.892   2.320
91368W        W63793  29.129  44.377  13.928
91369W        W63794  16.249   0.399  10.555
91370W        W63795   9.280  39.370  10.543
91371W        W63796  39.369  16.760   1.784
91372W        W63797  14.109  35.986  11.106
91373W        W63798  40.861   1.923  11.464
91374W        W63799  35.912  40.316  12.454
91375W        W63800  26.647   4.409  11.466
91376W        W63801  31.611  43.942   0.264
91377W        W63802   3.444  21.084  13.405
91378W        W63803  40.548   3.360  10.102
91379W        W63804  25.610   0.853   4.724
91380W        W63805  38.057  23.027   3.269
91381W        W63806  28.114   4.724  10.154
91382W        W63807  14.318   5.699   3.641
91383W        W63808  32.474  36.444   3.253
91384W        W63809  38.481  33.426  13.897
91385W        W63810  37.007  42.007   2.781
91386W        W63811  20.136  24.605   3.670
91387W        W63812  30.659  36.913  13.852
91388W        W63813   7.309   1.351   3.691
91389W        W63814  30.447  33.580  12.462
91390W        W63815  31.937  13.167   1.864
91391W        W63816   2.742  28.118   1.301
91392W        W63817  41.332  25.089  12.556
91393W        W63818  33.000  18.121  12.074
91394W        W63819  36.073  14.280  12.967
91395W        W63820   8.180  44.797  14.932
91396W        W63821  17.559  20.655   1.426
91397W        W63822  40.901  22.562  11.515
91398W        W63823  13.238  32.598   4.237
91399W        W63824   5.770  10.742  11.427
91400W        W63825  15.629  22.659  14.397
91401W        W63826  35.017  11.747   1.251
91402W        W63827  15.752  40.960  12.419
91403W        W63828  40.964  33.610  10.430
91404W        W63829  18.175  21.146   4.727
91405W        W63830   7.282  17.757   4.248
91406W        W63831  19.619  27.628  13.012
91407W        W63832   4.825  42.387   3.714
91408W        W63833   0.420  42.468  14.302
91409W        W63834   9.672  33.961  12.083
91410W        W63835   7.769   3.949   1.412
91411W        W63836  16.619  21.708   4.178
91412W        W63837  39.056  33.478  13.393
91413W        W63838  36.861  14.140   2.676
91414W        W63839  10.842  44.875  13.530
91415W        W63840   6.737  13.679  10.561
91416W        W63841   5.788   6.903  11.024
91417W        W63842  13.810  13.798  13.931
91418W        W63843  15.291   9.650  13.851
91419W        W63844   1.332   1.888   0.256
91420W        W63845  17.654  12.204   4.181
91421W        W63846  22.066  40.430   2.873
91422W        W63847  34.434  32.624   0.393
91423W        W63848  41.788  20.262   2.275
91424W        W63849  36.400  24.132   1.850
91425W        W63850   4.442  41.410   3.204
91426W        W63851   7.764  11.221  14.759
91427W        W63852  12.820  33.404  12.982
91428W        W63853  14.785  39.535  14.850
91429W        W63854   4.320  32.093   1.294
91430W        W63855  40.470   7.870   0.823
91431W        W63856  33.570  19.127   0.772
91432W        W63857  12.141   8.242  11.570
91433W        W63858  16.192  35.061   9.576
91434W        W63859  28.085  42.783  12.505
91435W        W63860  11.710  42.017   0.847
91436W        W63861  39.031  41.428  14.300
91437W        W63862   2.825  43.952  13.533
91438W        W63863  27.194  19.759   1.415
91439W        W63864  26.618  13.171   1.366
91440W        W63865  14.263  27.976   1.734
91441W        W63866  18.147  22.243  13.807
91442W        W63867   1.355  16.679  13.538
91443W        W63868   5.359  44.399   2.865
91444W        W63869  42.481  38.998  11.987
91445W        W63870   8.254   4.336  12.489
91446W        W63871  32.887  42.364  11.575
91447W        W63872   3.850   5.359   2.320
91448W        W63873  31.530   0.788   3.788
91449W        W63874  25.158  44.952   1.700
91450W        W63875  35.034  44.431   0.268
91451W        W63876  31.588  43.022  13.046
91452W        W63877  27.532  21.227  14.505
91453W        W63878  26.684  25.974   2.699
91454W        W63879  18.258  29.004  13.014
91455W        W63880  32.027  31.435   2.835
91456W        W63881  43.277   9.370   2.890
91457W        W63882  21.755  26.051  11.478
91458W        W63883  26.106   8.250   2.228
91459W        W63884  19.112  39.547  12.847
91460W        W63885  29.950  20.264  10.541
91461W        W63886  13.695   7.688   0.305
91462W        W63887  20.032  40.948   3.347
91463W        W63888  42.892  39.931   2.885
91464W        W63889  38.962  44.987   1.921
91465W        W63890  42.515  10.297   3.230
91466W        W63891  20.057   7.859   0.764
91467W        W63892  23.240  16.098  10.567
91468W        W63893  41.984   6.191  14.966
91469W        W63894  40.311  38.409  10.448
91470W        W63895  24.140  10.212  14.487
91471W        W63896   9.837   8.769   0.748
91472W        W63897  39.334   1.444  11.542
91473W        W63898  29.538  34.611  14.496
91474W        W63899  17.682  13.279   0.276
91475W        W63900   5.352   4.755  11.127
91476W        W63901  41.813  36.423  11.873
91477W        W63902  23.089  15.604  14.824
91478W        W63903  38.520  14.671   4.256
91479W        W63904  21.546   9.343  11.077
91480W        W63905   1.265   4.748  14.412
91481W        W63906   4.901   3.224  14.930
91482W        W63907   3.415  23.701  13.496
91483W        W63908   6.837  44.776  11.856
91484W        W63909  29.578   6.426   0.363
91485W        W63910  13.807  16.302  14.489
91486W        W63911  28.988  36.063  11.058
91487W        W63912   4.330  25.516  12.017
91488W        W63913  44.906  19.716   2.789
91489W        W63914  33.414  24.096  12.980
91490W        W63915  14.612  34.117   1.770
91491W        W63916  15.151  23.073  10.519
91492W        W63917  17.745   1.292  12.894
91493W        W63918   8.377  36.869  13.800
91494W        W63919  16.134  43.000  13.054
91495W        W63920   8.177   0.927   0.387
91496W        W63921   5.426  28.533   2.764
91497W        W63922  40.912  22.063   0.860
91498W        W63923  26.151  32.615  14.836
91499W        W63924   6.803  38.899   4.284
91500W        W63925  38.325  14.259   2.346
91501W        W63926   8.361  13.139  12.927
91502W        W63927  15.186  13.743  13.016
91503W        W63928  25.142  30.023   5.586
91504W        W63929   7.801  13.341   1.803
91505W        W63930  34.120  17.114   4.670
91506W        W63931   7.806  14.689   4.705
91507W        W63932  11.367  37.852  12.350
91508W        W63933  24.631  11.698   0.390
91509W        W63934   2.828  11.729  11.856
91510W        W63935  25.695  26.069   0.888
91511W        W63936   5.805   4.810  13.813
91512W        W63937   2.804  26.680  13.894
91513W        W63938  30.462  38.006   0.845
91514W        W63939  31.037  27.077   4.251
91515W        W63940   9.297  42.969  10.446
91516W        W63941  27.493  33.995   1.325
91517W        W63942   3.238   7.845   3.802
91518W        W63943  40.023  30.985   4.118
91519W        W63944   4.831  38.410  10.894
91520W        W63945  20.102   5.374   0.780
91521W        W63946  40.517   7.263   3.220
91522W        W63947   5.427  21.225   0.947
91523W        W63948  35.007  11.222   1.753
91524W        W63949  23.700  32.463   3.239
91525W        W63950  42.467  18.757  12.442
91526W        W63951  13.717  30.117   1.843
91527W        W63952  41.831  14.300   4.218
91528W        W63953  21.710  34.093   2.307
91529W        W63954  39.942  31.933  11.564
91530W        W63955  27.193  24.563   2.683
91531W        W63956   8.857  40.458   0.907
91532W        W63957  22.013  27.001   0.792
91533W        W63958  43.299  14.145   2.374
91534W        W63959  19.238   4.922   3.267
91535W        W63960  16.630   8.334   3.384
91536W        W63961  44.005   7.765  14.939
91537W        W63962  35.873  44.831  12.456
91538W        W63963  14.216  11.187  11.901
91539W        W63964   7.305  10.183   4.829
91540W        W63965   5.741  19.615  15.000
91541W        W63966  26.002   4.927  13.845
91542W        W63967  38.825  43.451   1.441
91543W        W63968  22.061   2.926  14.430
91544W        W63969  15.286   2.336  11.558
91545W        W63970  36.380  40.049   0.434
91546W        W63971  26.037  31.985  14.872
91547W        W63972   2.472  40.509   3.800
91548W        W63973  26.154  44.446   2.732
91549W        W63974  31.134  11.797   3.686
91550W        W63975   1.458  22.626  11.373
91551W        W63976  33.595   8.245  13.325
91552W        W63977  11.242  27.522   3.844
91553W        W63978  35.081  39.370   4.348
91554W        W63979   5.742  42.803   0.414
91555W        W63980   3.334   9.341   4.329
91556W        W63981  13.678  22.054  11.419
91557W        W63982   4.226  36.531  10.535
91558W        W63983  10.321   0.486   3.365
91559W        W63984   9.364  31.564   0.941
91560W        W63985  41.854  43.994   0.743
91561W        W63986   0.758  38.048  13.432
91562W        W63987  23.519  21.254   2.707
91563W        W63988  35.394  34.011   4.176
91564W        W63989  29.151  35.421   4.654
91565W        W63990  14.194   7.780  10.569
91566W        W63991  36.560  17.592  12.082
91567W        W63992  37.002  16.643   4.163
91568W        W63993  21.240   3.779  10.123
91569W        W63994  10.671  44.440  14.343
91570W        W63995  10.282  20.216   3.836
91571W        W63996   5.330  19.738  12.426
91572W        W63997   4.769  34.937  14.317
91573W        W63998  42.376   6.235  14.886
91574W        W63999  12.269  42.386   2.333
91575W        W64000   2.464  27.487  11.603
91576W        W64001  28.489  41.999  14.857
91577W        W64002  20.536  43.820   3.829
91578W        W64003  35.520  17.689   2.740
91579W        W64004   2.291   2.790  13.452
91580W        W64005   0.930   1.312  11.411
91581W        W64006  29.633  22.041   4.831
91582W        W64007  36.919  19.040  13.861
91583W        W64008   5.837  33.624  13.062
91584W        W64009   1.922  33.608   2.835
91585W        W64010  12.707   1.883  12.008
91586W        W64011  30.557  37.405   3.868
91587W        W64012  16.223  29.046   1.410
91588W        W64013  25.113  40.027  11.036
91589W        W64014  26.137  18.668   4.634
91590W        W64015  42.379   3.297  10.114
91591W        W64016  21.018   2.371   2.418
91592W        W64017   9.669   8.180   1.868
91593W        W64018  13.262  22.692   1.841
91594W        W64019  30.907  23.636   2.819
91595W        W64020  32.990  30.511  13.940
91596W        W64021  21.045   6.785   3.636
91597W        W64022  22.114  35.384   2.725
91598W        W64023  21.077   9.281  14.486
91599W        W64024  12.273   5.859  13.914
91600W        W64025  14.334  42.846   2.379
91601W        W64026  14.157  23.080   3.703
91602W        W64027  29.962   2.909  13.406
91603W        W64028  11.189   1.357  12.078
91604W        W64029  15.768  15.780   0.308
91605W        W64030  22.740  11.311   0.384
91606W        W64031  43.437  39.348  10.578
91607W        W64032  28.472  44.417  11.608
91608W        W64033  22.166  17.202  10.606
91609W        W64034   4.718  16.596   0.320
91610W        W64035  21.630  10.322  14.324
91611W        W64036  26.967   4.714  14.282
91612W        W64037  40.412   6.797   2.323
91613W        W64038  29.076  38.501   1.311
91614W        W64039   2.321  18.090   1.881
91615W        W64040  13.228  36.042   5.178
91616W        W64041  14.685  22.703   3.154
91617W        W64042  33.072  26.466   4.699
91618W        W64043  18.188  43.428  11.430
91619W        W64044  31.604   2.415  10.413
91620W        W64045  26.026  14.662  11.458
91621W        W64046  31.982  11.758   3.739
91622W        W64047  28.554   2.746  11.548
91623W        W64048  15.594  20.574  12.839
91624W        W64049   7.773  31.052   1.388
91625W        W64050   6.727  19.593  13.353
91626W        W64051  30.632  42.321  10.562
91627W        W64052  16.628   6.264  11.091
91628W        W64053   2.296  39.476  14.387
91629W        W64054  12.252  15.796  13.907
91630W        W64055  31.409   0.387   4.299
91631W        W64056   5.253  30.562   3.814
91632W        W64057  15.320  33.026  12.517
91633W        W64058  16.570  27.108  10.975
91634W        W64059   6.412  18.556  10.964
91635W        W64060  18.248  34.414  10.475
91636W        W64061  19.739  24.982  13.355
91637W        W64062   8.665  38.443  10.091
91638W        W64063  25.706  33.480   0.812
91639W        W64064  28.994   4.817  14.342
91640W        W64065  44.995  10.356   4.137
91641W        W64066  17.203  37.875   3.788
91642W        W64067  40.959  26.616  14.487
91643W        W64068   8.858  29.600  14.280
91644W        W64069  19.591  16.657   3.339
91645W        W64070  29.115   5.702   4.221
91646W        W64071   0.327   0.742  13.399
91647W        W64072  32.024  36.942  12.989
91648W        W64073  29.001  12.624  14.799
91649W        W64074  28.589  26.177  13.993
91650W        W64075  39.995   3.297  10.563
91651W        W64076  35.937  41.013  10.559
91652W        W64077  40.030   6.242   3.336
91653W        W64078  40.041  31.930  13.865
91654W        W64079  15.785  12.252   1.289
91655W        W64080   1.978   9.298  14.976
91656W        W64081   2.439  39.425   4.319
91657W        W64082  31.110  37.436  13.411
91658W        W64083  37.482   4.215   3.177
91659W        W64084  16.204   0.365  12.956
91660W        W64085  29.592  32.408  11.565
91661W        W64086  41.999  20.150  12.946
91662W        W64087  36.973  32.940  12.416
91663W        W64088  18.078  28.166  11.927
91664W        W64089  31.437   2.839   3.189
91665W        W64090   3.939  40.433  12.522
91666W        W64091   2.922  18.753  12.361
91667W        W64092  27.036   4.700   4.196
91668W        W64093  24.635  40.038   0.943
91669W        W64094  40.323  38.845  14.024
91670W        W64095  42.296  29.943   3.856
91671W        W64096  17.202  19.180   4.190
91672W        W64097  22.609  42.886  13.849
91673W        W64098  31.936  41.807   1.362
91674W        W64099  27.117  33.122  13.060
91675W        W64100   5.818   3.918   4.827
91676W        W64101  22.019  35.368  12.044
91677W        W64102  20.228  22.747   2.267
91678W        W64103   4.293  25.037   5.082
91679W        W64104  15.711  24.078   2.708
91680W        W64105  21.179  37.078  12.552
91681W        W64106  11.158   1.866   4.833
91682W        W64107   1.475   4.902   0.834
91683W        W64108  27.592  21.059   4.796
91684W        W64109   7.773  33.608   3.250
91685W        W64110  23.651  30.483  12.354
91686W        W64111  22.226  21.552   2.830
91687W        W64112  21.062  21.673  11.562
91688W        W64113  10.640  27.645  14.015
91689W        W64114  41.457  28.480  12.043
91690W        W64115   3.403  11.357  11.859
91691W        W64116  37.007  35.993   1.755
91692W        W64117  42.017  43.974   2.805
91693W        W64118  10.238   1.331  11.447
91694W        W64119  24.128  44.958   4.703
91695W        W64120   0.348  16.145   0.363
91696W        W64121  16.663  29.630   3.779
91697W        W64122  13.323  19.660   3.205
91698W        W64123  34.380  25.052   2.352
91699W        W64124  34.113  34.600   4.759
91700W        W64125  44.970  30.039  10.424
91701W        W64126  41.043  17.193  13.447
91702W        W64127  29.965   1.239  12.953
91703W        W64128  19.227  14.619   3.270
91704W        W64129  39.931   4.724   1.416
91705W        W64130   8.755  19.135   0.400
91706W        W64131   9.365  37.995  10.987
91707W        W64132  33.600  18.740  14.784
91708W        W64133  24.186  29.489   5.142
91709W        W64134   0.458  18.550   3.323
91710W        W64135  30.993  19.162   3.370
91711W        W64136  17.276  38.935  11.585
91712W        W64137  10.255  24.483  13.346
91713W        W64138  35.604  26.498   0.270
91714W        W64139   6.383  39.979  12.940
91715W        W64140  43.985  21.540   4.197
91716W        W64141  33.980   3.858  14.319
91717W        W64142   5.806  27.598   4.152
91718W        W64143  26.508  10.730  14.422
91719W        W64144  20.187   5.800  13.363
91720W        W64145  12.705  13.833   2.190
91721W        W64146   3.252  26.047   1.721
91722W        W64147  10.816  32.464  13.934
91723W        W64148  11.309  42.018   2.673
91724W        W64149  43.288  18.620  10.997
91725W        W64150   6.367  28.093  12.003
91726W        W64151  15.260  32.605   9.441
91727W        W64152   1.809   4.784   4.256
91728W        W64153  35.036  38.431  12.357
91729W        W64154  32.094  34.422  10.039
91730W        W64155   7.214   8.701  12.058
91731W        W64156   5.724   1.376  11.536
91732W        W64157  35.934   2.869   0.304
91733W        W64158  33.067  40.985   1.793
91734W        W64159  12.744  13.832  11.448
91735W        W64160  11.653   9.830   3.815
91736W        W64161  34.474  10.361  13.803
91737W        W64162  29.580  13.328   1.252
91738W        W64163  31.019  11.192   3.644
91739W        W64164  31.096  42.915   2.885
91740W        W64165  14.722   5.694  11.942
91741W        W64166  36.354  30.519   0.426
91742W        W64167  13.138  31.075   1.244
91743W        W64168  33.046   3.772   3.249
91744W        W64169   2.268   1.733   2.209
91745W        W64170  24.501  29.603   1.424
91746W        W64171  35.997  33.563  13.347
91747W        W64172  12.126   7.773  12.491
91748W        W64173   1.840  43.904  14.336
91749W        W64174  28.565  40.911   0.891
91750W        W64175  20.236  30.611   0.346
91751W        W64176  15.770  17.260   0.307
91752W        W64177  17.244  25.007  13.467
91753W        W64178  42.333  37.436  10.630
91754W        W64179  26.139  25.180  14.372
91755W        W64180   5.383  42.821  14.373
91756W        W64181  37.050  24.005  14.796
91757W        W64182  11.285  32.496  13.993
91758W        W64183  11.215  24.686   9.480
91759W        W64184  31.525  41.796  11.552
91760W        W64185   4.820  34.451  13.422
91761W        W64186  21.197   2.268   3.720
91762W        W64187  14.604  36.058   2.678
91763W        W64188  37.562  17.127  10.536
91764W        W64189  37.367  20.127  13.370
91765W        W64190  15.168  28.539  12.368
91766W        W64191  39.426  26.963   4.162
91767W        W64192  10.695   5.406  12.096
91768W        W64193  15.147  19.216   2.893
91769W        W64194  19.744  43.333   0.742
91770W        W64195  21.658  37.041   0.890
91771W        W64196  21.186  43.946   1.762
91772W        W64197  11.130  43.880   4.635
91773W        W64198  23.064  17.137  11.472
91774W        W64199   7.352  35.421   4.682
91775W        W64200  19.200   9.783  13.313
91776W        W64201  17.128  31.498   2.184
91777W        W64202  23.057   7.409   2.256
91778W        W64203  24.069   8.680  14.923
91779W        W64204  33.570  21.597   2.712
91780W        W64205  27.446  35.983   3.238
91781W        W64206  19.708  17.232  11.385
91782W        W64207  16.277  28.177  11.581
91783W        W64208  36.004  13.313   3.377
91784W        W64209  12.685  37.340   1.340
91785W        W64210  21.712  31.583   0.855
91786W        W64211  44.979  14.137   3.816
91787W        W64212  13.150  26.080   3.713
91788W        W64213  40.017   3.421   2.289
91789W        W64214  18.605   9.774  13.841
91790W        W64215  32.572   1.368   3.813
91791W        W64216  36.850   0.250   1.917
91792W        W64217  21.055   2.338   5.303
91793W        W64218  36.582  25.551  14.300
91794W        W64219  29.424   2.402  14.784
91795W        W64220  24.521  26.638  13.797
91796W        W64221  32.010  19.237  14.929
91797W        W64222  19.759   3.841  11.869
91798W        W64223  24.146  19.708   2.669
91799W        W64224  19.759  30.049   2.417
91800W        W64225  16.085   3.364   4.669
91801W        W64226  11.265  28.658   4.798
91802W        W64227  35.017   6.794   4.224
91803W        W64228   4.267   4.274   1.908
91804W        W64229  41.517   5.916   4.223
91805W        W64230   8.899  30.988   2.708
91806W        W64231  40.303  40.456  11.969
91807W        W64232  13.798  33.508  11.065
91808W        W64233   9.264  20.240   2.280
91809W        W64234  29.159  25.507   4.699
91810W        W64235  24.493  12.328   3.165
91811W        W64236   1.295   1.878  12.026
91812W        W64237   1.471  26.048  10.607
91813W        W64238  30.417  13.145   1.357
91814W        W64239   5.228  42.452  14.452
91815W        W64240  14.680  18.101   3.383
91816W        W64241   5.385   6.758  14.828
91817W        W64242  22.627  12.134   4.307
91818W        W64243  26.132   4.442   3.355
91819W        W64244   0.418   6.846   3.223
91820W        W64245  12.212  24.009  14.028
91821W        W64246   9.649  25.199   3.188
91822W        W64247  38.412  21.134  10.536
91823W        W64248  21.229  22.527   4.310
91824W        W64249   2.815  25.088   1.216
91825W        W64250  31.587  39.008  12.519
91826W        W64251  37.028  37.052   1.778
91827W        W64252  34.580   6.408   2.737
91828W        W64253  12.772  14.726   3.206
91829W        W64254  41.450  20.223  14.025
91830W        W64255  23.594  37.487  10.482
91831W        W64256  38.960  28.663   2.719
91832W        W64257  35.519  17.110  13.998
91833W        W64258   4.840  30.055   1.408
91834W        W64259  42.375  42.936   1.446
91835W        W64260  26.208  13.272   3.197
91836W        W64261   5.262  18.118  11.393
91837W        W64262   2.780  36.508  10.959
91838W        W64263  33.005   2.307   4.736
91839W        W64264  33.943  17.573  11.494
91840W        W64265   1.788  10.849  12.468
91841W        W64266   9.384  14.332   0.731
91842W        W64267  10.223  42.457   2.259
91843W        W64268  38.832  22.167   0.247
91844W        W64269   9.278  10.737  10.566
91845W        W64270  36.562   1.775  11.890
91846W        W64271  40.987  29.436  13.887
91847W        W64272  38.506  14.166   2.688
91848W        W64273  19.270  20.256  10.973
91849W        W64274  12.730  38.365  10.531
91850W        W64275   5.753   4.800  12.512
91851W        W64276   8.359  38.031  10.547
91852W        W64277  37.547  15.750  10.498
91853W        W64278   9.663  14.309  14.375
91854W        W64279  41.360  17.137  10.625
91855W        W64280  17.593  11.718   1.762
91856W        W64281  42.335  42.833  14.940
91857W        W64282  25.210  22.532   2.279
91858W        W64283  43.346  43.491   1.304
91859W        W64284  29.105  24.078   1.337
91860W        W64285  37.360  14.633  13.955
91861W        W64286  16.601  21.087   4.164
91862W        W64287  42.027  34.422   1.347
91863W        W64288  41.041   5.773  12.058
91864W        W64289  23.169  41.823   1.328
91865W        W64290  28.628  33.516  14.419
91866W        W64291  12.622   9.206  14.470
91867W        W64292  17.617  38.325   4.713
91868W        W64293   2.770   2.338  12.449
91869W        W64294  36.552  43.454  11.461
91870W        W64295  36.576  30.610   1.321
91871W        W64296  39.809  25.076  11.543
91872W        W64297  26.143  32.501  14.029
91873W        W64298  31.433  12.135   0.829
91874W        W64299  20.087  21.256   2.793
91875W        W64300  15.699  10.678   0.907
91876W        W64301   6.329  21.092   0.333
91877W        W64302  25.167  40.851  12.358
91878W        W64303  27.110  43.365   0.791
91879W        W64304  24.550  33.442   4.333
91880W        W64305  30.473  34.049   1.283
91881W        W64306   3.454  25.626  12.096
91882W        W64307  42.982   4.811  11.512
91883W        W64308  17.180  17.579  10.451
91884W        W64309  28.614  24.073  13.995
91885W        W64310  21.693   6.411   3.770
91886W        W64311  41.449  37.364   2.893
91887W        W64312   7.885  27.020  12.471
91888W        W64313  15.721   7.179  12.347
91889W        W64314  44.900  18.652   3.323
91890W        W64315   4.216  22.618  11.401
91891W        W64316  42.284  27.558   3.315
91892W        W64317  23.128   6.196  10.946
91893W        W64318  19.147  14.094  11.978
91894W        W64319  22.567  40.014   1.829
91895W        W64320   5.309  30.640   1.387
91896W        W64321  26.176  17.590   2.804
91897W        W64322  20.552  23.069   1.443
91898W        W64323  24.589   6.853   1.866
91899W        W64324  36.967   5.757  11.039
91900W        W64325  10.378  27.129   4.732
91901W        W64326  43.447  15.115  11.969
91902W        W64327   9.670  22.149   4.203
91903W        W64328  28.550  27.129   4.712
91904W        W64329  40.383  22.582   0.297
91905W        W64330  41.514  37.843  11.888
91906W        W64331  35.543  43.489  11.539
91907W        W64332  10.204  39.964   0.764
91908W        W64333  43.467  22.037  13.808
91909W        W64334  43.893  13.643   1.315
91910W        W64335  44.351   0.283  11.013
91911W        W64336  36.454  27.110  14.370
91912W        W64337   5.905  11.838   4.603
91913W        W64338  23.093  28.037  13.045
91914W        W64339  17.659  32.079   0.926
91915W        W64340  28.995  25.140   0.726
91916W        W64341  32.955  18.247  14.385
91917W        W64342  18.293  15.608   0.919
91918W        W64343  39.936  13.308   1.256
91919W        W64344   1.326   7.213  12.966
91920W        W64345   7.685  12.156  14.309
91921W        W64346  35.428   9.188  11.055
91922W        W64347  21.162  22.502   3.151
91923W        W64348  40.017  19.134  10.462
91924W        W64349  15.630  39.406   1.718
91925W        W64350  24.156  24.643   4.714
91926W        W64351  37.380  31.060   3.266
91927W        W64352  25.584   6.243  11.600
91928W        W64353  41.990  40.369  11.545
91929W        W64354   8.752  41.394   4.203
91930W        W64355  30.612  15.149   3.328
91931W        W64356  22.082  30.161  14.309
91932W        W64357  31.633  12.794  14.503
91933W        W64358   2.770  25.596   0.881
91934W        W64359  42.446  43.000  10.562
91935W        W64360   6.791  32.606   1.329
91936W        W64361   5.746   8.403   4.350
91937W        W64362   7.271  12.220   4.756
91938W        W64363   3.766  34.592   4.696
91939W        W64364  24.043  24.983   1.310
91940W        W64365  32.439  10.840   3.148
91941W        W64366  28.476  35.008   0.247
91942W        W64367  39.038  23.208   3.845
91943W        W64368  19.207  12.809   2.803
91944W        W64369  41.472   4.401   1.856
91945W        W64370   9.210  24.089   2.415
91946W        W64371  22.632   8.283  14.862
91947W        W64372  10.143  34.582   1.430
91948W        W64373  33.625  42.466  11.454
91949W        W64374   4.893  34.068   1.707
91950W        W64375   5.807   0.328  12.963
91951W        W64376  28.456   6.418  14.508
91952W        W64377  17.103  34.878   3.216
91953W        W64378  28.629   4.760   3.244
91954W        W64379  31.407  17.191  12.048
91955W        W64380  12.739  23.589   1.430
91956W        W64381   0.964  19.673   0.364
91957W        W64382  30.011  29.610  12.089
91958W        W64383  44.405  12.847   4.139
91959W        W64384  21.095  22.206   4.233
91960W        W64385  17.176  44.944  11.518
91961W        W64386  21.161  20.626   4.321
91962W        W64387  34.114  21.038  13.027
91963W        W64388  44.266  28.645  13.490
91964W        W64389  19.770  38.996  10.578
91965W        W64390  35.974  26.048   0.252
91966W        W64391  39.985  16.293  14.371
91967W        W64392  17.695  12.646   1.791
91968W        W64393  32.061   9.152   1.853
91969W        W64394  41.395  19.690   3.859
91970W        W64395  42.912  40.390  11.432
91971W        W64396  41.802  36.097   4.600
91972W        W64397  31.036  36.995   2.298
91973W        W64398   5.354  30.044  11.392
91974W        W64399  11.694  36.478  13.980
91975W        W64400  34.045  35.467   4.324
91976W        W64401  25.478   4.900   2.684
91977W        W64402  28.159  36.465  11.385
91978W        W64403   2.359  17.609  11.559
91979W        W64404   3.285   1.827   1.390
91980W        W64405  32.046  40.526   5.207
91981W        W64406  42.297  20.530  11.481
91982W        W64407  40.901  13.243   4.195
91983W        W64408  41.494  15.694   1.848
91984W        W64409  23.539  23.730  11.435
91985W        W64410  14.264   2.283  10.570
91986W        W64411   8.264  40.455  10.955
91987W        W64412  22.111  20.222   0.879
91988W        W64413  40.812  42.501  12.456
91989W        W64414  36.456   3.316  11.987
91990W        W64415  13.729  25.153   4.244
91991W        W64416  20.088  27.125  12.962
91992W        W64417  30.496  31.411  12.075
91993W        W64418   6.810   1.902   0.917
91994W        W64419  30.161  26.591   2.333
91995W        W64420  35.093  31.946   0.416
91996W        W64421  37.384  31.567  11.468
91997W        W64422  12.347  10.216  10.921
91998W        W64423  18.603   4.336  12.011
91999W        W64424  39.425  42.389   0.881
92000W        W64425   6.271  37.075   4.739
92001W        W64426  17.173  43.815   3.224
92002W        W64427  22.741  14.292  13.355
92003W        W64428  36.450  14.618   0.957
92004W        W64429  19.755   0.328  14.372
92005W        W64430  12.674  37.952  11.581
92006W        W64431   0.843  22.563  14.395
92007W        W64432  20.270  12.145  11.977
92008W        W64433  21.154  24.062  12.979
92009W        W64434   9.809  32.504   3.228
92010W        W64435  24.160   9.258   1.347
92011W        W64436  27.065  44.321  13.879
92012W        W64437   9.801  39.920  11.581
92013W        W64438  40.955  11.759   0.965
92014W        W64439  25.216  11.866  11.594
92015W        W64440  21.244  19.098   3.182
92016W        W64441   6.852  28.164   0.907
92017W        W64442   9.743  25.128   1.272
92018W        W64443  27.665  29.023   0.326
92019W        W64444  32.963  10.292  11.476
92020W        W64445  27.063  13.345  10.449
92021W        W64446  25.985   7.410   1.925
92022W        W64447   6.404   2.280   3.241
92023W        W64448  29.472  33.953   4.598
92024W        W64449   6.415  33.882   2.733
92025W        W64450   3.225  10.680   3.640
92026W        W64451   1.285  13.300  13.355
92027W        W64452  14.766  34.499   1.360
92028W        W64453  40.408   7.242   0.357
92029W        W64454  34.535  40.310  13.441
92030W        W64455  30.945   9.194   4.182
92031W        W64456  31.642  27.564  14.394
92032W        W64457  39.515   2.264  13.486
92033W        W64458   5.256   2.363  14.455
92034W        W64459  41.525  14.337   3.310
92035W        W64460  20.681  12.635  10.476
92036W        W64461  23.612  32.975  12.863
92037W        W64462   3.919  36.363  12.490
92038W        W64463   2.239  26.501   1.250
92039W        W64464  15.226  16.305   4.214
92040W        W64465   2.922   5.914  10.547
92041W        W64466  30.163  40.507  10.062
92042W        W64467   6.249  32.603   3.639
92043W        W64468  25.018  10.815   1.774
92044W        W64469  24.214  27.093  14.770
92045W        W64470  41.529  19.757  14.795
92046W        W64471  27.987   7.387  13.447
92047W        W64472  36.543  35.443  13.445
92048W        W64473  13.294   6.395  10.612
92049W        W64474  36.462   3.715  10.919
92050W        W64475  13.746  41.308   1.831
92051W        W64476  11.147  26.082  12.494
92052W        W64477  15.661  25.151  12.430
92053W        W64478  16.682  12.721   4.288
92054W        W64479  44.474  16.253   0.861
92055W        W64480   6.340  17.074  13.977
92056W        W64481  37.989  10.760   4.164
92057W        W64482  42.967  33.520  14.973
92058W        W64483  27.987   9.741   9.957
92059W        W64484  25.110  34.400  14.871
92060W        W64485  44.957  23.133   0.464
92061W        W64486  17.148  24.218  14.482
92062W        W64487  19.050   2.312  14.858
92063W        W64488  25.594  18.738   4.118
92064W        W64489   7.256  38.454  13.337
92065W        W64490  30.509  36.855  11.952
92066W        W64491  38.353   4.863  10.589
92067W        W64492   6.276   0.408  14.446
92068W        W64493  12.278  38.983  12.863
92069W        W64494  30.580   8.190  13.042
92070W        W64495  26.541  24.519  13.000
92071W        W64496  35.403   6.764   3.708
92072W        W64497  35.585  16.801   4.817
92073W        W64498   9.364   8.753   1.363
92074W        W64499  28.976  28.092  10.901
92075W        W64500  12.796  16.105   3.635
92076W        W64501  11.800  29.073  12.421
92077W        W64502  38.998  25.184   5.257
92078W        W64503  32.609  27.009  13.540
92079W        W64504  26.644   3.252   0.389
92080W        W64505  11.186  35.907  13.510
92081W        W64506  11.735  29.455  11.451
92082W        W64507  43.789   1.923  11.086
92083W        W64508  30.157  41.824   1.834
92084W        W64509  27.940  22.548  11.041
92085W        W64510  38.933  21.229   5.159
92086W        W64511  39.910  16.620   4.135
92087W        W64512  38.040   7.296   1.252
92088W        W64513  25.696  27.967   3.341
92089W        W64514  16.619  32.079  12.077
92090W        W64515  21.123  42.396  13.851
92091W        W64516  23.495   0.437   2.795
92092W        W64517  10.818   7.748  10.904
92093W        W64518  17.218  12.778  12.900
92094W        W64519  42.866  41.523   1.414
92095W        W64520   0.475  12.154   1.721
92096W        W64521  32.548  44.387   1.303
92097W        W64522  37.409  20.655   1.827
92098W        W64523  44.411  43.881   2.339
92099W        W64524  16.259  40.444   2.234
92100W        W64525  42.454  44.994   1.913
92101W        W64526  25.185  11.857   4.255
92102W        W64527  36.459   8.792   0.455
92103W        W64528  23.986  35.868  14.444
92104W        W64529  37.951  11.356   4.173
92105W        W64530  34.907  34.542  11.963
92106W        W64531  22.235  24.976  14.766
92107W        W64532  23.695   1.839   2.865
92108W        W64533  44.905  43.280   3.854
92109W        W64534  34.865  27.564   4.688
92110W        W64535  19.233  15.772   2.199
92111W        W64536  39.432  25.964   4.791
92112W        W64537   3.315   9.803   0.822
92113W        W64538   8.172  38.019   3.830
92114W        W64539  14.225  17.585   4.711
92115W        W64540  33.564  35.080  12.878
92116W        W64541   5.910  39.323  10.889
92117W        W64542   5.718  14.589  13.368
92118W        W64543  25.484  39.979  13.484
92119W        W64544  13.338  17.785   1.357
92120W        W64545  20.263  23.179  13.427
92121W        W64546  10.828   8.382  13.334
92122W        W64547  40.966  21.667   2.717
92123W        W64548  28.437  33.068  14.820
92124W        W64549  13.783   1.393  12.571
92125W        W64550  30.941  13.844  13.027
92126W        W64551  44.345  20.028   0.824
92127W        W64552  15.821  12.245   2.358
92128W        W64553  14.265   2.761  13.037
92129W        W64554  10.344  22.682  10.033
92130W        W64555  12.125  22.614  13.848
92131W        W64556  35.386  26.492   1.803
92132W        W64557   8.247  37.913  13.989
92133W        W64558  32.100  43.374  13.023
92134W        W64559  25.121   5.234   1.314
92135W        W64560  44.339  34.035  12.915
92136W        W64561  31.109   6.255  12.345
92137W        W64562  10.765  10.728   3.263
92138W        W64563   6.748  40.434   1.266
92139W        W64564  20.645  36.575  11.572
92140W        W64565  21.094  41.508   4.118
92141W        W64566  24.209   7.371   1.700
92142W        W64567  23.735  16.186  12.354
92143W        W64568   3.251  22.020  14.358
92144W        W64569  13.700  29.009  11.408
92145W        W64570  10.644  13.192   0.829
92146W        W64571   9.374  19.138  13.937
92147W        W64572   6.249  34.917   2.391
92148W        W64573   5.403   5.688  11.485
92149W        W64574  36.029   2.231  13.846
92150W        W64575   9.388   9.842  14.441
92151W        W64576  25.072  25.019  10.517
92152W        W64577   0.783  21.100   4.260
92153W        W64578  14.703   0.465  11.373
92154W        W64579   3.725  41.347  13.507
92155W        W64580  37.371   9.297   4.655
92156W        W64581  34.552   2.822   3.761
92157W        W64582  26.020  34.118   2.751
92158W        W64583  40.811  20.043  14.032
92159W        W64584   8.353  34.452  11.450
92160W        W64585   5.819   0.770  14.428
92161W        W64586  36.474  13.151   2.317
92162W        W64587  27.461   6.722   3.725
92163W        W64588  28.572  36.535   4.647
92164W        W64589  11.764  27.571  14.901
92165W        W64590  29.045   2.842  11.949
92166W        W64591  36.434  12.756  10.152
92167W        W64592  26.618  11.866   2.682
92168W        W64593  10.736  43.951  12.552
92169W        W64594   7.723   7.865  11.551
92170W        W64595  15.735  42.913   4.674
92171W        W64596  19.182  26.100   3.786
92172W        W64597  38.350  12.672  14.021
92173W        W64598  33.061   3.764  11.039
92174W        W64599  35.414  27.112  14.378
92175W        W64600  15.680  44.821   4.297
92176W        W64601  14.123  29.658   4.723
92177W        W64602  17.131  17.161   0.783
92178W        W64603  36.042  28.121  12.991
92179W        W64604  16.598  41.302   1.798
92180W        W64605  19.677  42.872  14.780
92181W        W64606  24.654  17.210  13.794
92182W        W64607  23.635   9.154  10.593
92183W        W64608  26.089  31.439   4.149
92184W        W64609  44.384  37.950   0.286
92185W        W64610  30.080  27.597  10.624
92186W        W64611  27.628   5.298  12.570
92187W        W64612  11.223   7.684   3.683
92188W        W64613   8.381  16.652  13.007
92189W        W64614   0.920  25.016   1.333
92190W        W64615  11.711  31.016  12.363
92191W        W64616   8.725   9.776   2.259
92192W        W64617   0.463  21.081  11.075
92193W        W64618  14.180  25.522  13.410
92194W        W64619  16.229   6.333   4.302
92195W        W64620  11.290  19.158  12.937
92196W        W64621  21.738  15.322  14.948
92197W        W64622  15.221   4.786  11.881
92198W        W64623   1.756  16.209   4.782
92199W        W64624   1.271  44.852   1.397
92200W        W64625  24.657  12.701   0.329
92201W        W64626  37.007  30.040   2.700
92202W        W64627  43.435  14.319  14.788
92203W        W64628  32.493  10.202  14.488
92204W        W64629  24.646   0.816   4.734
92205W        W64630  29.141   2.233   4.615
92206W        W64631  24.114  31.595  12.856
92207W        W64632  27.117   2.416  11.954
92208W        W64633  32.455  13.780  14.416
92209W        W64634   3.240  39.839  14.830
92210W        W64635  30.916  18.099   2.302
92211W        W64636   2.863  12.316   1.249
92212W        W64637  25.133   6.396   2.197
92213W        W64638  40.880  16.672   1.925
92214W        W64639  30.488  44.486   2.685
92215W        W64640  37.476   2.802  14.975
92216W        W64641  13.821   9.812   2.201
92217W        W64642  41.327   3.946   1.706
92218W        W64643  36.568  42.902  10.421
92219W        W64644   6.728  42.438   0.726
92220W        W64645  37.063  19.127   4.760
92221W        W64646  28.437  23.131  12.039
92222W        W64647  40.549   0.426  13.972
92223W        W64648  21.712  12.276  12.926
92224W        W64649  41.876  15.688  11.501
92225W        W64650  28.132  38.838   4.632
92226W        W64651  18.073  43.305  13.014
92227W        W64652  15.745  20.208  10.577
92228W        W64653  13.757  21.693  14.876
92229W        W64654   7.687   6.300  12.006
92230W        W64655   2.358  28.046  10.033
92231W        W64656   0.911  10.243   2.788
92232W        W64657  37.973  22.644   0.775
92233W        W64658  17.683  41.992   0.758
92234W        W64659  29.046  28.605  12.832
92235W        W64660  36.444  43.435   4.612
92236W        W64661   3.768  41.792  11.071
92237W        W64662   0.881  36.439  13.315
92238W        W64663   0.849  15.110   3.780
92239W        W64664  29.987  27.062   1.825
92240W        W64665   2.331   5.388   3.284
92241W        W64666   4.332  13.214   1.851
92242W        W64667   7.254  43.309   1.406
92243W        W64668  41.897  40.011  10.510
92244W        W64669   7.375  38.868   1.343
92245W        W64670  30.111   5.818   4.127
92246W        W64671  25.194  23.014   0.865
92247W        W64672  37.943   7.688  14.928
92248W        W64673  13.779  23.034  12.474
92249W        W64674  27.524  38.468  12.350
92250W        W64675  40.451  32.932  13.403
92251W        W64676  37.382  36.009   4.209
92252W        W64677  40.033  39.955   2.415
92253W        W64678   4.791   4.380   4.672
92254W        W64679  43.977  43.499   1.696
92255W        W64680   1.821   2.865   3.710
92256W        W64681  32.602  28.560   3.343
92257W        W64682  10.773   3.226   1.443
92258W        W64683   2.753   0.847   1.917
92259W        W64684  11.631  27.159  10.510
92260W        W64685  13.161  13.720   3.298
92261W        W64686  18.588  33.524   5.267
92262W        W64687  40.813  28.561   4.687
92263W        W64688  10.807   7.794   0.243
92264W        W64689   6.803   9.240  12.368
92265W        W64690   7.311  20.701   1.868
92266W        W64691  31.001  37.409  13.017
92267W        W64692   9.264  34.906   3.647
92268W        W64693  19.661  44.279  14.917
92269W        W64694  32.610   7.334   0.428
92270W        W64695  34.483  17.747   1.910
92271W        W64696  26.206  40.363   2.761
92272W        W64697  28.603   4.724   4.659
92273W        W64698   3.376  11.260   1.301
92274W        W64699  31.919  43.903  11.950
92275W        W64700  40.400   5.744   0.347
92276W        W64701   2.938  15.791  14.303
92277W        W64702  21.126  33.999   2.190
92278W        W64703   5.205  27.148   2.299
92279W        W64704  42.482  22.701  10.480
92280W        W64705   9.809   3.744  13.335
92281W        W64706   0.427  33.880  12.428
92282W        W64707  18.229  19.090  12.488
92283W        W64708   6.815  14.659   2.798
92284W        W64709   7.266  21.610  11.983
92285W        W64710  29.000  11.863  12.847
92286W        W64711   6.922  41.446   3.819
92287W        W64712   1.778  37.392  12.843
92288W        W64713  10.777  41.865  12.846
92289W        W64714  31.949  33.533  12.076
92290W        W64715   2.399   0.864  10.956
92291W        W64716  34.515  20.052  10.973
92292W        W64717  20.696   2.860   3.773
92293W        W64718  24.068  23.177  10.419
92294W        W64719  27.646  19.647  11.004
92295W        W64720  18.552  23.140  14.992
92296W        W64721  11.694  28.081  13.825
92297W        W64722  37.405  29.445  13.000
92298W        W64723  22.061  43.361  11.975
92299W        W64724  27.053  32.050   9.567
92300W        W64725   4.835   8.359  13.537
92301W        W64726  30.146  16.075  14.762
92302W        W64727  36.387   5.876  10.502
92303W        W64728  15.669  22.543  12.359
92304W        W64729  29.573  11.745  11.534
92305W        W64730   6.312  35.064   3.379
92306W        W64731   7.870  36.535   2.871
92307W        W64732  20.533   6.820   2.728
92308W        W64733  43.444  27.102  12.568
92309W        W64734  32.394  31.006  13.466
92310W        W64735  26.010  26.090   1.319
92311W        W64736  32.061   5.696  14.355
92312W        W64737  21.262   5.806  11.595
92313W        W64738   7.757  36.349  11.502
92314W        W64739   9.362  36.391  13.840
92315W        W64740  33.621   5.778   0.479
92316W        W64741  35.943  38.359   1.872
92317W        W64742  44.815  42.910  12.994
92318W        W64743  10.642  24.703  10.482
92319W        W64744  13.315   7.315   3.782
92320W        W64745  38.996   8.658  11.085
92321W        W64746  43.950  32.454  10.069
92322W        W64747  40.905   7.740  12.946
92323W        W64748   8.818  25.480   0.766
92324W        W64749  23.629   9.164  12.021
92325W        W64750  39.381  13.787   2.845
92326W        W64751   7.743  31.071   3.738
92327W        W64752  24.590  18.695  13.041
92328W        W64753  23.000  33.975  11.121
92329W        W64754  42.348  38.492  12.524
92330W        W64755  15.255  18.124   3.356
92331W        W64756   9.356   8.687   4.305
92332W        W64757  28.645  14.636  14.379
92333W        W64758  29.026  31.470   3.159
92334W        W64759  33.480  34.609  11.384
92335W        W64760  26.607   9.665   1.826
92336W        W64761   0.874  20.734  14.811
92337W        W64762  39.422  32.628  14.420
92338W        W64763  42.978  37.566  14.484
92339W        W64764  22.587  13.291   4.673
92340W        W64765  34.942  29.113   2.793
92341W        W64766   6.735  17.162   1.368
92342W        W64767  21.724  18.275  14.830
92343W        W64768  32.510  23.141  14.352
92344W        W64769  12.855  16.582   0.949
92345W        W64770  34.513   7.792   4.800
92346W        W64771  12.210  15.190  14.987
92347W        W64772  16.665  12.251  11.596
92348W        W64773  11.228  16.741   1.878
92349W        W64774   6.763  22.046  13.836
92350W        W64775  27.554  13.318   2.768
92351W        W64776  33.002  37.021   2.192
92352W        W64777  15.758  33.480   2.842
92353W        W64778   8.352  10.655   0.379
92354W        W64779   4.752  36.045   5.284
92355W        W64780  42.495  20.095  13.515
92356W        W64781  33.049  10.310   2.314
92357W        W64782  39.967  20.730  13.453
92358W        W64783  44.362  41.515  12.518
92359W        W64784   4.271  36.025   4.602
92360W        W64785  19.196  10.165   2.836
92361W        W64786   8.870   6.224  13.486
92362W        W64787   6.249  16.138   1.764
92363W        W64788   7.388  12.290   3.666
92364W        W64789  42.948  28.637  11.028
92365W        W64790  23.575   4.204  11.873
92366W        W64791  39.979  42.404  11.929
92367W        W64792  27.074  30.015  14.435
92368W        W64793  26.676  20.589  10.618
92369W        W64794  44.769  21.173   3.782
92370W        W64795  18.592   4.780   5.096
92371W        W64796  39.509  10.769  11.541
92372W        W64797  22.660  35.077   4.772
92373W        W64798   6.245  15.225  14.496
92374W        W64799   2.841   5.725  12.976
92375W        W64800   9.734  13.801  14.778
92376W        W64801  38.901  11.768  12.083
92377W        W64802  10.656  32.003  10.554
92378W        W64803   4.742  11.189   2.339
92379W        W64804   8.821   9.839  14.028
92380W        W64805  25.048  10.246  12.838
92381W        W64806  39.837  11.670   3.382
92382W        W64807  10.723  27.461  10.990
92383W        W64808  29.992  33.976   0.891
92384W        W64809  17.701   6.272   3.808
92385W        W64810  27.682  38.443  14.309
92386W        W64811   8.208  19.164   1.234
92387W        W64812  43.491  16.212   1.436
92388W        W64813  22.502   9.285  10.437
92389W        W64814  37.522  11.678   2.230
92390W        W64815   7.774  24.519  14.459
92391W        W64816  21.208  21.067   2.710
92392W        W64817  14.667  15.608  10.966
92393W        W64818  28.481  29.454   0.822
92394W        W64819   5.691  15.798   0.944
92395W        W64820   6.774  38.377  14.933
92396W        W64821  35.518  20.181  14.361
92397W        W64822  38.537  34.094   2.379
92398W        W64823  24.636  31.430   3.213
92399W        W64824  10.214   0.252   2.718
92400W        W64825   9.293   3.853  13.379
92401W        W64826  29.528  27.127  10.943
92402W        W64827  13.130  17.091  13.016
92403W        W64828   2.895  21.546   4.721
92404W        W64829  35.947  43.855   0.846
92405W        W64830   0.760  43.970  11.919
92406W        W64831  36.953  11.762  14.773
92407W        W64832  28.681  26.606   4.339
92408W        W64833  16.667   0.914   0.303
92409W        W64834  31.429  44.947  10.980
92410W        W64835   2.812  32.944  13.816
92411W        W64836  37.562  29.566   1.241
92412W        W64837  26.026  44.371  14.807
92413W        W64838   3.870  28.940   4.318
92414W        W64839  29.496  21.107   2.819
92415W        W64840   2.790   1.872   3.330
92416W        W64841   0.872  26.601  14.866
92417W        W64842  40.005  30.644  12.417
92418W        W64843  36.967   9.239   5.572
92419W        W64844  11.670  34.876  12.927
92420W        W64845  17.253   0.849   3.376
92421W        W64846  43.850  43.000   3.372
92422W        W64847  43.436   0.871   4.743
92423W        W64848  15.264   2.276  14.893
92424W        W64849  42.368  10.741   4.279
92425W        W64850  22.563  21.672  11.900
92426W        W64851   9.350  11.149  14.346
92427W        W64852   9.287  13.130   3.743
92428W        W64853  12.293  18.731  11.500
92429W        W64854  14.125  35.582   1.873
92430W        W64855   5.876  44.782   3.803
92431W        W64856   6.727  28.184   0.405
92432W        W64857  22.519  26.563   1.334
92433W        W64858   3.297  19.105  14.431
92434W        W64859  24.539  38.908   2.701
92435W        W64860  11.252  35.468  14.879
92436W        W64861  17.224  18.633   2.369
92437W        W64862  10.288  25.190   3.736
92438W        W64863  40.992  11.200   0.749
92439W        W64864  31.599  43.397   4.716
92440W        W64865  44.886  25.144   4.693
92441W        W64866  41.342  41.971  12.924
92442W        W64867  35.515   1.886  12.436
92443W        W64868  28.164  18.777  11.585
92444W        W64869  34.485  38.970  11.482
92445W        W64870  37.441  15.250  10.955
92446W        W64871  22.646   2.820  10.018
92447W        W64872   0.306  27.689   4.287
92448W        W64873  25.004   2.272   4.664
92449W        W64874  32.911  33.399  11.071
92450W        W64875   9.231   4.232  10.547
92451W        W64876  19.626  15.604   2.360
92452W        W64877   0.349   4.234   1.413
92453W        W64878  26.646  24.680  10.441
92454W        W64879  42.848   8.792   4.168
92455W        W64880  38.507   1.367  10.903
92456W        W64881   3.263  38.498  10.433
92457W        W64882   3.781  13.243  14.425
92458W        W64883  33.112  16.138   2.832
92459W        W64884  24.534  36.045  13.388
92460W        W64885  43.420  38.380   2.795
92461W        W64886  10.795  38.034  14.974
92462W        W64887  21.155   8.234   0.459
92463W        W64888  44.843  12.731  12.893
92464W        W64889  32.624  24.622  14.320
92465W        W64890  10.282  32.089   4.695
92466W        W64891   7.850  37.526  12.825
92467W        W64892  29.984  37.497   3.147
92468W        W64893  23.209  40.362   1.694
92469W        W64894  29.654  19.562   2.215
92470W        W64895   7.307  10.199   1.778
92471W        W64896  13.201   0.950  14.400
92472W        W64897   3.225   0.361  12.551
92473W        W64898   6.885  40.429   2.193
92474W        W64899  13.197   9.310  12.899
92475W        W64900  34.079   1.367  10.624
92476W        W64901   5.228  14.129   5.127
92477W        W64902  22.176  44.455  10.471
92478W        W64903  12.660  16.634   3.781
92479W        W64904   5.389  13.150  13.327
92480W        W64905  21.516  39.384   4.603
92481W        W64906   7.225  10.778   0.808
92482W        W64907  36.461  39.472  14.309
92483W        W64908  43.011  19.777   5.302
92484W        W64909  12.790   3.254   3.191
92485W        W64910  17.107   7.244   3.244
92486W        W64911  32.632  25.157  13.376
92487W        W64912  22.628  35.957   0.384
92488W        W64913  27.475  13.115   1.855
92489W        W64914  19.753  15.118   3.750
92490W        W64915  31.963  42.422   3.317
92491W        W64916  10.660  21.023  14.773
92492W        W64917  14.183  13.738   4.661
92493W        W64918  30.141  15.320   3.870
92494W        W64919  32.516   9.855   2.817
92495W        W64920  24.222  10.178   2.667
92496W        W64921   7.737  17.595  11.481
92497W        W64922  32.398  30.599   3.384
92498W        W64923  14.294  38.859  12.014
92499W        W64924  20.711  42.777  10.106
92500W        W64925  38.842  43.961   0.814
92501W        W64926   2.278  43.499   3.824
92502W        W64927  29.015  41.908  14.901
92503W        W64928  20.527  38.903   2.383
92504W        W64929  38.422  35.999  10.468
92505W        W64930   3.355  22.557  10.491
92506W        W64931  42.482   4.751   2.712
92507W        W64932  39.381   0.491  11.953
92508W        W64933  34.602  31.911   1.799
92509W        W64934  38.905   9.260   1.342
92510W        W64935  30.648  10.714  13.495
92511W        W64936  21.601   3.366   3.196
92512W        W64937  34.596  19.644  12.823
92513W        W64938   5.880  25.145  11.957
92514W        W64939   7.837  21.193  11.538
92515W        W64940  34.406  23.161  14.909
92516W        W64941  25.123  42.775  14.324
92517W        W64942  36.476  43.383   0.910
92518W        W64943  21.578  26.574   3.323
92519W        W64944  29.605  41.512   0.835
92520W        W64945  13.605  38.553  14.950
92521W        W64946   4.368  29.984  11.450
92522W        W64947  11.726  33.483   1.297
92523W        W64948  35.976  42.026  12.572
92524W        W64949  36.878  40.393   1.420
92525W        W64950  26.636  29.509   3.653
92526W        W64951   9.652  38.987   2.195
92527W        W64952   4.320  15.799  14.515
92528W        W64953  18.164   7.796  13.316
92529W        W64954  38.019  10.824  11.472
92530W        W64955  14.602  25.581  14.284
92531W        W64956  11.359  20.033   3.777
92532W        W64957  11.868   6.851   0.829
92533W        W64958  23.595  41.473  11.011
92534W        W64959  23.495  34.071  11.602
92535W        W64960  13.189  21.175   0.771
92536W        W64961  29.511   4.355  10.918
92537W        W64962  32.951  43.392  14.291
92538W        W64963   5.242  35.364  12.954
92539W        W64964  25.648  23.046  14.380
92540W        W64965  23.223  30.582  11.466
92541W        W64966  23.050   0.757   3.365
92542W        W64967   6.739  26.123   2.329
92543W        W64968  13.788   9.835   1.350
92544W        W64969  18.764   6.745  13.830
92545W        W64970  37.942  28.475   1.244
92546W        W64971   3.359  23.146   3.269
92547W        W64972   6.417  11.351   2.394
92548W        W64973   1.272  35.542  10.411
92549W        W64974  35.021  38.066  14.480
92550W        W64975   7.820  40.884  10.890
92551W        W64976  12.298   8.677   3.848
92552W        W64977  14.183   9.881   2.383
92553W        W64978  14.763   0.969  14.835
92554W        W64979  20.158  37.538   3.147
92555W        W64980  23.498  44.948  14.338
92556W        W64981  10.795  32.009  12.467
92557W        W64982  42.362  19.570  14.507
92558W        W64983  41.026  32.446   4.343
92559W        W64984  28.122  24.709  12.530
92560W        W64985   4.858  15.666  12.995
92561W        W64986  40.390  30.560   3.239
92562W        W64987  13.798  34.400  14.341
92563W        W64988  43.367   4.749  12.901
92564W        W64989  16.750  31.990  10.416
92565W        W64990  22.501   3.419   4.330
92566W        W64991   9.729  32.127  12.899
92567W        W64992  17.218  27.687  14.437
92568W        W64993  39.826  16.786  12.378
92569W        W64994   3.336   0.315  11.453
92570W        W64995  32.077   4.446   2.390
92571W        W64996   1.818  18.563   1.353
92572W        W64997  15.635  27.023   0.967
92573W        W64998  40.873  16.605   0.269
92574W        W64999  41.920   7.262   4.295
92575W        W65000  32.119  27.470   3.385
92576W        W65001   2.315  20.105   0.774
92577W        W65002   4.356  23.006  10.901
92578W        W65003  12.268  31.543  11.582
92579W        W65004  31.560  14.827   2.818
92580W        W65005  36.465  12.856  12.569
92581W        W65006  22.700  25.486  12.465
92582W        W65007   5.321   9.790  13.028
92583W        W65008  36.038  43.905   2.198
92584W        W65009  18.051  18.777  14.923
92585W        W65010  18.580   6.211   1.712
92586W        W65011   3.458  27.010   0.443
92587W        W65012  27.476  35.562  11.588
92588W        W65013   2.892  44.416  11.901
92589W        W65014  15.242  43.979  12.931
92590W        W65015  23.101  14.699   3.637
92591W        W65016  37.083  27.063  13.538
92592W        W65017  10.650  25.154  12.456
92593W        W65018  24.604  21.732   1.322
92594W        W65019  32.990   2.925  13.514
92595W        W65020  25.064  31.995  12.916
92596W        W65021  29.590  24.083  13.866
92597W        W65022  30.537   2.755   1.933
92598W        W65023  14.273  26.173   1.391
92599W        W65024   9.739  40.992   2.329
92600W        W65025  15.720  17.798  13.038
92601W        W65026  24.069  15.722   3.258
92602W        W65027   6.227  35.077  11.908
92603W        W65028  30.105  34.889  11.449
92604W        W65029   6.355   5.891  10.570
92605W        W65030  37.937   7.341   3.783
92606W        W65031  24.998  21.194  10.453
92607W        W65032  41.986  27.545   4.343
92608W        W65033   5.883   3.839  13.356
92609W        W65034   3.406  33.981   3.681
92610W        W65035  39.996  44.837   1.864
92611W        W65036  34.050   8.309  12.428
92612W        W65037  30.482  39.860   4.177
92613W        W65038  16.113  21.719  10.487
92614W        W65039  26.013  39.459  11.033
92615W        W65040  36.992   3.408   2.338
92616W        W65041   6.336  24.184   4.145
92617W        W65042  33.107  39.403   3.813
92618W        W65043  19.607  27.034  14.946
92619W        W65044  10.639  17.297   1.335
92620W        W65045  42.033  42.285  13.513
92621W        W65046  35.404  29.151   2.338
92622W        W65047  16.157  15.597   2.345
92623W        W65048  16.744  16.735   0.885
92624W        W65049  36.511  22.167  13.822
92625W        W65050  26.046   6.373  14.379
92626W        W65051  28.440  33.543   4.661
92627W        W65052  33.568  18.663  14.483
92628W        W65053  20.077  43.359  11.519
92629W        W65054  44.774  16.579  14.937
92630W        W65055   8.854   5.382   2.390
92631W        W65056   9.214  23.544   3.797
92632W        W65057   5.835   0.252   2.753
92633W        W65058  42.311   7.818  11.909
92634W        W65059  44.965  20.756  13.390
92635W        W65060  42.877  24.072  14.854
92636W        W65061  25.971  36.072   0.449
92637W        W65062  34.579  41.395  11.456
92638W        W65063   2.464   0.356  14.800
92639W        W65064   6.302   5.859   4.812
92640W        W65065  10.342  23.549   1.893
92641W        W65066  38.378  19.092   3.858
92642W        W65067  11.267  32.631  14.469
92643W        W65068  44.316   5.888   1.714
92644W        W65069  19.215   0.258   3.639
92645W        W65070  17.689  43.849   2.299
92646W        W65071  18.286  44.355  11.503
92647W        W65072  42.869  12.637  11.107
92648W        W65073  18.664  12.636   1.393
92649W        W65074  25.569  43.341  12.981
92650W        W65075  12.344  17.084  10.991
92651W        W65076  42.882  18.190  14.373
92652W        W65077  39.471  11.747   2.672
92653W        W65078   9.221  27.077   1.403
92654W        W65079  29.115  12.341   0.900
92655W        W65080   5.236  18.183  14.287
92656W        W65081  17.766  30.097  14.896
92657W        W65082  42.806  33.876  10.593
92658W        W65083  40.515  14.296  10.472
92659W        W65084  25.597  17.700  11.071
92660W        W65085  37.527  14.655   0.868
92661W        W65086  35.592   5.242   0.729
92662W        W65087  30.965  15.130   4.761
92663W        W65088  26.972  22.130   2.311
92664W        W65089  16.078  11.659   2.281
92665W        W65090   3.912  27.466  13.515
92666W        W65091  32.398  26.500   1.703
92667W        W65092  29.165  14.297   1.303
92668W        W65093  13.667  19.533   3.352
92669W        W65094  41.879  33.493   0.357
92670W        W65095  22.159  44.337  12.383
92671W        W65096  31.113   6.322   2.677
92672W        W65097  42.031  19.096  12.825
92673W        W65098  25.523   0.909  13.948
92674W        W65099  26.083   3.763   3.661
92675W        W65100  23.634  15.673   3.373
92676W        W65101   5.913  10.638  13.409
92677W        W65102  37.456  35.525   1.386
92678W        W65103  38.868  13.789   0.773
92679W        W65104   9.837  25.490   1.912
92680W        W65105   2.752  10.225  14.312
92681W        W65106   9.858   8.899  10.997
92682W        W65107  10.638   9.300   4.239
92683W        W65108   4.282   2.457  10.476
92684W        W65109  17.559   3.277  10.969
92685W        W65110   5.421  17.607   4.834
92686W        W65111  23.029   3.389  13.036
92687W        W65112  26.991  14.267  13.388
92688W        W65113   3.324  16.143   4.787
92689W        W65114  31.116   7.870  12.449
92690W        W65115  31.614  18.125  10.451
92691W        W65116   6.823  40.490  11.946
92692W        W65117   5.700   3.395   4.257
92693W        W65118  44.010   4.231  12.893
92694W        W65119  13.328   5.751  13.956
92695W        W65120   0.852  32.124  13.383
92696W        W65121  37.364   6.768  10.471
92697W        W65122  27.976  29.478   1.221
92698W        W65123  34.093  36.066   0.429
92699W        W65124  13.332  28.467  10.498
92700W        W65125   2.343   8.317   1.224
92701W        W65126  11.662   0.435   1.887
92702W        W65127   1.746  38.368   1.236
92703W        W65128  20.234  29.021   4.140
92704W        W65129  22.724   4.708  12.370
92705W        W65130  21.069  19.153  11.527
92706W        W65131  20.129  36.971   3.863
92707W        W65132  24.996  21.738  11.473
92708W        W65133  13.763  31.964  13.856
92709W        W65134  20.143  17.138  10.005
92710W        W65135  15.792  30.506  11.114
92711W        W65136  36.474  36.532  12.429
92712W        W65137  12.297  42.500   3.371
92713W        W65138  19.255   4.727  11.114
92714W        W65139  11.284  41.976   0.420
92715W        W65140  39.504   7.325  11.593
92716W        W65141  43.020  39.924  13.521
92717W        W65142  15.112  10.250   0.333
92718W        W65143  17.679  10.789  13.480
92719W        W65144  32.459  30.523   4.647
92720W        W65145   6.888  34.086   2.292
92721W        W65146  20.549  31.131   2.394
92722W        W65147  37.891   1.372  14.005
92723W        W65148   8.304   3.435   0.282
92724W        W65149  37.869  38.365   1.354
92725W        W65150  14.718   6.782   1.356
92726W        W65151   9.167  39.520  11.397
92727W        W65152  28.457  44.421   3.650
92728W        W65153  13.794   7.817   1.281
92729W        W65154  11.298  41.469  13.949
92730W        W65155  34.575  33.566   4.612
92731W        W65156  37.568  39.560   3.704
92732W        W65157  43.938  33.071  12.450
92733W        W65158  18.613  19.585   2.895
92734W        W65159  28.465   2.962   2.300
92735W        W65160   2.298  26.635   2.416
92736W        W65161  16.280  13.830   3.248
92737W        W65162  16.749  34.027   0.271
92738W        W65163  32.464   4.393   2.844
92739W        W65164  32.484  14.683   0.760
92740W        W65165  35.549  43.344   4.325
92741W        W65166  19.105  21.136  10.479
92742W        W65167  25.963  22.162  13.002
92743W        W65168   7.302  30.096   3.665
92744W        W65169  31.973  38.554   2.763
92745W        W65170  14.259   0.902   3.842
92746W        W65171   2.359  44.374   4.172
92747W        W65172  38.043   6.797   0.840
92748W        W65173  30.058  44.999   0.757
92749W        W65174   6.408   7.245  12.885
92750W        W65175   9.226  43.371  12.868
92751W        W65176  15.124  41.474  10.988
92752W        W65177  43.475  28.664  12.446
92753W        W65178   6.310   2.357   4.146
92754W        W65179  15.231   2.414  13.798
92755W        W65180  36.461  18.167   3.236
92756W        W65181  31.058  40.949   1.833
92757W        W65182  40.982  44.367  11.092
92758W        W65183  17.728   5.425   2.347
92759W        W65184  25.528  33.604  11.538
92760W        W65185  32.605  39.014   3.286
92761W        W65186  24.075  38.532  10.899
92762W        W65187  12.787  38.030   4.741
92763W        W65188   5.273  28.010   4.740
92764W        W65189  44.428  41.947  13.891
92765W        W65190  34.011   9.656  11.115
92766W        W65191  22.128  36.095  12.457
92767W        W65192  39.825   1.746  14.870
92768W        W65193  33.516  36.579  11.427
92769W        W65194  25.574  24.189  13.454
92770W        W65195   5.701   2.775  12.047
92771W        W65196   3.912   1.746  14.509
92772W        W65197   9.702  41.480  14.367
92773W        W65198  29.499  31.567  14.485
92774W        W65199  32.899  23.729  12.942
92775W        W65200  43.826   5.911  12.966
92776W        W65201  34.431  27.103  11.889
92777W        W65202  21.551   5.873  11.059
92778W        W65203  29.475  24.135   9.929
92779W        W65204  38.466  11.765   1.331
92780W        W65205  27.520  29.060   1.382
92781W        W65206  32.432   4.221  11.904
92782W        W65207  43.836  19.597  10.524
92783W        W65208   8.393   8.859  13.433
92784W        W65209   6.358  35.032  14.362
92785W        W65210  24.563  31.086  14.776
92786W        W65211  15.231  33.577  10.922
92787W        W65212  36.533  41.318   4.293
92788W        W65213   6.756   0.814   1.314
92789W        W65214   5.259   6.847  10.936
92790W        W65215   6.911  26.202   4.312
92791W        W65216  43.303  37.998   4.137
92792W        W65217  35.914   8.771   5.165
92793W        W65218   7.847  34.603   3.722
92794W        W65219  36.904  22.658   0.808
92795W        W65220  16.809  34.488  11.497
92796W        W65221  38.026   2.939   3.245
92797W        W65222   2.739  20.119  13.991
92798W        W65223  29.994  15.179  14.505
92799W        W65224  30.163  16.812  11.947
92800W        W65225  20.533  36.855   4.329
92801W        W65226  19.648  16.746   0.965
92802W        W65227  27.994  32.055   0.462
92803W        W65228  29.467  42.295   3.770
92804W        W65229  39.372   5.756   4.772
92805W        W65230   5.385  16.780   4.210
92806W        W65231   4.718  27.668   4.169
92807W        W65232  39.872  13.286  12.398
92808W        W65233  40.343  42.880  10.501
92809W        W65234  21.664   5.784   0.962
92810W        W65235   8.297  19.284   2.794
92811W        W65236  30.048  18.287   0.484
92812W        W65237  15.239  21.561   4.175
92813W        W65238   3.303   1.762  11.917
92814W        W65239   8.773  31.068  14.773
92815W        W65240  26.125  37.073  11.987
92816W        W65241  36.941  15.618   4.332
92817W        W65242  30.450   8.332  10.570
92818W        W65243  37.350  29.586   4.660
92819W        W65244   5.704  17.225   4.301
92820W        W65245  22.712  31.478  11.050
92821W        W65246   1.960  29.081   0.848
92822W        W65247   9.802  42.984  14.940
92823W        W65248  34.511  28.460   2.793
92824W        W65249  14.619   8.390   4.648
92825W        W65250  11.667   3.813   4.636
92826W        W65251  33.977  21.016   1.896
92827W        W65252   3.768  23.624  13.883
92828W        W65253  25.499  38.881   1.410
92829W        W65254  17.559  37.375  11.124
92830W        W65255   9.656   1.333  13.962
92831W        W65256  20.573   2.953   3.196
92832W        W65257   2.313  15.104   3.791
92833W        W65258  19.092  22.153   2.800
92834W        W65259   9.185   4.704   4.777
92835W        W65260  33.621  27.482  13.423
92836W        W65261  27.570   9.848  14.289
92837W        W65262  34.497   1.751  13.367
92838W        W65263  39.528   2.895  14.953
92839W        W65264  42.012  17.728  14.940
92840W        W65265  29.080  25.017   4.700
92841W        W65266  18.173  42.405   3.871
92842W        W65267  40.861  32.902   2.883
92843W        W65268  20.569  16.257   1.315
92844W        W65269  30.952  42.297   4.676
92845W        W65270  19.247  33.391   2.842
92846W        W65271  34.010  28.013   0.938
92847W        W65272  25.630  31.516  11.990
92848W        W65273   9.790  21.599   1.703
92849W        W65274  30.568  27.488  13.509
92850W        W65275  38.860  42.522  12.904
92851W        W65276  32.035  37.914  14.776
92852W        W65277  23.691   4.386   4.214
92853W        W65278   5.804  21.071  12.040
92854W        W65279  44.263   5.740  13.537
92855W        W65280  16.180  37.533   1.716
92856W        W65281   9.881  25.502  13.465
92857W        W65282  34.048  15.694   1.434
92858W        W65283   2.468  10.300   1.308
92859W        W65284  11.282   3.426   0.963
92860W        W65285  25.156  29.573   2.231
92861W        W65286  42.004  36.494   0.252
92862W        W65287  35.500  16.573  11.612
92863W        W65288   9.172  16.186   3.291
92864W        W65289  28.592  39.969  13.940
92865W        W65290  19.251  17.701  12.476
92866W        W65291  15.255  32.555  10.983
92867W        W65292  11.749  12.733  13.463
92868W        W65293  36.523  31.531  14.029
92869W        W65294   1.897   3.431   4.162
92870W        W65295  32.960  41.979   1.230
92871W        W65296  25.084  13.189   3.227
92872W        W65297   6.358  34.039  12.533
92873W        W65298  14.635   6.383  14.984
92874W        W65299   5.920  22.172  13.433
92875W        W65300   0.816  16.140   4.698
92876W        W65301   9.338  25.070   2.378
92877W        W65302  26.958  24.039  13.035
92878W        W65303  17.148  25.634   0.894
92879W        W65304  29.633  12.176   4.776
92880W        W65305  15.771  28.543   1.232
92881W        W65306  35.554  42.826   1.223
92882W        W65307  38.407  37.077   2.302
92883W        W65308   0.298  39.031  10.089
92884W        W65309  36.394  13.600  11.427
92885W        W65310  37.368  28.615  10.500
92886W        W65311  19.269  42.984  14.331
92887W        W65312  29.631  34.009  11.451
92888W        W65313  33.380   7.323  10.411
92889W        W65314  11.838  23.655   0.460
92890W        W65315   6.849  36.930   3.236
92891W        W65316   9.262  32.495  14.967
92892W        W65317  30.657  36.848   0.880
92893W        W65318  31.640  12.242   1.861
92894W        W65319  14.310   1.878  14.768
92895W        W65320   8.879  12.629  10.421
92896W        W65321  17.157   5.697   1.884
92897W        W65322  10.805  24.174  13.802
92898W        W65323  27.468  30.054  14.513
92899W        W65324  20.179  37.454   0.873
92900W        W65325  44.808  19.710   0.253
92901W        W65326   0.859  14.133   5.264
92902W        W65327  19.244  15.205   3.218
92903W        W65328  16.168  43.775   3.190
92904W        W65329  32.934  10.232  13.440
92905W        W65330  19.706   6.245   3.704
92906W        W65331   3.232  10.345   4.799
92907W        W65332  41.481   3.433   4.228
92908W        W65333  12.663  24.573  14.794
92909W        W65334  38.025  36.017   2.815
92910W        W65335  14.737  41.404   1.717
92911W        W65336  29.105  17.287   1.899
92912W        W65337  37.984  41.497   3.646
92913W        W65338  25.061  26.645   0.466
92914W        W65339   8.325  24.484   1.327
92915W        W65340  42.284  32.483   0.451
92916W        W65341   9.151  28.162   0.941
92917W        W65342   9.861  16.282  10.640
92918W        W65343  43.923  34.961  12.892
92919W        W65344  10.679  42.281   1.347
92920W        W65345  14.200  43.309   3.343
92921W        W65346  40.039  41.798  13.474
92922W        W65347  27.129   2.868  12.961
92923W        W65348   7.190  30.943  13.363
92924W        W65349   3.890  17.729  14.306
92925W        W65350  12.702  23.100  11.574
92926W        W65351  25.112  38.550   4.659
92927W        W65352  22.632   1.963   4.214
92928W        W65353  29.012  32.962   3.770
92929W        W65354  14.278  24.993   2.234
92930W        W65355   7.677  13.250  11.021
92931W        W65356  40.527  19.694   4.810
92932W        W65357  30.555  28.481  10.457
92933W        W65358  32.399   0.448   4.826
92934W        W65359  21.103   3.773  14.847
92935W        W65360  32.511  36.933  13.809
92936W        W65361  27.467  36.922  13.903
92937W        W65362   8.765  16.188   3.755
92938W        W65363  41.794  29.532  11.374
92939W        W65364  21.688   9.838   3.705
92940W        W65365  40.000  12.331  14.026
92941W        W65366  14.668  39.491  11.540
92942W        W65367  38.510  24.075   0.289
92943W        W65368  14.613   6.743   1.787
92944W        W65369  32.518  34.495   0.426
92945W        W65370   1.827  36.077  12.411
92946W        W65371  39.550  37.913   4.174
92947W        W65372  24.669  40.943   0.358
92948W        W65373   6.846  11.295   0.294
92949W        W65374  35.099  17.107   0.785
92950W        W65375  10.199  33.400  10.534
92951W        W65376  31.956  20.570  12.512
92952W        W65377  38.442  40.919   4.156
92953W        W65378  36.018  17.570  14.981
92954W        W65379  24.974  30.992   3.640
92955W        W65380  24.651  36.062  14.406
92956W        W65381   2.363  21.036  12.432
92957W        W65382  40.375  16.693   1.888
92958W        W65383  25.062  41.027  10.554
92959W        W65384  21.683  21.712  13.496
92960W        W65385  31.122  30.157   1.878
92961W        W65386  21.223   7.680   5.277
92962W        W65387   7.851  19.665  10.029
92963W        W65388  40.918  37.852   0.856
92964W        W65389  14.692  40.847   1.261
92965W        W65390  28.040   7.264   3.793
92966W        W65391   8.790  13.686  12.088
92967W        W65392  19.757  23.984   2.782
92968W        W65393   1.429   8.184   4.174
92969W        W65394  26.587  43.465   3.652
92970W        W65395   8.657  44.815   0.281
92971W        W65396  21.692  18.160  11.937
92972W        W65397  27.622   7.330   4.708
92973W        W65398  41.407  37.549   3.364
92974W        W65399   9.261   8.229   2.315
92975W        W65400  27.666  42.388   4.129
92976W        W65401   6.352   0.300  13.390
92977W        W65402  10.745  26.149   1.866
92978W        W65403  36.548  39.052  12.096
92979W        W65404   5.911  21.522   1.745
92980W        W65405   6.410  28.951   4.335
92981W        W65406  23.030  40.051  11.863
92982W        W65407  19.190  38.060  11.608
92983W        W65408  21.701  26.556   4.694
92984W        W65409   1.475  20.755  13.535
92985W        W65410  25.612  29.654   9.535
92986W        W65411  20.734  22.123   4.310
92987W        W65412  24.639  30.473   5.140
92988W        W65413  10.820  44.956  10.440
92989W        W65414  36.984  12.313  12.044
92990W        W65415  13.325  18.052   4.198
92991W        W65416  26.570  30.582   4.804
92992W        W65417  18.087  19.044   1.404
92993W        W65418  18.718  10.377   3.272
92994W        W65419  41.933   0.757  12.009
92995W        W65420  35.946  44.485   2.771
92996W        W65421   0.323  37.850  14.975
92997W        W65422  23.178  11.699   2.402
92998W        W65423   0.943  30.484  12.516
92999W        W65424  13.242  11.827   3.183
93000W        W65425  22.711   2.248   3.719
93001W        W65426  27.170   9.690   2.837
93002W        W65427  11.716  39.815  12.496
93003W        W65428   5.714   2.830   2.292
93004W        W65429  22.584  12.155   5.699
93005W        W65430  40.852  19.684  14.930
93006W        W65431  34.595   1.733   3.724
93007W        W65432  21.712   6.278  10.476
93008W        W65433   7.876  28.602  14.959
93009W        W65434  15.799  29.076  13.433
93010W        W65435  14.741  36.960   1.848
93011W        W65436  18.275  29.107   4.633
93012W        W65437   3.888   0.842   1.813
93013W        W65438  41.482  11.330  12.007
93014W        W65439  11.803  43.391  14.513
93015W        W65440  14.816   7.767   1.263
93016W        W65441  17.173  11.846   0.928
93017W        W65442  38.844  17.224   1.452
93018W        W65443  33.114  28.594  14.835
93019W        W65444  27.967  22.017   4.744
93020W        W65445   0.414  26.960   0.334
93021W        W65446  17.598   0.491  13.848
93022W        W65447   6.198   2.270  11.592
93023W        W65448  13.696   2.287   1.905
93024W        W65449   6.233  28.146  10.572
93025W        W65450  20.710  43.284  11.593
93026W        W65451  37.504  38.410   2.850
93027W        W65452  40.383  39.009   4.614
93028W        W65453  40.004  13.637  12.075
93029W        W65454  39.320  36.546   3.156
93030W        W65455  13.243  41.997  12.835
93031W        W65456  11.753  39.425   3.740
93032W        W65457  25.029  27.047  11.965
93033W        W65458  18.652  15.154   3.373
93034W        W65459  12.233  24.691  14.813
93035W        W65460  17.705   1.836   2.193
93036W        W65461  21.162  38.969   1.799
93037W        W65462  12.168   5.197  14.367
93038W        W65463  19.272   6.814   4.292
93039W        W65464  11.303   5.798  13.491
93040W        W65465   4.838   3.758  12.850
93041W        W65466   5.871  21.708   4.129
93042W        W65467  17.737   1.400  11.607
93043W        W65468  15.799  37.366   2.670
93044W        W65469  28.478   5.221  13.479
93045W        W65470  31.474  38.565   0.882
93046W        W65471   2.896  37.952   2.179
93047W        W65472  42.333   4.378  11.887
93048W        W65473   0.914  36.076   0.781
93049W        W65474  15.140  23.717  10.512
93050W        W65475  13.832  19.093  11.947
93051W        W65476  30.953  37.067  14.889
93052W        W65477  11.857  43.326   4.607
93053W        W65478  27.026  22.627   3.162
93054W        W65479  30.113  23.714   0.418
93055W        W65480  10.862  33.417   3.749
93056W        W65481  21.052  27.090   4.729
93057W        W65482  27.160  29.485   4.184
93058W        W65483   4.259  34.451   1.855
93059W        W65484  27.595  23.657   4.228
93060W        W65485  24.636   3.787  13.799
93061W        W65486  28.977   1.828  13.879
93062W        W65487  14.634  31.041   1.312
93063W        W65488   3.759  43.834  12.473
93064W        W65489  23.062   9.310   4.686
93065W        W65490  12.311   0.807   3.150
93066W        W65491  25.142  29.468   2.802
93067W        W65492  23.730  22.158  12.053
93068W        W65493   3.350  13.262   4.155
93069W        W65494   0.377   3.264   4.178
93070W        W65495  18.683  37.525  11.551
93071W        W65496  40.925   7.203   4.200
93072W        W65497  37.544  15.243  14.448
93073W        W65498  12.194  14.114  14.790
93074W        W65499  42.500  28.587   1.401
93075W        W65500  28.496  28.439  13.921
93076W        W65501  37.912  37.880   1.210
93077W        W65502  13.787  40.368  12.356
93078W        W65503   2.263  13.293  13.529
93079W        W65504  39.047  34.460   4.151
93080W        W65505   6.415  27.956   4.655
93081W        W65506  28.955  39.895  14.930
93082W        W65507   5.201  20.246  13.854
93083W        W65508  22.044  41.341  10.422
93084W        W65509  36.436  24.516   1.332
93085W        W65510   8.183  23.188   1.724
93086W        W65511   1.951   0.945  10.577
93087W        W65512  38.468  33.470   0.415
93088W        W65513  19.256  36.976  10.481
93089W        W65514  22.526   9.774   4.238
93090W        W65515   0.361  26.545  12.093
93091W        W65516  37.534  36.870  10.509
93092W        W65517   4.746  23.044   0.851
93093W        W65518   3.232  36.977   1.384
93094W        W65519   6.265   7.228  14.363
93095W        W65520  36.378  41.005   4.147
93096W        W65521  17.168   4.406  13.971
93097W        W65522   7.334  15.580  11.496
93098W        W65523  12.785  13.686  12.339
93099W        W65524   0.281  25.479   4.805
93100W        W65525  36.478  44.780   1.346
93101W        W65526  31.112  14.238  14.943
93102W        W65527  37.406  26.154   4.217
93103W        W65528  38.471   2.933   0.881
93104W        W65529  42.381  20.605   0.396
93105W        W65530  30.951  20.631   2.277
93106W        W65531  39.357  31.044   3.226
93107W        W65532  12.336  25.676  12.384
93108W        W65533  30.134   5.799  11.377
93109W        W65534  26.011   9.834   2.849
93110W        W65535  31.937  28.986  12.825
93111W        W65536  28.170  42.334   4.646
93112W        W65537   4.717  15.693  11.964
93113W        W65538  35.057  11.193   4.751
93114W        W65539  22.551   8.804  11.385
93115W        W65540  23.615  31.583  12.833
93116W        W65541  33.994  13.686  14.338
93117W        W65542   0.903  28.640  11.014
93118W        W65543   4.303  27.463  10.985
93119W        W65544  18.622  20.097   4.793
93120W        W65545  11.622  31.003   3.193
93121W        W65546  24.082  30.123   2.840
93122W        W65547  10.868  12.824   4.249
93123W        W65548  18.741  30.641   2.769
93124W        W65549  19.744   3.832   1.750
93125W        W65550  21.094  32.046   4.239
93126W        W65551  43.893  23.124   0.870
93127W        W65552   3.291  23.610   4.768
93128W        W65553  16.123  21.725   0.267
93129W        W65554   4.934  44.337   4.615
93130W        W65555  32.475  20.726   4.762
93131W        W65556  29.574  22.136   3.247
93132W        W65557   6.811  23.624   3.185
93133W        W65558  13.662   3.400   5.310
93134W        W65559   8.853  12.765   1.929
93135W        W65560  29.945   8.312  13.978
93136W        W65561  32.999  31.453   2.328
93137W        W65562   5.689  35.998   4.733
93138W        W65563  29.431  38.850  10.971
93139W        W65564  11.250  24.198   3.284
93140W        W65565  10.242  10.322  13.503
93141W        W65566  42.892   4.387   4.669
93142W        W65567   7.889  36.875  13.322
93143W        W65568  14.635  32.568   1.303
93144W        W65569  16.643  42.375  11.404
93145W        W65570  35.509  29.980  11.415
93146W        W65571   1.392  36.045   3.667
93147W        W65572   1.890  36.846  12.889
93148W        W65573   3.925  18.221  12.402
93149W        W65574   2.834  38.436   3.295
93150W        W65575  35.030   8.826  13.545
93151W        W65576  37.073  39.445  11.528
93152W        W65577  33.430  34.608   2.252
93153W        W65578  36.358   3.828  14.426
93154W        W65579   8.365  22.156  13.051
93155W        W65580   0.333  33.064  13.390
93156W        W65581  32.429  25.645   1.912
93157W        W65582   6.221   1.367   1.218
93158W        W65583   8.280  19.725   3.278
93159W        W65584  33.014  22.569   0.369
93160W        W65585  44.945   3.249  11.893
93161W        W65586  25.481   8.395  10.492
93162W        W65587  21.579  36.044   2.311
93163W        W65588  24.158  21.164  10.900
93164W        W65589  10.850   0.450   1.742
93165W        W65590  19.224   8.407   2.343
93166W        W65591  25.539  17.589  12.549
93167W        W65592  24.201  42.427   4.248
93168W        W65593   1.874  17.700   2.830
93169W        W65594   6.349  24.639  13.369
93170W        W65595  39.324   5.795   0.881
93171W        W65596  14.633  29.924  14.418
93172W        W65597   2.780  41.357   4.339
93173W        W65598  36.051   1.749  13.425
93174W        W65599  37.952  19.746  10.414
93175W        W65600  10.230  41.536   2.305
93176W        W65601  22.035  28.991   2.278
93177W        W65602  28.949   7.257   0.928
93178W        W65603  32.461  33.944   3.722
93179W        W65604  31.627  28.049   0.886
93180W        W65605  29.489   4.211  13.975
93181W        W65606  34.995  17.722  14.403
93182W        W65607  24.590  44.491   3.358
93183W        W65608  43.770  28.480   2.736
93184W        W65609   6.220  44.404  10.430
93185W        W65610   4.432  19.043  12.951
93186W        W65611  39.526  37.857  12.482
93187W        W65612  36.366  42.404  14.795
93188W        W65613  34.027  15.284   0.251
93189W        W65614   6.286  16.648   0.432
93190W        W65615  44.855  25.999  11.022
93191W        W65616  30.977  18.295  12.528
93192W        W65617   2.257  30.556  12.096
93193W        W65618  24.023  23.067   3.777
93194W        W65619  42.945   5.862   3.151
93195W        W65620   1.880  23.505   2.254
93196W        W65621  19.055  43.890   3.714
93197W        W65622  44.892  41.791   2.321
93198W        W65623  31.458  35.363   2.878
93199W        W65624   9.748  30.081   1.877
93200W        W65625  24.699  32.541   4.729
93201W        W65626  29.965  17.178  14.959
93202W        W65627  31.043  14.595  12.450
93203W        W65628  30.033  36.592   1.888
93204W        W65629  35.917   5.717   5.301
93205W        W65630  22.662  28.996   4.762
93206W        W65631  30.548  34.538  11.942
93207W        W65632  29.498  42.977   0.437
93208W        W65633  40.853   1.776  12.433
93209W        W65634  40.943  12.216   0.311
93210W        W65635  32.068  20.741  13.425
93211W        W65636  42.308  14.752   3.643
93212W        W65637  20.708   4.303   2.389
93213W        W65638  21.537   1.978  12.097
93214W        W65639  44.301  22.037  11.108
93215W        W65640   1.964  43.787   3.233
93216W        W65641  27.022  36.391   1.863
93217W        W65642  13.738  37.516   1.298
93218W        W65643  12.214  12.755   4.711
93219W        W65644  14.594   7.303  10.948
93220W        W65645   9.831   9.202  14.900
93221W        W65646   9.747  22.244  14.506
93222W        W65647   7.865  19.768   4.190
93223W        W65648  43.452  35.053  10.122
93224W        W65649  35.102   4.733   2.795
93225W        W65650  11.821  21.037   4.318
93226W        W65651  13.815  32.897   2.849
93227W        W65652   0.956  40.875   2.759
93228W        W65653  24.023  24.172   2.418
93229W        W65654  11.144  19.165  14.330
93230W        W65655  33.440  23.190  13.540
93231W        W65656  19.160  40.960  11.449
93232W        W65657   0.941   4.944  12.910
93233W        W65658   2.914  44.911  14.351
93234W        W65659   3.376   4.717  12.889
93235W        W65660   5.928  40.908   4.195
93236W        W65661  12.699  19.086   0.244
93237W        W65662   9.729  40.962   3.353
93238W        W65663  23.095  44.790  13.982
93239W        W65664  43.296  44.982  10.571
93240W        W65665   0.454   3.455   1.737
93241W        W65666  35.414  42.322   2.889
93242W        W65667  40.323  23.986  13.486
93243W        W65668  44.899  13.727   2.295
93244W        W65669   0.457  22.565   4.696
93245W        W65670  11.829   3.273  14.891
93246W        W65671  39.915  36.004   1.715
93247W        W65672   3.334  34.547  13.364
93248W        W65673   3.797  37.433   1.733
93249W        W65674   3.883  24.984   1.867
93250W        W65675   7.732   6.798   2.832
93251W        W65676  27.533   4.919   4.812
93252W        W65677  11.792  38.907   4.786
93253W        W65678  30.422  14.777   0.914
93254W        W65679  28.564  29.553  12.843
93255W        W65680   8.383  33.511  10.473
93256W        W65681  14.273  30.463   3.190
93257W        W65682  19.261  35.947   3.312
93258W        W65683  19.041  35.383   3.344
93259W        W65684  32.091  31.449  13.063
93260W        W65685   4.216  38.426   1.882
93261W        W65686   0.874   6.395   3.657
93262W        W65687  27.954  38.388  12.919
93263W        W65688  25.561  30.484   1.713
93264W        W65689  12.249  41.363   2.246
93265W        W65690  42.451  14.274  14.483
93266W        W65691  41.011  36.578  11.550
93267W        W65692  40.799  36.907   3.174
93268W        W65693   9.235  16.104   1.355
93269W        W65694  29.517  12.831   3.203
93270W        W65695  43.858  21.045  10.023
93271W        W65696  33.918  16.294  11.943
93272W        W65697   6.783   3.790  14.370
93273W        W65698  18.289  22.194  12.487
93274W        W65699  26.651  31.568  12.907
93275W        W65700   8.316  22.681   1.277
93276W        W65701   5.337  41.816  12.056
93277W        W65702   6.232  38.537  11.493
93278W        W65703  18.654   2.417  13.453
93279W        W65704  20.595  15.172  12.406
93280W        W65705   0.390   8.811   2.250
93281W        W65706  13.287  15.142  14.802
93282W        W65707   5.209  10.647  10.560
93283W        W65708  38.355  24.708   4.655
93284W        W65709  30.030  19.215   4.187
93285W        W65710  28.104  30.459   1.351
93286W        W65711  15.130  15.621   1.336
93287W        W65712   8.800  25.065   1.759
93288W        W65713  39.471  18.556   1.265
93289W        W65714   5.287  40.518  14.937
93290W        W65715  21.574  39.055   0.431
93291W        W65716  37.075  18.681   2.763
93292W        W65717  28.010  42.903  14.928
93293W        W65718  15.820  23.191   4.764
93294W        W65719   4.327  13.261  13.347
93295W        W65720   5.752  32.927   4.695
93296W        W65721   5.407  36.856   1.722
93297W        W65722  33.513  10.829   3.681
93298W        W65723  24.206  37.046  12.915
93299W        W65724  16.572  18.225  10.624
93300W        W65725  17.604  26.983  10.593
93301W        W65726  10.820  11.747   0.733
93302W        W65727  36.005  12.131   3.363
93303W        W65728   5.836  18.095  14.414
93304W        W65729  22.664  26.997   3.235
93305W        W65730  44.448   6.758  13.898
93306W        W65731  41.924  39.857  14.309
93307W        W65732  30.993  33.948   0.448
93308W        W65733  36.855  12.196  10.434
93309W        W65734  36.380  21.140   9.938
93310W        W65735  11.804  29.615   0.767
93311W        W65736  12.679  19.559  10.458
93312W        W65737  21.602  37.460  11.437
93313W        W65738  36.535  34.546   3.736
93314W        W65739  44.462  14.826   3.165
93315W        W65740   8.188  35.023  14.821
93316W        W65741  27.192  15.774   0.906
93317W        W65742   3.375  17.738   4.233
93318W        W65743   4.268  38.361  14.966
93319W        W65744  35.601   8.864   5.103
93320W        W65745  25.682  29.030   5.095
93321W        W65746   4.790  40.884   1.359
93322W        W65747   6.810  14.675   1.845
93323W        W65748  19.250  13.303   2.873
93324W        W65749  14.232  35.027   2.872
93325W        W65750  38.996  41.440   2.805
93326W        W65751  32.996   7.329  13.490
93327W        W65752  30.061   3.441  11.537
93328W        W65753   2.817  44.976  10.475
93329W        W65754  10.246  15.268  14.400
93330W        W65755  31.928  33.617  10.485
93331W        W65756   7.703  27.679   4.714
93332W        W65757  37.083   0.492  10.934
93333W        W65758  26.649  12.682  13.814
93334W        W65759   0.915  33.487  10.592
93335W        W65760  20.698  23.124  11.004
93336W        W65761  34.040  22.658  11.394
93337W        W65762  13.250  10.214  12.339
93338W        W65763   4.409  14.672  13.000
93339W        W65764   1.761  22.034   1.297
93340W        W65765  28.074   7.274   1.230
93341W        W65766  33.383   0.407  13.998
93342W        W65767  26.701   7.332   3.310
93343W        W65768  38.570  28.568  12.348
93344W        W65769  42.337  24.029  13.865
93345W        W65770  29.514  38.060  13.050
93346W        W65771  28.090  30.975  12.956
93347W        W65772  30.967  13.207   4.311
93348W        W65773  17.263  21.118   2.265
93349W        W65774  27.580  23.111   4.679
93350W        W65775  27.681   3.721  14.024
93351W        W65776  15.621  37.398   2.333
93352W        W65777   1.434  41.896  11.380
93353W        W65778  28.643  35.899  10.571
93354W        W65779  19.106  29.611   2.319
93355W        W65780  18.271  15.230  13.950
93356W        W65781  21.725  32.433   0.955
93357W        W65782  25.029  34.049   2.361
93358W        W65783  37.527   9.661   0.786
93359W        W65784  37.384  15.262  12.857
93360W        W65785   4.900   6.381  10.481
93361W        W65786  13.212  13.844   1.278
93362W        W65787  10.795  37.511   3.264
93363W        W65788   3.318  24.529   4.247
93364W        W65789  14.184   4.435   9.998
93365W        W65790  37.374  13.713  11.980
93366W        W65791  33.064  44.470  11.536
93367W        W65792   6.191  43.479   2.225
93368W        W65793  15.234   7.813  14.996
93369W        W65794  43.775  37.554   1.784
93370W        W65795  44.991   0.484  13.993
93371W        W65796   3.859  18.168   3.801
93372W        W65797   4.305  19.574  11.989
93373W        W65798  30.037  24.997  12.476
93374W        W65799  39.444  19.103  10.552
93375W        W65800  33.048   3.362  11.904
93376W        W65801   2.267  17.792  13.807
93377W        W65802  33.470  23.159   1.851
93378W        W65803  24.572  36.884   1.325
93379W        W65804   2.751  34.041   2.785
93380W        W65805  18.194   2.377   1.284
93381W        W65806   1.929  17.227   4.617
93382W        W65807  26.619   2.935   2.782
93383W        W65808  17.790  36.067   3.291
93384W        W65809  42.822   3.856   2.900
93385W        W65810  44.261  29.969   0.456
93386W        W65811   8.816  22.227  10.550
93387W        W65812  41.882  40.979  14.881
93388W        W65813  17.596   9.194   3.304
93389W        W65814   2.828  29.009   4.115
93390W        W65815  27.504  21.705  12.834
93391W        W65816  27.468  14.652  13.385
93392W        W65817   6.775   4.273  13.993
93393W        W65818   3.936  31.086  13.355
93394W        W65819  14.813  15.296   4.221
93395W        W65820   6.680  11.736   0.932
93396W        W65821  18.557  27.976   3.178
93397W        W65822   9.682  10.299   1.789
93398W        W65823  18.564   9.660   4.637
93399W        W65824  19.083  18.220  11.942
93400W        W65825  31.093  25.138   2.726
93401W        W65826  29.137  29.023   2.281
93402W        W65827  39.516   2.354  12.422
93403W        W65828  12.753  18.055  14.507
93404W        W65829  32.054   1.733  11.573
93405W        W65830  43.446   2.890   0.944
93406W        W65831  27.671  37.936   2.760
93407W        W65832  14.655  25.614   3.220
93408W        W65833  13.665  40.823  13.495
93409W        W65834  31.936   8.838   5.303
93410W        W65835  32.562  13.189  14.847
93411W        W65836   7.768   2.388  14.789
93412W        W65837  41.866   9.320   0.282
93413W        W65838  36.923   1.790   4.688
93414W        W65839  28.655   0.394  12.941
93415W        W65840  18.754  44.930   2.886
93416W        W65841  28.005  24.186  13.448
93417W        W65842  24.067  18.189  13.402
93418W        W65843  15.148  30.095   4.690
93419W        W65844  25.026   2.780  11.391
93420W        W65845  28.494  28.125  14.357
93421W        W65846  22.250  12.244   1.409
93422W        W65847   6.819  27.098   4.814
93423W        W65848   7.387  42.996  12.990
93424W        W65849  29.485   8.806  10.016
93425W        W65850  15.720   2.333  14.822
93426W        W65851   2.951  11.761  12.348
93427W        W65852   3.798  42.507  14.466
93428W        W65853  11.670   2.361  14.991
93429W        W65854  20.589  37.547   2.901
93430W        W65855  32.617   2.336   3.301
93431W        W65856   1.442  33.458  14.370
93432W        W65857  21.161   9.783   4.341
93433W        W65858  21.227  20.195  11.064
93434W        W65859  24.005  22.722  14.792
93435W        W65860  44.279  19.593   5.207
93436W        W65861  23.553  27.661  12.533
93437W        W65862  35.929  40.879  13.012
93438W        W65863   9.253  21.077  10.154
93439W        W65864  29.562   3.946   3.827
93440W        W65865  12.735  32.615   1.932
93441W        W65866  24.545  18.552   3.223
93442W        W65867   6.313  31.441   4.341
93443W        W65868   8.866   5.803   4.347
93444W        W65869   5.366  37.932   1.329
93445W        W65870  30.652  44.995   1.355
93446W        W65871  29.130  16.798  12.927
93447W        W65872  12.292  14.781   2.267
93448W        W65873   7.217  25.487  12.927
93449W        W65874  38.853  41.336   0.809
93450W        W65875  26.005  26.638  14.982
93451W        W65876  38.505  24.037   2.687
93452W        W65877  39.861   6.744   4.121
93453W        W65878  26.988  14.163   0.359
93454W        W65879  17.577  18.583   0.951
93455W        W65880  15.613  41.962  13.871
93456W        W65881  16.232   3.727   0.419
93457W        W65882   2.246  39.556  10.926
93458W        W65883   5.712  11.841  12.515
93459W        W65884   2.298  22.608  12.083
93460W        W65885  28.180  28.581  13.866
93461W        W65886  30.656  27.006   2.266
93462W        W65887  11.736  27.645   3.328
93463W        W65888  31.934  18.183  10.566
93464W        W65889  38.002  32.419   3.663
93465W        W65890  30.493  29.450   0.326
93466W        W65891  16.271  34.053   3.701
93467W        W65892  44.341  44.757  11.393
93468W        W65893  23.002   5.275  14.848
93469W        W65894  21.680  21.168   2.313
93470W        W65895   7.407  33.487   3.217
93471W        W65896  44.913  14.275  11.442
93472W        W65897  38.391   7.176   5.083
93473W        W65898  36.416  23.664   2.771
93474W        W65899  16.177  42.928  10.046
93475W        W65900  34.080  37.358  12.850
93476W        W65901  25.985  31.476   2.673
93477W        W65902  20.102  28.555   1.440
93478W        W65903  30.960   8.842  10.447
93479W        W65904  21.259  22.523  14.793
93480W        W65905  31.014  23.558  14.940
93481W        W65906  30.058   3.314  12.077
93482W        W65907   5.788  22.074  13.962
93483W        W65908  16.628   6.750  12.340
93484W        W65909   7.294  44.851  11.431
93485W        W65910   7.413  17.711  14.503
93486W        W65911   3.750  11.289   2.863
93487W        W65912  29.466  14.184  14.382
93488W        W65913   6.324  32.537  14.407
93489W        W65914  37.936  38.841  10.635
93490W        W65915   5.232  38.970  10.119
93491W        W65916  40.894  21.717   1.210
93492W        W65917  11.164  17.663   1.782
93493W        W65918  13.676  43.370   2.848
93494W        W65919  28.162   5.274   4.259
93495W        W65920   4.252  19.611   2.341
93496W        W65921  25.039  37.848   0.397
93497W        W65922  15.652   1.367   0.934
93498W        W65923  23.702   7.750  14.503
93499W        W65924  10.238  26.978   1.217
93500W        W65925   4.942  27.508   0.465
93501W        W65926  37.987  23.073  13.369
93502W        W65927  17.271   7.906  12.344
93503W        W65928  41.394  37.536   1.316
93504W        W65929  37.408  20.567  13.321
93505W        W65930  39.922  11.225   0.930
93506W        W65931  42.877   4.766  13.992
93507W        W65932  35.895   3.430   0.795
93508W        W65933   7.400  18.753   4.336
93509W        W65934  21.749  33.405  10.901
93510W        W65935   8.815  44.351   3.830
93511W        W65936  22.515  35.450   3.163
93512W        W65937  29.126  37.849  11.446
93513W        W65938  11.200  30.086  14.449
93514W        W65939  38.436   9.282   2.278
93515W        W65940   8.791  23.231  13.364
93516W        W65941  36.373  24.994  13.845
93517W        W65942   9.758  12.264   2.241
93518W        W65943  26.672   8.210  12.516
93519W        W65944  34.969   1.882  10.619
93520W        W65945  43.998  30.974   0.248
93521W        W65946  40.388  26.566  10.043
93522W        W65947  11.342  12.745   3.253
93523W        W65948   0.854   8.663  14.479
93524W        W65949  10.825  43.403  14.934
93525W        W65950   4.394  21.666   3.854
93526W        W65951  22.060  29.548  12.425
93527W        W65952   4.759  20.558  11.915
93528W        W65953  16.591  18.193   1.321
93529W        W65954   9.883  18.082   2.863
93530W        W65955   1.784  37.966   4.761
93531W        W65956  20.606  13.152  10.975
93532W        W65957  42.333  36.958   2.215
93533W        W65958  21.065  38.832  11.888
93534W        W65959   1.350  23.993  11.568
93535W        W65960   4.698  42.307   4.810
93536W        W65961  35.445  39.380   3.779
93537W        W65962  16.756   2.955   4.783
93538W        W65963  31.113   2.322   0.947
93539W        W65964  36.356  13.302   4.282
93540W        W65965   3.853  10.362   9.986
93541W        W65966  35.441  41.375   1.729
93542W        W65967  35.463  18.277   1.896
93543W        W65968  22.227  14.187   4.795
93544W        W65969  25.214  33.972   3.222
93545W        W65970   3.264  26.181  10.963
93546W        W65971  11.764  11.127   3.651
93547W        W65972  26.090  20.099   4.167
93548W        W65973  13.772  16.072   3.852
93549W        W65974   6.754  26.698   0.771
93550W        W65975  35.015  28.600  12.384
93551W        W65976  40.894  10.690   2.317
93552W        W65977  20.071  29.057   5.248
93553W        W65978  16.276  12.697  13.966
93554W        W65979  12.645   2.450   4.252
93555W        W65980  33.381  42.350  14.427
93556W        W65981  42.799   2.834   0.962
93557W        W65982  16.646  25.121   3.671
93558W        W65983  21.708  19.624   4.235
93559W        W65984   7.695  24.599  13.455
93560W        W65985  13.757  26.026   1.696
93561W        W65986  21.583   4.367  14.905
93562W        W65987  12.281   6.237  14.314
93563W        W65988   0.828  19.081  10.575
93564W        W65989   0.848  43.303   4.176
93565W        W65990  33.112  12.832   0.479
93566W        W65991  23.673  34.870   1.744
93567W        W65992   8.280  26.641   4.257
93568W        W65993   6.821  24.061  13.321
93569W        W65994   2.724  21.560  10.985
93570W        W65995  16.665   3.346  12.482
93571W        W65996  16.129  27.150   1.866
93572W        W65997  12.245  29.023   2.824
93573W        W65998   0.414  36.445  11.856
93574W        W65999   8.773   9.671   3.270
93575W        W66000  23.696   5.929   3.855
93576W        W66001  38.464  21.149   2.363
93577W        W66002   4.938  42.460  14.794
93578W        W66003   2.271  24.634  14.450
93579W        W66004   5.929  34.029  12.845
93580W        W66005   4.395  33.621   2.191
93581W        W66006   1.427  40.366  14.003
93582W        W66007  14.822   7.785   0.379
93583W        W66008   3.849  15.202  14.287
93584W        W66009  23.688  29.117  13.934
93585W        W66010  28.007   3.285  12.997
93586W        W66011  40.395  26.975   3.751
93587W        W66012   2.386  14.140   4.826
93588W        W66013   9.390  22.073   3.770
93589W        W66014  17.677   5.196  13.808
93590W        W66015   2.796  16.806   0.966
93591W        W66016  16.801   9.359  12.445
93592W        W66017  34.098  37.907   1.899
93593W        W66018   4.923  11.837  14.944
93594W        W66019  29.532   1.962   3.723
93595W        W66020  12.659  20.562  11.994
93596W        W66021   2.921  29.440  12.003
93597W        W66022  42.794  21.728   9.992
93598W        W66023  22.124  42.032   0.955
93599W        W66024  42.799  32.553   4.280
93600W        W66025  34.071  31.429  10.436
93601W        W66026   1.795   6.713  13.454
93602W        W66027  17.675  44.308  12.017
93603W        W66028  33.083  11.356  11.493
93604W        W66029   0.765  13.201   2.370
93605W        W66030  37.476  29.056  11.523
93606W        W66031  38.036  42.873   4.720
93607W        W66032   6.241  30.966  14.371
93608W        W66033  27.079  36.448  10.626
93609W        W66034  10.804  24.666   3.797
93610W        W66035   7.683  40.486  14.434
93611W        W66036  41.484  13.183  12.420
93612W        W66037  36.088  10.374  11.583
93613W        W66038  40.999  27.180  11.594
93614W        W66039  39.935  12.340   4.291
93615W        W66040  15.681  16.777   1.924
93616W        W66041  29.994  34.090  13.316
93617W        W66042  41.805  27.940   4.711
93618W        W66043  38.351  10.347   0.369
93619W        W66044  44.916   4.311  10.641
93620W        W66045  36.972  44.422  12.838
93621W        W66046  37.352   4.920   2.267
93622W        W66047  32.573  18.227   4.657
93623W        W66048  15.145  16.586   2.701
93624W        W66049  28.456  25.492   3.284
93625W        W66050  18.067  29.550  10.480
93626W        W66051  41.957  22.091  12.492
93627W        W66052  35.982  35.920  13.852
93628W        W66053  23.169  24.483  12.902
93629W        W66054  24.704  40.904  12.920
93630W        W66055  14.675  36.521  14.399
93631W        W66056  42.917  18.677  13.391
93632W        W66057  36.513   9.371   0.242
93633W        W66058  38.491  41.470   1.858
93634W        W66059   8.190  29.514   2.895
93635W        W66060  14.607  16.290   1.442
93636W        W66061  20.154  34.407   3.328
93637W        W66062  18.565   9.176  14.334
93638W        W66063  22.121  16.580  12.396
93639W        W66064   7.176   6.298  10.487
93640W        W66065  21.034  10.272  12.517
93641W        W66066  31.110  37.021   1.292
93642W        W66067   5.802  30.106  11.043
93643W        W66068  42.427   7.274   1.384
93644W        W66069   1.378   4.421  10.453
93645W        W66070  37.425  42.991   1.214
93646W        W66071  20.125   9.323  11.026
93647W        W66072  27.046  44.872   3.369
93648W        W66073  19.176  42.981  11.378
93649W        W66074  16.663   5.281   1.436
93650W        W66075  26.584   4.883   4.339
93651W        W66076   5.851  12.191  14.431
93652W        W66077   4.312  26.093  12.995
93653W        W66078  30.629   3.926  14.316
93654W        W66079   0.923  10.665  10.925
93655W        W66080  34.550  21.212  12.360
93656W        W66081  37.507   9.269  14.022
93657W        W66082   1.324  24.201   1.810
93658W        W66083  27.006  15.702   3.225
93659W        W66084   5.273   3.292   3.714
93660W        W66085  13.644   4.255  10.108
93661W        W66086  41.846  36.070  11.884
93662W        W66087  20.701  24.699   4.807
93663W        W66088  13.349  26.056  11.462
93664W        W66089   4.331  20.636   1.847
93665W        W66090   0.371  34.435   5.740
93666W        W66091   2.254  26.516  11.868
93667W        W66092  32.520  20.080  11.477
93668W        W66093  17.777  28.494   3.379
93669W        W66094  11.355  37.979   3.734
93670W        W66095  27.454  20.689   1.808
93671W        W66096   3.802  12.190   4.306
93672W        W66097  34.902  23.007  11.382
93673W        W66098  27.536  33.993  12.034
93674W        W66099   0.432   2.886  14.409
93675W        W66100  36.413   8.888   9.655
93676W        W66101  29.045  24.212  13.547
93677W        W66102  33.047  39.328  12.961
93678W        W66103  16.103   9.804  12.482
93679W        W66104   4.709   6.186  13.425
93680W        W66105  21.123   8.296  10.979
93681W        W66106  39.510   5.796   2.225
93682W        W66107  33.127  20.616  13.799
93683W        W66108  44.902  13.798   0.897
93684W        W66109  24.997  22.248  13.372
93685W        W66110  36.945  37.884  12.376
93686W        W66111  44.495   0.804   0.325
93687W        W66112  44.960  13.620   1.877
93688W        W66113  35.991  28.524   1.927
93689W        W66114   4.338  26.685   2.246
93690W        W66115   9.342  18.085  10.478
93691W        W66116  19.724  37.435  10.500
93692W        W66117  38.945   9.391   3.756
93693W        W66118  12.687  30.484   3.341
93694W        W66119  19.701  32.044   2.335
93695W        W66120   1.864  28.096   1.786
93696W        W66121  38.333  34.380   4.202
93697W        W66122  28.496  39.824   5.150
93698W        W66123   5.219   9.219  11.428
93699W        W66124  23.102   0.365  11.485
93700W        W66125  22.691  29.532   5.244
93701W        W66126  15.687  22.180   0.388
93702W        W66127  11.196   2.746  13.383
93703W        W66128  28.638  27.154  13.319
93704W        W66129   8.788  41.936  13.433
93705W        W66130  43.956  26.152   3.322
93706W        W66131  34.968  44.387   4.708
93707W        W66132  34.417  37.894  12.433
93708W        W66133  18.102   4.817  10.889
93709W        W66134  42.440  29.973  12.830
93710W        W66135  20.091  37.978  12.993
93711W        W66136  15.728   6.730   0.936
93712W        W66137  10.702  25.123  12.074
93713W        W66138  44.297  39.431  14.913
93714W        W66139  20.695   5.334  11.894
93715W        W66140  14.314  20.536  14.760
93716W        W66141  40.003   8.771   0.965
93717W        W66142  20.692  28.972  13.325
93718W        W66143  38.491  35.101   3.192
93719W        W66144  31.981  30.926  10.408
93720W        W66145  17.725  13.252   2.902
93721W        W66146  37.946  21.048   0.898
93722W        W66147  41.303  38.471  10.618
93723W        W66148   0.794  36.841   3.198
93724W        W66149  38.367  32.487  13.846
93725W        W66150  33.407  20.170   4.232
93726W        W66151  33.574  22.086  10.538
93727W        W66152  16.128  42.342   3.680
93728W        W66153  40.942  31.624  11.035
93729W        W66154  24.628  30.053   2.662
93730W        W66155  24.050  44.963   0.954
93731W        W66156   7.171  27.536   3.822
93732W        W66157  10.318  25.568  14.856
93733W        W66158  40.855   6.193  12.985
93734W        W66159   3.387  14.654   1.272
93735W        W66160  22.236  39.487  13.512
93736W        W66161  25.551  24.031   2.771
93737W        W66162  17.202   8.683   9.971
93738W        W66163  19.246   0.821   3.324
93739W        W66164   3.771  35.373   2.766
93740W        W66165  25.124  27.030   4.148
93741W        W66166  19.158  19.627  11.540
93742W        W66167   9.705  41.369  12.373
93743W        W66168  23.619  37.528   1.766
93744W        W66169  39.839  32.017   3.813
93745W        W66170  39.319  33.419   3.750
93746W        W66171  39.328  14.795  11.037
93747W        W66172  36.901  21.179   3.846
93748W        W66173  42.882  34.013  10.136
93749W        W66174  16.709  20.768   2.764
93750W        W66175  28.090  15.809   2.370
93751W        W66176   5.712  28.078   2.792
93752W        W66177  13.250  11.306   3.751
93753W        W66178  15.772  41.881  11.483
93754W        W66179  22.250  11.145   2.665
93755W        W66180  10.314  31.969  12.549
93756W        W66181  26.575  43.949   4.315
93757W        W66182   0.755  31.434   5.117
93758W        W66183  31.144  22.549  11.431
93759W        W66184   4.418  15.190   4.666
93760W        W66185  28.595   2.463   0.891
93761W        W66186  27.019  28.029  10.982
93762W        W66187  34.541  32.050  11.043
93763W        W66188  20.696  39.329  10.505
93764W        W66189   8.209  22.505   3.244
93765W        W66190  10.750  37.499   1.306
93766W        W66191  19.668  34.997   2.296
93767W        W66192  26.019  43.299  12.053
93768W        W66193  33.076   9.718   3.761
93769W        W66194  34.115  38.483  13.000
93770W        W66195  33.957  34.882   3.221
93771W        W66196  19.154  10.690  12.002
93772W        W66197  23.031  34.927  13.923
93773W        W66198  12.224  19.722   4.653
93774W        W66199  37.895   0.461  12.455
93775W        W66200  23.180  20.079  10.602
93776W        W66201  26.065  28.450   3.735
93777W        W66202  40.305  44.419   4.169
93778W        W66203  36.042  22.058   0.873
93779W        W66204  25.536   7.251  12.452
93780W        W66205  25.516   7.789  13.496
93781W        W66206  38.378  39.550   3.703
93782W        W66207  33.516   0.366  12.377
93783W        W66208  43.868   9.800   4.294
93784W        W66209  25.513  11.243  12.888
93785W        W66210  14.097   8.838  11.037
93786W        W66211  11.232  28.668  14.855
93787W        W66212   9.265  24.158  14.861
93788W        W66213  28.175  41.317   2.251
93789W        W66214  16.274  14.321   1.439
93790W        W66215  30.123  30.923   2.776
93791W        W66216  18.054  39.359  12.056
93792W        W66217   9.281   1.827   1.228
93793W        W66218  14.734  42.383   2.826
93794W        W66219  11.234  27.118   0.425
93795W        W66220   1.372   6.323  10.494
93796W        W66221  28.451  33.521  13.380
93797W        W66222  10.863  19.542   3.184
93798W        W66223  35.488  14.612  14.316
93799W        W66224  36.033   4.795   1.321
93800W        W66225   4.230  19.202   1.794
93801W        W66226   8.281  10.147   2.395
93802W        W66227  30.483  41.325  12.406
93803W        W66228  39.035  43.406  10.895
93804W        W66229   8.332  40.970   1.215
93805W        W66230   2.460  17.264  12.940
93806W        W66231  29.529  31.614  11.896
93807W        W66232   4.875   4.310   2.707
93808W        W66233  40.327  28.159  14.996
93809W        W66234  42.778  23.101   4.655
93810W        W66235  21.062  40.934   3.331
93811W        W66236  38.465  10.841  10.456
93812W        W66237  23.620  30.482   0.904
93813W        W66238   1.923  44.855   3.825
93814W        W66239  18.081  29.575  11.525
93815W        W66240  24.697  12.240  14.801
93816W        W66241  23.598  38.820   0.399
93817W        W66242  35.940  15.798   0.753
93818W        W66243  15.313   1.866  10.442
93819W        W66244  26.070  39.968   4.711
93820W        W66245  20.167  22.110  11.918
93821W        W66246  30.424   8.380  11.962
93822W        W66247  35.372  37.569   4.699
93823W        W66248  22.225   5.799   4.710
93824W        W66249  42.914  44.447   0.361
93825W        W66250   2.232   4.878  12.979
93826W        W66251  24.010  25.156   5.180
93827W        W66252  19.739  38.481   4.335
93828W        W66253  11.216  44.846   1.324
93829W        W66254   6.727  27.540  12.048
93830W        W66255  42.950  29.497  13.924
93831W        W66256   1.421   0.415  14.287
93832W        W66257  21.260   6.858   4.675
93833W        W66258   0.761  10.144   0.928
93834W        W66259  32.082   9.350   4.307
93835W        W66260   8.230  12.228   0.905
93836W        W66261  37.528  11.668   3.361
93837W        W66262  33.503   9.326  11.924
93838W        W66263  16.796  10.717   4.224
93839W        W66264  24.173  12.628   0.405
93840W        W66265  27.602  21.252  12.909
93841W        W66266   0.774  35.970   3.774
93842W        W66267  34.373  12.151  11.066
93843W        W66268  22.140   6.825   1.898
93844W        W66269  17.770  15.589  13.361
93845W        W66270  38.020  13.240   4.314
93846W        W66271  30.983  10.153   3.373
93847W        W66272  27.487  36.961  11.918
93848W        W66273  14.153  29.429   1.719
93849W        W66274  13.816   2.790   0.480
93850W        W66275  27.508   1.256   1.730
93851W        W66276  18.176  34.116   5.684
93852W        W66277  44.880  35.945   2.247
93853W        W66278  36.034  14.613   2.874
93854W        W66279  34.543  18.079  12.967
93855W        W66280  37.911  35.526   4.815
93856W        W66281   8.355  35.483  11.944
93857W        W66282  33.459   1.328   2.669
93858W        W66283  26.576  43.969  10.608
93859W        W66284  13.347  17.729  10.452
93860W        W66285  22.646  19.095  11.613
93861W        W66286   3.322  11.364  11.102
93862W        W66287  17.215  38.493  11.497
93863W        W66288  14.172   0.313   4.336
93864W        W66289  36.071   9.774   4.168
93865W        W66290  18.150  28.963  13.526
93866W        W66291  36.573   6.855   5.131
93867W        W66292  38.400   8.806   9.439
93868W        W66293  19.578  37.967   1.773
93869W        W66294  18.164  20.120   2.184
93870W        W66295  32.991  18.546  12.395
93871W        W66296   3.367  10.203   3.188
93872W        W66297   7.895  28.105   4.170
93873W        W66298  43.899  30.090   2.397
93874W        W66299   6.196   3.218   4.637
93875W        W66300  41.937   1.834   1.776
93876W        W66301   3.335  43.498  14.978
93877W        W66302   9.249  36.087  13.875
93878W        W66303  34.018  22.028  10.455
93879W        W66304  16.672   9.838  12.537
93880W        W66305  26.121  22.127  10.575
93881W        W66306  21.755  22.516   1.759
93882W        W66307  33.522  19.695  11.016
93883W        W66308  12.297   3.405   1.764
93884W        W66309  32.543  21.261   1.322
93885W        W66310   8.837  30.618   2.792
93886W        W66311  42.916   3.288   5.292
93887W        W66312   0.963   5.711  13.478
93888W        W66313  23.493   8.209  13.336
93889W        W66314  38.509   7.830  12.463
93890W        W66315  15.115  30.473  11.088
93891W        W66316  19.151   4.331  11.929
93892W        W66317  29.086  12.324  13.479
93893W        W66318  18.282   1.310   3.276
93894W        W66319  22.162  11.347  12.848
93895W        W66320  36.863  34.376   2.797
93896W        W66321  10.379  28.633  10.910
93897W        W66322  37.833  25.189   1.358
93898W        W66323  30.038  26.563  11.512
93899W        W66324  32.981   1.388  10.503
93900W        W66325  17.620  31.086   0.458
93901W        W66326  28.499  24.483  12.488
93902W        W66327  14.323  26.082   0.819
93903W        W66328  25.674  24.543  12.010
93904W        W66329  13.301   6.356   4.289
93905W        W66330  42.520  28.565   4.125
93906W        W66331  25.603  39.809  14.818
93907W        W66332  13.110  14.172   3.641
93908W        W66333  22.562   2.245   9.925
93909W        W66334  30.139  33.028   3.663
93910W        W66335   9.712  37.344  10.622
93911W        W66336  22.730  31.530  13.010
93912W        W66337  11.635  30.145  11.949
93913W        W66338  30.514   6.268   1.817
93914W        W66339  22.747  43.512  11.372
93915W        W66340   6.213  36.948  13.919
93916W        W66341  13.240  26.100   2.233
93917W        W66342   1.814  24.706   0.948
93918W        W66343  18.572  11.642  10.546
93919W        W66344   4.876   3.234   0.880
93920W        W66345  29.652  25.134  10.458
93921W        W66346  32.947  37.505   1.390
93922W        W66347  27.019  44.292  11.474
93923W        W66348  11.674  37.521   3.664
93924W        W66349  14.106  35.902  11.908
93925W        W66350   1.361  44.418  13.964
93926W        W66351   9.304   2.901  14.441
93927W        W66352  30.976  24.974  14.949
93928W        W66353  29.927  19.570   4.798
93929W        W66354  21.021  29.109  12.575
93930W        W66355  32.900   7.712  11.572
93931W        W66356  22.237  26.071  13.905
93932W        W66357   3.352  44.262   4.129
93933W        W66358  29.994   2.899   3.850
93934W        W66359  32.534  37.859  10.470
93935W        W66360  41.874  16.310   4.315
93936W        W66361   8.805  30.994   4.139
93937W        W66362  43.486  31.033  10.556
93938W        W66363   9.748  26.185   3.667
93939W        W66364  40.546  17.663  10.408
93940W        W66365  13.682   7.792   2.876
93941W        W66366  30.443  34.864   1.357
93942W        W66367  10.770  37.461   0.804
93943W        W66368   6.301  11.866   3.676
93944W        W66369  38.433   6.762  10.467
93945W        W66370   2.854  30.941   1.322
93946W        W66371   2.779   2.401   0.379
93947W        W66372   0.314  40.549  14.376
93948W        W66373  30.002  36.994  13.334
93949W        W66374  44.429  21.024  13.011
93950W        W66375  12.338  16.293  14.773
93951W        W66376  17.583  25.699   0.394
93952W        W66377  44.894  41.353  10.964
93953W        W66378  11.694   2.406  12.495
93954W        W66379  30.932  11.659  12.556
93955W        W66380  19.734  30.450  13.898
93956W        W66381  38.491  43.783   4.610
93957W        W66382  15.286  10.657   1.354
93958W        W66383   1.751   0.402  14.464
93959W        W66384  39.335   6.426   0.762
93960W        W66385  12.765  41.340  13.522
93961W        W66386  13.731  11.188   0.955
93962W        W66387   9.718  39.493   3.366
93963W        W66388  33.608  44.368  13.497
93964W        W66389  32.015  16.255   3.353
93965W        W66390  40.950  34.583   4.143
93966W        W66391  22.623  18.112   1.879
93967W        W66392  14.323   5.797   0.322
93968W        W66393  19.712   1.459   2.390
93969W        W66394  17.692  23.672  13.448
93970W        W66395  41.341  35.559  11.930
93971W        W66396  25.490  35.588   1.352
93972W        W66397  19.112   6.689  13.920
93973W        W66398   0.852  42.815   3.631
93974W        W66399  23.143   9.374  10.101
93975W        W66400   8.234  10.274   5.101
93976W        W66401  18.156  43.428   0.942
93977W        W66402   3.224  42.446  12.979
93978W        W66403  16.709  29.085   4.810
93979W        W66404  18.150   1.305   2.742
93980W        W66405  32.962  42.775   1.888
93981W        W66406  11.370  10.801   4.833
93982W        W66407  23.676  43.284  12.848
93983W        W66408  32.485  32.535   4.222
93984W        W66409  24.158   8.196  12.828
93985W        W66410  20.050  23.028  11.956
93986W        W66411  41.453  25.583  11.554
93987W        W66412  36.000  39.334  10.945
93988W        W66413  41.006  32.529   2.373
93989W        W66414  16.776  41.911  10.590
93990W        W66415   4.872  35.551  10.977
93991W        W66416   4.254  32.614  12.023
93992W        W66417   9.273  39.320  12.503
93993W        W66418  32.574  12.307   0.740
93994W        W66419  16.083  22.075  12.522
93995W        W66420  23.023  26.590   0.277
93996W        W66421  14.711   2.965  12.824
93997W        W66422  26.143   7.175  13.431
93998W        W66423  28.665  19.598  10.627
93999W        W66424   8.831  27.581  13.458
94000W        W66425  20.033   6.911   1.718
94001W        W66426  25.983   5.269  10.454
94002W        W66427   5.706   7.861  14.300
94003W        W66428  29.514   8.372  13.541
94004W        W66429  20.182  25.556   1.396
94005W        W66430  27.113  15.174   3.333
94006W        W66431  23.612  33.973  11.915
94007W        W66432  36.974   2.838   1.810
94008W        W66433  26.024  39.849   2.845
94009W        W66434  25.169  18.774  12.836
94010W        W66435  33.070  20.608   0.851
94011W        W66436  24.067  13.129   5.130
94012W        W66437   8.201   9.304   0.245
94013W        W66438  41.500   1.817   2.686
94014W        W66439  14.100   0.981  12.529
94015W        W66440   9.380  12.225   2.257
94016W        W66441  23.515   5.220   2.893
94017W        W66442   3.937  39.008   4.812
94018W        W66443  43.380  10.177   1.754
94019W        W66444  11.167   7.897  14.318
94020W        W66445  33.486   1.364   1.867
94021W        W66446  14.246  19.772   0.787
94022W        W66447  39.374  16.177  11.125
94023W        W66448  15.686   7.181   9.939
94024W        W66449  31.042  20.650  11.073
94025W        W66450   2.857  34.424  14.384
94026W        W66451  35.067  32.008   1.902
94027W        W66452  22.221  17.797   1.413
94028W        W66453  14.113   8.207   3.629
94029W        W66454  27.133   0.767   1.355
94030W        W66455  28.112  40.856  12.086
94031W        W66456  17.764  32.949  12.539
94032W        W66457  36.961  14.098  10.458
94033W        W66458  43.502  39.840   3.801
94034W        W66459  16.797  11.140  14.783
94035W        W66460  30.069  23.615   4.165
94036W        W66461   7.269  34.512   4.118
94037W        W66462  25.986  39.923   1.730
94038W        W66463   8.811  16.786  13.328
94039W        W66464  25.680  44.894   3.714
94040W        W66465  19.561  37.864   5.220
94041W        W66466  11.204  31.622  12.035
94042W        W66467  35.570  16.266  11.469
94043W        W66468   1.741  16.258   3.174
94044W        W66469  29.603  32.914  11.121
94045W        W66470  25.145   8.184   2.663
94046W        W66471  12.857  27.579   2.232
94047W        W66472   4.937  22.634   0.292
94048W        W66473   2.425  34.429   1.210
94049W        W66474   9.298   3.312  13.884
94050W        W66475  44.770   7.363   3.329
94051W        W66476   5.435  17.234   1.779
94052W        W66477  34.010  25.535  11.087
94053W        W66478  14.733  26.182  11.109
94054W        W66479  44.859   4.847  13.531
94055W        W66480  24.210  39.852   3.355
94056W        W66481  22.639  37.989  10.569
94057W        W66482  40.332  25.694  14.924
94058W        W66483  30.565  42.446  14.409
94059W        W66484  26.654  30.438   9.980
94060W        W66485  15.691  31.480   0.860
94061W        W66486  43.439  10.837  11.452
94062W        W66487  23.573  43.941  11.955
94063W        W66488  31.141   1.375  12.983
94064W        W66489   0.385  40.947   4.120
94065W        W66490   7.360  43.812   0.399
94066W        W66491   1.855  28.954  13.505
94067W        W66492  32.090  43.453  11.929
94068W        W66493  23.001   6.833  12.883
94069W        W66494  16.275  28.960  10.513
94070W        W66495  34.054   9.194   2.240
94071W        W66496   8.887   0.950  11.516
94072W        W66497   6.426  31.082   3.859
94073W        W66498  23.996  43.824  14.914
94074W        W66499  32.939   7.355  10.969
94075W        W66500  24.491  28.578  10.499
94076W        W66501  28.506  43.790   1.848
94077W        W66502  13.333  29.547   3.868
94078W        W66503  22.068  35.474   0.953
94079W        W66504  44.338  16.786   0.818
94080W        W66505   1.957   5.870   3.817
94081W        W66506  44.994   8.877   3.350
94082W        W66507  36.904   9.746  11.487
94083W        W66508  20.579  24.636   0.418
94084W        W66509  22.675  36.496   0.727
94085W        W66510  29.442   6.879  10.615
94086W        W66511  33.394  34.517   2.722
94087W        W66512  25.608   3.448  13.900
94088W        W66513  42.421  12.642  14.497
94089W        W66514  41.028  37.565   1.253
94090W        W66515  35.455  21.162   3.353
94091W        W66516  17.559   4.304  10.445
94092W        W66517  39.527  38.515   1.342
94093W        W66518   8.212   4.753   4.275
94094W        W66519  17.306  36.395  11.491
94095W        W66520   2.419  16.222   4.334
94096W        W66521  24.573   6.321  10.948
94097W        W66522  35.925  31.153   2.223
94098W        W66523   7.787  15.626   3.214
94099W        W66524  11.360  32.416   1.406
94100W        W66525  12.166  26.987   0.367
94101W        W66526  43.770  37.950   0.965
94102W        W66527  22.515  14.743   0.257
94103W        W66528  21.742   3.218  14.432
94104W        W66529  25.548  24.981  14.471
94105W        W66530   9.254  20.271  13.949
94106W        W66531  13.728  27.985  14.991
94107W        W66532  30.916  20.616  11.549
94108W        W66533  34.116  40.304   0.741
94109W        W66534  10.878  15.670   1.706
94110W        W66535  16.691  24.002   4.753
94111W        W66536  27.197   8.797   4.758
94112W        W66537  30.580  33.581  12.908
94113W        W66538  36.978   9.824  11.076
94114W        W66539  41.418  17.600  10.453
94115W        W66540  10.838  40.382  13.821
94116W        W66541  31.906   3.857   0.434
94117W        W66542  30.105  18.718   0.244
94118W        W66543  32.018  11.228  11.424
94119W        W66544  21.123   4.854   0.451
94120W        W66545  32.500  34.957  12.437
94121W        W66546  24.479  10.826  12.347
94122W        W66547   1.292  44.411   3.285
94123W        W66548  37.040  11.275  11.023
94124W        W66549   8.319   8.834  11.492
94125W        W66550  44.860  41.494  14.437
94126W        W66551  11.298  31.601   3.750
94127W        W66552  37.393  36.443   1.904
94128W        W66553  27.133  26.957   0.727
94129W        W66554  43.897  19.665  12.544
94130W        W66555   0.881  24.211  12.392
94131W        W66556  40.526  26.537  14.383
94132W        W66557  27.537   8.362   2.304
94133W        W66558  39.936  10.637  11.485
94134W        W66559   0.371  27.588  12.470
94135W        W66560  30.575   7.246   3.271
94136W        W66561   4.328  14.665  13.434
94137W        W66562  13.736  31.574  10.611
94138W        W66563  17.199  29.605   5.150
94139W        W66564  13.310  37.048   0.401
94140W        W66565  10.352   7.282  11.099
94141W        W66566  13.147  19.208  14.828
94142W        W66567  10.238  24.062  12.063
94143W        W66568  27.947  35.051  14.460
94144W        W66569  22.137  37.011   2.384
94145W        W66570  16.163   2.268  13.838
94146W        W66571  19.226  14.625   2.302
94147W        W66572   3.797  20.586   3.841
94148W        W66573   1.297  17.182  14.363
94149W        W66574  31.587  30.491  14.354
94150W        W66575  28.029  26.486  14.969
94151W        W66576  28.583  42.281   3.687
94152W        W66577  13.259  16.093  12.945
94153W        W66578  16.105  24.717  10.640
94154W        W66579  22.168   7.723   3.662
94155W        W66580   8.191  21.222   2.377
94156W        W66581  26.052  18.688  11.116
94157W        W66582  29.668  42.351  13.839
94158W        W66583  25.142  12.241   2.724
94159W        W66584   4.832   9.313  10.569
94160W        W66585   6.375  22.642   0.246
94161W        W66586   9.292  33.433   4.829
94162W        W66587  25.092   6.370  12.023
94163W        W66588  34.047  27.010  13.015
94164W        W66589  21.250  34.871  12.471
94165W        W66590  39.348  13.193   2.714
94166W        W66591  28.996  38.882   0.316
94167W        W66592  31.417  34.381   4.174
94168W        W66593  33.516  31.573  12.922
94169W        W66594  18.589  21.695   2.824
94170W        W66595  40.400  43.474   0.383
94171W        W66596   3.267  33.393  14.833
94172W        W66597   7.745  41.399   1.740
94173W        W66598  40.324  22.728   2.304
94174W        W66599  36.958  42.003  13.434
94175W        W66600  38.872  39.064  12.870
94176W        W66601   7.808  42.824   5.242
94177W        W66602  24.510  42.929  14.802
94178W        W66603  10.170  24.610   1.876
94179W        W66604  12.221  18.551  13.529
94180W        W66605  21.233   1.398  14.329
94181W        W66606  20.543   7.829   3.266
94182W        W66607  28.956  13.723   1.919
94183W        W66608  29.990  18.133  13.431
94184W        W66609  39.922  14.784   0.368
94185W        W66610  38.402  41.787   2.302
94186W        W66611  15.748   6.914   4.154
94187W        W66612  23.160  17.283  10.891
94188W        W66613  12.277   0.274  10.950
94189W        W66614  20.049  19.656  10.534
94190W        W66615  32.508  31.004   4.286
94191W        W66616   0.952  32.106   4.324
94192W        W66617  21.519  10.863  11.008
94193W        W66618  17.689  18.172   4.699
94194W        W66619   5.718   0.248  13.446
94195W        W66620  37.381  36.919   1.851
94196W        W66621  33.620   0.747   5.262
94197W        W66622   8.333   3.263  14.464
94198W        W66623   0.872  15.227  14.826
94199W        W66624  18.278  22.220  12.866
94200W        W66625  29.508  34.539   1.421
94201W        W66626  27.587  21.168   2.369
94202W        W66627   8.377  43.284  13.845
94203W        W66628  23.138   0.988  14.839
94204W        W66629  41.484  32.598  13.339
94205W        W66630  41.474  32.500   3.808
94206W        W66631   5.718  25.157  10.573
94207W        W66632  43.312   2.358  12.069
94208W        W66633   1.258   3.768   4.191
94209W        W66634  19.175   2.874  11.901
94210W        W66635  25.002   0.846   0.373
94211W        W66636   2.420  26.692  10.612
94212W        W66637   7.184  29.610  13.848
94213W        W66638  26.682  16.758  10.547
94214W        W66639  33.566  25.058   4.197
94215W        W66640  18.630  39.039  10.539
94216W        W66641  37.363   3.279  13.938
94217W        W66642  20.249  33.395  10.491
94218W        W66643  40.438   1.340   3.268
94219W        W66644  16.222  11.805   2.832
94220W        W66645  18.662  14.225  10.898
94221W        W66646  39.864  43.891  13.891
94222W        W66647   2.412  17.192   4.164
94223W        W66648  15.133  23.697   0.354
94224W        W66649  29.602  28.461   4.332
94225W        W66650  37.962  16.236  11.099
94226W        W66651  12.211  43.285   3.821
94227W        W66652  17.273   1.269  11.985
94228W        W66653  24.028  27.984  13.904
94229W        W66654  11.709   8.846  12.551
94230W        W66655  27.632  19.765  12.049
94231W        W66656  22.648  42.805   2.808
94232W        W66657  42.286  42.398  12.055
94233W        W66658  16.691  35.956  13.411
94234W        W66659  40.373  18.631  11.462
94235W        W66660  22.559  34.466  10.925
94236W        W66661  32.605  38.531   0.431
94237W        W66662  29.071   6.215   2.276
94238W        W66663  37.402  36.523  14.007
94239W        W66664  26.667  30.080  12.052
94240W        W66665   1.740  42.879  10.152
94241W        W66666  39.322   1.774  13.967
94242W        W66667  35.940  35.540  12.568
94243W        W66668   6.847  26.145  11.097
94244W        W66669  32.410  13.600  11.611
94245W        W66670  12.236  18.166  11.505
94246W        W66671  44.987   0.483  12.928
94247W        W66672  22.150  44.391  12.866
94248W        W66673   5.210   3.779  12.908
94249W        W66674  30.007  36.842  10.515
94250W        W66675  20.542  16.794  11.004
94251W        W66676   8.187   5.783  11.940
94252W        W66677   4.754  31.043   1.755
94253W        W66678  40.435  43.807  13.861
94254W        W66679  14.685  42.486  13.799
94255W        W66680  27.988  34.011   4.248
94256W        W66681  20.611   3.448   4.209
94257W        W66682  13.148   2.870   4.764
94258W        W66683  36.933  33.468   0.815
94259W        W66684  30.972  24.997   3.750
94260W        W66685   9.815  28.997   2.351
94261W        W66686  34.919   2.326   3.819
94262W        W66687  42.496  38.961  14.348
94263W        W66688  43.994  15.772   3.772
94264W        W66689  24.019  18.238   4.158
94265W        W66690  22.508   6.370  13.005
94266W        W66691  13.799  18.202  14.898
94267W        W66692  29.501   2.384  12.967
94268W        W66693  11.826  17.598   3.727
94269W        W66694  39.843   7.387   3.837
94270W        W66695  29.009  19.264  14.877
94271W        W66696  13.197  14.749   1.884
94272W        W66697  17.659  25.573   3.638
94273W        W66698  30.457  31.002  12.479
94274W        W66699   6.294  11.306   3.228
94275W        W66700  22.037  13.759   1.695
94276W        W66701  12.299  42.506   1.407
94277W        W66702  31.614   7.785  11.552
94278W        W66703  28.027  15.105  11.609
94279W        W66704  17.225  17.594   4.246
94280W        W66705  18.723  36.558   2.756
94281W        W66706  21.188  19.273   1.800
94282W        W66707  28.103  35.563  12.938
94283W        W66708  28.584  13.817   1.443
94284W        W66709  19.624  37.911  12.943
94285W        W66710  16.150  41.373   3.705
94286W        W66711   3.836  15.215  12.549
94287W        W66712  36.841   4.355   4.261
94288W        W66713  35.438  41.979  13.809
94289W        W66714   7.180  30.078   1.232
94290W        W66715   8.205   4.398   0.381
94291W        W66716  25.527  42.976   5.186
94292W        W66717  16.224  20.049   0.309
94293W        W66718  28.623   0.292  12.547
94294W        W66719  39.513   2.305   4.141
94295W        W66720  36.921   1.386   4.604
94296W        W66721  36.879  36.584   2.337
94297W        W66722  32.439   1.785   4.741
94298W        W66723  11.823  17.074   3.304
94299W        W66724  23.225  25.195   4.657
94300W        W66725  23.496  39.361   1.744
94301W        W66726  30.507  43.970  12.554
94302W        W66727  13.214  44.809   2.217
94303W        W66728  41.294  38.333   0.301
94304W        W66729  22.564  25.627   1.240
94305W        W66730  36.587  32.968   4.709
94306W        W66731  23.073  25.105  12.969
94307W        W66732  34.511  14.275   1.230
94308W        W66733  27.185  10.314  12.027
94309W        W66734  26.573  44.823  14.446
94310W        W66735  23.134  33.478   4.739
94311W        W66736   6.342  29.603   2.295
94312W        W66737  27.615  24.615  14.316
94313W        W66738   2.254   6.364   4.683
94314W        W66739  25.639  28.101   2.704
94315W        W66740   8.268  27.144  13.992
94316W        W66741  35.923  39.808   3.676
94317W        W66742  28.104   6.183   4.703
94318W        W66743  27.466  43.787   4.688
94319W        W66744  37.070  21.643  10.489
94320W        W66745  13.657  13.199  11.434
94321W        W66746  44.441  10.367  12.560
94322W        W66747  19.237   3.337   3.169
94323W        W66748  21.108  10.227  14.375
94324W        W66749  20.622  19.144   3.285
94325W        W66750  27.066   0.428  10.430
94326W        W66751   9.274  34.460   3.355
94327W        W66752   2.305  23.073  12.961
94328W        W66753  32.547   2.868  14.929
94329W        W66754  11.315  31.927  11.060
94330W        W66755  33.033  38.533  12.847
94331W        W66756  42.417  21.558   5.129
94332W        W66757  42.952  29.132   4.211
94333W        W66758  26.070   9.386  11.115
94334W        W66759  34.923  21.178   4.255
94335W        W66760   5.921  31.574   4.320
94336W        W66761  25.967   6.249   1.435
94337W        W66762  11.702  29.455  13.340
94338W        W66763   9.268  16.306  14.992
94339W        W66764  44.455  31.950  11.564
94340W        W66765   3.245  16.269   3.855
94341W        W66766  40.047  42.522   0.928
94342W        W66767   1.297  41.029   0.415
94343W        W66768  31.487  17.621   3.202
94344W        W66769  44.941  40.799  12.885
94345W        W66770  32.137  15.243   3.780
94346W        W66771  21.663  22.661   3.653
94347W        W66772   2.840   5.696  14.412
94348W        W66773  12.625  21.664   3.364
94349W        W66774  31.475  37.053  12.369
94350W        W66775  43.295  40.510   3.330
94351W        W66776  37.973  22.061  13.859
94352W        W66777  40.396  40.031   0.369
94353W        W66778  33.610  39.513  10.408
94354W        W66779   7.790  16.281  11.906
94355W        W66780  13.132  39.926   4.245
94356W        W66781  17.248  18.264   3.769
94357W        W66782  22.132  38.826  13.034
94358W        W66783  34.938  14.106   4.311
94359W        W66784  15.235   2.381   0.326
94360W        W66785  19.193  10.707   2.235
94361W        W66786  30.512  34.604   3.176
94362W        W66787  39.417   6.694  14.512
94363W        W66788  28.595  33.034  10.549
94364W        W66789  34.868  21.072   1.407
94365W        W66790  39.560  11.643   0.862
94366W        W66791  37.909  34.089  14.408
94367W        W66792  24.013   8.683  13.016
94368W        W66793   9.749  22.696   4.784
94369W        W66794  37.532  35.870  14.493
94370W        W66795   8.172  41.018   3.243
94371W        W66796  41.816  43.319   4.770
94372W        W66797  40.378  40.855  10.609
94373W        W66798   0.273  38.465   1.249
94374W        W66799  18.121  20.702  12.440
94375W        W66800  25.562  29.464   2.887
94376W        W66801   1.453   6.886  10.974
94377W        W66802   9.279  10.276   0.287
94378W        W66803   0.960  39.478   3.699
94379W        W66804  22.747  44.836   2.395
94380W        W66805   1.782  34.405   0.269
94381W        W66806  21.140  19.768  11.592
94382W        W66807  24.084  16.690   3.866
94383W        W66808  17.135  44.844   0.307
94384W        W66809  17.276  13.319   2.377
94385W        W66810   5.794   0.414   4.663
94386W        W66811  29.931  25.174   3.796
94387W        W66812  11.327  32.411  12.076
94388W        W66813   0.754  35.431   2.731
94389W        W66814   9.317  42.301   4.325
94390W        W66815  38.364  32.033  14.398
94391W        W66816  10.877  15.227   3.161
94392W        W66817  44.004  28.029   0.761
94393W        W66818  42.883  39.508  14.438
94394W        W66819  32.560  44.386   0.810
94395W        W66820   9.278  43.280  12.456
94396W        W66821   4.745  12.710  12.499
94397W        W66822   6.785  11.780   4.169
94398W        W66823  44.755  40.544  13.834
94399W        W66824  41.435  18.582  13.414
94400W        W66825  28.180  26.132   4.766
94401W        W66826  35.062  34.972  12.504
94402W        W66827  17.751  28.511  10.951
94403W        W66828   8.842  12.197   0.343
94404W        W66829  10.273   7.807  12.000
94405W        W66830  35.412  41.359  14.012
94406W        W66831  16.786  40.049   1.862
94407W        W66832  44.879   2.252   2.284
94408W        W66833  21.191  17.188   0.801
94409W        W66834  33.436  32.979  10.559
94410W        W66835   1.877  35.573  12.077
94411W        W66836  42.834   3.711  11.393
94412W        W66837   4.317  37.432   4.130
94413W        W66838   4.797  44.313  11.007
94414W        W66839  21.036   3.367  13.796
94415W        W66840  43.341  10.700   0.866
94416W        W66841  12.327  31.901   2.357
94417W        W66842   6.764   8.266  12.419
94418W        W66843  41.987  19.750  12.390
94419W        W66844  19.107  10.685  10.927
94420W        W66845  43.302  43.466  12.903
94421W        W66846   4.793  26.604   0.473
94422W        W66847   1.921  41.950  11.030
94423W        W66848   3.251  40.515   4.167
94424W        W66849  26.138  38.484   4.231
94425W        W66850   2.244  28.120  13.961
94426W        W66851  27.588  32.461  12.081
94427W        W66852  28.968  43.931   0.765
94428W        W66853  35.416  28.457  11.401
94429W        W66854   4.728  30.151  14.363
94430W        W66855  32.122  27.459  10.458
94431W        W66856  22.180  17.305   2.719
94432W        W66857  24.035  10.632   3.213
94433W        W66858  35.085  41.524   3.171
94434W        W66859  14.095  14.640   2.901
94435W        W66860  39.940  37.068   4.201
94436W        W66861  13.669  20.570   1.773
94437W        W66862   8.273  39.357   1.328
94438W        W66863  39.385  28.000  13.886
94439W        W66864   8.358  36.080   2.274
94440W        W66865  13.205   4.415  14.861
94441W        W66866  25.092  20.137   4.253
94442W        W66867   2.382   5.312   4.349
94443W        W66868  44.843  24.483   2.243
94444W        W66869  43.332  40.862   1.725
94445W        W66870   8.752  34.043   4.246
94446W        W66871  40.983   7.721   2.776
94447W        W66872  29.006  28.643   4.332
94448W        W66873  29.482   3.425  12.542
94449W        W66874  28.552  18.734  12.396
94450W        W66875  15.303  20.203   0.326
94451W        W66876   3.379  38.925   3.681
94452W        W66877  23.057  22.604  12.436
94453W        W66878  28.079   1.279  14.759
94454W        W66879  40.007  43.512  11.373
94455W        W66880  20.111  31.407   4.242
94456W        W66881  30.468   2.445  14.922
94457W        W66882  31.084  16.315   4.616
94458W        W66883   5.418  22.221   2.722
94459W        W66884   5.793   0.778  11.056
94460W        W66885  13.805  42.360  14.973
94461W        W66886  39.038   5.921   4.252
94462W        W66887  36.473  38.504  11.923
94463W        W66888   5.690  29.066  10.486
94464W        W66889  25.078  25.564  11.887
94465W        W66890  40.037  18.205   0.844
94466W        W66891  13.760  35.508   4.237
94467W        W66892  42.951   7.755   5.126
94468W        W66893  23.095  11.333  13.424
94469W        W66894  35.543  44.948   2.888
94470W        W66895  11.273   1.783  14.965
94471W        W66896  33.113   7.900   4.240
94472W        W66897  39.434  24.486   3.727
94473W        W66898   2.259   6.420   9.990
94474W        W66899   6.888  26.090  14.999
94475W        W66900  16.191  16.265  13.356
94476W        W66901   6.364  14.169   1.928
94477W        W66902   5.254  28.933   3.159
94478W        W66903   1.771   7.347  10.532
94479W        W66904  19.227  36.461   4.223
94480W        W66905  28.154  15.205   1.229
94481W        W66906  18.624   9.278  11.510
94482W        W66907  10.796  21.120  12.007
94483W        W66908  41.487   2.457  13.850
94484W        W66909  43.869  28.963   0.473
94485W        W66910  12.360   2.240  11.051
94486W        W66911  24.022   5.218   3.367
94487W        W66912  38.443  35.408   2.200
94488W        W66913  23.074  33.011  14.882
94489W        W66914  11.364  32.977  14.869
94490W        W66915  35.078  37.556  11.445
94491W        W66916  21.069   4.732  13.967
94492W        W66917  27.575  39.901  11.487
94493W        W66918  14.171  23.562   9.988
94494W        W66919   0.260  41.966   4.793
94495W        W66920  27.053   2.337  14.466
94496W        W66921  22.161  30.081  13.919
94497W        W66922  14.106  34.880  13.911
94498W        W66923  29.572  24.076   3.169
94499W        W66924   0.904  11.706   1.327
94500W        W66925  39.389  26.190   0.819
94501W        W66926  25.994  26.193  13.824
94502W        W66927   2.406  18.229  11.526
94503W        W66928  21.054   3.399   3.223
94504W        W66929   4.207   1.936   4.765
94505W        W66930   7.361  19.673  10.420
94506W        W66931  40.504  19.199  12.501
94507W        W66932   8.191  23.003  10.425
94508W        W66933   9.269   5.765  10.063
94509W        W66934  41.922  42.389   0.323
94510W        W66935  27.545  31.026   2.811
94511W        W66936  36.364   0.844   5.108
94512W        W66937  32.066  22.058  14.350
94513W        W66938  43.490  17.158   0.790
94514W        W66939  36.516  25.469  13.888
94515W        W66940  38.503  19.755  13.795
94516W        W66941  29.156  34.496  14.374
94517W        W66942  13.758   4.789   3.729
94518W        W66943   6.738  15.310   0.264
94519W        W66944   0.944  19.149  12.385
94520W        W66945  13.723   0.802  10.635
94521W        W66946  29.115  23.494   5.611
94522W        W66947  40.527  35.962  12.916
94523W        W66948  21.632  15.682   0.929
94524W        W66949  22.735  19.133  13.384
94525W        W66950  22.632   6.821  12.910
94526W        W66951   1.333  20.260   2.410
94527W        W66952   3.418   2.740  10.603
94528W        W66953  35.398  19.780   4.134
94529W        W66954  39.430   3.397   4.802
94530W        W66955  19.207  24.480  14.898
94531W        W66956  28.516   6.369   2.771
94532W        W66957   6.873  29.939   1.237
94533W        W66958  38.009  16.281   1.851
94534W        W66959  40.362  10.316   2.412
94535W        W66960  32.521   2.363   4.651
94536W        W66961  44.838  44.413  14.781
94537W        W66962  11.230  39.429  13.385
94538W        W66963  15.193   1.412   2.832
94539W        W66964  22.685  14.126   4.137
94540W        W66965  40.356   0.786   3.804
94541W        W66966  28.470   0.293  10.936
94542W        W66967  44.332  43.488  12.488
94543W        W66968  21.631   6.734   3.630
94544W        W66969  22.729  42.342  14.443
94545W        W66970  43.377   7.680   2.808
94546W        W66971  30.444   5.208  13.448
94547W        W66972   2.937  12.694  13.341
94548W        W66973  15.645  13.788  14.895
94549W        W66974  12.656  15.322   4.332
94550W        W66975  37.446  31.141  13.993
94551W        W66976  25.106  23.523   2.233
94552W        W66977   5.786  19.688  13.853
94553W        W66978  22.061  22.528  13.911
94554W        W66979  37.494  11.791  11.907
94555W        W66980  37.067   5.236  11.860
94556W        W66981   5.909  14.202   1.868
94557W        W66982  20.587   0.248   4.329
94558W        W66983  28.626  24.122   1.337
94559W        W66984  11.834  33.418   4.740
94560W        W66985  43.500  19.535  11.889
94561W        W66986  22.017  18.641   4.693
94562W        W66987  15.632  27.670   3.762
94563W        W66988  24.162  33.931   3.312
94564W        W66989  39.480  16.180   1.303
94565W        W66990   6.862  20.161  10.898
94566W        W66991  29.648  13.176   4.311
94567W        W66992  14.255  16.745   4.135
94568W        W66993  22.619  24.505  11.969
94569W        W66994  11.715  12.256   3.778
94570W        W66995   3.262  27.536  11.117
94571W        W66996  44.497   5.374   1.370
94572W        W66997  32.009  15.240   2.757
94573W        W66998  15.276   7.254   1.335
94574W        W66999  13.723   9.350  12.561
94575W        W67000  27.528   8.218  10.474
94576W        W67001  29.573  43.374  13.461
94577W        W67002  15.109   3.401   4.652
94578W        W67003  28.134  11.286   9.977
94579W        W67004  14.318  24.082  11.535
94580W        W67005  25.184  30.062  13.517
94581W        W67006  15.146  16.247   3.206
94582W        W67007  33.611  22.186  11.439
94583W        W67008  36.922   7.691  10.925
94584W        W67009  34.384  22.193   2.377
94585W        W67010   8.265  44.838   3.185
94586W        W67011  28.458   0.908   2.856
94587W        W67012   0.965   5.905   0.435
94588W        W67013  34.448  15.777   2.290
94589W        W67014  25.633  25.110  12.066
94590W        W67015  43.373  31.484   1.897
94591W        W67016   3.944   7.196   4.754
94592W        W67017  37.919   8.809   0.466
94593W        W67018  41.863  37.007  11.459
94594W        W67019  31.982  14.329  11.986
94595W        W67020   5.733  30.505  14.404
94596W        W67021  41.303   4.885  14.348
94597W        W67022  33.957   2.944  11.855
94598W        W67023   3.321  23.536   4.247
94599W        W67024   8.797   7.271   2.730
94600W        W67025  33.540  43.416  14.988
94601W        W67026   9.732  19.700   1.438
94602W        W67027  17.698  37.550  13.905
94603W        W67028  20.232  10.722   5.588
94604W        W67029  25.052  27.605   2.219
94605W        W67030  31.087  44.930  14.862
94606W        W67031   1.961   9.699   0.762
94607W        W67032  41.999   9.786   0.259
94608W        W67033  16.086  31.972  11.991
94609W        W67034  42.995  22.624  11.442
94610W        W67035  23.114  28.453  12.826
94611W        W67036  12.158  31.148   1.773
94612W        W67037  28.009  30.036  10.564
94613W        W67038  20.223  43.507   0.403
94614W        W67039  29.562  21.611  12.539
94615W        W67040  19.625  41.954   2.769
94616W        W67041  25.086  37.833   2.399
94617W        W67042  26.457  42.869   2.275
94618W        W67043  35.072  36.858   1.343
94619W        W67044  44.431  37.919   2.875
94620W        W67045  35.962  27.071  10.933
94621W        W67046  29.163  41.535   2.334
94622W        W67047  32.896  21.522   2.268
94623W        W67048  31.987   3.322   1.377
94624W        W67049  31.044  32.482   1.276
94625W        W67050  40.040  41.515  11.086
94626W        W67051   7.689  27.172  13.061
94627W        W67052  28.127  34.442  14.802
94628W        W67053  26.520  14.133   4.254
94629W        W67054   8.860   6.253   3.304
94630W        W67055  36.913  29.648   3.749
94631W        W67056  36.071  18.575  14.951
94632W        W67057  22.722  32.635  14.325
94633W        W67058  24.678  30.074   5.680
94634W        W67059  34.589  39.557  13.431
94635W        W67060  40.362  27.643   2.298
94636W        W67061  16.112  32.077   3.363
94637W        W67062  42.293   5.414  10.619
94638W        W67063  11.290  42.345  13.864
94639W        W67064  39.991  43.007   1.904
94640W        W67065   1.788  20.525   2.714
94641W        W67066  11.770  12.169  12.565
94642W        W67067   0.475  28.442   3.715
94643W        W67068  29.589  13.108   4.740
94644W        W67069  36.085  44.807   1.868
94645W        W67070  14.264   3.770   4.350
94646W        W67071  28.135   6.905   0.916
94647W        W67072   0.936  31.024  12.438
94648W        W67073   9.337   8.247  11.401
94649W        W67074   1.933  16.718  13.975
94650W        W67075  14.736   1.859   9.507
94651W        W67076  16.265  38.977  12.949
94652W        W67077  30.921  13.622  13.376
94653W        W67078  15.142   3.838  14.447
94654W        W67079   8.780   0.927   3.791
94655W        W67080  43.998  10.649  11.066
94656W        W67081  43.878  27.964  10.956
94657W        W67082  28.011  33.084   3.766
94658W        W67083  11.759  42.524  10.922
94659W        W67084  41.792  11.625   1.768
94660W        W67085  42.325   6.903   1.794
94661W        W67086  31.977  36.452   2.253
94662W        W67087  36.477  44.807   4.289
94663W        W67088  30.541  13.350   4.282
94664W        W67089  21.650  38.968   3.235
94665W        W67090  22.688  36.581  12.878
94666W        W67091   8.263   1.803   0.738
94667W        W67092  13.636   5.313  12.540
94668W        W67093  14.792  34.986  11.946
94669W        W67094  30.957  41.366   4.746
94670W        W67095  41.302   5.903  14.805
94671W        W67096   4.757  20.563   0.293
94672W        W67097  40.409  38.906  14.987
94673W        W67098  30.115   9.842   2.853
94674W        W67099  42.438  22.117   4.724
94675W        W67100  33.092  40.901   1.288
94676W        W67101  44.333  39.897  10.963
94677W        W67102  34.585  11.861  11.114
94678W        W67103  44.346  17.695   2.839
94679W        W67104  44.425   7.365   0.910
94680W        W67105  11.312  24.145   1.695
94681W        W67106  14.810  34.924   3.758
94682W        W67107   9.249  30.031   3.331
94683W        W67108  41.383   9.738  11.033
94684W        W67109  14.725  13.750   2.369
94685W        W67110   5.719  15.130  11.107
94686W        W67111  11.676  34.444   4.811
94687W        W67112  35.478  38.364   1.413
94688W        W67113  29.154  24.551   1.444
94689W        W67114  31.014   4.732   0.758
94690W        W67115  35.036  16.586   4.679
94691W        W67116  14.761  15.594   0.412
94692W        W67117  10.725  12.704   2.716
94693W        W67118  37.556   7.264  14.958
94694W        W67119  12.354  11.127  14.513
94695W        W67120  44.760  28.955  12.501
94696W        W67121  25.018  33.617  11.525
94697W        W67122  28.027  12.808   1.812
94698W        W67123  38.383  40.422   0.845
94699W        W67124  28.074   5.362  13.514
94700W        W67125   3.724  33.001  14.283
94701W        W67126  31.087  14.625   3.277
94702W        W67127   9.341  24.102  13.342
94703W        W67128  34.955  12.811   4.790
94704W        W67129  35.361  28.157   4.135
94705W        W67130  12.665  15.282   1.771
94706W        W67131   7.692  42.878  11.075
94707W        W67132  25.069  42.465  10.510
94708W        W67133  11.837  38.543  14.987
94709W        W67134  24.164  19.165  13.888
94710W        W67135  15.238  36.004   3.216
94711W        W67136  30.540  33.952   0.303
94712W        W67137   8.351  23.495   2.190
94713W        W67138  12.714   3.749   4.685
94714W        W67139  25.083  15.649   0.746
94715W        W67140   3.412  42.367  11.501
94716W        W67141  11.229  36.960  11.887
94717W        W67142   0.868  22.228   2.339
94718W        W67143   7.882  37.550   3.204
94719W        W67144  38.525  24.167   0.811
94720W        W67145  25.637  13.196   0.359
94721W        W67146  10.745  15.131  10.469
94722W        W67147  42.980   2.358   0.353
94723W        W67148  22.231   8.724   0.791
94724W        W67149  44.391  31.555   4.240
94725W        W67150  35.938   6.845  12.535
94726W        W67151  13.170   3.946   1.903
94727W        W67152  17.725  42.950  12.541
94728W        W67153   6.738  38.957  11.084
94729W        W67154  37.532   6.736  10.921
94730W        W67155  32.507   7.232  10.997
94731W        W67156  17.622  44.764  14.911
94732W        W67157  40.803   9.770   1.838
94733W        W67158  20.666  22.221   0.404
94734W        W67159  11.655   4.862   3.802
94735W        W67160  14.588  32.099  14.433
94736W        W67161  10.734  37.964  11.399
94737W        W67162  35.388  24.549   2.704
94738W        W67163  13.673   9.820  13.849
94739W        W67164   8.267  22.554  14.812
94740W        W67165   0.493  41.934  10.593
94741W        W67166   5.766  25.510   0.866
94742W        W67167  16.196   0.800  12.402
94743W        W67168  14.615  36.367   0.468
94744W        W67169  21.181  13.236  12.957
94745W        W67170   2.944  33.034  10.987
94746W        W67171  16.765  35.989   1.822
94747W        W67172   6.715  23.207  14.406
94748W        W67173  11.843  12.682  12.906
94749W        W67174  21.685  35.865   1.417
94750W        W67175  20.575   1.876   0.963
94751W        W67176  25.062  41.354   1.215
94752W        W67177  34.397  10.331   2.788
94753W        W67178  14.126   4.850  13.048
94754W        W67179   4.295  18.739  14.873
94755W        W67180  44.385  40.927   3.786
94756W        W67181  22.058  20.699   0.430
94757W        W67182  25.087  23.668  10.578
94758W        W67183   4.273  28.068   0.479
94759W        W67184  37.898  29.163  13.375
94760W        W67185   3.820  31.038   4.248
94761W        W67186  12.839  32.953  11.866
94762W        W67187  29.958   1.293   4.661
94763W        W67188  39.460  21.534   1.718
94764W        W67189  43.002  44.814   1.447
94765W        W67190  21.535  10.789  12.513
94766W        W67191  21.757  28.187   0.799
94767W        W67192   4.448  41.526   4.144
94768W        W67193  41.412  21.049   2.891
94769W        W67194   9.702  36.366  14.946
94770W        W67195  32.032   7.393   1.889
94771W        W67196   3.894  21.089  13.435
94772W        W67197  33.491  35.536  13.378
94773W        W67198  13.118  44.956  11.395
94774W        W67199  26.584  39.418  14.831
94775W        W67200  33.559  40.458   4.703
94776W        W67201   1.286  20.653   1.892
94777W        W67202   3.733   8.655   3.843
94778W        W67203  35.458  21.637  14.917
94779W        W67204  28.582   8.392   4.306
94780W        W67205  38.501  25.472  14.323
94781W        W67206  42.959  25.057   0.475
94782W        W67207  19.068  18.617   4.132
94783W        W67208   3.738  25.590  12.449
94784W        W67209  19.767  18.072   3.228
94785W        W67210  40.949  22.667  12.962
94786W        W67211  17.798  32.885  14.387
94787W        W67212  40.854  24.626   3.385
94788W        W67213  37.957  14.100  11.122
94789W        W67214  37.490  44.493   3.752
94790W        W67215  23.711  19.154   4.163
94791W        W67216  42.790  23.071   2.378
94792W        W67217  37.398  32.445   0.320
94793W        W67218  31.944  11.724   2.832
94794W        W67219   9.149  43.015   4.181
94795W        W67220   0.872  30.524   1.276
94796W        W67221  38.065  26.195  11.397
94797W        W67222  37.006  41.952  14.966
94798W        W67223  10.852  34.608   4.116
94799W        W67224   6.353   5.798  13.897
94800W        W67225  33.591  34.953  11.521
94801W        W67226  43.837   7.343   1.235
94802W        W67227  15.606  33.914  10.115
94803W        W67228  24.614  16.664   0.329
94804W        W67229  35.863  29.006  12.537
94805W        W67230  29.465   2.418   4.632
94806W        W67231  30.571  44.357   1.377
94807W        W67232  16.109  17.063  11.428
94808W        W67233  35.960   6.201   0.391
94809W        W67234  16.621  13.154   0.312
94810W        W67235  13.175  29.961  11.100
94811W        W67236  22.585  33.596   0.385
94812W        W67237  26.681  26.026   4.240
94813W        W67238   4.721   9.750  14.866
94814W        W67239  26.975   4.379   2.862
94815W        W67240  31.132  14.187   1.909
94816W        W67241  39.013  43.413   3.773
94817W        W67242  39.913  39.373   4.747
94818W        W67243   4.376  10.366  12.876
94819W        W67244  42.408  38.468   3.674
94820W        W67245  39.503  33.508   0.843
94821W        W67246   9.755  31.551  13.522
94822W        W67247  44.767   8.355  11.007
94823W        W67248  14.812  35.924  10.482
94824W        W67249  29.994   4.267  12.535
94825W        W67250  37.847  37.837  12.823
94826W        W67251  24.662  38.526   0.302
94827W        W67252   8.835  16.245   4.276
94828W        W67253  29.129   4.890  10.614
94829W        W67254  43.870   0.887   4.689
94830W        W67255  22.020  16.624  13.911
94831W        W67256  39.331  37.382   3.169
94832W        W67257  36.050  41.892  14.313
94833W        W67258   3.309   7.373  13.934
94834W        W67259  16.662   5.778  12.360
94835W        W67260   8.314   2.422   3.734
94836W        W67261  26.509  20.077  13.410
94837W        W67262  13.264  38.940  11.562
94838W        W67263  21.064  27.989  10.463
94839W        W67264  44.862  39.937   1.368
94840W        W67265  25.151  17.746   1.392
94841W        W67266  26.954  36.909   0.343
94842W        W67267  35.027  26.123   3.191
94843W        W67268  39.037  32.972  11.003
94844W        W67269  16.571  21.587   3.701
94845W        W67270  19.106  38.001  13.896
94846W        W67271  30.457  10.236  10.962
94847W        W67272   3.857   9.337   4.201
94848W        W67273  41.379  28.513   2.212
94849W        W67274  44.341   9.258   5.282
94850W        W67275  14.647  10.148  10.425
94851W        W67276  34.923   4.308  13.324
94852W        W67277  22.115  34.462   1.279
94853W        W67278   4.817  34.953   1.901
94854W        W67279  33.573  42.328   2.716
94855W        W67280  19.129  29.428   0.888
94856W        W67281  16.744   5.393   0.901
94857W        W67282  17.580  39.386   3.742
94858W        W67283  11.674   9.845  12.914
94859W        W67284  29.932   2.301   2.817
94860W        W67285  33.093  21.619   4.302
94861W        W67286  39.507  33.939   2.294
94862W        W67287  42.804  40.310   3.705
94863W        W67288   5.267  10.304  12.093
94864W        W67289  14.774  42.834  14.400
94865W        W67290   6.283  15.228   0.783
94866W        W67291  41.448  12.176  10.439
94867W        W67292  31.022  14.626  14.922
94868W        W67293   4.702  25.688   2.763
94869W        W67294  16.075  16.221   3.829
94870W        W67295  30.622  39.521  13.452
94871W        W67296  15.708  38.403   1.780
94872W        W67297  43.768  20.665   0.459
94873W        W67298  36.939  34.567   3.161
94874W        W67299  34.415  44.462  13.024
94875W        W67300  10.698  28.115   1.382
94876W        W67301  21.712  34.509   1.878
94877W        W67302  34.934  24.062   2.304
94878W        W67303  37.434  31.109   3.733
94879W        W67304  13.697  12.667   1.390
94880W        W67305   9.856  14.592   1.931
94881W        W67306   2.857   0.949   1.260
94882W        W67307  25.171  12.784  12.849
94883W        W67308  33.923   6.236  13.045
94884W        W67309  41.368  32.066  13.895
94885W        W67310   3.284  42.982  13.474
94886W        W67311  32.603  13.235  12.553
94887W        W67312  21.053  22.013  12.358
94888W        W67313  15.581  25.965   4.134
94889W        W67314  25.116  21.711   2.692
94890W        W67315  22.536  25.592  10.499
94891W        W67316  31.902  39.944   3.367
94892W        W67317  43.884  11.223  13.407
94893W        W67318  25.512  20.152  14.878
94894W        W67319  35.961   1.353  12.352
94895W        W67320  16.778  11.858   1.869
94896W        W67321  15.125  29.429   4.659
94897W        W67322  43.277  44.000  11.025
94898W        W67323  33.122   6.310  11.522
94899W        W67324  40.524  37.935   4.206
94900W        W67325   2.263  18.197   3.342
94901W        W67326   6.400  33.433   0.448
94902W        W67327  13.195   1.919  13.968
94903W        W67328  25.096  35.407   4.606
94904W        W67329  27.516   3.329  13.484
94905W        W67330   9.225  19.129   3.151
94906W        W67331  38.505  36.455  13.414
94907W        W67332  21.027  40.478   3.784
94908W        W67333   1.286  29.969   4.272
94909W        W67334   4.861  40.965  11.001
94910W        W67335  11.750  25.496  14.944
94911W        W67336   4.848  18.631   0.396
94912W        W67337  30.598   3.328   4.125
94913W        W67338  13.132  42.988   0.883
94914W        W67339  31.987  37.039   3.383
94915W        W67340   5.900  19.079  12.851
94916W        W67341  17.752  42.503   4.120
94917W        W67342  32.500  34.884   0.857
94918W        W67343  22.236  36.527   3.783
94919W        W67344  36.577  34.407   2.774
94920W        W67345   8.799  15.808   0.283
94921W        W67346  36.086  40.887  12.069
94922W        W67347  29.560  12.658   2.865
94923W        W67348  38.897  40.990  14.949
94924W        W67349  32.996  18.631  11.440
94925W        W67350  12.176  11.802  11.117
94926W        W67351  37.943   3.907  13.848
94927W        W67352  37.491  35.928  10.631
94928W        W67353   2.760  32.946   3.637
94929W        W67354  24.974   6.770   4.779
94930W        W67355   6.802  44.477   1.930
94931W        W67356  13.233  29.541   0.935
94932W        W67357   1.831  43.975  14.782
94933W        W67358  25.476  28.929   0.929
94934W        W67359  14.794  43.992  12.376
94935W        W67360   2.406   2.458   4.618
94936W        W67361  41.331  40.364   5.158
94937W        W67362  27.562  26.033  11.453
94938W        W67363  37.340  41.352  12.984
94939W        W67364   4.341  22.026   4.279
94940W        W67365  31.546  25.984  10.538
94941W        W67366  16.775  38.450  11.442
94942W        W67367   4.377  21.541  12.903
94943W        W67368  44.874  20.719  12.399
94944W        W67369  30.910  10.275   1.776
94945W        W67370   8.389  24.156  13.063
94946W        W67371  19.592   4.443   4.193
94947W        W67372  36.522   2.418  12.059
94948W        W67373  35.566   7.848   0.935
94949W        W67374  22.169  18.778  13.894
94950W        W67375  12.286  29.988  10.640
94951W        W67376  28.642   6.689  13.344
94952W        W67377  30.641  31.409   3.249
94953W        W67378  33.072  11.677   2.664
94954W        W67379  11.275  11.254   0.859
94955W        W67380  39.850  37.967  11.908
94956W        W67381  11.186  13.796   3.837
94957W        W67382  24.480   1.962   4.692
94958W        W67383  13.836  29.038  11.059
94959W        W67384  30.977  14.790  11.440
94960W        W67385   0.892  16.570  13.343
94961W        W67386  43.280   6.895  11.494
94962W        W67387   6.783  33.520   0.893
94963W        W67388  44.478  12.317  14.397
94964W        W67389  12.273  31.015   0.466
94965W        W67390  35.492   4.801  13.376
94966W        W67391   5.338  38.899   3.301
94967W        W67392  31.039  23.201   5.754
94968W        W67393   8.252   9.151   3.372
94969W        W67394   3.845  13.674  12.487
94970W        W67395  27.991  39.923   0.727
94971W        W67396  36.352  24.974   0.340
94972W        W67397  20.697  35.045   1.286
94973W        W67398  42.460  25.059   3.274
94974W        W67399  34.514  23.585   2.419
94975W        W67400  40.938  42.346  11.892
94976W        W67401   9.274  25.687  13.454
94977W        W67402  42.835  15.760   2.226
94978W        W67403  28.036  36.090   1.723
94979W        W67404  14.300  15.714   1.405
94980W        W67405   1.288  20.544   0.959
94981W        W67406  29.933  24.049   0.810
94982W        W67407  43.272   7.301   3.682
94983W        W67408  26.612  19.562   4.310
94984W        W67409  37.475  21.657  11.417
94985W        W67410  39.483  31.590  12.472
94986W        W67411  12.297  22.241  11.032
94987W        W67412  30.950   2.938  13.328
94988W        W67413  41.450  12.237   1.715
94989W        W67414  21.580  19.134  14.463
94990W        W67415  41.334  18.133  11.595
94991W        W67416  41.447  12.777   0.260
94992W        W67417  27.069  13.764  11.413
94993W        W67418  30.415  25.180  12.374
94994W        W67419  40.822  42.366  10.940
94995W        W67420   4.216  24.529   2.720
94996W        W67421  34.468  15.130  10.448
94997W        W67422  33.939  15.694  12.947
94998W        W67423  24.494   1.272  11.959
94999W        W67424   0.386  40.017   4.700
95000W        W67425  28.599  29.464   4.245
95001W        W67426   3.780   5.361   0.356
95002W        W67427  30.978  32.970   1.907
95003W        W67428   9.349  10.202   0.911
95004W        W67429   4.263   1.772  11.542
95005W        W67430  43.329  25.001  14.511
95006W        W67431   2.316  29.610   2.314
95007W        W67432  28.168  37.336  10.006
95008W        W67433  44.432  24.026   1.401
95009W        W67434  33.458  35.464  11.093
95010W        W67435  17.243   9.226  12.354
95011W        W67436  13.632   3.923  14.989
95012W        W67437  35.950  19.693  11.374
95013W        W67438  11.641  35.359  13.310
95014W        W67439  15.097  11.867   2.793
95015W        W67440  17.724  13.257   3.273
95016W        W67441   9.192  24.678  13.333
95017W        W67442  17.111  38.506  13.832
95018W        W67443  44.971  22.234   0.898
95019W        W67444  17.680   7.310   3.798
95020W        W67445  34.590   3.870  12.495
95021W        W67446   8.684  25.573  12.384
95022W        W67447  21.190  13.173  12.389
95023W        W67448  12.738  25.136   0.852
95024W        W67449  28.967  33.589  13.877
95025W        W67450   8.401  39.884  10.427
95026W        W67451  43.354   9.691  12.414
95027W        W67452   1.833  15.640   1.368
95028W        W67453  35.384   5.226  13.964
95029W        W67454  40.465   8.693  12.922
95030W        W67455  34.593  23.531   0.915
95031W        W67456  31.583  12.311  12.506
95032W        W67457  41.523  27.130  14.475
95033W        W67458  16.250  12.300  12.924
95034W        W67459  14.641   3.376   3.807
95035W        W67460  12.788   1.297  11.588
95036W        W67461  15.664  10.238  12.057
95037W        W67462  22.654  29.172   1.432
95038W        W67463  15.759  25.024  11.099
95039W        W67464  23.128  31.048  14.916
95040W        W67465  35.476   3.388   0.294
95041W        W67466  34.001  23.218   3.832
95042W        W67467  34.898  14.299   1.724
95043W        W67468  23.236  20.087  14.402
95044W        W67469   8.754   2.280  14.862
95045W        W67470   2.229   6.392  11.856
95046W        W67471   8.704  37.939   2.861
95047W        W67472   0.476  36.883  11.877
95048W        W67473  26.990  36.864   3.672
95049W        W67474  19.571  33.876   3.162
95050W        W67475  28.666   7.725   0.441
95051W        W67476   4.943  24.710   1.218
95052W        W67477   6.292  20.542  14.514
95053W        W67478  43.276  28.497   0.886
95054W        W67479  31.608  35.423  14.391
95055W        W67480  30.521   7.882  14.867
95056W        W67481  37.534  41.842   3.335
95057W        W67482  24.113  33.950  12.423
95058W        W67483  28.539  14.737   0.425
95059W        W67484  31.430  15.651  11.005
95060W        W67485  20.588  44.352  12.563
95061W        W67486   3.378  32.113  11.496
95062W        W67487   6.272  28.979   3.723
95063W        W67488  19.105  39.006  14.885
95064W        W67489   4.889  21.047   4.710
95065W        W67490  19.073  12.121   1.334
95066W        W67491  27.100  17.119   4.192
95067W        W67492   2.905  10.203   3.864
95068W        W67493  36.538  11.284   2.859
95069W        W67494  34.417  37.950   3.743
95070W        W67495  23.576   0.451  11.580
95071W        W67496  17.291  36.891  14.329
95072W        W67497  17.230  27.032  13.446
95073W        W67498  44.912  17.716   2.856
95074W        W67499   7.330  23.049  12.548
95075W        W67500  13.698  22.587  12.924
95076W        W67501  43.901   1.430   1.870
95077W        W67502  28.620  10.311  10.917
95078W        W67503  43.014  29.579  11.870
95079W        W67504  43.431  22.020   5.688
95080W        W67505  31.052  35.970  11.040
95081W        W67506  40.964  36.562   1.928
95082W        W67507  16.074   0.450   3.212
95083W        W67508   5.702  25.981   1.864
95084W        W67509  44.402  10.187   1.389
95085W        W67510  27.048   3.313   1.348
95086W        W67511  14.313  18.244  13.493
95087W        W67512  31.937  30.142  11.397
95088W        W67513  43.900  36.569  11.044
95089W        W67514   0.337   5.779   3.357
95090W        W67515  23.716  22.656  14.475
95091W        W67516  33.950  34.557  14.446
95092W        W67517  32.465  12.756  13.485
95093W        W67518   4.394   6.854  11.600
95094W        W67519  12.810  35.464  12.351
95095W        W67520  14.176  14.648  14.498
95096W        W67521  12.221  17.654   3.255
95097W        W67522   1.281  23.591  14.771
95098W        W67523  36.031  17.669  13.351
95099W        W67524  34.891  24.684  12.493
95100W        W67525   4.734   5.742   0.749
95101W        W67526   5.758  40.493  13.316
95102W        W67527  25.081  30.427  11.374
95103W        W67528  10.140  33.045   2.844
95104W        W67529  41.801  20.676   1.393
95105W        W67530  16.177  41.418  10.961
95106W        W67531  25.127  28.097   1.779
95107W        W67532  23.688  41.912   1.225
95108W        W67533   4.883  24.670  11.022
95109W        W67534  34.376  31.579   0.250
95110W        W67535  24.599  42.355  13.816
95111W        W67536  10.720  19.639  12.093
95112W        W67537  29.443  24.649  10.445
95113W        W67538   4.410  36.878   0.321
95114W        W67539  19.243  20.670  11.955
95115W        W67540  11.624   2.226  14.490
95116W        W67541   2.396  39.029   1.705
95117W        W67542  40.858   0.474   0.777
95118W        W67543  43.364  16.074   2.213
95119W        W67544  33.587  36.542  14.032
95120W        W67545  30.422  16.617   2.716
95121W        W67546  25.014   0.346   2.206
95122W        W67547  37.426  36.470   5.130
95123W        W67548   9.297  22.007  10.449
95124W        W67549   3.359  17.679  14.775
95125W        W67550  14.753  11.836   0.892
95126W        W67551  14.263   3.796  10.141
95127W        W67552  41.400  11.325   0.315
95128W        W67553   2.415  13.204  14.482
95129W        W67554  36.049  44.367   1.859
95130W        W67555  12.793  26.148   3.317
95131W        W67556  35.415   5.780  12.399
95132W        W67557  20.044   2.733  13.315
95133W        W67558   4.250   7.351  12.427
95134W        W67559   9.344  28.974   0.418
95135W        W67560  27.546  19.761   4.210
95136W        W67561  18.758  38.990   3.380
95137W        W67562  28.981  19.714  13.897
95138W        W67563  38.980  24.701  13.812
95139W        W67564  44.362  14.723  12.542
95140W        W67565  24.188  37.575   3.720
95141W        W67566  22.055  17.225  12.086
95142W        W67567  15.801   6.343   1.305
95143W        W67568  13.124  41.416   4.323
95144W        W67569  41.802   0.969  13.910
95145W        W67570  12.612  23.052   1.830
95146W        W67571  40.014  24.161  14.774
95147W        W67572  37.045   8.395  13.820
95148W        W67573  17.637  10.689  13.936
95149W        W67574  36.898  39.490   2.291
95150W        W67575  19.101  33.510   4.295
95151W        W67576  13.217  21.683  14.924
95152W        W67577   0.931  18.621   3.737
95153W        W67578  27.157  17.707  13.981
95154W        W67579  25.050  19.723   3.758
95155W        W67580  18.690  34.535  13.916
95156W        W67581  12.817  32.541  10.489
95157W        W67582   4.235  42.472   1.865
95158W        W67583  27.692  40.339  12.562
95159W        W67584  17.801  42.466  13.414
95160W        W67585  44.450  30.144   1.728
95161W        W67586  22.688   8.201   2.237
95162W        W67587  18.561   0.891   2.680
95163W        W67588  14.162   0.310   9.967
95164W        W67589   0.278  36.951  11.567
95165W        W67590  34.504  20.756   4.131
95166W        W67591   8.702  17.667   4.115
95167W        W67592  27.076   0.381   2.750
95168W        W67593  36.973  44.499   0.783
95169W        W67594   1.307  32.418  14.479
95170W        W67595  40.973  15.133   0.782
95171W        W67596  22.200  34.584  10.949
95172W        W67597  12.837  21.538  11.531
95173W        W67598   6.419  15.637  11.893
95174W        W67599  14.590  27.611   2.357
95175W        W67600  22.722  29.508  12.398
95176W        W67601  19.622  36.520   2.256
95177W        W67602  14.265  12.637  13.838
95178W        W67603  14.296  23.723   0.279
95179W        W67604  22.231  40.436  12.937
95180W        W67605  16.124  36.436  11.503
95181W        W67606  14.669  38.374  14.867
95182W        W67607  44.302  32.419   1.310
95183W        W67608  11.689  38.992   5.262
95184W        W67609  25.967   2.336  13.332
95185W        W67610  22.614   0.366  12.999
95186W        W67611   5.383  41.794   1.726
95187W        W67612  12.810  14.733   3.712
95188W        W67613  17.597  35.106   2.228
95189W        W67614  12.802   3.739  11.383
95190W        W67615  35.931  20.157   0.797
95191W        W67616  42.934  31.422   2.309
95192W        W67617  32.055   9.784  14.007
95193W        W67618   3.782  44.321  10.631
95194W        W67619  18.710  19.207  10.409
95195W        W67620  43.784  18.591  10.406
95196W        W67621  17.094   1.453  12.340
95197W        W67622  29.175  26.093   1.307
95198W        W67623  39.981  14.653   1.311
95199W        W67624  34.383   6.236  13.984
95200W        W67625  18.155  11.327  10.429
95201W        W67626  25.530   7.776  11.916
95202W        W67627  10.781  10.256  12.828
95203W        W67628  37.418  40.897   4.605
95204W        W67629   2.410  15.621  12.556
95205W        W67630   1.856   6.709   3.661
95206W        W67631  12.198  29.043   4.200
95207W        W67632  35.423  12.163   4.145
95208W        W67633  36.419  31.125  13.531
95209W        W67634  25.469  24.500   3.192
95210W        W67635   6.806  11.305   1.893
95211W        W67636  24.039   5.694   2.232
95212W        W67637   0.284  39.015   0.266
95213W        W67638  20.188  44.408  11.539
95214W        W67639  40.811  27.534   4.120
95215W        W67640   8.344  27.483   3.231
95216W        W67641  37.470   2.732   1.828
95217W        W67642  39.867  16.662   0.319
95218W        W67643   5.868  38.460   0.941
95219W        W67644  17.775  20.642   0.886
95220W        W67645  11.145  31.147  14.372
95221W        W67646   1.390  35.066   3.668
95222W        W67647   7.219  29.152   0.770
95223W        W67648  44.902  29.160   4.769
95224W        W67649   7.330  20.184  12.485
95225W        W67650  21.056  34.945   4.654
95226W        W67651   7.820  13.753  10.411
95227W        W67652  32.502  11.654   0.875
95228W        W67653  19.098  13.191   2.242
95229W        W67654  44.353  14.276  13.424
95230W        W67655  42.374  17.202   4.822
95231W        W67656  14.703   0.881   4.186
95232W        W67657  37.851  35.066   3.809
95233W        W67658  34.112  27.446  14.380
95234W        W67659  44.267  42.325   4.144
95235W        W67660  17.167  11.303  12.355
95236W        W67661  36.567  22.124   2.744
95237W        W67662  32.064  23.005  13.006
95238W        W67663   8.168  18.672  11.063
95239W        W67664  30.655   0.302   0.405
95240W        W67665  27.627  15.691   0.478
95241W        W67666   0.441  18.552   4.317
95242W        W67667  36.977   1.888   0.472
95243W        W67668  38.468   4.900   4.232
95244W        W67669  42.342  12.271  14.490
95245W        W67670   1.881  19.104  11.504
95246W        W67671   1.259   6.356  14.868
95247W        W67672  15.673   1.818  12.924
95248W        W67673  11.368  27.128   4.821
95249W        W67674  26.700   6.269  13.532
95250W        W67675  17.560   2.468   1.339
95251W        W67676  23.634  25.645  11.898
95252W        W67677  39.489  41.487   2.236
95253W        W67678  25.186  27.167   0.895
95254W        W67679  13.186  25.570   0.438
95255W        W67680  29.584  29.529  12.863
95256W        W67681  41.880  30.153  12.905
95257W        W67682  20.163  40.429  11.857
95258W        W67683  23.096  42.424  11.889
95259W        W67684  11.802  33.913  13.944
95260W        W67685  43.420  37.387   3.373
95261W        W67686  17.156  36.980  12.559
95262W        W67687  11.205  39.551   4.353
95263W        W67688  39.925  44.852   4.228
95264W        W67689   6.268  13.225   2.247
95265W        W67690  10.805  33.594   2.775
95266W        W67691   1.465  31.414   1.932
95267W        W67692  19.172  14.154   1.434
95268W        W67693  26.171  13.714  13.030
95269W        W67694  22.996  32.612   3.324
95270W        W67695  44.960  38.522   4.180
95271W        W67696  17.068   2.836   2.763
95272W        W67697   1.294  11.302  14.346
95273W        W67698  27.101  32.053   5.121
95274W        W67699  42.810  29.120  14.776
95275W        W67700  18.769  36.369  11.022
95276W        W67701  43.325  21.582   9.507
95277W        W67702  38.827  20.032  12.923
95278W        W67703  27.086  42.806  13.908
95279W        W67704  43.511  18.585   4.771
95280W        W67705   0.484  40.379  13.038
95281W        W67706  19.628  30.495  13.331
95282W        W67707  21.212  14.684   0.439
95283W        W67708  42.308   7.772  13.035
95284W        W67709  13.796  38.934   1.787
95285W        W67710  20.749  36.424   2.816
95286W        W67711  13.724   6.391   2.209
95287W        W67712   1.405  16.302   2.236
95288W        W67713   5.363  32.621   4.326
95289W        W67714   1.242  25.709   3.854
95290W        W67715  44.808  20.607  14.393
95291W        W67716  14.200  42.384   1.421
95292W        W67717  22.117  20.089  12.509
95293W        W67718  19.723  23.613   1.888
95294W        W67719  32.461  30.594  11.942
95295W        W67720  10.297  22.701   5.238
95296W        W67721  28.992  23.231  10.458
95297W        W67722   2.909  23.067   3.738
95298W        W67723  26.141  16.163   4.681
95299W        W67724   3.352  29.424  14.779
95300W        W67725  30.096  28.625   3.663
95301W        W67726  36.390  29.588   2.251
95302W        W67727  33.116   1.368   2.341
95303W        W67728  17.126  26.006  11.381
95304W        W67729   3.432  20.632   2.395
95305W        W67730  10.661  37.381   0.337
95306W        W67731  44.341   6.386   4.784
95307W        W67732  22.603  21.082  10.096
95308W        W67733   9.675  13.612   0.334
95309W        W67734  17.078  38.411  14.892
95310W        W67735  16.745  37.552  14.452
95311W        W67736  44.337  23.602   4.138
95312W        W67737  32.972  37.571   1.903
95313W        W67738  10.648  17.796  12.862
95314W        W67739  29.458  15.797   5.155
95315W        W67740  12.804  35.896   1.369
95316W        W67741   1.425  16.753  14.881
95317W        W67742   7.688  41.395   1.327
95318W        W67743  21.043  41.358  11.524
95319W        W67744  19.134  20.665  11.485
95320W        W67745   6.209  16.154   3.692
95321W        W67746  38.455  10.150   4.769
95322W        W67747  20.038  40.448  12.825
95323W        W67748  25.593  10.708   0.307
95324W        W67749   8.234  21.682   1.330
95325W        W67750  43.879  17.305   2.293
95326W        W67751  20.203  33.626  12.021
95327W        W67752  42.803  15.727   1.263
95328W        W67753  19.206  38.855  11.062
95329W        W67754  39.967   1.859  12.838
95330W        W67755  19.623  11.331   4.285
95331W        W67756   8.163   5.208   3.825
95332W        W67757  36.963  35.573   4.816
95333W        W67758  27.128  34.070  11.404
95334W        W67759  35.521  22.158  11.498
95335W        W67760   5.242  25.034  11.550
95336W        W67761  16.774  19.533   0.739
95337W        W67762  31.954  43.818  14.889
95338W        W67763  10.164  44.975  12.580
95339W        W67764  13.679  18.164   3.235
95340W        W67765  22.196   9.208  13.507
95341W        W67766  19.227  18.581   4.664
95342W        W67767   8.163   8.361   3.222
95343W        W67768  13.693  39.435  14.403
95344W        W67769  25.496  30.062   3.678
95345W        W67770  15.763  12.294  11.414
95346W        W67771  16.583  27.965  14.276
95347W        W67772  43.014  34.596  10.516
95348W        W67773   5.706  43.984  14.897
95349W        W67774   9.821  28.999   4.313
95350W        W67775  21.041   9.158   0.462
95351W        W67776  35.911  39.976  13.947
95352W        W67777  38.969  42.920   4.218
95353W        W67778  27.566  35.059  13.432
95354W        W67779  20.606  43.495  14.859
95355W        W67780   5.815  41.041  12.560
95356W        W67781   8.349  43.775  14.330
95357W        W67782  16.781  28.673  13.392
95358W        W67783  30.447  16.266   2.808
95359W        W67784  40.460  10.771   2.327
95360W        W67785  13.844  25.168  10.509
95361W        W67786  44.441  18.152  14.488
95362W        W67787  11.232  27.996  14.005
95363W        W67788  34.555  40.917   1.370
95364W        W67789  29.154   5.433  12.902
95365W        W67790  28.975  11.730  13.323
95366W        W67791  43.872   6.232  12.005
95367W        W67792  42.507  25.565  14.947
95368W        W67793  20.208  30.108   1.263
95369W        W67794  18.172  14.264  12.572
95370W        W67795  40.515  41.406   2.253
95371W        W67796  34.526  20.109   3.853
95372W        W67797  43.003  11.664   3.295
95373W        W67798   0.249  40.432   1.876
95374W        W67799  43.907   0.749   0.884
95375W        W67800  16.813  23.668  12.422
95376W        W67801   3.232  39.837   3.817
95377W        W67802  11.213  16.635  11.890
95378W        W67803   7.675  12.748  14.355
95379W        W67804  36.592  29.161   1.375
95380W        W67805  41.923  22.576  14.014
95381W        W67806   9.394  43.370   3.655
95382W        W67807   8.865  17.065  14.483
95383W        W67808  19.586   7.321  13.431
95384W        W67809  36.918  30.912   0.267
95385W        W67810  38.042  13.317  13.367
95386W        W67811   3.254  14.276   2.854
95387W        W67812   8.231   7.811  12.432
95388W        W67813  40.815  34.873   3.257
95389W        W67814  12.823  43.832   4.773
95390W        W67815  22.637  28.077  10.129
95391W        W67816  42.794  13.110   0.966
95392W        W67817  40.915  29.067  14.489
95393W        W67818  20.114  23.119   3.660
95394W        W67819  26.543  10.870   4.694
95395W        W67820  39.462  13.774  12.454
95396W        W67821   8.820  17.240   1.349
95397W        W67822  11.208   0.477   1.421
95398W        W67823  10.148  20.599  11.929
95399W        W67824   9.179  15.300  12.402
95400W        W67825  30.576   4.720  13.391
95401W        W67826   4.869  21.751  12.558
95402W        W67827  22.554  26.637  14.970
95403W        W67828  42.854  17.775  14.992
95404W        W67829  38.483  23.522   3.793
95405W        W67830  35.036  32.558   1.384
95406W        W67831  22.236   1.262  13.513
95407W        W67832  11.629  37.497   4.282
95408W        W67833  33.102  33.396  14.810
95409W        W67834  20.593  37.889  11.856
95410W        W67835  31.948  25.994   4.614
95411W        W67836   3.416  10.818  13.348
95412W        W67837  14.649  20.687  10.966
95413W        W67838  16.791  15.145   4.717
95414W        W67839  11.636  26.693  11.393
95415W        W67840  18.735  39.449  10.552
95416W        W67841  37.851  44.923   0.779
95417W        W67842   4.357   2.413   3.173
95418W        W67843  29.480  10.205  14.490
95419W        W67844  39.001  11.323  14.338
95420W        W67845  44.269  26.532  11.902
95421W        W67846  26.595  21.720  13.034
95422W        W67847  18.147  18.742   3.183
95423W        W67848   4.735  38.413  12.851
95424W        W67849  26.568  30.077  10.148
95425W        W67850  42.401   5.782   2.779
95426W        W67851  31.131  13.799  11.872
95427W        W67852  17.641   2.329  10.574
95428W        W67853  11.127  30.956  14.888
95429W        W67854  11.187  28.126   0.274
95430W        W67855  13.107  38.360   3.168
95431W        W67856  35.419  32.489  11.475
95432W        W67857  28.674   7.806  12.948
95433W        W67858  16.285  38.992  10.121
95434W        W67859  40.812  15.324  12.438
95435W        W67860   3.812   6.828   2.301
95436W        W67861   4.232   8.316  12.069
95437W        W67862  30.075  26.056  12.974
95438W        W67863  28.135   1.430   4.708
95439W        W67864   0.834  15.802   0.450
95440W        W67865  33.889  44.906  13.978
95441W        W67866   8.709   1.364  11.079
95442W        W67867  28.071   5.830  10.958
95443W        W67868  36.458  38.973  14.356
95444W        W67869  15.680   9.769   0.322
95445W        W67870  31.513  31.934  14.954
95446W        W67871  27.195  21.662  10.636
95447W        W67872  42.812  10.852  11.972
95448W        W67873  36.409  15.174   2.256
95449W        W67874  36.518   5.859  14.984
95450W        W67875  15.761  37.867   1.744
95451W        W67876  43.440  38.073  10.954
95452W        W67877  19.666  42.377  13.024
95453W        W67878  43.966  40.976  13.973
95454W        W67879  13.750   6.799   4.620
95455W        W67880   4.394  10.166   2.888
95456W        W67881  34.454  40.323  14.803
95457W        W67882  16.298   6.295   3.280
95458W        W67883  43.296  37.837  12.881
95459W        W67884   5.272  34.499  13.045
95460W        W67885  17.616  22.083  11.109
95461W        W67886   2.813  38.461  13.466
95462W        W67887  38.025  31.633   1.276
95463W        W67888  31.095  24.995   4.717
95464W        W67889  26.017   1.832  10.993
95465W        W67890  30.136  31.447   4.612
95466W        W67891  19.646   0.357  13.326
95467W        W67892   4.306  31.638  12.482
95468W        W67893  23.049   5.349   0.279
95469W        W67894  27.147  42.811   0.776
95470W        W67895  43.896  42.329   4.760
95471W        W67896  36.519  44.330   2.795
95472W        W67897   2.261  31.937   1.349
95473W        W67898  24.109   9.861  10.621
95474W        W67899  41.916  34.495  10.456
95475W        W67900   2.301  11.336   1.296
95476W        W67901  35.984  37.396   0.844
95477W        W67902   6.200  14.775   2.359
95478W        W67903  23.520  36.019   4.311
95479W        W67904  26.528  32.448   2.826
95480W        W67905  40.989  37.413  12.401
95481W        W67906  23.011  43.387  13.823
95482W        W67907  26.095  31.958   2.351
95483W        W67908  16.241   7.276   2.316
95484W        W67909   2.856  18.209  14.945
95485W        W67910  14.661   0.265   0.865
95486W        W67911   1.948  39.029  13.894
95487W        W67912  10.770  27.645  11.557
95488W        W67913  37.055  31.121   0.877
95489W        W67914  35.399   5.787   3.657
95490W        W67915  33.888  42.373  14.850
95491W        W67916  38.843  37.017  12.011
95492W        W67917  32.008  44.987  10.569
95493W        W67918  33.538  41.365  14.873
95494W        W67919  10.293  35.869  10.519
95495W        W67920  43.930  30.652  13.807
95496W        W67921   2.861  26.565  12.390
95497W        W67922  34.906  20.654  11.045
95498W        W67923  18.776  43.925   1.865
95499W        W67924  37.925  27.069   1.264
95500W        W67925   7.225  10.260  12.067
95501W        W67926  17.122  41.811   1.324
95502W        W67927  17.097  21.542   0.359
95503W        W67928  24.716  38.928   4.653
95504W        W67929  18.763   6.857   0.321
95505W        W67930  11.189  14.280   2.197
95506W        W67931  41.003  34.370  12.526
95507W        W67932   4.419  23.616  11.464
95508W        W67933   9.289  18.725   1.874
95509W        W67934  24.567  36.885  12.028
95510W        W67935  20.045  11.733   0.243
95511W        W67936  44.302  16.722   4.711
95512W        W67937  14.118  40.839  13.037
95513W        W67938  25.630  34.470   1.873
95514W        W67939  18.788   6.841   4.123
95515W        W67940  20.121   6.319  12.546
95516W        W67941   5.305   9.200  13.388
95517W        W67942  41.788  23.724  10.909
95518W        W67943  13.251   5.796  12.966
95519W        W67944  23.574  10.269  12.496
95520W        W67945  23.998  43.797   2.180
95521W        W67946   3.260  36.467   5.189
95522W        W67947  37.477   7.737   0.754
95523W        W67948  21.613  25.494   2.733
95524W        W67949  43.453  11.655   3.381
95525W        W67950   8.885  29.525  10.909
95526W        W67951  34.398  39.468   2.794
95527W        W67952  17.786  17.268   2.746
95528W        W67953  21.542  43.284   3.280
95529W        W67954  16.702   8.397   0.385
95530W        W67955  25.218  30.942  13.028
95531W        W67956  24.668  25.108  12.909
95532W        W67957  44.469   2.862  11.000
95533W        W67958   4.800  36.953   2.808
95534W        W67959  29.649  44.380   0.836
95535W        W67960  15.642  10.780   3.796
95536W        W67961  40.496  22.501  13.427
95537W        W67962  20.581   8.795   0.961
95538W        W67963  44.449  42.866  11.426
95539W        W67964  23.715  11.161  10.506
95540W        W67965  39.874  13.161  13.502
95541W        W67966  38.555   9.364   9.637
95542W        W67967  34.517  20.583   1.796
95543W        W67968  11.138  16.093  11.025
95544W        W67969  18.256  16.136  14.375
95545W        W67970  29.558  26.005   4.130
95546W        W67971  24.657   2.242   0.332
95547W        W67972  41.037  11.127  13.447
95548W        W67973  28.001  24.177  11.567
95549W        W67974  42.476  38.401   0.243
95550W        W67975   3.285  38.984   0.370
95551W        W67976   0.395  43.373   0.405
95552W        W67977  20.756  30.652  13.047
95553W        W67978  19.655   1.923  12.985
95554W        W67979  41.866  22.244   1.867
95555W        W67980  39.881  18.054   1.293
95556W        W67981  33.475   3.291  12.457
95557W        W67982  33.123  18.646  11.894
95558W        W67983   5.283  42.439  13.934
95559W        W67984  24.532  36.561  11.038
95560W        W67985  20.592  29.159  14.287
95561W        W67986  22.201   4.767   0.786
95562W        W67987  29.926   7.855  13.535
95563W        W67988  21.163  40.044   2.684
95564W        W67989  17.626  31.065  13.062
95565W        W67990  29.090  43.415   0.767
95566W        W67991  44.753  30.610   9.925
95567W        W67992  24.064   0.312  11.386
95568W        W67993  27.604   5.736   3.677
95569W        W67994  33.067  38.445  10.403
95570W        W67995  42.030  30.072   3.851
95571W        W67996   3.724   0.746  10.963
95572W        W67997  37.350  34.915  12.879
95573W        W67998  40.451  28.634   4.144
95574W        W67999  17.764  32.419  10.633
95575W        W68000  36.461  12.786   3.638
95576W        W68001  12.720  38.493   1.449
95577W        W68002   8.200  28.961  12.925
95578W        W68003  22.617   1.790  13.306
95579W        W68004  26.112   2.262   1.910
95580W        W68005  21.726  12.711   0.442
95581W        W68006  30.909   8.713   4.307
95582W        W68007  22.245  11.155   3.661
95583W        W68008   1.832  27.595  11.012
95584W        W68009  44.888  32.893   4.721
95585W        W68010  26.159  28.179   3.669
95586W        W68011  16.610  30.653  11.489
95587W        W68012   8.764  14.635  11.386
95588W        W68013   0.778  31.610   3.799
95589W        W68014   8.192  33.128   0.849
95590W        W68015  39.552  28.658  12.396
95591W        W68016  10.235   4.208   2.791
95592W        W68017  38.478  10.681   1.764
95593W        W68018  27.197   0.897  14.015
95594W        W68019  23.548  36.357  14.459
95595W        W68020   5.805  12.197   0.258
95596W        W68021  35.468   5.878   4.738
95597W        W68022  29.042  19.560  11.051
95598W        W68023   9.763  23.498   2.206
95599W        W68024  24.528   0.895  12.509
95600W        W68025   9.698  14.134  10.626
95601W        W68026  19.211  29.623  10.940
95602W        W68027  25.190  14.105  12.087
95603W        W68028  22.036  32.575   2.192
95604W        W68029  34.098  23.013  12.992
95605W        W68030  38.538  13.722  12.522
95606W        W68031   1.385  36.862  12.850
95607W        W68032  36.994  13.601   1.713
95608W        W68033  19.550   2.724  13.328
95609W        W68034  19.143  33.407   3.656
95610W        W68035   7.292  37.936   4.682
95611W        W68036  39.349  21.217  11.117
95612W        W68037  24.129  13.630  12.353
95613W        W68038  21.024  32.084  13.475
95614W        W68039   3.228  26.103  12.891
95615W        W68040  23.531   1.250   2.322
95616W        W68041  26.667  22.135  14.817
95617W        W68042  40.946  36.990  13.949
95618W        W68043  34.412  16.177  13.810
95619W        W68044  36.940  32.603  14.391
95620W        W68045  39.492   6.333   2.293
95621W        W68046  14.154  43.798  11.057
95622W        W68047  27.019  11.834  11.959
95623W        W68048  26.697  29.508   3.293
95624W        W68049  37.402  43.953   4.703
95625W        W68050  42.478  34.914   1.840
95626W        W68051  40.349  33.065   0.427
95627W        W68052   6.895  41.997  14.363
95628W        W68053  17.141  27.010   1.890
95629W        W68054  19.690  28.119  12.057
95630W        W68055  30.546  43.841  11.981
95631W        W68056  42.513  31.618  11.480
95632W        W68057  11.667   4.324  14.387
95633W        W68058  43.357  21.700   3.789
95634W        W68059  15.171   7.721   0.748
95635W        W68060  22.722   5.732  11.612
95636W        W68061   5.205  22.620  14.284
95637W        W68062  32.045  11.357  14.032
95638W        W68063   4.221   5.787   1.784
95639W        W68064  13.205  28.017   4.326
95640W        W68065  34.406  29.096   1.410
95641W        W68066   0.453  12.677  12.882
95642W        W68067  20.769  10.872   5.146
95643W        W68068  32.598   1.357  13.412
95644W        W68069   9.780  26.008   1.814
95645W        W68070  10.799  27.148  10.599
95646W        W68071  42.962  24.633   4.741
95647W        W68072  44.330  17.129   0.753
95648W        W68073  39.897  12.357   0.267
95649W        W68074  18.658  23.232  11.086
95650W        W68075  32.046  28.467  10.432
95651W        W68076  32.512  44.861  12.867
95652W        W68077  28.013  30.541   2.408
95653W        W68078  10.712  23.130  14.892
95654W        W68079  44.416   4.858   2.184
95655W        W68080  43.793   4.216   4.671
95656W        W68081  43.912  23.019  12.444
95657W        W68082  32.521  26.504  10.448
95658W        W68083  33.988  41.918  14.512
95659W        W68084  30.544  39.821   0.858
95660W        W68085   5.279   5.769  11.072
95661W        W68086   3.275  21.513  13.377
95662W        W68087  37.477  12.812  11.874
95663W        W68088  43.273   9.223  12.865
95664W        W68089  24.043  40.944  11.902
95665W        W68090  21.723  12.835  10.995
95666W        W68091  10.729  36.363  10.917
95667W        W68092  12.794   0.944   2.719
95668W        W68093  18.624  37.941   2.192
95669W        W68094  26.991  27.544  10.433
95670W        W68095  23.579  41.503  14.349
95671W        W68096   5.733   2.442   2.320
95672W        W68097  36.510  22.706   4.175
95673W        W68098  41.359  13.763   0.384
95674W        W68099   7.333  42.296  10.624
95675W        W68100   9.798   3.809   2.861
95676W        W68101  36.883  16.262   3.850
95677W        W68102  10.353  10.215   1.894
95678W        W68103   0.868  32.433   3.711
95679W        W68104  24.155  26.067   2.766
95680W        W68105  33.532  10.384  11.392
95681W        W68106  18.758  40.942   4.334
95682W        W68107  28.942   6.709  10.616
95683W        W68108  19.050  11.670   0.804
95684W        W68109  20.647   3.741   2.190
95685W        W68110  19.236  10.176  12.856
95686W        W68111   7.893  43.356  14.358
95687W        W68112  14.782  10.847  14.286
95688W        W68113  21.541   2.824   1.350
95689W        W68114  15.279  21.142   4.601
95690W        W68115  10.221   8.386  12.897
95691W        W68116   7.827  42.866  10.606
95692W        W68117  28.030  39.335   1.800
95693W        W68118  25.213   4.247  14.011
95694W        W68119   0.914   8.317   1.372
95695W        W68120  41.371  23.238   3.177
95696W        W68121  32.605  31.410  10.424
95697W        W68122  12.327  22.560   3.295
95698W        W68123  41.861  31.583   4.195
95699W        W68124  15.121  29.133  14.959
95700W        W68125  23.234   3.239   0.800
95701W        W68126  32.438   4.427  11.574
95702W        W68127   9.278  32.516   0.739
95703W        W68128  30.571  32.572   2.376
95704W        W68129  42.504  19.764  13.324
95705W        W68130  40.469  25.064  11.879
95706W        W68131  26.052   5.810   2.833
95707W        W68132  33.990   6.787  12.423
95708W        W68133  26.663  18.606   2.765
95709W        W68134  12.632  20.200   1.708
95710W        W68135   3.868  34.090   2.410
95711W        W68136  39.324   4.322   2.778
95712W        W68137  42.454  30.575   2.852
95713W        W68138   8.861  44.394  12.842
95714W        W68139  32.975  24.206   1.369
95715W        W68140  24.528  33.409  12.447
95716W        W68141  11.763  20.133   0.480
95717W        W68142   1.783  33.078   3.189
95718W        W68143  23.178  36.081   2.854
95719W        W68144  36.080   9.196   4.263
95720W        W68145  26.191  23.995   4.299
95721W        W68146  31.985  42.330   0.384
95722W        W68147   2.336  17.591  14.969
95723W        W68148  21.061  43.315  12.387
95724W        W68149  39.863  22.169  14.826
95725W        W68150  43.983  38.531   3.336
95726W        W68151   6.330   2.331  13.435
95727W        W68152  16.622   3.255   4.671
95728W        W68153  13.221  16.598  13.859
95729W        W68154  20.217  31.053  11.523
95730W        W68155  18.139   8.183   1.310
95731W        W68156   2.802  12.247   3.326
95732W        W68157  31.565  23.153  13.387
95733W        W68158   9.739  10.642  14.497
95734W        W68159  33.511  15.818  14.862
95735W        W68160  35.895  27.068  10.493
95736W        W68161  33.114   3.906  10.600
95737W        W68162  24.039  38.965   1.273
95738W        W68163  35.884  22.080   2.820
95739W        W68164  39.816  13.256  13.984
95740W        W68165   8.271  11.275   4.827
95741W        W68166  19.233  11.668   1.308
95742W        W68167  41.454  28.094   3.310
95743W        W68168  38.978   6.285  13.944
95744W        W68169  35.495  31.968  12.834
95745W        W68170  12.618   1.252  12.458
95746W        W68171  24.559  25.141   0.427
95747W        W68172  20.635  28.960   3.764
95748W        W68173   1.434   6.301  11.568
95749W        W68174  34.064  36.411  11.501
95750W        W68175  26.682  12.761  12.431
95751W        W68176  15.658   7.288  11.067
95752W        W68177  21.574  21.257   1.917
95753W        W68178   1.769   1.288   1.268
95754W        W68179  38.000  43.454  12.085
95755W        W68180  35.461  18.577   1.292
95756W        W68181  31.935  30.913   2.378
95757W        W68182  11.781  31.911  13.943
95758W        W68183  21.141  33.469  12.047
95759W        W68184  19.273   0.978   1.391
95760W        W68185  16.251   3.361   2.737
95761W        W68186  16.205  36.538   3.750
95762W        W68187  25.983   9.777  14.280
95763W        W68188  20.142  38.344   3.256
95764W        W68189  23.649  30.549  11.492
95765W        W68190  43.802  30.462  14.951
95766W        W68191  24.205  11.795   3.267
95767W        W68192  35.045  41.806   3.170
95768W        W68193  27.041  37.967   1.924
95769W        W68194  24.985  38.878   0.905
95770W        W68195  23.008  36.379   0.309
95771W        W68196   0.792   4.384  14.880
95772W        W68197  17.688  22.214   0.374
95773W        W68198  11.851  28.938  14.862
95774W        W68199  40.323  40.385   3.674
95775W        W68200  14.763   9.726   1.216
95776W        W68201  32.577  40.918  10.448
95777W        W68202  43.324  10.820  13.024
95778W        W68203  18.050  30.530  14.009
95779W        W68204   0.270   2.448  14.777
95780W        W68205  20.626   0.880   0.883
95781W        W68206  31.613   6.835  14.342
95782W        W68207  10.795  26.548  11.460
95783W        W68208   4.731   2.226  13.484
95784W        W68209  34.566   0.873   1.372
95785W        W68210  10.851   5.715  10.622
95786W        W68211  40.326  28.930  11.569
95787W        W68212  24.192  42.415   2.750
95788W        W68213   3.816  17.122   4.679
95789W        W68214  41.420  42.423  11.595
95790W        W68215   8.815  21.677   3.242
95791W        W68216  22.007  42.827  14.483
95792W        W68217  33.019   5.732  11.585
95793W        W68218  26.654  15.651   0.816
95794W        W68219   8.393   9.204  14.415
95795W        W68220  25.108  34.401  13.442
95796W        W68221  17.608   5.343  14.432
95797W        W68222  16.124  36.576  11.019
95798W        W68223  17.164   4.325  14.902
95799W        W68224  28.135  22.525  12.932
95800W        W68225   1.785   9.234  11.396
95801W        W68226  38.041  25.067   5.208
95802W        W68227   9.863  44.348  14.874
95803W        W68228  26.649  20.581   2.353
95804W        W68229   4.220  21.091   3.740
95805W        W68230  34.375  31.524   2.257
95806W        W68231  15.100  30.630   1.301
95807W        W68232  21.657  43.876   4.227
95808W        W68233  42.883   0.837   4.787
95809W        W68234  34.001  14.623  12.539
95810W        W68235   2.279  15.612   3.738
95811W        W68236   8.321  17.656  14.819
95812W        W68237  23.666  19.154   3.660
95813W        W68238  44.998  22.540   4.128
95814W        W68239  12.664   6.196  13.992
95815W        W68240  40.012  44.761  13.339
95816W        W68241  43.335   9.799   1.210
95817W        W68242  29.141   2.846  14.309
95818W        W68243  35.440  24.526   3.367
95819W        W68244  44.950  21.076   2.356
95820W        W68245  41.334  19.591   3.214
95821W        W68246  22.171   9.738  12.046
95822W        W68247   2.950  43.925   4.716
95823W        W68248   7.249  16.226  12.448
95824W        W68249  29.450  22.227  13.328
95825W        W68250  14.146  21.188   3.748
95826W        W68251   0.374  19.135   2.260
95827W        W68252   6.735  42.523   3.817
95828W        W68253  20.633  28.056  11.976
95829W        W68254  32.486  27.047   2.697
95830W        W68255  25.707  41.989   0.741
95831W        W68256  21.160  25.579   2.683
95832W        W68257   1.465   3.293  12.466
95833W        W68258   5.256   7.725  11.911
95834W        W68259   1.440  27.959  13.380
95835W        W68260  42.886  36.842   3.267
95836W        W68261  17.079   5.326   1.857
95837W        W68262  40.362  34.597  14.943
95838W        W68263  44.456  43.372   1.429
95839W        W68264   0.248  36.369   1.243
95840W        W68265  15.646  16.652   3.268
95841W        W68266  21.574  42.361   2.767
95842W        W68267  37.015  36.536   1.919
95843W        W68268   3.459  41.455   4.249
95844W        W68269  12.283  25.103  13.842
95845W        W68270  21.613   0.467   0.340
95846W        W68271  22.708  40.946   1.412
95847W        W68272  12.120  23.596  14.024
95848W        W68273   9.671  38.857   3.363
95849W        W68274   6.423  38.556  14.923
95850W        W68275   3.953  24.634  13.372
95851W        W68276  42.944  24.010  11.389
95852W        W68277   9.183  22.166   4.203
95853W        W68278  11.333  16.708   0.922
95854W        W68279  44.007  36.882   4.141
95855W        W68280  11.775  25.179   2.326
95856W        W68281  31.454  36.386   2.726
95857W        W68282   6.682  17.614  12.942
95858W        W68283  30.052  20.684  14.907
95859W        W68284  32.091  19.539   9.939
95860W        W68285  10.299  28.592  12.895
95861W        W68286  19.207  18.598   3.362
95862W        W68287  43.859  30.112   1.812
95863W        W68288  30.616  16.627   0.802
95864W        W68289  38.372   4.728  12.951
95865W        W68290  14.098  37.372   2.826
95866W        W68291   8.725   8.898  13.044
95867W        W68292  25.594  29.124   4.242
95868W        W68293  39.980  42.424  12.893
95869W        W68294  36.547   6.426  13.832
95870W        W68295   5.277  37.998   3.868
95871W        W68296   3.715  22.037   3.773
95872W        W68297  31.545  21.535   4.191
95873W        W68298  25.511   1.821   3.838
95874W        W68299  26.089  12.128  13.971
95875W        W68300  11.313  38.906   4.336
95876W        W68301  44.790  34.084  13.336
95877W        W68302  21.116  10.751   1.770
95878W        W68303  37.059  39.832   1.347
95879W        W68304  27.664   1.442   3.213
95880W        W68305   3.299  36.041  10.623
95881W        W68306  27.968  19.697  11.952
95882W        W68307  23.677  13.664  10.615
95883W        W68308  37.499  15.794   4.785
95884W        W68309   2.349  23.564   0.790
95885W        W68310  16.242  31.102  13.051
95886W        W68311  23.594  21.054   0.330
95887W        W68312  33.076  38.343  13.328
95888W        W68313  19.158  26.130  11.011
95889W        W68314  12.627  36.875   1.452
95890W        W68315   2.412  29.661  13.016
95891W        W68316  43.937  34.469  13.956
95892W        W68317  19.666   9.240  13.007
95893W        W68318  19.569  24.057   0.907
95894W        W68319   9.754  18.254   2.319
95895W        W68320   1.970  34.116   1.933
95896W        W68321  40.038  37.864  13.404
95897W        W68322   7.390   3.848  11.520
95898W        W68323  44.804  28.665   3.297
95899W        W68324  33.402  13.134   2.668
95900W        W68325  42.513   1.359   4.127
95901W        W68326  34.386  24.523  10.426
95902W        W68327  12.703   1.256  13.803
95903W        W68328  39.870  24.591  13.525
95904W        W68329  18.759  14.146  10.134
95905W        W68330   5.390  39.880   2.359
95906W        W68331  31.940  31.610   4.813
95907W        W68332  23.665   8.726  13.931
95908W        W68333   3.435  33.549   1.370
95909W        W68334  25.612  42.458  11.589
95910W        W68335   0.372   2.413   2.830
95911W        W68336  15.131  11.767   4.333
95912W        W68337  17.111  29.624  11.560
95913W        W68338  27.604  36.929  14.469
95914W        W68339  17.601  31.032   2.805
95915W        W68340  20.135  42.936   2.902
95916W        W68341  27.491  21.573   4.814
95917W        W68342  11.698   4.915  10.898
95918W        W68343  31.407  27.959  10.562
95919W        W68344  15.306   4.422   0.839
95920W        W68345  31.108  21.730  11.861
95921W        W68346  12.266  37.006  11.431
95922W        W68347  39.893  39.014  10.502
95923W        W68348  13.310  35.090  11.984
95924W        W68349   7.748   8.352  14.871
95925W        W68350  28.077   3.298   2.338
95926W        W68351  29.555  20.638   1.823
95927W        W68352  36.992  10.861   4.205
95928W        W68353  23.575  30.117  14.930
95929W        W68354   4.336  18.610   4.282
95930W        W68355   4.307  26.586  12.010
95931W        W68356  36.513  37.524   9.944
95932W        W68357  33.913  13.142   4.628
95933W        W68358   3.802  25.185   3.202
95934W        W68359   2.746   1.334   0.372
95935W        W68360   9.272  18.119   4.806
95936W        W68361  17.743   5.844  13.350
95937W        W68362  41.317  13.730   0.727
95938W        W68363  21.033   9.849   3.217
95939W        W68364  22.543  24.512  14.804
95940W        W68365  21.529  31.550  11.385
95941W        W68366  32.398  23.062   4.210
95942W        W68367  42.444   0.965  11.009
95943W        W68368  31.027  25.481  14.009
95944W        W68369  44.825  32.469   3.730
95945W        W68370   5.725   2.963   2.683
95946W        W68371  37.028  29.662   1.759
95947W        W68372  13.252  11.674  10.583
95948W        W68373   1.350  21.022   0.923
95949W        W68374  35.461   9.655  13.000
95950W        W68375  17.697  18.198   0.919
95951W        W68376  25.620  30.068  11.076
95952W        W68377  26.184  11.310  13.322
95953W        W68378  32.117   6.242  11.459
95954W        W68379  32.433  22.217  14.018
95955W        W68380  12.211  15.222   3.854
95956W        W68381  26.512  39.008   0.962
95957W        W68382  40.475  10.198  11.543
95958W        W68383  22.662   4.803  10.586
95959W        W68384  31.043  16.255  12.860
95960W        W68385  39.393  35.475   0.347
95961W        W68386  26.498  44.479   0.919
95962W        W68387  18.147  27.080   4.726
95963W        W68388  34.040   3.306   4.797
95964W        W68389  33.384  13.612   4.299
95965W        W68390  24.197  41.022   2.864
95966W        W68391  12.292  15.778   4.120
95967W        W68392  34.498  13.263  12.970
95968W        W68393  33.549  12.358  10.460
95969W        W68394  44.346  41.343  10.057
95970W        W68395  12.705  27.519   4.711
95971W        W68396  28.584  35.043   4.770
95972W        W68397  34.911   4.858   4.628
95973W        W68398   9.280  19.101  11.462
95974W        W68399  27.040   9.767  12.418
95975W        W68400   4.803   5.205  14.905
95976W        W68401  42.026  27.088  10.563
95977W        W68402  37.973  13.626   1.299
95978W        W68403   5.872  18.784   0.284
95979W        W68404  29.054  16.307   4.749
95980W        W68405  16.184  32.944   1.931
95981W        W68406  31.987  13.692  10.637
95982W        W68407   5.918  21.090   3.663
95983W        W68408  40.803  40.479   1.274
95984W        W68409   5.875  23.598   2.715
95985W        W68410  42.333   4.882  12.538
95986W        W68411  23.194  22.039  12.515
95987W        W68412  22.617  15.098  12.021
95988W        W68413  15.289  22.144  14.342
95989W        W68414  11.139  24.210   9.587
95990W        W68415  10.160  33.520  13.506
95991W        W68416   1.278  38.861  14.023
95992W        W68417   1.298  38.905   3.258
95993W        W68418   9.692  30.552  14.505
95994W        W68419   0.290  19.062   3.326
95995W        W68420  41.983  26.507  13.353
95996W        W68421  37.472  37.970  13.887
95997W        W68422  17.257  17.197  13.986
95998W        W68423  28.145  43.428   3.649
95999W        W68424  35.590  26.502   0.800
96000W        W68425   9.818  26.688  13.953
96001W        W68426  30.987  26.602  13.476
96002W        W68427  16.770   1.370   1.271
96003W        W68428  17.733  18.775   4.801
96004W        W68429  26.593  43.358  13.346
96005W        W68430  43.340   3.233   3.369
96006W        W68431  20.132   2.426  14.758
96007W        W68432  42.861  42.940   0.390
96008W        W68433  38.057  25.549   4.831
96009W        W68434  20.592  17.558   4.185
96010W        W68435  15.146  43.402  12.918
96011W        W68436  37.461  15.584  13.381
96012W        W68437  37.465  37.928  14.851
96013W        W68438  27.490  38.929   3.269
96014W        W68439  40.989   9.200   3.187
96015W        W68440  10.322   1.389  13.341
96016W        W68441  30.431  42.390  14.954
96017W        W68442  26.573  30.472  14.438
96018W        W68443  15.184  23.606   3.827
96019W        W68444  38.387  10.805   3.311
96020W        W68445  39.333  37.961   2.282
96021W        W68446  26.464  14.179   0.906
96022W        W68447  35.485   0.974  14.940
96023W        W68448  22.245  26.200   2.760
96024W        W68449  22.560  25.977  12.077
96025W        W68450  40.530   4.449  10.542
96026W        W68451   7.795   9.386  11.945
96027W        W68452  40.871   2.340   2.226
96028W        W68453  25.522  11.306   1.262
96029W        W68454  28.056  23.639   3.323
96030W        W68455   0.331   9.870   3.204
96031W        W68456  25.677   6.733  11.563
96032W        W68457  26.107  27.037  14.935
96033W        W68458  44.273  12.165   0.372
96034W        W68459  37.502  12.137  14.351
96035W        W68460  13.205   1.327   2.241
96036W        W68461   6.182   1.736  13.411
96037W        W68462   3.352  18.287   1.788
96038W        W68463  18.156  43.838   0.467
96039W        W68464  15.288  27.588   1.291
96040W        W68465  32.513  10.177  11.977
96041W        W68466  18.636  43.419   1.316
96042W        W68467   4.219  36.405  12.370
96043W        W68468   1.450   0.766  10.473
96044W        W68469   1.465  27.115   2.273
96045W        W68470  32.926  39.947  14.810
96046W        W68471  40.800  12.153  13.476
96047W        W68472   0.985  39.450  11.457
96048W        W68473  37.990  43.489   4.634
96049W        W68474  18.581   1.848  13.374
96050W        W68475  37.555  13.311   4.621
96051W        W68476  32.593  16.750   2.294
96052W        W68477   0.356  44.270   0.304
96053W        W68478  16.692   8.692   0.826
96054W        W68479  22.045  11.861   0.385
96055W        W68480  28.157  12.289   0.914
96056W        W68481  41.813   8.880  10.515
96057W        W68482   9.878  34.572   2.308
96058W        W68483  30.085  41.864  14.398
96059W        W68484  19.140  26.018  12.058
96060W        W68485  41.983   6.257   3.835
96061W        W68486  16.083  17.222   4.250
96062W        W68487  14.808  31.928   1.846
96063W        W68488  33.534  21.239   2.418
96064W        W68489  40.969  34.013  14.828
96065W        W68490  28.631  23.650   3.742
96066W        W68491   4.227  32.141   2.694
96067W        W68492   7.320  36.892  11.882
96068W        W68493  25.097  16.179   4.715
96069W        W68494  24.037  28.978  12.426
96070W        W68495   3.783  36.906  13.046
96071W        W68496  36.902  32.070  10.138
96072W        W68497   3.727  36.469  12.005
96073W        W68498  22.027  25.687   1.425
96074W        W68499   6.196  40.940  10.446
96075W        W68500  18.573  24.631   4.332
96076W        W68501  16.119   3.715  12.570
96077W        W68502  18.258  40.502   3.781
96078W        W68503   2.396  41.820  12.507
96079W        W68504  28.173  38.025   3.696
96080W        W68505  35.882  12.180   1.911
96081W        W68506  26.083  24.676   3.289
96082W        W68507  17.107  14.223   1.288
96083W        W68508  35.387  19.068  10.552
96084W        W68509   7.908   1.925   2.301
96085W        W68510  37.059  44.863   1.926
96086W        W68511   2.285   0.857  11.441
96087W        W68512   8.290   3.217  10.469
96088W        W68513  10.833  13.758   0.419
96089W        W68514  32.423  24.974   4.769
96090W        W68515  19.605  41.310  13.880
96091W        W68516  40.351   2.247   4.137
96092W        W68517  44.840  30.412  11.053
96093W        W68518  15.219  21.183  14.794
96094W        W68519  17.220  19.284  12.034
96095W        W68520   7.312  42.457   0.476
96096W        W68521  32.627  25.093   2.711
96097W        W68522   9.711  12.148  13.002
96098W        W68523  23.100   2.838   4.192
96099W        W68524  38.029   3.757   2.292
96100W        W68525   2.271  44.940   0.760
96101W        W68526  29.050   4.937  12.056
96102W        W68527  42.377  15.185   0.737
96103W        W68528  16.795   9.238   3.341
96104W        W68529  27.470  30.497   4.662
96105W        W68530  14.644  16.599   4.724
96106W        W68531  22.537  36.411  13.344
96107W        W68532   1.903  23.674   3.209
96108W        W68533  11.646  20.071   0.756
96109W        W68534  19.130  15.241   4.703
96110W        W68535  39.495  16.682  13.985
96111W        W68536  22.610  11.658  10.531
96112W        W68537  38.952  13.828   4.685
96113W        W68538  38.875  22.538   0.244
96114W        W68539  35.540  43.323  13.933
96115W        W68540   0.463  34.051   4.323
96116W        W68541  28.454  28.520  14.925
96117W        W68542   1.859  36.378   3.302
96118W        W68543  33.942  12.260  13.904
96119W        W68544  10.719  25.146  10.555
96120W        W68545  18.223   5.292   0.452
96121W        W68546   4.261   9.697   3.668
96122W        W68547  24.595  22.694   3.362
96123W        W68548  10.382  21.091  12.499
96124W        W68549   4.312  21.256   5.240
96125W        W68550  28.119   6.215  10.414
96126W        W68551  17.612  19.759  14.791
96127W        W68552  16.237   3.215   9.927
96128W        W68553   7.276   2.421  14.396
96129W        W68554   5.855  12.791   0.879
96130W        W68555  15.231   1.739   5.201
96131W        W68556  43.924  30.970   0.729
96132W        W68557  23.701  41.365  10.504
96133W        W68558  24.583  19.248   0.458
96134W        W68559  22.593  36.958  10.592
96135W        W68560  36.985  10.208  10.428
96136W        W68561  32.519  26.198  12.486
96137W        W68562  40.948  41.853   2.245
96138W        W68563  30.580  10.744   0.260
96139W        W68564  36.048  28.000   4.182
96140W        W68565  26.978  39.870   2.786
96141W        W68566   7.801  12.748   0.814
96142W        W68567  28.544  23.542   5.318
96143W        W68568  39.015  38.033   2.364
96144W        W68569   3.884  25.524  13.867
96145W        W68570  23.170  35.058   1.823
96146W        W68571  19.595  33.024   1.290
96147W        W68572  29.108  38.984   9.932
96148W        W68573   4.939  13.622   4.658
96149W        W68574  18.561  19.621   0.809
96150W        W68575  11.179   1.337   0.472
96151W        W68576  40.897  39.502  14.468
96152W        W68577   2.467   4.313   2.877
96153W        W68578  38.534  28.660  11.943
96154W        W68579   5.711  43.791   1.256
96155W        W68580  22.599  22.604  14.032
96156W        W68581   9.748  12.695  10.445
96157W        W68582  24.131   2.920   3.803
96158W        W68583  33.091  41.507  10.463
96159W        W68584  16.114   1.889  10.964
96160W        W68585   5.713   9.206  10.497
96161W        W68586  21.742  33.896   1.298
96162W        W68587  24.690   0.297   3.657
96163W        W68588  24.686  12.827  11.091
96164W        W68589   0.257  36.887   0.833
96165W        W68590  41.370  22.735  12.023
96166W        W68591  21.018   4.767   4.742
96167W        W68592  14.733  35.371   1.911
96168W        W68593  11.366  43.376  12.017
96169W        W68594  26.604  44.304   4.826
96170W        W68595  32.520  31.642  14.469
96171W        W68596   1.457  19.270  13.388
96172W        W68597  19.678  27.064  11.081
96173W        W68598  10.304  15.144  10.431
96174W        W68599  22.112  20.560   1.411
96175W        W68600   8.192   6.338   4.151
96176W        W68601  18.722  42.370   0.457
96177W        W68602  43.328   7.345   0.958
96178W        W68603   7.847   9.815   3.758
96179W        W68604  13.268  14.267   0.254
96180W        W68605  38.938  34.014   2.814
96181W        W68606  20.167  24.154  10.499
96182W        W68607  20.575  44.851  10.891
96183W        W68608  18.215  34.973   1.915
96184W        W68609  27.575  29.613  11.412
96185W        W68610  41.355  34.376  12.455
96186W        W68611  13.289  18.554   4.796
96187W        W68612  36.585   8.379  13.444
96188W        W68613  17.070  40.533   0.284
96189W        W68614   0.813  23.069  12.375
96190W        W68615  30.569  36.571  12.881
96191W        W68616  40.421  32.540   2.754
96192W        W68617  42.456  35.490  12.896
96193W        W68618  34.867  17.223  13.469
96194W        W68619  43.855  19.081  10.475
96195W        W68620  13.221  29.607   0.298
96196W        W68621  10.825  38.844  13.478
96197W        W68622  12.665  14.135  13.834
96198W        W68623  35.444  38.069   0.400
96199W        W68624  31.552  38.068   1.340
96200W        W68625  23.036  27.061  13.904
96201W        W68626  36.929  25.028  11.970
96202W        W68627  14.660   7.288   3.867
96203W        W68628  38.953   7.679  11.006
96204W        W68629  10.668   0.911  13.926
96205W        W68630  36.908  38.954  11.084
96206W        W68631  17.078   3.908   0.252
96207W        W68632   8.277  32.618  13.027
96208W        W68633  11.354  11.783   3.383
96209W        W68634   6.276  26.177  13.366
96210W        W68635  25.483  28.089  11.034
96211W        W68636  21.126  13.820   2.883
96212W        W68637   4.877  21.053  13.504
96213W        W68638  27.537  18.073  12.007
96214W        W68639  26.679  25.136   2.195
96215W        W68640  44.820   1.762  14.008
96216W        W68641  31.558  28.094  10.906
96217W        W68642   0.289   7.332   1.295
96218W        W68643  37.951  18.097   0.455
96219W        W68644  25.217   3.396   0.752
96220W        W68645  12.785   0.376   4.796
96221W        W68646  20.704  32.014  12.091
96222W        W68647  43.321  43.440   2.365
96223W        W68648  29.499   4.375   0.757
96224W        W68649  38.955  44.911   2.213
96225W        W68650  34.893   3.315  12.427
96226W        W68651   9.294   6.287  10.423
96227W        W68652  28.021   4.794  14.013
96228W        W68653  30.489  25.101   1.346
96229W        W68654   0.747  34.987  11.062
96230W        W68655  45.000   6.286  14.322
96231W        W68656   7.267   0.397  12.524
96232W        W68657  21.061   9.721  11.429
96233W        W68658  28.529  44.779  14.903
96234W        W68659   8.213  14.679   1.800
96235W        W68660  34.403  36.855  10.931
96236W        W68661  24.141  24.600  11.997
96237W        W68662  22.102  14.270  10.899
96238W        W68663  38.905   7.197   0.477
96239W        W68664   8.245   2.873   4.169
96240W        W68665  25.996  35.402   1.302
96241W        W68666  41.019  37.376  13.988
96242W        W68667  34.988   2.841  14.361
96243W        W68668  32.545  12.752  11.374
96244W        W68669  19.769  42.346  12.062
96245W        W68670   3.259  33.528   2.881
96246W        W68671  15.153  20.596  11.582
96247W        W68672  41.492  17.599   3.868
96248W        W68673   0.848  26.510   0.273
96249W        W68674  27.549   2.868   3.644
96250W        W68675  24.522  23.633  12.517
96251W        W68676  13.222  37.374   2.200
96252W        W68677  11.823  38.496   0.836
96253W        W68678   1.922  41.824  13.382
96254W        W68679   5.368  42.841   1.379
96255W        W68680  23.676  30.487  14.820
96256W        W68681  28.180   5.264  10.516
96257W        W68682  40.399  42.877   0.961
96258W        W68683   2.946  31.924   0.864
96259W        W68684  30.434  11.757   3.716
96260W        W68685  24.659  16.186   1.921
96261W        W68686  44.870  13.150  12.016
96262W        W68687   3.735  19.754  11.430
96263W        W68688   7.262  23.504   0.824
96264W        W68689   7.246   8.860   3.652
96265W        W68690  35.358   2.229   4.273
96266W        W68691   3.894  31.552   3.838
96267W        W68692   0.363  42.313  12.996
96268W        W68693  16.173  35.886  13.345
96269W        W68694  24.231  14.161  12.977
96270W        W68695  20.654  41.301  11.456
96271W        W68696  15.647  30.471  12.866
96272W        W68697   2.353  37.527  11.059
96273W        W68698  30.085  24.704   9.471
96274W        W68699  17.622  21.235   2.861
96275W        W68700  37.471  32.621  13.905
96276W        W68701  35.080  23.642   4.663
96277W        W68702   0.852  25.592  10.963
96278W        W68703   4.893  31.508  14.297
96279W        W68704  21.106  33.128  12.975
96280W        W68705  32.411  36.863   4.203
96281W        W68706  18.115  19.561  12.532
96282W        W68707  12.782   6.309   0.840
96283W        W68708  18.257   7.308   3.854
96284W        W68709  30.965  40.848  13.913
96285W        W68710   1.240  25.605   3.342
96286W        W68711  11.232  27.569  11.596
96287W        W68712  16.688  29.446  14.022
96288W        W68713  24.992  34.922  14.872
96289W        W68714  32.482  15.703   4.643
96290W        W68715   4.380   5.397  13.425
96291W        W68716  15.663  27.954  10.979
96292W        W68717  19.117   6.867  11.442
96293W        W68718   0.393   7.836   3.824
96294W        W68719  18.689  15.592   2.844
96295W        W68720  43.430  30.591  10.028
96296W        W68721  23.111  21.536   4.270
96297W        W68722  43.790  15.704  13.444
96298W        W68723   2.440  26.465   2.786
96299W        W68724  25.970  15.651  12.565
96300W        W68725  11.624   3.944  14.922
96301W        W68726  31.004  31.896   5.164
96302W        W68727  35.052  12.615  12.976
96303W        W68728  30.117  43.788  14.950
96304W        W68729  25.017  34.049   3.788
96305W        W68730  25.625  17.686  14.441
96306W        W68731   7.346  36.909  13.479
96307W        W68732  44.958  10.642   1.915
96308W        W68733  39.063  38.493  14.484
96309W        W68734  43.389  24.712   2.414
96310W        W68735  44.781  22.662  13.870
96311W        W68736  30.498  20.753   0.778
96312W        W68737  22.542  32.985   1.773
96313W        W68738  20.165  21.672   0.276
96314W        W68739  22.230  35.047   1.341
96315W        W68740  16.762  35.421  13.058
96316W        W68741  33.050  14.190   0.739
96317W        W68742   2.921  42.348  11.390
96318W        W68743   1.829  18.092   1.220
96319W        W68744  42.318  21.697   5.684
96320W        W68745  23.680  27.655   1.351
96321W        W68746  20.168  44.276   2.858
96322W        W68747   5.769  18.100  10.567
96323W        W68748  41.791  12.819   0.786
96324W        W68749   3.905  27.126   0.800
96325W        W68750  32.578   6.825   2.375
96326W        W68751   2.290   4.774  11.579
96327W        W68752  32.985  37.354   0.395
96328W        W68753  43.852  10.799  12.960
96329W        W68754  28.185  20.209  11.904
96330W        W68755  30.621   8.292   2.857
96331W        W68756  25.139   2.798   3.166
96332W        W68757  36.377  36.873  11.024
96333W        W68758  17.614   2.889  10.493
96334W        W68759  33.533  19.610  10.054
96335W        W68760   6.746   2.952   0.869
96336W        W68761  33.582  19.767   2.691
96337W        W68762  35.425   7.311   3.655
96338W        W68763  36.365   6.824  11.478
96339W        W68764   8.389   6.382   1.732
96340W        W68765   2.889  14.224   3.701
96341W        W68766  34.480  13.656   4.708
96342W        W68767   3.343   9.289  13.365
96343W        W68768  26.482  14.119  14.321
96344W        W68769  30.439   3.737   3.821
96345W        W68770   6.360  16.754   3.786
96346W        W68771  20.731  23.661   0.878
96347W        W68772  18.779   6.248   5.156
96348W        W68773  42.984  27.532   3.852
96349W        W68774  11.755  41.448  11.120
96350W        W68775  34.563  13.675   3.218
96351W        W68776  40.414   7.850   1.897
96352W        W68777  39.867  10.286  10.915
96353W        W68778  30.944  37.876  10.494
96354W        W68779  41.831   8.298   1.767
96355W        W68780  14.167  28.489  12.409
96356W        W68781  30.042  22.202  11.382
96357W        W68782  26.678  22.164  10.414
96358W        W68783   8.333  36.902  12.828
96359W        W68784  44.350   7.680   1.347
96360W        W68785  28.027  33.519   0.276
96361W        W68786  26.080  14.612  13.345
96362W        W68787   2.947   2.882  10.421
96363W        W68788  18.292  28.943   3.353
96364W        W68789  16.764  40.497   2.337
96365W        W68790   9.329  13.186  14.376
96366W        W68791   3.876   4.817   1.719
96367W        W68792  23.513  33.028   4.236
96368W        W68793  32.129  17.108  11.939
96369W        W68794  37.509  44.262   2.418
96370W        W68795  42.333  28.663   2.194
96371W        W68796  26.550  11.686  11.381
96372W        W68797  19.093  36.529  14.295
96373W        W68798   0.318  33.427   2.261
96374W        W68799  32.022  10.328   1.214
96375W        W68800  25.140  25.711  14.286
96376W        W68801  10.293  11.277   0.857
96377W        W68802   8.880  11.321  12.888
96378W        W68803   5.781  11.866  11.916
96379W        W68804  11.863  16.708   0.935
96380W        W68805  19.240  41.476  14.782
96381W        W68806  42.477   9.714  13.501
96382W        W68807  29.043  20.564   2.419
96383W        W68808   0.488  35.086  13.972
96384W        W68809   2.963  17.234  11.446
96385W        W68810  22.545  12.824  12.473
96386W        W68811  43.999  17.082  12.842
96387W        W68812  37.393  18.791  11.947
96388W        W68813   4.801   0.851   0.810
96389W        W68814  20.559  27.074   4.735
96390W        W68815  25.085  37.011  12.009
96391W        W68816  40.041   6.191   0.736
96392W        W68817  25.197  30.911  11.415
96393W        W68818  23.586  16.281   1.370
96394W        W68819  36.096   6.897  12.958
96395W        W68820  30.519   0.420  13.831
96396W        W68821   8.220   1.368  12.453
96397W        W68822  30.651   5.371   2.899
96398W        W68823  43.490  39.900   3.223
96399W        W68824  31.575  24.012   1.232
96400W        W68825  44.795   9.843   4.675
96401W        W68826  43.009  27.680   4.759
96402W        W68827   2.806   0.376  13.893
96403W        W68828  10.346   9.200  14.312
96404W        W68829  41.309   1.975  11.880
96405W        W68830  25.490   2.341   4.619
96406W        W68831  19.156  15.101   1.909
96407W        W68832   8.771  23.041   3.713
96408W        W68833  25.051  18.717  13.504
96409W        W68834  29.121  37.083  12.474
96410W        W68835  20.568  34.499  12.997
96411W        W68836  12.241  28.549  13.541
96412W        W68837   6.888  25.146  11.532
96413W        W68838  23.012   8.811  10.951
96414W        W68839   2.431  29.665  10.990
96415W        W68840  18.587  44.990   1.269
96416W        W68841   0.452  25.979   1.909
96417W        W68842   9.732  18.745  12.502
96418W        W68843  26.087  36.434   3.251
96419W        W68844   4.247  43.923  11.911
96420W        W68845  38.990  21.177  11.945
96421W        W68846  27.998  40.935  13.430
96422W        W68847  21.680  29.083   0.460
96423W        W68848  19.650  37.906  10.596
96424W        W68849  12.213  16.603  10.620
96425W        W68850   3.302  27.967  12.997
96426W        W68851  26.630   8.297  13.485
96427W        W68852  15.108  30.027  13.861
96428W        W68853  10.655  31.440  11.963
96429W        W68854  30.416  12.704  12.412
96430W        W68855  42.294   8.229  10.421
96431W        W68856  32.623  11.789  13.913
96432W        W68857  18.657  10.655  14.800
96433W        W68858  38.524  14.695  14.367
96434W        W68859  31.544   2.472   2.898
96435W        W68860  12.641  40.364   0.740
96436W        W68861  40.503  32.419   3.387
96437W        W68862  17.577  30.535  12.836
96438W        W68863   5.748  44.848  13.344
96439W        W68864  31.044  26.524   2.859
96440W        W68865  23.025  32.052   3.839
96441W        W68866  37.500   8.187  10.585
96442W        W68867  39.877  29.471  11.427
96443W        W68868  12.664  32.909   3.687
96444W        W68869  38.986  40.911  12.870
96445W        W68870   8.395  11.659   0.417
96446W        W68871  31.480  41.038   0.474
96447W        W68872  31.108  14.283   3.754
96448W        W68873   4.399  15.271  10.486
96449W        W68874  13.320  41.845  12.413
96450W        W68875  13.176  25.105  13.481
96451W        W68876   8.255   2.367  14.423
96452W        W68877  31.560  41.795  14.409
96453W        W68878  13.724   7.384   1.806
96454W        W68879  26.115  39.865  13.373
96455W        W68880  18.237  39.840   4.609
96456W        W68881  21.146  44.937  10.635
96457W        W68882  10.287  14.179   2.198
96458W        W68883  24.672   1.844   4.181
96459W        W68884  19.771  36.878  14.934
96460W        W68885  26.560  25.051   3.742
96461W        W68886   9.198  11.722   4.703
96462W        W68887   4.292  37.940  10.498
96463W        W68888  18.623  43.841   1.432
96464W        W68889  40.427  21.098   5.266
96465W        W68890  42.512  12.275  12.984
96466W        W68891  39.876  38.859   1.761
96467W        W68892  20.548  22.023   1.336
96468W        W68893  38.903   3.828   1.900
96469W        W68894  16.703  12.274  14.816
96470W        W68895  44.283  11.206   2.363
96471W        W68896  28.556  42.484   2.666
96472W        W68897  11.335   0.799   4.310
96473W        W68898  42.792  15.644   5.166
96474W        W68899  42.968  17.704   4.208
96475W        W68900   7.748  37.443   5.214
96476W        W68901  15.120  28.471  10.482
96477W        W68902   1.917  39.857   1.879
96478W        W68903  24.974  10.248   2.820
96479W        W68904  23.000  17.236  13.383
96480W        W68905   3.737   9.672   4.125
96481W        W68906   8.743   5.337  12.894
96482W        W68907  39.378  13.772   0.831
96483W        W68908  38.559   6.246   1.238
96484W        W68909   5.399  17.562  12.545
96485W        W68910  31.924  20.128  12.370
96486W        W68911  15.724  34.931   0.827
96487W        W68912  10.721  34.373   2.820
96488W        W68913   6.194  22.187  11.938
96489W        W68914  41.481  36.529  12.890
96490W        W68915   8.877  19.646  14.822
96491W        W68916  39.955  43.805  13.435
96492W        W68917  42.489  34.391   3.312
96493W        W68918  13.838  21.691   1.390
96494W        W68919  26.045  32.070  10.928
96495W        W68920  17.179  35.109  13.017
96496W        W68921  25.971   4.939  14.455
96497W        W68922   2.374  11.258   2.352
96498W        W68923  10.198  44.398   3.146
96499W        W68924  32.890  43.936  14.957
96500W        W68925  17.230  33.455  10.596
96501W        W68926  19.607   0.955  12.885
96502W        W68927  12.253  25.088   0.368
96503W        W68928  12.806  35.060   2.333
96504W        W68929   9.336   0.474  12.004
96505W        W68930  33.919  24.675  12.931
96506W        W68931  42.925   7.368   2.871
96507W        W68932  26.026  27.630  12.567
96508W        W68933   4.299  42.444  14.912
96509W        W68934  34.937  14.806   1.391
96510W        W68935  34.528  20.128  14.010
96511W        W68936  24.513  38.328  11.873
96512W        W68937  36.072  39.827   4.707
96513W        W68938  15.275   0.297  13.943
96514W        W68939  32.141  24.530  11.531
96515W        W68940  29.593  43.976   3.744
96516W        W68941  25.515  24.200   4.241
96517W        W68942  11.811  33.399  13.308
96518W        W68943  30.503  39.413  14.406
96519W        W68944   3.253  27.171  14.948
96520W        W68945  39.446  24.535   4.759
96521W        W68946   4.777  16.636  12.578
96522W        W68947   8.735  35.931  12.363
96523W        W68948  12.820   6.771  13.405
96524W        W68949   8.265  12.800   4.698
96525W        W68950  26.044   1.823   3.706
96526W        W68951   7.898  10.658   4.228
96527W        W68952  20.712  40.370   4.301
96528W        W68953  12.697   4.851   0.399
96529W        W68954  26.581  35.888  11.491
96530W        W68955  44.282  41.874  14.456
96531W        W68956  37.565  42.786  13.536
96532W        W68957  13.602  22.034  10.495
96533W        W68958  13.217   2.770   2.755
96534W        W68959  28.519  29.975   0.955
96535W        W68960  34.074  17.154   2.829
96536W        W68961  12.830  21.627  12.969
96537W        W68962  29.094  23.080   3.316
96538W        W68963  13.196   8.206   4.143
96539W        W68964  31.467  15.620   4.314
96540W        W68965  30.523  22.568  13.905
96541W        W68966   2.300  34.945   0.836
96542W        W68967  35.590  22.735   4.728
96543W        W68968  42.834  40.969   4.315
96544W        W68969  25.006   0.422   2.785
96545W        W68970  15.199  36.413  10.889
96546W        W68971  22.699  15.726   2.220
96547W        W68972  33.454  13.661   2.721
96548W        W68973   9.326   7.823   0.306
96549W        W68974   1.965  40.998  13.904
96550W        W68975  28.649  18.129   0.738
96551W        W68976  42.507  29.534   3.237
96552W        W68977  17.571  11.672   3.260
96553W        W68978  25.962  22.006   0.442
96554W        W68979  33.106  20.066  14.827
96555W        W68980  32.068  41.340   4.197
96556W        W68981  28.963  40.987  13.323
96557W        W68982   6.769  33.579  13.800
96558W        W68983  34.081  16.160  10.600
96559W        W68984  44.762   1.743   4.184
96560W        W68985  15.596   1.463  12.509
96561W        W68986   4.230   9.193  12.839
96562W        W68987  19.063   0.403  12.360
96563W        W68988  34.035   1.757  13.342
96564W        W68989  32.935  42.917   4.653
96565W        W68990  43.002  29.472  14.424
96566W        W68991   3.340   4.943   1.353
96567W        W68992  25.518  10.773  14.480
96568W        W68993  14.283   3.460  12.059
96569W        W68994  13.666  27.509  11.912
96570W        W68995  16.696  21.529  11.964
96571W        W68996  24.095   8.795   0.839
96572W        W68997   2.833  42.283   2.367
96573W        W68998  30.929  24.143  11.560
96574W        W68999  35.059  40.965  12.554
96575W        W69000   6.827  38.932  14.410
96576W        W69001  24.193  26.549   3.865
96577W        W69002  11.668   5.334  11.507
96578W        W69003  10.782   1.272   0.392
96579W        W69004  19.702  11.237   4.632
96580W        W69005  25.705  15.160  13.342
96581W        W69006  26.156  22.123   0.895
96582W        W69007  36.466  40.896  12.498
96583W        W69008   9.764  20.688  13.511
96584W        W69009  37.887  12.127  14.286
96585W        W69010  15.279  38.058  11.498
96586W        W69011  18.187  33.995  13.058
96587W        W69012  21.671  11.682   9.460
96588W        W69013  27.981  24.695   2.215
96589W        W69014   7.872  19.126   4.835
96590W        W69015  11.166  39.060  11.950
96591W        W69016   1.836  30.022  14.955
96592W        W69017  32.940  41.041  13.002
96593W        W69018   5.875   8.867   3.275
96594W        W69019   4.805  33.036   4.304
96595W        W69020  35.361   7.216  14.974
96596W        W69021   7.748  39.958   1.758
96597W        W69022   9.861   1.757   3.240
96598W        W69023  10.156  17.132  11.594
96599W        W69024  26.505  27.979   2.333
96600W        W69025  43.923  42.895  11.898
96601W        W69026  18.219   5.232   2.795
96602W        W69027  41.909  20.738  10.071
96603W        W69028  43.435  19.073   3.853
96604W        W69029  20.250   4.381  10.514
96605W        W69030  21.649  36.506  12.079
96606W        W69031  13.211  11.207   2.326
96607W        W69032  12.143  42.025  10.539
96608W        W69033  38.068   1.822  14.334
96609W        W69034  26.504  30.941  14.495
96610W        W69035  39.526  10.727   4.685
96611W        W69036   5.789  41.431   4.752
96612W        W69037  33.499  21.113   2.866
96613W        W69038  16.316   6.253   4.600
96614W        W69039   7.887  18.135  11.054
96615W        W69040   4.418  18.568  14.422
96616W        W69041  19.612   1.401   3.714
96617W        W69042  40.530  41.864   4.238
96618W        W69043  21.074   1.878   2.689
96619W        W69044  27.652   7.853  12.546
96620W        W69045   9.722  32.550   3.731
96621W        W69046   4.241  13.117  10.890
96622W        W69047  11.252  31.442   0.919
96623W        W69048  32.959   8.684  14.988
96624W        W69049  36.581   5.417  11.400
96625W        W69050  11.862   5.753   4.132
96626W        W69051  17.618   3.838  10.585
96627W        W69052  33.994  20.219   1.374
96628W        W69053   4.738  10.239  11.091
96629W        W69054  20.718  18.758   0.809
96630W        W69055  35.890  42.441   0.383
96631W        W69056  15.819  41.848  10.587
96632W        W69057  40.841  14.250   2.889
96633W        W69058  32.018   7.353  14.310
96634W        W69059  11.726  25.059  13.391
96635W        W69060  32.104   8.665  11.095
96636W        W69061  28.483  10.301   9.969
96637W        W69062   5.695  11.865  13.062
96638W        W69063  30.615  34.872  13.805
96639W        W69064  26.482  17.113  14.926
96640W        W69065  39.916  29.162   1.349
96641W        W69066  42.440  29.120   0.805
96642W        W69067  43.835  10.346   1.805
96643W        W69068  22.576  19.118   3.332
96644W        W69069  12.768  16.177   2.887
96645W        W69070  11.746  22.547   1.763
96646W        W69071  38.875  27.087  14.990
96647W        W69072  44.976   1.751   0.308
96648W        W69073  10.157  41.985  14.920
96649W        W69074  44.873  19.660  13.856
96650W        W69075  10.173  40.306   0.791
96651W        W69076  28.532  17.073  13.832
96652W        W69077  16.619   0.908  11.999
96653W        W69078  37.378   5.931  12.479
96654W        W69079  43.288  37.022  10.586
96655W        W69080   2.351   9.750  10.967
96656W        W69081  11.834  36.448  14.997
96657W        W69082  34.379  33.487   1.409
96658W        W69083   7.205  44.893  14.294
96659W        W69084  21.231  22.681  11.075
96660W        W69085   3.262  34.027  10.961
96661W        W69086  39.017  25.679  13.011
96662W        W69087   0.454  11.730   0.906
96663W        W69088  11.710  24.081  13.884
96664W        W69089  41.310  11.227   3.207
96665W        W69090  33.385  35.013   0.928
96666W        W69091  12.351   4.433   2.861
96667W        W69092   7.745  40.860   2.672
96668W        W69093  40.425  25.624  14.308
96669W        W69094   6.745  30.930  11.474
96670W        W69095  24.077  44.853  14.511
96671W        W69096  19.674   6.821   0.373
96672W        W69097   2.368   7.249  13.047
96673W        W69098  38.479  29.564   1.826
96674W        W69099  44.454   0.321  13.362
96675W        W69100   8.347  36.572   0.433
96676W        W69101  41.933   8.710   4.620
96677W        W69102  34.998  12.237  10.491
96678W        W69103   6.343  33.062  14.281
96679W        W69104  38.950  44.456  11.426
96680W        W69105  31.509   7.703  12.496
96681W        W69106   3.884  23.172   0.803
96682W        W69107  38.331  31.116   0.771
96683W        W69108   3.786  20.049   4.715
96684W        W69109  18.604   3.285  10.038
96685W        W69110  22.034  43.971   3.201
96686W        W69111  39.420  16.118  12.990
96687W        W69112  36.467   9.183  12.514
96688W        W69113  10.191  10.357  12.444
96689W        W69114   7.769  38.059  12.364
96690W        W69115  26.519  11.675   4.725
96691W        W69116   0.855  38.571  13.016
96692W        W69117  18.164   7.411  14.875
96693W        W69118   5.343   9.804   3.300
96694W        W69119   9.193  15.753   4.785
96695W        W69120  26.166  11.254  12.013
96696W        W69121  10.733  41.496   3.828
96697W        W69122   0.982   2.760  12.546
96698W        W69123  24.600  15.085  14.289
96699W        W69124  42.931  23.227   3.784
96700W        W69125  12.162  31.109  12.514
96701W        W69126  25.108   4.412   1.763
96702W        W69127  26.512  44.294  10.965
96703W        W69128  10.733  43.300  11.979
96704W        W69129  37.557  25.688   3.863
96705W        W69130  24.149  28.671  14.306
96706W        W69131   6.427  27.023   4.297
96707W        W69132  42.956  38.961   3.223
96708W        W69133  13.215   7.172  14.342
96709W        W69134  39.960  42.342  13.968
96710W        W69135  13.127  43.384   0.367
96711W        W69136   4.868  31.941   1.317
96712W        W69137   7.869   2.289  14.506
96713W        W69138  42.844  22.558   0.774
96714W        W69139  23.986  31.590   1.875
96715W        W69140  18.550  33.596   4.232
96716W        W69141  38.441   7.670  11.122
96717W        W69142   7.332  20.149   1.303
96718W        W69143  27.965   8.750   5.103
96719W        W69144   9.848   5.881   4.323
96720W        W69145  25.479  29.564   1.291
96721W        W69146   7.873  35.542  11.898
96722W        W69147  32.620   7.209  12.041
96723W        W69148  12.834  32.440   0.818
96724W        W69149  36.934  10.758  13.535
96725W        W69150  22.502  19.170   1.323
96726W        W69151  27.987  20.226  10.987
96727W        W69152  30.009  22.672   0.427
96728W        W69153  31.982   7.371  12.368
96729W        W69154  19.039  19.598  14.810
96730W        W69155  43.416  25.117  12.013
96731W        W69156  30.578   7.208  14.332
96732W        W69157  12.318  39.970   1.770
96733W        W69158   8.198  36.559  13.803
96734W        W69159  12.231   4.350   3.225
96735W        W69160   6.312   3.933   1.411
96736W        W69161  29.176  11.670  14.792
96737W        W69162  11.686  12.292  14.951
96738W        W69163  21.577   4.218   1.821
96739W        W69164  25.645  33.081  14.820
96740W        W69165  15.597  25.158  10.056
96741W        W69166   4.241  24.505   0.444
96742W        W69167   3.350  25.546   3.175
96743W        W69168  29.136  36.906  13.898
96744W        W69169  26.026   9.275   0.335
96745W        W69170   3.719   6.711   3.781
96746W        W69171  43.511  16.298  13.513
96747W        W69172  35.555  14.648   1.252
96748W        W69173  28.122  32.957  13.369
96749W        W69174  21.630  41.330   2.744
96750W        W69175   2.460  18.239   3.792
96751W        W69176  33.039  37.437   3.841
96752W        W69177  40.829  41.022   4.671
96753W        W69178  29.120   5.739   2.798
96754W        W69179  10.698  23.651   2.893
96755W        W69180  40.535  34.485   4.130
96756W        W69181  27.106  35.087  10.149
96757W        W69182  24.625  29.040   2.409
96758W        W69183  15.313   5.242   3.803
96759W        W69184  44.453  22.524   9.926
96760W        W69185  26.969  37.365  13.433
96761W        W69186  37.509  30.056  11.065
96762W        W69187  32.928  38.529   0.857
96763W        W69188  31.592  21.254  14.936
96764W        W69189  41.334  22.710  12.857
96765W        W69190  33.125  33.526   4.236
96766W        W69191  34.972  36.023   1.860
96767W        W69192  11.300  37.887  11.581
96768W        W69193  24.492  27.196   3.838
96769W        W69194  31.907  37.577   0.451
96770W        W69195  14.807  29.660  14.389
96771W        W69196  13.249  22.084  11.536
96772W        W69197  24.087  26.656   4.602
96773W        W69198  20.075  31.919  13.387
96774W        W69199  21.740   2.865   3.636
96775W        W69200   1.245   1.306   0.402
96776W        W69201   8.219  43.891   2.730
96777W        W69202  41.523  36.519  11.066
96778W        W69203  41.968  17.778   4.286
96779W        W69204   9.824   7.677  12.060
96780W        W69205   4.741  23.640  12.924
96781W        W69206   0.893  28.610   4.661
96782W        W69207  43.485  40.515   2.368
96783W        W69208   4.929  12.305  11.569
96784W        W69209  21.020  12.758  14.829
96785W        W69210  25.687  10.229  14.367
96786W        W69211  14.706  44.489  13.390
96787W        W69212  24.555  30.598  14.405
96788W        W69213   0.424   9.709  10.935
96789W        W69214  35.058  34.486  10.423
96790W        W69215  38.923  16.683   0.881
96791W        W69216  15.580  27.002  14.291
96792W        W69217  12.275  38.874   0.765
96793W        W69218  33.469  36.962  10.970
96794W        W69219  29.140  26.619  13.412
96795W        W69220  37.998  33.423  11.474
96796W        W69221  21.116  37.346   3.868
96797W        W69222  23.546  10.868  10.589
96798W        W69223  42.367   5.398  13.496
96799W        W69224  12.140  30.005   2.385
96800W        W69225  26.146  15.085  12.914
96801W        W69226  42.516  35.552  14.798
96802W        W69227  16.179  23.101   1.347
96803W        W69228  11.280  35.490   0.465
96804W        W69229   7.321  30.028  10.964
96805W        W69230   9.744   8.172   4.271
96806W        W69231  42.840  16.292   2.761
96807W        W69232  32.446  33.894   1.289
96808W        W69233  32.427   0.833   1.287
96809W        W69234  36.047  34.570  11.549
96810W        W69235   2.381  30.505   1.825
96811W        W69236  42.837  30.434   2.205
96812W        W69237  30.642  35.100   0.326
96813W        W69238  42.010   5.333   3.683
96814W        W69239  34.586  32.999  10.608
96815W        W69240   9.340  44.948  11.123
96816W        W69241  18.091  14.799  14.298
96817W        W69242  18.700  30.955  12.890
96818W        W69243   5.769  32.099   0.287
96819W        W69244  18.052  32.473  10.559
96820W        W69245  17.178  10.649   1.326
96821W        W69246  26.462  12.825  14.369
96822W        W69247  27.149  29.607  11.940
96823W        W69248   4.448  10.139   4.819
96824W        W69249  30.145  11.626   4.780
96825W        W69250   1.913  13.816  10.406
96826W        W69251  42.337  32.080   2.751
96827W        W69252   3.890  33.597   4.138
96828W        W69253  24.114   1.966  11.505
96829W        W69254  29.040   4.847  12.947
96830W        W69255  26.533  20.664  11.886
96831W        W69256  38.064   7.333   4.750
96832W        W69257  18.733   2.322  12.023
96833W        W69258   2.410  28.519  10.408
96834W        W69259  33.998  31.988   3.795
96835W        W69260  21.606  43.814  14.801
96836W        W69261  23.063  21.639  12.956
96837W        W69262  10.826  22.187   4.680
96838W        W69263   5.435  42.527  12.855
96839W        W69264  32.059  10.362   2.899
96840W        W69265  32.503  42.921   1.429
96841W        W69266  14.188  36.038   2.712
96842W        W69267  12.171  30.466  14.500
96843W        W69268  38.340  19.625   1.239
96844W        W69269  22.038  16.113  10.535
96845W        W69270  24.595  26.486   3.639
96846W        W69271  26.991   0.431   2.235
96847W        W69272  43.478  37.865   0.832
96848W        W69273  40.376  34.509   1.382
96849W        W69274  43.362  20.545  10.020
96850W        W69275   1.307   3.337  10.918
96851W        W69276  27.144  25.971  14.515
96852W        W69277  13.637  32.512  13.991
96853W        W69278  10.352  27.189   0.337
96854W        W69279  35.963  39.452  13.325
96855W        W69280  31.486  21.566  14.982
96856W        W69281   8.668  44.311  10.496
96857W        W69282   3.331  22.708   3.663
96858W        W69283  19.283  26.532  11.944
96859W        W69284   6.190  32.083  11.457
96860W        W69285  40.895   7.681   1.286
96861W        W69286   2.930   6.754   2.275
96862W        W69287  30.420  12.758   3.787
96863W        W69288   6.290  38.495   0.962
96864W        W69289  21.137  33.420  10.585
96865W        W69290   7.322  17.285  10.561
96866W        W69291   7.725   7.842  11.001
96867W        W69292  39.842   7.293   2.831
96868W        W69293   2.367  13.742   0.892
96869W        W69294  29.648   3.747   1.419
96870W        W69295  22.536  23.029  14.817
96871W        W69296   9.858  21.561   4.187
96872W        W69297  42.798  37.922  10.645
96873W        W69298  32.422  40.321   3.223
96874W        W69299  44.397   8.854  10.481
96875W        W69300  21.258  39.328   1.842
96876W        W69301  17.748  32.888   5.290
96877W        W69302  27.528  44.856   0.468
96878W        W69303  40.334  12.223   1.402
96879W        W69304  39.403  35.108  13.369
96880W        W69305  43.846  40.517  10.505
96881W        W69306  11.171  34.394  12.996
96882W        W69307  42.934  24.207   2.381
96883W        W69308  24.575  31.432  13.058
96884W        W69309  35.866   2.258  14.373
96885W        W69310   7.333  27.078   1.924
96886W        W69311  38.402  39.544  13.363
96887W        W69312  36.087  26.106   3.741
96888W        W69313  13.245   7.372   2.330
96889W        W69314  11.736  33.382  13.904
96890W        W69315   0.905  44.832   1.445
96891W        W69316  37.385  21.681  12.090
96892W        W69317  13.751  23.984   0.480
96893W        W69318  16.735   4.396   3.725
96894W        W69319  42.400  32.949  14.407
96895W        W69320   5.793  10.138  13.425
96896W        W69321  37.470  27.095   3.788
96897W        W69322  43.467  13.747  11.410
96898W        W69323  24.006  26.014  14.323
96899W        W69324  19.597  38.071  14.794
96900W        W69325  33.453  44.919   1.825
96901W        W69326  43.000  40.821  13.870
96902W        W69327  44.501  16.234   1.328
96903W        W69328  32.414   5.877  13.491
96904W        W69329  39.505  16.304   3.346
96905W        W69330  22.154  37.563   3.723
96906W        W69331   2.252  11.858   3.256
96907W        W69332  26.036  11.723  10.949
96908W        W69333  29.982  26.466   3.307
96909W        W69334   1.747  44.851   2.272
96910W        W69335   1.848  25.211   1.697
96911W        W69336  15.138  14.672   4.347
96912W        W69337  32.910  37.448  12.920
96913W        W69338  22.609  41.357   1.335
96914W        W69339  35.407  17.244  11.992
96915W        W69340  24.507  28.517  13.325
96916W        W69341   7.808  35.437  13.886
96917W        W69342  17.593  30.136   2.318
96918W        W69343  13.736  25.505   4.787
96919W        W69344  19.207  38.986   3.708
96920W        W69345  34.053  33.557   1.722
96921W        W69346   0.320  19.255   2.902
96922W        W69347   2.904   2.428  11.941
96923W        W69348  15.721  18.175   9.969
96924W        W69349  40.400  13.692  10.490
96925W        W69350  25.707   1.976  13.420
96926W        W69351  21.664  34.378   0.959
96927W        W69352   2.891  33.610  12.407
96928W        W69353  40.863  34.870  11.988
96929W        W69354  24.650   6.415   1.250
96930W        W69355  28.454   5.914  13.980
96931W        W69356  32.077  38.401   1.280
96932W        W69357   2.229   9.673   3.299
96933W        W69358  39.445  24.185  11.558
96934W        W69359  40.354  20.177  14.505
96935W        W69360  20.594  11.732   2.671
96936W        W69361  35.012  12.643   0.935
96937W        W69362   5.881  40.025   2.864
96938W        W69363  41.475   0.247  11.486
96939W        W69364   5.820  38.570  13.857
96940W        W69365  33.591  24.215   5.177
96941W        W69366  16.808  24.078  13.351
96942W        W69367   1.845  38.007   4.276
96943W        W69368   3.295   7.678  12.070
96944W        W69369  23.072  42.954   5.317
96945W        W69370  25.051  32.441   9.615
96946W        W69371  44.924  23.049  12.429
96947W        W69372  17.663  34.534   1.881
96948W        W69373  42.956   6.707  14.007
96949W        W69374   2.400  18.122  14.863
96950W        W69375   0.380  44.495  14.303
96951W        W69376  18.224  31.547   3.380
96952W        W69377  25.962   6.865  12.520
96953W        W69378  20.032   8.676  11.380
96954W        W69379  33.893  40.537   3.767
96955W        W69380  16.783  24.062   3.305
96956W        W69381  16.181  10.235   0.888
96957W        W69382  12.217  42.335  14.471
96958W        W69383  22.117  22.626   1.765
96959W        W69384   0.931   5.333  11.100
96960W        W69385  10.689   5.277   3.342
96961W        W69386   4.757  26.639  14.006
96962W        W69387  12.807  36.842   2.740
96963W        W69388   8.778  30.961   3.311
96964W        W69389  40.990  19.087   3.191
96965W        W69390  35.006  24.225  12.932
96966W        W69391  23.512  11.682  10.975
96967W        W69392  19.580  15.588  14.455
96968W        W69393  44.764  20.126   0.364
96969W        W69394   3.950  12.716  13.000
96970W        W69395   7.787  38.504   2.312
96971W        W69396  28.952   2.922  12.452
96972W        W69397   0.882  37.392   1.433
96973W        W69398  17.777  37.844  12.489
96974W        W69399  27.983  31.138  10.598
96975W        W69400  30.438  27.112   1.921
96976W        W69401  14.820   3.307   4.214
96977W        W69402  13.260  21.598   3.254
96978W        W69403   1.435  21.512   2.747
96979W        W69404  10.734  36.889  10.418
96980W        W69405  18.282  42.362  10.516
96981W        W69406   5.288  18.280   1.911
96982W        W69407   0.467   2.905   3.261
96983W        W69408  42.926  12.821  14.352
96984W        W69409   0.313   0.371   2.189
96985W        W69410  11.136  44.394   0.346
96986W        W69411  42.897  23.632   3.671
96987W        W69412   6.256   1.770  11.473
96988W        W69413  38.958   9.242   1.753
96989W        W69414  42.500  36.094   2.705
96990W        W69415  29.643  30.627   3.659
96991W        W69416  34.879  40.895  11.000
96992W        W69417  23.540  44.337  10.449
96993W        W69418  10.678   0.355  14.766
96994W        W69419  24.664  19.254   2.798
96995W        W69420  39.064  31.573  14.773
96996W        W69421  37.529  36.878   4.119
96997W        W69422   3.247  24.510  11.416
96998W        W69423  21.529  38.865   3.751
96999W        W69424  25.971  35.047   3.730
97000W        W69425  20.618   1.284  12.032
97001W        W69426  21.204  27.139   1.234
97002W        W69427  34.100   0.777   3.204
97003W        W69428  25.072  32.571   5.782
97004W        W69429  15.617  29.147   4.641
97005W        W69430  17.682  29.069  10.935
97006W        W69431   6.910  15.753  13.056
97007W        W69432   7.858   3.229   5.187
97008W        W69433  15.252   9.379   2.808
97009W        W69434  21.592  42.484  13.845
97010W        W69435  26.519   0.894  13.381
97011W        W69436  38.900  10.280   0.769
97012W        W69437  23.996   8.264  10.610
97013W        W69438  18.546  18.777   4.673
97014W        W69439  43.271  42.909  12.363
97015W        W69440  37.418  32.017   4.741
97016W        W69441  14.732  20.253  10.477
97017W        W69442   0.297  28.454   0.322
97018W        W69443   1.444   4.701   3.210
97019W        W69444  27.456  25.517  11.556
97020W        W69445  44.878  36.876   4.187
97021W        W69446   3.220  22.709  14.936
97022W        W69447  17.255   2.723  12.478
97023W        W69448  25.641  16.718  10.441
97024W        W69449  43.010  21.017   4.325
97025W        W69450  14.768   9.771  14.386
97026W        W69451  27.477  36.425   0.408
97027W        W69452  19.708  13.169  12.342
97028W        W69453   3.927  35.367   4.352
97029W        W69454  24.598  39.319  13.862
97030W        W69455  24.161  34.920   0.746
97031W        W69456   3.263  40.332  11.894
97032W        W69457  33.392  24.162   9.951
97033W        W69458  31.940  11.183   1.315
97034W        W69459  44.421  23.577  11.594
97035W        W69460  29.650  20.688   4.639
97036W        W69461   5.919  24.690   4.675
97037W        W69462  42.992  15.212  14.842
97038W        W69463  23.150  19.721   4.622
97039W        W69464  44.927  11.279  13.313
97040W        W69465  17.170  36.053  10.043
97041W        W69466  25.121   4.850  14.351
97042W        W69467   3.724  31.128  13.983
97043W        W69468  38.414  21.569   0.373
97044W        W69469  20.132  29.000   2.178
97045W        W69470   8.670   2.951   1.850
97046W        W69471  44.463   1.277  13.001
97047W        W69472  11.332   6.237  12.537
97048W        W69473   7.315   2.836   3.283
97049W        W69474  15.659  14.293   5.299
97050W        W69475   8.808  32.132   2.893
97051W        W69476  16.645  16.296  13.899
97052W        W69477   3.385  25.108  11.990
97053W        W69478  32.970  40.531   0.336
97054W        W69479  17.678  26.086   3.177
97055W        W69480  28.153  22.651  12.379
97056W        W69481  38.057  17.766  13.359
97057W        W69482  30.962  43.818   2.206
97058W        W69483  18.743  22.020   1.696
97059W        W69484  16.743  20.066  13.413
97060W        W69485  11.693  43.892  12.423
97061W        W69486  30.054  43.385   0.396
97062W        W69487  30.106  32.929   1.822
97063W        W69488  41.331  27.510  13.393
97064W        W69489   1.437  32.456  14.782
97065W        W69490   2.928  32.420  13.874
97066W        W69491  42.525   7.700  10.643
97067W        W69492  14.260   9.310   1.911
97068W        W69493  33.080  37.073   0.942
97069W        W69494  18.197  29.933  10.627
97070W        W69495   6.764  13.130   3.191
97071W        W69496  13.678   6.324   0.351
97072W        W69497   8.893  28.646   0.339
97073W        W69498  17.801  11.297   0.367
97074W        W69499  36.501  16.750   1.814
97075W        W69500  36.091  12.359  14.002
97076W        W69501   6.836  44.924  10.635
97077W        W69502  43.839  38.043   3.158
97078W        W69503  22.197  40.508  11.534
97079W        W69504  21.637  38.006  13.874
97080W        W69505   1.882  27.663  14.799
97081W        W69506  27.630  34.945  14.361
97082W        W69507   8.809  41.042  13.863
97083W        W69508   2.234   0.775   1.435
97084W        W69509  14.651  42.869   3.807
97085W        W69510   9.687   4.300   3.702
97086W        W69511   5.714  17.774   0.357
97087W        W69512  36.580  39.936  14.014
97088W        W69513  43.864  28.008   2.200
97089W        W69514  36.911  37.875  13.010
97090W        W69515  29.610   2.967   4.681
97091W        W69516   3.784  36.989   4.793
97092W        W69517  30.592  22.577   1.365
97093W        W69518   6.234   7.362   1.844
97094W        W69519   3.384   2.340  12.518
97095W        W69520  35.444  13.180   2.330
97096W        W69521  30.520  39.527  10.155
97097W        W69522  31.445  38.023  10.553
97098W        W69523  32.623  12.140  14.859
97099W        W69524   3.289  29.159  12.914
97100W        W69525   3.394   8.761   3.382
97101W        W69526  40.374  27.049  11.954
97102W        W69527   8.838  41.456  11.114
97103W        W69528  17.702  28.988   3.347
97104W        W69529  25.996  35.585   2.258
97105W        W69530   9.333   3.923   3.334
97106W        W69531  12.751   0.770  10.625
97107W        W69532  28.085  42.920   1.337
97108W        W69533   1.876  42.028   4.748
97109W        W69534   6.773  28.667  11.944
97110W        W69535  16.785  11.201  13.527
97111W        W69536  36.962  12.348   3.836
97112W        W69537  29.101   1.311  11.467
97113W        W69538   7.345  18.139   2.737
97114W        W69539  30.942   0.306   0.791
97115W        W69540   4.738  14.774   1.217
97116W        W69541  30.417  26.207  13.027
97117W        W69542  29.113  39.054   1.905
97118W        W69543  35.379   3.340  13.803
97119W        W69544   9.330  28.608  12.362
97120W        W69545  33.875  37.878  13.546
97121W        W69546  12.316  17.562  10.479
97122W        W69547  10.718  22.159  11.029
97123W        W69548   7.671  19.220   2.417
97124W        W69549   4.278  22.558  12.927
97125W        W69550  29.047  24.494  13.800
97126W        W69551  22.610   8.389   2.664
97127W        W69552  23.572  40.451   4.196
97128W        W69553  25.116  42.478  11.918
97129W        W69554   4.751  42.320   5.135
97130W        W69555   5.908  34.991   2.372
97131W        W69556  43.922  38.025   4.284
97132W        W69557  30.642  12.651  11.514
97133W        W69558   6.872  15.767   4.147
97134W        W69559   0.768   6.299  10.505
97135W        W69560  23.616   2.313   1.328
97136W        W69561  34.565  43.969  12.421
97137W        W69562  26.683   8.755   3.699
97138W        W69563  19.779  12.307  14.297
97139W        W69564  33.563  11.293  14.988
97140W        W69565  18.589   4.236  11.487
97141W        W69566   9.758  19.061  11.941
97142W        W69567   0.331  24.111  13.798
97143W        W69568  15.315  39.035   2.369
97144W        W69569   8.757  30.107  14.348
97145W        W69570  40.365  10.247  10.899
97146W        W69571  37.895  41.884  11.505
97147W        W69572  40.379   3.357   1.383
97148W        W69573  15.660   0.928   4.810
97149W        W69574  13.621  22.218   2.735
97150W        W69575  17.065  16.193  11.885
97151W        W69576  17.644  34.867  12.839
97152W        W69577  41.028  18.715   0.350
97153W        W69578  15.632  26.192  10.577
97154W        W69579  43.322  13.840   0.952
97155W        W69580   9.345  12.175   0.395
97156W        W69581  24.556  25.120  14.020
97157W        W69582  15.172  34.573  10.628
97158W        W69583  14.810  15.313  13.928
97159W        W69584  26.123  44.356   0.424
97160W        W69585   4.861   6.825   0.808
97161W        W69586  26.510   9.670  11.059
97162W        W69587  14.806  39.549   4.269
97163W        W69588  35.434  18.255   4.222
97164W        W69589  25.108   6.263   4.644
97165W        W69590  19.263  44.884  10.923
97166W        W69591  31.527  27.478  12.351
97167W        W69592  35.367  30.158   1.881
97168W        W69593  38.325  20.613   3.228
97169W        W69594   4.931   4.434   3.649
97170W        W69595  14.304  12.289   3.342
97171W        W69596  34.963  44.488  11.039
97172W        W69597   1.381   0.282   0.468
97173W        W69598  17.765  42.329   1.241
97174W        W69599  37.917  20.642   1.258
97175W        W69600  20.040  28.525   1.715
97176W        W69601  11.665  28.034  13.378
97177W        W69602  19.142   7.175   3.674
97178W        W69603  27.488  37.343   3.332
97179W        W69604   6.816   9.213   1.391
97180W        W69605  14.686   0.963  11.984
97181W        W69606  19.071  42.496   3.267
97182W        W69607  18.067  32.958   3.355
97183W        W69608   1.310   6.886  10.615
97184W        W69609  11.353  41.880   2.374
97185W        W69610  29.563  20.231  12.008
97186W        W69611  26.593  33.981   1.927
97187W        W69612  38.872   1.362  10.982
97188W        W69613  27.034   7.821  14.453
97189W        W69614  34.904  41.520   4.128
97190W        W69615  40.929  13.746  11.107
97191W        W69616  43.307  14.627   0.357
97192W        W69617  16.717  31.016   4.757
97193W        W69618  18.240   9.155  11.569
97194W        W69619   7.353  31.480  11.943
97195W        W69620  27.994  31.041   4.277
97196W        W69621   2.421   0.395  13.920
97197W        W69622  18.211   6.900  12.466
97198W        W69623  43.797  37.007   1.838
97199W        W69624  38.963  44.878   4.141
97200W        W69625  35.042  25.686   0.850
97201W        W69626  36.027  37.424  12.049
97202W        W69627  29.553  41.361  12.351
97203W        W69628  30.978  27.100  13.890
97204W        W69629  23.054  12.285   1.428
97205W        W69630   2.914  32.494   2.388
97206W        W69631   7.414  17.111  12.865
97207W        W69632  15.204  19.608   2.663
97208W        W69633  26.984  33.090   1.365
97209W        W69634  39.450  27.965  10.959
97210W        W69635  34.082  20.190   2.830
97211W        W69636  43.273  16.709  14.490
97212W        W69637  32.409  10.199   3.713
97213W        W69638  13.259  41.870  10.584
97214W        W69639  28.030  25.686   1.427
97215W        W69640  18.195  12.182   2.757
97216W        W69641  10.182  14.600   4.129
97217W        W69642  29.536   9.264   3.814
97218W        W69643  17.747  27.060  13.923
97219W        W69644   0.300  43.787   0.865
97220W        W69645  41.510  27.012   0.949
97221W        W69646  31.923  16.093  10.419
97222W        W69647  17.213  29.174  11.071
97223W        W69648  13.751  37.423   1.889
97224W        W69649   9.342  15.215   1.790
97225W        W69650   1.831   1.271   3.695
97226W        W69651  15.108  41.859  14.490
97227W        W69652  43.863  23.024  12.922
97228W        W69653  13.751  16.646   3.208
97229W        W69654  28.177  10.342   0.462
97230W        W69655  15.687  23.066   1.889
97231W        W69656  43.896  35.973  12.534
97232W        W69657   9.169  29.033   4.341
97233W        W69658  18.768  26.009  14.445
97234W        W69659  36.442  29.127  14.307
97235W        W69660  33.068  41.488   0.785
97236W        W69661   0.357  28.673  11.060
97237W        W69662  31.406  11.247   4.183
97238W        W69663   4.706  26.477   2.726
97239W        W69664  37.955   4.322  11.872
97240W        W69665  36.008   1.778   0.303
97241W        W69666  32.942  38.381   1.722
97242W        W69667  12.207  25.481  10.068
97243W        W69668  14.314  36.936  12.014
97244W        W69669  30.967  23.058  12.860
97245W        W69670  42.031  19.691   0.921
97246W        W69671   9.276   4.348   0.773
97247W        W69672  20.103   3.334  13.027
97248W        W69673  43.993  28.614  13.855
97249W        W69674  25.088  30.923  14.472
97250W        W69675  39.898   1.412   0.862
97251W        W69676  21.564   5.706  11.592
97252W        W69677  28.102  44.427   2.195
97253W        W69678   0.850  38.917   0.351
97254W        W69679   8.861   7.724   2.846
97255W        W69680  37.555  13.236   1.211
97256W        W69681  40.899  39.383   2.322
97257W        W69682  43.347   5.720   2.770
97258W        W69683  38.823  37.010   3.854
97259W        W69684  16.694  22.571  14.759
97260W        W69685   3.786  15.252   2.375
97261W        W69686  24.621  27.101  13.923
97262W        W69687  27.962  32.053  11.548
97263W        W69688   8.723  17.663  14.951
97264W        W69689  10.861  30.146  12.976
97265W        W69690  40.935  36.090  14.343
97266W        W69691  39.509  39.962   3.299
97267W        W69692  10.643  34.991  12.529
97268W        W69693  25.037  33.463  14.922
97269W        W69694  37.509  40.501   3.813
97270W        W69695   3.727  14.261   0.948
97271W        W69696  16.736  34.963  13.020
97272W        W69697  24.478   5.911  11.929
97273W        W69698  12.686  43.987  12.558
97274W        W69699  21.561   6.362   4.201
97275W        W69700  37.383  16.207  10.477
97276W        W69701  11.792  20.231   1.415
97277W        W69702   8.241  38.830   0.749
97278W        W69703  29.114  36.571  10.632
97279W        W69704   5.262   9.180   3.826
97280W        W69705  40.924  30.970   0.469
97281W        W69706  28.543  14.178  14.893
97282W        W69707  31.140  36.848  12.573
97283W        W69708  17.689  28.977  14.867
97284W        W69709  40.407  34.904  11.972
97285W        W69710  18.116  26.461   1.833
97286W        W69711  44.414  37.061  12.359
97287W        W69712  11.224  12.204  14.423
97288W        W69713  42.418  12.315   4.285
97289W        W69714  19.244  15.621  14.018
97290W        W69715  38.892  37.056  14.497
97291W        W69716  39.559   6.922   0.768
97292W        W69717  38.334  24.647  11.896
97293W        W69718  15.292  16.113  12.577
97294W        W69719  19.645  26.205  13.951
97295W        W69720  35.068  32.413   1.935
97296W        W69721  37.947  37.083   2.765
97297W        W69722   2.939  14.270  10.967
97298W        W69723  26.495  32.517  10.157
97299W        W69724  15.718  27.505   3.345
97300W        W69725   8.383  19.584  12.911
97301W        W69726  13.807  35.056   1.836
97302W        W69727   4.813  20.595   4.257
97303W        W69728  26.188  34.015  13.923
97304W        W69729  37.448  21.608   1.904
97305W        W69730  11.760  32.028   1.928
97306W        W69731  17.284  24.227   1.286
97307W        W69732   5.827  14.782  14.924
97308W        W69733  30.932  10.646   4.165
97309W        W69734  13.286   8.389  12.349
97310W        W69735  14.748   6.793  11.102
97311W        W69736   5.307   8.778   2.826
97312W        W69737  43.397  28.125   3.871
97313W        W69738   0.462  10.170   2.673
97314W        W69739  30.544  12.817   3.164
97315W        W69740  43.989  41.027  10.548
97316W        W69741  21.091  21.225  14.890
97317W        W69742  41.369  44.818   0.345
97318W        W69743  12.249  11.319  12.907
97319W        W69744   8.815  44.854  14.806
97320W        W69745  30.541  43.485  13.501
97321W        W69746  44.967  30.063   4.764
97322W        W69747  27.637  30.999  12.060
97323W        W69748  13.186  15.603  11.457
97324W        W69749  13.196  19.684   4.788
97325W        W69750  36.519  41.794   5.100
97326W        W69751  19.596   6.830   1.713
97327W        W69752  28.549  12.321   4.761
97328W        W69753  36.514   7.358  13.337
97329W        W69754  22.515  26.021  11.061
97330W        W69755  36.578  25.470  10.961
97331W        W69756  12.775  33.507   2.188
97332W        W69757  44.987  21.094  13.889
97333W        W69758   3.836  23.540   9.934
97334W        W69759  19.152  22.532  14.433
97335W        W69760  36.531  35.455   1.818
97336W        W69761  42.000  42.378  10.888
97337W        W69762  13.199  32.048   3.315
97338W        W69763  16.262  26.180  14.457
97339W        W69764  41.795  33.513  14.778
97340W        W69765   5.384   3.448  13.939
97341W        W69766  10.139  40.472   1.277
97342W        W69767  20.225  23.064  14.822
97343W        W69768   3.411  20.735  13.794
97344W        W69769  41.875  19.601  10.505
97345W        W69770   3.834  27.458  11.030
97346W        W69771  23.512   7.278  10.889
97347W        W69772   0.761  16.105   2.234
97348W        W69773  10.825  27.097   0.384
97349W        W69774  19.098   3.290   2.810
97350W        W69775   9.790  13.152   2.321
97351W        W69776  20.255   0.863  10.521
97352W        W69777  37.561  32.460  12.579
97353W        W69778  21.070   7.343  10.590
97354W        W69779  23.101   8.365   2.394
97355W        W69780  12.724   4.316  14.854
97356W        W69781  36.406   1.913  12.841
97357W        W69782  44.991  12.788   1.407
97358W        W69783  36.864  43.418  11.568
97359W        W69784  41.957  21.724  14.787
97360W        W69785  17.769  29.458  14.919
97361W        W69786  34.059   1.737   1.764
97362W        W69787  16.128  43.498  11.987
97363W        W69788   1.259  28.104  14.814
97364W        W69789   0.381   7.892   1.752
97365W        W69790  30.602  39.996   2.343
97366W        W69791  41.832  26.101   0.315
97367W        W69792  11.816  31.004  12.884
97368W        W69793  37.910   3.224  13.465
97369W        W69794  44.502   3.236   0.921
97370W        W69795  44.800   3.922   1.366
97371W        W69796  44.461  10.366  11.032
97372W        W69797  39.421   5.889   3.269
97373W        W69798  42.319  15.136  13.791
97374W        W69799  39.985  25.700  14.950
97375W        W69800  31.111  17.704   2.662
97376W        W69801   8.840  16.618   2.186
97377W        W69802   8.398  42.437  10.617
97378W        W69803  25.061  40.962  11.113
97379W        W69804  40.463  35.473   1.441
97380W        W69805   3.215  26.079   4.800
97381W        W69806  17.788  15.648   0.901
97382W        W69807  31.541   2.724  11.912
97383W        W69808  36.542  43.400   0.462
97384W        W69809  26.029  18.251  11.549
97385W        W69810  29.450  13.258   0.909
97386W        W69811   6.854  42.936  11.557
97387W        W69812  26.482   5.403   3.356
97388W        W69813  34.569  24.491   1.301
97389W        W69814  34.426  28.627  14.968
97390W        W69815  35.956   9.652  14.283
97391W        W69816   0.486  31.112   5.282
97392W        W69817   8.820  29.459   5.254
97393W        W69818  12.815   9.744  10.994
97394W        W69819   4.914   7.239   4.293
97395W        W69820  42.996  18.787   4.295
97396W        W69821   6.351  23.736  12.973
97397W        W69822  35.074   2.861   1.373
97398W        W69823  17.256  41.384  11.495
97399W        W69824  15.760  18.784   1.782
97400W        W69825   5.298  12.162  10.928
97401W        W69826  24.628  22.057   3.365
97402W        W69827  19.149  38.981  11.415
97403W        W69828  11.769  20.524  12.851
97404W        W69829  29.578  31.066  11.884
97405W        W69830  40.845  13.704   4.800
97406W        W69831  36.093  34.958  14.908
97407W        W69832  25.127  37.954   4.785
97408W        W69833  10.195  16.204   3.822
97409W        W69834  41.965  10.753   2.262
97410W        W69835  12.153   4.329  11.041
97411W        W69836  38.531  24.983   5.276
97412W        W69837  18.589   2.820   4.672
97413W        W69838  37.517  39.966  12.527
97414W        W69839   8.266  10.294   2.885
97415W        W69840   0.771   3.819  12.019
97416W        W69841  33.021  40.968   2.778
97417W        W69842  14.179  15.152  11.083
97418W        W69843  16.238   4.449  12.088
97419W        W69844  15.790   8.392  14.297
97420W        W69845   3.361   1.966  14.468
97421W        W69846  39.837  14.262  12.419
97422W        W69847  22.599  25.023   2.684
97423W        W69848  44.411  27.454   4.689
97424W        W69849  39.826   9.720  11.477
97425W        W69850  39.489   6.698   1.806
97426W        W69851  19.155  28.475   3.229
97427W        W69852  18.704  16.782  11.996
97428W        W69853   4.317  15.661  10.908
97429W        W69854  20.543  10.165   3.697
97430W        W69855   4.890   4.425  10.157
97431W        W69856  21.709  24.555   2.218
97432W        W69857  14.304  30.631   0.343
97433W        W69858  28.478   5.219  11.508
97434W        W69859  41.951  17.582  10.598
97435W        W69860  19.631  13.813  12.011
97436W        W69861  12.119  22.738   0.960
97437W        W69862  26.499  33.465  14.022
97438W        W69863  44.977  27.446   4.794
97439W        W69864   3.377  31.019  11.529
97440W        W69865   2.358  33.524  12.008
97441W        W69866  11.694  24.633  12.074
97442W        W69867   2.426  36.966  14.976
97443W        W69868  33.040   9.311  11.545
97444W        W69869  37.479   0.354  12.543
97445W        W69870   1.932  39.937   3.189
97446W        W69871   0.894  35.081   3.831
97447W        W69872  18.559  31.448  13.548
97448W        W69873  14.199  40.837  14.841
97449W        W69874  18.296  12.219  11.945
97450W        W69875  11.742  22.239   1.417
97451W        W69876  35.075  43.317  12.492
97452W        W69877  24.642   7.680  13.991
97453W        W69878  15.759  27.484   2.812
97454W        W69879  38.553   0.383  14.508
97455W        W69880  18.784  31.530   3.669
97456W        W69881  31.536  25.538   2.288
97457W        W69882   3.797   8.310   4.233
97458W        W69883  15.645  43.302   2.196
97459W        W69884  29.979   0.338  10.986
97460W        W69885  20.544  20.615   1.822
97461W        W69886  11.176  22.663   2.804
97462W        W69887  27.940  16.709  10.036
97463W        W69888  13.126   4.313   1.795
97464W        W69889  17.719  24.649  14.859
97465W        W69890   4.345  35.547  10.406
97466W        W69891  23.199   1.432   4.671
97467W        W69892  36.962   4.830  10.999
97468W        W69893   6.191  23.094   4.136
97469W        W69894  30.981  29.929   3.709
97470W        W69895  22.115  29.650   4.186
97471W        W69896  37.878  30.959  14.861
97472W        W69897   3.370  23.179  11.855
97473W        W69898  13.649  14.290  11.059
97474W        W69899  12.167  31.148   3.688
97475W        W69900  37.447   7.688  12.046
97476W        W69901  29.560  23.734  11.575
97477W        W69902  20.680  20.687  11.889
97478W        W69903  38.558  22.658   4.819
97479W        W69904  14.328   4.425   2.378
97480W        W69905  42.978  25.141   3.217
97481W        W69906  28.554  22.572  13.876
97482W        W69907   2.349   9.680  14.969
97483W        W69908  15.285  19.276  12.482
97484W        W69909  30.424  11.285  13.811
97485W        W69910  18.578  39.826  14.362
97486W        W69911  25.167   7.342   0.912
97487W        W69912  44.863   2.460  12.524
97488W        W69913  36.019   1.286  14.810
97489W        W69914  31.967  12.845   3.232
97490W        W69915  23.130  32.466   2.672
97491W        W69916   9.260  22.551   4.643
97492W        W69917   4.829   1.480   3.200
97493W        W69918  35.107   6.348  13.883
97494W        W69919  13.636  27.973   3.353
97495W        W69920   3.922  42.340   1.793
97496W        W69921  12.788   6.759   1.910
97497W        W69922  27.952   7.387  11.992
97498W        W69923  20.651  22.245   3.238
97499W        W69924  34.435  26.084  13.932
97500W        W69925  44.916   6.745   0.332
97501W        W69926   6.400   3.361  14.925
97502W        W69927  42.290  17.758  14.777
97503W        W69928  22.718  25.087   5.274
97504W        W69929   9.659   7.838  11.460
97505W        W69930  29.142  37.989  14.810
97506W        W69931  12.752  24.993   9.938
97507W        W69932  26.050  25.135   4.130
97508W        W69933  38.482  41.899  14.291
97509W        W69934  26.573  36.883  12.975
97510W        W69935  22.726  30.460   9.983
97511W        W69936  38.454  32.464  10.538
97512W        W69937  20.713   8.172  14.790
97513W        W69938  34.612  31.442   1.306
97514W        W69939  18.544   5.246   4.315
97515W        W69940  13.787  17.602   3.706
97516W        W69941  31.461  27.571   3.265
97517W        W69942  12.358  24.076  14.918
97518W        W69943  12.712  26.064  12.521
97519W        W69944  14.681  27.596  14.025
97520W        W69945  15.322   8.308  13.405
97521W        W69946  13.699  40.954   4.316
97522W        W69947  17.226  24.661   0.259
97523W        W69948  23.557  39.827  12.889
97524W        W69949  20.742  27.487  13.546
97525W        W69950  32.093  30.465   1.213
97526W        W69951  23.217  11.821   1.249
97527W        W69952   2.395  12.698  10.524
97528W        W69953  30.941  41.491  13.541
97529W        W69954  37.349  44.938  11.103
97530W        W69955  34.989   5.199  13.499
97531W        W69956  33.474  33.433  10.599
97532W        W69957  16.201   9.348   0.839
97533W        W69958  15.760  34.914  14.877
97534W        W69959  27.491   9.251  11.018
97535W        W69960  12.759  25.977  11.865
97536W        W69961  29.152  42.416  11.042
97537W        W69962   6.323  38.869  10.944
97538W        W69963  42.958  27.644   0.803
97539W        W69964  28.577  40.975  11.968
97540W        W69965  13.664  32.506  12.991
97541W        W69966   8.879  14.595  14.354
97542W        W69967   8.375   9.270  11.470
97543W        W69968  40.331  30.495  10.539
97544W        W69969  29.174   6.427   3.720
97545W        W69970  18.276  25.538  14.819
97546W        W69971  35.589  39.343   4.249
97547W        W69972  44.935  18.255  10.976
97548W        W69973   8.861  28.074  10.433
97549W        W69974   3.955  28.501   2.229
97550W        W69975  27.993  23.006   4.267
97551W        W69976  21.583  10.694  14.990
97552W        W69977  13.157  21.112   2.870
97553W        W69978  36.351  22.180   1.701
97554W        W69979  29.538  43.886  11.391
97555W        W69980   1.843  38.020  14.969
97556W        W69981  12.235  33.433  13.317
97557W        W69982  21.237  19.177  11.948
97558W        W69983  26.684  33.468   5.102
97559W        W69984  12.354  31.928  10.917
97560W        W69985  43.346  13.797   2.827
97561W        W69986  22.031   0.320  12.506
97562W        W69987  23.091   2.397   3.353
97563W        W69988  43.307   1.824   4.174
97564W        W69989  35.046  37.971  11.598
97565W        W69990  26.184  14.235   4.814
97566W        W69991  44.882  42.437   3.847
97567W        W69992  17.120  40.896   1.903
97568W        W69993  24.022  14.758   1.279
97569W        W69994  36.373  37.561  11.126
97570W        W69995  20.551  18.252   2.667
97571W        W69996   8.773  22.733  13.544
97572W        W69997  26.169  37.385  12.093
97573W        W69998  33.999  43.271   0.256
97574W        W69999  25.202   3.713  14.323
97575W        W70000   6.357  28.998  13.043
97576W        W70001  32.107   3.291  12.478
97577W        W70002  32.035  19.162  11.594
97578W        W70003  19.578  21.590   2.278
97579W        W70004  39.481  42.487  14.824
97580W        W70005  19.758  30.515  12.552
97581W        W70006  16.580   9.367  13.043
97582W        W70007  38.073  23.025   1.888
97583W        W70008  21.589  42.976  12.901
97584W        W70009  17.193  18.604   1.343
97585W        W70010   6.361  33.054   1.817
97586W        W70011  16.580   4.799  12.413
97587W        W70012  20.151  32.949   1.913
97588W        W70013  29.046  44.819   1.276
97589W        W70014  26.689  30.102  14.010
97590W        W70015   2.931   8.751   2.864
97591W        W70016  27.086  29.031  13.346
97592W        W70017  25.126   8.890  13.849
97593W        W70018  38.899   2.949   2.668
97594W        W70019  20.735  37.380  11.079
97595W        W70020  16.733  11.296  10.627
97596W        W70021  36.460   0.804  12.992
97597W        W70022  21.660  20.553   1.269
97598W        W70023  42.349  33.897  10.518
97599W        W70024  42.838  39.822  13.846
97600W        W70025  33.428  29.504  10.461
97601W        W70026  26.967   3.778   2.251
97602W        W70027  31.575  36.051   1.728
97603W        W70028  11.659  26.459   2.835
97604W        W70029  43.363  29.988  11.128
97605W        W70030  24.564  15.177  13.353
97606W        W70031  43.446  44.338  13.878
97607W        W70032  28.445  14.100  11.022
97608W        W70033  16.799  33.118  14.782
97609W        W70034  16.227  20.063  12.853
97610W        W70035  28.941  18.765  10.475
97611W        W70036   6.839  20.042   3.302
97612W        W70037   5.710  34.582  11.993
97613W        W70038  25.517  21.132  11.470
97614W        W70039  15.684  36.010   1.270
97615W        W70040   2.452   4.796   0.867
97616W        W70041   0.861  27.991  10.047
97617W        W70042  10.151  24.623  10.592
97618W        W70043   5.693  28.450  11.465
97619W        W70044  36.009  34.543   0.264
97620W        W70045  32.990  12.725   1.434
97621W        W70046  43.886  32.104  11.476
97622W        W70047   2.953   1.275   0.928
97623W        W70048  11.131  21.732   3.343
97624W        W70049   7.821  44.427  11.868
97625W        W70050  22.229  39.387  11.937
97626W        W70051  44.443  19.198   1.402
97627W        W70052  11.249   3.364  14.387
97628W        W70053   1.414  34.062  12.381
97629W        W70054  30.022  12.777  14.516
97630W        W70055  19.191  44.903   1.798
97631W        W70056   6.388  26.498   2.846
97632W        W70057  27.567   8.364  11.586
97633W        W70058  22.673  29.978   4.741
97634W        W70059  44.995  13.727   4.672
97635W        W70060  30.466   9.194  14.881
97636W        W70061  37.342   9.842   3.685
97637W        W70062  13.350  18.695   3.787
97638W        W70063  29.451  39.926   5.092
97639W        W70064  19.069  15.091  11.893
97640W        W70065  17.167  18.186   0.941
97641W        W70066  16.124  16.744  12.383
97642W        W70067  35.488  25.966  12.889
97643W        W70068  44.358   1.268  10.644
97644W        W70069  22.593   3.833  11.071
97645W        W70070  28.965  23.012  14.017
97646W        W70071   3.828  41.792   0.756
97647W        W70072  28.017  44.921  13.307
97648W        W70073  23.196  16.703  12.396
97649W        W70074  42.855  34.048   3.734
97650W        W70075   1.806  30.937  12.860
97651W        W70076  17.261  24.078  14.831
97652W        W70077  15.623  11.855   2.229
97653W        W70078  28.067  34.982   1.705
97654W        W70079  40.928  34.965  10.940
97655W        W70080  42.914   5.926   0.944
97656W        W70081  38.364  40.928   3.786
97657W        W70082  43.915   8.760  13.506
97658W        W70083  10.325  40.346   1.710
97659W        W70084  32.039  42.937   0.760
97660W        W70085  11.762  10.240   4.673
97661W        W70086   9.658  13.734  11.439
97662W        W70087  34.523  13.735   0.357
97663W        W70088  39.435  44.389  12.953
97664W        W70089   6.304  34.983  10.549
97665W        W70090  36.348  17.116   3.351
97666W        W70091   6.233  22.557  11.934
97667W        W70092  13.825  26.479   9.950
97668W        W70093  14.614  21.148   1.712
97669W        W70094  37.965   9.385  12.027
97670W        W70095   2.439  44.336   1.849
97671W        W70096   4.769  10.765   4.771
97672W        W70097  21.591  32.980   3.154
97673W        W70098   9.333  13.617  12.915
97674W        W70099  27.991  43.855  12.355
97675W        W70100  41.799  30.127  14.325
97676W        W70101  44.293  31.415   5.214
97677W        W70102  16.216   8.657   0.383
97678W        W70103   5.271   2.386  14.821
97679W        W70104  12.763  18.234   2.725
97680W        W70105  33.894  22.731   1.718
97681W        W70106   2.314  25.030   0.452
97682W        W70107  12.349   3.812  14.376
97683W        W70108  32.436  34.917  10.575
97684W        W70109  42.986  17.117  10.909
97685W        W70110  17.189  16.801  10.988
97686W        W70111  12.158   3.244  14.302
97687W        W70112  26.610  10.158   4.812
97688W        W70113  37.561  14.222  13.825
97689W        W70114  31.562  40.392  14.974
97690W        W70115  16.102  26.054   3.348
97691W        W70116   5.206  19.595  14.450
97692W        W70117  35.040  30.975   0.340
97693W        W70118  40.417  18.189   2.359
97694W        W70119  44.930   1.470  11.395
97695W        W70120   4.342  43.786   4.316
97696W        W70121  18.617  31.439  13.942
97697W        W70122   8.726  37.558  13.417
97698W        W70123  38.523  41.395   4.126
97699W        W70124  24.115  22.706   4.822
97700W        W70125  35.512  38.839  14.409
97701W        W70126  37.897  26.026  13.828
97702W        W70127  43.391  40.039  14.805
97703W        W70128  21.171  34.089  11.881
97704W        W70129  24.596  20.539  11.586
97705W        W70130  10.192  38.498   0.352
97706W        W70131  27.958  21.735  13.016
97707W        W70132  27.003  16.670  13.459
97708W        W70133  17.170  20.043   2.721
97709W        W70134  12.811  22.578  13.333
97710W        W70135  32.109  15.092   2.260
97711W        W70136  31.479  19.560   2.735
97712W        W70137  22.665   5.389  11.010
97713W        W70138  31.448   1.321  13.499
97714W        W70139  10.251   5.201   2.217
97715W        W70140  22.082  26.511  14.983
97716W        W70141  20.195  31.090  12.953
97717W        W70142  33.541  26.075  11.604
97718W        W70143  27.560  17.152  12.018
97719W        W70144  44.415  38.069  11.914
97720W        W70145  26.055  12.351   0.254
97721W        W70146  37.027   0.286   4.812
97722W        W70147  14.245  16.278   4.833
97723W        W70148  12.262  14.721  14.498
97724W        W70149  15.810  30.458  10.495
97725W        W70150  18.751   7.365   1.362
97726W        W70151  36.384  28.545  14.794
97727W        W70152   4.232  36.939   3.832
97728W        W70153   3.851  30.962  11.988
97729W        W70154  28.532  43.466   4.349
97730W        W70155  27.109  33.588   0.287
97731W        W70156  16.598   4.896  14.423
97732W        W70157   1.846  16.316  11.425
97733W        W70158  11.332   5.831   3.778
97734W        W70159  20.530  18.172  14.917
97735W        W70160  18.093   0.808   1.239
97736W        W70161  43.855  13.314  11.072
97737W        W70162   5.876  19.622  12.874
97738W        W70163  41.792  24.705   2.688
97739W        W70164  26.037  30.521   2.419
97740W        W70165  44.780  29.465  10.976
97741W        W70166  27.522  31.047   1.870
97742W        W70167  44.425  39.522  13.877
97743W        W70168   0.811   0.401   1.720
97744W        W70169  38.486   7.719   1.262
97745W        W70170  31.906   9.670   4.188
97746W        W70171   5.320   3.327  12.039
97747W        W70172   1.907  14.684  14.435
97748W        W70173  16.093  40.438  11.986
97749W        W70174  33.410  26.466   9.921
97750W        W70175  23.694   9.768  13.977
97751W        W70176   8.187  33.517  14.467
97752W        W70177  38.011  38.050  11.973
97753W        W70178  23.559  17.185  12.953
97754W        W70179  23.535  32.055   1.715
97755W        W70180  14.095  13.601   1.273
97756W        W70181   6.382  13.776  14.911
97757W        W70182  40.328   3.755  13.368
97758W        W70183   2.362   5.219  12.467
97759W        W70184   7.819  35.026   3.768
97760W        W70185   6.807  35.923   0.937
97761W        W70186  10.269   9.238   4.201
97762W        W70187  33.401   9.350  14.500
97763W        W70188  43.368  17.579   2.190
97764W        W70189  20.110  39.821   0.415
97765W        W70190  35.085  41.457  13.915
97766W        W70191   6.271  40.534  10.921
97767W        W70192  43.337  22.019   3.864
97768W        W70193  32.587  37.361  11.047
97769W        W70194   3.774  37.510  14.449
97770W        W70195  11.770  37.888   3.183
97771W        W70196   6.905  38.050   0.872
97772W        W70197  38.946  43.450   0.829
97773W        W70198  28.599  16.279  12.460
97774W        W70199   6.691   6.720  11.399
97775W        W70200   7.684   9.303  10.569
97776W        W70201   8.202   5.362   4.603
97777W        W70202   2.433   8.747  11.047
97778W        W70203  13.134  11.668   2.365
97779W        W70204  11.750  37.442   0.909
97780W        W70205   3.308  13.216   3.339
97781W        W70206  30.608  29.030  11.492
97782W        W70207   0.946   7.174  14.347
97783W        W70208  24.723  26.511   1.409
97784W        W70209  30.413   8.755  12.069
97785W        W70210  35.436  12.630  14.890
97786W        W70211  20.036   1.448   0.771
97787W        W70212  15.231  41.971  13.410
97788W        W70213   3.833   4.927  11.506
97789W        W70214  33.101  30.138   3.316
97790W        W70215   0.883  33.382  13.485
97791W        W70216  15.240  25.705  14.902
97792W        W70217   3.229  16.232  10.960
97793W        W70218  37.911   3.461  10.437
97794W        W70219  28.519   5.264  10.965
97795W        W70220   9.158  44.294  11.994
97796W        W70221  14.830  15.328   0.331
97797W        W70222  36.876  18.635   3.663
97798W        W70223  14.257  38.528  12.077
97799W        W70224  44.375  21.565   4.613
97800W        W70225   7.828  42.011   3.239
97801W        W70226  11.796  34.579  12.340
97802W        W70227  23.656  22.730   0.300
97803W        W70228  19.588  33.594  12.511
97804W        W70229  32.410   9.802   0.476
97805W        W70230  10.340  12.791  14.962
97806W        W70231  13.769  39.839   3.301
97807W        W70232  24.560  29.952   9.975
97808W        W70233  19.125   4.805   1.825
97809W        W70234  25.587  22.707   2.322
97810W        W70235  20.721   1.377   3.155
97811W        W70236  41.331  40.986   0.844
97812W        W70237  33.415   9.732  10.610
97813W        W70238   7.285   7.910  11.435
97814W        W70239  25.689  41.796  13.959
97815W        W70240  19.747  14.758  13.410
97816W        W70241  16.194  33.433   3.676
97817W        W70242   6.701   3.921   0.849
97818W        W70243  42.510  25.528  12.871
97819W        W70244  12.820  29.564  13.539
97820W        W70245   2.254  40.528   1.388
97821W        W70246   7.225  43.390   2.707
97822W        W70247  34.379  43.467   1.793
97823W        W70248  35.521  19.604  12.377
97824W        W70249  37.953  41.332   2.694
97825W        W70250  36.992  31.072  11.032
97826W        W70251  39.814  35.870   3.257
97827W        W70252  15.113  11.766  13.312
97828W        W70253  26.689  39.519  13.369
97829W        W70254  41.338  23.496   3.304
97830W        W70255  33.444   5.388  11.086
97831W        W70256  10.271   0.794  11.491
97832W        W70257  29.145  37.903  12.869
97833W        W70258  34.538  22.083  14.939
97834W        W70259  16.653  28.664   4.247
97835W        W70260  24.046  24.571   4.125
97836W        W70261   0.847  26.563   2.803
97837W        W70262  39.476  30.603  12.387
97838W        W70263  28.529   6.909  12.899
97839W        W70264  10.834  28.605   2.183
97840W        W70265   7.710   6.400   3.837
97841W        W70266  10.151  42.435  12.392
97842W        W70267   7.360  37.831  13.467
97843W        W70268  36.592  26.494  11.017
97844W        W70269  15.282  25.651   1.910
97845W        W70270  37.901  25.017  13.318
97846W        W70271  17.103  19.698  14.830
97847W        W70272   4.364  42.518  13.374
97848W        W70273  35.064  15.187  11.467
97849W        W70274   9.190  26.974   4.777
97850W        W70275  35.537  21.136  10.925
97851W        W70276  41.345  11.183   1.272
97852W        W70277  23.730  42.514  12.455
97853W        W70278  41.995  44.399  10.111
97854W        W70279  13.811  33.914   0.916
97855W        W70280  19.232  44.823  11.436
97856W        W70281  32.121   9.708  12.935
97857W        W70282  32.628  18.273   3.629
97858W        W70283  37.937  43.828   0.407
97859W        W70284  30.545   6.691   1.935
97860W        W70285   1.420   9.658   2.747
97861W        W70286  15.647  36.925  14.908
97862W        W70287  36.516  29.523  12.418
97863W        W70288  29.481  40.354   9.670
97864W        W70289  44.429  18.586   3.347
97865W        W70290  34.028  25.025   4.335
97866W        W70291  24.055  37.842  10.634
97867W        W70292  14.742  21.211  11.079
97868W        W70293   7.297   6.884  13.516
97869W        W70294  21.720  39.814  13.808
97870W        W70295  38.063  39.425  13.822
97871W        W70296   9.371  42.405   0.463
97872W        W70297  41.529  26.674  12.963
97873W        W70298  44.437  28.037   5.275
97874W        W70299  22.195  26.069  11.076
97875W        W70300  21.067  36.037   3.375
97876W        W70301  24.226  16.576  14.869
97877W        W70302  15.151  41.340   1.448
97878W        W70303  17.222  40.393   2.708
97879W        W70304  26.648  41.902  13.850
97880W        W70305  27.493   9.751   0.954
97881W        W70306  17.581   0.382   0.770
97882W        W70307   1.351  28.601   1.874
97883W        W70308   8.226  28.929  13.349
97884W        W70309  20.757  29.600   1.423
97885W        W70310  27.068  27.044  13.505
97886W        W70311  43.985   6.396   4.300
97887W        W70312  44.826  19.078  14.287
97888W        W70313  10.831  29.654  11.609
97889W        W70314  17.280  10.760   3.762
97890W        W70315  17.102  34.889   3.718
97891W        W70316   1.817  38.379  12.032
97892W        W70317  39.837   4.732   0.826
97893W        W70318   5.379  14.810   0.480
97894W        W70319  18.279  24.052   4.710
97895W        W70320  35.886  24.066  12.387
97896W        W70321   7.177   2.411   1.240
97897W        W70322  35.383   6.770  11.893
97898W        W70323  22.017  35.966   3.757
97899W        W70324   3.303  22.069  12.536
97900W        W70325  38.945  19.156   1.342
97901W        W70326  21.029  28.141  12.859
97902W        W70327   5.310  13.218   3.200
97903W        W70328  26.975  43.368  11.401
97904W        W70329   3.767   8.656   1.900
97905W        W70330  42.843  30.065  12.918
97906W        W70331  14.712  25.963   3.683
97907W        W70332  26.178   5.353  11.956
97908W        W70333  44.803   2.933  10.627
97909W        W70334  31.434  38.030   1.698
97910W        W70335  44.478  32.900   3.808
97911W        W70336  14.147  19.688   4.158
97912W        W70337  41.962  15.601  14.947
97913W        W70338  35.910   6.823  11.925
97914W        W70339  39.480  14.249   4.122
97915W        W70340   1.806  38.064   1.776
97916W        W70341  27.068  25.164   4.837
97917W        W70342  19.136   7.761   4.261
97918W        W70343  18.758   9.675  12.460
97919W        W70344  11.241  32.633   1.724
97920W        W70345  38.987  27.959  12.975
97921W        W70346  12.289  34.611   3.819
97922W        W70347   5.347   2.915   4.718
97923W        W70348  12.242  24.139   3.636
97924W        W70349  11.814  44.757  13.398
97925W        W70350  19.063  44.754  12.577
97926W        W70351  31.103   0.354  11.469
97927W        W70352  34.602  22.080   3.303
97928W        W70353  13.814  33.467  12.417
97929W        W70354  26.167  29.939  11.074
97930W        W70355  15.777  10.873   4.216
97931W        W70356   9.263  28.045   3.227
97932W        W70357  23.222  19.251  12.930
97933W        W70358  39.451  28.645  13.534
97934W        W70359   9.325  13.282  11.944
97935W        W70360  32.543  33.121   1.808
97936W        W70361  26.674  38.875  12.863
97937W        W70362  42.330  37.981   4.742
97938W        W70363  17.099   7.390  14.275
97939W        W70364  39.478  36.414   3.685
97940W        W70365   0.749  32.581   1.360
97941W        W70366   2.343   5.259   2.388
97942W        W70367   1.481   9.809  13.834
97943W        W70368  24.071  12.856  14.285
97944W        W70369   5.905   5.854   1.275
97945W        W70370  10.721  10.658  11.059
97946W        W70371  28.490  32.581  14.935
97947W        W70372   6.213  43.772  11.394
97948W        W70373  22.716  12.687  14.474
97949W        W70374  36.576  41.821   1.439
97950W        W70375  24.669   8.223  12.442
97951W        W70376  37.435  23.532   1.440
97952W        W70377  15.259  26.183  11.453
97953W        W70378  33.019  28.654  12.062
97954W        W70379   7.402   6.343   4.231
97955W        W70380  32.895  20.696   2.830
97956W        W70381  38.977  24.096  12.357
97957W        W70382  37.857   7.827  12.984
97958W        W70383  42.490   6.275   4.734
97959W        W70384  19.569   2.362   3.838
97960W        W70385  14.651   7.191   5.261
97961W        W70386  40.463   1.380   1.754
97962W        W70387  26.520  33.075  14.398
97963W        W70388  15.655  17.568  13.418
97964W        W70389  16.240  40.528  10.640
97965W        W70390   8.164   6.237  12.519
97966W        W70391  27.009   9.183  14.895
97967W        W70392  15.721  31.002  14.822
97968W        W70393   0.428  39.558   1.812
97969W        W70394  30.643  44.464   0.860
97970W        W70395  20.242   0.941   4.745
97971W        W70396  39.401   0.404  14.377
97972W        W70397  14.314  11.826  14.917
97973W        W70398  30.633  37.462  13.455
97974W        W70399  36.008  16.120   1.355
97975W        W70400   1.853  13.195  12.966
97976W        W70401  20.706  13.650   2.839
97977W        W70402   7.715  37.336   4.272
97978W        W70403   3.720  20.099   1.413
97979W        W70404  34.485   3.308   1.708
97980W        W70405  43.497  18.166   1.277
97981W        W70406  10.686  22.039   5.782
97982W        W70407  37.369  16.798   0.431
97983W        W70408  22.186  33.101   4.143
97984W        W70409  33.969  44.007   1.331
97985W        W70410  28.985   3.460  13.874
97986W        W70411  40.420  28.088   1.368
97987W        W70412  27.675   9.871   1.899
97988W        W70413  41.017   6.863  11.013
97989W        W70414  11.836  24.597  13.974
97990W        W70415  43.833  32.601   1.261
97991W        W70416  24.481  15.774   3.785
97992W        W70417  28.674  16.642   4.152
97993W        W70418  11.733  35.384   4.647
97994W        W70419  13.676   4.308   4.281
97995W        W70420  20.730   5.926   4.734
97996W        W70421  30.485  34.875   3.323
97997W        W70422   2.315   2.917   1.270
97998W        W70423  15.266  38.552   1.307
97999W        W70424  10.301  16.674  10.086
98000W        W70425  29.430  40.951   9.595
98001W        W70426  18.191  24.558  14.874
98002W        W70427  41.460  38.862   0.805
98003W        W70428  33.574  41.882   3.204
98004W        W70429  17.074   3.789  14.285
98005W        W70430  38.497  37.481  11.864
98006W        W70431  31.443  12.844   2.831
98007W        W70432  33.576  14.175  12.988
98008W        W70433  34.960  18.672   0.350
98009W        W70434  32.548   5.250   1.310
98010W        W70435  13.708   9.650   4.805
98011W        W70436  12.309   8.844   1.349
98012W        W70437  40.365  42.945  13.346
98013W        W70438  39.492   6.700   2.269
98014W        W70439  19.654  29.520   1.774
98015W        W70440  10.184  25.654  13.324
98016W        W70441  29.536   9.743   2.231
98017W        W70442  39.455  27.972  13.526
98018W        W70443  29.923  14.809  11.032
98019W        W70444  28.537  26.689  12.960
98020W        W70445  20.586   8.665  10.536
98021W        W70446  39.559  18.168  11.860
98022W        W70447  18.120  16.586  11.545
98023W        W70448  35.540  29.145   0.812
98024W        W70449  37.865   9.846   0.936
98025W        W70450  23.181  14.685   0.432
98026W        W70451  40.321   5.261  13.388
98027W        W70452  26.166  17.785   1.239
98028W        W70453  29.587  15.611  11.049
98029W        W70454  21.117  30.628  10.598
98030W        W70455  36.478  19.583   4.689
98031W        W70456   4.910  18.252  12.418
98032W        W70457   1.740   2.780   4.736
98033W        W70458  43.831  36.359   4.284
98034W        W70459  38.567  23.609  13.823
98035W        W70460  20.114   7.671   2.797
98036W        W70461  32.625   4.271   1.399
98037W        W70462  18.271   2.440  10.572
98038W        W70463   5.256  16.700  14.951
98039W        W70464  20.561   4.855  11.032
98040W        W70465  18.758  26.543   1.789
98041W        W70466  34.410  12.136  14.888
98042W        W70467  16.238  30.472  14.500
98043W        W70468  33.476  11.714  11.925
98044W        W70469  42.412  15.814  10.456
98045W        W70470   3.257  34.561  12.343
98046W        W70471  41.037  38.358  12.345
98047W        W70472  42.525  38.922  12.960
98048W        W70473  31.993   2.393   0.860
98049W        W70474   1.293  23.065   4.809
98050W        W70475  35.435  23.173  10.932
98051W        W70476   1.796  38.433   3.753
98052W        W70477  21.090   7.256   1.217
98053W        W70478  16.166  18.593  14.869
98054W        W70479  33.930   1.301   3.687
98055W        W70480  18.632  17.120  14.806
98056W        W70481  41.414  10.698   2.396
98057W        W70482  42.935  18.554   2.380
98058W        W70483  37.045  10.242   1.770
98059W        W70484   3.746  26.681  13.017
98060W        W70485  20.080   0.958   1.299
98061W        W70486   4.312  23.087  13.307
98062W        W70487  43.886  12.335   1.359
98063W        W70488  44.296  39.024  10.623
98064W        W70489  28.093  43.863  14.901
98065W        W70490  37.872  39.861  11.579
98066W        W70491  29.426  11.145  14.000
98067W        W70492   9.753  44.893  11.407
98068W        W70493   7.907   3.871   4.684
98069W        W70494  34.981  22.558  10.902
98070W        W70495  28.123  29.499   3.676
98071W        W70496  24.110  35.392   1.864
98072W        W70497  17.086  22.188  14.422
98073W        W70498   0.806  20.528  11.552
98074W        W70499  27.451  33.592   3.356
98075W        W70500  29.171  41.353   4.236
98076W        W70501  34.004  16.140  14.778
98077W        W70502  36.956  25.613  14.481
98078W        W70503  36.570  10.255  10.440
98079W        W70504  35.445  39.322  10.576
98080W        W70505  28.061  21.615  10.434
98081W        W70506   9.215  10.794  11.962
98082W        W70507  27.585  35.864   0.922
98083W        W70508  44.438  24.580  11.565
98084W        W70509   0.341  14.758   4.234
98085W        W70510  26.522  41.340   0.892
98086W        W70511   3.817  26.563   0.430
98087W        W70512  32.939  13.613   2.678
98088W        W70513   9.297  44.429  14.433
98089W        W70514   2.879  30.916   0.300
98090W        W70515  42.882  18.259  10.912
98091W        W70516  17.579  13.776  13.492
98092W        W70517  30.964  27.967  11.586
98093W        W70518  14.200   5.362  13.062
98094W        W70519  44.853  44.792  11.099
98095W        W70520  13.605  33.091   4.294
98096W        W70521  44.332  35.369  10.639
98097W        W70522  18.738   8.686   1.393
98098W        W70523  42.978  24.187   0.814
98099W        W70524  43.918  13.657  10.943
98100W        W70525  13.159  43.014  11.455
98101W        W70526   5.395  24.227   3.791
98102W        W70527  28.115  39.962  10.454
98103W        W70528  27.503  17.305   0.832
98104W        W70529   1.800   0.932  13.310
98105W        W70530  41.516  14.618  14.422
98106W        W70531  18.557  24.705   0.263
98107W        W70532  25.184   3.867  13.856
98108W        W70533  32.576  40.040  13.377
98109W        W70534  17.678  16.760   2.701
98110W        W70535  25.995  10.777  10.529
98111W        W70536   8.895  43.307  13.517
98112W        W70537   1.922  37.413  11.911
98113W        W70538  21.181  28.591   1.346
98114W        W70539  27.684  44.913   4.180
98115W        W70540   5.767   1.278   0.302
98116W        W70541  22.178   9.234  11.902
98117W        W70542  30.536  18.572   0.393
98118W        W70543  16.686   2.835  12.401
98119W        W70544  17.759  28.155  12.951
98120W        W70545  32.403  23.180  11.942
98121W        W70546   4.360  14.108  14.900
98122W        W70547  28.655  13.712   1.903
98123W        W70548  13.210  34.451   1.853
98124W        W70549  35.104  28.136  13.844
98125W        W70550  10.183  21.190   0.411
98126W        W70551  19.704  33.552   5.302
98127W        W70552  20.272  38.458  10.905
98128W        W70553  33.415  19.236  12.427
98129W        W70554  24.080  38.974   2.731
98130W        W70555   5.894  16.299   0.797
98131W        W70556  27.536  41.380   3.211
98132W        W70557  12.714   4.286  11.483
98133W        W70558   2.249  27.983   4.192
98134W        W70559  12.331  29.158   3.793
98135W        W70560   6.906  43.993  14.347
98136W        W70561   9.210  12.766  10.544
98137W        W70562  25.616  14.294   3.705
98138W        W70563  23.674  42.807  10.484
98139W        W70564   3.364  11.756   3.796
98140W        W70565  10.764  11.297  13.373
98141W        W70566  18.744   1.256  11.914
98142W        W70567  37.063  13.814  12.476
98143W        W70568  37.486  11.235  11.058
98144W        W70569  18.553  37.405   5.185
98145W        W70570   0.910  32.082   3.695
98146W        W70571  15.619  25.498  12.469
98147W        W70572  20.035   5.760  12.424
98148W        W70573  12.802  27.574   0.417
98149W        W70574  27.107   6.714   0.403
98150W        W70575   9.265   4.238  12.000
98151W        W70576   2.848  35.512   1.900
98152W        W70577  38.562  21.731  14.915
98153W        W70578  26.181  16.691  14.876
98154W        W70579  15.268  39.956   1.368
98155W        W70580  36.570  34.915  11.067
98156W        W70581  23.531  11.253  13.836
98157W        W70582  39.032   4.825   0.744
98158W        W70583  30.142  10.832   3.669
98159W        W70584   8.835   2.454   1.728
98160W        W70585  33.546  29.455  12.032
98161W        W70586  30.439  21.044   3.816
98162W        W70587  27.620  40.803   0.303
98163W        W70588  13.669  24.484   3.684
98164W        W70589  22.248  12.152   5.269
98165W        W70590   3.944   5.922  14.804
98166W        W70591  28.062  40.453   5.756
98167W        W70592   2.953   3.774   1.257
98168W        W70593   4.819  35.886  12.497
98169W        W70594   9.149   0.900   2.729
98170W        W70595  27.949  20.617  10.905
98171W        W70596   6.197  24.582  11.129
98172W        W70597  40.421  23.583  12.889
98173W        W70598  13.827   0.293   3.745
98174W        W70599  42.379  23.173   2.682
98175W        W70600  42.944  34.027   1.787
98176W        W70601  30.526  39.385   1.762
98177W        W70602  15.135  27.113  11.041
98178W        W70603   8.331   5.298  14.000
98179W        W70604  26.066  34.990   1.724
98180W        W70605  33.565  19.587  12.863
98181W        W70606  23.725   2.774   3.675
98182W        W70607  31.091  28.059   2.292
98183W        W70608   1.739  23.127  12.911
98184W        W70609   3.719  19.746   2.830
98185W        W70610   8.655  14.787   3.334
98186W        W70611  40.398   5.219   0.745
98187W        W70612   3.723  32.422  11.372
98188W        W70613  37.361  24.194  14.773
98189W        W70614  21.031  29.519   3.302
98190W        W70615  21.156  14.704   4.692
98191W        W70616  30.022  34.580   0.926
98192W        W70617  17.273  15.697   1.377
98193W        W70618  37.398  26.653   4.293
98194W        W70619   6.722  44.900  14.909
98195W        W70620  28.529   3.730   3.839
98196W        W70621  21.209  12.781   0.365
98197W        W70622  22.740   2.236  13.908
98198W        W70623   7.889   8.238  13.497
98199W        W70624  20.729  10.764   4.312
98200W        W70625   2.922  30.617   1.802
98201W        W70626   3.828  20.570   4.321
98202W        W70627  20.029  35.103   3.704
98203W        W70628  16.113  28.596   0.321
98204W        W70629  42.320   2.866   4.346
98205W        W70630  10.297   2.408   4.794
98206W        W70631   8.238  44.392  11.128
98207W        W70632  41.792  11.701   5.112
98208W        W70633  35.447  40.003   0.400
98209W        W70634  15.176  14.726  10.896
98210W        W70635   7.367  25.659   1.721
98211W        W70636  31.087  38.401  11.076
98212W        W70637  43.424  44.450   1.749
98213W        W70638  31.597  23.038   2.696
98214W        W70639  29.148  44.318  13.358
98215W        W70640   8.290  22.245   0.481
98216W        W70641  44.471  16.636   0.461
98217W        W70642  33.933  43.953  10.905
98218W        W70643  42.438   7.388   3.635
98219W        W70644  26.008  39.955   0.369
98220W        W70645   0.828  10.801  13.983
98221W        W70646  41.368  17.651  14.463
98222W        W70647  14.328  17.770   4.268
98223W        W70648   0.428  21.669  13.888
98224W        W70649  25.010  26.126  11.393
98225W        W70650  31.120  37.084  13.962
98226W        W70651  34.987  14.792  13.488
98227W        W70652   1.412  44.791  14.309
98228W        W70653  19.622  31.439  14.903
98229W        W70654  39.855  44.321  14.326
98230W        W70655   5.307   8.298   1.922
98231W        W70656  36.354   1.366  14.378
98232W        W70657  27.472  36.488  14.768
98233W        W70658   3.811  34.072  10.950
98234W        W70659  39.023  22.646   0.784
98235W        W70660  42.452  39.870  12.846
98236W        W70661  18.748  22.076   3.788
98237W        W70662  38.923  27.025   0.337
98238W        W70663  30.089  13.145   4.685
98239W        W70664  15.104  41.371   4.729
98240W        W70665  35.889  21.116   2.314
98241W        W70666  25.115  13.799  10.969
98242W        W70667  38.014  23.187  12.839
98243W        W70668  16.212   6.364  11.433
98244W        W70669  44.894  16.197   0.355
98245W        W70670  12.817  42.787   0.258
98246W        W70671  25.963  20.165  14.907
98247W        W70672  24.107  10.844  11.103
98248W        W70673  32.392  31.949  12.386
98249W        W70674  41.435  13.667  11.981
98250W        W70675  29.543  32.578   4.735
98251W        W70676  41.309  32.414   0.384
98252W        W70677  21.047  13.307   1.344
98253W        W70678  41.797  15.195  13.023
98254W        W70679  16.730   1.891  14.456
98255W        W70680  31.571  17.188   1.875
98256W        W70681  12.253   4.399  11.399
98257W        W70682  12.789  37.388  12.495
98258W        W70683  44.889  34.087   0.769
98259W        W70684  14.224  32.398   2.814
98260W        W70685  35.029   7.882  14.772
98261W        W70686   5.726  40.403  14.831
98262W        W70687  12.664  15.611   4.656
98263W        W70688  19.077  21.255  12.358
98264W        W70689  42.981  41.426  10.588
98265W        W70690  13.706   7.181   1.280
98266W        W70691  29.925  20.665   1.374
98267W        W70692  42.872  10.143  10.577
98268W        W70693   2.928  12.223  12.978
98269W        W70694   1.322  12.760   2.866
98270W        W70695   0.978  25.608  12.885
98271W        W70696  14.659  23.700  13.370
98272W        W70697  14.184  44.943   2.322
98273W        W70698  17.609   3.794  11.893
98274W        W70699   2.385  29.094   2.740
98275W        W70700  30.103   7.248   4.275
98276W        W70701  41.449  30.925  14.502
98277W        W70702  27.086  20.555   2.697
98278W        W70703  14.699  16.120  12.532
98279W        W70704  39.941  42.496  14.862
98280W        W70705  40.869  32.121   1.737
98281W        W70706  13.261  19.550   0.916
98282W        W70707  37.506  21.111   2.738
98283W        W70708   3.931  19.141   4.221
98284W        W70709  20.127  26.095  13.889
98285W        W70710   6.192  10.698   3.817
98286W        W70711  29.550  16.733   4.612
98287W        W70712  23.140  35.090   3.167
98288W        W70713  14.834  28.133   3.822
98289W        W70714   3.714  21.520  10.478
98290W        W70715  39.451  28.001  11.573
98291W        W70716  21.628  29.535  12.907
98292W        W70717  14.190  29.043  14.313
98293W        W70718  18.681   3.321  13.017
98294W        W70719   8.397  21.612  13.418
98295W        W70720  44.871  12.265   2.899
98296W        W70721  35.551   3.894   2.859
98297W        W70722  36.875  11.672  13.392
98298W        W70723  21.748  12.322   5.759
98299W        W70724  15.578  23.186  12.345
98300W        W70725  22.145   9.207  12.452
98301W        W70726   5.813   9.792  12.380
98302W        W70727  17.738  27.995   0.483
98303W        W70728  20.575  17.775  13.811
98304W        W70729  10.705  23.692   5.592
98305W        W70730   9.268  32.994   4.137
98306W        W70731  40.886  11.127   4.290
98307W        W70732   0.412  11.178   0.818
98308W        W70733  17.625  27.564  13.038
98309W        W70734  35.040   7.224   4.693
98310W        W70735  24.070  41.822   1.896
98311W        W70736   3.306  12.610  11.537
98312W        W70737  37.028  13.797   3.156
98313W        W70738   4.844  33.428  14.490
98314W        W70739  34.987  29.653   1.329
98315W        W70740  23.046  41.895   3.235
98316W        W70741  38.969  21.025  14.950
98317W        W70742   5.360   6.883   2.279
98318W        W70743  35.409  13.275  11.049
98319W        W70744  12.617  19.575   0.904
98320W        W70745  34.107  30.015   4.605
98321W        W70746  17.069  15.186   0.886
98322W        W70747  19.101  20.137  12.379
98323W        W70748  42.479  44.391   1.933
98324W        W70749  42.394  35.377  11.988
98325W        W70750  42.981  32.966   0.461
98326W        W70751  10.362  21.563   2.748
98327W        W70752  22.226  21.110  10.540
98328W        W70753   9.217  40.022  12.548
98329W        W70754  35.562  26.132  12.029
98330W        W70755   7.346  35.474   1.773
98331W        W70756   2.720   3.418  13.352
98332W        W70757  35.001   0.436  12.439
98333W        W70758  12.829  39.383   2.899
98334W        W70759   6.716  29.039   1.391
98335W        W70760   6.187  31.575  10.932
98336W        W70761  30.626  37.524   0.251
98337W        W70762  31.900   7.306  13.411
98338W        W70763  15.716  16.195   3.752
98339W        W70764   8.890   4.922  14.925
98340W        W70765  29.628  44.437  13.063
98341W        W70766  22.048  18.154  13.380
98342W        W70767   0.815  22.248   0.303
98343W        W70768  25.581  26.693   2.867
98344W        W70769  13.818  36.418   1.316
98345W        W70770  23.555  37.927   0.732
98346W        W70771  37.041  33.409  10.545
98347W        W70772  16.658  38.064  13.465
98348W        W70773   6.876  26.034   0.244
98349W        W70774  23.083   7.822   2.860
98350W        W70775  22.618  44.848  13.453
98351W        W70776  19.211   2.401   4.282
98352W        W70777  12.343  29.044   3.234
98353W        W70778  38.918   7.196   1.279
98354W        W70779   4.761  13.126   2.192
98355W        W70780  32.503  35.537   4.822
98356W        W70781   0.893   9.244  14.913
98357W        W70782   5.242   5.729   4.766
98358W        W70783  33.601  27.038   0.831
98359W        W70784  36.880   9.702   1.822
98360W        W70785  13.787  30.507   4.314
98361W        W70786  28.576  14.148  11.521
98362W        W70787   0.414  31.531   1.345
98363W        W70788  33.472  41.304   3.757
98364W        W70789  22.731  36.519  13.942
98365W        W70790  35.923  33.548  10.639
98366W        W70791  13.819  27.680   2.675
98367W        W70792   2.785  42.500  13.979
98368W        W70793  33.898  24.581   4.237
98369W        W70794  38.018  30.025  11.522
98370W        W70795  27.113   6.224  11.090
98371W        W70796  17.721  40.006  10.420
98372W        W70797  19.192  28.142  13.004
98373W        W70798  39.014  11.771   4.161
98374W        W70799   5.268  12.197   0.848
98375W        W70800  42.522   6.817  13.383
98376W        W70801  33.894  32.504   1.860
98377W        W70802  19.683   8.858   1.804
98378W        W70803  28.485  33.949  14.960
98379W        W70804  37.994  22.533   0.263
98380W        W70805  36.350  20.665   1.378
98381W        W70806  27.486  35.399   4.336
98382W        W70807   2.278  38.966  13.939
98383W        W70808  26.169  14.726  10.624
98384W        W70809  35.492   5.410  14.831
98385W        W70810  29.038  31.064  10.584
98386W        W70811  22.040  25.522  14.395
98387W        W70812  10.295  21.153   1.912
98388W        W70813   7.903  40.480  12.550
98389W        W70814   4.210  12.667   3.748
98390W        W70815  25.212   9.216   3.240
98391W        W70816   9.203   9.667  12.033
98392W        W70817  44.448  32.455   3.853
98393W        W70818  41.534  36.505   0.894
98394W        W70819  13.265  31.420  14.812
98395W        W70820  18.788  14.229   0.833
98396W        W70821  25.597  33.583   9.992
98397W        W70822  37.475  22.528  12.399
98398W        W70823  20.739  35.090   4.327
98399W        W70824  27.673  43.453  10.964
98400W        W70825  30.034  41.894   2.720
98401W        W70826   7.801  12.124  11.537
98402W        W70827   3.439   9.770   3.271
98403W        W70828  14.803  26.505  10.533
98404W        W70829  33.914  44.887   2.236
98405W        W70830  23.518  20.542  11.475
98406W        W70831  23.651   4.346   1.799
98407W        W70832  15.751  32.019  12.489
98408W        W70833   4.260  28.535  14.827
98409W        W70834  30.159  38.964   9.478
98410W        W70835  31.908   0.868  12.848
98411W        W70836  39.333  21.671  13.311
98412W        W70837   8.331  15.244   2.285
98413W        W70838  31.945  43.004  13.046
98414W        W70839   5.901  15.599   3.265
98415W        W70840  40.852   4.333   2.391
98416W        W70841  11.760   0.421  11.017
98417W        W70842  15.661  26.586   1.745
98418W        W70843  17.699   6.779  12.444
98419W        W70844  11.794  36.871  14.923
98420W        W70845   6.224  39.933  14.378
98421W        W70846   5.721  37.498   4.254
98422W        W70847  43.960   6.366   2.842
98423W        W70848  25.673  24.017  14.435
98424W        W70849  25.494  36.456  13.327
98425W        W70850  13.642  38.824   2.709
98426W        W70851   3.428   3.739   3.294
98427W        W70852  19.592  21.221  13.429
98428W        W70853  16.736  10.277   4.327
98429W        W70854  26.660  26.073   0.381
98430W        W70855  39.370  38.063  13.920
98431W        W70856  11.832  22.718   2.663
98432W        W70857   3.237  37.573   2.417
98433W        W70858  14.111  23.113   4.641
98434W        W70859   8.176  11.240  11.485
98435W        W70860   5.333  14.149   0.302
98436W        W70861   3.367   4.393   3.830
98437W        W70862  35.854  26.604   1.246
98438W        W70863  36.926   6.221   2.770
98439W        W70864   0.286  32.474  14.320
98440W        W70865  11.232  31.558   1.895
98441W        W70866  18.224  11.262   0.876
98442W        W70867  10.729  21.211   4.305
98443W        W70868  18.106  10.349  10.583
98444W        W70869  18.680  40.953  11.874
98445W        W70870  17.193  12.297   4.612
98446W        W70871   8.322  41.357   2.252
98447W        W70872  13.606  38.064  13.442
98448W        W70873  17.270  25.540  14.003
98449W        W70874  37.394   0.485   2.252
98450W        W70875  32.913  16.794  14.476
98451W        W70876  17.064  41.533  14.975
98452W        W70877  36.008  33.955   2.666
98453W        W70878  28.025  35.079   0.466
98454W        W70879   3.921  28.113   3.810
98455W        W70880  39.506  39.512  14.797
98456W        W70881  25.602  33.113  13.982
98457W        W70882  18.292  40.919   4.714
98458W        W70883  42.344  29.018   3.772
98459W        W70884   1.745  44.291   3.765
98460W        W70885   7.360  16.301   1.707
98461W        W70886  29.574  12.159  11.970
98462W        W70887  32.620   3.387   1.816
98463W        W70888  21.703  43.339  10.556
98464W        W70889  27.061  42.830   1.239
98465W        W70890  19.750  26.600   5.230
98466W        W70891  25.645  11.849  11.608
98467W        W70892   0.287  43.007   3.216
98468W        W70893  11.167   7.680   3.211
98469W        W70894  14.699  16.099  10.919
98470W        W70895   0.344  41.886   3.328
98471W        W70896   6.385  11.337   4.183
98472W        W70897  44.422  32.545   2.264
98473W        W70898  31.902   8.857   0.453
98474W        W70899  31.025   9.379  10.614
98475W        W70900   9.759   2.349   1.773
98476W        W70901  35.584   1.954   4.690
98477W        W70902  34.916  29.965   0.919
98478W        W70903  20.581   1.293  14.838
98479W        W70904  21.573   1.329  13.923
98480W        W70905  26.127  38.537   1.861
98481W        W70906  32.906  21.126   4.808
98482W        W70907   1.263  18.102  13.350
98483W        W70908  18.619  24.063   0.864
98484W        W70909  30.119   6.370  14.952
98485W        W70910  26.591  35.883   1.342
98486W        W70911  38.550  16.089  12.520
98487W        W70912   8.331   9.351   2.739
98488W        W70913  35.530   0.440  12.386
98489W        W70914   0.445  39.414   0.945
98490W        W70915  23.516  12.165   1.862
98491W        W70916  17.799  29.080   1.775
98492W        W70917   8.654  30.081   0.792
98493W        W70918  26.111  13.789   3.302
98494W        W70919  20.701  36.937   1.888
98495W        W70920  38.877  35.948  12.558
98496W        W70921   8.398  44.833   2.718
98497W        W70922  10.668  12.278  12.993
98498W        W70923  39.440  39.375  13.421
98499W        W70924   3.866  26.668  11.953
98500W        W70925  44.869  29.010   0.806
98501W        W70926  31.135  12.794  12.902
98502W        W70927  23.566  10.849  12.972
98503W        W70928   7.404  17.691  10.424
98504W        W70929  16.183  38.020   4.239
98505W        W70930  27.092  11.262  10.413
98506W        W70931  12.150  18.092  12.847
98507W        W70932  43.804   7.853  13.956
98508W        W70933  22.604  44.277  10.964
98509W        W70934  40.429  23.681   3.838
98510W        W70935   8.796   4.225   3.752
98511W        W70936  44.853   3.271  12.415
98512W        W70937  12.815  28.574  14.287
98513W        W70938  15.764   3.807  14.382
98514W        W70939  22.137  11.311  13.342
98515W        W70940  29.995  29.511   0.244
98516W        W70941  31.078  33.979  13.353
98517W        W70942  44.757  31.037  13.958
98518W        W70943  34.932  27.510  11.032
98519W        W70944  24.671  23.154   2.351
98520W        W70945  16.598  20.553   4.783
98521W        W70946  27.493  15.272  10.586
98522W        W70947   0.980  41.801  11.515
98523W        W70948  38.825  24.044   5.206
98524W        W70949  39.824  39.498  10.936
98525W        W70950  34.054  33.938   3.691
98526W        W70951  10.142  24.061   0.348
98527W        W70952  26.035  19.074  14.936
98528W        W70953   0.258  34.463  12.554
98529W        W70954   4.223  34.477  13.453
98530W        W70955  17.764  38.033  14.020
98531W        W70956   2.391   6.830  14.377
98532W        W70957  11.127   6.805   4.738
98533W        W70958  20.110  36.061   2.755
98534W        W70959  24.210   4.251  13.520
98535W        W70960  40.016  14.804  14.911
98536W        W70961  39.937   8.741  14.966
98537W        W70962   8.240  36.907   4.121
98538W        W70963  44.853  16.610   1.831
98539W        W70964  40.492  14.217  12.029
98540W        W70965  16.217  30.989   1.210
98541W        W70966  42.517   6.244   0.849
98542W        W70967  15.171   7.326  12.913
98543W        W70968   1.896  20.682  14.854
98544W        W70969  38.405   8.368   4.675
98545W        W70970   9.644  32.561  10.501
98546W        W70971   6.283  35.534   4.142
98547W        W70972  13.246   3.809   2.328
98548W        W70973  44.342  10.833   2.827
98549W        W70974  35.604  38.515   0.797
98550W        W70975  26.966  44.310  12.940
98551W        W70976   5.346  25.603  12.846
98552W        W70977  15.669  21.691  11.028
98553W        W70978  11.218  31.132   4.159
98554W        W70979  37.048  40.312  11.928
98555W        W70980   1.403  41.454   2.351
98556W        W70981   6.353  44.886   0.769
98557W        W70982  29.174  15.711   2.370
98558W        W70983  42.527  42.927  14.339
98559W        W70984  17.169  35.492  10.467
98560W        W70985  11.371   8.358   1.911
98561W        W70986  12.246   9.694   3.733
98562W        W70987   1.859   9.356   1.421
98563W        W70988  18.214  11.799   1.406
98564W        W70989   7.714  13.826   3.697
98565W        W70990  40.803  41.940   2.880
98566W        W70991  44.439  22.190   2.236
98567W        W70992   7.790  20.035   1.451
98568W        W70993  37.410  35.598  11.936
98569W        W70994  38.352  27.013   0.938
98570W        W70995   1.478   5.922  12.428
98571W        W70996  44.837  39.992   2.283
98572W        W70997   1.431  29.944   1.721
98573W        W70998   6.747  25.557   2.388
98574W        W70999  42.318  10.872   2.325
98575W        W71000  38.878  21.560  13.903
98576W        W71001  27.523   6.809  14.932
98577W        W71002  29.492  41.817   1.230
98578W        W71003  19.592   7.303  14.333
98579W        W71004  32.913  43.856  14.310
98580W        W71005  16.193   5.240  14.938
98581W        W71006  16.096  28.079  14.464
98582W        W71007  20.547  13.693  14.333
98583W        W71008  36.479  19.061   1.793
98584W        W71009  21.615  27.562  10.984
98585W        W71010  14.213  19.095  14.284
98586W        W71011  41.446  39.506  12.886
98587W        W71012   5.347  13.162  14.852
98588W        W71013  29.126   3.286   1.274
98589W        W71014  34.961  43.459  11.988
98590W        W71015  43.283  41.340   2.715
98591W        W71016  43.295  11.716  11.864
98592W        W71017  31.077  21.710  14.879
98593W        W71018  31.089  31.097  13.997
98594W        W71019  24.138   8.799   5.187
98595W        W71020  24.644   4.885  12.420
98596W        W71021  23.009   9.368   4.172
98597W        W71022   0.385   9.776  14.871
98598W        W71023   2.862  31.142  14.967
98599W        W71024   9.688   2.920  14.809
98600W        W71025   1.408   5.732  14.372
98601W        W71026  39.324  14.104  10.934
98602W        W71027   5.723  13.609  12.536
98603W        W71028   5.344   1.826  10.509
98604W        W71029  29.971  39.962  13.932
98605W        W71030  11.791   2.724  11.051
98606W        W71031  16.640  31.949   3.805
98607W        W71032  20.233  20.116  11.119
98608W        W71033  17.802   5.828   0.367
98609W        W71034  38.975  39.422   2.686
98610W        W71035  33.593  25.026  10.427
98611W        W71036   3.461  43.455   2.359
98612W        W71037  43.785  13.768   3.871
98613W        W71038  10.285  15.176  10.934
98614W        W71039  20.258  21.695  12.462
98615W        W71040  29.615  25.607   4.352
98616W        W71041  42.405  28.645   0.369
98617W        W71042  43.930  30.131   4.822
98618W        W71043   4.267   3.864   0.358
98619W        W71044  25.690  16.271   4.166
98620W        W71045  37.938  38.494   3.791
98621W        W71046   6.402   4.940   0.749
98622W        W71047   0.755  16.685  12.571
98623W        W71048  16.605  19.635  12.945
98624W        W71049  14.767  26.179  14.874
98625W        W71050  10.783  29.546   2.218
98626W        W71051  23.203  27.637  12.476
98627W        W71052  27.526   4.430  12.496
98628W        W71053  39.557  18.238  12.553
98629W        W71054   7.382  34.013  12.057
98630W        W71055  30.965  23.229  13.376
98631W        W71056  25.590  15.086  14.368
98632W        W71057  22.655  31.488   3.269
98633W        W71058  17.728  17.295   1.845
98634W        W71059  35.002  11.769  12.415
98635W        W71060  39.960  12.312  14.286
98636W        W71061   3.820  44.874  13.481
98637W        W71062  10.322  34.079  12.005
98638W        W71063  15.675  25.031  11.950
98639W        W71064  43.346   1.355   2.846
98640W        W71065  39.008   3.459   0.475
98641W        W71066  36.565  15.726  14.330
98642W        W71067  32.625  23.221   2.837
98643W        W71068  40.019  17.627   1.261
98644W        W71069  31.998  12.331  10.577
98645W        W71070  38.955   1.891  14.879
98646W        W71071   9.360   8.164  12.878
98647W        W71072  10.274   0.850  14.888
98648W        W71073   7.824  25.059   1.708
98649W        W71074   7.390   8.253  11.919
98650W        W71075  21.086  12.820  11.382
98651W        W71076  29.468  23.138   1.921
98652W        W71077   8.388  23.493   4.631
98653W        W71078  12.821  22.216  14.324
98654W        W71079  12.319  24.048   2.344
98655W        W71080  23.052  43.946   1.754
98656W        W71081  15.191   9.358   2.260
98657W        W71082  35.042  13.287   2.706
98658W        W71083  37.339  29.109   2.677
98659W        W71084  11.634  20.226  10.492
98660W        W71085  11.685  35.856  14.950
98661W        W71086  14.687   0.475   1.266
98662W        W71087   8.673  35.538  12.848
98663W        W71088   6.416  39.458  14.000
98664W        W71089  14.647  15.135   2.370
98665W        W71090   4.799   0.913  14.818
98666W        W71091  39.057  27.613  13.029
98667W        W71092  29.025  38.334   5.166
98668W        W71093   8.304   1.816  13.401
98669W        W71094   6.403  26.174   2.712
98670W        W71095  14.655   6.839   3.866
98671W        W71096  18.637  24.083   0.294
98672W        W71097  17.631  21.738  10.475
98673W        W71098  39.457  10.733  14.862
98674W        W71099  25.564  38.878   2.412
98675W        W71100  18.580  38.906  13.542
98676W        W71101  43.809  44.798  11.061
98677W        W71102  16.587  34.047   1.890
98678W        W71103  22.047  12.143   0.871
98679W        W71104  36.434  22.056   1.378
98680W        W71105   9.771  17.797  11.015
98681W        W71106   3.842   8.212  12.384
98682W        W71107  24.069  28.501  10.422
98683W        W71108   9.751   1.376  13.453
98684W        W71109   5.733  22.640   3.193
98685W        W71110   0.823  11.339  10.622
98686W        W71111  40.935  34.888   1.272
98687W        W71112  19.695  22.017  10.083
98688W        W71113  25.084  40.802   3.173
98689W        W71114  21.254  14.761  12.522
98690W        W71115  21.187  24.586  11.117
98691W        W71116   8.359  26.674   4.698
98692W        W71117  29.556  32.998   1.906
98693W        W71118  41.392  29.612  12.386
98694W        W71119  21.018  26.468  14.474
98695W        W71120   4.714  25.513   4.244
98696W        W71121   2.409   4.444  10.415
98697W        W71122  42.459  12.292   3.752
98698W        W71123  17.191  44.786   4.175
98699W        W71124  40.483   3.766  11.378
98700W        W71125  12.727   3.759  10.040
98701W        W71126  11.330  38.327  14.280
98702W        W71127  31.046   8.775  11.580
98703W        W71128  31.543   6.400   4.799
98704W        W71129  41.527  11.662  10.407
98705W        W71130  33.125   5.335  14.283
98706W        W71131  38.470   2.830  12.004
98707W        W71132  18.733  17.792   3.308
98708W        W71133  14.226  16.804  10.608
98709W        W71134  22.094   9.285   5.130
98710W        W71135  11.223  42.885   5.267
98711W        W71136  11.196  40.402  13.820
98712W        W71137   8.757  41.017   2.797
98713W        W71138  13.605  40.957  14.512
98714W        W71139  36.092  20.537  10.496
98715W        W71140  24.667   4.240   0.768
98716W        W71141  39.885  20.717  11.095
98717W        W71142  33.600  29.503   5.295
98718W        W71143  17.796  14.290   0.358
98719W        W71144  11.793   9.879   2.220
98720W        W71145  31.126  16.807  11.472
98721W        W71146  11.679  38.822  13.387
98722W        W71147   7.408   5.270  11.098
98723W        W71148  33.966   0.963   4.704
98724W        W71149  13.720  40.545  11.909
98725W        W71150   6.854  12.181   0.828
98726W        W71151  34.938  37.400   2.763
98727W        W71152  44.799  26.581   3.380
98728W        W71153  30.522  30.581   0.819
98729W        W71154   3.414  12.635  12.568
98730W        W71155  43.436   1.344   3.209
98731W        W71156  21.062  31.566  13.470
98732W        W71157  25.554  41.474   4.601
98733W        W71158   2.291  24.165  13.793
98734W        W71159  28.112   1.244  11.400
98735W        W71160  14.269   0.377   4.658
98736W        W71161  16.193  38.484   4.349
98737W        W71162  29.972  11.867  10.888
98738W        W71163   4.279  41.869  14.449
98739W        W71164  39.929   7.771  12.416
98740W        W71165  36.554  34.543   1.753
98741W        W71166  37.460  23.117  11.897
98742W        W71167  33.101  43.931   0.356
98743W        W71168  17.755   3.902  11.080
98744W        W71169  21.202   2.785   1.393
98745W        W71170  12.347  37.579   2.317
98746W        W71171  34.572  42.853   4.232
98747W        W71172  17.128   0.863   0.729
98748W        W71173   9.209  20.236  11.885
98749W        W71174  32.018   1.415  12.025
98750W        W71175  20.551  43.993   2.411
98751W        W71176  40.478  14.783  10.471
98752W        W71177  39.477  21.184   0.738
98753W        W71178  20.134  10.826   3.281
98754W        W71179  17.722  23.581   3.200
98755W        W71180  39.979  24.623  11.523
98756W        W71181   0.426  37.511   2.232
98757W        W71182  32.575  35.041  13.368
98758W        W71183  15.234  17.576  12.030
98759W        W71184  34.941  12.363   3.688
98760W        W71185  41.293   3.869   4.823
98761W        W71186  22.208  11.322   9.983
98762W        W71187  41.827   2.837   4.817
98763W        W71188  34.569   4.388   4.767
98764W        W71189  33.461  26.607   0.268
98765W        W71190   9.171   2.302   3.691
98766W        W71191  43.348  17.617   3.375
98767W        W71192   8.353  17.192   0.898
98768W        W71193  25.582  31.918  11.441
98769W        W71194  38.386  14.115   4.194
98770W        W71195  12.783   2.876   1.226
98771W        W71196  31.494  35.486  13.064
98772W        W71197  33.458  44.766  12.963
98773W        W71198   2.409   4.836   1.813
98774W        W71199  43.275  14.791   2.354
98775W        W71200  42.364  17.766  14.385
98776W        W71201  34.569  21.720   3.293
98777W        W71202  36.434  40.438  12.882
98778W        W71203  36.551  15.189  14.275
98779W        W71204  15.122  16.665   1.416
98780W        W71205  35.855  35.418  12.949
98781W        W71206  37.020  15.316   4.771
98782W        W71207  26.624   0.254  14.923
98783W        W71208   2.439  12.808   4.337
98784W        W71209  24.490  30.488  12.536
98785W        W71210  21.238  41.344   1.809
98786W        W71211  32.564  41.956  12.015
98787W        W71212  20.036  38.963   2.667
98788W        W71213  29.940   3.286  13.335
98789W        W71214  43.432  42.373   3.740
98790W        W71215  21.662  40.802  14.022
98791W        W71216  14.630  41.536   4.282
98792W        W71217   5.835  18.131   4.761
98793W        W71218  39.552  29.968  12.072
98794W        W71219  23.202  32.106   1.783
98795W        W71220  14.635  44.781   1.370
98796W        W71221  11.820   0.907  11.480
98797W        W71222  44.822  39.023  12.871
98798W        W71223   3.945  40.991   0.928
98799W        W71224  19.113  39.831   2.179
98800W        W71225  33.070   3.282   2.795
98801W        W71226  40.007  15.326   2.893
98802W        W71227  31.579  29.951   1.306
98803W        W71228  17.254  22.717  10.541
98804W        W71229   4.422  19.157  10.534
98805W        W71230   9.828  15.134  14.963
98806W        W71231  22.601   2.836   4.830
98807W        W71232  10.276  16.207  10.605
98808W        W71233  11.153  17.577  13.948
98809W        W71234  14.125  33.900   5.210
98810W        W71235  19.629   0.952   1.813
98811W        W71236  11.128  30.025  13.935
98812W        W71237  41.349  30.599   4.125
98813W        W71238  26.163  25.105  10.465
98814W        W71239  38.976   8.901   1.436
98815W        W71240  26.482  27.618  12.829
98816W        W71241  28.438  16.620  10.425
98817W        W71242  12.784  17.656  10.624
98818W        W71243  30.487  21.649   2.395
98819W        W71244   4.708  14.695   0.815
98820W        W71245  29.534  11.720   0.455
98821W        W71246   6.876   2.833  12.522
98822W        W71247   9.845  16.684  13.397
98823W        W71248   5.304  24.139  11.392
98824W        W71249  27.674  37.342   2.741
98825W        W71250   6.284  30.626   4.597
98826W        W71251   1.960  36.370   1.935
98827W        W71252   1.358   1.820  10.407
98828W        W71253  16.088   9.219   3.792
98829W        W71254  37.548  12.127   3.770
98830W        W71255   6.291   2.345  12.855
98831W        W71256  15.790  10.877  14.859
98832W        W71257  16.101  39.350  12.538
98833W        W71258  24.088  22.034   1.815
98834W        W71259  34.435   7.245  10.998
98835W        W71260  33.396   2.878   0.749
98836W        W71261  33.388  43.391  14.282
98837W        W71262   2.267  39.528   1.724
98838W        W71263  17.129   1.291  14.931
98839W        W71264   4.849   0.268  14.923
98840W        W71265  26.144  25.037  12.904
98841W        W71266  15.169  24.629   2.243
98842W        W71267   4.386  12.619   1.760
98843W        W71268  31.134  41.524  13.825
98844W        W71269   0.890  16.150   4.285
98845W        W71270  22.070  43.859   2.193
98846W        W71271  11.795  23.157  14.798
98847W        W71272  20.531  17.742  13.389
98848W        W71273  10.285  31.619  12.574
98849W        W71274   2.418  35.056   4.770
98850W        W71275  19.634  38.417   3.759
98851W        W71276  21.208   8.679  12.959
98852W        W71277  13.285  34.114  10.525
98853W        W71278  34.942  21.189   5.213
98854W        W71279  24.602   6.702  13.336
98855W        W71280  21.741   0.368   1.709
98856W        W71281   9.297  14.761  13.503
98857W        W71282  33.963  22.622  10.615
98858W        W71283   4.884   0.848  12.419
98859W        W71284  24.605  11.720  13.361
98860W        W71285  26.973  22.082  14.864
98861W        W71286  16.172  10.302  13.921
98862W        W71287  40.544   9.655   2.883
98863W        W71288  34.113   3.306  12.964
98864W        W71289   9.667  29.431  12.495
98865W        W71290  13.345  15.680   4.797
98866W        W71291   1.754  19.226   3.736
98867W        W71292  33.935   3.454   0.413
98868W        W71293   8.385   8.669  14.847
98869W        W71294  17.121  38.070  13.372
98870W        W71295  22.570  29.090  10.054
98871W        W71296  36.447  20.143  11.601
98872W        W71297  33.118  30.572  11.410
98873W        W71298  27.547  11.128  11.067
98874W        W71299  25.098   9.712   0.799
98875W        W71300  10.245  26.469  13.406
98876W        W71301  42.461  18.707   2.217
98877W        W71302  26.544  38.872   5.301
98878W        W71303   5.421  35.433  14.515
98879W        W71304  33.046  28.944   3.699
98880W        W71305   0.912  17.640   4.188
98881W        W71306  25.122  12.687   1.338
98882W        W71307   6.902  28.501   0.338
98883W        W71308  37.395  19.536   9.932
98884W        W71309   9.759  22.556  14.917
98885W        W71310   4.808  42.916   1.409
98886W        W71311  10.368   2.291   1.733
98887W        W71312  24.503  39.018   0.307
98888W        W71313  16.291  25.541  13.403
98889W        W71314   5.833  15.672  12.943
98890W        W71315  23.497  41.397  11.601
98891W        W71316  13.814  11.710  14.027
98892W        W71317  39.516  37.050  12.010
98893W        W71318  26.496   1.359   2.662
98894W        W71319  42.284   0.372   3.205
98895W        W71320  31.905  38.996  13.054
98896W        W71321  31.445   0.803   3.353
98897W        W71322  30.137  23.135   1.880
98898W        W71323  30.650  37.006  12.968
98899W        W71324  37.373  31.005  12.940
98900W        W71325  22.565  15.751  14.995
98901W        W71326  20.740  22.742  13.529
98902W        W71327  41.479   0.881   0.453
98903W        W71328  41.980  42.870   0.245
98904W        W71329  22.514  32.949  14.901
98905W        W71330  15.320  22.713  12.537
98906W        W71331  21.735  25.065   1.782
98907W        W71332   4.297  24.121   3.359
98908W        W71333  13.819  35.102   2.809
98909W        W71334  27.673  39.053  12.933
98910W        W71335  31.139  36.487  11.610
98911W        W71336   1.834  25.133   0.326
98912W        W71337  37.005  42.304   4.309
98913W        W71338   9.315  40.916   0.901
98914W        W71339   0.805  33.618   3.172
98915W        W71340   8.856  42.784  14.900
98916W        W71341  42.502  16.665  11.129
98917W        W71342  40.814  38.979  14.356
98918W        W71343   5.714  27.662  11.023
98919W        W71344   6.238  10.139   1.374
98920W        W71345  30.042   3.229  14.997
98921W        W71346  44.494  15.697   5.261
98922W        W71347   6.740  44.854  13.021
98923W        W71348  13.756  43.929  10.468
98924W        W71349  43.996  39.816  10.548
98925W        W71350  27.038   2.378   4.753
98926W        W71351  15.244   7.279   2.737
98927W        W71352   0.430   7.201   0.462
98928W        W71353  31.130  16.798  12.445
98929W        W71354  19.636  32.446  11.553
98930W        W71355  34.516   5.276  14.007
98931W        W71356  18.281  30.552   2.382
98932W        W71357  18.555  22.165   0.815
98933W        W71358  27.601  26.165   1.736
98934W        W71359   7.671  12.856   4.348
98935W        W71360  23.145  21.719  14.434
98936W        W71361   9.875  29.581  12.973
98937W        W71362  13.311  35.887  10.121
98938W        W71363  41.930  14.613   4.681
98939W        W71364  36.057  24.704   3.800
98940W        W71365  21.196  18.215   2.274
98941W        W71366   6.922   3.924  10.405
98942W        W71367  35.359  39.418   4.777
98943W        W71368  21.576   4.745  12.918
98944W        W71369   2.256   5.362   2.867
98945W        W71370  25.541  32.519   4.689
98946W        W71371   6.411  40.880   4.162
98947W        W71372  12.631  18.196   0.829
98948W        W71373  26.028  27.569  12.967
98949W        W71374  42.881  25.472   4.689
98950W        W71375  31.948   5.860  13.934
98951W        W71376   7.360  41.804  11.563
98952W        W71377  24.195   5.920  13.931
98953W        W71378  19.072  35.481  11.911
98954W        W71379   4.834  15.137   0.957
98955W        W71380  35.418   1.391  14.340
98956W        W71381  33.973  29.048  11.030
98957W        W71382  29.158  41.330   0.784
98958W        W71383  42.791   8.894   1.915
98959W        W71384  19.084  29.956   0.409
98960W        W71385   9.223  37.870  11.604
98961W        W71386  36.010  40.844  10.966
98962W        W71387   3.439  43.854  11.400
98963W        W71388  24.534  20.523   2.854
98964W        W71389  20.692   1.358  14.331
98965W        W71390  11.785  33.940   1.345
98966W        W71391  16.114  33.607   4.336
98967W        W71392  32.393  11.653  10.126
98968W        W71393   4.371  17.074  11.488
98969W        W71394  32.062  31.521   0.449
98970W        W71395  28.568  10.141  14.951
98971W        W71396   0.376  24.704   2.207
98972W        W71397  28.550   7.334  13.330
98973W        W71398   7.373  21.044   1.702
98974W        W71399   0.931  43.845   2.338
98975W        W71400  10.281  13.828  14.823
98976W        W71401   9.296  10.360   4.126
98977W        W71402  41.468  42.356   1.934
98978W        W71403  37.421  18.149  13.448
98979W        W71404   7.706  41.988  12.550
98980W        W71405  16.207   3.381   4.230
98981W        W71406   6.227   2.814  14.352
98982W        W71407  28.079  44.286  10.640
98983W        W71408  19.201  41.841   3.869
98984W        W71409  27.044  41.525  10.408
98985W        W71410   0.888   1.335  11.082
98986W        W71411   2.731   1.740  13.530
98987W        W71412  29.504  23.642  13.345
98988W        W71413  16.790  39.384  12.406
98989W        W71414  24.489  11.173   0.299
98990W        W71415   0.310   5.854  14.769
98991W        W71416   5.913  10.759   4.222
98992W        W71417  38.528  19.734  11.039
98993W        W71418  23.602  39.425  12.039
98994W        W71419  32.589  23.122   3.731
98995W        W71420  29.668   2.421  10.955
98996W        W71421  36.865   3.870  13.946
98997W        W71422  13.286  20.558   3.842
98998W        W71423  11.260  32.401  12.541
98999W        W71424  19.688  42.846  10.424
99000W        W71425  18.253  20.201  14.020
99001W        W71426   9.801   5.824  11.013
99002W        W71427  44.285  44.890   2.712
99003W        W71428   5.708  14.129  13.988
99004W        W71429  43.365  35.451  12.562
99005W        W71430  37.373  33.065   4.734
99006W        W71431  22.708  35.100  14.030
99007W        W71432  30.133  43.387   2.783
99008W        W71433   5.781   5.431   0.372
99009W        W71434  22.536  42.854   4.324
99010W        W71435  13.644  12.267  11.451
99011W        W71436  25.529  12.126  11.402
99012W        W71437  26.618  20.168  13.823
99013W        W71438  27.468  43.363   1.424
99014W        W71439  34.504  11.827  11.959
99015W        W71440  41.310   8.357   1.386
99016W        W71441   8.772  12.225  12.493
99017W        W71442  28.446  44.784   3.635
99018W        W71443  23.190  18.551  14.797
99019W        W71444  29.946   1.388  11.901
99020W        W71445   7.906   1.238  10.940
99021W        W71446  23.080   8.352   0.332
99022W        W71447   4.440  35.414  13.964
99023W        W71448  27.472   1.821   3.269
99024W        W71449  22.134  15.818  14.926
99025W        W71450  33.886  34.937   2.368
99026W        W71451  27.131  23.640   2.296
99027W        W71452  23.166  29.984  13.332
99028W        W71453   5.904  12.340   4.205
99029W        W71454  19.740  44.936   1.761
99030W        W71455  14.704  28.119   2.188
99031W        W71456  12.700  23.086  10.451
99032W        W71457  40.366   4.729  10.573
99033W        W71458  35.989  27.503  10.496
99034W        W71459  38.906  22.555  10.613
99035W        W71460   8.323  29.479  12.558
99036W        W71461   5.268   3.421  10.902
99037W        W71462  37.443  29.082  14.018
99038W        W71463  41.793  17.294  10.457
99039W        W71464  43.280  21.628   5.573
99040W        W71465  16.082  27.143   3.285
99041W        W71466  18.055  38.392  10.449
99042W        W71467  38.460  14.810  13.937
99043W        W71468   1.266   0.910  14.884
99044W        W71469   9.391  29.146  10.521
99045W        W71470  18.606   6.185  13.495
99046W        W71471  16.687  22.096   0.847
99047W        W71472  26.499   8.791   2.317
99048W        W71473  10.868  43.844  12.910
99049W        W71474  26.007   6.706   0.956
99050W        W71475  20.596  24.605   0.923
99051W        W71476   5.206  40.440   0.857
99052W        W71477  12.139  30.437  10.586
99053W        W71478   6.852   0.469  14.862
99054W        W71479  37.845  14.636   0.802
99055W        W71480  30.001  41.854  10.484
99056W        W71481  22.067  44.983   4.201
99057W        W71482  17.761   8.682  12.368
99058W        W71483  28.613  36.453  11.885
99059W        W71484  40.872  14.808   4.278
99060W        W71485  23.608  17.186  13.878
99061W        W71486   1.395  30.460   1.291
99062W        W71487   9.787   8.289   2.417
99063W        W71488  27.163  36.001   2.816
99064W        W71489   4.710  13.167   1.707
99065W        W71490  24.551   1.847   0.952
99066W        W71491  38.925  28.456   0.339
99067W        W71492  22.194  33.936   0.461
99068W        W71493  38.547  33.556  11.530
99069W        W71494  24.159  41.456  13.389
99070W        W71495   4.238  43.997   2.392
99071W        W71496  18.238  20.059   1.225
99072W        W71497  26.113  21.563  13.399
99073W        W71498  41.809  34.388  11.101
99074W        W71499  41.368  25.517  12.985
99075W        W71500   0.389  27.988   1.400
99076W        W71501  36.910  16.592  13.811
99077W        W71502  24.617  41.330  13.435
99078W        W71503  11.239  43.369  10.938
99079W        W71504  21.149  24.715  14.301
99080W        W71505  41.493  25.496   0.279
99081W        W71506  11.323   3.299   4.805
99082W        W71507  12.664  33.029   2.812
99083W        W71508   2.395  36.536   1.407
99084W        W71509  42.460  18.685  10.986
99085W        W71510  29.641  32.093   4.133
99086W        W71511  32.433  23.636   2.325
99087W        W71512  32.527  28.111   1.773
99088W        W71513   7.185  15.107   4.719
99089W        W71514  41.294  34.992   0.426
99090W        W71515  21.060  24.661  12.356
99091W        W71516   7.347  16.676  13.525
99092W        W71517  25.521  21.187   0.788
99093W        W71518  23.092  29.073  12.387
99094W        W71519  14.151  23.730   4.222
99095W        W71520  35.419  29.556  14.991
99096W        W71521  40.517   0.260   4.613
99097W        W71522  28.540  37.969   2.377
99098W        W71523  32.964  17.664   0.259
99099W        W71524  38.842   8.240   0.266
99100W        W71525  43.933   2.245  14.855
99101W        W71526  12.789  10.805   3.325
99102W        W71527  33.924   9.341   3.337
99103W        W71528   2.310  29.564  12.043
99104W        W71529  39.350   7.820  13.822
99105W        W71530  22.528  37.478  12.410
99106W        W71531  29.655  35.885   2.306
99107W        W71532  21.548  38.059  11.583
99108W        W71533  24.109  25.107   2.689
99109W        W71534  19.616   1.919  14.882
99110W        W71535  11.172  33.116  10.581
99111W        W71536  31.406  32.469   0.827
99112W        W71537  24.058  34.539   3.284
99113W        W71538  13.342   2.727   3.668
99114W        W71539   5.848   7.760  14.970
99115W        W71540  14.794  25.502   4.305
99116W        W71541  40.321  12.228   4.321
99117W        W71542  40.014  35.854  14.472
99118W        W71543   6.707   7.267  13.820
99119W        W71544  37.084  29.593  11.955
99120W        W71545  44.504  11.265  11.128
99121W        W71546  33.113  41.882  14.861
99122W        W71547   9.313  18.548  11.464
99123W        W71548  36.848  27.449   2.364
99124W        W71549  40.961  29.625  12.956
99125W        W71550  34.615  32.467   2.234
99126W        W71551  27.977  33.127  12.932
99127W        W71552  25.068  25.490   0.893
99128W        W71553  42.418  23.672   1.255
99129W        W71554  37.470  29.473  12.073
99130W        W71555  28.953  21.558  10.555
99131W        W71556   8.275  30.650   1.446
99132W        W71557  12.815  25.159  12.512
99133W        W71558   2.465  11.850  10.600
99134W        W71559  15.169  23.581   2.226
99135W        W71560   3.738  25.067  13.009
99136W        W71561  40.462  13.158  13.790
99137W        W71562  31.512  42.371   1.258
99138W        W71563  43.378   5.829  11.946
99139W        W71564  27.496   2.771   1.350
99140W        W71565   7.894   9.386   1.403
99141W        W71566  17.575  44.403  14.998
99142W        W71567  14.665   0.756  12.495
99143W        W71568  16.152  40.485  12.982
99144W        W71569  18.104  33.509   5.611
99145W        W71570  36.888  36.550  13.023
99146W        W71571  20.681  29.128  14.836
99147W        W71572  19.265  22.210  12.394
99148W        W71573  15.690   2.830  14.887
99149W        W71574   1.389  39.321   3.298
99150W        W71575  37.905   9.738  13.927
99151W        W71576  42.495  14.799  11.903
99152W        W71577  37.437  44.295   2.866
99153W        W71578   0.285  34.613  13.926
99154W        W71579  27.514   1.434  11.607
99155W        W71580  32.394  28.179  10.947
99156W        W71581  43.879  42.490  11.058
99157W        W71582  17.221  11.743   2.787
99158W        W71583  33.523  14.699   5.303
99159W        W71584  12.273  30.163   4.722
99160W        W71585  11.321  28.488  10.930
99161W        W71586  17.700  14.673  13.825
99162W        W71587  44.862   5.902  10.597
99163W        W71588   3.819   7.867  12.457
99164W        W71589  22.116  12.729  11.378
99165W        W71590  10.690  15.119   0.338
99166W        W71591  40.318  35.506  12.018
99167W        W71592  24.225  17.770   3.850
99168W        W71593  11.150  14.326  10.898
99169W        W71594  40.994  37.858  13.337
99170W        W71595  28.620  10.247   2.902
99171W        W71596  25.657   5.750  14.804
99172W        W71597  39.025  28.111   2.410
99173W        W71598  24.992  12.319  12.365
99174W        W71599  17.102   6.686  14.515
99175W        W71600  26.192   4.390   2.895
99176W        W71601   1.845   6.366   1.874
99177W        W71602  32.002  40.431   0.868
99178W        W71603   2.854   6.809   3.198
99179W        W71604  20.717  34.939  13.432
99180W        W71605  12.806  24.495   5.278
99181W        W71606   0.372  31.637  11.388
99182W        W71607  35.965  35.433   1.750
99183W        W71608  41.453  39.345  14.990
99184W        W71609  23.204  31.445  11.589
99185W        W71610   8.695   3.369  12.096
99186W        W71611  15.663  21.591  12.427
99187W        W71612   1.828  14.743  13.339
99188W        W71613  23.061  30.012   4.779
99189W        W71614   2.290   9.791  11.880
99190W        W71615   4.717  22.551  13.508
99191W        W71616   5.418  38.062   2.845
99192W        W71617  33.411   9.161  13.492
99193W        W71618  10.649  16.665   1.397
99194W        W71619  18.060  10.813  13.361
99195W        W71620   4.705  44.889   0.758
99196W        W71621  41.380  15.652  12.510
99197W        W71622  20.768  15.284   2.788
99198W        W71623  29.502  43.873  12.850
99199W        W71624  16.236   5.876   3.814
99200W        W71625  37.371  43.300   1.779
99201W        W71626  12.160  20.150   2.676
99202W        W71627  20.268  39.917  12.881
99203W        W71628  24.166  27.973   0.789
99204W        W71629  14.739   6.408   4.713
99205W        W71630  19.284  30.993   0.814
99206W        W71631  12.740  39.344   4.820
99207W        W71632   7.671  12.207   4.636
99208W        W71633  19.226  31.993   3.763
99209W        W71634  44.382  18.157   1.829
99210W        W71635  34.470  41.843   0.369
99211W        W71636  20.580  21.751   2.766
99212W        W71637  15.094  34.571   3.765
99213W        W71638   1.916  22.705   1.445
99214W        W71639  32.458  41.531   1.444
99215W        W71640  22.534  33.412  14.025
99216W        W71641  39.021  10.669   5.317
99217W        W71642  11.776   2.377   2.847
99218W        W71643  37.055  33.568  11.473
99219W        W71644  10.634   0.316   3.223
99220W        W71645  40.347   4.787   4.285
99221W        W71646  17.670   9.827  10.560
99222W        W71647   7.339  29.597  14.815
99223W        W71648   9.345  44.904   0.774
99224W        W71649  31.924  13.119   2.668
99225W        W71650  16.577  11.706  13.423
99226W        W71651  12.320  21.710  12.477
99227W        W71652  41.315   2.239   3.846
99228W        W71653  35.036  28.943  12.834
99229W        W71654   4.916  35.993  11.452
99230W        W71655   1.926  26.651  14.852
99231W        W71656   0.884  38.015   2.702
99232W        W71657  34.096   0.414  13.001
99233W        W71658  13.105  34.370   2.179
99234W        W71659  39.064   7.232   5.275
99235W        W71660  28.563  27.454  14.371
99236W        W71661  41.328   3.953   4.254
99237W        W71662  43.798  38.866   1.860
99238W        W71663  13.197  35.442   3.342
99239W        W71664  43.786  30.046  14.806
99240W        W71665  34.086  37.839  13.858
99241W        W71666  10.160  15.321   3.385
99242W        W71667   3.336   5.745   0.785
99243W        W71668  41.873  22.148   4.165
99244W        W71669  30.430  10.863  11.876
99245W        W71670  44.337  32.038  10.138
99246W        W71671  11.266  23.529   2.226
99247W        W71672   8.678   7.336   3.702
99248W        W71673  27.095  41.420  12.966
99249W        W71674   0.304   6.856  10.893
99250W        W71675  22.549   2.455   1.216
99251W        W71676  37.400  41.431  13.546
99252W        W71677  31.918  43.305  14.403
99253W        W71678   6.738  42.383  12.064
99254W        W71679  11.763  28.649   3.233
99255W        W71680  17.779  35.461  14.944
99256W        W71681  41.979  18.682   1.332
99257W        W71682  10.287   4.709  11.070
99258W        W71683  38.338  34.477   1.737
99259W        W71684   8.223  24.099  11.503
99260W        W71685   2.327  14.230  13.473
99261W        W71686   0.759   2.850  12.832
99262W        W71687  39.472  39.894  12.355
99263W        W71688  10.171   1.936   2.229
99264W        W71689  23.499   8.874   1.450
99265W        W71690  31.609  34.463   4.720
99266W        W71691  11.208   2.452  10.553
99267W        W71692  20.242   0.935  10.935
99268W        W71693   6.417  29.117   0.957
99269W        W71694  36.951  22.087  12.533
99270W        W71695  27.515  36.438   3.867
99271W        W71696  39.851  29.508   2.383
99272W        W71697  34.614   0.768  12.873
99273W        W71698  15.133  15.793  11.042
99274W        W71699   1.405  23.153  13.452
99275W        W71700  40.527  37.515  10.412
99276W        W71701  16.299  24.174   3.349
99277W        W71702   2.964  33.916   1.399
99278W        W71703  29.132  21.261   0.798
99279W        W71704  39.827  27.981  11.518
99280W        W71705  10.785  41.459   0.262
99281W        W71706  32.506  37.337   0.299
99282W        W71707  25.476  32.068   4.310
99283W        W71708   3.951  16.153  12.983
99284W        W71709   4.815   2.864  14.859
99285W        W71710  27.601  30.525  10.099
99286W        W71711  32.132  32.491   4.731
99287W        W71712   1.453  41.943   2.737
99288W        W71713  13.626  19.141  11.605
99289W        W71714   3.294  20.615   2.775
99290W        W71715  31.493  40.834  12.564
99291W        W71716  27.147  27.000  13.980
99292W        W71717  27.108  12.177  10.499
99293W        W71718  18.751  15.733   3.181
99294W        W71719  16.772  14.265   4.343
99295W        W71720  17.132  35.399   3.364
99296W        W71721  39.988   0.848   2.694
99297W        W71722  14.311   4.408  10.431
99298W        W71723   1.788   3.787   1.716
99299W        W71724  17.261   1.802   9.951
99300W        W71725   5.799   1.395  13.334
99301W        W71726  22.252  15.173   3.663
99302W        W71727   1.300  14.123  11.939
99303W        W71728  30.526  16.576  11.607
99304W        W71729  43.410  30.105  11.419
99305W        W71730  21.619  35.425   2.890
99306W        W71731  38.543   8.273   3.826
99307W        W71732   6.834  39.404   1.214
99308W        W71733  12.798  18.176  11.473
99309W        W71734  37.917  14.167  11.874
99310W        W71735  40.031   9.231  13.051
99311W        W71736  42.828  10.724  12.381
99312W        W71737  44.277  41.421  14.304
99313W        W71738   8.775  23.056  10.992
99314W        W71739   6.678   7.675  13.437
99315W        W71740   4.239  12.154  14.301
99316W        W71741  23.167  37.355  11.002
99317W        W71742  16.078   2.773   4.227
99318W        W71743  39.989  15.140   0.317
99319W        W71744  35.852  10.164   3.175
99320W        W71745  11.739  44.904  12.874
99321W        W71746  22.069  36.490  10.451
99322W        W71747  41.038  37.536  13.007
99323W        W71748   1.431  30.041  12.512
99324W        W71749  37.577  35.556   1.812
99325W        W71750  17.126  15.197  11.903
99326W        W71751   2.400  12.613   3.163
99327W        W71752  24.187  25.128   0.849
99328W        W71753  31.009  40.315   1.360
99329W        W71754  12.295   8.200  10.571
99330W        W71755  37.455  22.663  14.908
99331W        W71756  11.754   1.813   1.435
99332W        W71757   3.426   0.347   0.846
99333W        W71758   2.270   5.229   4.822
99334W        W71759  12.619  44.805   4.647
99335W        W71760  26.957  33.960  11.118
99336W        W71761  12.626  20.052  10.441
99337W        W71762  16.616  14.783  14.999
99338W        W71763  17.687   7.866   3.162
99339W        W71764  40.543  26.527  12.007
99340W        W71765  23.614  39.984   4.824
99341W        W71766  30.573  37.866   4.618
99342W        W71767   7.886  43.322  13.055
99343W        W71768   5.327  18.620  13.899
99344W        W71769  34.997   4.912  14.812
99345W        W71770  19.580   3.423  12.994
99346W        W71771   4.339  42.856   3.834
99347W        W71772   5.388  14.117   2.226
99348W        W71773   7.322   4.853   0.850
99349W        W71774  15.263  10.728  13.341
99350W        W71775  10.671  34.379  11.490
99351W        W71776  11.365  33.969  14.851
99352W        W71777  34.080   3.278   3.353
99353W        W71778  35.540   3.292   4.607
99354W        W71779  11.228   0.799  14.343
99355W        W71780  31.971  14.278  12.441
99356W        W71781  36.971  27.990   3.258
99357W        W71782  22.693  22.056  12.093
99358W        W71783  31.076  17.592  12.019
99359W        W71784  30.586   5.755   0.953
99360W        W71785   1.955  44.777   0.434
99361W        W71786  11.630  10.259   1.420
99362W        W71787  32.906  17.739  10.596
99363W        W71788  29.478  27.473  10.938
99364W        W71789  16.114  42.941   3.294
99365W        W71790   1.869  24.117  14.830
99366W        W71791  12.301  21.659   0.304
99367W        W71792   2.337   4.920   3.869
99368W        W71793  11.182  19.577   0.420
99369W        W71794  27.945  26.976  10.895
99370W        W71795  24.047  44.782  11.900
99371W        W71796  41.292   3.761  14.454
99372W        W71797  44.875  14.153   3.319
99373W        W71798  26.966  17.249   9.943
99374W        W71799  40.846   0.786   3.350
99375W        W71800   6.363  27.548   1.270
99376W        W71801  34.482   3.365   1.350
99377W        W71802  28.973  39.056  13.501
99378W        W71803  21.091  27.971   4.218
99379W        W71804  19.737  32.898  10.944
99380W        W71805  34.549   6.394   0.739
99381W        W71806  21.079  14.103   2.859
99382W        W71807  11.846  14.126  10.950
99383W        W71808  18.629  42.299  10.458
99384W        W71809  42.918  10.288   4.601
99385W        W71810  43.305   2.915  11.097
99386W        W71811   1.449   4.913  13.315
99387W        W71812  31.596  38.538   4.277
99388W        W71813  32.563  36.963  11.088
99389W        W71814   9.395  33.062  13.533
99390W        W71815  43.858  14.169  12.827
99391W        W71816  17.149  29.462   4.299
99392W        W71817   2.916  18.677  12.903
99393W        W71818  17.259  17.242   2.872
99394W        W71819  10.754  13.115   3.212
99395W        W71820  30.930   4.435  13.307
99396W        W71821  25.013  39.878   0.921
99397W        W71822  40.938  30.045   4.683
99398W        W71823   6.869  33.532   3.221
99399W        W71824  21.561  35.034  11.033
99400W        W71825   4.273  33.122   2.217
99401W        W71826   6.908   9.167   4.686
99402W        W71827  36.367  18.060   9.933
99403W        W71828   2.731   5.197   4.755
99404W        W71829  37.533  35.482  13.045
99405W        W71830  22.222   0.748  12.542
99406W        W71831  44.997  32.113  12.955
99407W        W71832  22.678   4.208  13.011
99408W        W71833  38.960  36.926   0.726
99409W        W71834  24.644  31.068  13.981
99410W        W71835   2.912   4.248  12.007
99411W        W71836  16.718  43.438  11.448
99412W        W71837   4.787  31.986   4.799
99413W        W71838  39.324  15.314  13.845
99414W        W71839   7.236   8.276  10.550
99415W        W71840   6.829   2.310  14.509
99416W        W71841  29.485  40.419  10.131
99417W        W71842  30.425   4.940   4.669
99418W        W71843  25.648  36.865  13.939
99419W        W71844  19.773  35.479   0.745
99420W        W71845   7.370  41.838   1.316
99421W        W71846  37.843  26.052  14.447
99422W        W71847  38.329  27.170   3.205
99423W        W71848  22.587  23.029   4.670
99424W        W71849  27.073  41.796   4.610
99425W        W71850  16.240  41.339  11.560
99426W        W71851  37.481  36.580   3.741
99427W        W71852  35.397  42.856   0.940
99428W        W71853   5.759  31.106   1.737
99429W        W71854  18.703  26.200  11.863
99430W        W71855  19.777  22.694   4.193
99431W        W71856  13.817  38.566  12.956
99432W        W71857  16.265  18.182   5.155
99433W        W71858  17.561  37.004   0.923
99434W        W71859   0.394  43.823   2.663
99435W        W71860  27.134  40.841  10.457
99436W        W71861   9.807  43.971  10.443
99437W        W71862   8.818  42.842  11.118
99438W        W71863  39.344   9.363   4.141
99439W        W71864   9.306  27.474  12.446
99440W        W71865  42.435  40.901  10.505
99441W        W71866   0.844  11.663   3.633
99442W        W71867  30.917  13.317   0.736
99443W        W71868  36.434  18.293  12.552
99444W        W71869  37.002  20.107  12.444
99445W        W71870  17.159   0.298  13.979
99446W        W71871  23.561  30.988   3.750
99447W        W71872  32.069  32.587   4.301
99448W        W71873  43.866  29.100   1.879
99449W        W71874  37.035  17.070   4.269
99450W        W71875   4.426  35.526   0.783
99451W        W71876  15.086  23.662   1.449
99452W        W71877  12.313   0.402  14.813
99453W        W71878  36.925   7.327  11.990
99454W        W71879  14.247   5.870   1.317
99455W        W71880  21.591  35.067   2.718
99456W        W71881  32.939  30.567   1.843
99457W        W71882   0.397  18.570  12.408
99458W        W71883  22.127   2.944   1.275
99459W        W71884  40.489   9.231  11.877
99460W        W71885   1.848  18.668  13.470
99461W        W71886   2.724  34.378  13.380
99462W        W71887  19.244  31.035  10.539
99463W        W71888  20.733  12.855   3.631
99464W        W71889  38.898   8.886  12.897
99465W        W71890  38.453   0.922  10.966
99466W        W71891  43.417  15.211   4.656
99467W        W71892  37.521  14.316   0.851
99468W        W71893  38.015  10.647   0.422
99469W        W71894  36.427  30.072  14.012
99470W        W71895  36.906  17.704  12.532
99471W        W71896   7.825  10.867   1.867
99472W        W71897  36.090  22.167   4.701
99473W        W71898   1.435  17.665   0.468
99474W        W71899  29.174  33.575   2.902
99475W        W71900   3.274  39.423  13.451
99476W        W71901  19.758  11.748   2.412
99477W        W71902  43.319  10.282   0.927
99478W        W71903  20.036  23.119   0.753
99479W        W71904   5.816  11.799   0.762
99480W        W71905  30.651  35.512   0.853
99481W        W71906  36.017  22.543   2.409
99482W        W71907   3.232   2.427  13.519
99483W        W71908  39.522   3.810   2.748
99484W        W71909  21.018  15.201   4.635
99485W        W71910  15.616  18.619   0.828
99486W        W71911  28.496  11.196  14.969
99487W        W71912  33.583   2.946  12.404
99488W        W71913  34.396  15.324  12.083
99489W        W71914  24.044  33.882  13.547
99490W        W71915  13.810  21.182   5.289
99491W        W71916   2.403  19.060  11.080
99492W        W71917  28.932   8.276   1.449
99493W        W71918  39.456  27.012   0.856
99494W        W71919  14.181  32.536  14.842
99495W        W71920   2.947   9.650   2.268
99496W        W71921  36.038  30.013  13.877
99497W        W71922  33.621  19.185  14.019
99498W        W71923  41.852  33.615   5.200
99499W        W71924  26.040   8.274   1.267
99500W        W71925  27.991  13.613  10.582
99501W        W71926   7.783  27.511   3.242
99502W        W71927  16.712   7.862  14.863
99503W        W71928  43.478  33.939   1.777
99504W        W71929  29.988   5.252  14.425
99505W        W71930  44.932  24.000   2.741
99506W        W71931  31.095   5.394   4.236
99507W        W71932  34.971  18.635   0.730
99508W        W71933  34.397  44.302   4.609
99509W        W71934  19.729  10.278   2.839
99510W        W71935  30.077   6.196   3.648
99511W        W71936  39.042  42.295   3.167
99512W        W71937  39.844  24.583   4.753
99513W        W71938  43.777  43.882   0.967
99514W        W71939  42.510  16.766  14.409
99515W        W71940  14.277  39.819  12.891
99516W        W71941   8.251   4.351   2.393
99517W        W71942  36.528   3.916   1.809
99518W        W71943  21.229  42.468   3.865
99519W        W71944   0.341  20.154  14.478
99520W        W71945  23.570  18.634   0.327
99521W        W71946  33.382  12.230   0.384
99522W        W71947  24.570  17.126  10.587
99523W        W71948  20.129  19.625   2.675
99524W        W71949  28.603  40.990   1.372
99525W        W71950  42.931   9.854   3.185
99526W        W71951  19.081  17.080  14.940
99527W        W71952  42.819   5.296  10.595
99528W        W71953  19.566   7.719   1.820
99529W        W71954  32.996  25.471   4.170
99530W        W71955  32.024   9.299  10.510
99531W        W71956   7.183  33.592   2.326
99532W        W71957  36.967   1.450   3.385
99533W        W71958  27.032   5.208   0.474
99534W        W71959  11.161  33.100   2.765
99535W        W71960  26.557  28.941   2.797
99536W        W71961  36.457  22.632   3.258
99537W        W71962   5.850  26.508  12.870
99538W        W71963  13.289  22.533  13.457
99539W        W71964  17.640  38.907  14.449
99540W        W71965   1.965  10.175  14.324
99541W        W71966  30.908  40.415   2.293
99542W        W71967   0.256  38.406  12.850
99543W        W71968   6.390   7.717  12.493
99544W        W71969   4.321  30.081   3.748
99545W        W71970   4.802   4.245  13.898
99546W        W71971  22.515  18.674   4.342
99547W        W71972  16.743  11.787  13.932
99548W        W71973   3.396  16.695  11.985
99549W        W71974   6.848  43.821   0.746
99550W        W71975  15.751   3.266  13.956
99551W        W71976  29.001  41.969   2.417
99552W        W71977  10.789  42.392  14.289
99553W        W71978   6.281  34.395  10.898
99554W        W71979  14.781   1.950  13.458
99555W        W71980   2.415   6.293   5.259
99556W        W71981   7.244  10.636  14.988
99557W        W71982  18.669  35.940  12.411
99558W        W71983   5.759   2.749  12.392
99559W        W71984  37.526   5.917   0.299
99560W        W71985  22.569   9.221   0.841
99561W        W71986   0.929  24.703  11.977
99562W        W71987  24.142  37.066   2.199
99563W        W71988  17.120  10.148  10.047
99564W        W71989  30.653   4.344  12.530
99565W        W71990  23.501   4.790   3.302
99566W        W71991  17.679   7.687  13.412
99567W        W71992  32.078  30.013  14.488
99568W        W71993   5.428  42.904  12.541
99569W        W71994  41.879  19.265   4.762
99570W        W71995   0.422   4.847  14.944
99571W        W71996   4.872  13.321  11.988
99572W        W71997  27.066  19.702  13.057
99573W        W71998  35.968  40.879   1.307
99574W        W71999  39.497  25.500   1.827
99575W        W72000  24.664  18.253  11.421
99576W        W72001  34.016  31.041  12.834
99577W        W72002  10.172  33.111  14.802
99578W        W72003   6.273  38.961   4.342
99579W        W72004  12.186  26.575   9.931
99580W        W72005  35.360  38.487   0.342
99581W        W72006  37.918   3.753   3.811
99582W        W72007   4.282   6.908   2.264
99583W        W72008  26.569  12.240   2.859
99584W        W72009  43.481  18.557   1.867
99585W        W72010   5.222  19.229  13.481
99586W        W72011  20.655  21.621  10.550
99587W        W72012  14.749  14.198   0.244
99588W        W72013  20.759  27.010   0.406
99589W        W72014  22.652   1.462   2.367
99590W        W72015   0.366  17.795   4.614
99591W        W72016  17.199   9.770   2.201
99592W        W72017  20.119  27.471  13.382
99593W        W72018  21.164  42.006   2.673
99594W        W72019   1.800   6.267  13.854
99595W        W72020  24.115  40.536  12.955
99596W        W72021  24.204  33.394  14.301
99597W        W72022  35.452  33.014  14.875
99598W        W72023  20.740  38.989   3.218
99599W        W72024  30.924  41.469   0.359
99600W        W72025  25.568   9.291   1.393
99601W        W72026  10.716   3.842   1.887
99602W        W72027  29.534  23.997   9.501
99603W        W72028   6.392  43.475   1.712
99604W        W72029  30.472  25.095  11.520
99605W        W72030  15.767   4.434  10.453
99606W        W72031   8.234  34.056   2.217
99607W        W72032  27.629  16.675  13.012
99608W        W72033  12.144  17.575   4.790
99609W        W72034  41.938  25.652   3.249
99610W        W72035  11.152  33.616  13.855
99611W        W72036  21.734  11.252   1.851
99612W        W72037   9.726  29.539   0.887
99613W        W72038   8.306   8.281  13.333
99614W        W72039  17.795  19.262   0.378
99615W        W72040  27.051  13.161  13.031
99616W        W72041  39.407  37.011   4.657
99617W        W72042   0.428   3.817   1.308
99618W        W72043  42.526   4.894  14.281
99619W        W72044  19.722  26.969  13.846
99620W        W72045  28.552   1.919   0.941
99621W        W72046  25.042  35.033   1.363
99622W        W72047  40.001  20.230  12.061
99623W        W72048  26.074   6.764   3.356
99624W        W72049  12.302  17.242  10.452
99625W        W72050   6.275  22.577  14.791
99626W        W72051  33.481  15.268   0.904
99627W        W72052   5.711   9.177  11.448
99628W        W72053  20.267  12.668   4.326
99629W        W72054  34.373  40.034   2.375
99630W        W72055  11.313  16.749   1.387
99631W        W72056  15.295  12.258   4.666
99632W        W72057   9.394  18.603   4.299
99633W        W72058  19.111  19.644  13.030
99634W        W72059  11.847  25.032   4.138
99635W        W72060  22.052  24.973  13.804
99636W        W72061  32.935  20.581  11.569
99637W        W72062   9.697  29.523  11.995
99638W        W72063  13.152   4.301  14.491
99639W        W72064   8.705  25.477   3.271
99640W        W72065  30.064  31.475   3.668
99641W        W72066  19.088  10.142  11.092
99642W        W72067  42.930  25.994   2.329
99643W        W72068   3.293  19.534  11.957
99644W        W72069   2.470  43.842   0.339
99645W        W72070  34.017  41.500   0.353
99646W        W72071  25.692  11.179   4.233
99647W        W72072  19.626  31.910   1.444
99648W        W72073  10.686  17.227   1.715
99649W        W72074  30.114   9.721  11.998
99650W        W72075  37.841  14.337   5.179
99651W        W72076  33.473  17.238  11.398
99652W        W72077  17.793  13.288  13.358
99653W        W72078   5.921  29.981  14.349
99654W        W72079  18.620  10.635   2.754
99655W        W72080   3.950  24.043   1.844
99656W        W72081   9.730  35.956   0.907
99657W        W72082   0.787  23.612  12.095
99658W        W72083  42.867  38.872   4.738
99659W        W72084  36.431  13.320  14.931
99660W        W72085   5.397  11.233  12.517
99661W        W72086  16.239  15.798  10.908
99662W        W72087   3.376  37.478  10.477
99663W        W72088   0.250  31.563  10.484
99664W        W72089  29.145  32.054   1.406
99665W        W72090  40.475  43.832   0.296
99666W        W72091  12.359  35.990   4.732
99667W        W72092  22.175  43.338   4.689
99668W        W72093  41.817  21.579   3.215
99669W        W72094  44.283  22.169   4.731
99670W        W72095  26.166  20.151  14.500
99671W        W72096   7.263   4.831   2.285
99672W        W72097   2.941   5.245  12.895
99673W        W72098   0.850  17.705   1.928
99674W        W72099   6.192  41.499   1.769
99675W        W72100   8.306  12.669   4.165
99676W        W72101  28.626  44.475   1.852
99677W        W72102   5.766   1.458   1.327
99678W        W72103  40.380   1.954   3.264
99679W        W72104   0.970  36.847  11.080
99680W        W72105  13.612  44.888  13.021
99681W        W72106  21.568   2.265   1.931
99682W        W72107  32.613  23.004  13.422
99683W        W72108   9.192  21.710  12.384
99684W        W72109  11.628  28.674   2.749
99685W        W72110   7.673  30.921  11.375
99686W        W72111   6.895  28.580  13.315
99687W        W72112   3.887   7.303   0.952
99688W        W72113  11.233  14.625  14.762
99689W        W72114   5.413  13.185  10.421
99690W        W72115  19.210   3.822  14.862
99691W        W72116  41.911  28.991   0.412
99692W        W72117  34.888  27.950  12.087
99693W        W72118  26.479  36.393  12.451
99694W        W72119  34.051  44.369  10.958
99695W        W72120  43.996  13.175  13.456
99696W        W72121  31.570  17.679  12.383
99697W        W72122  25.705  25.098  11.566
99698W        W72123  39.313  15.761   4.833
99699W        W72124  37.550  41.419   2.814
99700W        W72125  16.806  13.824  11.411
99701W        W72126  24.539  34.981   1.777
99702W        W72127   5.407  15.604  13.360
99703W        W72128  12.355  20.189   3.720
99704W        W72129  33.619  26.510   2.843
99705W        W72130   9.244  30.558   1.827
99706W        W72131  41.804  14.654  12.858
99707W        W72132  34.944  10.167  12.964
99708W        W72133  40.811   1.339   0.347
99709W        W72134   5.757  31.538  14.380
99710W        W72135  15.811  24.679   1.354
99711W        W72136  26.954  10.197  11.077
99712W        W72137   7.322   7.822  13.797
99713W        W72138  24.176  26.989  10.987
99714W        W72139  37.567  10.180   1.760
99715W        W72140  30.639  29.456   1.737
99716W        W72141  36.555  42.956   3.807
99717W        W72142  19.091  27.165   0.877
99718W        W72143  12.856   9.290   4.779
99719W        W72144  10.169  20.073   3.320
99720W        W72145  41.833  29.594   2.307
99721W        W72146  21.725  20.621   2.727
99722W        W72147  17.726  17.673  13.458
99723W        W72148   9.344  29.932   4.171
99724W        W72149  38.845  24.618   4.128
99725W        W72150  37.873  12.666  11.475
99726W        W72151  37.979   6.850   9.643
99727W        W72152  22.245   1.885   3.264
99728W        W72153  21.705  33.876  14.806
99729W        W72154  11.701   2.778   1.401
99730W        W72155  27.592  38.455   2.265
99731W        W72156  21.599  16.772  10.948
99732W        W72157  13.722  20.231  11.939
99733W        W72158  20.150  42.840  12.077
99734W        W72159  14.317   5.281  14.779
99735W        W72160  41.505  21.546  13.868
99736W        W72161  40.938  27.170  12.908
99737W        W72162  42.489  25.479   1.444
99738W        W72163  25.531  42.862  13.835
99739W        W72164  24.046  19.710   3.190
99740W        W72165   7.763  31.449  12.969
99741W        W72166  42.979   4.930  14.389
99742W        W72167  44.343  12.260   0.828
99743W        W72168  39.007  41.360   3.799
99744W        W72169   2.774  25.494   1.265
99745W        W72170  14.311  27.101   1.434
99746W        W72171  13.341  11.213  12.419
99747W        W72172  24.083  40.911  14.867
99748W        W72173  31.630  18.551   3.636
99749W        W72174  15.595  44.259   5.147
99750W        W72175   8.877  38.568  12.572
99751W        W72176  32.055  38.055   1.256
99752W        W72177  31.506  39.518   9.920
99753W        W72178   7.412   7.717   4.203
99754W        W72179   8.235  16.648   4.179
99755W        W72180  23.515  30.951  10.420
99756W        W72181  10.860  35.993  14.498
99757W        W72182  39.373  42.893  12.013
99758W        W72183  29.125  42.991  13.432
99759W        W72184  28.032  41.041   3.212
99760W        W72185  17.801  23.709  12.457
99761W        W72186  12.711  26.154   2.709
99762W        W72187  11.702  44.944   1.328
99763W        W72188  44.827  34.490   2.241
99764W        W72189  44.348  28.589   0.283
99765W        W72190   1.454  41.536   3.362
99766W        W72191   9.759  23.001  14.902
99767W        W72192  13.216  18.779   0.248
99768W        W72193   1.409  33.901  13.490
99769W        W72194   0.286   4.873   3.161
99770W        W72195   6.351  27.644   3.870
99771W        W72196  36.908  38.900   1.425
99772W        W72197  17.198   7.266  11.968
99773W        W72198   1.403  38.842   3.631
99774W        W72199  43.013  17.709  12.386
99775W        W72200  10.255  15.774  11.018
99776W        W72201  33.030  18.763   0.443
99777W        W72202  18.230  28.043  10.951
99778W        W72203  15.202  18.682  11.024
99779W        W72204  37.856  22.717  12.958
99780W        W72205  10.295  21.243   5.295
99781W        W72206  22.508  26.603   4.745
99782W        W72207  42.897  36.482   2.313
99783W        W72208  27.526   7.733  14.379
99784W        W72209  24.183   9.702  10.066
99785W        W72210  20.240   6.212   1.338
99786W        W72211  43.835  28.546  11.875
99787W        W72212  42.927   6.817   2.410
99788W        W72213  19.611  38.013  12.465
99789W        W72214  32.600  26.963  14.831
99790W        W72215  12.809  12.305   1.745
99791W        W72216  19.166  38.916   3.305
99792W        W72217  23.685  28.619  13.499
99793W        W72218  43.290  41.354  14.285
99794W        W72219  23.192  33.009   1.774
99795W        W72220  44.835   9.328  11.481
99796W        W72221   5.234  37.559   1.350
99797W        W72222  33.010  10.656  14.897
99798W        W72223  22.523  38.543  14.464
99799W        W72224  25.130   4.415  14.798
99800W        W72225  16.606  33.559  14.846
99801W        W72226  26.201  32.428  13.028
99802W        W72227  21.692  43.512   1.405
99803W        W72228  39.314  14.829  13.813
99804W        W72229  37.410  38.962  11.429
99805W        W72230  40.907  17.602   2.223
99806W        W72231  31.063  41.847  13.368
99807W        W72232  12.194   9.800  14.365
99808W        W72233  12.777  35.878  14.823
99809W        W72234  24.021  11.676  11.046
99810W        W72235  19.198  10.745   1.784
99811W        W72236  11.333   3.350  14.988
99812W        W72237  20.722  28.569   0.298
99813W        W72238  40.924   6.685   3.376
99814W        W72239  40.314  22.122  13.001
99815W        W72240  35.423  22.068  12.080
99816W        W72241  29.454   8.185   2.301
99817W        W72242  35.049   0.306  11.075
99818W        W72243  10.286  19.707  12.386
99819W        W72244  32.527  11.205   1.859
99820W        W72245  35.087   8.281   4.262
99821W        W72246   9.249  24.631   0.940
99822W        W72247  44.835  41.420   2.782
99823W        W72248  22.666  41.527  14.877
99824W        W72249  22.630  42.887   3.287
99825W        W72250  14.304  29.531  11.071
99826W        W72251   0.945  41.326  13.863
99827W        W72252  40.975   0.431  11.950
99828W        W72253  39.983  35.074   1.269
99829W        W72254  42.466  33.028  10.971
99830W        W72255  22.160  42.457   3.714
99831W        W72256   5.244  26.650  11.372
99832W        W72257  30.517  12.795  12.838
99833W        W72258  40.318  34.445  13.547
99834W        W72259  12.791  36.932  13.476
99835W        W72260  22.593  33.615   4.275
99836W        W72261  20.065  11.644   3.760
99837W        W72262  20.640  37.047   1.264
99838W        W72263   3.435  33.115   4.320
99839W        W72264  29.147   7.822  14.473
99840W        W72265  30.604   4.704  10.909
99841W        W72266  44.921  21.248  14.440
99842W        W72267  32.091   9.765  14.892
99843W        W72268  18.135  16.741  14.794
99844W        W72269  24.062  25.103  14.511
99845W        W72270  18.161  19.578   3.747
99846W        W72271  37.927  43.868  11.096
99847W        W72272  25.217  21.575   4.731
99848W        W72273  32.561   7.861   4.725
99849W        W72274  44.341  23.041  14.500
99850W        W72275  17.065  44.942  10.405
99851W        W72276  14.816  16.213   3.188
99852W        W72277  31.627  44.260  14.500
99853W        W72278  23.984   1.845  10.487
99854W        W72279  37.532  18.175   0.911
99855W        W72280  17.707  13.334  11.944
99856W        W72281  42.340  29.052  11.454
99857W        W72282  34.448   9.212  14.023
99858W        W72283  14.297  42.927   4.287
99859W        W72284  33.418  10.735   2.369
99860W        W72285  26.654  39.864  12.346
99861W        W72286  27.584  19.662   0.841
99862W        W72287  35.894   6.716  14.422
99863W        W72288  39.317  13.178  14.293
99864W        W72289  16.243  15.706   3.316
99865W        W72290  28.011   1.947  11.865
99866W        W72291   0.841   6.694   3.806
99867W        W72292  16.121  13.617  10.552
99868W        W72293   1.276  10.673  12.399
99869W        W72294   9.289  29.566   0.262
99870W        W72295  30.122  19.728   1.217
99871W        W72296  42.484   5.436   1.869
99872W        W72297  41.877  12.718   1.864
99873W        W72298  30.452  12.849  14.906
99874W        W72299  34.998  20.123   2.186
99875W        W72300  24.499  41.533   1.924
99876W        W72301  42.430  30.479   4.212
99877W        W72302  13.829   0.402   9.532
99878W        W72303  26.692  18.052  10.603
99879W        W72304  40.817  15.159   3.785
99880W        W72305   5.704  26.558  13.892
99881W        W72306  21.149  26.702  10.436
99882W        W72307  20.183  39.056  12.989
99883W        W72308  11.789   7.185   5.300
99884W        W72309  16.652  37.531   0.242
99885W        W72310  44.879  27.103  13.020
99886W        W72311  27.996  14.172   4.815
99887W        W72312   3.220  31.127   0.346
99888W        W72313  32.518  42.437   0.328
99889W        W72314  14.810   9.190  11.870
99890W        W72315  38.539  39.012   2.788
99891W        W72316  22.612  24.481   4.695
99892W        W72317  14.609   2.876   2.880
99893W        W72318  30.518  31.982  12.939
99894W        W72319  15.173  27.661  13.418
99895W        W72320  24.524  12.358  13.793
99896W        W72321  16.621   7.896   0.434
99897W        W72322  29.021  34.997  13.912
99898W        W72323   5.304   7.225   2.228
99899W        W72324  23.042  12.302   4.264
99900W        W72325  28.589  14.202  13.431
99901W        W72326  36.888  16.183  14.508
99902W        W72327  40.424  11.819   3.211
99903W        W72328  35.401  28.437  14.457
99904W        W72329  33.562   9.326  10.439
99905W        W72330  36.488  29.027   0.446
99906W        W72331  19.124  41.404   0.270
99907W        W72332  28.471  17.596   2.823
99908W        W72333  35.400  30.074  14.409
99909W        W72334  35.530  11.195   2.773
99910W        W72335  25.482  41.839   3.300
99911W        W72336  10.767  36.904   3.831
99912W        W72337  34.970  44.862   3.683
99913W        W72338  29.581  42.339  14.348
99914W        W72339  42.415  26.468   4.118
99915W        W72340  16.274  33.025   0.464
99916W        W72341  21.537  40.440  11.965
99917W        W72342   4.723  20.191  13.395
99918W        W72343  25.146  17.102   0.931
99919W        W72344  31.042  35.041   2.364
99920W        W72345  28.038   0.969  12.020
99921W        W72346  27.579  24.719   2.224
99922W        W72347  26.125  19.723  11.017
99923W        W72348  34.080   3.318  10.416
99924W        W72349  14.131  35.916   0.736
99925W        W72350  15.317   8.294   2.259
99926W        W72351  13.212  37.860  13.023
99927W        W72352  35.478  41.814   1.437
99928W        W72353  10.851  43.327  12.373
99929W        W72354  11.178  24.151   2.687
99930W        W72355  23.168  13.346  12.541
99931W        W72356  24.627  35.429  13.947
99932W        W72357  26.536  13.163  12.009
99933W        W72358   1.812  24.053  11.895
99934W        W72359  12.257  34.532   1.396
99935W        W72360  15.691  37.036  12.493
99936W        W72361  18.090  29.459   2.254
99937W        W72362  18.084  27.653   4.332
99938W        W72363  34.465  31.472  14.898
99939W        W72364  43.351  21.676  13.016
99940W        W72365  35.923   7.377   3.794
99941W        W72366  10.706  14.833  12.411
99942W        W72367  31.118  21.108  12.977
99943W        W72368   0.318   7.789   2.704
99944W        W72369  20.739  19.642   4.258
99945W        W72370  44.985  16.298   4.812
99946W        W72371  42.370  40.471  14.421
99947W        W72372  31.557  25.086  12.975
99948W        W72373  34.530  36.911   3.235
99949W        W72374   0.314   4.323  10.582
99950W        W72375   9.660  40.545   3.833
99951W        W72376  30.565  35.384   2.371
99952W        W72377   8.336  40.049   3.258
99953W        W72378  44.980   8.202  12.548
99954W        W72379  43.345  20.687   2.827
99955W        W72380  22.686  11.739   4.710
99956W        W72381   1.308   8.194  14.347
99957W        W72382  24.200   6.786   1.753
99958W        W72383  24.229  42.351  10.507
99959W        W72384  12.707   5.749  14.330
99960W        W72385   4.315  10.174  10.583
99961W        W72386  34.989  36.930  14.494
99962W        W72387  21.619  44.409   2.402
99963W        W72388  10.690  20.739   2.382
99964W        W72389   7.179  31.488  14.352
99965W        W72390   0.425   1.951  14.830
99966W        W72391   8.806  31.913  14.820
99967W        W72392  37.840  14.701   0.353
99968W        W72393   3.950  43.404   4.232
99969W        W72394   7.173   2.372   1.879
99970W        W72395  15.724  15.109  14.416
99971W        W72396  17.786   0.344   1.235
99972W        W72397  44.756  10.242  12.914
99973W        W72398  32.503  30.413  14.919
99974W        W72399   5.923  36.880  12.906
99975W        W72400  35.476  35.865  10.558
99976W        W72401  37.540  30.553  14.393
99977W        W72402  32.002   1.259   4.745
99978W        W72403  30.600  28.532  13.978
99979W        W72404  28.036  19.056   3.235
99980W        W72405  31.071  43.278   1.771
99981W        W72406   1.323   6.209  13.969
99982W        W72407  29.626  21.547  11.426
99983W        W72408  34.499   5.860  12.984
99984W        W72409  35.493  41.358   3.293
99985W        W72410   8.832   8.289   0.800
99986W        W72411  34.998  32.074  13.819
99987W        W72412  32.619  28.635  13.814
99988W        W72413   8.856  10.857   0.955
99989W        W72414  34.485  31.101  14.423
99990W        W72415  32.464   2.742   3.209
99991W        W72416  28.459  12.148   1.802
99992W        W72417  43.970  26.559  10.444
99993W        W72418   9.317  14.295   0.357
99994W        W72419   6.774  44.856  12.339
99995W        W72420   1.885  41.791   0.280
99996W        W72421  17.661  41.311   0.880
99997W        W72422  44.786   8.843   1.833
99998W        W72423  23.215  17.792  10.446
99999W        W72424  33.552   2.747  12.023
    0W        W72425   8.188  38.476  10.443
    1W        W72426   8.752  39.048   3.149
    2W        W72427  44.284  25.998   0.949
    3W        W72428  39.058  31.924   5.139
    4W        W72429  29.103  38.364   2.697
    5W        W72430  22.105  17.138  11.446
    6W        W72431  30.462   2.920  14.341
    7W        W72432  19.565  16.221   0.865
    8W        W72433  35.092  12.235   0.788
    9W        W72434  40.827  21.058  13.408
   10W        W72435   2.815  27.067  10.521
   11W        W72436  20.727  42.851  14.485
   12W        W72437  43.921  16.662   3.673
   13W        W72438  23.163   8.175  14.995
   14W        W72439  16.216  13.331  11.536
   15W        W72440  30.429   5.244   2.372
   16W        W72441   9.780  32.977   1.396
   17W        W72442  35.926  10.355  14.914
   18W        W72443  40.373  15.238   2.282
   19W        W72444  28.508   6.799   3.708
   20W        W72445  44.892  17.753  11.410
   21W        W72446  37.526  32.575  12.038
   22W        W72447  28.138   9.786   2.211
   23W        W72448   3.298  29.930  12.034
   24W        W72449   2.298  10.839  12.067
   25W        W72450  18.167   1.789   2.411
   26W        W72451  29.057   8.875   3.699
   27W        W72452  28.018  35.384   2.756
   28W        W72453  35.456  33.905  14.779
   29W        W72454  13.686  13.324  10.495
   30W        W72455  32.587  15.085   4.235
   31W        W72456  40.016  40.400  14.327
   32W        W72457  19.131  11.217   2.873
   33W        W72458   0.746  13.671  11.857
   34W        W72459  10.140  23.056  10.996
   35W        W72460  35.972  38.921   9.986
   36W        W72461  36.440  13.737   3.728
   37W        W72462  41.447  35.592   4.219
   38W        W72463  39.446  43.338   3.666
   39W        W72464   4.245   7.317   0.469
   40W        W72465  38.534  42.347  10.404
   41W        W72466  33.903  39.039   3.185
   42W        W72467  13.650  44.319   0.957
   43W        W72468  34.052   1.960   0.346
   44W        W72469   2.272  24.991  13.042
   45W        W72470  39.983  15.119   1.705
   46W        W72471  44.483  38.380   2.845
   47W        W72472   4.723   7.905  11.081
   48W        W72473  34.437   5.265  14.379
   49W        W72474  41.018  17.564   1.931
   50W        W72475  30.918   3.762   3.860
   51W        W72476  26.124  25.523   4.763
   52W        W72477  41.902  20.595  14.491
   53W        W72478  35.415  19.570  11.533
   54W        W72479  20.657   1.421   4.785
   55W        W72480  18.637  10.187   4.809
   56W        W72481   4.843  25.473  12.388
   57W        W72482  14.108  23.547  13.511
   58W        W72483   4.231  18.130   3.194
   59W        W72484   0.903  11.839  14.457
   60W        W72485  31.606  10.662   4.820
   61W        W72486  42.333   7.882   4.708
   62W        W72487  20.586   6.780  12.982
   63W        W72488  42.302   5.226  10.980
   64W        W72489   5.865  23.125  11.410
   65W        W72490  10.340  30.046  14.936
   66W        W72491  43.921  41.030   0.451
   67W        W72492  20.166  14.639  14.810
   68W        W72493  25.042  37.977  10.428
   69W        W72494  22.061  41.788   4.253
   70W        W72495  16.613  25.171   0.902
   71W        W72496  43.804  25.530  13.840
   72W        W72497  34.917  15.095   4.626
   73W        W72498  33.458  22.227   0.867
   74W        W72499  41.495  16.702   3.704
   75W        W72500  36.892   6.295  14.472
   76W        W72501  33.484  32.499  11.110
   77W        W72502  40.968  35.478   3.823
   78W        W72503  41.351  28.507  10.609
   79W        W72504   0.335  42.933   0.399
   80W        W72505  35.371  16.132   3.861
   81W        W72506  41.943  13.602  13.972
   82W        W72507  30.510  20.534  13.846
   83W        W72508   7.846  31.572  11.588
   84W        W72509   9.285  30.581  14.484
   85W        W72510   2.945  27.538  11.097
   86W        W72511   6.216  11.853   3.347
   87W        W72512   9.245  22.732  14.300
   88W        W72513  15.285   3.946   9.450
   89W        W72514   5.774  28.523  12.073
   90W        W72515  28.626  15.711   4.620
   91W        W72516   8.658  31.561   4.634
   92W        W72517  14.668  21.071   3.672
   93W        W72518  22.999  32.472  11.899
   94W        W72519  32.080  44.778   4.702
   95W        W72520  43.497   5.785   0.933
   96W        W72521  17.181  20.121  10.404
   97W        W72522  18.647  33.975  12.491
   98W        W72523   3.437   0.907  13.935
   99W        W72524  38.421  36.399  10.507
  100W        W72525  40.528  17.178   2.402
  101W        W72526  17.208  10.817   1.718
  102W        W72527   2.888  36.034  13.342
  103W        W72528  36.005  10.716   0.764
  104W        W72529  33.603  43.283   2.863
  105W        W72530  30.517   9.393  11.861
  106W        W72531  31.537  42.517  11.397
  107W        W72532  10.178  26.195  11.867
  108W        W72533  15.756  29.556   5.275
  109W        W72534  36.361  22.118   2.223
  110W        W72535  27.683  29.485   3.677
  111W        W72536  44.359  43.022  10.600
  112W        W72537  27.115  36.384  12.884
  113W        W72538  35.087  16.778   3.651
  114W        W72539  13.759  14.648  13.378
  115W        W72540  43.460  35.388   3.704
  116W        W72541  16.730  35.957   4.698
  117W        W72542  28.518  18.674  14.975
  118W        W72543  36.030  22.063   3.249
  119W        W72544  17.198  19.704   3.812
  120W        W72545  22.685  12.297  12.362
  121W        W72546   6.399   4.265   1.408
  122W        W72547  38.373  41.432  11.091
  123W        W72548  32.550   0.404   4.344
  124W        W72549  44.298  19.216  13.540
  125W        W72550  38.452  32.041   3.386
  126W        W72551  14.783  21.664   3.192
  127W        W72552  23.492   7.742  13.510
  128W        W72553  30.942  35.472   4.344
  129W        W72554  35.925  36.510  14.974
  130W        W72555  34.522  11.350   2.833
  131W        W72556  37.568  40.815   1.781
  132W        W72557  32.498  43.306   3.332
  133W        W72558   2.249   4.939  13.804
  134W        W72559  21.638  23.208   1.242
  135W        W72560  41.027  33.103  14.914
  136W        W72561  25.517   1.747  10.942
  137W        W72562  43.951  18.090   1.773
  138W        W72563  44.304  36.008   0.956
  139W        W72564  44.933  10.767   3.687
  140W        W72565  17.228   6.228   3.642
  141W        W72566  24.136  25.090   4.260
  142W        W72567   6.772  27.110   2.357
  143W        W72568   0.370  12.200  14.409
  144W        W72569  12.290  34.503  14.836
  145W        W72570   9.352  34.912  12.400
  146W        W72571   8.316  18.621   1.328
  147W        W72572   1.862  36.464  11.975
  148W        W72573   7.392   1.309   2.902
  149W        W72574  18.193  21.606  14.849
  150W        W72575  28.995  44.917   4.598
  151W        W72576  26.598  17.064   4.301
  152W        W72577  29.980  34.981   0.468
  153W        W72578  37.429  37.876   2.388
  154W        W72579  33.515   3.267   1.213
  155W        W72580  39.389  43.424   4.269
  156W        W72581  33.434  37.496  10.507
  157W        W72582  31.407  25.536   4.777
  158W        W72583  21.180   7.901   0.937
  159W        W72584  21.092  34.512  14.807
  160W        W72585   4.435  39.028  14.515
  161W        W72586  20.683  16.239  13.801
  162W        W72587  18.587  38.919   1.430
  163W        W72588  40.368  26.046  13.397
  164W        W72589  19.220  31.153   2.259
  165W        W72590  41.028  16.079  13.460
  166W        W72591  11.187  28.487  13.441
  167W        W72592  25.691  25.060   3.767
  168W        W72593  35.037  30.585  11.475
  169W        W72594  40.510  28.092  11.050
  170W        W72595  43.786   4.912  12.380
  171W        W72596   8.674   8.214  14.876
  172W        W72597  22.153  40.883  14.452
  173W        W72598   3.457  26.523   3.275
  174W        W72599  21.639  39.014   1.802
  175W        W72600  43.309  11.242   3.152
  176W        W72601  14.124  11.348  12.849
  177W        W72602  42.863  42.916   1.265
  178W        W72603  44.794  27.140  14.908
  179W        W72604  27.050  23.196  12.508
  180W        W72605   7.267   3.440  11.021
  181W        W72606  44.408  15.323   0.967
  182W        W72607  34.093  34.526   2.692
  183W        W72608  34.441   8.283  13.533
  184W        W72609  27.171  38.934  12.498
  185W        W72610  40.514  38.550  12.439
  186W        W72611  28.134  12.219  12.823
  187W        W72612  10.826  42.781   5.119
  188W        W72613  37.859  40.895   3.716
  189W        W72614  35.960   5.785  14.795
  190W        W72615  29.045   2.756  12.915
  191W        W72616  23.240  25.613  10.966
  192W        W72617   8.391   2.341  13.502
  193W        W72618  17.132  19.109  13.967
  194W        W72619  10.375  22.705   2.321
  195W        W72620  35.438  32.974  14.365
  196W        W72621  23.492   3.326  13.374
  197W        W72622  19.571  31.899   0.273
  198W        W72623  18.199   0.967   4.812
  199W        W72624  36.065  20.262   2.884
  200W        W72625  41.358   8.899  13.452
  201W        W72626  17.187  16.633  11.426
  202W        W72627  21.581  17.289  14.841
  203W        W72628   5.384  25.997   4.351
  204W        W72629  34.054  43.886   4.121
  205W        W72630  27.454  22.089  12.975
  206W        W72631  40.845  27.475   1.849
  207W        W72632   3.317  26.180   0.296
  208W        W72633   2.943  13.194  14.454
  209W        W72634   2.767   8.268  12.947
  210W        W72635   0.419   3.915  11.495
  211W        W72636  11.851  15.107  13.048
  212W        W72637  20.046  43.919  11.026
  213W        W72638  39.365   3.286  13.859
  214W        W72639  43.815  41.848  10.518
  215W        W72640  25.486  41.796  13.035
  216W        W72641  38.520  33.110  14.410
  217W        W72642  39.912  16.704   1.794
  218W        W72643   2.735   3.355   4.147
  219W        W72644  12.762  16.698   1.403
  220W        W72645  16.655  13.605   2.247
  221W        W72646   3.726  38.523   2.338
  222W        W72647  14.308  41.827  14.350
  223W        W72648  32.577  10.636   1.869
  224W        W72649   4.391   4.859  11.383
  225W        W72650  14.305  22.720   4.281
  226W        W72651  41.398  19.629  11.427
  227W        W72652  30.964  17.769   1.414
  228W        W72653  27.065  28.082   4.331
  229W        W72654  40.964  23.577   3.314
  230W        W72655  21.161  23.591  10.936
  231W        W72656  26.648  10.186  10.565
  232W        W72657  23.213  44.848  10.953
  233W        W72658  42.996  33.985  13.992
  234W        W72659  36.078  10.269   5.285
  235W        W72660  34.086   1.944   2.255
  236W        W72661   7.816   0.361   4.725
  237W        W72662  13.219  12.213  14.411
  238W        W72663  10.634  31.523   2.745
  239W        W72664  29.533   8.285  14.948
  240W        W72665  27.500  29.116   2.874
  241W        W72666  12.224   2.904   3.256
  242W        W72667  28.968   2.867  10.932
  243W        W72668  24.676  10.779   4.246
  244W        W72669  13.140  37.367  13.015
  245W        W72670  36.035  35.050   4.748
  246W        W72671   2.814  22.226  13.948
  247W        W72672  42.457   1.751   3.771
  248W        W72673  30.068  34.373  12.996
  249W        W72674  35.479  13.606   4.676
  250W        W72675  31.071   8.222  11.066
  251W        W72676  14.232  11.790  13.544
  252W        W72677  32.991  32.443  12.837
  253W        W72678  30.528  19.611  10.595
  254W        W72679  44.001  19.693   0.801
  255W        W72680  44.400  41.926   3.816
  256W        W72681  23.200  41.372  13.499
  257W        W72682  39.889  34.532  14.761
  258W        W72683  14.172  20.681   0.957
  259W        W72684   2.307  32.508  11.601
  260W        W72685  10.322   8.225   2.893
  261W        W72686  11.839  37.556   2.214
  262W        W72687  29.617  14.816   2.216
  263W        W72688  25.710  32.081   3.776
  264W        W72689  39.950   1.298   2.832
  265W        W72690   4.805   9.322   1.388
  266W        W72691  22.150   9.180   1.388
  267W        W72692   4.422  40.350  10.929
  268W        W72693   1.837  14.105   2.310
  269W        W72694   0.345  35.392   2.342
  270W        W72695   3.276  19.268   2.783
  271W        W72696  43.387  28.180  12.893
  272W        W72697  25.169  20.548  13.465
  273W        W72698  30.070  29.604   0.729
  274W        W72699  13.758   3.849   4.152
  275W        W72700  34.590  37.010   0.745
  276W        W72701   6.421  11.625  13.830
  277W        W72702   1.974  25.211   3.192
  278W        W72703   2.440   0.488   1.714
  279W        W72704  20.059  18.069  11.588
  280W        W72705  17.112  27.664  11.894
  281W        W72706  20.599   1.874  14.464
  282W        W72707   1.338  11.352   3.630
  283W        W72708  41.838  34.431   1.930
  284W        W72709  12.849  12.283   0.757
  285W        W72710  29.472   7.286  11.419
  286W        W72711  15.778  23.704  11.992
  287W        W72712  23.533  41.830  14.920
  288W        W72713  29.504  18.776  10.909
  289W        W72714   3.716  15.585  10.435
  290W        W72715  35.031   3.274   4.821
  291W        W72716   5.399  26.998   1.747
  292W        W72717  26.621  15.206  10.604
  293W        W72718   9.249  18.698  12.373
  294W        W72719  13.286  22.682  14.432
  295W        W72720   1.463   9.359  13.815
  296W        W72721  30.986   7.230  11.607
  297W        W72722  40.856  28.553  12.092
  298W        W72723   0.813  28.102   5.174
  299W        W72724  31.106  15.198   0.316
  300W        W72725  26.003  29.921   0.911
  301W        W72726   8.745  18.556  12.544
  302W        W72727  31.606  21.659   0.371
  303W        W72728  30.048  20.106   4.248
  304W        W72729   8.770  11.261  14.489
  305W        W72730  31.487  14.804   1.755
  306W        W72731  25.522  41.886  10.901
  307W        W72732  29.444  26.456   1.342
  308W        W72733  13.233  18.645   1.268
  309W        W72734  16.284  10.295   4.151
  310W        W72735  26.104   1.418  13.449
  311W        W72736  42.950  32.444  13.879
  312W        W72737  14.128  18.623   1.345
  313W        W72738  20.757  21.019  13.343
  314W        W72739  44.890  25.656  10.453
  315W        W72740  21.070  38.980   5.255
  316W        W72741  19.126  37.066   2.351
  317W        W72742  44.379  41.814  14.823
  318W        W72743   2.810  15.592  11.967
  319W        W72744  44.302  24.072  14.439
  320W        W72745  25.077  32.112   2.316
  321W        W72746  27.057  22.071   3.349
  322W        W72747  13.757  31.634   2.707
  323W        W72748  15.667   7.394   2.890
  324W        W72749   7.412  14.613   0.914
  325W        W72750  35.400  29.162   3.654
  326W        W72751  34.527  14.650   3.858
  327W        W72752   6.258  17.602   4.747
  328W        W72753  24.207  35.031  13.888
  329W        W72754  15.753  10.713   1.800
  330W        W72755  27.527  34.384   1.366
  331W        W72756  38.023  10.710  11.023
  332W        W72757  15.739  11.184  14.380
  333W        W72758  27.596  18.249   4.202
  334W        W72759  12.240   7.231   3.285
  335W        W72760  24.654  32.096   1.867
  336W        W72761   5.369  15.296  12.023
  337W        W72762   9.818  32.610   4.763
  338W        W72763   2.918  15.270   1.902
  339W        W72764  38.462   3.348  13.387
  340W        W72765  14.821  37.491  13.452
  341W        W72766  11.200  11.286  14.812
  342W        W72767  12.241  23.507   4.167
  343W        W72768  40.415  39.873   4.723
  344W        W72769  41.947  42.327   2.888
  345W        W72770   3.934  30.158  13.940
  346W        W72771  19.127  25.006  14.800
  347W        W72772  31.540  27.598  10.582
  348W        W72773  25.683  25.480   0.797
  349W        W72774  34.096  20.162  12.898
  350W        W72775   4.883   6.265  10.003
  351W        W72776  12.126  26.580   2.286
  352W        W72777  18.182  11.185   2.799
  353W        W72778  14.095  26.513  11.912
  354W        W72779   1.895  33.102   1.421
  355W        W72780   2.235  28.161  12.561
  356W        W72781  12.675  33.399  14.972
  357W        W72782  43.414  15.800   1.336
  358W        W72783  36.080  29.644   3.789
  359W        W72784  42.292  17.090   2.683
  360W        W72785   0.483  17.287   0.314
  361W        W72786  32.482  11.158   2.229
  362W        W72787  32.625  33.544   1.346
  363W        W72788  19.597  32.602  13.420
  364W        W72789  27.100  22.078  12.569
  365W        W72790  44.933  40.903  11.984
  366W        W72791   0.772  38.562   0.728
  367W        W72792  18.184  18.105   2.760
  368W        W72793  12.267  10.640  11.612
  369W        W72794  41.012  26.656  10.480
  370W        W72795  44.760  37.844   2.390
  371W        W72796  21.243  12.170   3.718
  372W        W72797  20.084  17.096   3.867
  373W        W72798   7.306   6.891  12.357
  374W        W72799  35.530  21.094   1.369
  375W        W72800  37.569  40.910  14.906
  376W        W72801  39.823  39.923   1.833
  377W        W72802  26.041   0.989   1.299
  378W        W72803  13.152   0.811  11.593
  379W        W72804  20.647  16.155  14.485
  380W        W72805  19.123  16.696  14.315
  381W        W72806  37.061  14.801  11.413
  382W        W72807  19.617  23.060   4.753
  383W        W72808   5.403  14.165  10.641
  384W        W72809  21.702  42.509   3.222
  385W        W72810  43.441   7.239  11.040
  386W        W72811   6.740  18.192  14.886
  387W        W72812   4.907  43.803  10.029
  388W        W72813  13.830   0.965   5.130
  389W        W72814  24.629   2.351   4.279
  390W        W72815  10.199   1.250  12.454
  391W        W72816   3.821  26.172  14.311
  392W        W72817  28.088  13.278   2.387
  393W        W72818   9.680  11.167   4.827
  394W        W72819  23.036  38.417   2.810
  395W        W72820  38.567  35.461  14.791
  396W        W72821   4.417  34.474   4.130
  397W        W72822  23.137  38.070   0.853
  398W        W72823  15.613  26.188   0.854
  399W        W72824  27.172  14.097   1.302
  400W        W72825   7.807  18.732   3.755
  401W        W72826  21.240   2.919  14.980
  402W        W72827  22.658   8.724   0.408
  403W        W72828  31.144  29.084  12.929
  404W        W72829  37.422  21.691   2.273
  405W        W72830  29.578  24.215   1.874
  406W        W72831  24.010  19.680  12.949
  407W        W72832  17.792  27.121  12.887
  408W        W72833   9.851  33.940  10.441
  409W        W72834  30.641  34.403  14.325
  410W        W72835  26.618  41.853   3.199
  411W        W72836  16.140  44.461  10.968
  412W        W72837  37.546  13.602  14.809
  413W        W72838   0.920  19.617   5.197
  414W        W72839   7.179  41.458   0.765
  415W        W72840  17.212  20.124   4.641
  416W        W72841  31.466  37.031   3.848
  417W        W72842   5.357  34.569   1.788
  418W        W72843   9.197   2.954   3.753
  419W        W72844  19.730  10.347   1.274
  420W        W72845  40.897  18.100  14.441
  421W        W72846  20.268  15.132   1.851
  422W        W72847  38.965  29.155   1.866
  423W        W72848   4.701  34.407   4.237
  424W        W72849   1.289  19.582  10.451
  425W        W72850  33.491  43.010  13.533
  426W        W72851  17.138   2.225  12.537
  427W        W72852  14.203  39.859   3.228
  428W        W72853   3.953   9.183  10.905
  429W        W72854   8.851  15.683  10.436
  430W        W72855  14.834   0.862   2.302
  431W        W72856  36.846  38.998   2.371
  432W        W72857  11.759   7.190  10.959
  433W        W72858  31.092  12.703  14.279
  434W        W72859  15.707  16.641   1.305
  435W        W72860  15.300  36.442   2.755
  436W        W72861  15.315   5.348   1.721
  437W        W72862  39.443  21.129   4.320
  438W        W72863  42.286  31.115   0.272
  439W        W72864  24.626  11.865  13.961
  440W        W72865  26.657  20.536   2.839
  441W        W72866   6.734  14.119  14.972
  442W        W72867  18.731  11.220   0.947
  443W        W72868  38.490  34.520  11.582
  444W        W72869  14.216  32.045   4.770
  445W        W72870  11.365   1.783   0.835
  446W        W72871  30.975   6.754  13.042
  447W        W72872  13.177  18.288   2.797
  448W        W72873  29.031  14.166  12.402
  449W        W72874  34.480  37.840  11.896
  450W        W72875  22.517  32.929  10.494
  451W        W72876  27.569  43.284   3.343
  452W        W72877  30.049  14.150  14.376
  453W        W72878  41.346  33.496  13.543
  454W        W72879  32.135  41.475  14.828
  455W        W72880   5.713  40.528   0.337
  456W        W72881  31.951   6.427  12.468
  457W        W72882  15.591  37.438   4.817
  458W        W72883  31.092  26.011   0.748
  459W        W72884  20.690  35.445  12.854
  460W        W72885  39.947  13.733   4.671
  461W        W72886  43.985  27.486   3.196
  462W        W72887  31.557  12.697  12.524
  463W        W72888  15.129  34.947   3.683
  464W        W72889  18.152  20.630   4.209
  465W        W72890   8.748  25.610   3.842
  466W        W72891  18.124   0.888  12.559
  467W        W72892  27.172  37.563   1.348
  468W        W72893   1.943  40.847  12.929
  469W        W72894  17.613  35.918  14.798
  470W        W72895  31.102  15.103  13.031
  471W        W72896  28.569  22.237  14.880
  472W        W72897  21.071  28.639   4.240
  473W        W72898  44.973  21.568   1.836
  474W        W72899  41.359  15.240   2.859
  475W        W72900  43.281  23.080   4.793
  476W        W72901  18.125  24.552  13.807
  477W        W72902  14.144  18.208  11.027
  478W        W72903   8.786  24.654   3.718
  479W        W72904  41.863  28.144  12.354
  480W        W72905   1.808  42.876   2.723
  481W        W72906   6.783  28.065  10.954
  482W        W72907  30.498  21.702  10.919
  483W        W72908  42.452  25.476   1.894
  484W        W72909  14.318   8.400  13.337
  485W        W72910  15.762  25.608   0.257
  486W        W72911   2.381   6.342   3.241
  487W        W72912  27.608  25.534   1.310
  488W        W72913  33.534  17.291   2.844
  489W        W72914  10.738  30.932  10.571
  490W        W72915  25.552  18.684  13.062
  491W        W72916  15.673  34.473  13.962
  492W        W72917  18.204  32.887  10.134
  493W        W72918  25.202  19.633  10.889
  494W        W72919   9.691   5.249   2.689
  495W        W72920  11.273   2.940   5.192
  496W        W72921   6.740  33.575  13.025
  497W        W72922   5.232   6.696   0.848
  498W        W72923  14.787  24.139   5.161
  499W        W72924  33.476   3.357   2.865
  500W        W72925  29.002  40.933   1.798
  501W        W72926  39.499  16.687  11.581
  502W        W72927  16.275  34.452  10.944
  503W        W72928  10.359  11.711   5.103
  504W        W72929  38.919  18.610  10.537
  505W        W72930   7.172  32.941   0.845
  506W        W72931  16.295  18.671   0.896
  507W        W72932  27.146  20.117  12.355
  508W        W72933   0.806  20.696  10.094
  509W        W72934  32.082  29.563  13.337
  510W        W72935  36.422  18.062   4.264
  511W        W72936   7.813  25.980  12.547
  512W        W72937   0.387  24.992   3.187
  513W        W72938   9.743  14.291  12.958
  514W        W72939  29.943  19.545  12.500
  515W        W72940  30.962  10.367   2.341
  516W        W72941  38.361   1.482   0.829
  517W        W72942  33.094  22.671   4.333
  518W        W72943  35.467  24.498   2.395
  519W        W72944   9.190   0.784   4.199
  520W        W72945  44.808  42.397  13.316
  521W        W72946  23.601  15.153  13.430
  522W        W72947  19.599   7.766   2.699
  523W        W72948  32.584  28.588   4.316
  524W        W72949  38.039   0.311   3.827
  525W        W72950  19.048   2.423  11.073
  526W        W72951  31.405  44.394   4.782
  527W        W72952  21.208  33.093  11.519
  528W        W72953  23.072   8.658   2.702
  529W        W72954  28.034  21.106  13.454
  530W        W72955   9.217  16.669  14.308
  531W        W72956   2.779   0.442  13.462
  532W        W72957   2.371  34.015  14.905
  533W        W72958  30.435  42.373   0.955
  534W        W72959   3.421  23.047   1.926
  535W        W72960  11.761   4.715  12.951
  536W        W72961  11.743  13.620  12.878
  537W        W72962  40.327  19.752   9.985
  538W        W72963  23.223  10.195  10.957
  539W        W72964   7.369  22.560  11.970
  540W        W72965   8.318  36.906  10.898
  541W        W72966  31.573  33.918   2.205
  542W        W72967  12.117  32.887   2.419
  543W        W72968   0.959  27.178  12.339
  544W        W72969  16.217  43.403   0.298
  545W        W72970  27.974  13.611  13.431
  546W        W72971  22.512  31.968   3.778
  547W        W72972  36.091  25.072   3.309
  548W        W72973  35.900   2.932   1.313
  549W        W72974  19.266  28.578  13.042
  550W        W72975  10.874  21.681  11.115
  551W        W72976  12.183  37.933   2.254
  552W        W72977  30.061  38.562   0.744
  553W        W72978  34.951  42.794  14.489
  554W        W72979  30.114  31.049  13.861
  555W        W72980   2.832  11.133  10.984
  556W        W72981  35.546  35.876   3.335
  557W        W72982  27.136  32.417   2.693
  558W        W72983  37.573  44.839  11.932
  559W        W72984   9.719  23.991   2.213
  560W        W72985  43.805  42.368   1.845
  561W        W72986  18.051  17.572  14.412
  562W        W72987  40.526  13.731   4.190
  563W        W72988  12.209  29.091  13.441
  564W        W72989  11.824  18.731  12.931
  565W        W72990  17.587  14.281  12.040
  566W        W72991   6.891  39.475  14.767
  567W        W72992  24.143  13.734   4.719
  568W        W72993  38.532  44.365  13.937
  569W        W72994  23.071   9.768   4.201
  570W        W72995  13.689   9.846   4.273
  571W        W72996   8.748  15.601  13.852
  572W        W72997  11.142   2.284   5.135
  573W        W72998   1.747  18.777   2.812
  574W        W72999   1.380  39.371   1.752
  575W        W73000   8.746  43.394  11.950
  576W        W73001   4.933  38.342  13.409
  577W        W73002  25.043  42.371   0.449
  578W        W73003  21.060  13.610  14.861
  579W        W73004  11.366  40.903   0.925
  580W        W73005  34.971   1.479  14.765
  581W        W73006  28.991  17.254   2.863
  582W        W73007  33.032  39.052  10.983
  583W        W73008  41.890  29.930  12.552
  584W        W73009   9.299  29.046  11.944
  585W        W73010   2.311  43.961   4.288
  586W        W73011  42.355  38.347   1.861
  587W        W73012  22.675  41.035  14.499
  588W        W73013  13.226  10.183   4.627
  589W        W73014   8.212  12.279   4.214
  590W        W73015  41.989  34.885   1.446
  591W        W73016  32.416  24.980   2.207
  592W        W73017  42.510  31.083   0.836
  593W        W73018  37.025  16.739   0.271
  594W        W73019   6.676   7.904  12.038
  595W        W73020  42.787  41.300   0.481
  596W        W73021  27.645   9.317  10.498
  597W        W73022  37.410  30.103   3.792
  598W        W73023   8.309   3.780   2.760
  599W        W73024  33.490  10.709   3.220
  600W        W73025  32.052   0.917   5.097
  601W        W73026  38.409  18.599   3.861
  602W        W73027  16.285  32.000  12.905
  603W        W73028  22.063  40.305  14.905
  604W        W73029  21.092  30.948   4.680
  605W        W73030   5.711  37.834  13.332
  606W        W73031  19.745   3.243   0.286
  607W        W73032  32.100  31.476   2.386
  608W        W73033  15.180  15.804   4.184
  609W        W73034  13.642  15.818   2.836
  610W        W73035   0.298  35.429   2.714
  611W        W73036  34.487  26.079  10.898
  612W        W73037  31.442  42.921   0.332
  613W        W73038  39.884  25.642   4.629
  614W        W73039   1.824  34.985  11.611
  615W        W73040  36.400   3.914   3.807
  616W        W73041  30.513  38.547   2.219
  617W        W73042   0.415  29.046   4.673
  618W        W73043  28.166  38.868  11.470
  619W        W73044  16.250  33.126  12.558
  620W        W73045   5.900  31.107   3.344
  621W        W73046   1.770   1.275   3.172
  622W        W73047   8.834   3.352   4.624
  623W        W73048  13.600  39.918  11.995
  624W        W73049  22.228  13.236  11.477
  625W        W73050  32.134  32.519   1.716
  626W        W73051  44.913  44.761   0.389
  627W        W73052  11.335   2.810  12.405
  628W        W73053   9.290   0.484  13.312
  629W        W73054  17.727   7.392  14.858
  630W        W73055  33.433  29.519   2.320
  631W        W73056  29.936   8.188   3.358
  632W        W73057   1.354  11.373  11.909
  633W        W73058  10.694  16.238  11.915
  634W        W73059  20.612  15.660   0.948
  635W        W73060  33.903  12.675  10.551
  636W        W73061   3.907  14.284  11.072
  637W        W73062   4.877  27.193   2.305
  638W        W73063  29.033   1.396   2.701
  639W        W73064  42.978  36.427   0.403
  640W        W73065  18.570   9.268  12.842
  641W        W73066  14.265  15.667   4.136
  642W        W73067  44.892   5.233  13.893
  643W        W73068  25.620   7.355   2.833
  644W        W73069  11.625  18.190   2.669
  645W        W73070  13.645   8.269  13.012
  646W        W73071  36.901   9.647   3.159
  647W        W73072  26.516  40.836   2.415
  648W        W73073   4.886  21.597  10.489
  649W        W73074  16.595  28.170   4.260
  650W        W73075  16.110  19.599   2.400
  651W        W73076   9.878  34.917   4.208
  652W        W73077  31.086   5.367  10.609
  653W        W73078  18.684   0.902  14.845
  654W        W73079  44.850   0.758  10.914
  655W        W73080  10.336  22.023  11.514
  656W        W73081  17.802  41.951  11.480
  657W        W73082  18.611  29.482  12.511
  658W        W73083  33.008  29.491  11.092
  659W        W73084  35.988  18.719  10.486
  660W        W73085   5.192  11.840  13.026
  661W        W73086  19.133  13.726  12.417
  662W        W73087   1.792   5.259   1.837
  663W        W73088  20.180  10.305  10.066
  664W        W73089  43.817  27.463  14.827
  665W        W73090  25.535  34.511  14.828
  666W        W73091   5.299  34.522  13.478
  667W        W73092   2.369  41.941  14.383
  668W        W73093  22.633   7.894   4.317
  669W        W73094  28.110  33.123  11.919
  670W        W73095  17.203   8.666  14.275
  671W        W73096   5.408  32.027  14.381
  672W        W73097  41.923   9.681  14.406
  673W        W73098  12.664  19.228  14.472
  674W        W73099   4.221  38.336   3.683
  675W        W73100  37.928  27.537   0.954
  676W        W73101   1.774   9.651  11.041
  677W        W73102  13.753   1.975   2.774
  678W        W73103  33.073  31.443   0.280
  679W        W73104  42.837  30.453   1.324
  680W        W73105  32.074  22.030   4.836
  681W        W73106  33.996  20.526  13.904
  682W        W73107   4.944  20.745   1.907
  683W        W73108  28.667  40.534   2.730
  684W        W73109  12.693  12.123  14.972
  685W        W73110   9.659  13.613  12.071
  686W        W73111  32.056  28.062   0.734
  687W        W73112   1.296  12.622   1.327
  688W        W73113  33.079   5.333   1.877
  689W        W73114  37.538  20.608  12.568
  690W        W73115  20.108  36.494  14.309
  691W        W73116  20.545  28.033   0.735
  692W        W73117  15.694  36.846   3.700
  693W        W73118   1.734  15.094  14.306
  694W        W73119  35.924  40.482  10.455
  695W        W73120  33.400  26.048  10.548
  696W        W73121   4.750  14.620   0.360
  697W        W73122  42.472  10.796  10.621
  698W        W73123  12.670   2.332  12.051
  699W        W73124   0.771   6.784   2.892
  700W        W73125  14.148  19.704  14.383
  701W        W73126  41.945  41.835  11.548
  702W        W73127   5.227  11.732  11.991
  703W        W73128  25.096  29.099  13.966
  704W        W73129  38.872  35.532   9.940
  705W        W73130  30.954   0.779   0.431
  706W        W73131  32.618  41.444  12.426
  707W        W73132  25.186  38.550   4.268
  708W        W73133   9.880  18.240   1.921
  709W        W73134  33.060   8.351   1.427
  710W        W73135  10.316  25.488  10.969
  711W        W73136  24.001   6.787  11.054
  712W        W73137  17.755   4.749   3.192
  713W        W73138  15.692  44.849  12.485
  714W        W73139   9.760   7.267  13.436
  715W        W73140   1.738  11.721  13.390
  716W        W73141  30.100  10.225  10.946
  717W        W73142  39.487  17.644   4.325
  718W        W73143  28.184  22.177  13.320
  719W        W73144   2.918  36.915   0.929
  720W        W73145  22.138   0.852  13.530
  721W        W73146   5.736  18.784   1.933
  722W        W73147  10.380  22.701  14.948
  723W        W73148   4.274   8.285   2.253
  724W        W73149   9.648  13.734   0.740
  725W        W73150   7.292  23.988  12.866
  726W        W73151  12.281  37.031  14.417
  727W        W73152  20.714  27.586  12.547
  728W        W73153  26.207  37.998   4.640
  729W        W73154  32.066  11.825  10.522
  730W        W73155   2.420   7.335  10.060
  731W        W73156  20.201  33.606  14.004
  732W        W73157  19.098  23.125   0.881
  733W        W73158  30.437  35.949  11.063
  734W        W73159  30.646  11.765  14.892
  735W        W73160   9.740  31.981  12.454
  736W        W73161   8.346  42.971  11.986
  737W        W73162  39.385   3.376   3.228
  738W        W73163  38.552  27.127   0.264
  739W        W73164  11.747  27.086   0.926
  740W        W73165  12.781   1.335  10.596
  741W        W73166  34.009  44.482   0.298
  742W        W73167   5.272   9.271  14.016
  743W        W73168   2.781  13.141   1.380
  744W        W73169  30.469  26.599  14.908
  745W        W73170  26.072  20.028  13.950
  746W        W73171  30.651  40.489  12.404
  747W        W73172  12.841  26.701  12.018
  748W        W73173   0.777  44.897   3.713
  749W        W73174  16.240  32.509   1.437
  750W        W73175  27.466  43.897   3.811
  751W        W73176  22.051  33.886   3.192
  752W        W73177  19.774   5.874  12.857
  753W        W73178  38.339  25.556  12.531
  754W        W73179  40.966   1.258  12.845
  755W        W73180  11.656  14.120   4.642
  756W        W73181  35.017   5.314   1.753
  757W        W73182  17.749  18.131   1.416
  758W        W73183  40.946   0.377   3.311
  759W        W73184  44.439  15.121   2.300
  760W        W73185  20.623   9.269  13.837
  761W        W73186  38.872  41.964   2.866
  762W        W73187  43.996  41.861  12.070
  763W        W73188  32.115  15.291   1.728
  764W        W73189  21.125  32.429   5.175
  765W        W73190  42.407  18.108  12.539
  766W        W73191  39.008   2.726   4.684
  767W        W73192  33.016  29.051   2.371
  768W        W73193  22.688  25.510  12.866
  769W        W73194  42.011  18.253  13.053
  770W        W73195   5.876   2.226   4.216
  771W        W73196  23.139  31.570  10.505
  772W        W73197  40.999  18.160  11.464
  773W        W73198   1.857  31.444  10.430
  774W        W73199  32.533  17.577  10.594
  775W        W73200   0.959  18.138  11.920
  776W        W73201  42.463  32.889   1.353
  777W        W73202   8.309   5.819   4.329
  778W        W73203  36.934  26.622   0.734
  779W        W73204  15.098   2.902  12.448
  780W        W73205  33.568  10.174   2.870
  781W        W73206  38.502  40.399  11.515
  782W        W73207   0.777  19.535   4.765
  783W        W73208  26.686  27.467  14.877
  784W        W73209   2.796  37.882   1.418
  785W        W73210   3.737  35.465   1.806
  786W        W73211  32.026   3.370  14.774
  787W        W73212  41.338  36.456  14.389
  788W        W73213  20.633  44.489   2.320
  789W        W73214   8.769   9.743   1.428
  790W        W73215  26.034  42.342   3.176
  791W        W73216   1.407   6.307   1.251
  792W        W73217  14.700   3.715   2.682
  793W        W73218  30.023  33.035   4.758
  794W        W73219  35.479  13.811  11.612
  795W        W73220  41.498  41.818   2.764
  796W        W73221  44.801  14.798   3.218
  797W        W73222  18.086  10.747   1.822
  798W        W73223  34.100   5.298   2.286
  799W        W73224  18.246  44.265   4.130
  800W        W73225  20.527  43.010   4.703
  801W        W73226  26.183   8.757   4.831
  802W        W73227  18.144   1.291   3.715
  803W        W73228  23.203  18.269   3.307
  804W        W73229  39.336  20.185   1.907
  805W        W73230  25.170  37.451   0.416
  806W        W73231   8.802  40.315  10.969
  807W        W73232  11.173  12.806  11.893
  808W        W73233  12.777  27.989  12.480
  809W        W73234  38.546  37.445   2.895
  810W        W73235  42.324  14.754  14.862
  811W        W73236  25.014  43.014  11.394
  812W        W73237  27.169  16.127  12.499
  813W        W73238  18.652  18.636  12.022
  814W        W73239   2.393  20.609   4.144
  815W        W73240   4.919   9.803  11.518
  816W        W73241   5.225  15.751   1.841
  817W        W73242  22.641  11.800   3.309
  818W        W73243  20.734  36.999   4.657
  819W        W73244  38.431  35.039  11.904
  820W        W73245  21.065  34.582   3.247
  821W        W73246  31.026  18.085  13.520
  822W        W73247  44.474  35.970  12.075
  823W        W73248  33.945  19.182  12.828
  824W        W73249  42.842  16.578  13.920
  825W        W73250  18.700  34.105  11.470
  826W        W73251  23.025  28.023   4.776
  827W        W73252  23.170  41.508   3.166
  828W        W73253  44.285  12.826  12.441
  829W        W73254   8.326  34.030  12.422
  830W        W73255   6.804  38.047   1.230
  831W        W73256  25.107  38.823  13.517
  832W        W73257   3.415  21.718   3.151
  833W        W73258  43.941  27.048  13.890
  834W        W73259  33.568  34.031  14.812
  835W        W73260  22.599  15.252  12.497
  836W        W73261   6.319  42.386   1.232
  837W        W73262  31.913  27.578   0.728
  838W        W73263   7.885  23.530  14.355
  839W        W73264  24.186   6.786   0.309
  840W        W73265   6.286  33.992   3.701
  841W        W73266   9.322  38.038   0.937
  842W        W73267   8.809  32.098  10.968
  843W        W73268  22.216  26.159   4.332
  844W        W73269   9.759  43.793   0.965
  845W        W73270  15.677  19.552  12.353
  846W        W73271  24.161  39.831   2.271
  847W        W73272   5.218  31.540  14.020
  848W        W73273   2.723  38.438  11.578
  849W        W73274  41.966  25.123  11.457
  850W        W73275   6.814  16.264   1.341
  851W        W73276  15.109  36.872  13.433
  852W        W73277  25.099   7.747   0.823
  853W        W73278   3.323   3.839  13.415
  854W        W73279  32.613  15.681   2.201
  855W        W73280  37.434  28.141  10.608
  856W        W73281  38.551  30.568  14.280
  857W        W73282  24.578  20.254   1.732
  858W        W73283  25.008  23.491   4.809
  859W        W73284  32.590  24.023  13.799
  860W        W73285   9.681  34.924   1.340
  861W        W73286  44.351   3.864  12.058
  862W        W73287  42.439  35.588  14.011
  863W        W73288   3.870  21.220   9.981
  864W        W73289  18.732   0.340   3.770
  865W        W73290  17.116  37.009  13.802
  866W        W73291  25.617  17.650   0.967
  867W        W73292  38.543  20.220  12.048
  868W        W73293   6.765  34.563   3.268
  869W        W73294   2.337   7.260  13.459
  870W        W73295  29.061  35.426  10.960
  871W        W73296  40.357  28.486  12.055
  872W        W73297   3.804  44.387  11.371
  873W        W73298  25.115  43.872   4.623
  874W        W73299  37.086  27.472   2.770
  875W        W73300   7.306   2.407  12.872
  876W        W73301  29.133  17.215  11.497
  877W        W73302   1.968  18.144  12.844
  878W        W73303  38.531   5.284   3.370
  879W        W73304  12.849  34.998   0.845
  880W        W73305  24.207  15.787  11.948
  881W        W73306  19.231   0.932  12.934
  882W        W73307  34.007  29.548  14.862
  883W        W73308  13.311   6.771  11.560
  884W        W73309  31.117  42.933  14.472
  885W        W73310  14.214  12.673   1.405
  886W        W73311   9.719  11.674   1.929
  887W        W73312  30.437  17.283   1.413
  888W        W73313  15.169  33.479   2.873
  889W        W73314   5.351   7.770  13.054
  890W        W73315  30.145   6.919   0.886
  891W        W73316  29.529  38.333   9.484
  892W        W73317  34.458  29.083   3.209
  893W        W73318  10.163  29.060  10.967
  894W        W73319   1.408   9.282   2.390
  895W        W73320  28.540  32.624   1.746
  896W        W73321  40.374  16.190  14.282
  897W        W73322  15.114   5.861   1.316
  898W        W73323  29.022  29.455   4.744
  899W        W73324  32.473  30.478   2.839
  900W        W73325  30.520  40.478   5.680
  901W        W73326  12.793  44.824   2.328
  902W        W73327  35.970   1.445  10.453
  903W        W73328  36.061  11.644   1.364
  904W        W73329   6.787  17.590   2.774
  905W        W73330   2.891   5.829   3.360
  906W        W73331  44.428  38.863  14.860
  907W        W73332  24.073  42.903  11.536
  908W        W73333   9.655  12.341   4.630
  909W        W73334  19.765  10.245  11.478
  910W        W73335   8.756  33.426   2.192
  911W        W73336  16.582  14.663   0.867
  912W        W73337  10.764  20.076  12.394
  913W        W73338  21.169  14.100  13.343
  914W        W73339  11.824  28.539  12.074
  915W        W73340  10.192   7.283   9.929
  916W        W73341  40.036  21.713   4.746
  917W        W73342  15.087  39.523  13.862
  918W        W73343  12.165  35.379   2.203
  919W        W73344  44.845  21.664  10.476
  920W        W73345   6.920  34.373   4.160
  921W        W73346  44.284  34.602   0.910
  922W        W73347  39.946  35.392   1.274
  923W        W73348  39.418   5.212  12.497
  924W        W73349  34.385  30.436   3.748
  925W        W73350  13.310   1.393   4.724
  926W        W73351  25.976  24.097   0.912
  927W        W73352  13.202   9.315  11.568
  928W        W73353  25.568  29.634  13.851
  929W        W73354  41.465  43.856  11.421
  930W        W73355  31.642  17.789  12.918
  931W        W73356  44.493  19.565  14.321
  932W        W73357  17.230  19.058   0.802
  933W        W73358  18.685  35.405   2.888
  934W        W73359   9.739  26.524  11.884
  935W        W73360  33.530   3.763   4.761
  936W        W73361   5.437   1.260  13.431
  937W        W73362  21.624  14.227  14.808
  938W        W73363  35.977  36.074   4.325
  939W        W73364  24.010  14.279  10.504
  940W        W73365  19.115  21.021   1.765
  941W        W73366  33.083  25.009   2.680
  942W        W73367  28.019  22.102  10.439
  943W        W73368  35.434  37.872   0.945
  944W        W73369   5.358  38.847   4.228
  945W        W73370   2.871  17.119   2.380
  946W        W73371  41.970  14.641   2.789
  947W        W73372  40.906  35.014  12.887
  948W        W73373  14.649   3.728  13.994
  949W        W73374  37.958  16.241  12.041
  950W        W73375  39.832   7.705   3.673
  951W        W73376  29.065  27.555  12.983
  952W        W73377  41.325  40.847  11.992
  953W        W73378   6.813  22.065   1.866
  954W        W73379  11.164  36.072  13.888
  955W        W73380  24.037  18.145   0.952
  956W        W73381  23.489  39.484   2.399
  957W        W73382   6.772  33.610   3.633
  958W        W73383  30.109  11.286  11.576
  959W        W73384   1.253   0.846   2.401
  960W        W73385   5.344  10.216   4.753
  961W        W73386  10.648  42.508   4.270
  962W        W73387  26.614  20.699   3.819
  963W        W73388  29.479  44.851   1.229
  964W        W73389  19.166  44.417   4.329
  965W        W73390  34.559  14.333  14.766
  966W        W73391  28.678  23.687  11.988
  967W        W73392  43.830  39.854   1.890
  968W        W73393  15.239  35.393   3.714
  969W        W73394  33.584  20.606   3.731
  970W        W73395  27.015  42.839   2.230
  971W        W73396  25.648   2.835  13.443
  972W        W73397  30.916  16.794  14.996
  973W        W73398   4.240  26.048   2.206
  974W        W73399  15.199  22.085  12.343
  975W        W73400  29.486  33.014  11.545
  976W        W73401   9.765   3.408  12.089
  977W        W73402  13.197  21.621   5.108
  978W        W73403   5.436  41.034  11.398
  979W        W73404  18.681   3.427   1.868
  980W        W73405  11.239  32.051  12.056
  981W        W73406  12.133  43.827  13.472
  982W        W73407  40.802  11.639  11.855
  983W        W73408  19.177  29.999  11.020
  984W        W73409  22.014  24.129  10.983
  985W        W73410   2.397  34.887  14.855
  986W        W73411   6.905  12.838  11.091
  987W        W73412  40.491  37.893  14.969
  988W        W73413   1.403  12.284  13.839
  989W        W73414  38.418   7.213  13.811
  990W        W73415  11.240  31.149   0.826
  991W        W73416  27.044  38.063   4.190
  992W        W73417  37.473  41.490   1.345
  993W        W73418  29.665  25.112   2.780
  994W        W73419  13.189  24.154  12.094
  995W        W73420   9.864  14.273  11.430
  996W        W73421  11.690  16.598  11.863
  997W        W73422  34.536   7.329   3.229
  998W        W73423  33.025  37.435   4.804
  999W        W73424  24.209  20.568   4.139
 1000W        W73425  16.788  22.717   3.861
 1001W        W73426   7.231  24.056  12.077
 1002W        W73427  37.550   9.290  10.932
 1003W        W73428  31.606  16.181   2.336
 1004W        W73429  25.669  32.919   5.734
 1005W        W73430  25.211   9.295  14.331
 1006W        W73431  37.016  37.861   1.888
 1007W        W73432  32.971  27.059  14.826
 1008W        W73433  29.507   8.876   3.633
 1009W        W73434  16.712  21.018   0.902
 1010W        W73435   9.774  31.947   0.304
 1011W        W73436  26.173  30.003  14.874
 1012W        W73437  24.656  26.673  13.443
 1013W        W73438  38.967   1.957   2.856
 1014W        W73439  26.643  22.203   4.712
 1015W        W73440  22.123   6.275   2.415
 1016W        W73441  34.529   1.240  10.564
 1017W        W73442  32.509  26.576  14.319
 1018W        W73443   0.492  15.628   3.773
 1019W        W73444  14.158  32.895   1.747
 1020W        W73445  25.068  30.117  14.338
 1021W        W73446  42.864  36.481  11.529
 1022W        W73447   8.733  41.398  14.948
 1023W        W73448  12.209   5.725   2.668
 1024W        W73449   1.286  25.022  12.010
 1025W        W73450   2.235  28.183   0.769
 1026W        W73451  10.208  24.003   3.717
 1027W        W73452   4.357   2.943   2.782
 1028W        W73453  31.091  35.864  13.541
 1029W        W73454  39.859  10.218   1.252
 1030W        W73455  28.583  21.056  13.403
 1031W        W73456  17.303   2.394   2.688
 1032W        W73457  23.711   9.687   1.344
 1033W        W73458  44.427   1.859   3.661
 1034W        W73459  20.109  11.169   0.885
 1035W        W73460  14.193  15.098   0.480
 1036W        W73461  35.868  18.568  13.812
 1037W        W73462  38.438  44.854   4.144
 1038W        W73463  10.194  40.333  13.879
 1039W        W73464  36.560  15.184   4.337
 1040W        W73465  30.057  12.298  14.277
 1041W        W73466  30.460  32.103   0.837
 1042W        W73467  40.826   5.689   2.234
 1043W        W73468  26.984  43.973   0.866
 1044W        W73469  10.140  41.890  12.371
 1045W        W73470  15.168  26.620  12.538
 1046W        W73471  31.419   5.297  13.378
 1047W        W73472  24.162  20.547  10.936
 1048W        W73473  17.580  34.464   3.802
 1049W        W73474  12.806  19.737  12.077
 1050W        W73475   0.457  31.129   0.341
 1051W        W73476  36.565  29.658  13.963
 1052W        W73477  20.623  37.912  13.835
 1053W        W73478  38.852  42.787   3.272
 1054W        W73479  29.452  22.633  10.010
 1055W        W73480   5.407  44.461   3.668
 1056W        W73481  40.006  11.354  13.924
 1057W        W73482  25.037  27.063  11.083
 1058W        W73483  20.270  38.507  13.409
 1059W        W73484  42.003  11.750  14.490
 1060W        W73485   7.265  34.893  12.867
 1061W        W73486  20.070  34.440  10.891
 1062W        W73487  25.991  37.562  14.941
 1063W        W73488  12.713  26.465   4.164
 1064W        W73489  29.585  38.012   4.638
 1065W        W73490  41.985   9.242   4.126
 1066W        W73491  31.051  12.196  11.483
 1067W        W73492  23.653  44.801  12.935
 1068W        W73493  30.618  20.055  11.916
 1069W        W73494  34.904  34.526   0.760
 1070W        W73495  13.788  30.618   3.183
 1071W        W73496   8.244  10.759  10.970
 1072W        W73497  43.506  28.605   1.433
 1073W        W73498  23.611   9.826  10.569
 1074W        W73499  17.802   3.389   1.288
 1075W        W73500  16.677  39.979   3.629
 1076W        W73501   1.291   6.398   1.703
 1077W        W73502   2.434  19.221   1.933
 1078W        W73503  28.132  13.667   4.237
 1079W        W73504   6.362  20.540  11.127
 1080W        W73505  43.797   4.221   1.398
 1081W        W73506  42.965   4.245  14.798
 1082W        W73507  22.528  12.846   2.382
 1083W        W73508  30.955  27.123  13.040
 1084W        W73509  14.195  38.834   3.210
 1085W        W73510  41.835   8.722   3.196
 1086W        W73511  14.727   8.815  14.276
 1087W        W73512  36.091  40.934   0.827
 1088W        W73513  36.907   0.857   1.845
 1089W        W73514  14.813  37.518   1.442
 1090W        W73515  33.892   3.716  12.394
 1091W        W73516  28.545  30.598  11.420
 1092W        W73517  40.960  30.974   1.273
 1093W        W73518  43.432  18.111   0.743
 1094W        W73519  23.179   4.257   4.315
 1095W        W73520  35.379  14.734   2.200
 1096W        W73521  36.529  41.956  12.512
 1097W        W73522  27.474   1.763   2.817
 1098W        W73523  11.372  22.666  12.429
 1099W        W73524  40.879  17.079  13.855
 1100W        W73525  24.539   6.235   2.323
 1101W        W73526  10.824  15.168  11.039
 1102W        W73527  28.559  24.151   0.908
 1103W        W73528  14.210   4.736   1.231
 1104W        W73529  25.130  20.546  10.893
 1105W        W73530  24.503  13.303  10.620
 1106W        W73531  12.771  34.960  11.591
 1107W        W73532  43.498  40.932  11.121
 1108W        W73533  19.728  28.104   0.477
 1109W        W73534  25.109  15.748  10.482
 1110W        W73535   4.423  16.211  10.439
 1111W        W73536  19.758  21.664  13.398
 1112W        W73537  16.163  44.985  14.277
 1113W        W73538  42.388  14.783  11.088
 1114W        W73539  35.996  24.033  14.513
 1115W        W73540  20.733  14.777   4.267
 1116W        W73541  34.092   3.874  13.046
 1117W        W73542  31.415   7.736  11.903
 1118W        W73543  15.100  36.514  13.829
 1119W        W73544  38.397  27.190   1.446
 1120W        W73545   2.778   5.727   4.289
 1121W        W73546  13.797  33.997   1.934
 1122W        W73547  32.509  21.616   1.404
 1123W        W73548  15.745  37.022  13.051
 1124W        W73549  40.833  41.531   1.216
 1125W        W73550   2.464  22.202   0.836
 1126W        W73551  19.110  30.538   2.352
 1127W        W73552  21.700  39.873  12.938
 1128W        W73553   2.457  43.389   0.412
 1129W        W73554  15.212  41.535  14.955
 1130W        W73555  35.543  30.655  14.892
 1131W        W73556  41.956   3.251  10.116
 1132W        W73557  38.532   9.751  13.911
 1133W        W73558  43.290  21.069   3.688
 1134W        W73559  10.733  41.296  14.358
 1135W        W73560  11.267  31.080  13.470
 1136W        W73561  40.014   8.279  14.932
 1137W        W73562  23.680  10.340   5.111
 1138W        W73563  38.950   4.331  13.904
 1139W        W73564  32.539  22.734   0.476
 1140W        W73565   6.766  37.934  14.003
 1141W        W73566  10.852  23.010  10.049
 1142W        W73567  43.957   9.324   4.192
 1143W        W73568  33.928  41.948  10.940
 1144W        W73569   2.387  17.733  10.630
 1145W        W73570  23.116  31.929   1.403
 1146W        W73571   9.804   6.219   3.805
 1147W        W73572  22.695  38.961  13.349
 1148W        W73573  17.770  26.675   0.445
 1149W        W73574   6.735  31.512  11.489
 1150W        W73575  28.963  42.323   0.287
 1151W        W73576  31.538  15.630  11.407
 1152W        W73577   1.772  30.085   0.812
 1153W        W73578  36.530   1.809   3.355
 1154W        W73579   0.386  12.615   1.833
 1155W        W73580  14.713  29.996   1.785
 1156W        W73581  28.488  19.202   3.660
 1157W        W73582  30.577  14.639   3.666
 1158W        W73583  18.089  23.206  14.817
 1159W        W73584   8.708  23.147  14.382
 1160W        W73585  20.664   9.242   1.287
 1161W        W73586  17.134  37.987  13.844
 1162W        W73587  26.036  23.501  12.343
 1163W        W73588  42.521  20.134   4.721
 1164W        W73589  27.137  33.581  14.299
 1165W        W73590  21.057  18.132   0.907
 1166W        W73591  24.487   9.742  13.916
 1167W        W73592  30.566  29.432  13.841
 1168W        W73593  42.524  14.640   4.683
 1169W        W73594  44.377  24.503  10.991
 1170W        W73595  11.136  28.604   2.767
 1171W        W73596  42.459  34.395  13.012
 1172W        W73597  43.502   8.723   3.656
 1173W        W73598  23.597   6.276  10.589
 1174W        W73599   0.461  39.040   4.650
 1175W        W73600  18.124  40.840  12.043
 1176W        W73601  28.053  36.850   0.914
 1177W        W73602  35.373  22.125   4.323
 1178W        W73603   2.829  18.128  12.510
 1179W        W73604  30.537  37.391  14.925
 1180W        W73605  29.534  11.216   1.428
 1181W        W73606  17.228   1.418   4.166
 1182W        W73607  39.321  44.873  12.052
 1183W        W73608  35.090  38.894  11.921
 1184W        W73609  44.922  28.663   0.325
 1185W        W73610  34.974  24.184  14.406
 1186W        W73611  40.040  33.063   4.270
 1187W        W73612   2.347  23.557  10.019
 1188W        W73613   9.358  40.348   1.412
 1189W        W73614  31.503   2.871  13.953
 1190W        W73615  40.321  42.777  10.124
 1191W        W73616   5.315  17.745   3.240
 1192W        W73617  22.133  22.194   1.358
 1193W        W73618  26.561  26.034  13.997
 1194W        W73619  29.453  23.121   4.677
 1195W        W73620  35.519  15.108  13.017
 1196W        W73621  32.994  40.360  13.432
 1197W        W73622   1.734  36.451   2.878
 1198W        W73623  43.953   8.755   1.724
 1199W        W73624   3.409  18.613   0.417
 1200W        W73625  44.378  41.984  12.430
 1201W        W73626   0.297  39.948   1.345
 1202W        W73627  30.619  20.569  13.453
 1203W        W73628  41.944  21.225  11.912
 1204W        W73629  39.919  22.097   0.396
 1205W        W73630  39.514  15.212   0.252
 1206W        W73631  23.601  30.612   3.166
 1207W        W73632  40.964  10.785  12.010
 1208W        W73633  39.548  13.628  12.991
 1209W        W73634   6.404   3.920  13.937
 1210W        W73635  18.630  19.632   3.351
 1211W        W73636  26.667  13.295   4.730
 1212W        W73637  15.802  41.839   2.239
 1213W        W73638  12.749  14.262  11.114
 1214W        W73639   1.390  40.003  11.906
 1215W        W73640  34.962  41.012   1.372
 1216W        W73641  24.142  27.585  12.407
 1217W        W73642  35.992  28.153   1.346
 1218W        W73643   5.223  24.546  13.863
 1219W        W73644  13.784  17.207   1.359
 1220W        W73645  33.034   0.847  13.388
 1221W        W73646  10.870  39.933  10.420
 1222W        W73647  44.455  31.449   9.634
 1223W        W73648   2.447  23.598  10.471
 1224W        W73649  37.349  18.106  12.002
 1225W        W73650  38.482  16.622   1.384
 1226W        W73651   1.844   5.835  10.616
 1227W        W73652  27.061  10.158   1.274
 1228W        W73653  18.203  24.664  11.078
 1229W        W73654  28.448   1.420  11.545
 1230W        W73655  30.999  21.224   1.276
 1231W        W73656   0.260  16.206  14.392
 1232W        W73657  17.726  40.948   3.275
 1233W        W73658  20.612  31.141   0.767
 1234W        W73659  28.991   3.321   3.200
 1235W        W73660  14.273  35.385  13.520
 1236W        W73661  30.487  27.618  11.533
 1237W        W73662  29.481  18.094  13.043
 1238W        W73663   1.774   6.321   4.316
 1239W        W73664  25.105  44.358  11.414
 1240W        W73665  18.052  30.479  12.871
 1241W        W73666   8.812   5.257   3.317
 1242W        W73667   6.327   3.725   0.854
 1243W        W73668  20.596  41.880  13.520
 1244W        W73669  42.461   8.822   1.695
 1245W        W73670   4.899  29.115  11.533
 1246W        W73671  31.511  11.316   2.320
 1247W        W73672  12.195  39.829   2.182
 1248W        W73673  14.658  26.528  13.943
 1249W        W73674  20.105  33.429   0.951
 1250W        W73675  17.637  28.126   0.764
 1251W        W73676  22.167   2.776  13.308
 1252W        W73677  29.046  21.716   0.259
 1253W        W73678   1.297  44.458  14.485
 1254W        W73679  41.871  41.347   3.285
 1255W        W73680  33.603   4.814  14.765
 1256W        W73681   7.340   9.772   4.341
 1257W        W73682  18.140  31.920   3.287
 1258W        W73683   6.361  15.245   2.315
 1259W        W73684  19.708  13.193   4.787
 1260W        W73685  36.455  23.665  11.496
 1261W        W73686  35.068  44.935   2.790
 1262W        W73687  42.512  42.858  12.540
 1263W        W73688  16.256  33.920  14.293
 1264W        W73689  26.026  21.035  10.587
 1265W        W73690  43.458  18.166  14.348
 1266W        W73691  10.802   1.842   2.832
 1267W        W73692  43.271  35.409  12.877
 1268W        W73693   5.744  42.338   3.736
 1269W        W73694   9.337   9.184  11.480
 1270W        W73695  39.513  19.218   3.372
 1271W        W73696  36.357   5.695  13.933
 1272W        W73697  21.174  38.398   0.769
 1273W        W73698  36.589  16.202   4.262
 1274W        W73699  40.417   1.301  12.871
 1275W        W73700  37.529  20.752  12.061
 1276W        W73701  21.711  30.962  11.417
 1277W        W73702   3.937  29.530  12.392
 1278W        W73703  21.514  38.826   2.369
 1279W        W73704   8.159  19.750  13.368
 1280W        W73705  31.131   0.856  13.060
 1281W        W73706  35.025  25.571  11.948
 1282W        W73707  13.757  40.357   0.258
 1283W        W73708   2.380  12.850   0.750
 1284W        W73709  43.437  26.040   2.881
 1285W        W73710  37.392  25.137  10.464
 1286W        W73711  25.691  28.581  14.391
 1287W        W73712  11.335   5.729   4.819
 1288W        W73713  15.741  33.081  10.072
 1289W        W73714  24.498  41.408   0.929
 1290W        W73715  27.684  43.429   2.283
 1291W        W73716  38.473  42.396  10.912
 1292W        W73717  22.251  21.668  12.095
 1293W        W73718  12.280  35.439   1.231
 1294W        W73719  39.971   9.864   4.114
 1295W        W73720  24.045  14.222   3.264
 1296W        W73721  34.510   1.766   3.199
 1297W        W73722  13.829  33.016   3.244
 1298W        W73723  37.500  39.438  14.448
 1299W        W73724   1.369  30.573  13.936
 1300W        W73725  26.496  18.556   4.693
 1301W        W73726  42.294  26.074  11.419
 1302W        W73727  35.566  24.039  14.903
 1303W        W73728  27.542  34.866   1.336
 1304W        W73729  12.228  21.088  11.393
 1305W        W73730   9.373  42.976   2.846
 1306W        W73731  25.030  30.429  12.095
 1307W        W73732  36.964  12.362  14.802
 1308W        W73733  42.022  22.683  11.476
 1309W        W73734  29.144  11.158   1.715
 1310W        W73735   8.810   7.680   0.362
 1311W        W73736  22.708  23.989  14.889
 1312W        W73737   7.248  41.943  14.366
 1313W        W73738  18.141  10.164   1.295
 1314W        W73739  11.629  42.327  10.587
 1315W        W73740  35.582  15.130  12.384
 1316W        W73741  18.200  15.210   3.224
 1317W        W73742  37.541  29.508   0.375
 1318W        W73743  42.480   0.292  13.405
 1319W        W73744  21.110  31.436  12.401
 1320W        W73745  42.459   5.700  12.089
 1321W        W73746  14.597  29.565   3.182
 1322W        W73747  29.002   5.787  11.960
 1323W        W73748  17.649  20.162   4.779
 1324W        W73749  22.089   6.833   4.347
 1325W        W73750   8.357  38.019  11.965
 1326W        W73751  20.656   7.785  10.538
 1327W        W73752   8.376  38.399   2.683
 1328W        W73753  41.904   8.765   5.166
 1329W        W73754  29.459  13.831   3.336
 1330W        W73755  17.203  34.047  10.961
 1331W        W73756  24.157  23.141   4.693
 1332W        W73757  22.642  33.447   3.231
 1333W        W73758  25.057  19.269   0.883
 1334W        W73759  23.210  36.366  11.888
 1335W        W73760  19.684  32.958   0.806
 1336W        W73761  28.015  33.939  11.932
 1337W        W73762  42.413  29.486   4.341
 1338W        W73763  43.875  39.964  12.994
 1339W        W73764  25.506  27.564  14.991
 1340W        W73765   7.686  17.307   3.760
 1341W        W73766  34.386  12.775   4.167
 1342W        W73767  28.593  25.637   4.689
 1343W        W73768   4.913  31.405   2.880
 1344W        W73769  33.957  11.834   3.267
 1345W        W73770  30.079  33.062   0.859
 1346W        W73771  22.648  16.637   3.709
 1347W        W73772   1.406  17.633   0.831
 1348W        W73773  10.319  33.495   4.800
 1349W        W73774  10.798   5.726   3.146
 1350W        W73775  25.508  20.616   4.653
 1351W        W73776  28.671   9.649   0.840
 1352W        W73777  12.190  11.790  13.028
 1353W        W73778   0.407   1.929   1.776
 1354W        W73779  26.191  27.608   1.294
 1355W        W73780  40.797  41.824  12.420
 1356W        W73781  26.570  28.088  12.431
 1357W        W73782  32.072   5.263   1.918
 1358W        W73783   1.899   0.400   0.762
 1359W        W73784  15.680  40.039  13.393
 1360W        W73785  16.215  36.011  12.373
 1361W        W73786  21.519   0.840  12.027
 1362W        W73787  25.680  27.945  12.350
 1363W        W73788  22.525  38.336  13.359
 1364W        W73789  21.568   3.260  14.029
 1365W        W73790  11.862  34.536  14.397
 1366W        W73791  24.720  12.124   1.712
 1367W        W73792   0.926   7.184   9.926
 1368W        W73793  18.616  18.147   1.759
 1369W        W73794  44.909  25.686   4.758
 1370W        W73795  26.040  30.916   2.265
 1371W        W73796  31.408  27.471   3.760
 1372W        W73797   4.747  12.717  14.350
 1373W        W73798  21.571  30.933   4.817
 1374W        W73799  24.553  32.545   0.283
 1375W        W73800  15.198  32.042  14.461
 1376W        W73801  30.980  18.166  13.054
 1377W        W73802  33.606  28.599   1.320
 1378W        W73803  39.890  26.176  13.539
 1379W        W73804  41.364  33.967   2.671
 1380W        W73805  26.596  11.759   3.228
 1381W        W73806  24.009  11.756   0.277
 1382W        W73807  17.700  24.088   4.797
 1383W        W73808  16.157  14.207   2.303
 1384W        W73809  23.217  35.454   3.198
 1385W        W73810  23.513  31.910  11.926
 1386W        W73811  11.800  18.109   3.821
 1387W        W73812  42.500  24.543   2.415
 1388W        W73813  29.530  30.081  13.976
 1389W        W73814   5.434   6.210   0.900
 1390W        W73815  32.956   4.242   4.809
 1391W        W73816   2.748  37.477   0.331
 1392W        W73817  17.669  20.091   2.226
 1393W        W73818  21.131  11.685  10.089
 1394W        W73819  41.861  37.346   5.231
 1395W        W73820  35.431  26.595  13.846
 1396W        W73821  22.513  17.237   2.217
 1397W        W73822  43.476  32.981   0.289
 1398W        W73823  10.363  35.977   1.285
 1399W        W73824  19.223  31.489   1.403
 1400W        W73825   6.759  21.076  11.516
 1401W        W73826  24.118  31.630  10.077
 1402W        W73827  25.052  19.553  12.410
 1403W        W73828  16.181  41.385   2.772
 1404W        W73829   7.382  30.615  10.960
 1405W        W73830  14.766  27.192   4.644
 1406W        W73831   5.857  41.429  11.940
 1407W        W73832  16.267  30.971   2.758
 1408W        W73833   8.303  34.002  14.298
 1409W        W73834   4.253  25.013  10.606
 1410W        W73835  25.604  21.534  13.341
 1411W        W73836  30.586   7.892  14.399
 1412W        W73837  12.116  11.237  10.480
 1413W        W73838  41.476  32.931   0.468
 1414W        W73839  20.273   3.286  13.471
 1415W        W73840  32.488   1.738   4.262
 1416W        W73841  31.996  30.071   1.793
 1417W        W73842   1.377   6.872  14.830
 1418W        W73843   0.798  25.508   3.278
 1419W        W73844   1.812  25.023  12.937
 1420W        W73845   5.821  38.854   4.637
 1421W        W73846   6.681  34.972  13.880
 1422W        W73847  40.511  27.634  13.411
 1423W        W73848  42.340   9.652   4.123
 1424W        W73849  31.586  29.976   2.807
 1425W        W73850  23.171  42.301   0.326
 1426W        W73851  42.306  38.361   0.835
 1427W        W73852  21.678  28.143  10.500
 1428W        W73853  36.098   2.299  11.046
 1429W        W73854  25.988  28.049  10.406
 1430W        W73855  24.509  12.272  10.632
 1431W        W73856  35.046   0.963  13.379
 1432W        W73857  38.396  36.368  13.924
 1433W        W73858  21.705  40.980   4.678
 1434W        W73859  17.723  29.155  11.914
 1435W        W73860  28.545  44.398  13.350
 1436W        W73861  22.009   9.256   3.745
 1437W        W73862  12.749   3.438  14.379
 1438W        W73863  38.439  42.459  11.555
 1439W        W73864  25.640  17.200  12.062
 1440W        W73865  28.066   2.725  12.933
 1441W        W73866  35.358   2.952   0.352
 1442W        W73867  42.803  21.574  14.806
 1443W        W73868  44.944   7.329  12.962
 1444W        W73869  37.542  15.795  11.454
 1445W        W73870  13.178  37.568  10.127
 1446W        W73871  43.457  27.001  13.324
 1447W        W73872  28.175   8.301   4.328
 1448W        W73873  19.042  37.343   5.280
 1449W        W73874  35.404  23.492   0.887
 1450W        W73875  26.606   4.435   3.315
 1451W        W73876   2.966  44.934  13.966
 1452W        W73877   1.829  40.547  12.926
 1453W        W73878  36.443   2.765  10.475
 1454W        W73879  14.210  18.104   3.683
 1455W        W73880  35.915   6.894  10.577
 1456W        W73881   6.364   7.347   4.120
 1457W        W73882  23.229  37.892  13.022
 1458W        W73883  13.716   6.893   2.300
 1459W        W73884   9.328  21.088   2.199
 1460W        W73885  18.785  14.623   0.868
 1461W        W73886  18.113   2.251   4.618
 1462W        W73887  19.279  32.947  13.842
 1463W        W73888  23.688  20.671  13.389
 1464W        W73889  22.539  34.109  11.107
 1465W        W73890  15.287  28.176   3.787
 1466W        W73891   5.282  22.224   3.238
 1467W        W73892  37.482   9.799  10.427
 1468W        W73893   8.204  13.710  13.875
 1469W        W73894  43.326  36.034  14.373
 1470W        W73895  21.589  32.568   1.314
 1471W        W73896  26.958  17.565  12.563
 1472W        W73897  22.625  30.994   2.665
 1473W        W73898  29.448   5.354   1.737
 1474W        W73899   1.308   8.288  13.896
 1475W        W73900  15.702  23.612   4.778
 1476W        W73901  20.659  19.778  12.052
 1477W        W73902  19.682  28.651   4.236
 1478W        W73903   9.713  29.065   1.401
 1479W        W73904  43.955   3.292   3.634
 1480W        W73905  37.448  38.459   4.180
 1481W        W73906  38.932  12.799  12.997
 1482W        W73907   9.771  31.521  12.354
 1483W        W73908  31.047   4.220   3.631
 1484W        W73909  13.256   3.428   2.746
 1485W        W73910   5.732  40.798   1.353
 1486W        W73911  19.189  18.226   1.799
 1487W        W73912  35.912  10.792   4.641
 1488W        W73913  35.026  14.665  11.606
 1489W        W73914  20.127  32.976  13.538
 1490W        W73915  26.691  43.851  12.994
 1491W        W73916  31.061  12.358  12.945
 1492W        W73917  32.970  18.610   2.711
 1493W        W73918  37.833  28.971  14.910
 1494W        W73919  34.995  37.044   1.739
 1495W        W73920  27.651  21.522   9.993
 1496W        W73921  16.265  23.233  13.351
 1497W        W73922  42.464   6.802  14.778
 1498W        W73923  34.930  35.396   0.854
 1499W        W73924  21.602  15.158   3.832
 1500W        W73925   3.747  36.985  12.441
 1501W        W73926  15.620  35.591  14.391
 1502W        W73927  27.035  26.204   3.645
 1503W        W73928   5.855   0.434   4.242
 1504W        W73929  10.773  11.270   1.401
 1505W        W73930  23.734  43.932   2.302
 1506W        W73931  42.844  16.811   4.235
 1507W        W73932   6.319   4.774  13.874
 1508W        W73933   4.883  24.077  14.387
 1509W        W73934   9.267   6.322   3.253
 1510W        W73935   0.439  43.395   3.313
 1511W        W73936  17.802  13.338   4.690
 1512W        W73937  28.162  33.080   0.926
 1513W        W73938  12.741  22.996  14.473
 1514W        W73939  30.489  43.956   2.694
 1515W        W73940  11.238  33.517   0.781
 1516W        W73941  28.445   2.427  14.463
 1517W        W73942  19.583   3.422   0.938
 1518W        W73943  19.080   3.857  11.382
 1519W        W73944  39.474  28.061  12.040
 1520W        W73945  16.594  35.571  13.921
 1521W        W73946  27.103  12.155   4.606
 1522W        W73947  26.988  38.972   1.875
 1523W        W73948  43.362  40.901  11.479
 1524W        W73949  37.511  11.768   3.815
 1525W        W73950  21.107  42.906   2.901
 1526W        W73951  43.339  23.224   4.339
 1527W        W73952  28.653  30.597  14.486
 1528W        W73953  43.379  29.093   1.775
 1529W        W73954  30.510  44.429   1.916
 1530W        W73955  40.889  33.089  14.312
 1531W        W73956  23.673   0.431  13.366
 1532W        W73957  38.552  24.202   3.851
 1533W        W73958  39.506  14.115  13.050
 1534W        W73959  39.485  23.076  13.797
 1535W        W73960  23.650  14.741  14.356
 1536W        W73961  43.839   2.356  13.906
 1537W        W73962  34.544  11.686   4.338
 1538W        W73963  40.027  23.604   1.394
 1539W        W73964  21.050  17.230   2.748
 1540W        W73965  13.164  35.412   1.411
 1541W        W73966  17.733   2.876  13.477
 1542W        W73967  25.517   4.826  10.411
 1543W        W73968  43.798  42.973   0.254
 1544W        W73969  31.995  43.365  11.548
 1545W        W73970  44.318  39.450  11.543
 1546W        W73971  22.187  26.163   3.773
 1547W        W73972  38.337   8.672  12.055
 1548W        W73973   1.801  31.104   0.291
 1549W        W73974   8.400   3.374  13.381
 1550W        W73975  27.037   6.707   2.776
 1551W        W73976   0.440  42.291   0.833
 1552W        W73977  25.518  33.984   1.334
 1553W        W73978  16.201  41.017  14.482
 1554W        W73979  38.494  41.356   3.151
 1555W        W73980  26.203  26.978   3.263
 1556W        W73981  29.428  41.517  11.529
 1557W        W73982  14.129  12.788   2.219
 1558W        W73983  10.351  17.062  12.064
 1559W        W73984  30.414  43.860   0.753
 1560W        W73985  38.443  37.960  11.410
 1561W        W73986  15.128   5.740   4.609
 1562W        W73987  37.494   2.374   2.391
 1563W        W73988  26.691  28.671  12.929
 1564W        W73989  18.093  34.586   9.506
 1565W        W73990   2.412  18.621  11.097
 1566W        W73991   1.249  37.927   1.218
 1567W        W73992   6.839  15.623  13.894
 1568W        W73993  30.071   4.248  13.908
 1569W        W73994  26.560  28.990  11.883
 1570W        W73995  17.137  32.445  14.784
 1571W        W73996   0.850  14.212  12.522
 1572W        W73997  36.417   4.812   1.357
 1573W        W73998  26.628  37.546   3.777
 1574W        W73999  13.317  14.298  12.534
 1575W        W74000  15.180  20.204   3.336
 1576W        W74001  36.851   9.722   4.289
 1577W        W74002  44.767  36.375  11.099
 1578W        W74003   3.866  27.151   1.326
 1579W        W74004  13.826  20.121   1.705
 1580W        W74005  11.862   1.971   3.375
 1581W        W74006  23.137  35.991  13.880
 1582W        W74007  37.566  29.607  12.366
 1583W        W74008   1.762  29.439  14.461
 1584W        W74009   5.797  31.081   2.859
 1585W        W74010   3.389   3.291   2.238
 1586W        W74011  31.454  21.153   3.808
 1587W        W74012  22.641  23.228   0.800
 1588W        W74013  22.517  40.489   1.907
 1589W        W74014  42.281  34.106   2.270
 1590W        W74015   7.205   0.419   4.798
 1591W        W74016  29.131   6.818  14.804
 1592W        W74017  29.594  25.505  12.388
 1593W        W74018  12.697   3.721  11.992
 1594W        W74019  34.455  41.480  14.017
 1595W        W74020  25.112  40.968  14.485
 1596W        W74021   8.312  10.639  12.363
 1597W        W74022  39.538  10.716  10.425
 1598W        W74023   5.240  41.398   4.159
 1599W        W74024  42.021   9.327  14.500
 1600W        W74025  17.627  28.466   0.786
 1601W        W74026  43.779  21.704  14.412
 1602W        W74027  13.327  29.562  14.820
 1603W        W74028  24.186  10.834   4.296
 1604W        W74029   1.288  22.006  13.342
 1605W        W74030   7.748  14.325   1.885
 1606W        W74031  42.283  31.068   1.222
 1607W        W74032  22.082  32.997  14.859
 1608W        W74033  19.264  15.767  12.499
 1609W        W74034  28.632  25.141  13.485
 1610W        W74035  33.514   5.404   4.680
 1611W        W74036  39.955   9.198  12.562
 1612W        W74037  13.164  14.738  11.985
 1613W        W74038  18.639  33.880   3.815
 1614W        W74039   9.200  43.433   4.317
 1615W        W74040  23.702   4.783   3.828
 1616W        W74041   7.759  17.244   3.317
 1617W        W74042   9.262   9.879  14.815
 1618W        W74043  15.639  15.158  13.874
 1619W        W74044   8.829  37.554   4.259
 1620W        W74045  41.949  39.014  11.972
 1621W        W74046  33.118  13.737  14.971
 1622W        W74047   0.789   7.806  14.892
 1623W        W74048  23.211  12.809  10.457
 1624W        W74049   8.364  30.090   2.750
 1625W        W74050  39.997  38.556   0.350
 1626W        W74051  36.957  27.508  14.912
 1627W        W74052   8.222  11.827   1.777
 1628W        W74053   8.709  44.473  13.822
 1629W        W74054  27.453  25.537   0.887
 1630W        W74055  43.965  16.686  12.087
 1631W        W74056  19.747   4.357  12.428
 1632W        W74057   6.910   1.357   3.812
 1633W        W74058  21.144  32.456   0.878
 1634W        W74059  13.628   7.226   2.343
 1635W        W74060  42.311  20.254  14.775
 1636W        W74061  38.352  21.114  12.055
 1637W        W74062  10.682  11.791  13.968
 1638W        W74063  22.735  36.012  11.923
 1639W        W74064   1.836   0.918  11.079
 1640W        W74065  10.796  37.937  14.355
 1641W        W74066  12.616  41.993   0.322
 1642W        W74067  35.385  31.595  14.856
 1643W        W74068  18.625  22.219  12.361
 1644W        W74069   8.235  37.986  14.481
 1645W        W74070   5.340  42.526  12.369
 1646W        W74071  39.362  21.061  12.379
 1647W        W74072  22.195  26.499   4.678
 1648W        W74073  12.228  32.435  11.035
 1649W        W74074  19.269  37.039  12.940
 1650W        W74075  29.580  39.527   1.281
 1651W        W74076  12.768   4.275  13.868
 1652W        W74077  37.999  42.981   4.279
 1653W        W74078  34.014  14.606  14.833
 1654W        W74079  36.361   6.427   4.216
 1655W        W74080   4.710  43.916  10.591
 1656W        W74081  33.036  33.499  11.952
 1657W        W74082  20.612   0.917  12.474
 1658W        W74083  39.007  35.031   1.345
 1659W        W74084  41.804   1.270  14.010
 1660W        W74085   2.722  17.719   0.288
 1661W        W74086  12.237  44.444  13.314
 1662W        W74087   0.471  22.060  10.434
 1663W        W74088   8.841  35.016   1.336
 1664W        W74089  21.597  22.188  11.921
 1665W        W74090  40.508   9.327   1.294
 1666W        W74091  24.636  28.680   4.735
 1667W        W74092  30.908   5.393  14.939
 1668W        W74093  15.198   2.376  12.866
 1669W        W74094  29.124  32.466  14.980
 1670W        W74095   3.321  38.071  11.497
 1671W        W74096  13.661  10.148  12.072
 1672W        W74097  11.810   2.346   1.848
 1673W        W74098  40.897  11.219   1.219
 1674W        W74099   9.243  27.475   0.850
 1675W        W74100   8.851   8.194  11.100
 1676W        W74101  13.289  14.225  13.938
 1677W        W74102  42.007  42.377   4.193
 1678W        W74103  31.045  21.694  10.022
 1679W        W74104  42.950  44.988   1.815
 1680W        W74105   5.730   2.288  14.406
 1681W        W74106  44.270  25.205  12.013
 1682W        W74107  13.337  36.592  10.458
 1683W        W74108  13.219  39.000   4.748
 1684W        W74109  17.719  19.170   2.792
 1685W        W74110  41.895  35.429  13.404
 1686W        W74111  20.756  13.709  10.491
 1687W        W74112  18.605  42.371   0.778
 1688W        W74113  25.197  37.340  10.486
 1689W        W74114  17.256  31.510   4.180
 1690W        W74115   7.219  31.940   1.864
 1691W        W74116   0.777   4.227   0.870
 1692W        W74117   8.656   4.858  13.309
 1693W        W74118   7.849  42.884   0.960
 1694W        W74119  28.022   2.317  14.467
 1695W        W74120  33.918  23.516  11.588
 1696W        W74121  42.466  42.475  10.548
 1697W        W74122   7.797   3.920  11.449
 1698W        W74123  21.602  26.186  10.518
 1699W        W74124  10.655  35.010  10.423
 1700W        W74125  33.051  29.456   3.284
 1701W        W74126  26.528  20.101   3.364
 1702W        W74127  29.530   9.355   1.273
 1703W        W74128  25.120  32.030  11.055
 1704W        W74129  39.443  32.905  10.569
 1705W        W74130   3.793  44.304   4.162
 1706W        W74131  13.606  22.671   0.473
 1707W        W74132  42.950  18.655   3.242
 1708W        W74133   6.724  32.076  10.887
 1709W        W74134   2.967   5.736   0.458
 1710W        W74135  17.306   3.919  12.512
 1711W        W74136  42.986  23.672   4.602
 1712W        W74137  39.406  32.530   2.244
 1713W        W74138  31.465   9.244   3.363
 1714W        W74139   0.785   8.710   3.651
 1715W        W74140  33.999  37.425   1.900
 1716W        W74141  34.081  35.564   1.771
 1717W        W74142  41.872  10.802  13.858
 1718W        W74143   7.211  29.095  14.432
 1719W        W74144  39.899  29.123   1.825
 1720W        W74145   8.879  41.843   3.695
 1721W        W74146   4.442  19.678  13.938
 1722W        W74147  42.822  15.681   3.655
 1723W        W74148  27.501  36.955   2.252
 1724W        W74149  26.030  43.486  12.882
 1725W        W74150  34.984  26.961  14.025
 1726W        W74151  22.700  13.201   2.419
 1727W        W74152  32.620   4.816   3.870
 1728W        W74153  27.677  41.803   1.215
 1729W        W74154  10.845  10.273   3.760
 1730W        W74155  13.156  10.327  14.025
 1731W        W74156  12.730  26.959   3.634
 1732W        W74157  27.503  13.251  13.964
 1733W        W74158  26.206  10.186  12.944
 1734W        W74159  22.168  26.951   4.231
 1735W        W74160  44.992  12.213  14.917
 1736W        W74161  22.025  29.503   4.753
 1737W        W74162   1.853  18.675  14.914
 1738W        W74163  33.511  10.656   4.166
 1739W        W74164  25.472  32.521  10.941
 1740W        W74165  30.574  32.404   1.367
 1741W        W74166  25.693   2.271  14.967
 1742W        W74167  23.219   7.186  12.857
 1743W        W74168  13.700   7.720  13.499
 1744W        W74169  11.164  38.326   3.168
 1745W        W74170  21.565  11.282   0.406
 1746W        W74171  14.238  42.332  14.962
 1747W        W74172  29.509  13.216  10.618
 1748W        W74173  39.854  26.129  12.449
 1749W        W74174  19.549  25.215  11.566
 1750W        W74175  12.650  40.019  11.045
 1751W        W74176  14.819  38.965   5.095
 1752W        W74177  40.015  22.086  12.048
 1753W        W74178  31.006  24.217   4.740
 1754W        W74179  14.283  16.735  14.278
 1755W        W74180   7.187  14.726   4.724
 1756W        W74181   4.336   5.890  11.437
 1757W        W74182  44.345  37.082   0.777
 1758W        W74183  13.686   5.924   3.193
 1759W        W74184   2.441   1.365   1.393
 1760W        W74185  29.993   3.745   0.773
 1761W        W74186  27.458  43.954  12.991
 1762W        W74187  35.058  25.507  10.472
 1763W        W74188   3.885   8.834   5.196
 1764W        W74189  16.083   8.803  14.942
 1765W        W74190  39.542  34.076  13.997
 1766W        W74191  17.183  33.907  11.908
 1767W        W74192  37.479  18.582  13.937
 1768W        W74193   0.389   5.263  11.459
 1769W        W74194  27.189  33.923  14.317
 1770W        W74195  12.223  41.964  12.838
 1771W        W74196  27.523   3.874  14.348
 1772W        W74197  44.948  23.233   1.725
 1773W        W74198  31.438   2.282   4.627
 1774W        W74199  28.031  25.013   0.930
 1775W        W74200   0.835  32.508   0.865
 1776W        W74201  15.701   7.288  13.520
 1777W        W74202   1.762  37.872   0.872
 1778W        W74203  33.607  38.989   0.251
 1779W        W74204  36.880  14.693   1.702
 1780W        W74205  40.526  11.834  13.917
 1781W        W74206  12.233  24.702   9.548
 1782W        W74207  43.313  22.185  11.009
 1783W        W74208  35.451  20.681  13.001
 1784W        W74209  31.422  11.776  10.919
 1785W        W74210  21.082   7.687  10.501
 1786W        W74211  41.518  35.949   1.920
 1787W        W74212  31.545   2.253   3.152
 1788W        W74213   2.825  33.499   3.259
 1789W        W74214   3.250  29.497   0.814
 1790W        W74215  27.471  40.338  14.021
 1791W        W74216   2.399  37.540  11.973
 1792W        W74217  14.340  26.988   4.191
 1793W        W74218  20.590   2.910  10.933
 1794W        W74219  32.530   4.358   0.889
 1795W        W74220  31.958  26.636   2.845
 1796W        W74221  29.596   5.232   3.826
 1797W        W74222  14.178   1.796   4.718
 1798W        W74223   5.252  19.639   4.211
 1799W        W74224   8.303  30.065  14.807
 1800W        W74225   4.776   1.962   0.459
 1801W        W74226  42.374  18.232   1.784
 1802W        W74227  28.553  15.203   1.348
 1803W        W74228  17.239   8.864  13.997
 1804W        W74229   9.723  33.388   1.231
 1805W        W74230   1.784  32.109   3.800
 1806W        W74231   4.388  40.022  11.043
 1807W        W74232   6.314  27.163  12.445
 1808W        W74233   4.284  14.171  10.487
 1809W        W74234  24.490  14.659   0.758
 1810W        W74235  19.074  36.089   3.774
 1811W        W74236  40.417  29.445  13.445
 1812W        W74237  39.412  11.181   2.756
 1813W        W74238   8.835  16.269  12.849
 1814W        W74239  21.706  37.545   4.675
 1815W        W74240  21.162  34.051   0.297
 1816W        W74241   4.762  20.745   2.180
 1817W        W74242  31.116  10.874   2.841
 1818W        W74243   7.327  44.349   2.769
 1819W        W74244  18.125   8.189   4.278
 1820W        W74245  11.277   8.404  13.483
 1821W        W74246  22.700  16.646   3.277
 1822W        W74247  31.924  34.413  10.479
 1823W        W74248  17.201  32.632   3.373
 1824W        W74249  17.591  43.846  13.870
 1825W        W74250  20.690   5.264  13.448
 1826W        W74251  39.509  43.926   3.165
 1827W        W74252  26.121  15.191  13.820
 1828W        W74253  43.350   5.281   3.260
 1829W        W74254  15.775  38.448  14.321
 1830W        W74255  24.025  28.954   1.374
 1831W        W74256  30.650  15.149   0.854
 1832W        W74257  36.527  11.788   4.278
 1833W        W74258  19.565   5.204  11.427
 1834W        W74259  20.089  35.942   1.788
 1835W        W74260  31.066  12.705  11.492
 1836W        W74261  21.076  35.998  14.797
 1837W        W74262  41.383  34.092   1.448
 1838W        W74263  11.736  37.859  14.455
 1839W        W74264  38.827  33.505  14.991
 1840W        W74265  44.306  22.996  10.954
 1841W        W74266  16.576  10.740   3.311
 1842W        W74267  13.840  37.375   2.677
 1843W        W74268  22.550  22.077  13.825
 1844W        W74269  35.936  15.696   3.345
 1845W        W74270   7.744  29.051  12.922
 1846W        W74271  14.293  37.984  13.826
 1847W        W74272   5.377  25.590   4.609
 1848W        W74273  39.955   1.825  14.031
 1849W        W74274  38.882  23.535  14.998
 1850W        W74275  37.569  43.822  10.073
 1851W        W74276  17.741  26.995  10.968
 1852W        W74277   8.872   0.905   0.898
 1853W        W74278   5.282   4.860  13.545
 1854W        W74279   3.801  19.539  14.381
 1855W        W74280   3.403  16.280   3.304
 1856W        W74281   0.773  12.656  14.954
 1857W        W74282  28.604  14.828  13.064
 1858W        W74283  40.331   7.348   3.794
 1859W        W74284  20.123  27.005   1.743
 1860W        W74285  28.015  23.566   2.785
 1861W        W74286  18.694   5.930   1.932
 1862W        W74287   9.693  30.087   2.195
 1863W        W74288  23.192  38.385   0.891
 1864W        W74289  33.451  42.018  11.386
 1865W        W74290  17.147   2.469   0.358
 1866W        W74291  35.106   8.762  13.005
 1867W        W74292  36.085  25.508   4.734
 1868W        W74293  12.329   0.430   2.901
 1869W        W74294  42.341   2.844  12.836
 1870W        W74295  43.449  26.700  11.944
 1871W        W74296   1.905  23.057   1.760
 1872W        W74297  18.587  35.091  14.000
 1873W        W74298   6.304   6.734  13.810
 1874W        W74299  34.544  42.904   2.294
 1875W        W74300   7.855  14.824  11.418
 1876W        W74301  18.277  28.466  11.873
 1877W        W74302  21.250  14.123  14.347
 1878W        W74303  20.742  40.400   3.158
 1879W        W74304  27.467  15.174  13.865
 1880W        W74305  30.571  33.104   3.361
 1881W        W74306   7.182  10.170  12.826
 1882W        W74307  33.048   2.749   1.722
 1883W        W74308  13.168  26.566  11.589
 1884W        W74309   8.751   8.195  14.468
 1885W        W74310  28.099  13.312  13.865
 1886W        W74311  44.392  33.934  14.471
 1887W        W74312   1.875  43.986  13.045
 1888W        W74313  23.695  29.017  10.967
 1889W        W74314   7.671  25.551  11.512
 1890W        W74315   3.755   3.883  13.393
 1891W        W74316  38.873  11.181  11.052
 1892W        W74317  18.734  19.615  12.571
 1893W        W74318   0.985  33.078   3.258
 1894W        W74319  28.473  28.436  14.510
 1895W        W74320  34.413  41.398   0.337
 1896W        W74321  38.939  40.487  14.430
 1897W        W74322  12.670  10.286   0.427
 1898W        W74323  11.628  29.475   3.238
 1899W        W74324  32.994  15.643  11.891
 1900W        W74325  18.730  16.136   1.294
 1901W        W74326   1.839  33.593   4.174
 1902W        W74327  39.954  15.690  12.993
 1903W        W74328   5.697  16.596   2.363
 1904W        W74329  35.024   8.801   3.251
 1905W        W74330  14.113  41.383   0.857
 1906W        W74331  20.243   3.826   2.774
 1907W        W74332   3.424  24.207  10.612
 1908W        W74333  40.998  30.486  12.454
 1909W        W74334  39.823   1.782   1.737
 1910W        W74335  23.033   7.351  14.884
 1911W        W74336  20.582   7.386   4.667
 1912W        W74337  31.068   0.781   1.369
 1913W        W74338  42.874  30.004   4.243
 1914W        W74339  19.723   2.369   4.336
 1915W        W74340  32.427   7.380   3.733
 1916W        W74341  30.118  44.771  12.072
 1917W        W74342   8.743  32.990   2.373
 1918W        W74343  33.009  14.744  10.405
 1919W        W74344  36.955  34.482   4.702
 1920W        W74345  42.839  29.545  11.446
 1921W        W74346  44.955  33.971   4.746
 1922W        W74347  17.595  32.480  12.362
 1923W        W74348  20.638  28.537  14.931
 1924W        W74349   6.811  40.316   4.269
 1925W        W74350  19.622  40.967  12.447
 1926W        W74351  16.226  40.978  13.387
 1927W        W74352  19.231  35.070   0.843
 1928W        W74353  13.608  35.600  11.048
 1929W        W74354  42.006  24.670  11.446
 1930W        W74355   6.388  33.625  13.802
 1931W        W74356  36.081   5.817   1.381
 1932W        W74357  26.164  37.844   0.792
 1933W        W74358  40.304  18.122  10.448
 1934W        W74359  27.675   2.923  11.412
 1935W        W74360  26.046  19.679  11.970
 1936W        W74361  30.081  37.952   0.251
 1937W        W74362  19.236  38.358  11.436
 1938W        W74363   1.858  38.386  12.374
 1939W        W74364  16.140  15.202   2.261
 1940W        W74365  31.061  37.905  14.335
 1941W        W74366  11.302   6.808  14.891
 1942W        W74367   7.684  27.513   4.227
 1943W        W74368  32.995   2.250  12.073
 1944W        W74369  22.164  25.637   0.965
 1945W        W74370  39.341  40.921  13.052
 1946W        W74371  37.494  37.383  14.306
 1947W        W74372  36.523  15.691   2.233
 1948W        W74373   8.233  28.104   0.418
 1949W        W74374  26.507  22.141  11.598
 1950W        W74375  39.908  17.745   3.245
 1951W        W74376   1.948  27.493  12.445
 1952W        W74377   9.298  18.770  12.905
 1953W        W74378  15.226  21.120  11.385
 1954W        W74379  19.147   4.297   3.385
 1955W        W74380  23.536   8.814   1.722
 1956W        W74381  23.609  42.843  13.896
 1957W        W74382  19.772   3.230   1.917
 1958W        W74383  23.066  21.680   2.700
 1959W        W74384  20.179  13.719   3.171
 1960W        W74385   5.324  41.923   0.837
 1961W        W74386  44.826  38.929   1.244
 1962W        W74387  40.521  41.298  14.928
 1963W        W74388  27.660  14.708   0.845
 1964W        W74389   9.325  41.425   2.182
 1965W        W74390  15.612  41.462  11.597
 1966W        W74391  19.741  22.742  12.512
 1967W        W74392  41.869  11.700  11.068
 1968W        W74393  10.848   6.344  12.512
 1969W        W74394  16.128   6.266  12.430
 1970W        W74395  13.607  11.811   0.455
 1971W        W74396  28.038  32.565  14.299
 1972W        W74397  31.082  11.142   2.301
 1973W        W74398  41.889  39.920  13.403
 1974W        W74399  18.287  20.133  13.039
 1975W        W74400  19.610  13.654   0.852
 1976W        W74401   9.215   3.796  12.864
 1977W        W74402  23.639  10.299   2.324
 1978W        W74403   1.863  39.514  12.976
 1979W        W74404   9.302   3.402  12.373
 1980W        W74405  15.316  37.481  10.494
 1981W        W74406  38.924  18.683  13.854
 1982W        W74407  37.476  16.723   3.848
 1983W        W74408  13.790  30.162  12.365
 1984W        W74409  40.544  23.700   0.253
 1985W        W74410   6.303  21.211  13.987
 1986W        W74411   9.353  31.988   0.305
 1987W        W74412  31.972  34.114  13.368
 1988W        W74413  34.371  10.322  12.032
 1989W        W74414  41.932  19.259   9.930
 1990W        W74415  13.604  40.437   4.307
 1991W        W74416   6.818  16.677   0.401
 1992W        W74417  20.050  43.380   3.197
 1993W        W74418  42.474   2.725  11.447
 1994W        W74419  33.917  10.314   1.254
 1995W        W74420   6.368   2.942   0.421
 1996W        W74421  32.000  15.778   1.349
 1997W        W74422  36.048   2.871  13.470
 1998W        W74423  34.483  16.808   1.373
 1999W        W74424  34.547  14.806   1.398
 2000W        W74425   1.391  11.642   4.775
 2001W        W74426  17.102  19.686   5.238
 2002W        W74427  28.957   5.417  12.461
 2003W        W74428  17.195   3.736  11.956
 2004W        W74429  26.175   9.723  11.878
 2005W        W74430  35.453  19.209  14.369
 2006W        W74431  24.163  42.777  11.123
 2007W        W74432  35.502  22.615  14.283
 2008W        W74433   9.771  20.625   2.851
 2009W        W74434   7.254   4.290   2.196
 2010W        W74435  28.116  18.127   2.210
 2011W        W74436   1.876  21.713   2.780
 2012W        W74437  29.606  44.906  11.501
 2013W        W74438  42.805  24.554  13.965
 2014W        W74439   9.649   1.873  14.005
 2015W        W74440  11.802   9.724  13.490
 2016W        W74441  31.899  23.579  14.286
 2017W        W74442  12.239  29.537   1.410
 2018W        W74443  19.220  28.543  13.913
 2019W        W74444  13.328  21.169   4.813
 2020W        W74445  25.121  28.037  11.560
 2021W        W74446  31.140  44.472  14.407
 2022W        W74447  32.035  27.988   4.652
 2023W        W74448  31.138  29.497  13.338
 2024W        W74449  12.789   9.802  12.067
 2025W        W74450  21.161   7.713  12.552
 2026W        W74451  22.999  11.736  11.038
 2027W        W74452   8.355  15.251  13.844
 2028W        W74453  41.388  34.941  13.527
 2029W        W74454  41.808  32.101  10.906
 2030W        W74455  30.030  20.124  11.438
 2031W        W74456  23.733  13.298   4.820
 2032W        W74457  41.422  36.460  14.975
 2033W        W74458  44.352  32.569  10.082
 2034W        W74459  30.073  32.505   3.340
 2035W        W74460  23.081   7.399  13.375
 2036W        W74461  38.428  28.579  14.817
 2037W        W74462   8.244   1.483  11.119
 2038W        W74463   9.729   1.806   0.399
 2039W        W74464  33.469   5.907  11.069
 2040W        W74465   6.833   4.885  13.963
 2041W        W74466  18.089  16.199  11.937
 2042W        W74467  34.414  11.657  12.903
 2043W        W74468  40.530   7.783   0.269
 2044W        W74469  39.557   4.887   3.853
 2045W        W74470  34.092  14.804   4.609
 2046W        W74471  14.106  25.066  10.592
 2047W        W74472   8.378  18.175  11.899
 2048W        W74473  19.189  24.000  11.515
 2049W        W74474  23.516  42.982   4.157
 2050W        W74475  21.638  26.628  12.511
 2051W        W74476  31.153  10.715  14.435
 2052W        W74477   2.859  20.148  11.124
 2053W        W74478  26.968  25.992   3.221
 2054W        W74479  42.516  22.137  10.974
 2055W        W74480  11.260   2.384   2.180
 2056W        W74481   9.769  39.866  10.902
 2057W        W74482  43.956  19.112  13.801
 2058W        W74483  36.354  27.515   0.728
 2059W        W74484  24.599  31.459   1.263
 2060W        W74485  40.363  37.491   9.981
 2061W        W74486  13.719  27.083  11.868
 2062W        W74487  12.836  40.821   0.451
 2063W        W74488  41.999   8.885  14.762
 2064W        W74489  20.030  27.678  14.289
 2065W        W74490  27.479  11.775   1.732
 2066W        W74491  31.992  16.119  14.017
 2067W        W74492  30.985  27.023   1.236
 2068W        W74493  10.702   8.895   4.163
 2069W        W74494  34.599  25.005   0.293
 2070W        W74495  29.116   0.749  10.454
 2071W        W74496   9.844   7.309   2.365
 2072W        W74497  42.308  15.264  10.602
 2073W        W74498  27.159  34.028  13.964
 2074W        W74499   0.919  20.637  11.965
 2075W        W74500   9.185  15.301  14.314
 2076W        W74501  32.430  20.683   3.303
 2077W        W74502  20.269  29.933   2.799
 2078W        W74503  10.186  12.773  11.445
 2079W        W74504   1.870  19.760  14.382
 2080W        W74505   1.395  27.951   0.414
 2081W        W74506  32.435  14.816  12.394
 2082W        W74507  20.753  17.671  13.036
 2083W        W74508  22.232  26.483  11.078
 2084W        W74509   8.238   5.879  12.414
 2085W        W74510  18.130  33.614   9.665
 2086W        W74511   0.490   7.207   0.921
 2087W        W74512  17.694  43.296  12.376
 2088W        W74513  33.423   6.188  10.907
 2089W        W74514  27.171  32.569   4.617
 2090W        W74515  42.380  10.733  13.406
 2091W        W74516   6.892  27.005  14.850
 2092W        W74517  43.797  17.675   4.768
 2093W        W74518  17.216  39.473   3.234
 2094W        W74519  23.503  23.014   3.851
 2095W        W74520  31.004  24.608   3.780
 2096W        W74521  43.964  12.675  13.336
 2097W        W74522   1.447   1.889  13.391
 2098W        W74523  11.798  38.032  12.562
 2099W        W74524   3.320   4.859   0.346
 2100W        W74525  10.673  15.162  12.547
 2101W        W74526  27.056  11.635   1.922
 2102W        W74527  37.852  42.503  12.969
 2103W        W74528  29.488  38.519   4.233
 2104W        W74529   6.320  39.934  11.390
 2105W        W74530  20.097   6.913   4.116
 2106W        W74531   0.329  11.686  14.492
 2107W        W74532  38.967   6.188   4.792
 2108W        W74533   4.937   4.874  14.457
 2109W        W74534  13.769  27.083  14.923
 2110W        W74535  16.689  29.151  12.412
 2111W        W74536  19.714  34.503  13.957
 2112W        W74537  26.542   6.864  14.789
 2113W        W74538  40.914  14.185  10.529
 2114W        W74539  37.560  34.111   0.384
 2115W        W74540   1.325  20.060  13.941
 2116W        W74541  36.044  31.956  10.939
 2117W        W74542   7.720  27.145  13.538
 2118W        W74543  20.565  29.975  14.930
 2119W        W74544  14.217   5.692  10.418
 2120W        W74545  34.517  25.706  13.047
 2121W        W74546  42.887  35.568  14.458
 2122W        W74547  22.197  27.517  10.640
 2123W        W74548  16.074  39.456  11.584
 2124W        W74549  44.402  36.846   4.267
 2125W        W74550  33.427  36.573  14.428
 2126W        W74551  35.073  39.066   4.193
 2127W        W74552  16.788  39.937  14.335
 2128W        W74553   6.346  36.405  12.920
 2129W        W74554  20.623  32.064  12.947
 2130W        W74555  42.989  11.863   0.264
 2131W        W74556  30.655  26.559  13.045
 2132W        W74557   5.403  37.363   2.365
 2133W        W74558   6.838  36.962  13.353
 2134W        W74559  21.607  33.488  14.759
 2135W        W74560  37.487  32.489  11.493
 2136W        W74561  13.707  42.970   1.249
 2137W        W74562   2.381  10.245  13.965
 2138W        W74563  16.776  29.571  12.466
 2139W        W74564   3.870  25.006   4.788
 2140W        W74565  13.835  16.693  10.442
 2141W        W74566  20.582   1.789   3.768
 2142W        W74567  10.238  36.439   0.923
 2143W        W74568  21.603   5.700  13.867
 2144W        W74569  31.570   8.312  12.844
 2145W        W74570  35.452  18.626   2.783
 2146W        W74571  24.481  20.086   0.870
 2147W        W74572   6.263  30.636   3.721
 2148W        W74573   0.877   3.269   0.806
 2149W        W74574  21.075  14.689   1.318
 2150W        W74575  19.669  27.181   3.642
 2151W        W74576  14.278  26.093   0.245
 2152W        W74577  30.631  33.512  13.500
 2153W        W74578  31.624  18.268  14.863
 2154W        W74579   9.281  41.928  12.920
 2155W        W74580   5.199  35.952   2.714
 2156W        W74581   9.887  11.697  10.506
 2157W        W74582   2.802   3.770  14.997
 2158W        W74583   1.404  15.700  11.095
 2159W        W74584  40.925  12.230   4.242
 2160W        W74585  14.596   4.413  10.987
 2161W        W74586  38.453   5.437  14.931
 2162W        W74587   9.329   1.953   1.853
 2163W        W74588  12.760  43.961   3.755
 2164W        W74589   1.429  35.508  14.479
 2165W        W74590  43.361  26.632  14.952
 2166W        W74591  10.292  41.874  10.937
 2167W        W74592  43.369  13.283   2.901
 2168W        W74593  12.287   0.470   1.713
 2169W        W74594  41.914  29.966   0.804
 2170W        W74595   2.397  44.332   2.380
 2171W        W74596  11.232   2.390  13.823
 2172W        W74597   0.948   2.416  14.941
 2173W        W74598  12.671  24.975   3.157
 2174W        W74599  14.780   5.892   3.803
 2175W        W74600  10.144  17.755  10.564
 2176W        W74601  38.539  31.527  14.499
 2177W        W74602  24.201  35.562   3.253
 2178W        W74603  12.803  24.051   3.827
 2179W        W74604  37.944  10.863  13.864
 2180W        W74605  28.935  12.216  12.859
 2181W        W74606   9.820  32.564   1.897
 2182W        W74607  12.277   9.661   4.809
 2183W        W74608   3.230   1.347   2.411
 2184W        W74609  11.226  38.406   4.625
 2185W        W74610  13.694  16.142   0.756
 2186W        W74611  19.726  44.396   0.729
 2187W        W74612  28.170   7.719   4.158
 2188W        W74613   4.773  24.670   0.900
 2189W        W74614  23.209  11.363  14.481
 2190W        W74615  20.056   4.705   1.816
 2191W        W74616  42.516  26.176   2.871
 2192W        W74617  24.148  35.040   1.714
 2193W        W74618  16.083   1.947   3.178
 2194W        W74619  22.020  37.066  11.374
 2195W        W74620  35.585  10.828  14.348
 2196W        W74621  27.037  20.662   0.421
 2197W        W74622  20.114   1.940   0.955
 2198W        W74623  24.193  22.564   1.402
 2199W        W74624  31.573   4.323   3.219
 2200W        W74625  37.999  30.013   1.839
 2201W        W74626   9.375  37.576  12.977
 2202W        W74627   8.362  34.073  12.955
 2203W        W74628  39.910  31.417  13.318
 2204W        W74629  33.466   7.173  13.043
 2205W        W74630  25.174  15.689  12.561
 2206W        W74631   3.246  18.099  13.865
 2207W        W74632  39.045  11.266  12.346
 2208W        W74633  40.522  16.109   2.299
 2209W        W74634  21.516  24.512  11.101
 2210W        W74635  16.151  17.641   4.236
 2211W        W74636  42.914  10.255   5.299
 2212W        W74637   5.238  30.647   0.306
 2213W        W74638  28.094  25.018   1.861
 2214W        W74639  31.112  24.010   0.338
 2215W        W74640  31.083  27.646   3.283
 2216W        W74641  44.415  42.863   0.826
 2217W        W74642   9.841  10.823  13.978
 2218W        W74643  25.021  10.311  12.521
 2219W        W74644  17.761  36.004   0.326
 2220W        W74645  44.769   4.721  10.513
 2221W        W74646  36.878   7.407  11.065
 2222W        W74647  42.407  21.111   2.415
 2223W        W74648  24.502  12.782  11.953
 2224W        W74649  15.213  38.893   1.759
 2225W        W74650  41.363   1.438  10.984
 2226W        W74651  44.009  33.476  13.852
 2227W        W74652  41.381   3.905  10.955
 2228W        W74653   3.722  18.138  14.322
 2229W        W74654  11.129  41.839   0.750
 2230W        W74655   1.793  36.348   5.188
 2231W        W74656  23.107   7.216   3.220
 2232W        W74657  19.672  33.058  12.885
 2233W        W74658  35.433  17.760  12.538
 2234W        W74659  27.147   8.389   3.231
 2235W        W74660  24.045  42.462  11.045
 2236W        W74661  37.519  19.550   3.370
 2237W        W74662  24.711   9.347  11.473
 2238W        W74663  23.576   0.454  12.881
 2239W        W74664   0.479  17.159  13.976
 2240W        W74665  39.364  30.643   4.631
 2241W        W74666  24.505  27.485  12.573
 2242W        W74667  40.543  41.933   4.618
 2243W        W74668   1.775  31.970  11.601
 2244W        W74669   6.766  19.669  13.903
 2245W        W74670  39.429  23.132  14.420
 2246W        W74671   6.744  36.579   0.289
 2247W        W74672   5.830  22.075   4.743
 2248W        W74673  12.312   4.791  14.945
 2249W        W74674  19.271  33.063  12.411
 2250W        W74675  20.125   1.443   4.293
 2251W        W74676  18.685  18.674  13.050
 2252W        W74677  19.743   1.785  13.339
 2253W        W74678  30.478  23.145   2.415
 2254W        W74679  37.970  43.830  11.436
 2255W        W74680  39.510   8.817  11.535
 2256W        W74681  26.137  30.964   2.756
 2257W        W74682  44.827   5.217  11.446
 2258W        W74683  13.749  21.097  12.040
 2259W        W74684  31.123  17.657   2.389
 2260W        W74685   0.848  14.780  11.438
 2261W        W74686  43.435  24.000   0.874
 2262W        W74687  18.781  24.158  14.825
 2263W        W74688  17.151  33.995   1.439
 2264W        W74689   0.939   7.724  13.497
 2265W        W74690   3.426  30.553  14.997
 2266W        W74691  36.942  42.820   0.456
 2267W        W74692  17.603   7.812  12.560
 2268W        W74693  36.415  12.160   1.896
 2269W        W74694  28.651  32.055   1.751
 2270W        W74695  23.540   8.702  11.584
 2271W        W74696  30.602  32.428  10.607
 2272W        W74697  25.048  31.026   3.304
 2273W        W74698  36.558  19.600   1.740
 2274W        W74699   8.203  13.723   4.813
 2275W        W74700  19.138  41.888  14.446
 2276W        W74701  27.054  36.361  13.962
 2277W        W74702  19.279   7.242  11.929
 2278W        W74703   4.853  34.070  14.795
 2279W        W74704  41.454  44.402   0.342
 2280W        W74705  10.233  13.308   5.094
 2281W        W74706  23.730   5.376  11.044
 2282W        W74707   3.756  25.567   3.201
 2283W        W74708  18.652   0.823   5.151
 2284W        W74709  22.196  15.820   2.266
 2285W        W74710  18.147  35.997   0.900
 2286W        W74711  32.400  17.232   3.683
 2287W        W74712   6.340  29.633  14.462
 2288W        W74713  33.915  38.468   3.341
 2289W        W74714   1.382  15.599   0.431
 2290W        W74715  42.401  43.886  12.906
 2291W        W74716  18.247  34.110  13.489
 2292W        W74717   8.762  12.227  11.941
 2293W        W74718  41.347  20.649   3.737
 2294W        W74719  44.818  42.839   4.713
 2295W        W74720  28.582   6.236   4.319
 2296W        W74721  27.049   2.384  10.508
 2297W        W74722  29.633  24.198  14.449
 2298W        W74723  36.046  23.612   2.318
 2299W        W74724   4.732   0.488   4.834
 2300W        W74725  24.989  19.055  13.824
 2301W        W74726  29.015   2.365   1.731
 2302W        W74727  43.917  18.155  12.050
 2303W        W74728  38.063   6.373   1.834
 2304W        W74729  26.653   1.317  11.944
 2305W        W74730  23.549   0.758  12.441
 2306W        W74731  26.967  39.555  11.866
 2307W        W74732   3.233   2.456  14.311
 2308W        W74733  16.143  10.733   0.872
 2309W        W74734   8.251  35.374  11.474
 2310W        W74735  14.792  25.676   0.861
 2311W        W74736  14.206   8.254   4.204
 2312W        W74737   0.895  34.394   5.083
 2313W        W74738  34.050  18.082   1.256
 2314W        W74739  18.283  11.780   1.839
 2315W        W74740  33.880   6.373   2.868
 2316W        W74741  36.045  16.687   4.201
 2317W        W74742   9.884  23.157  13.874
 2318W        W74743  29.133  19.664   2.364
 2319W        W74744  38.460  13.264   1.398
 2320W        W74745  43.433  17.688  12.542
 2321W        W74746  20.607  39.958   2.674
 2322W        W74747  40.999  18.608   4.811
 2323W        W74748  28.988  37.539   3.354
 2324W        W74749  32.117  14.739   0.314
 2325W        W74750  22.054  44.439  11.949
 2326W        W74751  10.319  31.481  13.410
 2327W        W74752  23.683  16.092   3.761
 2328W        W74753   9.161  26.464  13.800
 2329W        W74754   3.771  41.401   1.899
 2330W        W74755  44.476  33.505  12.882
 2331W        W74756  29.993  24.197  10.978
 2332W        W74757  42.878  18.092   3.382
 2333W        W74758  12.246  25.208  10.610
 2334W        W74759  20.244  17.577   3.716
 2335W        W74760  10.847  39.332   4.306
 2336W        W74761   4.371  20.262   3.750
 2337W        W74762  32.996  43.436  14.889
 2338W        W74763  10.282  21.195   4.765
 2339W        W74764  30.926  21.569  12.565
 2340W        W74765  17.578  27.687   1.814
 2341W        W74766  14.337   0.860  10.576
 2342W        W74767   5.318  22.176  12.830
 2343W        W74768  20.612   1.792   2.245
 2344W        W74769  38.422  41.406   0.376
 2345W        W74770  10.809  22.518  11.592
 2346W        W74771  34.458   1.239   4.289
 2347W        W74772  25.170  36.935  12.509
 2348W        W74773   2.353  22.565  12.918
 2349W        W74774   7.174   8.244   3.820
 2350W        W74775   5.317  11.650   2.398
 2351W        W74776   7.749  20.159   1.731
 2352W        W74777  25.689  24.527   0.337
 2353W        W74778   7.671  15.678   1.291
 2354W        W74779  30.461  40.870   3.802
 2355W        W74780   8.371  19.713  12.474
 2356W        W74781  21.216   3.449  12.096
 2357W        W74782  14.666  19.103   2.186
 2358W        W74783  22.732  29.637  10.490
 2359W        W74784  10.666  34.956   3.151
 2360W        W74785  42.858   4.808  12.511
 2361W        W74786  30.421  27.525  10.944
 2362W        W74787  36.519   5.307  11.904
 2363W        W74788  33.957  37.552   3.227
 2364W        W74789  39.055  16.805  13.984
 2365W        W74790  31.552  37.838  13.373
 2366W        W74791  32.086  28.522  12.045
 2367W        W74792  28.468  28.577   0.302
 2368W        W74793  31.630  12.243   4.333
 2369W        W74794  25.598   4.339  13.012
 2370W        W74795  15.135  41.786  10.602
 2371W        W74796  41.446  21.572   4.667
 2372W        W74797   4.712   8.856  14.468
 2373W        W74798  37.977  36.514   0.831
 2374W        W74799   7.818  15.110  14.803
 2375W        W74800  27.538  33.462   4.226
 2376W        W74801  29.945   2.392   3.259
 2377W        W74802  27.476   4.412  10.414
 2378W        W74803  38.436  18.644   2.835
 2379W        W74804  16.301  16.195   2.796
 2380W        W74805  39.517   7.803  11.875
 2381W        W74806  26.524  13.704  12.064
 2382W        W74807  25.536  15.314  13.943
 2383W        W74808  14.155  29.984  13.539
 2384W        W74809   1.360  41.388  10.468
 2385W        W74810  35.515   6.846   2.892
 2386W        W74811  32.420  35.915  14.494
 2387W        W74812  36.900  40.399  13.987
 2388W        W74813  28.023  41.828  12.365
 2389W        W74814  30.433  16.624   1.335
 2390W        W74815  38.931  40.031   4.754
 2391W        W74816  44.937  37.861  13.868
 2392W        W74817  32.617   3.343   0.746
 2393W        W74818  20.120  33.526   1.884
 2394W        W74819   0.909  30.142  12.463
 2395W        W74820  38.921  30.948  13.961
 2396W        W74821  23.704  30.133   0.892
 2397W        W74822   4.718   2.853  13.846
 2398W        W74823  39.019  21.075   0.836
 2399W        W74824   5.215  22.087   0.918
 2400W        W74825   5.419  19.698  13.920
 2401W        W74826  14.169  20.747  11.484
 2402W        W74827   4.327  24.059  14.939
 2403W        W74828  40.868  41.803  14.508
 2404W        W74829  17.204  23.153  14.353
 2405W        W74830   2.754   2.855   0.805
 2406W        W74831  11.764  11.792   1.442
 2407W        W74832  32.028  24.595  12.863
 2408W        W74833  25.600  13.633  12.920
 2409W        W74834  26.698  19.272   3.820
 2410W        W74835  33.055   1.459  14.813
 2411W        W74836  27.109   9.712  12.982
 2412W        W74837   0.448  11.797  12.867
 2413W        W74838  13.283  25.986   1.332
 2414W        W74839  10.700  23.717  14.967
 2415W        W74840  43.334  41.536   4.777
 2416W        W74841   4.816  11.837   3.750
 2417W        W74842  42.819  32.516   1.301
 2418W        W74843  16.767  30.596  10.409
 2419W        W74844  13.602   0.962   2.704
 2420W        W74845  24.208  16.756  12.443
 2421W        W74846  22.075   1.745  13.001
 2422W        W74847   5.873  10.762  11.862
 2423W        W74848  27.996  23.085  11.861
 2424W        W74849  22.199  31.404  12.494
 2425W        W74850  15.178   6.804  13.830
 2426W        W74851   8.746  34.089   3.352
 2427W        W74852  27.517  32.906  12.907
 2428W        W74853  20.183  10.720   3.772
 2429W        W74854  44.974  12.626  11.016
 2430W        W74855  27.526  14.756   4.657
 2431W        W74856  33.587  34.004   3.157
 2432W        W74857  43.402   3.247  10.941
 2433W        W74858  27.958  21.213   3.212
 2434W        W74859  37.988  32.970   3.237
 2435W        W74860  14.330  37.442   1.844
 2436W        W74861  12.308  22.154   3.690
 2437W        W74862  28.563  42.918   0.305
 2438W        W74863   7.778  25.184  10.482
 2439W        W74864   6.908  29.627  11.963
 2440W        W74865  28.162   0.856   0.414
 2441W        W74866  43.971  44.481   0.477
 2442W        W74867  31.146   2.901  12.049
 2443W        W74868  41.462  29.565   2.356
 2444W        W74869  42.837  31.473   3.208
 2445W        W74870   1.299  11.313  12.571
 2446W        W74871  38.454  11.267   1.373
 2447W        W74872  16.130  18.750  14.421
 2448W        W74873  25.641  39.547  12.469
 2449W        W74874  26.042  27.043   2.186
 2450W        W74875  24.641  28.069   4.765
 2451W        W74876  33.618   0.815   3.728
 2452W        W74877  20.666  44.362   4.256
 2453W        W74878  14.705  12.253   1.913
 2454W        W74879   5.276  18.163   3.150
 2455W        W74880  33.395  36.889  12.366
 2456W        W74881  15.084  22.035   0.948
 2457W        W74882   5.358   5.210  10.622
 2458W        W74883  37.471  37.869   3.682
 2459W        W74884  25.195  19.540   0.280
 2460W        W74885  39.385  41.494   2.831
 2461W        W74886  24.011   8.187  13.866
 2462W        W74887  30.030  22.570   4.320
 2463W        W74888  40.949   8.374   3.692
 2464W        W74889  38.507  35.951   3.322
 2465W        W74890  25.124   0.925  12.363
 2466W        W74891  17.676  10.241   2.337
 2467W        W74892  27.541  39.333   2.837
 2468W        W74893  32.951  37.907   3.839
 2469W        W74894  11.244   6.318  14.323
 2470W        W74895  31.102   7.800  10.936
 2471W        W74896  26.557  18.780  13.535
 2472W        W74897  40.910  42.427  13.958
 2473W        W74898  13.191  16.584  11.576
 2474W        W74899  31.603  33.955  10.913
 2475W        W74900  20.200  37.983  14.029
 2476W        W74901  21.563  25.114   1.242
 2477W        W74902   0.484  22.517  12.391
 2478W        W74903  24.212  21.649  14.963
 2479W        W74904  18.245  27.165   3.655
 2480W        W74905   5.252  39.822  10.456
 2481W        W74906  30.644  31.127  11.126
 2482W        W74907   6.702  17.291  10.563
 2483W        W74908   6.419   4.445   1.864
 2484W        W74909   8.861  31.092  13.883
 2485W        W74910  38.517   5.751  12.524
 2486W        W74911  24.592  21.098   3.746
 2487W        W74912  26.584  11.179  11.090
 2488W        W74913  26.546  23.072  14.993
 2489W        W74914  26.014   7.214  12.942
 2490W        W74915  42.431  42.303   0.275
 2491W        W74916  16.188   1.252   3.765
 2492W        W74917  25.069  34.893  14.340
 2493W        W74918   5.781   5.337   2.336
 2494W        W74919   4.259  22.150   2.203
 2495W        W74920  35.383  26.535   2.408
 2496W        W74921  31.506  20.190   3.313
 2497W        W74922   0.264   9.650   0.367
 2498W        W74923  10.244   8.190  11.884
 2499W        W74924   6.200   2.925   0.790
 2500W        W74925  19.042   9.764  13.030
 2501W        W74926   4.776   3.727  12.403
 2502W        W74927  21.043  40.943  11.099
 2503W        W74928   2.317  35.476  13.907
 2504W        W74929  21.032   5.807   2.380
 2505W        W74930  22.139   9.285   2.233
 2506W        W74931  16.807  42.003   0.960
 2507W        W74932  43.794  27.135   3.781
 2508W        W74933  12.622   7.216  13.058
 2509W        W74934   4.388  37.390   0.797
 2510W        W74935  21.094  19.593   3.744
 2511W        W74936   4.786  22.079   1.875
 2512W        W74937   5.307   6.798  11.435
 2513W        W74938  32.581   0.260   2.823
 2514W        W74939  42.320  29.572  12.845
 2515W        W74940  27.061  20.089   2.258
 2516W        W74941  39.917  30.002   2.388
 2517W        W74942  42.802   3.927   4.639
 2518W        W74943  35.908  22.543   4.131
 2519W        W74944  25.540   9.286   0.342
 2520W        W74945  29.014  38.950   0.876
 2521W        W74946  32.557  19.748   0.273
 2522W        W74947   3.246  29.647  11.868
 2523W        W74948  39.936  23.685   2.202
 2524W        W74949   1.445  27.138   4.246
 2525W        W74950  24.027  42.921   1.709
 2526W        W74951  28.019  41.932   3.234
 2527W        W74952  28.954   9.343   1.759
 2528W        W74953  39.455  11.280  14.904
 2529W        W74954  39.333  34.949   3.157
 2530W        W74955  37.519  36.084  11.463
 2531W        W74956  25.199  12.745  10.638
 2532W        W74957   0.762  24.018   2.690
 2533W        W74958   7.784   1.778  13.547
 2534W        W74959   6.855  17.799   1.845
 2535W        W74960  25.543   6.773   3.348
 2536W        W74961  22.007  13.601   1.440
 2537W        W74962   8.671   1.903   0.952
 2538W        W74963  30.106  20.527  14.331
 2539W        W74964  35.034   8.226   2.723
 2540W        W74965  18.224  37.468   4.314
 2541W        W74966  41.030   5.214   4.160
 2542W        W74967  10.742  40.408  11.860
 2543W        W74968  43.508  11.243   0.244
 2544W        W74969  34.441  12.319  12.093
 2545W        W74970  39.487  12.821   2.758
 2546W        W74971   4.795  25.644  13.464
 2547W        W74972  16.234  15.109  13.508
 2548W        W74973  27.193  23.719  11.922
 2549W        W74974  35.992  40.412   0.788
 2550W        W74975  41.395  16.155  12.835
 2551W        W74976  10.331   8.783  11.390
 2552W        W74977  31.592  38.327   4.717
 2553W        W74978  35.072  31.437  14.940
 2554W        W74979  29.078  43.472  11.872
 2555W        W74980  18.247   9.743  12.916
 2556W        W74981  14.314  29.570  11.539
 2557W        W74982  33.586  40.048   1.889
 2558W        W74983  14.257  20.669   4.297
 2559W        W74984  13.834  31.599  12.550
 2560W        W74985   1.959  39.480   3.285
 2561W        W74986  26.196   5.699  12.420
 2562W        W74987  12.307   4.755   0.430
 2563W        W74988  28.448  39.538  12.988
 2564W        W74989  36.020  22.216   1.809
 2565W        W74990  38.944  19.131  10.961
 2566W        W74991  23.611   5.314   0.917
 2567W        W74992  32.940  10.263   3.710
 2568W        W74993  30.952  40.337  14.498
 2569W        W74994  14.126   3.220   1.430
 2570W        W74995  36.968  17.628  11.102
 2571W        W74996   9.698  26.588  13.311
 2572W        W74997  22.601  42.846  12.862
 2573W        W74998  41.326  22.252   2.393
 2574W        W74999  32.062  16.742   1.765
 2575W        W75000  24.664   4.941  10.061
 2576W        W75001  42.808  41.444   2.210
 2577W        W75002  33.945  22.039   1.748
 2578W        W75003  38.835  22.159   4.217
 2579W        W75004  20.129   1.826   2.220
 2580W        W75005  17.241   3.434   0.781
 2581W        W75006  41.332   4.856   1.921
 2582W        W75007  32.109  42.371   4.681
 2583W        W75008  12.360  42.324  10.916
 2584W        W75009  17.296  34.401  10.610
 2585W        W75010  15.310   4.729   1.870
 2586W        W75011  37.409  30.081   1.738
 2587W        W75012  20.704  11.363   2.194
 2588W        W75013  25.560   9.220  12.340
 2589W        W75014   3.261   0.259  10.638
 2590W        W75015  31.648   9.785   0.391
 2591W        W75016  41.971  35.598   3.227
 2592W        W75017  28.953  30.587   2.406
 2593W        W75018   1.799  33.994   3.201
 2594W        W75019  29.434   8.356  11.431
 2595W        W75020  40.897   8.342  12.035
 2596W        W75021  29.478  38.916   2.304
 2597W        W75022  16.288   1.936  12.402
 2598W        W75023   7.291  30.001  13.537
 2599W        W75024  36.949   3.452   2.796
 2600W        W75025  10.184   3.404  12.911
 2601W        W75026  34.526  25.572  14.918
 2602W        W75027  19.103   2.449   2.666
 2603W        W75028  37.580  15.589   3.651
 2604W        W75029  16.296  34.863  11.581
 2605W        W75030  25.213  10.722  10.480
 2606W        W75031   8.280  40.312  12.951
 2607W        W75032  28.637  44.793  11.108
 2608W        W75033  22.580  25.566   0.480
 2609W        W75034  44.807  21.099   2.708
 2610W        W75035  11.858   2.725   3.803
 2611W        W75036  13.605  19.679  14.354
 2612W        W75037  32.951  33.518  10.616
 2613W        W75038  11.823  42.892   2.225
 2614W        W75039  18.601  12.184   4.706
 2615W        W75040  34.867   1.306   2.732
 2616W        W75041  24.545  15.249   3.769
 2617W        W75042  10.335  10.185  14.879
 2618W        W75043  21.022   4.250   2.360
 2619W        W75044  31.986  15.278  11.442
 2620W        W75045  16.687   5.334  14.313
 2621W        W75046  10.685  39.319  14.402
 2622W        W75047  40.849  20.212  14.491
 2623W        W75048  24.110   6.207  10.586
 2624W        W75049  36.494   4.281  13.424
 2625W        W75050   6.732   5.915   0.945
 2626W        W75051   4.732  21.515  11.104
 2627W        W75052   3.802   8.747  14.884
 2628W        W75053  38.948  26.481   2.800
 2629W        W75054  26.090  10.744  11.127
 2630W        W75055  32.013  35.097   3.754
 2631W        W75056   9.313  36.040  14.433
 2632W        W75057  20.546  40.975   1.446
 2633W        W75058  22.114  30.652  14.370
 2634W        W75059  13.295   4.906   3.328
 2635W        W75060  15.254  21.525   1.807
 2636W        W75061  16.078   2.775   0.316
 2637W        W75062  16.711  14.105  10.964
 2638W        W75063  42.462  41.826  14.360
 2639W        W75064  33.076  33.030   4.642
 2640W        W75065  12.791  29.536  11.553
 2641W        W75066  11.628  26.007  10.595
 2642W        W75067  24.083  30.551  13.857
 2643W        W75068   3.812   8.286   4.732
 2644W        W75069  15.789   0.988  10.603
 2645W        W75070  26.048   3.442  12.382
 2646W        W75071  38.830  38.330   0.910
 2647W        W75072   6.812   6.346   2.785
 2648W        W75073   2.952  32.927   4.712
 2649W        W75074   0.799  25.549  14.881
 2650W        W75075  19.165  21.583   0.419
 2651W        W75076   8.742  17.220   0.428
 2652W        W75077  38.845  29.974   3.217
 2653W        W75078  44.941  17.278  13.958
 2654W        W75079  12.623  28.161   4.816
 2655W        W75080   3.818  40.891   3.867
 2656W        W75081   9.162  38.884  14.010
 2657W        W75082  16.635  32.014  13.389
 2658W        W75083  25.044  10.250  14.858
 2659W        W75084  32.523   0.970  11.038
 2660W        W75085  20.528  19.079  12.388
 2661W        W75086  34.530  11.686  13.492
 2662W        W75087  17.613  37.947   4.694
 2663W        W75088  14.707  42.797   2.678
 2664W        W75089  21.689  12.825   3.168
 2665W        W75090   4.246  25.190   4.631
 2666W        W75091  39.402  35.577  13.467
 2667W        W75092  21.716  44.405  13.865
 2668W        W75093  11.819   7.406   0.862
 2669W        W75094  21.076  34.086   3.756
 2670W        W75095  29.663  38.349  10.592
 2671W        W75096  36.972  13.685   2.242
 2672W        W75097  33.429   9.646   2.857
 2673W        W75098   1.299  13.648   1.423
 2674W        W75099  21.611   7.385   1.779
 2675W        W75100  19.257  25.698   1.262
 2676W        W75101  39.433  13.677  11.447
 2677W        W75102  24.224  23.545  13.449
 2678W        W75103  10.383  34.380   0.482
 2679W        W75104  24.521  23.190  14.973
 2680W        W75105  26.183  21.569  14.471
 2681W        W75106  10.153  37.027   3.288
 2682W        W75107   0.425  19.109  13.956
 2683W        W75108  41.920  33.449  12.921
 2684W        W75109  43.009  30.955  12.030
 2685W        W75110   9.834  16.250   2.412
 2686W        W75111  37.559   6.376  13.910
 2687W        W75112  36.982  30.961  10.480
 2688W        W75113  21.242  20.046   1.879
 2689W        W75114  18.642   0.315   4.284
 2690W        W75115   3.734  14.112   2.270
 2691W        W75116  26.020  14.804  13.964
 2692W        W75117  33.505  26.072   1.348
 2693W        W75118  37.528   7.300  10.023
 2694W        W75119  23.579   0.383   0.848
 2695W        W75120   3.299  40.345  12.565
 2696W        W75121   5.208   1.871   4.181
 2697W        W75122   8.301  16.760  10.907
 2698W        W75123   0.418   3.871  11.077
 2699W        W75124  36.933   7.756   2.337
 2700W        W75125   0.391  29.589   4.781
 2701W        W75126  44.908  42.402  14.998
 2702W        W75127  37.573  16.567  10.482
 2703W        W75128  41.031   3.917   0.440
 2704W        W75129   2.411  38.075  10.595
 2705W        W75130  37.897  15.188  14.461
 2706W        W75131   1.828  25.651   2.397
 2707W        W75132  42.947  35.489  12.886
 2708W        W75133  27.003  42.347  13.047
 2709W        W75134  30.148  16.074  12.442
 2710W        W75135  14.619  26.522   1.237
 2711W        W75136  36.870   3.255  11.602
 2712W        W75137  44.757  15.212  14.439
 2713W        W75138  30.987  31.635   1.803
 2714W        W75139   8.330  24.676  14.389
 2715W        W75140  13.606  21.615   1.822
 2716W        W75141  13.322  27.478  12.547
 2717W        W75142  17.180  33.519  10.995
 2718W        W75143  22.537  24.123   3.215
 2719W        W75144  29.044   3.249   1.738
 2720W        W75145  17.126  10.305   4.296
 2721W        W75146  35.599  30.936   3.174
 2722W        W75147  37.519  33.954  12.970
 2723W        W75148   0.250  40.314  12.552
 2724W        W75149  23.105  35.421   1.763
 2725W        W75150   9.275   2.888  12.431
 2726W        W75151  10.662  23.560   0.291
 2727W        W75152  35.923  13.312  11.392
 2728W        W75153   0.747   3.879   3.816
 2729W        W75154  23.054  38.340   0.414
 2730W        W75155  22.229  16.189   0.858
 2731W        W75156  22.609  22.618   1.813
 2732W        W75157  28.087  37.832   1.243
 2733W        W75158   8.676   2.445  14.451
 2734W        W75159   5.767  35.896   2.277
 2735W        W75160   0.758  39.373   0.327
 2736W        W75161  31.917   3.441  12.903
 2737W        W75162  10.716  33.078   1.727
 2738W        W75163   2.259   6.328   2.726
 2739W        W75164   8.796  14.179  14.351
 2740W        W75165  30.073  28.002   0.349
 2741W        W75166  31.969  15.766   4.192
 2742W        W75167  12.740  43.308   2.848
 2743W        W75168  28.615  24.200  11.389
 2744W        W75169  14.821  40.851   3.253
 2745W        W75170  24.491   5.267  10.545
 2746W        W75171  37.028  19.113  13.352
 2747W        W75172  25.508   5.193   4.186
 2748W        W75173  15.217  23.560  13.801
 2749W        W75174  25.701  33.620   2.663
 2750W        W75175  32.056  42.844  10.974
 2751W        W75176  11.158   9.661   3.786
 2752W        W75177  21.153  16.582  14.336
 2753W        W75178  27.023   4.357  10.555
 2754W        W75179  20.524  19.750   0.848
 2755W        W75180   7.285  21.243  11.994
 2756W        W75181   8.717  38.510  13.324
 2757W        W75182  32.102   9.173   2.792
 2758W        W75183  43.900  42.350  10.570
 2759W        W75184  24.571  40.049  12.823
 2760W        W75185   6.222  39.410  14.888
 2761W        W75186  39.350  30.907  11.591
 2762W        W75187  24.590  12.856   4.143
 2763W        W75188  17.644   3.806  14.799
 2764W        W75189  28.025  37.445   2.210
 2765W        W75190   7.812  44.807   3.183
 2766W        W75191  34.482   5.386   2.898
 2767W        W75192  25.153  30.065   3.324
 2768W        W75193   3.709  11.278  13.941
 2769W        W75194  28.671  17.762   0.919
 2770W        W75195   8.817  44.287  11.999
 2771W        W75196   8.186   9.822  13.800
 2772W        W75197   7.676  33.950   2.251
 2773W        W75198  42.858  11.841   4.643
 2774W        W75199  25.000  16.725   3.192
 2775W        W75200  35.004  26.585   9.950
 2776W        W75201   2.914  38.490  10.547
 2777W        W75202  44.872  22.048   3.283
 2778W        W75203   2.948  10.856  11.417
 2779W        W75204  41.394  24.528  12.877
 2780W        W75205  42.820  11.813  12.964
 2781W        W75206   4.827   6.820   2.741
 2782W        W75207  24.702  44.385   2.774
 2783W        W75208  15.150  42.352  13.355
 2784W        W75209  20.751  11.748  10.137
 2785W        W75210  31.642  16.149   4.688
 2786W        W75211   2.360   2.907  14.808
 2787W        W75212  31.964   0.964   4.300
 2788W        W75213  22.161  19.117  13.340
 2789W        W75214  19.546  20.115  12.082
 2790W        W75215  29.972  40.427  10.588
 2791W        W75216  37.507   1.391   4.253
 2792W        W75217  34.903  40.435   1.449
 2793W        W75218   9.753  35.015  13.982
 2794W        W75219  34.062  10.792  11.898
 2795W        W75220  28.656   2.965   3.839
 2796W        W75221   9.727  33.930  14.367
 2797W        W75222  12.145   7.716  14.953
 2798W        W75223   4.352   5.434   2.369
 2799W        W75224   4.793   5.266  12.089
 2800W        W75225  41.925  42.868   9.948
 2801W        W75226  36.038  13.611   2.806
 2802W        W75227  21.182  40.540   4.719
 2803W        W75228  40.523  21.087  11.864
 2804W        W75229  35.067  38.421  14.817
 2805W        W75230  11.866  16.142  12.030
 2806W        W75231  33.533  26.104  13.380
 2807W        W75232  18.248  32.025  10.911
 2808W        W75233  35.577  20.735  10.576
 2809W        W75234  44.995  25.028  12.521
 2810W        W75235  14.834  25.572  12.430
 2811W        W75236  39.952  33.488  12.486
 2812W        W75237  27.658  37.069  11.101
 2813W        W75238  27.690  30.910  14.495
 2814W        W75239  17.796  34.454   2.711
 2815W        W75240  38.497  33.544   1.743
 2816W        W75241  30.097  34.397  11.897
 2817W        W75242  39.482  28.591   3.312
 2818W        W75243  24.525  35.470  10.435
 2819W        W75244  37.352  33.626   4.788
 2820W        W75245  34.060  40.875  13.368
 2821W        W75246   2.287  16.659  11.605
 2822W        W75247  26.460  30.937  14.915
 2823W        W75248  24.128  42.285  12.421
 2824W        W75249  21.205  34.405  14.426
 2825W        W75250  10.729  18.757  11.983
 2826W        W75251  18.139  36.973   4.247
 2827W        W75252  24.019  24.505  14.461
 2828W        W75253  29.989  24.057  13.891
 2829W        W75254   3.329  23.162   1.358
 2830W        W75255   8.348  32.077   0.938
 2831W        W75256  27.654  31.609   2.718
 2832W        W75257  15.229  44.401  11.560
 2833W        W75258   0.464   2.294  13.040
 2834W        W75259  34.373  24.532  14.418
 2835W        W75260  33.618   8.876   2.849
 2836W        W75261  27.647  14.200  10.903
 2837W        W75262  41.306  25.099  10.963
 2838W        W75263  10.162  38.482   2.681
 2839W        W75264  29.605  17.196  13.801
 2840W        W75265  34.109  14.269   1.737
 2841W        W75266   7.729  32.071  10.030
 2842W        W75267  33.519  33.459  14.300
 2843W        W75268  38.030   1.935   9.967
 2844W        W75269  28.961  38.849  10.483
 2845W        W75270  42.022  36.860  14.434
 2846W        W75271  13.255  27.520  14.031
 2847W        W75272   9.341  15.752  12.520
 2848W        W75273  22.187  21.218   2.885
 2849W        W75274  27.529   9.274   2.419
 2850W        W75275  29.455  23.218  14.282
 2851W        W75276  35.498   4.393  11.518
 2852W        W75277  16.746  10.363   1.276
 2853W        W75278  30.963   3.402  14.448
 2854W        W75279  28.138  37.488  11.473
 2855W        W75280  34.447  21.640  13.917
 2856W        W75281  30.598  23.707  12.902
 2857W        W75282  33.116  16.170   4.765
 2858W        W75283  20.645   4.892   1.447
 2859W        W75284  12.272  39.886   2.853
 2860W        W75285   4.728   0.766   4.776
 2861W        W75286  37.983  30.147   0.810
 2862W        W75287   7.818   1.849  13.932
 2863W        W75288  35.097  19.548   9.982
 2864W        W75289  34.998  40.944  14.964
 2865W        W75290  29.476  11.857   1.914
 2866W        W75291  37.917  21.707  11.886
 2867W        W75292  18.615   3.723  12.050
 2868W        W75293   5.237   5.396   4.814
 2869W        W75294  34.446  18.666   0.814
 2870W        W75295  19.701  27.138  14.457
 2871W        W75296  39.475  31.628  11.877
 2872W        W75297   3.369  29.163  10.938
 2873W        W75298   4.325   0.436   2.246
 2874W        W75299  34.077  11.754  10.464
 2875W        W75300  31.501  43.779  14.460
 2876W        W75301  38.074  17.134   2.327
 2877W        W75302  19.725   7.797  11.865
 2878W        W75303  38.009  34.563  14.771
 2879W        W75304  32.092   0.820  14.289
 2880W        W75305  31.097   6.774   4.267
 2881W        W75306  20.216  38.864   4.817
 2882W        W75307  39.832  36.552   1.364
 2883W        W75308  36.591  41.954  10.997
 2884W        W75309  44.816   3.260  12.845
 2885W        W75310   1.760   9.281   1.704
 2886W        W75311  13.681  43.391   0.883
 2887W        W75312  44.437  13.734   1.286
 2888W        W75313  15.776   3.225  14.785
 2889W        W75314  32.917  29.943  11.962
 2890W        W75315   9.198  43.453  13.332
 2891W        W75316  31.594  42.489   3.376
 2892W        W75317   3.749  28.518   4.301
 2893W        W75318  21.214  20.533   4.650
 2894W        W75319  14.196  30.619  12.064
 2895W        W75320  20.582  24.503   3.280
 2896W        W75321  20.162  37.966  12.428
 2897W        W75322   3.311  12.362  11.056
 2898W        W75323  43.395  12.286   0.326
 2899W        W75324  28.963  23.551   4.636
 2900W        W75325  21.255   5.284   0.354
 2901W        W75326  25.539  38.473   0.800
 2902W        W75327  22.150  22.716   2.290
 2903W        W75328  43.948  39.979   2.394
 2904W        W75329  35.437  10.155   0.844
 2905W        W75330  34.400  33.467  12.946
 2906W        W75331  17.757   2.756  12.419
 2907W        W75332  22.121  18.554  12.009
 2908W        W75333  18.556  16.124  14.435
 2909W        W75334  30.651  14.284  13.898
 2910W        W75335  28.960  28.567   2.755
 2911W        W75336  29.613  39.441   9.924
 2912W        W75337  12.829  21.195   4.217
 2913W        W75338   7.192  41.359  12.535
 2914W        W75339  20.189  42.867   1.875
 2915W        W75340  22.591  38.514   4.814
 2916W        W75341   3.929  32.613   0.381
 2917W        W75342  22.014   8.866  10.550
 2918W        W75343  29.070  41.868   4.305
 2919W        W75344   0.394  39.355   2.707
 2920W        W75345  11.318  12.172   2.190
 2921W        W75346  43.010  17.678  11.609
 2922W        W75347   5.252  13.167  13.003
 2923W        W75348  10.687  16.696   1.856
 2924W        W75349   5.257  17.215   4.219
 2925W        W75350  21.667  14.330   1.725
 2926W        W75351   2.299  30.994   1.778
 2927W        W75352   3.785  41.420   2.697
 2928W        W75353  37.025   9.287  14.882
 2929W        W75354  40.885   0.842   0.855
 2930W        W75355  24.125  39.433   0.296
 2931W        W75356  19.215  21.727  13.431
 2932W        W75357  40.037  20.721   9.666
 2933W        W75358  18.188  28.045  14.323
 2934W        W75359  25.617  18.223   0.372
 2935W        W75360  22.205  28.556  13.523
 2936W        W75361   8.308  11.308  12.351
 2937W        W75362   4.785  22.075  10.070
 2938W        W75363  16.215  37.042   3.335
 2939W        W75364  11.208  28.513  14.026
 2940W        W75365  24.664  34.485  14.333
 2941W        W75366   0.918   9.229  11.885
 2942W        W75367  15.682  23.623  10.518
 2943W        W75368  28.991  17.732  12.984
 2944W        W75369  27.574  33.106   3.684
 2945W        W75370  39.908  25.664   4.341
 2946W        W75371  35.964   0.810   0.770
 2947W        W75372  28.481  44.461  11.957
 2948W        W75373  18.750  12.300   0.877
 2949W        W75374  28.483  15.791  14.322
 2950W        W75375  36.497   6.707   3.803
 2951W        W75376  41.794  42.857  11.908
 2952W        W75377  36.422  16.124   1.885
 2953W        W75378  16.169  24.586   0.443
 2954W        W75379   9.873   1.959   3.850
 2955W        W75380  25.541  17.159  11.596
 2956W        W75381  44.812  44.487  13.515
 2957W        W75382  40.536  26.662   4.278
 2958W        W75383   2.353  39.546   0.961
 2959W        W75384  37.493  23.702  12.065
 2960W        W75385   2.265   7.188   0.267
 2961W        W75386  16.291  38.375  14.479
 2962W        W75387   7.903  19.236  12.845
 2963W        W75388  11.230  32.093   2.272
 2964W        W75389  37.358   0.382  11.908
 2965W        W75390   5.343   6.193   3.254
 2966W        W75391  28.507   4.267  14.940
 2967W        W75392   1.863   0.883  14.464
 2968W        W75393  42.425  27.661   2.793
 2969W        W75394  11.688   9.839  11.904
 2970W        W75395   0.395  11.695   3.849
 2971W        W75396  11.856   1.778   2.729
 2972W        W75397  29.094  36.506  11.402
 2973W        W75398  26.539  22.715  14.855
 2974W        W75399  37.960  36.523  14.943
 2975W        W75400  39.424   0.848  14.276
 2976W        W75401  13.206  38.391  10.407
 2977W        W75402  12.705  33.933  13.432
 2978W        W75403  28.575  22.566   1.840
 2979W        W75404  16.811  14.293   0.958
 2980W        W75405  20.654   2.849  12.530
 2981W        W75406   4.735   8.800  14.778
 2982W        W75407  43.452  15.177  13.469
 2983W        W75408  10.686  20.670  11.569
 2984W        W75409  20.171  29.656  14.413
 2985W        W75410  38.565  11.830  12.861
 2986W        W75411  36.062  43.482  14.003
 2987W        W75412  26.022   2.947  14.391
 2988W        W75413  20.676  15.161  11.911
 2989W        W75414  28.487  22.231   0.473
 2990W        W75415   9.257  42.346   1.446
 2991W        W75416  18.762  20.245   0.435
 2992W        W75417  36.868  28.457  13.817
 2993W        W75418  13.679  18.184  14.505
 2994W        W75419   5.835  39.844  11.921
 2995W        W75420   2.408  34.057   3.343
 2996W        W75421  11.810   4.730  10.622
 2997W        W75422   8.877  16.673   0.316
 2998W        W75423  26.536  13.213  10.433
 2999W        W75424  31.002  12.287   4.339
 3000W        W75425  31.954  26.184   0.344
 3001W        W75426  24.228   3.358   3.687
 3002W        W75427  10.833   5.341   0.373
 3003W        W75428  35.577   3.325  11.431
 3004W        W75429  18.234   7.375  12.364
 3005W        W75430  21.513  41.916   1.796
 3006W        W75431  16.241  15.200   3.307
 3007W        W75432  23.042  31.021   0.394
 3008W        W75433  29.457  35.382   3.809
 3009W        W75434  40.910  37.989  14.397
 3010W        W75435  26.510  26.558   1.224
 3011W        W75436  43.775  42.926   1.383
 3012W        W75437  37.479  19.619   3.761
 3013W        W75438   3.313   8.166   3.155
 3014W        W75439  16.764  11.771  12.347
 3015W        W75440  39.518   4.358  14.937
 3016W        W75441  43.013  44.460  12.365
 3017W        W75442  29.517  16.168  11.508
 3018W        W75443   6.791  22.228  13.023
 3019W        W75444  31.061   2.296  13.939
 3020W        W75445  24.561  30.952  13.025
 3021W        W75446  10.784  20.594  12.017
 3022W        W75447  43.791   0.974   4.217
 3023W        W75448  35.494  11.862  10.417
 3024W        W75449  19.624   5.712  12.517
 3025W        W75450  10.710  20.229   0.299
 3026W        W75451  35.885   7.718   2.315
 3027W        W75452  33.580  27.537  10.624
 3028W        W75453  16.195   4.250   1.762
 3029W        W75454  33.057  30.972   0.444
 3030W        W75455   1.778  38.488   4.797
 3031W        W75456  24.996  26.583   4.214
 3032W        W75457  41.840  37.072   4.673
 3033W        W75458  41.456  20.168  13.396
 3034W        W75459  24.608   4.376  11.102
 3035W        W75460  27.641  31.081   1.247
 3036W        W75461  26.505  39.539  14.340
 3037W        W75462  17.291  19.048   1.740
 3038W        W75463  21.602  32.992   0.320
 3039W        W75464   8.761  42.013   2.836
 3040W        W75465  20.751  17.078  11.468
 3041W        W75466  15.085  20.107  10.934
 3042W        W75467  18.256  29.430   1.755
 3043W        W75468  17.306  11.142  13.847
 3044W        W75469  30.522   3.419  11.502
 3045W        W75470   5.215  11.636  12.441
 3046W        W75471  38.929  22.512  11.954
 3047W        W75472  15.619   8.384  12.527
 3048W        W75473  30.040  23.611  13.460
 3049W        W75474  33.427  29.476  14.453
 3050W        W75475   0.309  42.326  13.376
 3051W        W75476  29.630   2.790   3.324
 3052W        W75477  12.318  37.862   2.791
 3053W        W75478   2.942  16.573  12.519
 3054W        W75479  32.001  25.655  10.417
 3055W        W75480  25.573  13.619   3.153
 3056W        W75481  19.106  39.920  11.069
 3057W        W75482  30.994  30.054   0.867
 3058W        W75483  34.405   4.827   2.235
 3059W        W75484  43.412  18.784  11.589
 3060W        W75485  20.541   1.914  12.086
 3061W        W75486  40.528  30.656   3.834
 3062W        W75487   4.325  40.945  11.975
 3063W        W75488   6.371  15.656  12.528
 3064W        W75489   6.709   3.280   2.824
 3065W        W75490  37.397   1.476  11.905
 3066W        W75491   8.698  24.586  12.010
 3067W        W75492   2.455  23.235  13.940
 3068W        W75493  43.508  35.008  13.345
 3069W        W75494  34.985   3.782  10.988
 3070W        W75495  42.382  33.957  11.589
 3071W        W75496  10.278  10.178   0.262
 3072W        W75497  43.382   9.664   2.382
 3073W        W75498  42.427  19.143  11.390
 3074W        W75499  30.637  30.619   4.151
 3075W        W75500  22.118  29.013  14.509
 3076W        W75501   9.652  12.804   1.388
 3077W        W75502   2.854  33.890   4.263
 3078W        W75503  31.121  13.667  11.395
 3079W        W75504   8.393  30.088   3.240
 3080W        W75505  20.111  40.956  13.441
 3081W        W75506  30.558  34.085  11.545
 3082W        W75507  24.122  29.079   2.265
 3083W        W75508   5.370  20.557  10.568
 3084W        W75509  40.041  21.514  13.521
 3085W        W75510  24.997  39.893  13.505
 3086W        W75511  44.404  33.049   1.705
 3087W        W75512   2.721  12.827   4.831
 3088W        W75513  33.390  40.838   3.347
 3089W        W75514  24.497  18.089   2.289
 3090W        W75515   6.704  39.873   0.413
 3091W        W75516  20.266  39.052   3.674
 3092W        W75517  23.052   5.289   2.817
 3093W        W75518   3.455  19.723   2.758
 3094W        W75519  39.950  42.929  12.572
 3095W        W75520  14.133  30.109   0.377
 3096W        W75521  40.881   8.220  13.494
 3097W        W75522  40.547  33.384   9.989
 3098W        W75523  23.027  10.756   2.755
 3099W        W75524   3.899   0.430   1.926
 3100W        W75525  37.479  17.180   2.271
 3101W        W75526  44.965  35.461   2.303
 3102W        W75527  34.377  10.810  13.345
 3103W        W75528   3.230  35.439  11.436
 3104W        W75529  26.952  39.832  10.584
 3105W        W75530  18.226   4.712  13.891
 3106W        W75531  21.139  30.933  12.024
 3107W        W75532   9.206  34.447   1.888
 3108W        W75533  28.560  22.660   3.751
 3109W        W75534  40.485  30.028   1.214
 3110W        W75535   2.932  38.439   2.714
 3111W        W75536  22.226   1.333  14.373
 3112W        W75537  26.080   2.898  14.793
 3113W        W75538  20.265  23.990  12.004
 3114W        W75539  16.668  37.429   3.706
 3115W        W75540  30.603  18.105  10.549
 3116W        W75541  24.090  39.866   4.621
 3117W        W75542  42.887  21.217   3.657
 3118W        W75543  18.062  32.908  14.485
 3119W        W75544  20.214  29.082  14.956
 3120W        W75545  20.619  16.283  11.588
 3121W        W75546   8.714   7.702   1.839
 3122W        W75547  41.525   8.220   4.784
 3123W        W75548  36.591  27.187   2.306
 3124W        W75549  24.487  28.494   4.265
 3125W        W75550  17.093  14.758   1.253
 3126W        W75551   1.759   5.713   0.276
 3127W        W75552   4.264  18.557   3.726
 3128W        W75553  41.985  41.349  11.388
 3129W        W75554  33.497  29.618  11.597
 3130W        W75555  42.932   0.479  11.097
 3131W        W75556  34.438  35.023  10.521
 3132W        W75557   3.924  39.475  14.484
 3133W        W75558  10.822  44.883   2.887
 3134W        W75559   1.847   1.843  14.898
 3135W        W75560  17.276  23.184  13.838
 3136W        W75561   0.416  22.057  10.910
 3137W        W75562  23.659  28.153  13.867
 3138W        W75563  29.984  14.757  12.577
 3139W        W75564  21.575   4.275   2.348
 3140W        W75565   1.239  25.169  13.929
 3141W        W75566  21.675  11.128   3.349
 3142W        W75567  43.831  34.470   1.856
 3143W        W75568  12.779  21.696   3.776
 3144W        W75569  17.195  17.168  14.785
 3145W        W75570  10.193  16.134  11.607
 3146W        W75571  41.364  20.555   1.238
 3147W        W75572  25.200  25.619   2.820
 3148W        W75573  11.157  39.516   4.740
 3149W        W75574  30.971  33.436  13.824
 3150W        W75575  32.084  21.726   3.360
 3151W        W75576  17.666  15.181  11.908
 3152W        W75577   7.246  33.068   1.932
 3153W        W75578   5.421   5.378   1.310
 3154W        W75579  26.138  35.535  13.991
 3155W        W75580  25.689   4.250  10.449
 3156W        W75581  27.024  26.176  12.993
 3157W        W75582  23.723  12.153   4.270
 3158W        W75583  37.524  31.957  12.417
 3159W        W75584  22.575  18.559  12.353
 3160W        W75585  43.493  28.449  11.880
 3161W        W75586  35.528  11.282  14.307
 3162W        W75587   6.242  25.504  11.967
 3163W        W75588  18.708  19.275  13.470
 3164W        W75589  32.602  38.554  14.439
 3165W        W75590  39.490  21.033  13.431
 3166W        W75591  27.182  20.252   4.280
 3167W        W75592  15.747  17.123  13.376
 3168W        W75593  29.632   1.817  12.344
 3169W        W75594  36.015   1.749   2.294
 3170W        W75595  26.681  30.501  12.034
 3171W        W75596  19.196  38.457  12.356
 3172W        W75597  22.570  28.952   3.728
 3173W        W75598  43.996  40.498   3.334
 3174W        W75599  36.583   4.733   5.147
 3175W        W75600  14.758  29.015  11.008
 3176W        W75601  37.496  28.660  11.904
 3177W        W75602  28.581  22.143   3.750
 3178W        W75603  30.416   4.796   2.323
 3179W        W75604  16.737  13.780  10.413
 3180W        W75605  37.067  28.021  12.043
 3181W        W75606   1.242  15.700  13.858
 3182W        W75607  38.546  30.523  11.044
 3183W        W75608  31.120  40.808   4.743
 3184W        W75609  34.488  37.009   1.933
 3185W        W75610  19.149  11.694   3.295
 3186W        W75611  36.410  24.180  12.912
 3187W        W75612  25.056  18.181   3.856
 3188W        W75613  40.850  31.052   2.258
 3189W        W75614   0.461   7.330   2.229
 3190W        W75615  33.107  31.900  12.427
 3191W        W75616  23.718   5.804  11.459
 3192W        W75617  11.782  18.705   4.312
 3193W        W75618  38.989  43.457  13.843
 3194W        W75619   8.681  14.290   5.214
 3195W        W75620   0.950  32.134  11.011
 3196W        W75621  26.047  28.604   0.854
 3197W        W75622  35.540  43.014  12.532
 3198W        W75623  21.629  11.660   2.763
 3199W        W75624  29.027   8.206  11.006
 3200W        W75625  24.176  28.161  12.360
 3201W        W75626  37.043   4.234   3.207
 3202W        W75627   8.306  41.476  11.388
 3203W        W75628  15.595  28.633   0.958
 3204W        W75629   6.342  30.436   9.934
 3205W        W75630  16.811   3.794   4.328
 3206W        W75631  27.462  37.987  13.891
 3207W        W75632  21.529  20.069   3.702
 3208W        W75633  10.849  20.183  13.374
 3209W        W75634  30.521  34.485  11.421
 3210W        W75635  18.247  28.523  14.935
 3211W        W75636  34.454  35.947  14.004
 3212W        W75637   0.860  14.711  13.912
 3213W        W75638  30.586  21.157   2.706
 3214W        W75639  30.012  17.600   0.878
 3215W        W75640   5.746  16.244   0.388
 3216W        W75641   2.261  24.699  14.001
 3217W        W75642  12.737  29.997   3.696
 3218W        W75643  36.978  32.000   2.217
 3219W        W75644  37.436  43.929  11.480
 3220W        W75645  33.095  31.120   4.685
 3221W        W75646  34.031  38.352  11.477
 3222W        W75647  38.427  15.292   0.935
 3223W        W75648  29.083   3.297  14.505
 3224W        W75649  35.910  17.072   3.163
 3225W        W75650   2.330  42.338  11.539
 3226W        W75651   1.238  36.979   3.816
 3227W        W75652  14.676  33.096   5.162
 3228W        W75653  30.933  13.321  10.458
 3229W        W75654  24.614   1.304  11.409
 3230W        W75655   5.417  33.380  11.098
 3231W        W75656  18.754   9.725   3.737
 3232W        W75657  44.481  24.637   1.374
 3233W        W75658  15.626  15.216   0.755
 3234W        W75659  34.059   1.385   2.876
 3235W        W75660   5.312  13.188   0.943
 3236W        W75661   2.291  27.620   4.231
 3237W        W75662  44.981  17.698  12.500
 3238W        W75663  43.404  39.541   3.172
 3239W        W75664   5.767  30.923   2.304
 3240W        W75665   7.868  23.645  13.311
 3241W        W75666  35.503  25.607   2.397
 3242W        W75667  10.667   1.913  13.816
 3243W        W75668  40.010  32.105   1.351
 3244W        W75669  34.436  41.911   0.911
 3245W        W75670  30.949  34.907  11.559
 3246W        W75671  29.576  27.134  14.321
 3247W        W75672  22.240  44.391   0.882
 3248W        W75673  31.452  19.633  13.461
 3249W        W75674   4.901   5.696   4.693
 3250W        W75675  38.379  37.360   3.660
 3251W        W75676  38.505  33.572   3.858
 3252W        W75677  19.220  36.499  11.426
 3253W        W75678  21.587  22.556  13.846
 3254W        W75679   3.857  40.897  14.452
 3255W        W75680  26.153   8.226   0.322
 3256W        W75681  31.040   4.304   2.843
 3257W        W75682  28.624   3.804  14.384
 3258W        W75683  12.726  11.862  12.090
 3259W        W75684  19.609  19.664   3.704
 3260W        W75685  18.596   1.803   0.458
 3261W        W75686  24.138   7.744  14.917
 3262W        W75687  33.095  30.917   2.347
 3263W        W75688   9.291  17.198  14.923
 3264W        W75689   6.260  21.235  10.583
 3265W        W75690   0.306  37.905   4.719
 3266W        W75691  20.058  27.180   1.320
 3267W        W75692  19.165  17.132   4.654
 3268W        W75693  33.602   3.379   1.923
 3269W        W75694  30.429  44.878  10.462
 3270W        W75695  32.917  44.433   2.749
 3271W        W75696  24.127  14.724   0.242
 3272W        W75697  39.869  32.604   2.889
 3273W        W75698   0.399   0.353   4.174
 3274W        W75699  39.821   5.836  12.888
 3275W        W75700   9.281   1.967   2.348
 3276W        W75701   6.371  10.737  12.505
 3277W        W75702  41.378  20.183   1.866
 3278W        W75703  33.567  43.950   2.369
 3279W        W75704  13.718  23.636  10.146
 3280W        W75705  15.211  24.503   4.624
 3281W        W75706  31.602   4.387   0.854
 3282W        W75707  11.655  31.927   4.648
 3283W        W75708  14.652  34.074  11.501
 3284W        W75709   9.179  19.134   4.318
 3285W        W75710  12.832  26.084   3.713
 3286W        W75711  20.262  19.130   1.222
 3287W        W75712  18.142  38.535  13.386
 3288W        W75713  43.792   8.363  13.970
 3289W        W75714  11.838  16.147   4.273
 3290W        W75715  26.104  13.118  11.000
 3291W        W75716  42.503  17.572  11.019
 3292W        W75717  35.538  17.210   2.325
 3293W        W75718  34.541   4.786   0.889
 3294W        W75719  38.349   3.288   0.806
 3295W        W75720  39.927   1.384  12.510
 3296W        W75721  33.410  43.304   4.835
 3297W        W75722  35.600  15.217   1.433
 3298W        W75723  24.001  22.102   3.298
 3299W        W75724   1.856  37.923   1.289
 3300W        W75725  20.656  38.518  14.318
 3301W        W75726  39.031   5.305   1.439
 3302W        W75727  39.341   6.815   0.319
 3303W        W75728  14.138   5.243   4.301
 3304W        W75729  40.929  14.641   2.720
 3305W        W75730   1.871  36.511  12.351
 3306W        W75731  29.948   7.316   1.306
 3307W        W75732  11.256  16.269  10.584
 3308W        W75733  23.095   2.271   4.645
 3309W        W75734   7.800  31.418  12.030
 3310W        W75735   5.351  15.786  12.420
 3311W        W75736  27.103  29.429   2.707
 3312W        W75737  39.537   0.455   1.316
 3313W        W75738  33.508  12.176  11.006
 3314W        W75739  34.557  17.667  12.458
 3315W        W75740  13.839  34.558   4.770
 3316W        W75741  13.635   1.907   4.656
 3317W        W75742  40.543   5.929   3.192
 3318W        W75743   6.242  23.675   0.436
 3319W        W75744  22.720  11.312  10.905
 3320W        W75745  44.848  38.456   1.813
 3321W        W75746   1.765  15.724   0.780
 3322W        W75747   8.375  25.059   2.882
 3323W        W75748  34.450  37.048  12.841
 3324W        W75749  40.931  44.329  14.506
 3325W        W75750  24.152   0.797  12.991
 3326W        W75751  44.816  43.341  11.601
 3327W        W75752   5.348  18.653   2.311
 3328W        W75753  35.491  30.454   0.348
 3329W        W75754  33.904  21.557   2.343
 3330W        W75755  29.542  38.358  13.006
 3331W        W75756   7.838   7.237  10.033
 3332W        W75757  23.077  31.429  12.499
 3333W        W75758  43.304  25.653  11.074
 3334W        W75759  22.660   3.863  11.387
 3335W        W75760   0.420  31.003  12.977
 3336W        W75761  37.380   4.271  12.482
 3337W        W75762  27.077  20.610  13.043
 3338W        W75763   8.264  22.057  13.859
 3339W        W75764  21.120  40.992  14.851
 3340W        W75765  13.129  30.501  12.884
 3341W        W75766  36.946  43.294   2.392
 3342W        W75767  36.353  30.996  12.015
 3343W        W75768  13.658  17.631  11.942
 3344W        W75769  39.053  40.398  14.032
 3345W        W75770  27.551  34.437  11.588
 3346W        W75771   8.715  33.398   2.691
 3347W        W75772  14.747  35.100  10.601
 3348W        W75773   0.479  35.952  10.924
 3349W        W75774  34.525  31.456  12.352
 3350W        W75775  29.006  32.933  13.544
 3351W        W75776  25.030   2.930   4.657
 3352W        W75777  23.620  38.048  11.441
 3353W        W75778  10.234  15.731   1.750
 3354W        W75779  35.513   3.924   4.153
 3355W        W75780  12.253  44.925   4.784
 3356W        W75781  25.468   8.869   2.331
 3357W        W75782  44.897  26.685  13.018
 3358W        W75783  38.956  22.016   3.177
 3359W        W75784  16.312   3.736   3.685
 3360W        W75785   5.297  40.906  12.879
 3361W        W75786   5.817  34.930   2.861
 3362W        W75787  22.545   2.768  14.978
 3363W        W75788  27.187  19.658  11.407
 3364W        W75789  27.498  28.586  12.452
 3365W        W75790  22.038   5.325   0.819
 3366W        W75791  14.098   4.941  13.427
 3367W        W75792  20.236   2.942  10.512
 3368W        W75793   0.261  31.517   5.174
 3369W        W75794  35.874  28.012  12.070
 3370W        W75795  36.950   7.771   0.746
 3371W        W75796  38.046  21.658   2.696
 3372W        W75797   1.744  27.659  11.441
 3373W        W75798  25.639  13.629   2.700
 3374W        W75799  12.320  30.046  12.906
 3375W        W75800  38.949  21.536   2.675
 3376W        W75801  17.284  30.492  11.929
 3377W        W75802   4.836  19.583  12.986
 3378W        W75803  16.710  34.894   3.354
 3379W        W75804  19.273  28.517   3.835
 3380W        W75805  33.419  17.703   1.382
 3381W        W75806  23.191   4.204   1.796
 3382W        W75807  13.725  33.598  14.776
 3383W        W75808  36.416  17.711  10.506
 3384W        W75809  12.183  25.106   4.646
 3385W        W75810  20.578  42.842   2.825
 3386W        W75811  30.970  26.007  11.538
 3387W        W75812  18.140   0.791  10.624
 3388W        W75813  35.893  29.045  13.018
 3389W        W75814   1.936   4.255  11.888
 3390W        W75815  15.125  37.043   0.847
 3391W        W75816   1.784  27.606  11.954
 3392W        W75817   8.374  36.547  12.000
 3393W        W75818  10.643  29.943  11.485
 3394W        W75819  15.304   5.325  11.892
 3395W        W75820  21.264  10.811  13.045
 3396W        W75821  16.593   9.738  11.047
 3397W        W75822   0.849   5.210   1.247
 3398W        W75823  30.967   8.739  12.941
 3399W        W75824  13.844  23.075   4.145
 3400W        W75825   9.858   5.356  11.486
 3401W        W75826  16.604  44.930  11.599
 3402W        W75827  26.571  32.941   0.764
 3403W        W75828  43.960   4.252   4.251
 3404W        W75829   8.832  12.278   4.200
 3405W        W75830  23.069   1.910   4.629
 3406W        W75831  33.977  26.462   0.734
 3407W        W75832   9.341  37.484  13.516
 3408W        W75833  10.211   2.788   1.742
 3409W        W75834   1.739  44.409   4.246
 3410W        W75835  15.269  37.004  14.357
 3411W        W75836  39.412  34.538  13.452
 3412W        W75837  42.472  18.768   1.823
 3413W        W75838   8.722   1.886   3.385
 3414W        W75839  28.572  35.566   1.451
 3415W        W75840   4.817  35.423   2.729
 3416W        W75841  43.405   5.753  10.953
 3417W        W75842  35.560   5.369   2.739
 3418W        W75843  38.893  22.584  12.488
 3419W        W75844  10.237  20.581   0.323
 3420W        W75845  38.374  39.549  14.965
 3421W        W75846  27.571  24.673  12.087
 3422W        W75847  44.397  21.677   0.364
 3423W        W75848  38.378  38.484   3.697
 3424W        W75849  25.171  33.881  13.423
 3425W        W75850  10.834  30.617  12.040
 3426W        W75851  29.028   9.252  10.532
 3427W        W75852   7.227  34.557  12.002
 3428W        W75853  16.268  43.855   0.323
 3429W        W75854   4.837  38.520   4.239
 3430W        W75855  29.042  15.811  14.377
 3431W        W75856  22.701   3.834   1.856
 3432W        W75857  25.196  27.523  13.534
 3433W        W75858  19.054  22.561   2.844
 3434W        W75859   1.313  14.779  13.485
 3435W        W75860   2.780  34.996   2.856
 3436W        W75861   2.465   6.367   3.632
 3437W        W75862  31.599  43.969   3.280
 3438W        W75863  39.989   9.362  14.484
 3439W        W75864  16.194  28.976  11.518
 3440W        W75865  38.532  14.271   1.868
 3441W        W75866   1.443  40.913   1.257
 3442W        W75867   6.709  36.348   2.327
 3443W        W75868  36.875  32.401  12.018
 3444W        W75869  33.115  10.848   1.368
 3445W        W75870  33.575  15.129  14.281
 3446W        W75871   8.326  23.659   0.420
 3447W        W75872   2.955  26.507   2.847
 3448W        W75873  23.019  24.718  13.489
 3449W        W75874  42.976  40.036  10.486
 3450W        W75875  36.044  24.009  13.363
 3451W        W75876  31.527  44.946  14.977
 3452W        W75877  34.546  44.978   2.840
 3453W        W75878  34.581   5.717  14.865
 3454W        W75879  31.619   4.816  14.450
 3455W        W75880  35.529  26.570   3.708
 3456W        W75881  44.932  33.047  10.136
 3457W        W75882  12.750  37.465  13.838
 3458W        W75883  44.495   5.876  10.523
 3459W        W75884  19.709  38.819   1.247
 3460W        W75885  30.147  28.986  14.812
 3461W        W75886  18.224   6.685  12.040
 3462W        W75887   9.367  44.388   3.260
 3463W        W75888   3.801  36.531   0.395
 3464W        W75889  22.550   8.745  14.449
 3465W        W75890  29.543  41.399   1.354
 3466W        W75891   7.262  37.381  11.866
 3467W        W75892  12.696  17.662   3.782
 3468W        W75893   1.823   1.299  10.477
 3469W        W75894  40.870  21.571   5.796
 3470W        W75895  12.317  43.779   3.870
 3471W        W75896   4.794  10.666   2.682
 3472W        W75897  18.668  15.220   2.240
 3473W        W75898  22.094  11.156  10.471
 3474W        W75899  14.108  42.908  12.549
 3475W        W75900  23.135  37.555   2.185
 3476W        W75901   6.870  36.382   0.960
 3477W        W75902  14.222  41.507  13.507
 3478W        W75903   9.235  28.657  11.990
 3479W        W75904  30.917  20.587  13.429
 3480W        W75905   0.272  29.619   0.850
 3481W        W75906  32.566   7.712   2.229
 3482W        W75907  26.634  19.198  12.518
 3483W        W75908  38.336   5.274   0.256
 3484W        W75909  30.996  37.526   2.282
 3485W        W75910  15.765   5.732  12.344
 3486W        W75911  39.065  31.627  13.793
 3487W        W75912  42.879  30.535   0.380
 3488W        W75913  25.616  34.608  13.512
 3489W        W75914  14.628  39.501  10.981
 3490W        W75915  44.760  25.098  11.512
 3491W        W75916  30.551  42.889  11.612
 3492W        W75917  37.884  22.212   0.901
 3493W        W75918   2.774  26.685   1.241
 3494W        W75919   1.267  22.595   3.281
 3495W        W75920  15.755  27.971  10.132
 3496W        W75921  29.604  22.073   2.815
 3497W        W75922  33.924  17.594   4.668
 3498W        W75923  40.874  44.459  12.345
 3499W        W75924   2.895  38.535  11.953
 3500W        W75925  33.484   6.717  14.877
 3501W        W75926  13.751  32.570   3.318
 3502W        W75927   7.385  11.736   2.852
 3503W        W75928  19.757  10.354   3.340
 3504W        W75929  21.115  17.765   1.788
 3505W        W75930   0.382   9.276  13.816
 3506W        W75931  21.110   0.436   4.271
 3507W        W75932   7.397   5.842   2.288
 3508W        W75933  10.239  14.279   9.963
 3509W        W75934  30.449  44.294   4.836
 3510W        W75935  28.010  18.618   4.324
 3511W        W75936  38.066  33.012  14.333
 3512W        W75937  19.162  22.625  12.439
 3513W        W75938  34.895   5.847   0.780
 3514W        W75939  11.634   1.925  14.493
 3515W        W75940  33.016  29.496  14.294
 3516W        W75941  30.427  35.959   3.278
 3517W        W75942   8.853  17.708  14.396
 3518W        W75943  39.894  39.493  13.916
 3519W        W75944  13.702  30.134  13.839
 3520W        W75945  21.515  38.375   3.644
 3521W        W75946  14.790  39.327  13.839
 3522W        W75947  18.736  16.285  12.008
 3523W        W75948  27.960  42.869   3.697
 3524W        W75949  38.570   5.847  12.051
 3525W        W75950  27.524  35.424   2.412
 3526W        W75951  21.077  18.587  13.340
 3527W        W75952   2.259  20.092   4.347
 3528W        W75953   5.320  21.044  12.527
 3529W        W75954  34.091  18.095   2.861
 3530W        W75955  26.474  37.976   1.827
 3531W        W75956  15.114  27.557  13.019
 3532W        W75957  29.023  19.253   2.871
 3533W        W75958  32.629  12.214   1.443
 3534W        W75959  16.602  41.990   2.823
 3535W        W75960  32.516   6.298  12.518
 3536W        W75961  12.294   9.289  13.965
 3537W        W75962  35.878  12.348  11.551
 3538W        W75963  13.655  43.329   4.255
 3539W        W75964   9.667  39.333   1.792
 3540W        W75965  21.052   0.480  14.968
 3541W        W75966  16.240  10.651  13.002
 3542W        W75967  18.114  28.937  11.479
 3543W        W75968  15.126  44.352  12.441
 3544W        W75969  24.600  31.052   2.194
 3545W        W75970   9.672  31.496   0.924
 3546W        W75971  18.227   1.474   4.324
 3547W        W75972  30.456  29.123   0.798
 3548W        W75973  26.186   9.331  14.299
 3549W        W75974   4.388  28.095  13.341
 3550W        W75975  33.495   9.876  12.072
 3551W        W75976  13.159   9.751  12.446
 3552W        W75977   3.850   9.674   2.413
 3553W        W75978  34.891  23.175   4.809
 3554W        W75979  32.555  28.616  14.960
 3555W        W75980  39.346  14.102   1.293
 3556W        W75981  10.695   7.722  11.860
 3557W        W75982   0.860   1.818   4.672
 3558W        W75983  35.495  28.091  10.493
 3559W        W75984  16.193  13.647  14.842
 3560W        W75985  19.768  18.626   1.914
 3561W        W75986   0.921  20.625  10.428
 3562W        W75987  38.547  14.680  12.093
 3563W        W75988  27.102  29.559   4.712
 3564W        W75989   1.972  41.296  14.931
 3565W        W75990  19.563   3.374   2.814
 3566W        W75991  15.820  36.950   0.473
 3567W        W75992   6.359  30.562   0.921
 3568W        W75993  28.127  32.992  10.416
 3569W        W75994  39.908  31.050   0.872
 3570W        W75995  32.482  26.592  11.536
 3571W        W75996   7.799   8.896  11.524
 3572W        W75997  39.534  23.655  14.343
 3573W        W75998  11.260  26.583  11.391
 3574W        W75999  24.049  12.323  11.922
 3575W        W76000  17.097   5.409  13.042
 3576W        W76001  10.712   3.776  10.454
 3577W        W76002  13.754  26.642   0.934
 3578W        W76003  14.193  34.577  12.490
 3579W        W76004   2.299  43.983   2.826
 3580W        W76005  34.987  22.520   5.226
 3581W        W76006  27.953   9.781  11.431
 3582W        W76007  40.012   2.771  14.781
 3583W        W76008  10.648  39.031   2.734
 3584W        W76009  21.593  17.153  11.041
 3585W        W76010  25.570  17.591  13.047
 3586W        W76011  42.824  15.099  13.920
 3587W        W76012  40.925  38.006  13.030
 3588W        W76013   7.330  44.470   4.822
 3589W        W76014  37.424  16.786  14.842
 3590W        W76015   7.755   8.871   0.804
 3591W        W76016  17.235   6.913   4.817
 3592W        W76017   8.809  39.433  14.982
 3593W        W76018  23.996  14.831  12.497
 3594W        W76019  42.476   4.404  14.365
 3595W        W76020  24.520  15.723   1.931
 3596W        W76021  37.861  25.019   4.609
 3597W        W76022  12.310  34.552  12.941
 3598W        W76023  31.606  36.068  13.401
 3599W        W76024  13.329  28.627  13.366
 3600W        W76025  41.981  35.437   2.738
 3601W        W76026  19.166   9.776   2.788
 3602W        W76027  43.823  44.932  11.454
 3603W        W76028  10.310   4.762   0.327
 3604W        W76029  26.500  42.953  13.320
 3605W        W76030  18.762  43.787   2.300
 3606W        W76031  31.948  21.240  11.459
 3607W        W76032   6.378  34.889   3.666
 3608W        W76033  26.033  24.567  10.449
 3609W        W76034   5.439  25.468   2.301
 3610W        W76035  23.493  27.454   4.116
 3611W        W76036   9.866  34.469   0.331
 3612W        W76037  29.002  42.282  14.769
 3613W        W76038  17.774  42.913   3.200
 3614W        W76039   0.481  40.927  12.913
 3615W        W76040  41.395  40.973  12.360
 3616W        W76041  34.532   8.302   0.313
 3617W        W76042  27.129   7.818  13.981
 3618W        W76043  18.555  18.742   4.168
 3619W        W76044   0.408  14.123   2.778
 3620W        W76045   2.911  17.587   0.739
 3621W        W76046   7.860  21.626  13.851
 3622W        W76047   5.881  30.625  13.055
 3623W        W76048  20.086  44.991  14.793
 3624W        W76049  25.174  44.917   0.442
 3625W        W76050  34.550  18.628  13.385
 3626W        W76051  10.310  38.418  12.454
 3627W        W76052  26.575  11.187  11.471
 3628W        W76053  30.977  26.148   2.334
 3629W        W76054   7.896   4.795   0.314
 3630W        W76055  42.810  22.194   3.262
 3631W        W76056  14.289   1.433   0.253
 3632W        W76057  38.432  17.760  10.972
 3633W        W76058  30.041  43.931   4.220
 3634W        W76059  11.851  44.497  11.066
 3635W        W76060  22.023  37.888   3.819
 3636W        W76061  19.620   6.290  14.011
 3637W        W76062  35.502  14.292   3.148
 3638W        W76063  40.489  41.383  10.072
 3639W        W76064  24.194  44.342   1.748
 3640W        W76065  18.154   2.766   2.373
 3641W        W76066   2.938  10.274  14.856
 3642W        W76067  24.006  29.656  13.951
 3643W        W76068  25.966  42.301  11.914
 3644W        W76069   4.428  24.604  11.949
 3645W        W76070   0.366   4.922  10.964
 3646W        W76071  36.966  11.328   1.301
 3647W        W76072  27.079   7.675   4.703
 3648W        W76073  14.121  37.865   4.309
 3649W        W76074  43.494   7.286  13.803
 3650W        W76075  10.869  42.469  14.006
 3651W        W76076  10.168  28.553   0.329
 3652W        W76077  16.102  43.939   4.644
 3653W        W76078  24.502  14.252   3.377
 3654W        W76079  41.978  33.426   1.261
 3655W        W76080  26.130  26.085  10.593
 3656W        W76081   4.752  43.312  12.544
 3657W        W76082  10.183   5.783  12.959
 3658W        W76083   1.855  27.179   4.274
 3659W        W76084  40.334  37.929  13.325
 3660W        W76085  23.535  35.472   1.817
 3661W        W76086  22.205  24.488   4.242
 3662W        W76087  11.292  10.733   0.755
 3663W        W76088   9.703   3.344   0.931
 3664W        W76089   5.326  19.597   1.878
 3665W        W76090  41.889  35.014  12.075
 3666W        W76091  14.113  19.639   1.808
 3667W        W76092  25.966  38.445  11.881
 3668W        W76093  24.717  19.568   1.732
 3669W        W76094  18.150  11.209  11.513
 3670W        W76095  40.044  27.102   4.765
 3671W        W76096  44.938  27.487  11.539
 3672W        W76097   2.416   5.930  12.083
 3673W        W76098  28.975  22.113  11.511
 3674W        W76099  32.498  21.033  12.002
 3675W        W76100  15.195  17.699   1.329
 3676W        W76101  19.043  33.492  10.633
 3677W        W76102  13.696  18.655  13.888
 3678W        W76103   7.262  38.545   4.170
 3679W        W76104  29.648   2.394   3.375
 3680W        W76105  25.525   5.409  10.639
 3681W        W76106  32.466  29.601  14.920
 3682W        W76107  39.455   7.418   4.785
 3683W        W76108   4.805  17.603  14.809
 3684W        W76109  43.977  35.902  14.328
 3685W        W76110  20.149  33.920   2.225
 3686W        W76111   2.259   2.812  14.478
 3687W        W76112  37.895   7.235  12.866
 3688W        W76113  21.101  43.307   5.286
 3689W        W76114  28.675  31.915  12.543
 3690W        W76115  14.211  42.948   4.796
 3691W        W76116   1.322  26.672  13.942
 3692W        W76117  11.725  34.119  12.853
 3693W        W76118  33.085  33.887   4.736
 3694W        W76119  28.149  18.719   3.304
 3695W        W76120  13.632  26.651   4.782
 3696W        W76121  16.603  33.499   3.164
 3697W        W76122  29.585  31.149  12.835
 3698W        W76123  44.469  13.217  12.539
 3699W        W76124  15.162  25.105  13.884
 3700W        W76125  24.033  19.766  14.838
 3701W        W76126  24.686  22.532   2.826
 3702W        W76127  44.804  44.493   2.667
 3703W        W76128  36.944  24.039  12.539
 3704W        W76129   8.812  30.588  13.365
 3705W        W76130  12.164   3.825  13.979
 3706W        W76131   1.352  36.014   3.265
 3707W        W76132  43.465  34.557   3.822
 3708W        W76133  31.040  32.530  10.965
 3709W        W76134  23.226   1.316  13.944
 3710W        W76135  15.700  31.901   5.212
 3711W        W76136  23.209  19.537  14.420
 3712W        W76137  25.207  28.678  12.842
 3713W        W76138  26.474   5.403  10.541
 3714W        W76139  17.073  35.409   2.249
 3715W        W76140  12.330  13.747   0.438
 3716W        W76141  16.158  18.579  12.892
 3717W        W76142  27.000  23.525  14.008
 3718W        W76143  36.048  44.495   0.359
 3719W        W76144  37.016  37.441   0.947
 3720W        W76145  44.500  42.888  10.125
 3721W        W76146  19.672  40.035  10.920
 3722W        W76147   4.853  28.453   4.758
 3723W        W76148  31.633  36.397  14.884
 3724W        W76149   3.307  29.441  11.075
 3725W        W76150   3.290  10.382   1.909
 3726W        W76151  19.662   8.231  13.335
 3727W        W76152   6.896   5.407  13.348
 3728W        W76153  27.952  44.475  10.937
 3729W        W76154  42.435   3.350  11.487
 3730W        W76155  28.667  38.550  14.983
 3731W        W76156  22.024  36.025   0.931
 3732W        W76157   2.276  27.625  12.550
 3733W        W76158  38.508   6.856  13.873
 3734W        W76159  22.570  17.640  11.439
 3735W        W76160  40.896  10.376   4.340
 3736W        W76161   9.856  17.588  10.462
 3737W        W76162  24.063  42.837  10.019
 3738W        W76163  32.541  15.275   1.851
 3739W        W76164  24.724   8.252  14.354
 3740W        W76165   1.768  25.560   4.716
 3741W        W76166  43.785  24.602  10.923
 3742W        W76167  38.985  12.857   1.875
 3743W        W76168   7.217   3.782  14.888
 3744W        W76169  32.093  31.000  12.379
 3745W        W76170  35.506   0.336   4.314
 3746W        W76171  14.773  29.170   4.713
 3747W        W76172  40.396  40.390   2.240
 3748W        W76173  16.759  27.539   1.935
 3749W        W76174  27.142  13.619   2.730
 3750W        W76175   4.720  11.216   0.927
 3751W        W76176  33.580  41.472   1.734
 3752W        W76177  44.284  42.303   1.450
 3753W        W76178  38.004   3.762   2.798
 3754W        W76179  35.536   0.269  10.504
 3755W        W76180  40.408   1.478   1.367
 3756W        W76181  38.389  24.554  13.924
 3757W        W76182  20.566  23.036   2.760
 3758W        W76183  29.513  22.022  11.976
 3759W        W76184  33.579  29.136   4.221
 3760W        W76185  21.070  41.389  14.966
 3761W        W76186   7.321  16.642  12.939
 3762W        W76187  42.526   6.300   3.386
 3763W        W76188   3.361  39.889   0.730
 3764W        W76189  41.023  38.999  10.636
 3765W        W76190  19.274   9.234   0.828
 3766W        W76191  17.160  12.852  14.477
 3767W        W76192  17.108   4.915  10.908
 3768W        W76193  39.934  17.301   2.730
 3769W        W76194  18.565  21.106   4.113
 3770W        W76195  11.286  11.152  13.953
 3771W        W76196  31.416  39.417  13.838
 3772W        W76197   3.363  17.625   0.466
 3773W        W76198  25.125  37.087  10.617
 3774W        W76199   9.865  31.920   2.746
 3775W        W76200  42.017  35.946   4.219
 3776W        W76201  14.169  16.686  12.837
 3777W        W76202   8.854  42.429   2.244
 3778W        W76203   9.269  29.118   1.698
 3779W        W76204   9.763  43.368   3.780
 3780W        W76205   2.318  17.307   0.927
 3781W        W76206  14.825  12.707  12.045
 3782W        W76207  19.622  18.619  13.478
 3783W        W76208  19.165  18.764   2.854
 3784W        W76209  14.187  22.587  11.024
 3785W        W76210   0.451  21.683   3.811
 3786W        W76211  36.362  21.123   3.817
 3787W        W76212  20.155  32.093   0.361
 3788W        W76213  10.259  26.636  13.994
 3789W        W76214  16.156   4.788  13.900
 3790W        W76215   3.945  15.268  11.875
 3791W        W76216  16.717  42.020  13.431
 3792W        W76217   8.301  24.016  13.437
 3793W        W76218  29.129  13.157   4.760
 3794W        W76219  24.982  12.157   3.633
 3795W        W76220  16.162  14.672  14.402
 3796W        W76221   5.706  15.710   4.136
 3797W        W76222  35.577  12.633   3.316
 3798W        W76223  32.945   5.856   0.852
 3799W        W76224  33.101  26.197  13.928
 3800W        W76225   7.708  42.824   1.889
 3801W        W76226  11.777  14.626   2.384
 3802W        W76227   2.957  37.489   2.311
 3803W        W76228  13.248  42.470   3.329
 3804W        W76229  13.168  41.387  10.473
 3805W        W76230   9.234  36.052   1.796
 3806W        W76231  18.120   8.836  11.029
 3807W        W76232  38.056  22.736   3.312
 3808W        W76233  33.024  44.451  14.341
 3809W        W76234  40.021   2.416   1.311
 3810W        W76235   7.384  30.639  14.329
 3811W        W76236  30.005   2.886  12.088
 3812W        W76237  37.569  21.211   3.674
 3813W        W76238   5.224  18.622  14.479
 3814W        W76239   6.678  10.347  10.018
 3815W        W76240  15.735  28.116   1.806
 3816W        W76241  33.395  32.575   0.801
 3817W        W76242  39.452  12.620   3.809
 3818W        W76243  25.098  26.976   3.697
 3819W        W76244  10.229  37.849  12.924
 3820W        W76245  36.092  17.772   2.824
 3821W        W76246  32.466  18.777  11.006
 3822W        W76247  32.035  30.123  13.423
 3823W        W76248  30.511  38.554  10.428
 3824W        W76249  37.452   1.430   0.737
 3825W        W76250  41.427  21.578  10.980
 3826W        W76251  35.472  17.746  11.507
 3827W        W76252  44.823   1.469  10.591
 3828W        W76253  44.851  30.610   3.228
 3829W        W76254  22.734  18.248  12.899
 3830W        W76255  13.651  36.984  12.948
 3831W        W76256  36.588  32.894  11.965
 3832W        W76257   1.243  32.592  10.921
 3833W        W76258   9.869  22.041  12.926
 3834W        W76259  44.802  38.064   4.659
 3835W        W76260  13.112  14.792   2.416
 3836W        W76261  43.896  31.928  14.323
 3837W        W76262  35.108  29.095  14.842
 3838W        W76263  25.031  35.097   5.211
 3839W        W76264  28.562  38.486   4.311
 3840W        W76265  10.726  25.985  11.476
 3841W        W76266  19.770  36.856  14.483
 3842W        W76267   1.842  41.891   4.130
 3843W        W76268   6.364   1.822  10.032
 3844W        W76269  17.566  19.706  13.463
 3845W        W76270  41.401  43.347   0.319
 3846W        W76271  14.770   9.228   0.473
 3847W        W76272   7.746   3.737  11.939
 3848W        W76273  37.926  19.592   4.668
 3849W        W76274  38.904  23.679  13.906
 3850W        W76275  26.153  28.165   2.718
 3851W        W76276  13.620  27.047  11.074
 3852W        W76277  23.531  14.271  12.091
 3853W        W76278  19.697  22.532   1.863
 3854W        W76279  18.275  13.166   3.817
 3855W        W76280  43.388   0.483   0.351
 3856W        W76281  13.725  23.605   2.757
 3857W        W76282  29.118  16.800   3.754
 3858W        W76283   7.672  33.004  13.465
 3859W        W76284   8.171  10.344  14.409
 3860W        W76285   2.404  36.084   3.766
 3861W        W76286  41.360  31.141  12.542
 3862W        W76287   8.682  17.210  14.015
 3863W        W76288   0.955   3.452   2.275
 3864W        W76289  15.106  23.211  14.360
 3865W        W76290  10.261  11.365   4.266
 3866W        W76291  26.630  13.791   0.290
 3867W        W76292  36.440  39.411   2.820
 3868W        W76293   1.813  19.728  13.446
 3869W        W76294  28.606  12.313  12.366
 3870W        W76295  39.930  21.177   3.786
 3871W        W76296   1.737  31.061   4.612
 3872W        W76297  35.381  29.552   4.292
 3873W        W76298  31.129  44.426   3.377
 3874W        W76299  20.531   0.948  12.026
 3875W        W76300  35.366   8.722   2.255
 3876W        W76301   9.810  11.754   0.784
 3877W        W76302   8.668  28.172  13.333
 3878W        W76303  10.683  15.625   0.884
 3879W        W76304  33.928   7.298   3.293
 3880W        W76305  11.173  30.433  13.349
 3881W        W76306  15.269   1.308   4.817
 3882W        W76307  29.136  36.849  11.904
 3883W        W76308  17.197  23.574  11.425
 3884W        W76309  42.304  36.417  14.953
 3885W        W76310   8.842   2.772   4.663
 3886W        W76311  28.096  20.257   4.290
 3887W        W76312   8.280  39.922   2.312
 3888W        W76313  30.127  40.838  11.571
 3889W        W76314   4.310  20.214   1.869
 3890W        W76315  41.334  23.237  11.907
 3891W        W76316  44.757  24.523  11.542
 3892W        W76317  15.272  27.509  14.821
 3893W        W76318  43.508   0.379   3.261
 3894W        W76319  36.095   6.363  13.834
 3895W        W76320   3.913  15.289   3.809
 3896W        W76321   5.703   9.327  11.917
 3897W        W76322  36.368   5.208  14.985
 3898W        W76323  23.514  10.843  13.970
 3899W        W76324  19.731  35.517  14.020
 3900W        W76325  26.154  28.483   4.633
 3901W        W76326  27.468  24.512   1.832
 3902W        W76327  12.841   6.730  11.101
 3903W        W76328  38.012   4.922  13.877
 3904W        W76329  42.928  20.031   9.979
 3905W        W76330  42.822  36.422   5.274
 3906W        W76331  25.205   0.381   4.716
 3907W        W76332  21.634  41.825   4.197
 3908W        W76333   2.857  13.238  11.858
 3909W        W76334  13.747  38.545   0.367
 3910W        W76335  17.729  23.144  10.551
 3911W        W76336   0.381  36.045   0.811
 3912W        W76337  38.371  15.808  13.963
 3913W        W76338  44.816  28.961  11.091
 3914W        W76339  12.155  36.865   3.180
 3915W        W76340  36.998  43.972  11.904
 3916W        W76341   3.282   0.262  11.966
 3917W        W76342  26.204   8.358   2.845
 3918W        W76343   8.221   4.217   3.847
 3919W        W76344   4.887  23.639  13.925
 3920W        W76345  37.455  28.169  12.843
 3921W        W76346   1.976  26.488   0.259
 3922W        W76347  23.047  30.966   1.261
 3923W        W76348  42.837   9.826  10.559
 3924W        W76349  35.103  42.376  10.451
 3925W        W76350  13.631  40.873  12.982
 3926W        W76351   2.419  25.569   4.204
 3927W        W76352  15.159  39.499  14.343
 3928W        W76353   8.311  39.914   4.179
 3929W        W76354  34.866  33.456   0.376
 3930W        W76355  43.884   9.221   3.290
 3931W        W76356   4.372  23.206   2.901
 3932W        W76357  30.921   3.932  13.037
 3933W        W76358  28.019   2.798   2.760
 3934W        W76359  28.462  15.226  11.594
 3935W        W76360  36.933  27.196   4.288
 3936W        W76361  22.726   1.757   2.728
 3937W        W76362  44.502  28.934   4.684
 3938W        W76363  31.612  24.007   2.355
 3939W        W76364  20.206  39.955  14.326
 3940W        W76365  35.478  22.715  10.965
 3941W        W76366  25.051  37.464  13.548
 3942W        W76367  20.624  42.955   4.118
 3943W        W76368  16.112  32.419  10.994
 3944W        W76369  38.477  30.643   0.800
 3945W        W76370   1.818  44.994  13.978
 3946W        W76371  44.863  26.584  13.882
 3947W        W76372  21.197  37.357  12.558
 3948W        W76373  39.375   2.236   0.759
 3949W        W76374  17.180  34.521  14.963
 3950W        W76375   1.427  22.651  12.581
 3951W        W76376  44.954  25.711  13.819
 3952W        W76377  33.115   2.774  10.600
 3953W        W76378  30.554  26.588   0.848
 3954W        W76379  30.641   2.352  10.635
 3955W        W76380  33.610  25.198   2.803
 3956W        W76381  26.510  13.159  13.440
 3957W        W76382  12.791  22.522  11.934
 3958W        W76383  21.728   6.271  12.549
 3959W        W76384  33.962  30.917  14.794
 3960W        W76385   2.238  18.051   4.684
 3961W        W76386  40.868  43.278   2.183
 3962W        W76387  22.205  20.634   4.265
 3963W        W76388  37.936   5.802  14.421
 3964W        W76389   9.791  44.357  11.934
 3965W        W76390   1.906  39.354  13.994
 3966W        W76391  40.533  17.137   0.885
 3967W        W76392  19.107  23.226  11.383
 3968W        W76393  39.937  36.450  11.448
 3969W        W76394  11.750  32.594   0.347
 3970W        W76395  39.397  15.115   1.442
 3971W        W76396  32.474  32.607   2.324
 3972W        W76397   0.806  35.587   4.121
 3973W        W76398  18.602  34.017  13.431
 3974W        W76399  40.041  43.482   2.216
 3975W        W76400  12.268  22.246  10.609
 3976W        W76401  34.368  40.311   3.373
 3977W        W76402  26.483  39.022  13.360
 3978W        W76403  13.240  27.623   3.768
 3979W        W76404   7.805  14.267   2.219
 3980W        W76405  33.956  42.291   2.860
 3981W        W76406  42.955  19.637  12.095
 3982W        W76407  10.162  43.328  10.610
 3983W        W76408  33.433   1.893  13.323
 3984W        W76409   9.251  29.162   3.837
 3985W        W76410  19.183   6.183   2.872
 3986W        W76411  41.025  31.053  12.545
 3987W        W76412  30.650  22.170  10.470
 3988W        W76413   1.318  16.655   0.340
 3989W        W76414  27.492  20.544   0.933
 3990W        W76415  43.369  13.157   1.279
 3991W        W76416  42.495  29.647  14.824
 3992W        W76417  29.471  23.533   4.729
 3993W        W76418  11.655  11.270   1.270
 3994W        W76419   8.212  42.908   4.837
 3995W        W76420  44.374  15.820  12.510
 3996W        W76421  11.742  18.611   0.810
 3997W        W76422   1.295  38.381  12.475
 3998W        W76423  22.022   6.803   0.390
 3999W        W76424  43.363   7.681   4.203
 4000W        W76425  29.441   5.901   0.961
 4001W        W76426  30.422  30.912  12.998
 4002W        W76427  19.550  42.877  10.996
 4003W        W76428  31.117  38.062  14.827
 4004W        W76429  29.940   3.261   3.209
 4005W        W76430   1.272  22.014   4.152
 4006W        W76431  11.260  25.039  12.381
 4007W        W76432  30.015   0.455   2.396
 4008W        W76433  43.873  36.386   1.451
 4009W        W76434   7.671  42.985  13.376
 4010W        W76435  32.471  33.538   3.870
 4011W        W76436   6.921  16.224   2.797
 4012W        W76437   1.266  40.531  14.424
 4013W        W76438  21.129  44.474  12.980
 4014W        W76439  34.866   4.437  13.823
 4015W        W76440  18.133  30.628   0.475
 4016W        W76441  39.900   4.357   4.617
 4017W        W76442  31.111  29.031   1.698
 4018W        W76443  29.448  20.738  10.154
 4019W        W76444  22.183  42.322   1.322
 4020W        W76445  19.577  32.456   4.698
 4021W        W76446  12.141  28.034  10.970
 4022W        W76447  40.021  37.370   2.272
 4023W        W76448  20.544  14.168  13.904
 4024W        W76449  20.589  17.284  14.319
 4025W        W76450   9.658   7.811  14.341
 4026W        W76451  32.406  18.561  10.404
 4027W        W76452  15.696   2.315  10.970
 4028W        W76453  23.704  37.526   3.642
 4029W        W76454  38.908  44.295   1.411
 4030W        W76455  41.968  26.492   3.629
 4031W        W76456  21.121  40.020  11.531
 4032W        W76457  29.450  22.743  13.947
 4033W        W76458  36.994   7.341   1.907
 4034W        W76459   1.970  22.512   5.106
 4035W        W76460  43.945  41.041  12.836
 4036W        W76461  42.300  34.890  13.315
 4037W        W76462  21.687  25.078  11.870
 4038W        W76463  43.501  37.385  10.621
 4039W        W76464  34.397   0.789  13.970
 4040W        W76465  24.526  34.429  13.060
 4041W        W76466  30.101  31.607  10.557
 4042W        W76467  14.319  33.388  14.894
 4043W        W76468  43.861   9.242   4.631
 4044W        W76469  44.294   7.682  14.798
 4045W        W76470  44.437  29.656  13.974
 4046W        W76471  42.916  43.944   4.227
 4047W        W76472  41.847   7.870   0.834
 4048W        W76473  44.966   4.278   0.933
 4049W        W76474  35.578   3.744  11.975
 4050W        W76475  22.168  40.478   3.735
 4051W        W76476  32.592  16.605   1.698
 4052W        W76477  16.285   6.249  13.395
 4053W        W76478  12.662  44.799   0.906
 4054W        W76479  17.675  24.980  12.491
 4055W        W76480  42.876  41.304  13.447
 4056W        W76481  44.956  43.989   0.863
 4057W        W76482   9.345  42.333   3.820
 4058W        W76483  23.048  43.823  12.911
 4059W        W76484  18.591  19.664  11.998
 4060W        W76485   1.310  39.508  11.379
 4061W        W76486  18.201  31.131   1.826
 4062W        W76487  23.532  18.181  10.446
 4063W        W76488  37.376  30.457   4.658
 4064W        W76489   1.743  25.047  12.344
 4065W        W76490   7.380   3.455   4.226
 4066W        W76491  23.530  21.245   4.217
 4067W        W76492   1.283  14.265   3.782
 4068W        W76493   8.265   3.339   4.299
 4069W        W76494  42.434  25.625  11.038
 4070W        W76495  27.450  34.497  12.484
 4071W        W76496  15.198  24.001  13.345
 4072W        W76497  13.152  13.812  14.976
 4073W        W76498  28.483   3.343   3.724
 4074W        W76499   6.258  44.808  12.053
 4075W        W76500  10.853   8.683  10.900
 4076W        W76501   3.370  15.236   1.866
 4077W        W76502  16.261  24.034   0.483
 4078W        W76503  26.603  21.513   4.680
 4079W        W76504   3.418   7.365   2.203
 4080W        W76505   6.703   1.407   0.739
 4081W        W76506   4.713   0.851  13.531
 4082W        W76507  25.184  34.421  13.886
 4083W        W76508  10.246  29.055   3.194
 4084W        W76509  11.773  10.691   2.808
 4085W        W76510  38.879  23.087   1.894
 4086W        W76511   0.254  14.149   0.735
 4087W        W76512   1.931  34.580   3.720
 4088W        W76513  14.209  38.481   2.281
 4089W        W76514  27.568  23.213   4.206
 4090W        W76515  40.867  15.687  10.054
 4091W        W76516   3.820  31.112  12.981
 4092W        W76517  32.597  13.678  11.876
 4093W        W76518   6.759   4.251   2.217
 4094W        W76519   3.785  16.662  13.932
 4095W        W76520  25.210  26.617   5.215
 4096W        W76521  35.968   8.295  12.015
 4097W        W76522  16.230   2.748  14.279
 4098W        W76523  38.416  16.148   4.224
 4099W        W76524  34.013  28.465   0.382
 4100W        W76525  36.401  29.992  12.975
 4101W        W76526  25.524   0.412  12.987
 4102W        W76527  34.373  27.513  13.973
 4103W        W76528   4.883  37.830  14.320
 4104W        W76529  28.103  26.196   4.285
 4105W        W76530   2.875  37.378   2.735
 4106W        W76531   9.367  26.607  11.601
 4107W        W76532  36.845  16.278  12.037
 4108W        W76533   2.771  23.651  11.411
 4109W        W76534  33.515  30.057   4.261
 4110W        W76535  17.259  29.073  13.415
 4111W        W76536  37.849   6.761  12.864
 4112W        W76537  16.186  31.426  11.996
 4113W        W76538  19.609  41.312   3.766
 4114W        W76539  13.646  36.974  13.458
 4115W        W76540  24.042   5.839  13.328
 4116W        W76541  19.212  29.119   0.743
 4117W        W76542   4.232   9.727  13.983
 4118W        W76543   3.393  14.821   3.752
 4119W        W76544  30.109   9.388   0.932
 4120W        W76545  27.999   8.248  13.367
 4121W        W76546  39.412  16.583  14.494
 4122W        W76547  28.104   0.478   2.691
 4123W        W76548  22.105   7.670  13.010
 4124W        W76549  30.611  23.129  14.767
 4125W        W76550  24.124   7.884   4.320
 4126W        W76551  25.670  22.177  13.824
 4127W        W76552  43.491  36.008   2.332
 4128W        W76553  26.485  41.891  12.539
 4129W        W76554  40.990  40.949   3.667
 4130W        W76555   3.755   1.449  14.301
 4131W        W76556  12.746   0.935  10.962
 4132W        W76557   0.899   2.858  14.002
 4133W        W76558   8.865  36.089  14.912
 4134W        W76559  25.712  23.039  10.547
 4135W        W76560   1.827  25.977  11.417
 4136W        W76561  44.406  28.977  10.471
 4137W        W76562  37.857  27.466  12.372
 4138W        W76563   2.386  24.054   2.205
 4139W        W76564  31.471  23.147  10.070
 4140W        W76565  15.814  32.588  14.894
 4141W        W76566   5.699   2.774   3.202
 4142W        W76567  13.212  26.968   2.333
 4143W        W76568  38.862  18.740   2.672
 4144W        W76569  17.149  21.249  13.368
 4145W        W76570  11.195  11.698   2.372
 4146W        W76571   1.970  28.470  10.999
 4147W        W76572  21.575  16.191  13.486
 4148W        W76573  44.420  10.803   2.355
 4149W        W76574  20.748  16.772  11.407
 4150W        W76575  13.633  34.592  10.562
 4151W        W76576  24.170   9.654  11.566
 4152W        W76577  26.488   5.404  11.074
 4153W        W76578  20.091  29.424  11.512
 4154W        W76579  18.642  17.185  10.980
 4155W        W76580  26.032   3.883  13.862
 4156W        W76581  32.453  26.996   4.288
 4157W        W76582  23.572  26.173  12.377
 4158W        W76583  22.094  14.331   0.758
 4159W        W76584  18.271  37.406  10.964
 4160W        W76585  13.144   0.841   5.200
 4161W        W76586   4.405  25.563  12.392
 4162W        W76587   8.667  26.537  11.530
 4163W        W76588  41.827  15.150   2.846
 4164W        W76589  26.458  35.987  10.038
 4165W        W76590  18.565  13.799   4.820
 4166W        W76591  36.460  38.934   0.863
 4167W        W76592  13.610  36.440  14.798
 4168W        W76593  35.038  44.863  10.594
 4169W        W76594  16.595  22.085   1.219
 4170W        W76595  32.395  33.047   0.742
 4171W        W76596  41.348   4.819  11.874
 4172W        W76597   0.744  44.442  12.845
 4173W        W76598  16.702  27.651  13.372
 4174W        W76599  27.994  29.972   1.354
 4175W        W76600  41.872  36.883   0.948
 4176W        W76601  32.565  34.486  13.895
 4177W        W76602  42.866  44.006  14.015
 4178W        W76603  36.978  28.435  11.464
 4179W        W76604   0.788  23.610  13.449
 4180W        W76605  18.621  40.838  13.463
 4181W        W76606   1.813  30.048  11.533
 4182W        W76607  38.420  44.330   4.669
 4183W        W76608  38.843  11.640   4.634
 4184W        W76609   8.857  40.436  12.873
 4185W        W76610   7.899  29.055   2.838
 4186W        W76611  33.954  41.415   0.959
 4187W        W76612   4.404  16.621   0.265
 4188W        W76613   2.435  37.070  13.348
 4189W        W76614  18.731  42.850  11.585
 4190W        W76615  24.590  17.731  14.472
 4191W        W76616   9.656  17.186   4.244
 4192W        W76617  34.912   6.401   3.659
 4193W        W76618  43.926  21.248  12.977
 4194W        W76619   9.865  29.618   0.470
 4195W        W76620  36.851   3.323  13.019
 4196W        W76621  38.500  17.629   3.367
 4197W        W76622  20.735  24.110  11.883
 4198W        W76623   6.899  10.241   4.755
 4199W        W76624   9.240   0.761  13.909
 4200W        W76625   2.916   1.257  11.898
 4201W        W76626  42.866   6.336   2.832
 4202W        W76627  15.700   6.362  12.024
 4203W        W76628  12.621  32.483   4.163
 4204W        W76629  14.213  18.060  12.996
 4205W        W76630   6.370  20.248  14.492
 4206W        W76631  23.508  11.170   4.745
 4207W        W76632  39.990  42.510  11.578
 4208W        W76633  38.006  11.224  12.837
 4209W        W76634  19.700  37.504  14.966
 4210W        W76635  18.551  30.552   3.332
 4211W        W76636  25.520  36.373  13.986
 4212W        W76637  15.652  33.057   3.373
 4213W        W76638  27.178   2.434   4.212
 4214W        W76639  15.259  42.362  11.529
 4215W        W76640  34.517  36.985  10.413
 4216W        W76641  13.785  35.558   3.666
 4217W        W76642   7.888  14.810   0.314
 4218W        W76643  16.089  18.145  13.048
 4219W        W76644  12.710  11.249   4.139
 4220W        W76645   2.347  40.346  13.495
 4221W        W76646  27.535  32.441   0.376
 4222W        W76647  34.497  18.270   2.901
 4223W        W76648  25.094  24.082   1.390
 4224W        W76649  39.398  11.676  13.455
 4225W        W76650  23.623  32.620  11.077
 4226W        W76651   6.799  13.740   4.307
 4227W        W76652  23.584  31.105   0.903
 4228W        W76653  21.525  10.742  11.495
 4229W        W76654   2.738  39.447  13.017
 4230W        W76655  33.066  41.370   3.863
 4231W        W76656  15.211  16.113  13.890
 4232W        W76657  41.393   7.194   4.131
 4233W        W76658  27.038  14.650  13.791
 4234W        W76659  36.911  19.176   1.739
 4235W        W76660   3.845   6.426  14.779
 4236W        W76661  11.173   3.890  10.530
 4237W        W76662  11.227   9.814   1.900
 4238W        W76663  25.067  29.943  13.871
 4239W        W76664  38.333  28.977   1.365
 4240W        W76665  36.018  31.074  14.944
 4241W        W76666  22.514  18.201  11.580
 4242W        W76667  42.327  13.246  12.984
 4243W        W76668  20.044  19.072  12.016
 4244W        W76669  39.995  22.637   3.219
 4245W        W76670  28.659  35.956  14.443
 4246W        W76671  13.187  24.618   3.300
 4247W        W76672  19.044   6.832  12.084
 4248W        W76673  18.253   9.765  11.120
 4249W        W76674  11.838  24.204   2.377
 4250W        W76675  42.920  20.105   4.788
 4251W        W76676  11.863  40.326   2.697
 4252W        W76677  13.204  27.998  10.446
 4253W        W76678  33.055  27.118   3.747
 4254W        W76679   9.312  28.067  11.481
 4255W        W76680   1.909  13.277   3.716
 4256W        W76681  26.691  36.020  11.069
 4257W        W76682  22.091  12.310   3.820
 4258W        W76683  11.714  44.329   2.897
 4259W        W76684  37.359  23.122  11.006
 4260W        W76685  16.812  44.375  12.862
 4261W        W76686  32.421  18.727   3.868
 4262W        W76687  13.678  28.588   3.239
 4263W        W76688  27.472  24.610   4.350
 4264W        W76689  25.073  13.270  12.450
 4265W        W76690   0.298  37.971   0.863
 4266W        W76691   2.958  22.997  11.957
 4267W        W76692  31.062  40.547   5.104
 4268W        W76693  31.622  14.111  12.987
 4269W        W76694  24.050  38.541  13.393
 4270W        W76695  29.094  35.390   4.213
 4271W        W76696  14.769  32.955  13.542
 4272W        W76697  28.975  11.317  14.002
 4273W        W76698  31.453  14.102  11.065
 4274W        W76699  44.834  41.409  12.859
 4275W        W76700  36.054  41.382  14.335
 4276W        W76701  18.546  19.197   2.727
 4277W        W76702  44.478  27.073  12.867
 4278W        W76703   9.254  27.679   3.733
 4279W        W76704  27.534  21.704   1.717
 4280W        W76705  26.578  32.917   3.306
 4281W        W76706  28.973  20.196  13.335
 4282W        W76707  12.208  11.147   0.924
 4283W        W76708   7.839  30.533   1.235
 4284W        W76709  44.417  26.117   4.785
 4285W        W76710  28.549  19.674  13.541
 4286W        W76711  17.178  36.494  14.421
 4287W        W76712  10.323   5.425  13.960
 4288W        W76713   6.750   4.275  14.761
 4289W        W76714  29.938   3.336   3.732
 4290W        W76715  28.507  23.535  13.846
 4291W        W76716  12.634  44.395   1.786
 4292W        W76717  40.528  23.573   3.279
 4293W        W76718  13.719  17.706  11.593
 4294W        W76719  14.764  15.634   2.394
 4295W        W76720  15.235  28.661   2.295
 4296W        W76721  42.840  29.150  11.919
 4297W        W76722  13.841  39.352  10.504
 4298W        W76723  18.586  16.632   1.335
 4299W        W76724  22.732  28.494   2.203
 4300W        W76725  22.033  43.347   3.345
 4301W        W76726  14.164  24.547  14.841
 4302W        W76727  12.719  19.216  13.547
 4303W        W76728   0.372  25.211   0.809
 4304W        W76729  41.841   8.789  11.590
 4305W        W76730  14.147  18.646  11.056
 4306W        W76731  12.825  22.228  10.891
 4307W        W76732  10.266  44.917  11.555
 4308W        W76733   1.851  35.939   3.320
 4309W        W76734  18.625  11.279  12.002
 4310W        W76735   9.779  37.882  12.530
 4311W        W76736  30.939  21.104  12.552
 4312W        W76737   0.789  43.979  12.469
 4313W        W76738  27.121  33.060  12.526
 4314W        W76739  28.667  21.152   3.312
 4315W        W76740   2.283  32.027  13.433
 4316W        W76741  37.430   9.213   3.248
 4317W        W76742  19.538  29.078  13.038
 4318W        W76743  17.679  29.176  11.430
 4319W        W76744  10.215  42.020  12.858
 4320W        W76745  18.670  36.859  13.905
 4321W        W76746  32.054  30.547  11.608
 4322W        W76747   0.760  15.656   1.233
 4323W        W76748  10.218  36.873  11.459
 4324W        W76749  16.639  17.593   3.195
 4325W        W76750  14.207   5.688   2.714
 4326W        W76751  10.264  33.895   4.349
 4327W        W76752   6.311   0.925  10.516
 4328W        W76753   6.895  18.654  13.880
 4329W        W76754  43.936  43.820   4.750
 4330W        W76755   6.701  36.434  14.488
 4331W        W76756  28.015  31.596   1.274
 4332W        W76757  43.490  24.209  13.516
 4333W        W76758  10.302  32.124  10.435
 4334W        W76759  26.506  43.506   1.843
 4335W        W76760  21.120  33.035  10.579
 4336W        W76761  40.546  38.052   4.766
 4337W        W76762   6.687  13.248  12.973
 4338W        W76763  20.180  30.487   5.088
 4339W        W76764  39.560   5.883  13.998
 4340W        W76765  43.433  43.836  12.843
 4341W        W76766  24.624  19.754   4.318
 4342W        W76767  42.941  41.332   3.375
 4343W        W76768  36.436   5.931   1.934
 4344W        W76769  35.854   5.690  10.429
 4345W        W76770  34.603  18.617  12.452
 4346W        W76771   6.397  27.068   1.433
 4347W        W76772  19.544   6.772  11.855
 4348W        W76773  26.113  36.056  12.040
 4349W        W76774  28.982  29.124  13.809
 4350W        W76775  36.980   9.770   2.383
 4351W        W76776  17.559   3.874   1.279
 4352W        W76777  19.680   9.355  11.034
 4353W        W76778  24.209   1.237  11.392
 4354W        W76779   0.815  42.486  12.051
 4355W        W76780   6.718  42.895   4.775
 4356W        W76781  31.084  36.409  10.628
 4357W        W76782  20.655  13.164  11.859
 4358W        W76783  18.138  34.586   3.295
 4359W        W76784  34.077  18.764   1.775
 4360W        W76785  30.639  31.520   0.370
 4361W        W76786  19.729  35.473   3.334
 4362W        W76787  34.863  42.801  12.998
 4363W        W76788   0.819  10.362  13.021
 4364W        W76789  36.946  23.685   2.208
 4365W        W76790  30.047  18.692  14.394
 4366W        W76791  20.647  27.633   3.208
 4367W        W76792  24.064  31.507   2.387
 4368W        W76793   8.711  22.113  13.927
 4369W        W76794  27.560  16.201  14.395
 4370W        W76795   3.410  31.094  10.638
 4371W        W76796  41.371   0.439   2.272
 4372W        W76797  34.035   8.676   4.599
 4373W        W76798   2.835  27.580  12.902
 4374W        W76799  32.425   5.285  14.981
 4375W        W76800  36.880  26.512   4.122
 4376W        W76801  30.982  30.986   2.404
 4377W        W76802   0.759  18.781  14.849
 4378W        W76803  17.218   7.886  14.940
 4379W        W76804  15.781   4.749   3.368
 4380W        W76805  42.790  32.047  12.425
 4381W        W76806  15.744  38.032   4.678
 4382W        W76807   2.445  39.363   0.363
 4383W        W76808   3.244  44.440   3.766
 4384W        W76809  15.208  17.258  11.383
 4385W        W76810   5.288  20.534   1.382
 4386W        W76811   1.907  20.714   1.787
 4387W        W76812  34.515  42.478   3.386
 4388W        W76813  24.568   5.399   1.913
 4389W        W76814  18.646   2.261  10.633
 4390W        W76815   4.210  42.959   1.344
 4391W        W76816  17.192  27.111  10.983
 4392W        W76817  29.620  21.111   3.248
 4393W        W76818  14.832  44.286  13.931
 4394W        W76819  40.884  31.504  12.548
 4395W        W76820   9.719   8.795  13.932
 4396W        W76821  33.017  18.155  11.430
 4397W        W76822  12.710   7.287   0.281
 4398W        W76823  13.299  23.216  13.546
 4399W        W76824  37.880  12.768   1.296
 4400W        W76825  43.975   8.381   2.705
 4401W        W76826  17.617   8.373   0.854
 4402W        W76827   0.918   7.218  13.408
 4403W        W76828  18.619  36.534   1.910
 4404W        W76829  40.338  35.879   0.866
 4405W        W76830  26.149   4.913  14.807
 4406W        W76831   0.891   9.394  10.466
 4407W        W76832   8.883   9.213   3.793
 4408W        W76833  41.966  23.092   2.797
 4409W        W76834  36.975  10.735   2.383
 4410W        W76835  43.293   7.727   0.344
 4411W        W76836   6.205   3.377  10.059
 4412W        W76837  24.138  34.486   4.795
 4413W        W76838  15.322  25.497  10.971
 4414W        W76839  38.046  25.170   3.184
 4415W        W76840   2.264  43.369  12.858
 4416W        W76841  27.144  36.544  10.939
 4417W        W76842   8.828  27.457  10.925
 4418W        W76843  30.497  33.953   0.766
 4419W        W76844  42.940   1.964   1.330
 4420W        W76845  44.260  39.058   4.646
 4421W        W76846  29.999  27.637  11.435
 4422W        W76847  18.661   8.242  12.377
 4423W        W76848  34.083   4.845  14.971
 4424W        W76849  31.594  18.777   0.367
 4425W        W76850   4.226   2.321   1.696
 4426W        W76851  13.162  28.471   4.255
 4427W        W76852  29.637  37.355   1.409
 4428W        W76853   1.763  40.992   3.234
 4429W        W76854  17.652  20.200  12.396
 4430W        W76855  24.119  21.119   0.908
 4431W        W76856   4.907  31.485   0.370
 4432W        W76857  35.899  43.490  11.917
 4433W        W76858  31.424  10.775   3.747
 4434W        W76859  18.265  36.926   4.750
 4435W        W76860  19.609  43.417   3.356
 4436W        W76861  39.319  26.465  12.977
 4437W        W76862  15.653   0.971  14.877
 4438W        W76863  24.984  30.958  10.632
 4439W        W76864  37.853   3.737  12.062
 4440W        W76865  32.457  20.534   2.839
 4441W        W76866   0.413  34.548  12.055
 4442W        W76867  41.947  29.087  10.434
 4443W        W76868  12.740  14.119  10.436
 4444W        W76869  26.005  30.609  14.000
 4445W        W76870  25.988   3.768  12.091
 4446W        W76871  31.927  30.455  14.424
 4447W        W76872   4.360  13.675   0.252
 4448W        W76873  32.918  21.188   3.823
 4449W        W76874  14.142  30.556  14.388
 4450W        W76875  33.002  31.433   4.243
 4451W        W76876  13.614  10.188  11.454
 4452W        W76877  36.888  13.819   4.732
 4453W        W76878   0.377  35.979   3.332
 4454W        W76879   6.370  26.667   0.411
 4455W        W76880   1.752   4.427  13.925
 4456W        W76881  17.626   5.320  12.393
 4457W        W76882  43.784  36.502   1.863
 4458W        W76883  24.667  25.695  12.074
 4459W        W76884  41.474   0.878   1.449
 4460W        W76885  39.443   8.823   4.796
 4461W        W76886  35.985   8.216  13.330
 4462W        W76887  28.159  41.818  14.504
 4463W        W76888   6.392  13.158  14.311
 4464W        W76889  23.998  32.097  12.951
 4465W        W76890   3.729  33.029   3.289
 4466W        W76891  37.853   6.200  11.081
 4467W        W76892  29.979   5.217  12.856
 4468W        W76893  40.403  17.087   4.211
 4469W        W76894   3.343  42.864  11.390
 4470W        W76895   2.855  17.268  14.824
 4471W        W76896   9.776  18.708  12.090
 4472W        W76897  35.869  10.347   4.306
 4473W        W76898  25.084  42.310   0.914
 4474W        W76899  21.635  27.551   2.765
 4475W        W76900   9.149  16.813   0.901
 4476W        W76901  39.997  43.925  12.015
 4477W        W76902  16.672   6.216   4.148
 4478W        W76903  17.791   4.884  14.992
 4479W        W76904  30.518  38.929  13.909
 4480W        W76905  26.464  37.362  10.160
 4481W        W76906  26.021  28.960   4.314
 4482W        W76907  28.175  32.082  12.042
 4483W        W76908  12.355  37.020   0.270
 4484W        W76909   9.183  41.399  10.505
 4485W        W76910  18.058  42.799   4.182
 4486W        W76911  10.232  31.606   1.329
 4487W        W76912   1.425  26.100  11.095
 4488W        W76913   9.213  32.008   4.302
 4489W        W76914  27.559  23.643   1.223
 4490W        W76915   4.212  24.531   4.326
 4491W        W76916  32.935  29.628  10.417
 4492W        W76917  11.697  22.075   3.743
 4493W        W76918  40.342  40.406   0.940
 4494W        W76919   6.849  15.712  10.113
 4495W        W76920  35.046  40.336   2.685
 4496W        W76921  33.526  26.057   0.932
 4497W        W76922  23.506   5.902   4.805
 4498W        W76923   5.289  15.227  13.984
 4499W        W76924  28.185  42.872   0.283
 4500W        W76925   4.296  32.542   0.361
 4501W        W76926  26.521  39.975  11.375
 4502W        W76927  38.843  42.349   1.787
 4503W        W76928  37.453  38.471   4.638
 4504W        W76929  43.484   3.229  12.427
 4505W        W76930   4.733  11.699   1.835
 4506W        W76931  15.768  30.501   1.256
 4507W        W76932  12.313  20.706   1.217
 4508W        W76933   0.359  31.411  14.284
 4509W        W76934  28.062  44.825  12.478
 4510W        W76935   4.414  38.973   3.202
 4511W        W76936  30.988  12.351  13.930
 4512W        W76937  41.431  34.911  11.872
 4513W        W76938  26.672  12.688  11.451
 4514W        W76939  23.028  19.268  13.404
 4515W        W76940  41.040  39.435   3.304
 4516W        W76941  16.212   8.166   2.205
 4517W        W76942   5.391  16.171  13.025
 4518W        W76943  35.404  40.852  10.562
 4519W        W76944  43.794  16.237   3.667
 4520W        W76945  44.330   0.406  11.436
 4521W        W76946  24.143   9.816   4.204
 4522W        W76947   2.780   8.754   3.863
 4523W        W76948  18.789  30.025   4.194
 4524W        W76949  16.668  33.382  10.893
 4525W        W76950  44.433  26.080  11.020
 4526W        W76951  33.129   0.901   4.838
 4527W        W76952   4.822  29.994  11.600
 4528W        W76953  35.895  25.610  11.943
 4529W        W76954  44.881   3.826   0.953
 4530W        W76955   2.800  30.933   3.180
 4531W        W76956  11.757   0.466  14.766
 4532W        W76957   7.236  25.157  13.819
 4533W        W76958  44.917  37.953  10.639
 4534W        W76959  26.993  43.370  13.044
 4535W        W76960  31.567   1.293  14.888
 4536W        W76961  30.057   8.733  10.550
 4537W        W76962  26.549  36.895   2.408
 4538W        W76963  44.912   6.892  14.798
 4539W        W76964   2.228  37.981  11.084
 4540W        W76965  38.884  20.114   1.911
 4541W        W76966  22.674  43.766   2.330
 4542W        W76967  15.175  15.186  10.600
 4543W        W76968  21.100  28.151   2.870
 4544W        W76969   6.718  44.331  10.967
 4545W        W76970   8.840  24.590  13.544
 4546W        W76971   1.407  27.070   0.288
 4547W        W76972  32.933  25.538  12.454
 4548W        W76973  23.610  30.489   9.588
 4549W        W76974  14.592   6.736  12.907
 4550W        W76975  33.402  34.548   3.694
 4551W        W76976  19.049  26.190   4.299
 4552W        W76977  13.290   6.765   2.214
 4553W        W76978   7.394  22.570   0.345
 4554W        W76979  32.613  13.775   4.213
 4555W        W76980  13.183  34.521  12.372
 4556W        W76981  27.109  28.013   1.313
 4557W        W76982  12.187  20.232  12.372
 4558W        W76983   2.774  37.080   2.179
 4559W        W76984  28.585  26.495   4.800
 4560W        W76985   5.424  10.682   3.327
 4561W        W76986  23.078  37.565   1.861
 4562W        W76987  20.110  20.655  11.553
 4563W        W76988  24.118   7.862  13.470
 4564W        W76989  11.857  39.457  13.002
 4565W        W76990  38.917  13.329  14.810
 4566W        W76991   9.268  29.519   2.763
 4567W        W76992  38.006  24.018  14.944
 4568W        W76993  14.185   4.224  14.378
 4569W        W76994  35.875  40.480   3.734
 4570W        W76995  23.097   6.913   3.226
 4571W        W76996   5.348  37.536  14.514
 4572W        W76997  16.720   2.298   0.407
 4573W        W76998  13.726  12.154  14.957
 4574W        W76999  22.546  17.708   3.702
 4575W        W77000   1.954  11.665   0.804
 4576W        W77001  13.642  10.367  13.506
 4577W        W77002  32.910   3.807  14.325
 4578W        W77003   9.857  10.763   2.879
 4579W        W77004  43.407   1.769  12.371
 4580W        W77005  34.108  32.051  13.991
 4581W        W77006  18.296  22.560  13.874
 4582W        W77007  43.808  38.457   1.396
 4583W        W77008  19.169  10.835  13.850
 4584W        W77009  44.997  18.684   4.272
 4585W        W77010   2.259   7.400  11.024
 4586W        W77011  36.094   2.275  14.993
 4587W        W77012  34.869  31.990  12.438
 4588W        W77013  25.218   1.878   1.762
 4589W        W77014  16.723  38.556   2.407
 4590W        W77015   0.366   1.278  14.395
 4591W        W77016   9.756   6.366   0.769
 4592W        W77017  25.684  13.136  13.477
 4593W        W77018  32.467  27.057   0.823
 4594W        W77019  28.966   0.916  11.975
 4595W        W77020  30.022  34.080  14.343
 4596W        W77021  15.309   7.706   1.905
 4597W        W77022   0.916  32.558  11.391
 4598W        W77023  38.381  33.924  13.878
 4599W        W77024  27.514  24.133   3.651
 4600W        W77025  44.460   3.383   2.751
 4601W        W77026  11.683  28.081   5.125
 4602W        W77027  17.175  36.366   4.235
 4603W        W77028   4.222  41.431   2.880
 4604W        W77029  42.453   4.349  11.044
 4605W        W77030  16.774  42.815   0.822
 4606W        W77031  10.726  29.953  14.977
 4607W        W77032  32.911  42.369   1.371
 4608W        W77033   0.944  43.394  13.358
 4609W        W77034  18.612  34.395  10.994
 4610W        W77035  23.108  28.481   3.289
 4611W        W77036  39.043  30.531  14.944
 4612W        W77037  18.555  11.760   1.370
 4613W        W77038   8.883   3.439  14.380
 4614W        W77039   7.730   7.192  11.026
 4615W        W77040   3.735   5.427  13.979
 4616W        W77041  19.243  13.669   2.233
 4617W        W77042  36.400  30.456  11.606
 4618W        W77043  34.047  34.886  13.417
 4619W        W77044   3.857  20.612   2.194
 4620W        W77045  28.483  17.073   2.831
 4621W        W77046   6.306  30.128   2.188
 4622W        W77047  35.044  40.959   0.838
 4623W        W77048  24.597  14.139  13.025
 4624W        W77049  44.846  14.648  13.035
 4625W        W77050  37.850  27.666  13.473
 4626W        W77051   2.258  11.776  14.814
 4627W        W77052  28.091  39.837   1.356
 4628W        W77053  17.726  27.989  14.451
 4629W        W77054  19.262   6.713   1.285
 4630W        W77055  12.627  25.978   1.272
 4631W        W77056  26.543  34.047  11.962
 4632W        W77057  16.699  35.003  10.961
 4633W        W77058  21.183   2.933  14.415
 4634W        W77059  30.055  28.479   4.680
 4635W        W77060   8.899  19.143   2.211
 4636W        W77061   4.705  40.494   4.712
 4637W        W77062  24.028   8.345   4.739
 4638W        W77063  30.051  13.739   3.384
 4639W        W77064  22.053  11.278   5.147
 4640W        W77065  13.768   1.434  11.475
 4641W        W77066  44.844  28.168   0.313
 4642W        W77067   0.913  12.721   2.667
 4643W        W77068  21.175  20.168   5.311
 4644W        W77069  40.468   3.445  13.884
 4645W        W77070  26.483  17.248   3.327
 4646W        W77071  40.812   2.861  13.351
 4647W        W77072  30.501  21.528   4.259
 4648W        W77073  26.622  40.324  11.519
 4649W        W77074   0.954  13.249   4.625
 4650W        W77075  24.624  39.470   0.751
 4651W        W77076  15.719  34.486   2.754
 4652W        W77077  21.671  16.700   3.314
 4653W        W77078   2.470  42.856   0.331
 4654W        W77079  39.950  18.767  12.503
 4655W        W77080  12.780   5.283  10.634
 4656W        W77081  40.318   4.818   4.626
 4657W        W77082  38.438  31.996   2.757
 4658W        W77083  34.971  38.977  13.514
 4659W        W77084  34.971   2.762   4.692
 4660W        W77085  31.623  29.556   1.251
 4661W        W77086   3.861  33.588  10.462
 4662W        W77087  37.565   6.681   1.926
 4663W        W77088  39.410  32.931   2.297
 4664W        W77089  17.283   5.894   3.181
 4665W        W77090  23.131   6.276   1.246
 4666W        W77091  17.294  26.650   3.777
 4667W        W77092  31.469  12.857   0.363
 4668W        W77093  41.811  42.880   2.191
 4669W        W77094   1.335   7.721  11.402
 4670W        W77095  35.532  43.402   0.298
 4671W        W77096  30.045  38.509   3.165
 4672W        W77097   4.909  31.464  13.015
 4673W        W77098  36.094   7.281  13.973
 4674W        W77099   1.770  37.537   1.273
 4675W        W77100   7.175  12.356   3.156
 4676W        W77101  13.836  24.722   4.646
 4677W        W77102  10.254  31.006  13.988
 4678W        W77103  16.808  39.908   4.686
 4679W        W77104   8.279  19.702  11.913
 4680W        W77105  34.582  16.698  11.459
 4681W        W77106  14.192   7.699   0.354
 4682W        W77107  10.723  12.288   3.712
 4683W        W77108  17.594  11.261   3.779
 4684W        W77109  20.115  32.541   1.908
 4685W        W77110  13.347  10.657   3.704
 4686W        W77111   9.837   3.241  13.814
 4687W        W77112  39.030  39.931   3.189
 4688W        W77113  12.843  25.507  11.517
 4689W        W77114  14.236  19.718   2.751
 4690W        W77115   3.318  15.098   0.857
 4691W        W77116   6.359  33.980  10.446
 4692W        W77117   2.838  12.325  10.537
 4693W        W77118   1.929  39.997  14.415
 4694W        W77119  18.625  40.052   2.862
 4695W        W77120  25.688  43.369  11.511
 4696W        W77121  25.064  32.408   2.358
 4697W        W77122  37.404   3.775   3.343
 4698W        W77123  11.806  43.290  13.992
 4699W        W77124  35.424  21.107  14.362
 4700W        W77125  26.154  40.963  13.325
 4701W        W77126  16.168  34.597  13.406
 4702W        W77127   5.352  18.546   0.440
 4703W        W77128  31.580  28.050   1.307
 4704W        W77129  18.078  17.213  11.891
 4705W        W77130  21.166  11.737   4.220
 4706W        W77131  40.797  44.935   4.296
 4707W        W77132  40.381   1.847   1.818
 4708W        W77133  43.437   2.376  13.509
 4709W        W77134  14.789  17.742   3.733
 4710W        W77135  40.485  39.844  11.095
 4711W        W77136  17.600  43.498  14.389
 4712W        W77137  28.632  11.820   0.363
 4713W        W77138  19.694  15.644  11.913
 4714W        W77139  19.694  17.064  14.374
 4715W        W77140  44.344  22.106   0.752
 4716W        W77141  29.587  14.734   3.198
 4717W        W77142  39.420  39.003  11.017
 4718W        W77143  42.910  36.028  11.528
 4719W        W77144  28.479   0.849  12.528
 4720W        W77145  25.672  39.328   1.822
 4721W        W77146   5.325  18.164   4.342
 4722W        W77147  41.313  42.327   4.671
 4723W        W77148  15.088  38.029   0.741
 4724W        W77149  40.423   4.414  11.998
 4725W        W77150  10.779  39.324  14.992
 4726W        W77151  39.867  35.951  13.994
 4727W        W77152  34.889  29.081  11.126
 4728W        W77153  22.557  18.278   5.238
 4729W        W77154  12.273  36.384   3.200
 4730W        W77155  39.430  35.365   1.883
 4731W        W77156   2.913  17.236   3.778
 4732W        W77157  35.941   0.754  14.946
 4733W        W77158   4.759   5.728  13.031
 4734W        W77159  41.938  22.096   3.161
 4735W        W77160  28.509  30.464   0.376
 4736W        W77161   9.341  30.004  12.972
 4737W        W77162  21.056  25.549  11.545
 4738W        W77163  37.044   9.221   4.177
 4739W        W77164   6.830  25.104   0.364
 4740W        W77165  25.083  21.022  14.029
 4741W        W77166  39.033  38.535  10.532
 4742W        W77167  35.013  28.942  10.140
 4743W        W77168   6.293   1.314  13.985
 4744W        W77169  32.949  21.187  13.935
 4745W        W77170  31.019   7.860  14.876
 4746W        W77171  13.341  13.224   1.755
 4747W        W77172  44.445  25.483  12.009
 4748W        W77173   6.391  22.522   5.247
 4749W        W77174  24.561   6.892  13.957
 4750W        W77175  39.396  19.536  13.518
 4751W        W77176  33.585  17.723   2.217
 4752W        W77177  22.713  41.491  13.425
 4753W        W77178  41.513  26.206   3.188
 4754W        W77179  14.102  32.908  11.977
 4755W        W77180   8.666  44.900   4.257
 4756W        W77181  26.640  19.609   0.818
 4757W        W77182  37.964   2.803   0.943
 4758W        W77183  33.131  23.199   4.805
 4759W        W77184  17.761  35.494  13.493
 4760W        W77185   8.379  24.094   0.270
 4761W        W77186  38.960   4.266   2.741
 4762W        W77187  40.051   9.649   2.302
 4763W        W77188  13.831  17.774   2.725
 4764W        W77189  21.054  20.541  14.867
 4765W        W77190  32.139  29.016   0.830
 4766W        W77191   0.922  33.625   1.333
 4767W        W77192  33.418  34.869  10.082
 4768W        W77193  25.481   6.917   4.686
 4769W        W77194  36.055  42.810  12.940
 4770W        W77195  35.468  38.447   3.188
 4771W        W77196  31.613  40.506  11.072
 4772W        W77197   7.180  41.455   1.257
 4773W        W77198   9.261  40.978   3.300
 4774W        W77199  13.280  14.643  12.873
 4775W        W77200  23.178  21.033   1.346
 4776W        W77201  15.276  34.614   5.245
 4777W        W77202   8.896  16.657   4.773
 4778W        W77203  13.287  42.440  14.505
 4779W        W77204  36.095  27.506   4.167
 4780W        W77205   2.739  32.427  14.916
 4781W        W77206   4.818   9.360  14.282
 4782W        W77207  33.971  25.104  13.848
 4783W        W77208  41.515   3.898  11.458
 4784W        W77209  15.313  11.291  14.316
 4785W        W77210  36.543  36.552   4.730
 4786W        W77211  11.370   3.322   3.294
 4787W        W77212  41.897  24.200   2.756
 4788W        W77213  26.960  44.501  14.981
 4789W        W77214  21.022  11.160  13.958
 4790W        W77215  25.121  44.397  10.948
 4791W        W77216   9.379  40.410  10.495
 4792W        W77217  19.284  35.358   0.878
 4793W        W77218  36.444   9.749  14.932
 4794W        W77219  29.439  43.288   1.281
 4795W        W77220  33.490  11.796  12.836
 4796W        W77221   9.862   9.165  13.338
 4797W        W77222  35.940   0.353  13.943
 4798W        W77223  38.898  35.934  11.064
 4799W        W77224  32.913  11.823  10.505
 4800W        W77225  35.957  44.499  14.414
 4801W        W77226  42.000   2.896  11.122
 4802W        W77227  24.071   9.764   1.319
 4803W        W77228  15.258  40.396   4.216
 4804W        W77229  19.563   6.908  12.467
 4805W        W77230   5.808  12.612  10.408
 4806W        W77231   4.311  25.591   3.241
 4807W        W77232  17.158  13.134   0.764
 4808W        W77233  14.792  19.191  12.434
 4809W        W77234  30.484  13.288   1.699
 4810W        W77235  23.043  36.563   0.789
 4811W        W77236  23.223  15.201  12.852
 4812W        W77237  42.364  34.370  13.988
 4813W        W77238  33.478  32.424   4.761
 4814W        W77239  31.105  37.431  10.142
 4815W        W77240   6.383   7.829   1.295
 4816W        W77241  37.523  32.954   2.667
 4817W        W77242  30.078  29.039   0.847
 4818W        W77243  19.207   4.870  14.425
 4819W        W77244  12.659  21.097   2.864
 4820W        W77245  28.125   3.258   0.850
 4821W        W77246  18.574  29.047   2.724
 4822W        W77247  19.184  33.523   1.734
 4823W        W77248  14.679  35.432  14.504
 4824W        W77249  26.643   5.296   0.334
 4825W        W77250  17.563  42.856  11.031
 4826W        W77251  31.903  19.734  12.080
 4827W        W77252  14.232  22.250  12.413
 4828W        W77253   8.788   4.792   0.435
 4829W        W77254  41.998  19.622  13.867
 4830W        W77255  35.564  16.142   1.829
 4831W        W77256  23.534   6.915  11.573
 4832W        W77257  44.814  44.373  13.832
 4833W        W77258  11.666  25.164  11.566
 4834W        W77259  37.380  11.737   0.799
 4835W        W77260  11.177  13.111   4.151
 4836W        W77261  14.720  25.591   1.716
 4837W        W77262  19.664   9.746   3.261
 4838W        W77263  30.080  32.505   4.744
 4839W        W77264   2.920  22.018  13.371
 4840W        W77265  21.608  26.047  11.039
 4841W        W77266  23.569  21.176   1.842
 4842W        W77267  44.989  10.284   2.710
 4843W        W77268  18.080  13.265  13.526
 4844W        W77269  43.872  26.687   2.749
 4845W        W77270  22.198  19.597  14.380
 4846W        W77271  16.241  15.320  10.555
 4847W        W77272  42.452   6.412  12.530
 4848W        W77273  23.134  13.118  12.837
 4849W        W77274  20.617  33.457   4.325
 4850W        W77275   0.382  43.360  12.458
 4851W        W77276  38.913   9.263   4.730
 4852W        W77277  29.105  39.317  10.482
 4853W        W77278  35.486  33.538  11.074
 4854W        W77279  16.585  39.372   3.370
 4855W        W77280   5.247   0.302  14.310
 4856W        W77281  33.547   5.699  13.383
 4857W        W77282   3.774  28.179   0.384
 4858W        W77283  19.123  29.922  14.025
 4859W        W77284  20.763  15.304   1.727
 4860W        W77285  39.466  24.159   4.662
 4861W        W77286  42.903   5.401   2.744
 4862W        W77287  28.944  16.614   4.651
 4863W        W77288   6.786  15.595  14.959
 4864W        W77289  26.041  13.251   3.629
 4865W        W77290  14.763  40.390  13.033
 4866W        W77291  40.524   6.759  12.092
 4867W        W77292   1.890  44.848  12.563
 4868W        W77293  29.602  21.641  14.964
 4869W        W77294   5.286  38.529   0.817
 4870W        W77295  28.612  11.780  14.998
 4871W        W77296  17.596   2.881   2.821
 4872W        W77297   4.376  13.832   3.667
 4873W        W77298   6.879   8.862  11.452
 4874W        W77299  32.567  32.502  14.293
 4875W        W77300  44.355   9.361  11.580
 4876W        W77301  29.589  20.110   2.720
 4877W        W77302   8.755  39.976  11.401
 4878W        W77303  42.824  33.886   0.754
 4879W        W77304  26.559  15.687  11.443
 4880W        W77305  44.872  13.707  11.580
 4881W        W77306  44.755  43.328  13.432
 4882W        W77307   3.925  37.886   0.773
 4883W        W77308  42.851  13.161   5.144
 4884W        W77309  22.519  10.778  11.599
 4885W        W77310   0.751  13.663   2.828
 4886W        W77311   9.741  15.247  13.027
 4887W        W77312  29.925  38.517   4.217
 4888W        W77313  12.174  13.224   3.166
 4889W        W77314  23.626  12.315  13.349
 4890W        W77315  35.974  18.562   0.325
 4891W        W77316  25.485  30.945   1.920
 4892W        W77317  21.614  29.516   2.674
 4893W        W77318  37.417  33.552   1.756
 4894W        W77319   3.378  12.198  11.464
 4895W        W77320  38.860   6.403   1.733
 4896W        W77321  33.023  13.121  11.092
 4897W        W77322  10.676  21.077  10.120
 4898W        W77323   4.272  28.136  10.942
 4899W        W77324   2.372   7.369  12.520
 4900W        W77325  29.462  27.534   0.761
 4901W        W77326   9.665  43.798  13.917
 4902W        W77327  34.520   8.185   5.141
 4903W        W77328  44.397   3.829   2.190
 4904W        W77329  42.857  22.996  14.887
 4905W        W77330  41.324   2.738  11.500
 4906W        W77331   3.933  30.120  13.000
 4907W        W77332  42.409  10.721   0.293
 4908W        W77333  16.084  12.679  13.374
 4909W        W77334  24.613  21.661  12.909
 4910W        W77335  36.025  38.861  13.398
 4911W        W77336  16.694   0.822   3.172
 4912W        W77337  22.590  24.100  13.035
 4913W        W77338   6.198  36.094   1.222
 4914W        W77339  26.131  25.481  10.484
 4915W        W77340  16.318  38.010  11.946
 4916W        W77341  28.555   7.227  14.007
 4917W        W77342  41.830  33.127   1.315
 4918W        W77343   9.326   9.169   0.850
 4919W        W77344  24.718   2.246   0.768
 4920W        W77345  33.905   5.708  12.487
 4921W        W77346  19.066   3.773   2.328
 4922W        W77347  11.303  35.477   0.827
 4923W        W77348  38.444  39.858  11.516
 4924W        W77349  36.453  39.318   1.412
 4925W        W77350   2.289  41.943   4.338
 4926W        W77351  25.498   3.396  12.892
 4927W        W77352  41.995  27.614   2.407
 4928W        W77353   6.714  21.028  13.943
 4929W        W77354  26.585  29.159   1.439
 4930W        W77355   5.238  23.009   0.339
 4931W        W77356  41.957  31.078  10.560
 4932W        W77357  43.909  25.560   1.785
 4933W        W77358  30.961  27.532  11.898
 4934W        W77359   0.754  41.319   5.292
 4935W        W77360   5.352  21.178   0.347
 4936W        W77361  32.993   1.267  14.420
 4937W        W77362  21.222  40.436   3.259
 4938W        W77363  15.167  20.767  12.863
 4939W        W77364  32.401   6.196  13.391
 4940W        W77365  18.594  15.702  14.873
 4941W        W77366  37.391   1.876  14.387
 4942W        W77367  25.522   7.222  13.408
 4943W        W77368  13.313  12.275   0.927
 4944W        W77369   4.292   6.813  12.927
 4945W        W77370  16.688  14.625  10.438
 4946W        W77371   0.394  33.394  10.028
 4947W        W77372  18.764   7.211  11.917
 4948W        W77373  38.423  44.875   1.772
 4949W        W77374   7.373  27.095  13.418
 4950W        W77375  20.167  16.808   0.350
 4951W        W77376  11.360  36.525   4.649
 4952W        W77377  29.122  32.434  13.036
 4953W        W77378  14.752   6.755  14.831
 4954W        W77379  24.716  36.520  11.586
 4955W        W77380  16.582  27.018   4.616
 4956W        W77381  31.901  29.161  12.371
 4957W        W77382  40.952   5.432  10.440
 4958W        W77383  20.168  36.403  10.466
 4959W        W77384  40.881  29.558  12.355
 4960W        W77385  30.468  17.292   0.417
 4961W        W77386  42.959  31.554  12.867
 4962W        W77387  35.567   1.858  14.431
 4963W        W77388  26.544   3.833  12.074
 4964W        W77389  37.917  25.561  12.358
 4965W        W77390  28.654  35.486   4.153
 4966W        W77391  35.562  15.809  14.492
 4967W        W77392  11.646  34.977  12.396
 4968W        W77393  38.069  27.139  10.645
 4969W        W77394  11.136  36.542   0.843
 4970W        W77395  17.291  41.986   2.215
 4971W        W77396  39.863  30.648  11.057
 4972W        W77397   4.721  22.692  14.408
 4973W        W77398  11.822  14.306   4.167
 4974W        W77399  14.745  35.898  12.400
 4975W        W77400  13.788  19.138  13.311
 4976W        W77401  40.440  12.147  13.958
 4977W        W77402  19.105  31.434  14.356
 4978W        W77403  37.463  29.996  14.350
 4979W        W77404  16.109  16.627  13.965
 4980W        W77405  15.301   3.375   4.238
 4981W        W77406   1.340  14.289   0.769
 4982W        W77407   7.819  26.662   2.398
 4983W        W77408  25.038  33.083   1.712
 4984W        W77409  24.490  16.100   1.383
 4985W        W77410   4.357   4.752  14.976
 4986W        W77411  37.078  43.830  13.930
 4987W        W77412  44.336  27.109  11.607
 4988W        W77413  37.914  15.659   1.231
 4989W        W77414  30.064   6.345   0.320
 4990W        W77415  12.816  14.287   4.821
 4991W        W77416  18.063  13.764  10.451
 4992W        W77417  10.194   5.302   3.703
 4993W        W77418  19.089  42.504   0.358
 4994W        W77419  13.192  17.147   3.210
 4995W        W77420   0.941  33.929   0.938
 4996W        W77421  22.623  18.786  13.917
 4997W        W77422   6.381  35.966   2.292
 4998W        W77423   9.381   7.178   5.125
 4999W        W77424  32.454  31.074  14.417
 5000W        W77425  13.228  24.722   4.641
 5001W        W77426  11.149  37.975   4.147
 5002W        W77427  39.862  36.005  13.388
 5003W        W77428  35.450  20.599   1.339
 5004W        W77429  13.751   5.305  11.408
 5005W        W77430  15.110  40.429   1.803
 5006W        W77431  43.481   4.814   1.442
 5007W        W77432   2.404  18.670   3.332
 5008W        W77433  44.493  39.432   0.814
 5009W        W77434  30.473  15.735  14.365
 5010W        W77435  29.088  40.433   3.237
 5011W        W77436  34.043  34.535  14.965
 5012W        W77437  33.487  32.504   1.347
 5013W        W77438   1.735  34.570  10.450
 5014W        W77439   4.890  37.406  12.566
 5015W        W77440   6.885  15.290   4.139
 5016W        W77441  19.118  28.548  11.095
 5017W        W77442  29.929  35.968  14.424
 5018W        W77443  17.642  11.638   0.370
 5019W        W77444  26.956  16.076   0.333
 5020W        W77445  31.542  10.149  12.410
 5021W        W77446  17.192  35.999  13.886
 5022W        W77447  42.783   2.445   3.779
 5023W        W77448   0.268  10.815  13.371
 5024W        W77449  29.630  37.554   0.831
 5025W        W77450  36.509  31.534   2.325
 5026W        W77451   9.298   0.444   4.799
 5027W        W77452   4.911  17.627   0.780
 5028W        W77453  35.082  40.516  12.937
 5029W        W77454  43.292  30.658  12.061
 5030W        W77455  42.775   3.384   2.336
 5031W        W77456   7.854  32.581  13.010
 5032W        W77457  13.254   4.766   2.366
 5033W        W77458  34.488  32.006   0.349
 5034W        W77459  24.568  40.974  11.535
 5035W        W77460  20.575  41.038  12.871
 5036W        W77461  44.010  12.180   1.775
 5037W        W77462   8.218   9.890  13.418
 5038W        W77463  18.111  44.328   3.386
 5039W        W77464  26.985  32.415  13.902
 5040W        W77465  18.738   3.948  13.385
 5041W        W77466  10.766  33.448  12.990
 5042W        W77467   8.742  43.419   4.284
 5043W        W77468  36.425  15.622   2.665
 5044W        W77469  44.784   7.361   1.431
 5045W        W77470  16.771  35.060   5.193
 5046W        W77471  26.549   7.265  12.970
 5047W        W77472  17.255  43.294  12.349
 5048W        W77473  24.673  36.896   1.725
 5049W        W77474  17.799  17.102  12.469
 5050W        W77475  34.013  24.060   3.184
 5051W        W77476  40.893  35.529   3.259
 5052W        W77477  41.451   3.360   1.724
 5053W        W77478  14.281  10.184   3.230
 5054W        W77479  17.753   1.261  14.943
 5055W        W77480  22.195  22.728   1.340
 5056W        W77481  29.636  37.458  13.029
 5057W        W77482  33.121  28.663  13.941
 5058W        W77483  41.856  27.090   3.764
 5059W        W77484   7.859  35.577  12.901
 5060W        W77485  17.733  21.526   1.405
 5061W        W77486  22.591   3.906   0.275
 5062W        W77487  32.951  25.543  12.830
 5063W        W77488   7.797  25.632   2.841
 5064W        W77489  11.708  23.078   4.756
 5065W        W77490  17.800   3.366  10.624
 5066W        W77491  40.823  15.218   0.461
 5067W        W77492   8.891  13.110   4.179
 5068W        W77493  35.024  42.003  14.293
 5069W        W77494  26.173  36.463   3.663
 5070W        W77495  16.257  16.074   4.281
 5071W        W77496  41.484  29.145  13.324
 5072W        W77497  28.988  36.888   3.280
 5073W        W77498  10.157  10.211   3.659
 5074W        W77499  38.400  29.425   4.169
 5075W        W77500  35.585  21.613  13.546
 5076W        W77501  37.498   3.799  13.901
 5077W        W77502   1.338   0.965   1.315
 5078W        W77503  11.666   1.459   2.841
 5079W        W77504  19.585  20.643   2.734
 5080W        W77505   5.237  14.734  12.439
 5081W        W77506  15.662  21.258  13.435
 5082W        W77507  32.105   1.822  11.056
 5083W        W77508  15.726  36.946   0.727
 5084W        W77509  38.413  37.966  10.970
 5085W        W77510  43.354  11.247  14.341
 5086W        W77511   8.816  39.462  13.056
 5087W        W77512  15.790   8.181   4.675
 5088W        W77513  35.899  19.648  12.511
 5089W        W77514  36.993  30.022  12.537
 5090W        W77515  31.146   6.265   4.133
 5091W        W77516  29.026  27.948   0.942
 5092W        W77517  14.624  26.038   0.290
 5093W        W77518  38.945  33.390  11.050
 5094W        W77519   1.973  22.515  14.837
 5095W        W77520  27.164  21.086  13.495
 5096W        W77521  17.223  22.141   9.987
 5097W        W77522  10.181  33.422   5.103
 5098W        W77523  10.147   8.218   4.621
 5099W        W77524  31.051  16.125   2.714
 5100W        W77525  21.106  16.632   3.695
 5101W        W77526  31.038   7.292  10.615
 5102W        W77527   6.358   6.856   1.303
 5103W        W77528  37.337   8.391   0.832
 5104W        W77529  21.538  26.649   0.765
 5105W        W77530  17.781   0.265   0.477
 5106W        W77531   1.322  25.087   2.827
 5107W        W77532  25.650  14.660   4.648
 5108W        W77533  20.242  28.505   0.391
 5109W        W77534  43.354   6.698   2.775
 5110W        W77535  44.273   5.903  12.010
 5111W        W77536   8.165  30.632  11.947
 5112W        W77537  15.118  17.187   1.805
 5113W        W77538  34.963   1.433  11.478
 5114W        W77539  42.399  24.620  11.099
 5115W        W77540  32.422  11.627  13.484
 5116W        W77541   7.316  30.058   2.701
 5117W        W77542  22.175  15.735  12.382
 5118W        W77543  37.920  13.750  12.406
 5119W        W77544  19.230   4.406   4.600
 5120W        W77545  30.425  24.027   3.248
 5121W        W77546  44.805   5.724  14.959
 5122W        W77547  38.533  23.500   0.892
 5123W        W77548  43.920  23.111   4.758
 5124W        W77549  30.105  36.493  12.402
 5125W        W77550  11.354   9.708   1.231
 5126W        W77551  15.683   9.681   0.808
 5127W        W77552  18.173  22.023   1.723
 5128W        W77553  36.089   1.792   4.273
 5129W        W77554  26.972  41.432  12.556
 5130W        W77555  35.002  37.568  14.279
 5131W        W77556   4.207  30.616   0.936
 5132W        W77557  39.843  35.549  12.873
 5133W        W77558  22.715  22.741   5.226
 5134W        W77559   5.910  32.620  11.116
 5135W        W77560  20.045  41.443  13.364
 5136W        W77561   0.479  11.260   2.664
 5137W        W77562  21.565  24.163   1.814
 5138W        W77563  28.594  18.723  11.501
 5139W        W77564  21.044  43.438   4.833
 5140W        W77565  17.185  34.907  10.153
 5141W        W77566  38.570  25.177  14.976
 5142W        W77567  31.151   5.779   1.774
 5143W        W77568   6.879   5.423   1.436
 5144W        W77569  30.077   3.916   4.175
 5145W        W77570   6.308  33.481  10.140
 5146W        W77571   5.366  43.989  10.995
 5147W        W77572  43.998  43.943   0.250
 5148W        W77573  34.584  15.678   2.852
 5149W        W77574  30.989   4.286  12.883
 5150W        W77575  26.542   5.415   3.691
 5151W        W77576  17.683  14.831   4.350
 5152W        W77577   6.232  40.316   2.312
 5153W        W77578  22.673  13.613  14.443
 5154W        W77579  35.560  13.165  13.335
 5155W        W77580  27.986   7.241   0.404
 5156W        W77581  35.515  17.165   1.915
 5157W        W77582  39.504   0.814   1.287
 5158W        W77583  11.861  22.652  13.968
 5159W        W77584   3.802   3.863   3.671
 5160W        W77585  13.125  27.459   2.237
 5161W        W77586  16.801  36.868  11.607
 5162W        W77587  18.225  22.704   2.277
 5163W        W77588  25.149  11.323  11.493
 5164W        W77589  30.464  22.726  12.026
 5165W        W77590  11.335  19.693   3.286
 5166W        W77591  20.737  17.663  14.298
 5167W        W77592  30.445   7.765   4.322
 5168W        W77593  15.297   6.812  14.903
 5169W        W77594   7.289  18.239  14.454
 5170W        W77595   3.891  10.796  14.317
 5171W        W77596  28.130  42.446  14.810
 5172W        W77597  37.426  35.079   2.804
 5173W        W77598  43.335  17.149  13.347
 5174W        W77599   4.715   3.403   1.378
 5175W        W77600  17.290  43.432   4.817
 5176W        W77601  34.892   9.686   2.412
 5177W        W77602  10.817  11.711  13.426
 5178W        W77603  39.027  34.453   0.825
 5179W        W77604  17.098  43.297   2.272
 5180W        W77605  24.656  16.131   0.460
 5181W        W77606   9.273  19.075  14.393
 5182W        W77607  12.757   8.872  14.500
 5183W        W77608  24.712   2.391   1.883
 5184W        W77609   0.803  10.787  11.375
 5185W        W77610  28.054  29.935   4.336
 5186W        W77611  26.102   2.462  12.826
 5187W        W77612  17.232  36.058   4.158
 5188W        W77613   9.262  17.560  13.009
 5189W        W77614  25.026  19.227   3.861
 5190W        W77615  33.401  29.545   1.386
 5191W        W77616  11.242  43.820  12.358
 5192W        W77617  14.788  15.266   3.149
 5193W        W77618  36.413  12.615   3.179
 5194W        W77619  40.939   5.221  12.922
 5195W        W77620   6.336  19.536   1.363
 5196W        W77621   4.226  19.568  10.527
 5197W        W77622  20.051   8.378   4.599
 5198W        W77623  19.281  42.974   2.785
 5199W        W77624  22.509   4.397   4.615
 5200W        W77625  35.390   0.930   0.828
 5201W        W77626   9.162  29.525   1.834
 5202W        W77627   6.812  36.920  12.519
 5203W        W77628   0.293  40.969   1.393
 5204W        W77629  25.598  38.039  11.127
 5205W        W77630   1.412  32.935  11.921
 5206W        W77631  27.592  30.142  13.548
 5207W        W77632  24.533   9.212   1.317
 5208W        W77633  39.405  44.960   3.371
 5209W        W77634  20.565  38.440  14.910
 5210W        W77635  25.567  36.374   3.694
 5211W        W77636  12.169  16.777   2.324
 5212W        W77637  39.414  44.793  12.921
 5213W        W77638   3.760   8.799   2.817
 5214W        W77639  28.473  31.520  13.890
 5215W        W77640   8.354  34.004  13.863
 5216W        W77641  30.053   5.756   2.879
 5217W        W77642   1.419  18.181  12.871
 5218W        W77643  14.699  35.861   4.178
 5219W        W77644  27.129  34.396  12.367
 5220W        W77645  34.403  37.481  10.541
 5221W        W77646  36.876  18.577  14.849
 5222W        W77647  44.964  39.422  12.007
 5223W        W77648  28.587   6.878  10.991
 5224W        W77649  25.467  42.956   2.851
 5225W        W77650  31.591  17.231   0.256
 5226W        W77651  34.992  36.973  11.022
 5227W        W77652  15.590  29.493  12.385
 5228W        W77653  26.108   5.882   4.153
 5229W        W77654  40.500  31.114   4.129
 5230W        W77655  24.616   5.828  11.414
 5231W        W77656   0.759  32.570   9.525
 5232W        W77657  23.509  23.047   4.273
 5233W        W77658   3.874  38.028  12.541
 5234W        W77659  27.094  25.201  14.333
 5235W        W77660   8.290  16.622  14.406
 5236W        W77661  27.491  30.102   2.221
 5237W        W77662   9.169  26.140   4.127
 5238W        W77663  25.054  30.637   2.691
 5239W        W77664   3.300   6.186  12.441
 5240W        W77665  25.962  24.221  11.068
 5241W        W77666  41.915   3.397   5.258
 5242W        W77667  29.552   6.294   1.343
 5243W        W77668  22.615   1.364  10.613
 5244W        W77669  35.417  40.815   2.864
 5245W        W77670  20.671  15.226   1.247
 5246W        W77671  22.043  24.483   0.261
 5247W        W77672   9.871  12.659   1.722
 5248W        W77673  12.673   7.689  14.015
 5249W        W77674  39.013  19.210   2.851
 5250W        W77675  26.462  24.508  11.451
 5251W        W77676  25.214  19.630  11.539
 5252W        W77677  28.173  24.049   3.793
 5253W        W77678  33.435  22.663  12.554
 5254W        W77679  38.330  12.118   4.751
 5255W        W77680  16.300  25.550   1.242
 5256W        W77681  38.571  12.705   4.134
 5257W        W77682  15.777   6.409  13.487
 5258W        W77683  35.096   2.746   3.746
 5259W        W77684  32.945  44.288  10.926
 5260W        W77685  11.245  14.310  13.413
 5261W        W77686  37.836  10.717  13.353
 5262W        W77687  39.354  38.935   9.956
 5263W        W77688  40.968  31.404   0.747
 5264W        W77689  25.585  33.436   4.621
 5265W        W77690  19.544  20.240   4.653
 5266W        W77691  26.072  16.753   0.403
 5267W        W77692   8.789  42.926  14.336
 5268W        W77693  20.174   6.703   0.259
 5269W        W77694  31.144  35.531   1.326
 5270W        W77695   8.740  18.131   1.762
 5271W        W77696  44.924  19.084  10.416
 5272W        W77697   5.827  39.832  10.565
 5273W        W77698  39.002  42.295   0.962
 5274W        W77699  28.602  21.630   2.198
 5275W        W77700   4.861  18.788   3.295
 5276W        W77701  29.598  34.432  13.464
 5277W        W77702   8.337  26.030  12.010
 5278W        W77703  18.680  23.675   2.313
 5279W        W77704  12.346  32.076   1.714
 5280W        W77705  14.807  35.921   0.322
 5281W        W77706  10.272  25.050   0.769
 5282W        W77707  17.727  42.951  13.988
 5283W        W77708  29.544  28.043   0.439
 5284W        W77709  29.056   6.294  13.417
 5285W        W77710  15.728  39.965   3.375
 5286W        W77711  43.830  38.511  12.541
 5287W        W77712   6.777  44.974   0.766
 5288W        W77713  37.066  10.306   0.733
 5289W        W77714  31.099  42.962   3.238
 5290W        W77715   5.918  33.599   3.369
 5291W        W77716  40.955  25.967  13.436
 5292W        W77717  29.437  33.515   4.230
 5293W        W77718  33.461  42.463   3.380
 5294W        W77719  12.276   1.937  14.377
 5295W        W77720   1.844  32.424   4.187
 5296W        W77721   4.731  35.930   3.273
 5297W        W77722  21.150  13.741  11.934
 5298W        W77723  35.448   3.262   1.748
 5299W        W77724   5.376  39.969   1.834
 5300W        W77725  44.898   7.258  14.331
 5301W        W77726  31.114   2.792   3.291
 5302W        W77727  28.565   5.896  14.516
 5303W        W77728  39.472  39.821  14.278
 5304W        W77729  19.751   4.860  13.023
 5305W        W77730   4.407  10.279  13.984
 5306W        W77731  24.648  10.737  11.385
 5307W        W77732  37.000   4.761   3.195
 5308W        W77733  36.502  33.485  12.394
 5309W        W77734   3.760   0.861   2.834
 5310W        W77735  19.592  32.013   0.804
 5311W        W77736  40.937  24.611   3.776
 5312W        W77737  22.200  26.987  10.610
 5313W        W77738   1.962  44.442   0.961
 5314W        W77739  26.208  10.168   4.719
 5315W        W77740  12.643  24.631  13.968
 5316W        W77741  12.314  39.524   3.286
 5317W        W77742  40.801  16.580  14.389
 5318W        W77743  33.433   3.419  11.904
 5319W        W77744  37.074  11.159  14.026
 5320W        W77745  27.638  18.746  12.460
 5321W        W77746  34.544  38.466  12.899
 5322W        W77747  40.987  40.954  14.513
 5323W        W77748  29.598  27.028   4.353
 5324W        W77749  13.699  10.734   4.708
 5325W        W77750  28.125  13.632   3.681
 5326W        W77751  33.013  31.142  12.409
 5327W        W77752  40.461  28.994   0.863
 5328W        W77753  19.096  20.233   1.257
 5329W        W77754  24.568   2.226  14.394
 5330W        W77755  28.485  20.041   3.808
 5331W        W77756  23.193  16.190   4.171
 5332W        W77757  31.440  37.428  11.968
 5333W        W77758  38.068  42.502  14.384
 5334W        W77759  22.654  33.876   1.292
 5335W        W77760   5.839  11.217  14.291
 5336W        W77761  29.655   9.660  10.904
 5337W        W77762  41.447  39.558  14.492
 5338W        W77763   2.339   8.784  14.387
 5339W        W77764  19.153  21.099  13.885
 5340W        W77765  42.441  18.605  13.926
 5341W        W77766  34.438  13.300   2.235
 5342W        W77767   7.224  18.689  14.359
 5343W        W77768  16.210  21.731   2.809
 5344W        W77769   1.380  14.282   3.185
 5345W        W77770  26.477   0.880   5.286
 5346W        W77771  38.870  41.960   1.213
 5347W        W77772  25.486  26.546  10.485
 5348W        W77773  41.844  22.663   3.171
 5349W        W77774  28.115  40.483   4.313
 5350W        W77775  31.037  20.170   4.810
 5351W        W77776   8.677   3.911   4.240
 5352W        W77777   2.228  13.271   1.338
 5353W        W77778   2.233  44.364  11.107
 5354W        W77779   2.247  41.324  11.993
 5355W        W77780  15.271  20.543   3.800
 5356W        W77781  19.743  44.484  12.004
 5357W        W77782   1.399  37.865   4.764
 5358W        W77783  41.367  22.532   9.438
 5359W        W77784  28.931   9.165  12.007
 5360W        W77785  38.472  20.147   0.343
 5361W        W77786  28.442   5.844   2.406
 5362W        W77787  44.449   9.153  10.157
 5363W        W77788  38.553  43.275  13.389
 5364W        W77789  17.247  24.047  10.431
 5365W        W77790   7.306  29.995  10.555
 5366W        W77791  42.462   8.395  13.954
 5367W        W77792   4.280  38.003   3.318
 5368W        W77793  33.468  33.433   5.314
 5369W        W77794  30.912  26.669  11.569
 5370W        W77795  16.610  30.531  12.440
 5371W        W77796   0.811  14.195  11.898
 5372W        W77797  22.641  18.699  10.531
 5373W        W77798  30.157  18.683  13.025
 5374W        W77799  30.427   0.344  14.780
 5375W        W77800  40.908   1.844   3.695
 5376W        W77801  43.900  33.907   3.179
 5377W        W77802  10.265   4.939  11.875
 5378W        W77803  10.283  42.940   2.801
 5379W        W77804  37.374   5.812   0.798
 5380W        W77805  21.146  12.686   1.367
 5381W        W77806  38.847  33.610  14.482
 5382W        W77807  21.570   9.324   4.682
 5383W        W77808  30.466   6.197  14.995
 5384W        W77809  25.200  16.142   0.252
 5385W        W77810  22.688  24.624   3.249
 5386W        W77811  30.004   8.715   0.814
 5387W        W77812   3.814   3.421   2.272
 5388W        W77813  33.620   8.183   2.310
 5389W        W77814  31.120  19.282   3.663
 5390W        W77815  22.605   2.939   1.350
 5391W        W77816  24.991  22.575  11.123
 5392W        W77817  18.599  28.170   1.902
 5393W        W77818  43.897  21.252   4.115
 5394W        W77819  35.058  38.863   2.408
 5395W        W77820  40.468  25.687   2.829
 5396W        W77821  36.923  30.497  11.450
 5397W        W77822  19.256  19.560  11.104
 5398W        W77823  25.998   7.283   0.264
 5399W        W77824  13.734  24.061  10.045
 5400W        W77825  24.707  38.046  10.565
 5401W        W77826   1.370  42.497   4.624
 5402W        W77827  36.564  31.563   3.656
 5403W        W77828  43.365  44.479  10.146
 5404W        W77829  32.114  39.463  12.369
 5405W        W77830  36.537  26.558   1.403
 5406W        W77831  29.931  37.441   2.407
 5407W        W77832   2.324   0.371  11.496
 5408W        W77833   7.868  39.502   4.664
 5409W        W77834  30.049  19.738   2.836
 5410W        W77835  22.058  37.915  12.547
 5411W        W77836  39.897  21.537  14.501
 5412W        W77837  41.908  13.219  13.366
 5413W        W77838  36.588  40.356   3.172
 5414W        W77839  20.563  40.050  11.530
 5415W        W77840  41.506  17.237   0.780
 5416W        W77841   6.755  11.727  11.927
 5417W        W77842  16.797  25.198  10.607
 5418W        W77843  38.549  39.027  14.835
 5419W        W77844   8.366  17.085  14.342
 5420W        W77845  14.265  21.104  10.040
 5421W        W77846   6.740  19.246  13.933
 5422W        W77847  35.449  23.059   1.829
 5423W        W77848  13.264  36.076   4.307
 5424W        W77849  15.639  12.312   4.284
 5425W        W77850  16.745  35.095  13.923
 5426W        W77851  15.316  16.315  11.974
 5427W        W77852   8.661  32.417   2.387
 5428W        W77853   5.906  21.119  12.339
 5429W        W77854  18.188   0.984  14.509
 5430W        W77855  26.675  11.627  12.577
 5431W        W77856  19.570  16.667  14.848
 5432W        W77857   4.393  41.393  13.433
 5433W        W77858  36.864  38.411  10.889
 5434W        W77859  21.676  31.568   3.765
 5435W        W77860  28.519  19.183   2.812
 5436W        W77861  19.734   5.365   3.297
 5437W        W77862   9.219  25.541   2.696
 5438W        W77863  43.951  18.596   0.780
 5439W        W77864   8.854  25.022  12.487
 5440W        W77865  27.490  16.789   3.695
 5441W        W77866  13.613  31.983  14.409
 5442W        W77867  34.505  24.600  12.567
 5443W        W77868   7.793  25.075   0.756
 5444W        W77869  26.630   6.304   2.786
 5445W        W77870  43.968   1.856  11.553
 5446W        W77871  12.118  14.194   1.805
 5447W        W77872  20.037   0.952   2.190
 5448W        W77873  27.661   6.696  12.439
 5449W        W77874  33.597  17.129   4.126
 5450W        W77875  42.963   3.298  11.486
 5451W        W77876   4.386  32.507   4.199
 5452W        W77877  10.735  30.966   2.672
 5453W        W77878  13.133  28.114  11.011
 5454W        W77879  41.296  41.538   0.451
 5455W        W77880  14.823  26.661   3.775
 5456W        W77881   9.250  37.539  14.841
 5457W        W77882  21.091  12.851  11.907
 5458W        W77883   0.331  29.052   2.248
 5459W        W77884  40.984  36.416  10.486
 5460W        W77885  44.496  16.791  10.054
 5461W        W77886  10.311  13.827  14.029
 5462W        W77887  15.660  40.361  10.561
 5463W        W77888   8.377  25.605   0.430
 5464W        W77889  39.963  41.391  10.411
 5465W        W77890  33.954  16.299   4.735
 5466W        W77891  10.866   4.420  13.833
 5467W        W77892   7.410   7.269   2.661
 5468W        W77893  34.416  40.365   2.405
 5469W        W77894   7.794  13.184   0.881
 5470W        W77895   0.758  12.190   4.835
 5471W        W77896  36.919  43.827  10.570
 5472W        W77897   1.392  23.551  12.404
 5473W        W77898  18.752  10.365  13.328
 5474W        W77899  17.063  13.345   2.807
 5475W        W77900  32.012  27.507   0.438
 5476W        W77901  33.604  12.675   4.195
 5477W        W77902  11.264  24.033   1.214
 5478W        W77903  27.489  42.801   0.398
 5479W        W77904  44.450  27.457  10.592
 5480W        W77905  18.197   9.175   0.759
 5481W        W77906  37.849  42.786   0.834
 5482W        W77907  36.399  21.036   1.219
 5483W        W77908  39.361  30.549  13.489
 5484W        W77909  13.622   1.939  10.571
 5485W        W77910   2.722   0.858  12.856
 5486W        W77911  25.480   6.233  12.010
 5487W        W77912  27.472  23.125  13.364
 5488W        W77913  26.543  36.042   4.791
 5489W        W77914  37.506  17.704  13.903
 5490W        W77915   7.796  44.901  13.834
 5491W        W77916  18.629  19.552   4.287
 5492W        W77917  12.626  40.419  12.091
 5493W        W77918  10.735  11.299   2.780
 5494W        W77919   1.946  33.087  10.524
 5495W        W77920  35.442   4.729   1.393
 5496W        W77921  39.991   1.798   0.361
 5497W        W77922  32.399   2.229   2.222
 5498W        W77923  22.674  42.012   3.189
 5499W        W77924  38.490  25.163  10.985
 5500W        W77925  42.366  42.799  12.894
 5501W        W77926  11.671  28.103   3.345
 5502W        W77927   3.419  32.115  14.784
 5503W        W77928  26.674  38.063   0.469
 5504W        W77929  35.902  21.241   3.243
 5505W        W77930  41.403   8.365  13.847
 5506W        W77931  17.750  30.004  11.445
 5507W        W77932  11.335  29.638   0.295
 5508W        W77933   2.967  26.163  13.439
 5509W        W77934  24.227  42.917   0.726
 5510W        W77935  31.533  23.232   1.816
 5511W        W77936  43.496  29.139   3.322
 5512W        W77937  31.908   9.721   2.255
 5513W        W77938  38.948  32.507  12.450
 5514W        W77939  39.884  13.780  10.494
 5515W        W77940   6.346  22.110  13.891
 5516W        W77941   3.410   4.304  13.483
 5517W        W77942  43.975  25.027   3.696
 5518W        W77943  14.312  30.097  14.298
 5519W        W77944   6.846  41.798  14.936
 5520W        W77945  38.951   8.302  12.892
 5521W        W77946  36.026  21.225   4.756
 5522W        W77947   9.328  38.055  10.490
 5523W        W77948  20.144   4.257  13.362
 5524W        W77949  40.418  24.582  12.930
 5525W        W77950  28.996   9.355   3.732
 5526W        W77951  21.236  34.090  13.332
 5527W        W77952   9.314  21.180   1.260
 5528W        W77953  42.802  14.125   4.349
 5529W        W77954  30.026  16.124  12.088
 5530W        W77955   2.941  29.491  12.874
 5531W        W77956   8.779  27.548  11.551
 5532W        W77957  34.370   7.357   2.269
 5533W        W77958  10.367  20.179  13.810
 5534W        W77959  44.848  14.268  10.615
 5535W        W77960   9.253  17.238  12.858
 5536W        W77961  15.268   8.744   0.913
 5537W        W77962   1.894  24.115  13.400
 5538W        W77963  15.124  27.454  14.392
 5539W        W77964  34.991   9.726  14.931
 5540W        W77965  42.842   0.951   0.322
 5541W        W77966  24.228  12.274   1.769
 5542W        W77967   5.768   6.257   3.186
 5543W        W77968   7.342  19.673   5.115
 5544W        W77969   2.916  21.109   2.688
 5545W        W77970   5.293  27.535  12.400
 5546W        W77971  20.082  19.093   1.817
 5547W        W77972  37.538  44.472  12.982
 5548W        W77973   1.741   7.852   2.253
 5549W        W77974  25.657  28.108  10.468
 5550W        W77975  16.601   9.159   0.396
 5551W        W77976  29.052  10.173  12.857
 5552W        W77977  39.042  13.680   3.149
 5553W        W77978  23.693  40.451   1.873
 5554W        W77979   0.440  20.552  14.840
 5555W        W77980  41.420   4.856  14.025
 5556W        W77981  39.481  24.008  13.887
 5557W        W77982  39.531  24.508  14.914
 5558W        W77983  43.872  42.817   0.921
 5559W        W77984  36.507  37.940   4.684
 5560W        W77985  17.563  13.131  11.465
 5561W        W77986  13.829   2.751  10.084
 5562W        W77987  11.235  33.098  11.549
 5563W        W77988   8.290  15.589   4.251
 5564W        W77989  18.191   2.804   4.604
 5565W        W77990  27.136  42.465  14.509
 5566W        W77991  44.830  44.782  10.476
 5567W        W77992   8.721  44.849   4.640
 5568W        W77993   8.686  32.403  10.620
 5569W        W77994   8.309  29.553  10.474
 5570W        W77995  32.955  21.255   1.870
 5571W        W77996  30.561   7.200   4.717
 5572W        W77997   3.837  13.217   2.864
 5573W        W77998  21.635   1.278  11.543
 5574W        W77999  18.565  21.551   3.808
 5575W        W78000   9.263  40.467   2.714
 5576W        W78001   1.810  15.664   3.177
 5577W        W78002  28.498   8.216   1.425
 5578W        W78003  10.377  18.770  13.049
 5579W        W78004  24.048  17.170  11.546
 5580W        W78005  14.832  21.695  10.439
 5581W        W78006  10.725  22.712   9.990
 5582W        W78007  20.562  37.397   1.850
 5583W        W78008  37.916  42.282  13.404
 5584W        W78009  42.513  17.068  12.914
 5585W        W78010  11.213  35.432   2.730
 5586W        W78011  18.772  21.638  11.414
 5587W        W78012   9.381  22.176  11.923
 5588W        W78013  19.630  36.074   3.820
 5589W        W78014   1.867  44.297  11.524
 5590W        W78015   3.882  17.219   0.923
 5591W        W78016  25.990  21.594  10.433
 5592W        W78017  36.430  35.063  13.338
 5593W        W78018  43.788  30.623  12.365
 5594W        W78019   5.334  12.835  11.962
 5595W        W78020  44.362  10.826   0.887
 5596W        W78021  33.961  18.128   2.402
 5597W        W78022  44.502  15.654  11.906
 5598W        W78023  42.836  27.525   2.338
 5599W        W78024   4.261  11.172  14.833
 5600W        W78025  16.803  25.536  13.804
 5601W        W78026  39.463   1.414  12.897
 5602W        W78027  30.464  44.753  13.439
 5603W        W78028  31.532  10.254   2.900
 5604W        W78029  25.045  26.469  14.851
 5605W        W78030  12.694  39.943  13.451
 5606W        W78031  27.470   5.697   3.267
 5607W        W78032  26.574   8.841  13.429
 5608W        W78033  29.061  25.673  10.615
 5609W        W78034   1.413  39.339  14.768
 5610W        W78035   8.333  32.411  13.447
 5611W        W78036  12.334  17.190   4.836
 5612W        W78037   1.355  36.015  10.412
 5613W        W78038  38.844  33.878  11.928
 5614W        W78039  14.730  32.564   2.393
 5615W        W78040  38.965   0.814   4.354
 5616W        W78041   9.786   2.895   2.844
 5617W        W78042  12.270   1.803  12.894
 5618W        W78043  34.605  29.940   3.751
 5619W        W78044  40.322  27.553  11.398
 5620W        W78045  29.148   8.339  11.454
 5621W        W78046  11.729  30.589   4.278
 5622W        W78047  29.425  29.139   1.340
 5623W        W78048  23.228  23.028  12.526
 5624W        W78049  32.944  31.103  11.425
 5625W        W78050   4.882  30.485  14.496
 5626W        W78051  21.017  21.101   4.656
 5627W        W78052  21.632  43.509  11.954
 5628W        W78053  29.459  27.492  14.810
 5629W        W78054  10.300   9.361  11.524
 5630W        W78055   2.323  25.131   1.796
 5631W        W78056  25.996   3.381   3.261
 5632W        W78057  28.018   4.234   2.817
 5633W        W78058  13.286  30.914   3.323
 5634W        W78059  36.363  20.652  11.567
 5635W        W78060  26.465  42.371  11.547
 5636W        W78061  10.256  12.800   2.899
 5637W        W78062  16.606  35.394   4.158
 5638W        W78063  11.169  31.028  12.033
 5639W        W78064  39.450  44.834   0.391
 5640W        W78065  25.560  18.675  10.900
 5641W        W78066  28.929  20.600  11.942
 5642W        W78067  44.964   7.378  11.382
 5643W        W78068  23.159  20.035   0.776
 5644W        W78069  34.416  42.977  11.489
 5645W        W78070  35.021  40.003  14.842
 5646W        W78071  24.632  43.463  14.423
 5647W        W78072  23.580   7.331  14.880
 5648W        W78073   7.244  14.125   2.262
 5649W        W78074   3.888  44.766   0.776
 5650W        W78075   1.824  26.696  10.489
 5651W        W78076  13.841  34.613   2.384
 5652W        W78077   6.234  37.070  10.486
 5653W        W78078  21.732  32.520   1.870
 5654W        W78079  22.694  38.917  11.034
 5655W        W78080  33.544  26.635   3.750
 5656W        W78081  30.068  12.135  10.603
 5657W        W78082  38.895  26.666  13.421
 5658W        W78083   3.313   1.824   3.820
 5659W        W78084  22.665  40.033   0.404
 5660W        W78085   2.466  16.577   3.284
 5661W        W78086   3.924  21.064  10.475
 5662W        W78087  24.605  13.832  13.032
 5663W        W78088  40.020   2.821  10.507
 5664W        W78089  33.091  35.987  14.329
 5665W        W78090   0.790   0.865   2.864
 5666W        W78091  22.690  31.930   0.335
 5667W        W78092  21.039  22.068   4.669
 5668W        W78093  10.760  34.925  14.417
 5669W        W78094   3.355   9.660   2.710
 5670W        W78095  38.355  40.422   2.369
 5671W        W78096  15.089  38.037  10.607
 5672W        W78097  29.590  32.563  11.023
 5673W        W78098  28.517  11.313   0.250
 5674W        W78099   7.758  42.307  13.926
 5675W        W78100  43.768   3.851  13.398
 5676W        W78101   6.865   8.883   3.247
 5677W        W78102   2.834  20.029   0.309
 5678W        W78103  22.174   5.698   2.704
 5679W        W78104   0.440   1.321  12.839
 5680W        W78105  25.595  19.105   2.317
 5681W        W78106  18.266   2.333  14.878
 5682W        W78107  28.647  41.874   2.850
 5683W        W78108  43.833  31.484  12.990
 5684W        W78109  39.935  29.603   2.899
 5685W        W78110  11.318  32.581   4.807
 5686W        W78111  23.998  34.491  12.899
 5687W        W78112  14.708  42.500  10.615
 5688W        W78113  34.987  12.833   3.720
 5689W        W78114  17.247  40.514  14.878
 5690W        W78115  24.089  42.829  12.557
 5691W        W78116  11.360   8.864   3.356
 5692W        W78117  22.234  18.261  10.934
 5693W        W78118  25.085  37.412   3.287
 5694W        W78119   4.250  23.715  13.054
 5695W        W78120  22.077  41.026  11.093
 5696W        W78121  30.639  26.130  10.933
 5697W        W78122  34.912  11.673  13.462
 5698W        W78123  19.663  29.050  12.550
 5699W        W78124  14.096   2.278   1.711
 5700W        W78125  15.281  17.730   2.746
 5701W        W78126  25.583   3.754   3.211
 5702W        W78127  24.028   6.394  11.995
 5703W        W78128   5.310  11.796  10.513
 5704W        W78129  44.886  34.519  13.894
 5705W        W78130  33.527  17.770  13.965
 5706W        W78131  10.661   5.328   3.731
 5707W        W78132  16.170  36.359  11.971
 5708W        W78133  42.332   3.459   3.286
 5709W        W78134  35.402  10.800   4.641
 5710W        W78135  13.252  44.361   3.822
 5711W        W78136  21.138   4.341   1.777
 5712W        W78137  14.735  33.064   9.626
 5713W        W78138   7.353  30.121  11.569
 5714W        W78139  31.124  30.940   2.898
 5715W        W78140  15.191  43.485   1.912
 5716W        W78141  44.265  23.164  13.034
 5717W        W78142  39.007  39.021   4.200
 5718W        W78143  21.235  12.143   4.293
 5719W        W78144   7.810   2.822  10.569
 5720W        W78145   8.879  16.105  13.512
 5721W        W78146  42.290  23.567  11.560
 5722W        W78147   6.908  34.385  11.599
 5723W        W78148  21.164  32.141   1.283
 5724W        W78149  19.159   3.743  13.436
 5725W        W78150  10.155  10.339   0.873
 5726W        W78151   3.319  33.448  12.511
 5727W        W78152  39.318  36.363   2.727
 5728W        W78153  15.788  35.950   3.805
 5729W        W78154  27.534  44.845   1.291
 5730W        W78155  10.228  27.492   0.887
 5731W        W78156  40.956  10.167   2.283
 5732W        W78157   8.236  43.790   3.186
 5733W        W78158  25.061  25.202   3.663
 5734W        W78159  19.277   7.687  13.795
 5735W        W78160  39.348  20.065   3.265
 5736W        W78161  44.333  40.494  14.442
 5737W        W78162   7.679  38.031  13.521
 5738W        W78163  20.122  40.539  13.955
 5739W        W78164  34.412   4.856  14.933
 5740W        W78165  41.868  26.996   0.762
 5741W        W78166  22.741   7.354   3.834
 5742W        W78167  34.421  30.097   2.192
 5743W        W78168   2.322  40.418   0.359
 5744W        W78169  37.419  42.897   5.130
 5745W        W78170  14.101  24.102  12.895
 5746W        W78171  28.480  40.330   1.789
 5747W        W78172  21.540  39.504  13.327
 5748W        W78173  15.611  32.448   2.192
 5749W        W78174  17.061  19.044  10.450
 5750W        W78175  25.646  22.230  11.880
 5751W        W78176   4.880  23.605  11.373
 5752W        W78177   4.398  42.308   0.806
 5753W        W78178   9.869  15.164  14.329
 5754W        W78179  43.424  37.031  12.533
 5755W        W78180  18.147  20.756  13.898
 5756W        W78181  21.723  17.746   1.746
 5757W        W78182  44.397  28.936   2.884
 5758W        W78183  22.115   9.888   0.934
 5759W        W78184  10.803  41.954   0.275
 5760W        W78185   8.681  24.220  14.861
 5761W        W78186  40.393  21.717   3.311
 5762W        W78187  23.492   7.818  14.867
 5763W        W78188   6.394  35.081   1.863
 5764W        W78189   9.861  26.633  12.524
 5765W        W78190  24.149   9.816  10.961
 5766W        W78191  39.983  38.375  11.435
 5767W        W78192  43.282  14.163   2.840
 5768W        W78193  20.546  19.162  10.611
 5769W        W78194  16.591  39.414   3.699
 5770W        W78195  16.179  11.285  12.393
 5771W        W78196  38.485  40.407  10.610
 5772W        W78197  20.212   6.816   3.235
 5773W        W78198  36.857  25.095  12.452
 5774W        W78199   1.388  10.681  14.968
 5775W        W78200  37.343  17.614   1.859
 5776W        W78201  22.545  29.995  10.911
 5777W        W78202  33.410  38.391  12.484
 5778W        W78203  16.727  34.455  12.853
 5779W        W78204   6.397  12.138   2.880
 5780W        W78205  43.488  19.205   0.818
 5781W        W78206  39.489  41.900  13.540
 5782W        W78207  33.925  24.482   3.333
 5783W        W78208   9.805  22.613  14.472
 5784W        W78209  40.889  26.101   0.267
 5785W        W78210  37.399   4.710  14.796
 5786W        W78211  12.276  40.496  14.800
 5787W        W78212  34.486  30.446   4.744
 5788W        W78213  36.045  32.057   9.995
 5789W        W78214  10.216  34.586  14.781
 5790W        W78215  14.142  34.022   2.848
 5791W        W78216  30.526  40.997  11.009
 5792W        W78217  33.990  26.049  13.404
 5793W        W78218  11.197  11.707   4.153
 5794W        W78219  42.852  18.703   1.321
 5795W        W78220   1.381  12.359  14.286
 5796W        W78221  29.048   8.887  11.048
 5797W        W78222  41.958  39.316   3.358
 5798W        W78223  20.090   7.769  14.867
 5799W        W78224  10.294   4.846   2.851
 5800W        W78225  20.040  43.020  10.475
 5801W        W78226  27.006  35.967  10.499
 5802W        W78227  23.596  20.127   0.294
 5803W        W78228  35.858   2.295   2.258
 5804W        W78229  44.482  25.588  13.500
 5805W        W78230  37.017  36.468  10.484
 5806W        W78231  44.794  33.566  13.405
 5807W        W78232   6.734   2.299  13.049
 5808W        W78233  42.941  18.208  12.950
 5809W        W78234  42.367  13.798   0.878
 5810W        W78235  39.939  15.812   2.205
 5811W        W78236  14.165  35.429  11.078
 5812W        W78237  17.145  40.457  14.289
 5813W        W78238  24.182   6.234  12.507
 5814W        W78239  39.389  26.582   4.612
 5815W        W78240  43.301   0.283  14.331
 5816W        W78241  37.914  42.882   1.368
 5817W        W78242   7.780  19.677   5.252
 5818W        W78243  13.663  42.921   5.302
 5819W        W78244   4.318  15.295   2.184
 5820W        W78245   0.968   9.161  13.460
 5821W        W78246   6.402  44.483   0.944
 5822W        W78247  25.114  28.169  12.510
 5823W        W78248  38.498  25.183  10.608
 5824W        W78249   2.251  39.468  13.023
 5825W        W78250  33.560  18.637   2.358
 5826W        W78251  18.197  37.346  13.835
 5827W        W78252  12.312  36.087  11.522
 5828W        W78253  26.462  22.520  12.421
 5829W        W78254  23.083   1.946   2.224
 5830W        W78255   7.769  24.644  10.430
 5831W        W78256  38.424  43.824  11.024
 5832W        W78257  29.029  23.161  14.827
 5833W        W78258  20.544  38.945  11.463
 5834W        W78259  14.794  12.300   0.350
 5835W        W78260  28.045  33.432   4.300
 5836W        W78261   4.824   3.432  11.971
 5837W        W78262  38.028  40.314   2.417
 5838W        W78263   4.238  33.492   1.770
 5839W        W78264  11.178  15.721  11.599
 5840W        W78265  26.024  40.439   0.746
 5841W        W78266  38.436   0.799   2.675
 5842W        W78267  14.749  11.312   4.720
 5843W        W78268  44.850   0.469  12.542
 5844W        W78269  44.425   7.864  12.544
 5845W        W78270  36.412  40.483   1.238
 5846W        W78271   9.222  37.938   4.236
 5847W        W78272   7.896  11.701   2.897
 5848W        W78273  21.685  25.541  13.457
 5849W        W78274  28.636  32.993   4.838
 5850W        W78275  24.017  17.260   4.292
 5851W        W78276  15.639  14.248   1.404
 5852W        W78277   2.858  19.246  11.868
 5853W        W78278  30.158  11.816  10.522
 5854W        W78279  12.263  21.233   4.228
 5855W        W78280  44.914   6.749   1.411
 5856W        W78281  20.563  37.929   1.745
 5857W        W78282  22.522  31.904   0.821
 5858W        W78283  24.171  21.150   1.930
 5859W        W78284   6.801  30.597   2.248
 5860W        W78285  43.823  37.881  11.927
 5861W        W78286  27.540   3.779  11.106
 5862W        W78287  42.480  20.725   1.866
 5863W        W78288  44.318  38.925  12.835
 5864W        W78289  39.431  11.272   3.369
 5865W        W78290  37.409  22.103  10.050
 5866W        W78291  14.649  18.056  11.590
 5867W        W78292  34.094  18.727  13.319
 5868W        W78293  24.190   6.216   0.738
 5869W        W78294  35.903  12.248   4.794
 5870W        W78295  15.677  35.512  14.944
 5871W        W78296  40.406  25.539  11.921
 5872W        W78297  38.937  44.397   2.882
 5873W        W78298  11.636  37.472  11.903
 5874W        W78299   8.681  42.383  12.885
 5875W        W78300   8.266  25.153  10.892
 5876W        W78301  24.135  43.311  11.446
 5877W        W78302   0.306  44.477   0.922
 5878W        W78303  19.058  40.375  11.964
 5879W        W78304  15.267  27.094   1.307
 5880W        W78305  36.418  41.436  11.397
 5881W        W78306  23.504  14.593  12.360
 5882W        W78307  20.742  41.790  13.887
 5883W        W78308  43.916   8.183  13.481
 5884W        W78309   4.367  44.778   4.345
 5885W        W78310   7.779   2.777  10.977
 5886W        W78311   6.919  36.005   1.362
 5887W        W78312  15.163   7.284   4.829
 5888W        W78313  25.501  15.722  11.116
 5889W        W78314   8.249  36.049   0.937
 5890W        W78315  19.225  41.526  10.995
 5891W        W78316  18.224   8.274  11.062
 5892W        W78317  13.613  30.147   1.367
 5893W        W78318   8.346  12.626   1.736
 5894W        W78319  24.152  11.250   4.611
 5895W        W78320   6.802  28.183  14.764
 5896W        W78321  11.190  21.262  11.988
 5897W        W78322  40.990  29.631   1.757
 5898W        W78323   4.212  44.350   9.947
 5899W        W78324  36.006  14.769   3.205
 5900W        W78325   2.751  42.914  14.308
 5901W        W78326   9.204  36.856   1.383
 5902W        W78327  30.918  43.824  11.434
 5903W        W78328  18.658   0.379   3.347
 5904W        W78329   0.302  37.006  14.420
 5905W        W78330  25.701  32.032   4.678
 5906W        W78331  16.807   1.871   4.638
 5907W        W78332  16.603  32.628  14.320
 5908W        W78333  40.306  30.998  11.907
 5909W        W78334  22.575  31.434   0.358
 5910W        W78335   9.236  35.514   1.416
 5911W        W78336   2.437   3.276   9.983
 5912W        W78337   8.344  17.691   0.429
 5913W        W78338   1.922  28.681  13.019
 5914W        W78339  17.561  31.921  14.818
 5915W        W78340  33.413  14.724  13.818
 5916W        W78341  38.541  15.234   1.451
 5917W        W78342   3.293  12.138  13.350
 5918W        W78343  12.820  42.329   0.795
 5919W        W78344  29.940  31.061   1.761
 5920W        W78345  15.818  16.288  10.598
 5921W        W78346  40.837   3.713  12.485
 5922W        W78347  12.344  19.727  13.913
 5923W        W78348  44.935  11.143  14.911
 5924W        W78349  31.433  19.259   3.372
 5925W        W78350  34.514  14.662  14.023
 5926W        W78351  16.669   4.420   2.291
 5927W        W78352   3.425  13.735   3.709
 5928W        W78353  24.619  28.666   3.818
 5929W        W78354  30.582   6.893   4.326
 5930W        W78355  34.006  11.215  13.938
 5931W        W78356  10.769  32.026   9.997
 5932W        W78357  17.237  15.290   4.241
 5933W        W78358  17.285  43.397   4.217
 5934W        W78359   6.904  41.415   1.432
 5935W        W78360  33.510  36.889   0.353
 5936W        W78361   1.909  10.268   2.833
 5937W        W78362   4.366   4.367  11.528
 5938W        W78363  30.621  23.568  12.432
 5939W        W78364  35.080   8.662   4.277
 5940W        W78365  36.945  36.528  12.527
 5941W        W78366  33.084  34.980   0.249
 5942W        W78367  16.235  44.949  12.093
 5943W        W78368   5.326  20.268  14.282
 5944W        W78369  12.665  24.691   2.325
 5945W        W78370  34.068  29.524  14.001
 5946W        W78371  10.838  32.390  10.445
 5947W        W78372  14.834  32.548  12.985
 5948W        W78373  37.882  37.862  11.468
 5949W        W78374  20.072  12.811   0.748
 5950W        W78375  12.265  13.345   3.634
 5951W        W78376  22.555  38.361   2.763
 5952W        W78377   2.934  28.435  12.836
 5953W        W78378  31.928  20.629   0.907
 5954W        W78379  14.204  37.011  11.510
 5955W        W78380  35.963  18.551   1.373
 5956W        W78381   1.381  42.526  10.471
 5957W        W78382  13.636   5.325   1.811
 5958W        W78383   6.281  40.830   3.372
 5959W        W78384  18.234  23.040   1.858
 5960W        W78385  41.331  13.665  12.980
 5961W        W78386  22.721  23.563   1.315
 5962W        W78387  43.395  30.013   0.789
 5963W        W78388  14.688  23.733  12.027
 5964W        W78389  23.663   1.874   4.190
 5965W        W78390  10.833  20.233  12.825
 5966W        W78391   4.874  31.502   4.252
 5967W        W78392  13.805   1.286   3.159
 5968W        W78393   2.830  39.472   4.250
 5969W        W78394  42.351   7.262  13.340
 5970W        W78395   1.307  15.107   0.270
 5971W        W78396  36.968  39.977  12.340
 5972W        W78397   4.212   3.918  10.506
 5973W        W78398  11.638  14.777  10.408
 5974W        W78399  30.447   7.704   1.285
 5975W        W78400  34.607  35.574   1.794
 5976W        W78401  26.655  22.535  11.984
 5977W        W78402  44.861   3.805  11.068
 5978W        W78403  26.205  40.463   1.276
 5979W        W78404   0.761  43.340   3.246
 5980W        W78405  14.340  28.497   1.873
 5981W        W78406   1.285  19.585  14.888
 5982W        W78407  21.634  14.787  10.898
 5983W        W78408  28.999  40.982   1.300
 5984W        W78409  36.456   7.902  14.881
 5985W        W78410   4.894  23.508   3.658
 5986W        W78411  35.440  20.214   0.776
 5987W        W78412  26.608  11.139  13.005
 5988W        W78413  14.633  24.056   3.853
 5989W        W78414  19.050  29.586  10.597
 5990W        W78415  24.159  24.121  10.092
 5991W        W78416  29.070  37.578   2.711
 5992W        W78417  33.052  18.289  13.435
 5993W        W78418   5.717  41.846  13.990
 5994W        W78419  20.763  34.430   0.445
 5995W        W78420  42.781   6.874  13.323
 5996W        W78421  20.720  26.642  12.991
 5997W        W78422  31.495  14.657   4.786
 5998W        W78423  42.870  32.897  12.898
 5999W        W78424  25.983   1.855   2.864
 6000W        W78425  39.914  35.872   0.945
 6001W        W78426  42.794  14.167  13.478
 6002W        W78427  32.632  27.961  12.347
 6003W        W78428  36.993  23.683   4.296
 6004W        W78429  20.200  27.482   4.767
 6005W        W78430  24.701   4.872   0.899
 6006W        W78431  11.202  32.128  13.008
 6007W        W78432  38.981  27.063   4.314
 6008W        W78433  23.010   1.869   0.929
 6009W        W78434  39.905  17.748  13.371
 6010W        W78435  17.802  10.142   0.369
 6011W        W78436  15.326  26.107  13.444
 6012W        W78437  41.825  23.053   3.227
 6013W        W78438  41.848  22.647  12.018
 6014W        W78439   5.755  10.730  12.378
 6015W        W78440  44.369  39.432   0.378
 6016W        W78441  15.702  13.245  14.405
 6017W        W78442   9.181   4.909  11.599
 6018W        W78443   5.309   4.217   0.431
 6019W        W78444   3.843  23.161  13.990
 6020W        W78445  16.802  42.475  13.510
 6021W        W78446  12.293  23.641   2.236
 6022W        W78447   0.932  44.986   4.774
 6023W        W78448  30.514   9.679   3.245
 6024W        W78449   4.267   5.902  14.973
 6025W        W78450  32.460  27.973   4.741
 6026W        W78451  32.624  33.040   4.160
 6027W        W78452  36.430   6.892   0.841
 6028W        W78453  18.697  11.823  14.472
 6029W        W78454  32.430   4.401  14.004
 6030W        W78455  18.120  18.711   1.779
 6031W        W78456  31.080   0.758   4.802
 6032W        W78457   0.922  19.134   3.851
 6033W        W78458  22.107  35.069   0.758
 6034W        W78459  10.848  16.083   2.818
 6035W        W78460  13.204  27.556  14.868
 6036W        W78461   8.659  19.719  14.416
 6037W        W78462  41.518   9.837   3.290
 6038W        W78463  13.201  14.150   2.774
 6039W        W78464  37.498  43.803   0.375
 6040W        W78465  12.350  21.518  14.912
 6041W        W78466  43.015  15.127   4.165
 6042W        W78467  39.978  19.047  10.969
 6043W        W78468  19.681   0.954  13.840
 6044W        W78469  25.986  25.177   0.845
 6045W        W78470  21.147  22.083   1.358
 6046W        W78471  26.147  25.993   2.410
 6047W        W78472   4.359   0.373   2.807
 6048W        W78473  30.479  26.582   4.719
 6049W        W78474  24.031  15.121  14.320
 6050W        W78475  17.212  24.022   2.690
 6051W        W78476  17.728  22.248   2.404
 6052W        W78477   7.709  32.083   4.347
 6053W        W78478  32.103  24.497   1.287
 6054W        W78479  29.427  29.017  12.034
 6055W        W78480  37.549  15.681   2.283
 6056W        W78481  19.541  20.200   2.761
 6057W        W78482  36.553   8.767  14.906
 6058W        W78483  23.523  36.538   2.271
 6059W        W78484  12.124   6.870  12.388
 6060W        W78485  29.621  18.742  12.434
 6061W        W78486  43.435  15.710  11.926
 6062W        W78487  23.662  23.731   3.263
 6063W        W78488  17.674  39.965  11.038
 6064W        W78489  17.666  32.928  10.488
 6065W        W78490  34.442   7.235   2.808
 6066W        W78491  34.876  21.029   2.419
 6067W        W78492   2.273  28.071   3.739
 6068W        W78493  39.927   8.382  11.904
 6069W        W78494  16.146   2.305   0.900
 6070W        W78495  24.480  11.675   0.825
 6071W        W78496  14.171  43.381  10.634
 6072W        W78497  39.465  40.338   3.220
 6073W        W78498  43.959  19.127  11.970
 6074W        W78499  43.928  19.088   4.641
 6075W        W78500  25.594  31.552  10.047
 6076W        W78501   5.197  31.448   0.322
 6077W        W78502  35.874  24.034  11.585
 6078W        W78503   2.953  40.919  14.848
 6079W        W78504   6.239  26.631   5.163
 6080W        W78505  43.980  18.767   3.833
 6081W        W78506   2.839  39.846   1.831
 6082W        W78507  36.451  16.731   0.340
 6083W        W78508  17.121  42.846  11.918
 6084W        W78509   9.342  37.465   1.722
 6085W        W78510  23.535  40.977  12.060
 6086W        W78511  13.109  15.596   1.702
 6087W        W78512  25.607  11.805   1.397
 6088W        W78513   8.217   6.285  11.089
 6089W        W78514  41.392   9.186   2.811
 6090W        W78515  42.964  19.612   0.440
 6091W        W78516   7.222  31.417   4.258
 6092W        W78517  44.429  40.873   0.783
 6093W        W78518  31.128   0.385  12.031
 6094W        W78519  27.608  17.140   4.235
 6095W        W78520  16.677   0.768   3.732
 6096W        W78521   6.725  14.185  13.004
 6097W        W78522  28.971   3.916  14.893
 6098W        W78523  11.698  32.622  12.443
 6099W        W78524  10.344  36.076   3.147
 6100W        W78525  15.290   4.885   3.222
 6101W        W78526  15.286  36.944   3.302
 6102W        W78527  31.151  16.589   1.220
 6103W        W78528   2.231  14.612   4.695
 6104W        W78529  11.691  26.198   1.448
 6105W        W78530  26.971  31.052   2.865
 6106W        W78531  33.013  22.540   4.704
 6107W        W78532  35.418   8.170  12.062
 6108W        W78533   5.776  18.791  11.580
 6109W        W78534   9.230  18.265  11.066
 6110W        W78535  38.474  28.557   1.380
 6111W        W78536  18.177   9.708  13.873
 6112W        W78537  10.306  12.652  14.346
 6113W        W78538  10.734   9.824   1.707
 6114W        W78539   5.346  10.369   3.785
 6115W        W78540   9.849  10.142   3.321
 6116W        W78541  14.263  29.016   1.297
 6117W        W78542  25.524  40.885  12.915
 6118W        W78543   0.889  28.472   1.286
 6119W        W78544  22.188  42.346   3.304
 6120W        W78545  38.402   9.361   1.836
 6121W        W78546  37.531  24.587  11.507
 6122W        W78547   9.880  42.844   3.678
 6123W        W78548  16.283  23.592   3.361
 6124W        W78549   4.863  42.898   0.336
 6125W        W78550   8.313  20.645  13.521
 6126W        W78551   6.901   6.806  12.943
 6127W        W78552  29.627  27.076   2.809
 6128W        W78553  23.495   8.658  12.015
 6129W        W78554  16.262  34.955  14.496
 6130W        W78555  32.410  24.136  14.982
 6131W        W78556  25.964  16.140  13.424
 6132W        W78557  25.595  22.023   0.373
 6133W        W78558  41.465  25.514   1.344
 6134W        W78559   5.281   4.882   0.806
 6135W        W78560   6.690  23.701  13.509
 6136W        W78561  35.961   9.256  11.414
 6137W        W78562   3.445  26.186   2.193
 6138W        W78563  18.728  29.047   3.320
 6139W        W78564  41.886  20.673   0.763
 6140W        W78565  41.003   4.331  13.056
 6141W        W78566  29.108  32.143   0.728
 6142W        W78567  34.466  29.099  10.618
 6143W        W78568  35.535  22.146   3.839
 6144W        W78569  17.261   1.788  12.536
 6145W        W78570  11.362   6.342   1.867
 6146W        W78571  33.018  18.657  10.583
 6147W        W78572   3.853  37.944   2.415
 6148W        W78573  31.453  13.178  14.390
 6149W        W78574  12.782  31.452   4.691
 6150W        W78575  20.028  11.165  12.089
 6151W        W78576  11.136  23.230  12.846
 6152W        W78577   2.883  22.153  14.967
 6153W        W78578  12.853  33.000   0.257
 6154W        W78579  14.249  20.723   1.438
 6155W        W78580  12.650  11.158   3.723
 6156W        W78581   8.733  30.637   4.645
 6157W        W78582  37.532  13.124  10.616
 6158W        W78583  44.879  36.947  13.401
 6159W        W78584  28.983   9.662  11.046
 6160W        W78585  42.510   4.837   0.359
 6161W        W78586  15.639  20.761   4.317
 6162W        W78587  25.125  15.199  12.519
 6163W        W78588  17.190  11.152  10.608
 6164W        W78589  28.042  13.837  13.961
 6165W        W78590  28.079  25.106   3.359
 6166W        W78591  10.312  34.062  14.295
 6167W        W78592   0.944  12.362  11.410
 6168W        W78593   5.894   5.902  13.042
 6169W        W78594  22.523   6.295  14.844
 6170W        W78595   7.812  29.006  11.483
 6171W        W78596  14.775   9.820   3.375
 6172W        W78597  17.692  44.808  11.458
 6173W        W78598  33.408  35.863  12.570
 6174W        W78599   5.336   7.690  14.490
 6175W        W78600  44.445  21.199   3.771
 6176W        W78601   7.417  22.616   1.289
 6177W        W78602  17.265  37.949  12.936
 6178W        W78603  10.785  37.450  13.846
 6179W        W78604   7.251  35.579  11.531
 6180W        W78605  12.136  18.766  10.597
 6181W        W78606   3.782  23.556   2.862
 6182W        W78607  36.433  38.424  12.847
 6183W        W78608   7.209   3.879   3.306
 6184W        W78609  43.410  25.562  10.451
 6185W        W78610  14.660  25.712  14.878
 6186W        W78611  23.605  19.760   0.314
 6187W        W78612  13.648  27.039   4.214
 6188W        W78613  24.506  32.418   3.210
 6189W        W78614  26.592   3.889   1.744
 6190W        W78615  42.788   2.449  14.344
 6191W        W78616   4.322   9.376  11.861
 6192W        W78617   8.869  40.416   0.412
 6193W        W78618  17.207  20.676  14.992
 6194W        W78619  29.140  28.071   4.665
 6195W        W78620  31.471  41.013  13.423
 6196W        W78621   9.151  28.055  12.968
 6197W        W78622  43.988  34.885  13.354
 6198W        W78623  35.492  37.916  14.793
 6199W        W78624  15.131  18.725  11.488
 6200W        W78625  35.511   1.935  10.451
 6201W        W78626  18.555  11.671  11.508
 6202W        W78627  14.182  22.576   1.429
 6203W        W78628   6.324  26.598   4.247
 6204W        W78629   3.450  38.888   1.298
 6205W        W78630  29.020  41.515   4.775
 6206W        W78631   3.849  22.531  11.391
 6207W        W78632  41.407  20.180  11.500
 6208W        W78633  31.587  33.130  14.790
 6209W        W78634  40.042  17.616   4.718
 6210W        W78635  35.558   1.304  14.768
 6211W        W78636  15.125   6.708  13.358
 6212W        W78637  32.112  11.213  11.094
 6213W        W78638  40.310  32.602  13.004
 6214W        W78639  11.290  37.860   4.609
 6215W        W78640  33.952  31.017  11.085
 6216W        W78641  40.835  18.243   4.804
 6217W        W78642   6.787  36.885  13.836
 6218W        W78643  34.426  14.652  13.454
 6219W        W78644  40.467  38.534   1.246
 6220W        W78645  26.639   3.906   3.340
 6221W        W78646  26.170  29.098   5.709
 6222W        W78647  17.638  43.806   4.657
 6223W        W78648  20.523   2.440   1.349
 6224W        W78649   3.872  41.819  14.979
 6225W        W78650   4.265  28.459   0.346
 6226W        W78651  36.918  35.878  10.504
 6227W        W78652  29.021  23.988  12.909
 6228W        W78653  30.439  17.617   0.959
 6229W        W78654  10.860  42.979  13.457
 6230W        W78655  41.502  23.231   2.252
 6231W        W78656  33.947  36.559   2.245
 6232W        W78657  23.017  28.981  14.438
 6233W        W78658  22.563  44.863   4.239
 6234W        W78659  16.225  22.528  10.141
 6235W        W78660  18.660  43.927  13.543
 6236W        W78661  34.044  32.390   3.321
 6237W        W78662   7.223  43.447   3.806
 6238W        W78663  37.527  13.193   3.162
 6239W        W78664  24.222  34.561   5.229
 6240W        W78665  30.605  19.052  13.029
 6241W        W78666  34.024   5.219  13.530
 6242W        W78667  37.981  35.989  10.984
 6243W        W78668  26.615   2.434  13.334
 6244W        W78669  18.055   7.263   4.755
 6245W        W78670   6.897  29.004  11.969
 6246W        W78671  23.051  14.314   4.705
 6247W        W78672  31.963  44.482  11.124
 6248W        W78673  43.310  35.884   0.442
 6249W        W78674   0.962  28.001   1.258
 6250W        W78675  33.575  21.074   0.483
 6251W        W78676  17.074  44.495  10.433
 6252W        W78677  31.516  36.548  12.498
 6253W        W78678  24.610  43.995   1.246
 6254W        W78679  26.013  37.492  13.895
 6255W        W78680   4.268  40.437   2.366
 6256W        W78681   1.261  16.768  11.388
 6257W        W78682  12.224  40.345  12.884
 6258W        W78683  28.169  27.098   4.155
 6259W        W78684  35.494  33.970   1.831
 6260W        W78685  13.114  42.291  14.798
 6261W        W78686   4.881  29.936   2.280
 6262W        W78687   6.689  30.424   0.926
 6263W        W78688  40.932  42.959  11.865
 6264W        W78689   3.317   7.799  10.918
 6265W        W78690   4.286  12.172   1.886
 6266W        W78691  42.916  19.247  12.025
 6267W        W78692  22.182  24.083  13.505
 6268W        W78693   6.838  37.493   1.770
 6269W        W78694  13.303  10.371   2.338
 6270W        W78695   1.848  10.268  13.455
 6271W        W78696  22.099   8.753  13.041
 6272W        W78697  10.209  16.627  12.834
 6273W        W78698  25.004  16.781  12.356
 6274W        W78699  35.565  19.236  12.963
 6275W        W78700   0.876  35.077   0.887
 6276W        W78701   8.820   7.775   3.379
 6277W        W78702  38.996  35.948  14.990
 6278W        W78703  31.032  16.161   1.226
 6279W        W78704   3.281  25.000   2.698
 6280W        W78705   1.395  10.333  11.055
 6281W        W78706  14.256  35.537  10.438
 6282W        W78707  38.450  13.266  13.046
 6283W        W78708  32.981  31.421  10.907
 6284W        W78709  20.652  27.676  13.057
 6285W        W78710  15.267  13.672   0.468
 6286W        W78711  10.240  34.939  11.505
 6287W        W78712  32.583  24.040   0.941
 6288W        W78713  33.928  36.009  13.979
 6289W        W78714   4.751  35.543  10.571
 6290W        W78715  20.555  30.503  10.905
 6291W        W78716  17.267  12.770   2.887
 6292W        W78717  44.865  41.503   3.773
 6293W        W78718  35.918  35.479   4.608
 6294W        W78719  25.002  36.911  13.466
 6295W        W78720  31.548  13.810   3.812
 6296W        W78721   7.679  40.915  13.059
 6297W        W78722  29.476  21.158   9.583
 6298W        W78723  20.139  43.273   4.722
 6299W        W78724  31.982   8.305  13.938
 6300W        W78725  11.134  10.633  13.407
 6301W        W78726  41.965  33.101   0.244
 6302W        W78727  11.210  32.926   0.329
 6303W        W78728  25.991  38.448   2.246
 6304W        W78729  25.011   6.824  10.994
 6305W        W78730  35.596   5.295   4.299
 6306W        W78731  21.090   6.878   4.137
 6307W        W78732   4.855  28.959   4.649
 6308W        W78733  35.460  12.221  12.881
 6309W        W78734  14.230  15.174   2.220
 6310W        W78735  19.232  32.974  11.382
 6311W        W78736  19.726  42.383  11.530
 6312W        W78737  17.597  36.350  13.346
 6313W        W78738  13.804  12.244   1.731
 6314W        W78739  39.436   2.744  13.799
 6315W        W78740  43.347  32.559   4.721
 6316W        W78741  21.141   5.847  10.462
 6317W        W78742   7.705   1.738  14.352
 6318W        W78743  17.760   3.372   2.222
 6319W        W78744  32.986  26.510  12.559
 6320W        W78745  19.091  22.243   1.401
 6321W        W78746   1.306  20.062  10.552
 6322W        W78747  25.049  20.113  14.939
 6323W        W78748   0.333  19.538   2.232
 6324W        W78749  32.020   8.363   2.388
 6325W        W78750  36.512  35.493  11.063
 6326W        W78751   6.779   0.293   1.332
 6327W        W78752  11.724  25.631   0.746
 6328W        W78753  12.344   3.392   2.405
 6329W        W78754  16.634  12.711  12.993
 6330W        W78755  30.997  24.144   2.763
 6331W        W78756  36.956  22.516  12.484
 6332W        W78757  17.591   0.750   2.416
 6333W        W78758  28.135  35.882   3.228
 6334W        W78759  15.193  34.497  14.966
 6335W        W78760   6.808   9.646   2.862
 6336W        W78761  37.004   6.839   1.213
 6337W        W78762   9.387   9.330  13.381
 6338W        W78763  44.468  11.361   4.254
 6339W        W78764  20.065  23.709  10.914
 6340W        W78765  29.598  18.134   1.265
 6341W        W78766  28.029  18.600   5.141
 6342W        W78767   6.189  31.961   0.419
 6343W        W78768  34.893  38.514   3.173
 6344W        W78769  40.809  33.394  13.917
 6345W        W78770  30.978  10.233  12.841
 6346W        W78771  38.536  36.971  13.049
 6347W        W78772  29.960  33.087   3.347
 6348W        W78773  11.212  34.935  14.914
 6349W        W78774  20.693  43.324   4.719
 6350W        W78775   1.735  36.371   3.680
 6351W        W78776   6.290   1.802  13.990
 6352W        W78777   7.832  32.986   3.190
 6353W        W78778  12.657   6.733  12.049
 6354W        W78779   8.698  21.196   1.252
 6355W        W78780  42.455  12.850  13.456
 6356W        W78781  17.671  29.466  10.946
 6357W        W78782  37.481  36.433  14.760
 6358W        W78783  44.368  26.140   4.327
 6359W        W78784  29.947   6.212  12.413
 6360W        W78785   8.395  32.929  12.004
 6361W        W78786  42.389   3.817  14.473
 6362W        W78787  29.154  39.345  13.379
 6363W        W78788  26.108  31.424   2.400
 6364W        W78789  13.674  14.609  13.024
 6365W        W78790  18.618  21.102   2.774
 6366W        W78791   3.782  23.549   4.295
 6367W        W78792  35.514   0.955  12.861
 6368W        W78793  24.725  31.574   5.245
 6369W        W78794  26.139  37.420  11.097
 6370W        W78795  44.903  11.703  13.060
 6371W        W78796  30.476  13.146  10.946
 6372W        W78797  41.016  25.009  12.919
 6373W        W78798   0.820  13.136  12.931
 6374W        W78799  19.140  22.023  10.461
 6375W        W78800  13.792   5.319  13.892
 6376W        W78801  39.371   4.841   2.220
 6377W        W78802  32.102  32.475   0.462
 6378W        W78803  22.138  43.326  14.892
 6379W        W78804   2.784  37.494  12.567
 6380W        W78805  40.414  12.684  11.520
 6381W        W78806  37.391  43.467  14.318
 6382W        W78807  28.633   2.903  12.501
 6383W        W78808  11.189   9.673  14.856
 6384W        W78809  41.880  43.420   2.261
 6385W        W78810   0.810  13.243   1.872
 6386W        W78811  27.076  18.161  14.414
 6387W        W78812  40.971  37.424  11.541
 6388W        W78813   8.266   4.823   0.403
 6389W        W78814  19.272  14.300   3.820
 6390W        W78815  22.179  39.839  10.411
 6391W        W78816  34.507  29.537  13.823
 6392W        W78817  18.652   5.265  11.109
 6393W        W78818   0.877  25.109  12.016
 6394W        W78819  19.216  29.168  12.550
 6395W        W78820  28.064   5.210   2.897
 6396W        W78821  15.736  30.537  12.384
 6397W        W78822  41.902  13.315  12.562
 6398W        W78823  29.036  42.482   3.222
 6399W        W78824  24.572  14.277   2.313
 6400W        W78825  31.972  15.279   4.318
 6401W        W78826  34.088  30.049  14.405
 6402W        W78827  28.478  40.419  13.857
 6403W        W78828   9.373  37.550   1.272
 6404W        W78829  15.278   2.884  11.047
 6405W        W78830   1.271   6.847  12.457
 6406W        W78831  14.174  28.559   4.256
 6407W        W78832  36.370  36.856  13.016
 6408W        W78833  38.487  27.475   4.756
 6409W        W78834  24.222   4.715   1.260
 6410W        W78835   0.890  35.927   2.757
 6411W        W78836   9.665  35.413  11.531
 6412W        W78837  35.909  40.838  14.936
 6413W        W78838  14.760  24.148   4.792
 6414W        W78839   5.802  33.119  13.331
 6415W        W78840  27.470  39.359   4.757
 6416W        W78841  43.800   8.833  11.375
 6417W        W78842  33.008  27.593   3.229
 6418W        W78843   3.398  35.089  14.384
 6419W        W78844  17.209  32.092   0.779
 6420W        W78845  42.010  44.260   4.622
 6421W        W78846  28.539  31.970  13.525
 6422W        W78847   4.366  28.680   1.731
 6423W        W78848   8.703  23.009   3.318
 6424W        W78849  32.522  44.430  13.548
 6425W        W78850  14.602   9.374  10.954
 6426W        W78851  15.224  44.772   2.399
 6427W        W78852  32.627  27.684  14.876
 6428W        W78853  28.492  25.486   0.349
 6429W        W78854  15.583   4.739  12.477
 6430W        W78855   0.479  26.174  14.282
 6431W        W78856  10.201  12.727  13.367
 6432W        W78857   0.986  24.059   0.952
 6433W        W78858  34.488  40.320   4.204
 6434W        W78859   5.347   9.858   4.211
 6435W        W78860  35.462  38.968  10.547
 6436W        W78861  24.984  20.745  14.991
 6437W        W78862  10.272  23.088   3.185
 6438W        W78863  13.709  23.042  12.028
 6439W        W78864  34.089   0.316   1.270
 6440W        W78865  13.664   1.240  10.615
 6441W        W78866  17.642  13.601   3.363
 6442W        W78867  12.850  14.635   1.726
 6443W        W78868  13.600  26.088   4.703
 6444W        W78869  33.522   7.257  14.406
 6445W        W78870  42.975  31.528  11.011
 6446W        W78871  30.963   8.342  10.416
 6447W        W78872   7.895   9.688   1.922
 6448W        W78873  34.530  38.923  14.322
 6449W        W78874  12.801   1.422  13.491
 6450W        W78875   5.344  35.945  14.345
 6451W        W78876   8.331  42.964   9.991
 6452W        W78877   9.307   6.808   0.421
 6453W        W78878  34.447  13.218   3.673
 6454W        W78879  22.078  14.818   1.731
 6455W        W78880  41.430   9.776  12.068
 6456W        W78881  40.520  14.638  11.465
 6457W        W78882  26.147   2.243   1.270
 6458W        W78883  34.081  33.472  14.953
 6459W        W78884   8.742  12.779  11.581
 6460W        W78885   9.334  16.129  12.418
 6461W        W78886  16.635  36.533  14.021
 6462W        W78887  39.931  28.577   0.242
 6463W        W78888  38.385  40.911  14.816
 6464W        W78889   5.899  19.045  14.996
 6465W        W78890  24.095  12.245  10.587
 6466W        W78891   7.736   6.820  11.410
 6467W        W78892   6.868  21.173   2.346
 6468W        W78893  21.637  24.620   0.923
 6469W        W78894  21.618  13.184  14.878
 6470W        W78895  23.116  17.782  12.388
 6471W        W78896  34.417  22.663   3.247
 6472W        W78897  13.160  22.151   4.618
 6473W        W78898  40.375  24.993  14.436
 6474W        W78899  27.631  25.107  11.961
 6475W        W78900  36.387  15.639  14.782
 6476W        W78901   7.319  18.758   0.892
 6477W        W78902   5.322  11.642   0.348
 6478W        W78903  30.989  27.538  13.411
 6479W        W78904  12.290  43.386  14.407
 6480W        W78905   4.417  31.631   3.224
 6481W        W78906   9.651  29.023   2.772
 6482W        W78907  30.943  29.525   1.848
 6483W        W78908  15.791  28.013   2.739
 6484W        W78909  33.989  31.578   2.411
 6485W        W78910  26.094  20.274   0.331
 6486W        W78911   7.889  30.527   0.762
 6487W        W78912  37.524  11.182   2.274
 6488W        W78913  10.858  40.994   0.938
 6489W        W78914  42.882  36.453   0.828
 6490W        W78915  41.388  37.932  12.399
 6491W        W78916   3.268   3.878  11.859
 6492W        W78917   3.306  37.391   1.726
 6493W        W78918   5.378   1.259  13.907
 6494W        W78919  11.152   6.335  11.925
 6495W        W78920  27.569  15.606   3.235
 6496W        W78921  13.348  33.409  13.367
 6497W        W78922   4.859  28.140   1.852
 6498W        W78923  32.961  26.488  11.372
 6499W        W78924  11.636  15.271   2.223
 6500W        W78925  31.125   7.901   0.908
 6501W        W78926  44.827  31.584  12.052
 6502W        W78927  44.862  37.571   4.695
 6503W        W78928  25.496  24.701  14.466
 6504W        W78929  32.480  11.802   3.222
 6505W        W78930  14.194  21.038   3.361
 6506W        W78931  32.443  24.105  13.391
 6507W        W78932  28.486  38.006  12.052
 6508W        W78933  12.324  30.527  13.449
 6509W        W78934   4.338  19.570  12.875
 6510W        W78935  28.997  30.085   0.476
 6511W        W78936  39.326  20.745  13.386
 6512W        W78937  36.492   8.363  10.058
 6513W        W78938  23.234  29.940   4.328
 6514W        W78939  13.350  16.279   4.672
 6515W        W78940  25.529  25.584   0.267
 6516W        W78941  31.503   7.692   2.321
 6517W        W78942  32.124  17.702   2.896
 6518W        W78943  20.702  12.169   2.827
 6519W        W78944  20.109  27.534   1.319
 6520W        W78945   8.891  16.589   3.839
 6521W        W78946   7.191  22.998   2.270
 6522W        W78947  35.385  10.248  11.017
 6523W        W78948  33.502  31.978   1.279
 6524W        W78949  17.582   6.773   0.336
 6525W        W78950   3.742  37.870   3.789
 6526W        W78951  31.136  41.797  10.947
 6527W        W78952  28.177  22.593  13.946
 6528W        W78953  34.507  11.219  13.956
 6529W        W78954   1.742  12.329  13.390
 6530W        W78955  13.713  13.732   4.765
 6531W        W78956  22.054  39.514  11.497
 6532W        W78957  30.603  14.805   1.804
 6533W        W78958  12.145  23.127   4.341
 6534W        W78959  36.915  24.131   3.733
 6535W        W78960  18.629  24.511  11.905
 6536W        W78961   8.672  34.028  14.383
 6537W        W78962  11.698   2.317  12.959
 6538W        W78963  22.193   8.215   2.753
 6539W        W78964  17.271  10.208  12.083
 6540W        W78965  23.708  11.134  14.906
 6541W        W78966  36.071  34.058  12.004
 6542W        W78967  32.600  35.384  14.767
 6543W        W78968  42.421  24.534  12.869
 6544W        W78969  34.945   6.765   3.267
 6545W        W78970  11.769  37.016  10.497
 6546W        W78971  25.186  22.169   1.695
 6547W        W78972  24.619  32.583  10.036
 6548W        W78973  42.842  41.982   4.335
 6549W        W78974  32.117  10.160   0.447
 6550W        W78975  21.681  26.106   1.763
 6551W        W78976  30.644  20.649   3.738
 6552W        W78977  33.445  28.576   1.756
 6553W        W78978   8.376  29.030   1.714
 6554W        W78979   3.345   6.783  12.447
 6555W        W78980  27.516  19.735  12.412
 6556W        W78981  28.512  42.453  11.956
 6557W        W78982   8.170  12.212   2.823
 6558W        W78983  15.097  14.647   0.319
 6559W        W78984  43.510  31.134  14.762
 6560W        W78985  15.233  28.565  12.905
 6561W        W78986  37.964  16.722   3.773
 6562W        W78987  39.514  17.598  12.024
 6563W        W78988  21.744  15.743  12.431
 6564W        W78989  11.868  14.830  13.501
 6565W        W78990  24.099  22.510   4.307
 6566W        W78991  33.504   6.836  10.904
 6567W        W78992  14.340  30.069  13.037
 6568W        W78993  17.708  33.621   5.735
 6569W        W78994   8.317  39.348  10.549
 6570W        W78995  41.307  28.591   3.679
 6571W        W78996  33.058  16.097  12.018
 6572W        W78997   4.286  35.449  12.502
 6573W        W78998  26.085   9.361  12.548
 6574W        W78999  40.838   4.413  14.385
 6575W        W79000  30.041  28.114   1.336
 6576W        W79001  36.434  37.453   4.263
 6577W        W79002  10.733   6.678  10.642
 6578W        W79003  20.264  13.629   0.460
 6579W        W79004  34.603   5.802  10.416
 6580W        W79005  22.064   0.295  13.054
 6581W        W79006   7.262   3.749   2.185
 6582W        W79007  11.741  21.707  13.516
 6583W        W79008  38.521   8.803   9.970
 6584W        W79009  42.526   7.871   1.913
 6585W        W79010  32.406  32.069  12.024
 6586W        W79011  15.202  17.134   0.758
 6587W        W79012   1.350  40.889  10.981
 6588W        W79013  28.616  32.513  14.337
 6589W        W79014  12.774  24.104  11.991
 6590W        W79015  24.122  39.988  14.307
 6591W        W79016  27.562  18.616  14.881
 6592W        W79017  28.499  10.151   2.289
 6593W        W79018  16.720  16.755  12.013
 6594W        W79019  21.541  39.049  13.343
 6595W        W79020   3.710   8.815  12.463
 6596W        W79021  25.087  39.886  14.796
 6597W        W79022  41.901  20.131  10.075
 6598W        W79023  30.910  43.354  11.419
 6599W        W79024  36.025  33.463   3.685
 6600W        W79025  23.147   2.839   3.696
 6601W        W79026  17.696  20.682   1.726
 6602W        W79027  27.450  28.934  13.339
 6603W        W79028  16.310  20.170   0.926
 6604W        W79029  25.496  40.363   3.737
 6605W        W79030  33.044  35.912   0.278
 6606W        W79031  38.828  34.396   3.252
 6607W        W79032   9.351  38.461   0.368
 6608W        W79033  29.133  16.162  11.866
 6609W        W79034  39.406  14.692   3.311
 6610W        W79035  40.840  43.515  13.850
 6611W        W79036   1.858  27.594  13.892
 6612W        W79037  39.880  31.951   3.283
 6613W        W79038  36.013  29.607   4.799
 6614W        W79039   2.836  25.586   4.678
 6615W        W79040  44.426  31.494   2.318
 6616W        W79041  40.385  14.604  11.909
 6617W        W79042  44.897  35.027  11.885
 6618W        W79043   2.240  39.533  13.988
 6619W        W79044  38.018  38.930   9.927
 6620W        W79045  29.568  20.166  10.962
 6621W        W79046  16.775   4.820   3.275
 6622W        W79047  35.880  26.675  13.806
 6623W        W79048   6.344  42.991   2.723
 6624W        W79049  23.217  38.481  11.997
 6625W        W79050  31.435  37.834   3.160
 6626W        W79051  28.579   1.365   2.744
 6627W        W79052  10.379  35.543  12.906
 6628W        W79053   7.695  16.688   3.206
 6629W        W79054  27.944  23.023   0.924
 6630W        W79055  30.047  22.585  11.477
 6631W        W79056  44.849  43.847   4.835
 6632W        W79057  38.830  11.142   3.740
 6633W        W79058  37.961   6.228   4.314
 6634W        W79059  18.609  42.934   3.204
 6635W        W79060  27.083  26.538   0.858
 6636W        W79061  44.443   8.781   3.227
 6637W        W79062  13.740  13.621  12.866
 6638W        W79063   6.336  15.695   3.369
 6639W        W79064  36.095  36.931  11.120
 6640W        W79065   6.291  16.117  12.547
 6641W        W79066  37.862  26.181  12.431
 6642W        W79067  14.252  33.054  14.395
 6643W        W79068  37.975  27.560  11.115
 6644W        W79069  25.505  30.603   2.697
 6645W        W79070  35.962   6.274   2.852
 6646W        W79071  30.443  12.732   2.229
 6647W        W79072  13.816  15.644  14.972
 6648W        W79073   0.913  11.812   0.275
 6649W        W79074  25.554   3.435  11.541
 6650W        W79075  37.470  36.488  13.512
 6651W        W79076  21.042  21.042  13.862
 6652W        W79077   4.785   7.345  13.914
 6653W        W79078   3.791  43.889   0.733
 6654W        W79079   4.408   2.448  13.494
 6655W        W79080  26.700  40.386  12.339
 6656W        W79081   6.396  36.403  13.981
 6657W        W79082  22.203   8.325   0.368
 6658W        W79083  12.668  44.902  12.466
 6659W        W79084  23.531  44.428  10.896
 6660W        W79085   6.258  31.056   4.223
 6661W        W79086   8.802  32.503  13.027
 6662W        W79087   3.406   0.311  13.814
 6663W        W79088  23.216  33.918   2.678
 6664W        W79089  28.093  10.192  12.442
 6665W        W79090  33.048  32.013   1.875
 6666W        W79091   7.287  27.620   4.757
 6667W        W79092  20.028  13.717  10.462
 6668W        W79093  23.583   4.934  11.915
 6669W        W79094  34.094  33.587  11.390
 6670W        W79095   5.345  23.594   0.301
 6671W        W79096  19.150  12.154  14.475
 6672W        W79097  39.522  16.756  14.810
 6673W        W79098  16.281  26.162  13.814
 6674W        W79099  21.745  21.076  10.980
 6675W        W79100  40.865   8.358   0.887
 6676W        W79101  21.673  40.985  11.445
 6677W        W79102  14.683  37.472   3.676
 6678W        W79103  34.909  16.156  13.373
 6679W        W79104   0.962  41.348  12.900
 6680W        W79105  25.202  22.046  12.842
 6681W        W79106  23.572  37.516  13.998
 6682W        W79107   1.762  42.815  13.951
 6683W        W79108  16.092  31.015   0.746
 6684W        W79109  10.649  43.325   1.373
 6685W        W79110  18.582  11.187  10.150
 6686W        W79111  36.449  44.388  11.371
 6687W        W79112  28.443  10.240   1.331
 6688W        W79113   9.849   1.821  14.902
 6689W        W79114  16.798  18.571   3.301
 6690W        W79115   6.690  14.326  13.960
 6691W        W79116  44.883   5.818  12.454
 6692W        W79117   3.328  23.733  12.443
 6693W        W79118   8.680   4.370  12.092
 6694W        W79119  44.837  31.469   5.654
 6695W        W79120  21.605  29.466  10.448
 6696W        W79121  11.288  37.019  13.927
 6697W        W79122  27.021  35.511   2.275
 6698W        W79123  22.702  16.581  14.836
 6699W        W79124  39.835  14.234  11.487
 6700W        W79125  23.733  31.905  14.499
 6701W        W79126   4.366   1.301  11.934
 6702W        W79127  17.284  33.592   2.399
 6703W        W79128  31.502  41.513   1.877
 6704W        W79129  10.695  11.762  14.329
 6705W        W79130  23.544   5.320   0.309
 6706W        W79131  20.102   5.787   2.720
 6707W        W79132  18.180   3.900  11.444
 6708W        W79133  25.204  42.826  14.848
 6709W        W79134  26.537  40.407   1.910
 6710W        W79135  29.017  20.607  13.946
 6711W        W79136  33.572  20.109  13.974
 6712W        W79137   1.344   3.302   1.809
 6713W        W79138  41.346  22.197  14.371
 6714W        W79139  10.757  31.548   3.211
 6715W        W79140  20.210  11.192   4.172
 6716W        W79141  26.511  20.267  14.463
 6717W        W79142  14.679  27.969  14.499
 6718W        W79143  32.498  40.414  13.528
 6719W        W79144   0.831  26.014  12.894
 6720W        W79145  23.524  23.154   2.416
 6721W        W79146  29.058  31.594   0.316
 6722W        W79147  44.259  36.557  12.944
 6723W        W79148   4.325   6.780  14.830
 6724W        W79149   5.889  16.300  10.641
 6725W        W79150  23.605  22.719  11.118
 6726W        W79151  24.003  18.096  12.456
 6727W        W79152   3.939  41.511   4.788
 6728W        W79153  39.509  33.002  13.316
 6729W        W79154   0.401  32.033  13.341
 6730W        W79155  23.736  28.091  12.860
 6731W        W79156  36.348  30.483   1.836
 6732W        W79157  17.154  28.613   4.250
 6733W        W79158  31.564  20.622  10.994
 6734W        W79159  40.025   3.427  13.493
 6735W        W79160  10.636  25.710  14.795
 6736W        W79161  28.934  29.005   0.825
 6737W        W79162  44.817  40.332   0.899
 6738W        W79163  24.031  20.103   4.136
 6739W        W79164  32.408  37.452  11.490
 6740W        W79165  11.801  44.300   9.920
 6741W        W79166  32.514  21.751   1.742
 6742W        W79167  17.254  12.625   3.721
 6743W        W79168  12.126   2.280  11.970
 6744W        W79169  13.298  40.934   1.235
 6745W        W79170  41.470  16.216  12.026
 6746W        W79171   0.899  25.982   2.202
 6747W        W79172  26.161   8.319  10.996
 6748W        W79173  12.693  11.287  14.359
 6749W        W79174  24.028  33.501   3.342
 6750W        W79175  10.689  34.371  14.791
 6751W        W79176  26.200   1.256   0.783
 6752W        W79177  15.709   8.252   2.887
 6753W        W79178   7.334   8.208   0.448
 6754W        W79179  37.423  15.237   0.425
 6755W        W79180  37.838  28.161   4.273
 6756W        W79181  25.664  21.094  14.947
 6757W        W79182   8.753  32.575  11.412
 6758W        W79183   2.405  15.299  13.417
 6759W        W79184   4.243   8.821  10.959
 6760W        W79185  39.915  34.443  12.981
 6761W        W79186  30.546  31.627  11.048
 6762W        W79187  20.692   9.232   3.667
 6763W        W79188  14.162  12.295  13.054
 6764W        W79189  27.600  31.904   3.666
 6765W        W79190  28.950  41.333   2.706
 6766W        W79191  24.479  16.789  13.457
 6767W        W79192  26.121   6.330  14.832
 6768W        W79193  28.459   5.688   1.898
 6769W        W79194  41.003  11.797   3.807
 6770W        W79195   0.453  40.422   2.289
 6771W        W79196  19.140  44.808  13.523
 6772W        W79197  41.509  25.996  12.342
 6773W        W79198  34.390   8.781   1.313
 6774W        W79199  10.184  24.078   3.242
 6775W        W79200   1.308  36.420  13.378
 6776W        W79201  35.993   4.321  13.027
 6777W        W79202  27.537  11.826   3.276
 6778W        W79203  41.997  40.457   4.731
 6779W        W79204  12.642   2.349  12.407
 6780W        W79205  18.566   8.829   1.896
 6781W        W79206  21.742  37.402   1.879
 6782W        W79207  29.639  41.441   5.746
 6783W        W79208  17.735   9.230   4.804
 6784W        W79209  22.542  26.674  10.141
 6785W        W79210  37.432  42.012   1.893
 6786W        W79211  21.228  21.171  11.986
 6787W        W79212  33.589   4.236  14.471
 6788W        W79213  42.479   7.180  10.993
 6789W        W79214  40.883   0.833   4.810
 6790W        W79215  10.665  37.909   4.716
 6791W        W79216  41.359  44.787   3.650
 6792W        W79217  44.270   8.169  13.344
 6793W        W79218  14.097  25.013  11.940
 6794W        W79219   2.243  22.127   0.351
 6795W        W79220  31.437  15.253  11.952
 6796W        W79221  14.670  41.331   4.658
 6797W        W79222  31.013   0.364  14.323
 6798W        W79223  31.916   5.221  13.046
 6799W        W79224  27.960  19.603   1.841
 6800W        W79225  12.321  37.412  12.972
 6801W        W79226   4.380  24.007   0.814
 6802W        W79227  44.302  37.571   4.816
 6803W        W79228  29.055  17.759   3.154
 6804W        W79229  32.074  15.736   3.166
 6805W        W79230  16.171  21.701  11.023
 6806W        W79231  32.510  22.718  14.881
 6807W        W79232  12.330  10.727  14.341
 6808W        W79233  40.508  18.569  10.889
 6809W        W79234   3.874  22.523   1.759
 6810W        W79235  12.690  32.029  12.432
 6811W        W79236   9.284  35.594  11.424
 6812W        W79237  14.194   1.300  13.494
 6813W        W79238  23.560   4.429   3.195
 6814W        W79239  22.102  44.377  11.531
 6815W        W79240  29.019  15.816   0.777
 6816W        W79241   5.795  18.660   4.199
 6817W        W79242  36.024  12.345   0.940
 6818W        W79243  30.565  40.501  12.863
 6819W        W79244   7.326  24.180   4.638
 6820W        W79245  32.412  40.898   0.336
 6821W        W79246  21.524   9.212   4.250
 6822W        W79247  36.986  43.290  10.527
 6823W        W79248  29.963   0.789   4.706
 6824W        W79249   9.776  14.798   2.854
 6825W        W79250  30.648  25.699  14.281
 6826W        W79251  27.076  39.361  13.447
 6827W        W79252   7.298   5.852  14.876
 6828W        W79253  16.632   1.478  11.880
 6829W        W79254   2.797  19.601   1.271
 6830W        W79255  31.152  22.588   5.302
 6831W        W79256  23.505  31.460  14.301
 6832W        W79257  32.562  38.521  12.033
 6833W        W79258  32.088   6.757  12.405
 6834W        W79259  25.151  10.188   5.166
 6835W        W79260   1.868  31.038   2.725
 6836W        W79261  10.780   8.873   3.260
 6837W        W79262  32.099  40.012  12.533
 6838W        W79263  37.048  20.150   2.800
 6839W        W79264  16.772   4.934   1.778
 6840W        W79265  20.765  18.588  14.936
 6841W        W79266  22.658  30.069  12.417
 6842W        W79267  10.849  28.064   0.286
 6843W        W79268  17.302  37.912  14.978
 6844W        W79269  25.127  31.136  14.915
 6845W        W79270  17.589   0.914   4.807
 6846W        W79271  38.993  25.014   2.209
 6847W        W79272  13.641  25.974  14.501
 6848W        W79273  26.170   0.926  14.511
 6849W        W79274  23.729  35.576  12.913
 6850W        W79275  18.135  24.203  11.519
 6851W        W79276  21.653   3.291   3.699
 6852W        W79277  38.942  11.712   3.720
 6853W        W79278  28.034  37.914  10.587
 6854W        W79279  18.270   5.765   4.126
 6855W        W79280   3.433  32.049  11.095
 6856W        W79281   1.284  22.680  12.849
 6857W        W79282   0.332  23.514  14.345
 6858W        W79283  19.170  44.426  14.923
 6859W        W79284  12.304  13.346  12.372
 6860W        W79285  31.564  32.577   3.685
 6861W        W79286  26.617  28.065   3.272
 6862W        W79287  32.992  14.132   2.229
 6863W        W79288  35.967  17.232   1.893
 6864W        W79289  40.493  23.521   2.767
 6865W        W79290  14.813  21.019  13.986
 6866W        W79291  29.611  44.892   4.682
 6867W        W79292  28.100  23.618  10.145
 6868W        W79293   9.156  17.702  10.406
 6869W        W79294  24.576  11.735   4.316
 6870W        W79295  33.430  18.669   3.325
 6871W        W79296   0.850  43.950   3.745
 6872W        W79297  42.422   4.803   4.664
 6873W        W79298   7.380  17.802   2.869
 6874W        W79299  44.270  43.477  13.012
 6875W        W79300  24.655  19.077  11.450
 6876W        W79301  25.475  19.653   0.753
 6877W        W79302  38.832  42.292   1.334
 6878W        W79303  42.917  29.079   2.384
 6879W        W79304  23.054   5.911   0.902
 6880W        W79305  39.836  31.988  10.031
 6881W        W79306  14.819   9.844   0.277
 6882W        W79307   3.928   1.465  10.943
 6883W        W79308  32.042  44.786   1.252
 6884W        W79309  24.022  12.725  13.349
 6885W        W79310  10.193  26.997  14.506
 6886W        W79311  42.789   3.934  12.089
 6887W        W79312  31.635  44.296   3.176
 6888W        W79313  17.193   5.885  14.979
 6889W        W79314  39.486  30.097   0.962
 6890W        W79315  14.107  24.634   0.410
 6891W        W79316   9.367   3.943   1.387
 6892W        W79317  42.511  41.351  10.504
 6893W        W79318  20.201  35.434   4.610
 6894W        W79319   0.851  22.140   4.615
 6895W        W79320   0.316   1.770   4.698
 6896W        W79321  26.058  11.181   0.434
 6897W        W79322  10.679   8.842  11.956
 6898W        W79323  22.158  44.365   4.140
 6899W        W79324   9.680  43.315   4.249
 6900W        W79325  17.669  39.526  11.888
 6901W        W79326   8.313  22.995  13.808
 6902W        W79327  44.995   4.785   3.383
 6903W        W79328  20.159  29.922  14.345
 6904W        W79329  35.869  34.614  13.391
 6905W        W79330  44.502  34.527  12.577
 6906W        W79331  19.153  14.235  12.859
 6907W        W79332   2.355  29.092   9.975
 6908W        W79333  19.203  34.562  10.898
 6909W        W79334  17.257  30.570   4.186
 6910W        W79335  40.960  18.623   3.664
 6911W        W79336   0.963   6.232   4.319
 6912W        W79337  36.065  17.723  11.563
 6913W        W79338   0.915  22.535  13.367
 6914W        W79339  33.975  34.533   2.227
 6915W        W79340  13.764  11.233  12.990
 6916W        W79341  40.390   3.255   5.270
 6917W        W79342   0.877  10.876   1.728
 6918W        W79343   5.422  18.570  13.039
 6919W        W79344  39.933   1.398  14.892
 6920W        W79345  20.730  22.597  10.977
 6921W        W79346  17.171  24.120  13.381
 6922W        W79347  12.618  31.008   3.681
 6923W        W79348  14.113  28.556  12.063
 6924W        W79349  32.962  12.238  11.538
 6925W        W79350  10.840  21.544   4.152
 6926W        W79351  33.391  21.580   1.284
 6927W        W79352  11.630  31.633  10.028
 6928W        W79353   3.895   8.897   2.325
 6929W        W79354   2.352  18.200  13.911
 6930W        W79355  44.862  29.992  11.427
 6931W        W79356   6.188   0.272   0.901
 6932W        W79357  35.956  39.433  14.878
 6933W        W79358  39.496  14.284  12.089
 6934W        W79359   2.326  42.468   3.173
 6935W        W79360  37.833  12.330   1.858
 6936W        W79361  15.639  44.332  10.921
 6937W        W79362  21.639  28.067  14.286
 6938W        W79363   0.358  25.684   1.763
 6939W        W79364  25.663  12.850   2.212
 6940W        W79365  26.562   4.384   5.138
 6941W        W79366  25.132  44.797  14.850
 6942W        W79367  26.664  35.058   0.915
 6943W        W79368   9.151  30.160  11.982
 6944W        W79369  15.221   5.915  14.980
 6945W        W79370  10.250  16.214  14.943
 6946W        W79371  44.479  11.311  11.997
 6947W        W79372   9.863  28.083   0.804
 6948W        W79373   6.377  39.856   4.329
 6949W        W79374  11.236  43.814   1.450
 6950W        W79375  22.104  10.356  10.524
 6951W        W79376  11.211  44.277   4.201
 6952W        W79377  41.032  13.628   1.786
 6953W        W79378  37.503   5.283   4.249
 6954W        W79379   8.810  43.413  10.515
 6955W        W79380  17.631  22.024  14.417
 6956W        W79381  38.417  20.029   3.272
 6957W        W79382  37.927  38.428  10.411
 6958W        W79383  42.944  42.471  10.950
 6959W        W79384   6.842  22.085  11.012
 6960W        W79385  32.916  31.490   2.808
 6961W        W79386  33.932  14.127  14.434
 6962W        W79387   4.365  23.035  11.905
 6963W        W79388  35.367  32.522   2.308
 6964W        W79389  17.612  24.657  14.470
 6965W        W79390  31.985  44.503  13.382
 6966W        W79391  35.063  13.740  13.980
 6967W        W79392  31.637  34.395   2.359
 6968W        W79393  21.656  25.026   4.651
 6969W        W79394  44.392   3.790   2.747
 6970W        W79395  31.089  19.167  10.560
 6971W        W79396   2.902  20.585  10.519
 6972W        W79397   1.459  26.055   2.865
 6973W        W79398  14.201  30.011   4.685
 6974W        W79399   7.858   8.664   3.846
 6975W        W79400  12.737  31.907  14.278
 6976W        W79401   0.902  23.040   0.954
 6977W        W79402  32.120  35.565   1.373
 6978W        W79403   1.801   5.300  12.388
 6979W        W79404  23.546   4.716  14.902
 6980W        W79405  44.886  31.439  12.466
 6981W        W79406  10.289  36.435  14.398
 6982W        W79407  14.299  19.190  10.615
 6983W        W79408   3.805  41.929  12.830
 6984W        W79409  28.652  21.634   4.634
 6985W        W79410  30.597  39.031   0.249
 6986W        W79411  43.962  24.615   2.782
 6987W        W79412  18.681  39.022  11.004
 6988W        W79413  27.960   9.297   1.372
 6989W        W79414  36.408   3.799  12.920
 6990W        W79415  44.421  14.160   2.742
 6991W        W79416  19.742   0.314  12.383
 6992W        W79417  24.187  22.085  14.808
 6993W        W79418  37.937   8.732  13.369
 6994W        W79419  13.714  30.093   0.307
 6995W        W79420  34.915  30.108  14.352
 6996W        W79421   8.169  33.914  11.060
 6997W        W79422   7.175  41.370   2.368
 6998W        W79423  25.671   7.736  11.013
 6999W        W79424  18.237   1.298  11.878
 7000W        W79425  11.183  34.434  11.024
 7001W        W79426  41.835  34.048   2.704
 7002W        W79427   0.335   8.758   3.830
 7003W        W79428  27.465  24.202  14.011
 7004W        W79429  41.804  14.106   9.956
 7005W        W79430   2.732  24.512   3.204
 7006W        W79431  26.148  18.121   0.742
 7007W        W79432   2.461  26.191   2.687
 7008W        W79433  30.098  42.520  10.919
 7009W        W79434  40.038  42.348  12.539
 7010W        W79435  13.674  13.192   3.315
 7011W        W79436   8.237  25.671  11.988
 7012W        W79437   0.911  27.618   3.836
 7013W        W79438  17.574  11.158   2.675
 7014W        W79439  40.853   7.306  13.019
 7015W        W79440  43.937  14.253  14.357
 7016W        W79441  36.371   9.256   4.334
 7017W        W79442  42.440  39.986  10.564
 7018W        W79443   5.417   4.717  10.092
 7019W        W79444   3.270  13.282   0.243
 7020W        W79445  10.780   2.903  14.821
 7021W        W79446  40.400  15.210   0.837
 7022W        W79447  25.653  11.642  14.362
 7023W        W79448  32.962   0.431  12.000
 7024W        W79449  37.555  28.013   3.792
 7025W        W79450  39.987  31.435  10.545
 7026W        W79451  11.272  10.184  11.861
 7027W        W79452  24.225  11.781   4.164
 7028W        W79453  40.515  44.909   2.328
 7029W        W79454  29.456  37.958  10.593
 7030W        W79455   3.770  31.933   4.654
 7031W        W79456  43.309  23.236   1.816
 7032W        W79457  37.551   8.201   4.213
 7033W        W79458  25.129  11.322  10.422
 7034W        W79459  44.495  44.441   1.296
 7035W        W79460  33.956  34.998   0.388
 7036W        W79461  16.152  10.790  12.460
 7037W        W79462  10.368  11.697   1.264
 7038W        W79463  22.154  42.869  14.815
 7039W        W79464  44.334   1.800  12.861
 7040W        W79465  40.396  31.145  10.948
 7041W        W79466  44.486  20.657   1.432
 7042W        W79467  19.095  37.928  12.339
 7043W        W79468  35.898  37.860   3.808
 7044W        W79469  23.696  34.431   2.322
 7045W        W79470  33.997  37.860   1.248
 7046W        W79471  23.040  39.534   0.815
 7047W        W79472  34.064   4.801   0.394
 7048W        W79473  11.283  33.116  13.896
 7049W        W79474  35.101  29.466  13.063
 7050W        W79475   5.326  29.998   1.325
 7051W        W79476   9.853  29.081   3.205
 7052W        W79477  15.215  13.340   0.436
 7053W        W79478  24.656   8.399   2.894
 7054W        W79479  25.099   8.263  10.917
 7055W        W79480  14.221  30.531  12.864
 7056W        W79481  23.489   5.930  11.076
 7057W        W79482  36.083  27.985  14.833
 7058W        W79483   7.814   1.266  12.054
 7059W        W79484  44.879  20.038   3.766
 7060W        W79485   8.393  14.124  11.856
 7061W        W79486  34.058  33.551   4.134
 7062W        W79487  43.003  32.129  10.989
 7063W        W79488   1.914  34.418  13.822
 7064W        W79489  43.966  17.636  13.903
 7065W        W79490  24.630   1.479  12.856
 7066W        W79491  14.249  12.333  11.406
 7067W        W79492  17.191  28.434   4.727
 7068W        W79493  40.534  31.627  13.312
 7069W        W79494  26.147   9.191  12.064
 7070W        W79495  14.118  20.160  12.007
 7071W        W79496  18.594  25.472   2.177
 7072W        W79497  36.904   9.311   4.803
 7073W        W79498  22.011   2.833   3.869
 7074W        W79499  21.161  10.793   3.262
 7075W        W79500  36.860   4.424   2.253
 7076W        W79501  11.261  26.563   4.599
 7077W        W79502  21.071  35.087   4.256
 7078W        W79503  36.422  11.196  10.576
 7079W        W79504  31.606   9.842  10.460
 7080W        W79505  23.121  31.501   3.728
 7081W        W79506  20.732   0.364   0.795
 7082W        W79507  31.075  14.815   1.699
 7083W        W79508  29.447  35.360   1.751
 7084W        W79509   6.358  33.490   3.243
 7085W        W79510  33.392  32.482  14.404
 7086W        W79511  40.389  44.810   1.702
 7087W        W79512  16.220  39.874  14.859
 7088W        W79513  15.102   5.353  11.375
 7089W        W79514  42.444  17.620  10.641
 7090W        W79515  37.560  36.565   2.229
 7091W        W79516  13.209   5.784   2.325
 7092W        W79517  43.962  44.457   4.767
 7093W        W79518  14.711  27.044  13.334
 7094W        W79519  29.098  25.564  12.088
 7095W        W79520  23.988  21.020   1.281
 7096W        W79521  35.387  22.741  12.841
 7097W        W79522   0.365   0.953   1.377
 7098W        W79523  27.981  35.872   0.752
 7099W        W79524  20.768   3.398   3.318
 7100W        W79525  31.404  22.549   4.715
 7101W        W79526  34.555  15.691   1.262
 7102W        W79527  35.093   9.877   4.657
 7103W        W79528  22.237  24.183   1.221
 7104W        W79529  38.034   8.385   4.665
 7105W        W79530  23.509  38.938  11.861
 7106W        W79531  29.539  15.688  13.811
 7107W        W79532  18.638   5.861  14.937
 7108W        W79533  11.764   1.240  11.606
 7109W        W79534  15.114  19.163   3.851
 7110W        W79535  11.744   6.689  14.880
 7111W        W79536  33.462  18.290  12.433
 7112W        W79537  25.603   5.715  12.526
 7113W        W79538  34.954  40.460  12.428
 7114W        W79539  17.675   7.364  11.097
 7115W        W79540  29.161  18.176   4.116
 7116W        W79541  31.128  14.331   0.949
 7117W        W79542  15.685  13.603  11.434
 7118W        W79543  21.160  27.571  12.436
 7119W        W79544  36.874   5.837  11.588
 7120W        W79545  39.460  10.876   1.251
 7121W        W79546  23.628   3.762   4.254
 7122W        W79547  30.510   5.237  10.416
 7123W        W79548   4.807  29.075  13.863
 7124W        W79549  27.117  33.910   3.314
 7125W        W79550  27.123  32.938   4.331
 7126W        W79551  34.609   5.783   0.354
 7127W        W79552  11.156  35.083   0.343
 7128W        W79553  35.503  29.586   2.765
 7129W        W79554  13.622   4.365   5.716
 7130W        W79555  24.517  35.993  13.841
 7131W        W79556  18.651   7.275  11.540
 7132W        W79557  26.621  41.520   4.643
 7133W        W79558  36.398  39.974   2.859
 7134W        W79559  43.472  27.940   4.322
 7135W        W79560  39.542   7.911   0.322
 7136W        W79561  28.479   8.676  12.835
 7137W        W79562   8.666  10.175   3.755
 7138W        W79563   5.347  36.580   3.295
 7139W        W79564  31.900  36.424   4.242
 7140W        W79565  27.475   0.398  13.315
 7141W        W79566  32.100  31.509  10.491
 7142W        W79567  27.036  33.027   0.410
 7143W        W79568  16.095   1.348  11.000
 7144W        W79569  19.657  20.741   0.426
 7145W        W79570   5.326  13.737   4.801
 7146W        W79571  22.006  40.919   1.417
 7147W        W79572  35.894  17.763   1.855
 7148W        W79573   8.348  28.606   2.889
 7149W        W79574  32.516  43.385   3.798
 7150W        W79575  44.782  43.506  13.923
 7151W        W79576   3.721  24.531  11.494
 7152W        W79577  40.381  11.804  13.426
 7153W        W79578   8.322  21.137   0.374
 7154W        W79579  21.592  34.036  14.455
 7155W        W79580  28.991  27.662   3.230
 7156W        W79581  11.799  19.059   3.367
 7157W        W79582   1.303   8.349  13.423
 7158W        W79583  23.091   7.738   0.962
 7159W        W79584  27.480  22.183   5.571
 7160W        W79585  36.094  21.160   1.302
 7161W        W79586  32.513  38.530   2.847
 7162W        W79587   7.843  24.650  12.096
 7163W        W79588  16.272  34.420  10.064
 7164W        W79589  27.953   5.407   2.227
 7165W        W79590  25.566  34.460  11.513
 7166W        W79591  28.481  28.185   2.257
 7167W        W79592  39.497  37.963  14.411
 7168W        W79593  25.149  29.010   5.248
 7169W        W79594  27.558  34.931  12.528
 7170W        W79595  31.604  12.653   1.843
 7171W        W79596  38.501  22.202  14.793
 7172W        W79597  27.525  29.446  10.435
 7173W        W79598  42.888  16.725   4.805
 7174W        W79599  31.483  21.625  12.906
 7175W        W79600  25.139  18.161   3.276
 7176W        W79601  16.155   4.397   1.352
 7177W        W79602  25.978  16.182   2.400
 7178W        W79603  39.488   2.402   2.860
 7179W        W79604   0.930  24.143  11.588
 7180W        W79605   8.852  15.649   4.131
 7181W        W79606  41.501  12.661  12.907
 7182W        W79607  23.717  19.056  13.034
 7183W        W79608  12.311   5.287  12.374
 7184W        W79609  28.526   4.699  11.389
 7185W        W79610  24.667  42.919  11.395
 7186W        W79611  17.064   8.268   4.768
 7187W        W79612   2.778   9.880   3.773
 7188W        W79613   6.206  22.176   3.342
 7189W        W79614  37.493  32.085   4.252
 7190W        W79615  27.456  19.190  10.476
 7191W        W79616  23.186  31.575   2.860
 7192W        W79617  12.778  18.056   1.866
 7193W        W79618  25.032   1.741   4.635
 7194W        W79619  27.618   5.304   2.214
 7195W        W79620  24.062  13.800  11.108
 7196W        W79621  21.234  43.833  12.387
 7197W        W79622   7.385   4.304   3.657
 7198W        W79623  10.750   0.759  10.407
 7199W        W79624   8.265  21.653   0.270
 7200W        W79625  24.646  33.969  12.342
 7201W        W79626  27.170  34.979   3.871
 7202W        W79627  32.088  19.217   3.848
 7203W        W79628  44.841  18.242   2.890
 7204W        W79629  40.398  42.873   3.214
 7205W        W79630  10.378  34.546  14.336
 7206W        W79631   4.939   8.752  11.978
 7207W        W79632  34.066  21.109  14.377
 7208W        W79633  16.650  42.806   4.188
 7209W        W79634  43.300  38.043  12.446
 7210W        W79635  44.903  12.214   0.414
 7211W        W79636  34.055  36.474   0.862
 7212W        W79637   3.257   8.332  12.005
 7213W        W79638  39.868  14.753  12.057
 7214W        W79639   4.919   8.345  14.359
 7215W        W79640  28.455   3.429  11.408
 7216W        W79641   4.382  36.976   2.686
 7217W        W79642  18.055  18.667  12.824
 7218W        W79643  12.741  29.009  11.889
 7219W        W79644  37.932  44.455  11.487
 7220W        W79645  26.058   3.820   2.699
 7221W        W79646  44.431  36.013   3.866
 7222W        W79647  10.273  41.954  11.877
 7223W        W79648   5.293  11.343  13.359
 7224W        W79649   6.217   9.244  12.434
 7225W        W79650  16.315   8.385   3.809
 7226W        W79651  42.442   8.717  12.932
 7227W        W79652  35.082  24.493   4.283
 7228W        W79653   4.892   2.325   1.725
 7229W        W79654  16.079  28.479   1.914
 7230W        W79655  43.300  36.931  11.070
 7231W        W79656  39.371  32.474  13.438
 7232W        W79657  35.003  26.984  11.452
 7233W        W79658  13.697  32.936  11.012
 7234W        W79659   0.290  37.083  10.625
 7235W        W79660  14.614  40.508   1.353
 7236W        W79661  40.914  19.546   4.338
 7237W        W79662   4.404  25.550   0.850
 7238W        W79663  27.150  24.174  12.459
 7239W        W79664  11.781  28.036   4.324
 7240W        W79665  35.051  36.404  10.572
 7241W        W79666  42.413  39.521   1.362
 7242W        W79667  18.269  26.072   1.805
 7243W        W79668  36.984  42.357   4.814
 7244W        W79669   8.832  31.406   3.260
 7245W        W79670   0.474   4.774   0.910
 7246W        W79671   5.430  43.817  11.605
 7247W        W79672  41.933  15.818  12.961
 7248W        W79673   6.316  37.562   2.283
 7249W        W79674  43.967  37.457   2.309
 7250W        W79675  38.492  17.190  12.000
 7251W        W79676   7.878  44.301   2.182
 7252W        W79677  12.690   8.336   0.935
 7253W        W79678  10.727   1.888   4.750
 7254W        W79679  23.723   9.692  11.995
 7255W        W79680  29.596  41.829  12.428
 7256W        W79681  14.733   4.381  12.857
 7257W        W79682   3.955  12.639  14.922
 7258W        W79683   4.719  28.611   3.191
 7259W        W79684  25.033  30.606  11.020
 7260W        W79685   7.794  29.938  13.381
 7261W        W79686  13.817  23.587  14.018
 7262W        W79687  27.624  17.616  12.443
 7263W        W79688  31.569  34.497  14.389
 7264W        W79689   1.380  43.298   2.309
 7265W        W79690  16.124  37.038   4.250
 7266W        W79691   4.929   0.923   0.434
 7267W        W79692  11.140  12.806   3.637
 7268W        W79693   7.252  35.865  13.478
 7269W        W79694  36.909  25.030  11.052
 7270W        W79695  20.656  40.880   2.671
 7271W        W79696  21.103  13.217   2.408
 7272W        W79697  40.894  12.297  14.924
 7273W        W79698  35.932   2.966  11.492
 7274W        W79699   5.723  39.526  14.467
 7275W        W79700  32.423   6.795  13.997
 7276W        W79701  34.872   8.689   2.664
 7277W        W79702  37.429  18.060  11.499
 7278W        W79703   1.429   2.721  13.004
 7279W        W79704  13.163  12.291   1.726
 7280W        W79705  25.480  28.601   4.169
 7281W        W79706  16.753  36.375   2.801
 7282W        W79707   7.706  13.345  14.846
 7283W        W79708   6.404  37.067   0.792
 7284W        W79709  35.910  16.159   0.962
 7285W        W79710   6.388  14.122  14.413
 7286W        W79711  31.444   3.948   1.348
 7287W        W79712  37.537  18.764   0.786
 7288W        W79713  23.215  21.164   3.339
 7289W        W79714  12.827  11.260  11.080
 7290W        W79715  19.057  10.747   1.354
 7291W        W79716  40.530  42.343  12.369
 7292W        W79717  44.275  26.165  12.437
 7293W        W79718  33.939  11.148  10.425
 7294W        W79719   4.860  16.294   2.704
 7295W        W79720   9.306   5.804  12.409
 7296W        W79721   4.449  21.641   2.744
 7297W        W79722  10.257  32.942  12.381
 7298W        W79723   6.378  37.580   0.376
 7299W        W79724  15.741  32.451  10.079
 7300W        W79725  26.064  19.595   1.380
 7301W        W79726  42.495  41.812   1.348
 7302W        W79727   6.823  23.553  10.954
 7303W        W79728  20.242  43.342   0.882
 7304W        W79729  15.321  25.106   2.338
 7305W        W79730  32.929  20.632  13.518
 7306W        W79731   3.856  37.035  11.411
 7307W        W79732  30.940  39.876  13.863
 7308W        W79733   5.305  35.395  10.501
 7309W        W79734  18.069  35.382   0.326
 7310W        W79735  31.497  12.165  11.515
 7311W        W79736  24.215   5.211   3.674
 7312W        W79737  31.553   3.739  10.611
 7313W        W79738  12.193  44.824   1.451
 7314W        W79739  29.577  26.660   4.167
 7315W        W79740  20.077   7.252  14.923
 7316W        W79741  28.550  37.444  13.428
 7317W        W79742  25.009  21.596   1.714
 7318W        W79743   8.773  29.928  14.819
 7319W        W79744   4.420  39.919   3.681
 7320W        W79745  42.788  30.913   1.863
 7321W        W79746  24.174  22.040  12.975
 7322W        W79747  24.119  25.131  11.579
 7323W        W79748  43.426  32.481  10.125
 7324W        W79749  25.154   8.213  14.767
 7325W        W79750   8.222   9.654   1.332
 7326W        W79751  19.229   1.442   4.117
 7327W        W79752  43.816  15.293   4.251
 7328W        W79753  43.335   6.368   3.336
 7329W        W79754  13.315  29.564  12.076
 7330W        W79755   0.977  17.145  13.031
 7331W        W79756   6.893   6.905   4.243
 7332W        W79757  41.964  39.979   4.233
 7333W        W79758  30.985   1.393   4.741
 7334W        W79759   1.303   0.358  13.346
 7335W        W79760  35.407  34.918  14.995
 7336W        W79761  11.798   5.413   0.467
 7337W        W79762  24.620  11.143  12.435
 7338W        W79763  13.221  28.985   2.779
 7339W        W79764  35.078  10.258  14.970
 7340W        W79765  40.798  25.494  13.515
 7341W        W79766  25.652  15.789  14.400
 7342W        W79767  32.972  44.274  14.867
 7343W        W79768  42.402  15.227   1.722
 7344W        W79769   3.407   7.802   4.120
 7345W        W79770  36.082   2.306   4.774
 7346W        W79771   6.285  13.115  10.579
 7347W        W79772  23.500  32.561  13.898
 7348W        W79773  28.058  18.082   3.852
 7349W        W79774  42.894  28.125   3.349
 7350W        W79775   5.352   0.859  12.848
 7351W        W79776  25.126  38.826  12.054
 7352W        W79777  24.204  38.570   4.752
 7353W        W79778   2.733  33.400  13.339
 7354W        W79779  22.118   1.289   4.744
 7355W        W79780   9.301  28.129  13.961
 7356W        W79781  21.020  30.631   3.808
 7357W        W79782  27.571  20.213   3.308
 7358W        W79783  10.648  12.799  12.851
 7359W        W79784  36.017   6.871  11.058
 7360W        W79785  11.285  18.634   0.882
 7361W        W79786  15.278  15.588   3.207
 7362W        W79787  31.946   7.668   0.804
 7363W        W79788  25.483  35.993   5.087
 7364W        W79789  11.243  27.616   1.758
 7365W        W79790  25.099  30.937   4.299
 7366W        W79791  29.619  25.704   1.311
 7367W        W79792  39.511  11.712  14.277
 7368W        W79793  10.308  31.003   1.336
 7369W        W79794   5.418  31.508   2.212
 7370W        W79795  18.260  30.453  11.380
 7371W        W79796  40.894   4.443  14.012
 7372W        W79797  35.066  15.159  12.960
 7373W        W79798  39.423   3.753  13.358
 7374W        W79799  37.884  30.080  12.985
 7375W        W79800  14.150   8.401  14.892
 7376W        W79801  11.206   5.932   0.877
 7377W        W79802  17.297  17.300  13.430
 7378W        W79803  21.638   9.180   3.358
 7379W        W79804  44.864  43.507  10.438
 7380W        W79805  13.301  29.467   5.169
 7381W        W79806  16.150  17.108   0.274
 7382W        W79807  23.639  33.410   3.842
 7383W        W79808  16.237  25.521   3.703
 7384W        W79809  11.758   0.788   5.221
 7385W        W79810   6.357   8.792  11.923
 7386W        W79811  39.395  22.209   1.284
 7387W        W79812  16.785  17.079   3.684
 7388W        W79813  34.941   5.775  11.981
 7389W        W79814   6.305   8.252   0.392
 7390W        W79815  14.327  33.044  10.050
 7391W        W79816  38.061   6.249  11.439
 7392W        W79817  44.850   5.411  11.961
 7393W        W79818  31.616  22.619  14.932
 7394W        W79819  43.008   2.966  11.547
 7395W        W79820  32.908  22.107  13.854
 7396W        W79821   7.705   1.294   2.872
 7397W        W79822  28.137  33.589  10.594
 7398W        W79823   5.868  29.555   3.209
 7399W        W79824   5.259  29.598   2.257
 7400W        W79825  32.552   6.368  12.078
 7401W        W79826  27.487  20.622  13.381
 7402W        W79827  16.680  34.424   2.228
 7403W        W79828  16.809  22.020  14.324
 7404W        W79829  12.669  42.360  14.344
 7405W        W79830  13.721   4.277  10.967
 7406W        W79831  22.114  33.102  12.924
 7407W        W79832  30.141  24.543  13.926
 7408W        W79833   8.672  34.438  10.425
 7409W        W79834  37.487   1.793   2.818
 7410W        W79835  39.319  31.121   3.654
 7411W        W79836  39.905  17.224  13.387
 7412W        W79837  23.160  30.593   3.253
 7413W        W79838  41.032  23.099  12.528
 7414W        W79839  40.835  19.221  11.387
 7415W        W79840   2.948  17.205   0.893
 7416W        W79841  31.981  17.207   3.689
 7417W        W79842  36.858  11.210   3.288
 7418W        W79843   4.397  35.096   2.893
 7419W        W79844  12.694  44.307   0.246
 7420W        W79845  36.366  25.205   2.866
 7421W        W79846  39.856   7.687   4.288
 7422W        W79847  26.630  15.639  13.002
 7423W        W79848  38.039  18.553   1.371
 7424W        W79849  18.186  34.499  14.307
 7425W        W79850  18.123  38.550  11.120
 7426W        W79851  37.384  26.578  10.118
 7427W        W79852  32.114  38.831  11.512
 7428W        W79853  21.714  31.537  13.534
 7429W        W79854  25.992  26.595  10.532
 7430W        W79855  39.866  31.483   1.424
 7431W        W79856   7.768  23.523  14.795
 7432W        W79857  12.272  37.953   1.432
 7433W        W79858  25.579   0.449   1.438
 7434W        W79859   9.376  29.569   3.668
 7435W        W79860   7.870  13.842  13.933
 7436W        W79861   4.930   7.740  14.503
 7437W        W79862  28.029  34.407   3.819
 7438W        W79863  41.934  36.072   0.757
 7439W        W79864  27.063   3.818  13.397
 7440W        W79865  44.442   0.858  10.511
 7441W        W79866   0.790  39.909   0.296
 7442W        W79867  15.249  10.677  14.327
 7443W        W79868   2.808  11.201  12.357
 7444W        W79869  10.724  40.360   2.303
 7445W        W79870  21.194   7.401   3.361
 7446W        W79871  27.083  30.489  10.943
 7447W        W79872  24.545   8.696   2.273
 7448W        W79873  25.092  40.409   3.665
 7449W        W79874  40.858  28.931   2.371
 7450W        W79875   2.801  15.189   0.761
 7451W        W79876  23.236  37.416  13.420
 7452W        W79877  19.198  26.134   0.395
 7453W        W79878  22.700  26.163  14.453
 7454W        W79879  12.329  25.587   1.264
 7455W        W79880  13.783   1.945  12.522
 7456W        W79881  30.989   3.739   4.836
 7457W        W79882  16.802  33.088  12.423
 7458W        W79883  12.295  16.735   0.420
 7459W        W79884  41.443   3.354  14.950
 7460W        W79885  28.643  16.803  14.884
 7461W        W79886   7.810  28.077  13.428
 7462W        W79887  23.674  16.274  14.503
 7463W        W79888  10.207  34.946   1.436
 7464W        W79889  21.538  38.940   4.261
 7465W        W79890   9.890  16.675  10.458
 7466W        W79891  19.599  33.472   1.704
 7467W        W79892  13.179  17.618   1.812
 7468W        W79893  23.035  44.988   4.826
 7469W        W79894  10.261  44.008  11.998
 7470W        W79895  31.980   1.339  13.307
 7471W        W79896  21.708  20.168   1.885
 7472W        W79897   9.234   2.307   1.356
 7473W        W79898  32.987  10.716  11.507
 7474W        W79899  41.538   0.866   1.909
 7475W        W79900  37.990  17.255   3.198
 7476W        W79901  11.814   6.880   1.740
 7477W        W79902  15.179  22.069   4.658
 7478W        W79903  13.651  14.305   4.288
 7479W        W79904  32.946  29.112  10.988
 7480W        W79905  37.064  23.512  11.919
 7481W        W79906  41.307  38.939  14.001
 7482W        W79907  21.522  43.960   2.807
 7483W        W79908  22.712  44.301  10.616
 7484W        W79909  28.505   4.361   4.828
 7485W        W79910  31.102  34.967  13.035
 7486W        W79911  40.924   4.366   3.368
 7487W        W79912  13.661  38.448  13.819
 7488W        W79913   8.193  36.975   0.391
 7489W        W79914  20.057  36.363   3.348
 7490W        W79915  28.437  14.231  14.295
 7491W        W79916  26.201  17.072   4.712
 7492W        W79917  27.982   4.774   4.708
 7493W        W79918  33.565  43.369  12.527
 7494W        W79919   3.951  32.554   2.348
 7495W        W79920  40.389  29.144   2.339
 7496W        W79921  19.709  34.991  12.405
 7497W        W79922  40.876  32.105  13.954
 7498W        W79923   7.359  12.637  14.988
 7499W        W79924  21.165  24.634   0.794
 7500W        W79925  25.181  32.478   3.226
 7501W        W79926  17.108  35.965   2.889
 7502W        W79927   5.768  25.158   0.394
 7503W        W79928  43.305  12.254   1.933
 7504W        W79929   0.881  22.038  14.818
 7505W        W79930  41.907   2.749   3.657
 7506W        W79931   4.830  12.294  10.980
 7507W        W79932  40.930  38.908  11.433
 7508W        W79933  36.449   1.836  14.992
 7509W        W79934  10.798  37.406  12.409
 7510W        W79935  20.586  34.927   3.359
 7511W        W79936  40.545   7.175  10.078
 7512W        W79937  29.591   1.454   1.349
 7513W        W79938  22.250  23.211  10.596
 7514W        W79939  42.307  22.087   1.253
 7515W        W79940  37.563   8.854  13.916
 7516W        W79941  11.759  42.330   0.819
 7517W        W79942  20.043  31.062   3.248
 7518W        W79943  33.487  31.958  13.527
 7519W        W79944  14.724  33.568   2.739
 7520W        W79945  10.296  12.335   1.221
 7521W        W79946  30.952  21.184  10.407
 7522W        W79947  34.395  23.549  12.081
 7523W        W79948  10.172  29.989   3.820
 7524W        W79949  35.045  42.381   0.270
 7525W        W79950  21.073  21.517   4.659
 7526W        W79951  16.232  15.265  14.510
 7527W        W79952  18.640   7.704   0.326
 7528W        W79953  22.579  21.240  10.569
 7529W        W79954   5.933   4.232  14.821
 7530W        W79955  11.238   3.755  13.351
 7531W        W79956  28.471  31.929  13.876
 7532W        W79957  24.995  27.590   2.807
 7533W        W79958  34.522  23.714  11.436
 7534W        W79959  42.352  44.801  11.462
 7535W        W79960   0.341  16.111   1.238
 7536W        W79961  30.094  13.278  14.767
 7537W        W79962  11.143  21.534  14.296
 7538W        W79963  27.672   5.793  13.843
 7539W        W79964  39.899  28.031  12.361
 7540W        W79965   1.293  28.543  13.486
 7541W        W79966  43.936  32.063  14.937
 7542W        W79967  16.076  19.100  10.441
 7543W        W79968   8.245  37.360   3.781
 7544W        W79969   6.789   1.900   1.291
 7545W        W79970   5.838  21.129   2.744
 7546W        W79971   6.321   4.222   3.635
 7547W        W79972  33.522   3.802   2.834
 7548W        W79973  26.187  32.002   0.314
 7549W        W79974  18.209   9.787  14.343
 7550W        W79975   1.297   9.663   0.469
 7551W        W79976  18.168  28.182  10.523
 7552W        W79977   5.897  18.702  12.882
 7553W        W79978  41.037  31.509   4.622
 7554W        W79979  23.504  43.492  11.958
 7555W        W79980  20.722  42.443  14.857
 7556W        W79981   5.430   6.706   4.142
 7557W        W79982  27.960   2.431  13.865
 7558W        W79983  22.013   9.823   9.604
 7559W        W79984  40.916  31.643   2.318
 7560W        W79985   7.701  11.672   1.732
 7561W        W79986  32.431  27.556  13.910
 7562W        W79987  41.806   1.891   4.838
 7563W        W79988  44.865   4.443  13.040
 7564W        W79989  18.750  35.001  12.925
 7565W        W79990   7.388  26.096  14.383
 7566W        W79991  16.644  30.031   2.407
 7567W        W79992  25.487   9.709   4.601
 7568W        W79993   4.921  37.872   0.294
 7569W        W79994  18.770  22.677  13.322
 7570W        W79995   8.280  25.082  14.852
 7571W        W79996  27.988  44.895   3.705
 7572W        W79997  37.932  17.172   0.476
 7573W        W79998  40.968  29.523   2.895
 7574W        W79999   9.341   9.295   3.317
 7575W        W80000  22.687  22.218  11.065
 7576W        W80001   2.926  31.617  14.368
 7577W        W80002   3.217  38.533  10.983
 7578W        W80003   8.256  24.537  13.527
 7579W        W80004  29.143  21.230  11.461
 7580W        W80005  37.088  44.918   0.480
 7581W        W80006  18.150  25.577   0.435
 7582W        W80007  29.566   1.932  12.042
 7583W        W80008  40.480  28.017  12.887
 7584W        W80009  37.929  16.198   1.396
 7585W        W80010  31.111  15.627  10.889
 7586W        W80011  27.594  32.583  11.048
 7587W        W80012  11.319  15.784  14.909
 7588W        W80013  13.640  20.046  13.334
 7589W        W80014  44.396  24.497  12.975
 7590W        W80015  11.756  28.153  11.939
 7591W        W80016  42.883  43.310  14.489
 7592W        W80017   6.331  29.444  11.390
 7593W        W80018   4.445  15.599   0.928
 7594W        W80019  14.605  44.462  12.450
 7595W        W80020   7.338   6.736  11.005
 7596W        W80021  22.230  35.870  10.634
 7597W        W80022   5.728  21.675  14.419
 7598W        W80023  13.278   9.763   0.838
 7599W        W80024  32.014   0.445   1.831
 7600W        W80025  10.315  26.015   1.397
 7601W        W80026  26.124  38.932   3.327
 7602W        W80027  15.294  27.022  14.793
 7603W        W80028  19.640  34.609   3.356
 7604W        W80029  28.117  15.674  14.360
 7605W        W80030  18.734  20.204   3.218
 7606W        W80031   1.474   7.783  14.439
 7607W        W80032  43.426  12.669   4.193
 7608W        W80033  34.540  24.542  11.069
 7609W        W80034  37.517  37.573   9.950
 7610W        W80035   3.423  44.399   2.664
 7611W        W80036  32.552  32.921   2.360
 7612W        W80037  10.222   2.406  11.910
 7613W        W80038  36.906  14.704   1.328
 7614W        W80039   6.347  25.710  11.518
 7615W        W80040   7.417   6.249  14.849
 7616W        W80041  31.549  19.114  14.005
 7617W        W80042  36.076  12.746   1.319
 7618W        W80043  29.537  39.370   2.862
 7619W        W80044  39.370  12.305  10.617
 7620W        W80045  40.326  44.004  13.385
 7621W        W80046  23.496  43.407   3.306
 7622W        W80047  20.531  40.325  14.424
 7623W        W80048   1.833  16.675  11.454
 7624W        W80049   0.460   3.439   1.383
 7625W        W80050  20.031  43.434   3.719
 7626W        W80051  21.558  13.613  14.931
 7627W        W80052   4.742  20.633   3.309
 7628W        W80053  42.996  16.214  10.500
 7629W        W80054  15.780  16.794  10.896
 7630W        W80055  28.614   1.435  14.950
 7631W        W80056  13.135  41.878   1.315
 7632W        W80057  43.455  38.991   2.829
 7633W        W80058  20.069   9.771  10.594
 7634W        W80059  35.086   6.343   5.103
 7635W        W80060  39.428  40.856  10.593
 7636W        W80061  13.788  11.760  12.444
 7637W        W80062  29.442  41.372  10.918
 7638W        W80063  29.606  22.688   2.872
 7639W        W80064  23.573  44.278   0.869
 7640W        W80065  19.262  25.049  12.366
 7641W        W80066   4.802  13.649  14.788
 7642W        W80067   2.382  43.418   1.755
 7643W        W80068  24.673  36.054   2.363
 7644W        W80069  37.408  36.971   4.657
 7645W        W80070  25.175  32.926   0.413
 7646W        W80071  18.555  16.081  10.927
 7647W        W80072  13.252  25.703  14.301
 7648W        W80073   0.330  44.841  12.450
 7649W        W80074   9.761  36.876  11.045
 7650W        W80075   1.939  40.514  13.538
 7651W        W80076  15.121  10.347  13.417
 7652W        W80077  38.849  25.043  10.558
 7653W        W80078   9.657  35.409   1.324
 7654W        W80079  34.376   9.211   3.381
 7655W        W80080  32.477  34.056   1.728
 7656W        W80081  35.485  16.255  12.898
 7657W        W80082   5.388  40.809   2.402
 7658W        W80083  10.664  23.036   5.176
 7659W        W80084  31.025  11.749  11.580
 7660W        W80085  27.528  35.983   1.911
 7661W        W80086   0.757  13.241  11.432
 7662W        W80087  38.532   1.279   3.823
 7663W        W80088   3.326  12.763  10.958
 7664W        W80089  28.087  41.510  14.312
 7665W        W80090  29.003  16.205  12.863
 7666W        W80091  35.878  37.384  10.520
 7667W        W80092  25.592  36.949  13.002
 7668W        W80093   2.949   2.380  11.601
 7669W        W80094  14.737  28.622  12.931
 7670W        W80095  18.294  28.622   1.911
 7671W        W80096  34.471  24.705   2.399
 7672W        W80097   2.729  19.238  14.888
 7673W        W80098  21.715  23.058   3.828
 7674W        W80099  14.174  21.594   1.266
 7675W        W80100  11.632  36.917   3.816
 7676W        W80101  28.139  25.673   9.946
 7677W        W80102  35.924  10.339  13.802
 7678W        W80103  26.178  10.151  13.905
 7679W        W80104   7.390  31.115   1.269
 7680W        W80105  39.992  24.979  10.894
 7681W        W80106  34.494  12.264   2.737
 7682W        W80107  17.698  21.665  13.417
 7683W        W80108  44.274  10.642   1.347
 7684W        W80109  11.315  44.400  14.819
 7685W        W80110  15.713  17.784  13.920
 7686W        W80111  19.249   1.775   2.799
 7687W        W80112  41.479   4.333   3.719
 7688W        W80113  12.196   9.770  11.877
 7689W        W80114  24.140   8.896   2.665
 7690W        W80115  15.183   8.815   2.404
 7691W        W80116   8.726   3.323  11.483
 7692W        W80117  27.943  11.141   4.316
 7693W        W80118  17.621  24.001   1.316
 7694W        W80119   7.357  13.114   4.624
 7695W        W80120  37.402  40.490  12.941
 7696W        W80121  17.732  44.764   0.920
 7697W        W80122   9.364   4.384  12.553
 7698W        W80123  12.669  36.591   1.295
 7699W        W80124  39.829   7.696   4.793
 7700W        W80125   0.815  17.673  10.564
 7701W        W80126  25.626   6.290   4.667
 7702W        W80127  34.524  30.998  14.923
 7703W        W80128  19.590  38.327  14.879
 7704W        W80129  27.462   5.854   2.670
 7705W        W80130  29.115  26.625   2.189
 7706W        W80131  34.003  16.199  11.098
 7707W        W80132  43.865  28.519   0.469
 7708W        W80133  15.739   8.306   3.382
 7709W        W80134  10.827  10.203   4.618
 7710W        W80135  41.835   0.330   3.784
 7711W        W80136   1.795  29.103   4.243
 7712W        W80137   6.830  41.531  12.900
 7713W        W80138  24.167  33.914   2.742
 7714W        W80139  20.154   5.930  12.939
 7715W        W80140  33.896  14.676  14.433
 7716W        W80141   6.258  37.943   0.932
 7717W        W80142  42.867  35.363   1.405
 7718W        W80143  17.254  12.670   3.266
 7719W        W80144  27.027   7.812   2.673
 7720W        W80145  42.439   9.716  14.405
 7721W        W80146   7.309  32.895  12.938
 7722W        W80147  26.698  43.962  14.932
 7723W        W80148  17.726  32.090  11.092
 7724W        W80149  25.966  28.932   1.903
 7725W        W80150  24.013  36.551  13.916
 7726W        W80151  25.022   7.815  10.932
 7727W        W80152  42.847  34.548  14.502
 7728W        W80153  44.792  29.605  14.015
 7729W        W80154  44.461   9.703   0.781
 7730W        W80155  12.639  10.250  13.903
 7731W        W80156  37.448   6.230  14.372
 7732W        W80157   7.358   1.933   0.252
 7733W        W80158  12.304  24.140   0.332
 7734W        W80159  16.728  20.564  13.886
 7735W        W80160  43.882  16.764   1.846
 7736W        W80161  18.090  29.544   3.287
 7737W        W80162  13.170   6.782  12.482
 7738W        W80163  23.128   5.398   4.604
 7739W        W80164  25.169  23.241   4.688
 7740W        W80165  24.987  20.096   3.634
 7741W        W80166  27.998   6.202  13.810
 7742W        W80167   9.301   6.415  12.568
 7743W        W80168  16.154  22.100   2.222
 7744W        W80169  32.463  29.156  10.438
 7745W        W80170  29.500  18.130  10.953
 7746W        W80171   4.211  30.986  10.538
 7747W        W80172  25.065  33.611   3.658
 7748W        W80173  41.796  36.383   3.756
 7749W        W80174  11.810  36.547   1.821
 7750W        W80175  40.991  22.616  13.322
 7751W        W80176   2.933  12.140   2.255
 7752W        W80177  31.591  43.936  11.985
 7753W        W80178  32.947  40.531  13.873
 7754W        W80179   7.370   5.728   2.888
 7755W        W80180   6.722  25.674  13.442
 7756W        W80181  18.052   7.898  10.467
 7757W        W80182  19.178  10.197   4.198
 7758W        W80183  22.595  42.404  12.438
 7759W        W80184  35.585  36.439   0.920
 7760W        W80185  38.489  31.062   3.386
 7761W        W80186  28.989  44.493   1.222
 7762W        W80187   4.756   3.297   3.869
 7763W        W80188  39.817   1.969   2.718
 7764W        W80189  25.010  12.694   4.791
 7765W        W80190  23.491  16.288  13.469
 7766W        W80191  20.767  25.711  13.941
 7767W        W80192  10.845  36.932   4.615
 7768W        W80193  37.855  23.149   0.461
 7769W        W80194  38.444  10.668   2.741
 7770W        W80195  15.602  41.511   4.635
 7771W        W80196  29.669   9.338   0.407
 7772W        W80197  25.983  14.151   1.706
 7773W        W80198  44.970  30.531  11.436
 7774W        W80199  16.681  13.185  10.907
 7775W        W80200  35.987  21.169  10.918
 7776W        W80201  29.163  22.140  14.499
 7777W        W80202   1.414  37.465   3.784
 7778W        W80203  37.016  17.210   2.215
 7779W        W80204   0.488   1.961   2.203
 7780W        W80205  13.296  32.527  12.511
 7781W        W80206   1.753  39.436   4.632
 7782W        W80207  42.319  11.214   4.173
 7783W        W80208  21.089  27.683   0.365
 7784W        W80209  38.073  41.819   0.447
 7785W        W80210  31.989  43.954   2.783
 7786W        W80211  11.752  41.964  13.408
 7787W        W80212  32.080  31.925  13.063
 7788W        W80213  33.550  18.713   2.817
 7789W        W80214  42.907  17.177  13.862
 7790W        W80215  39.460  30.990  13.350
 7791W        W80216   0.466  21.593   2.394
 7792W        W80217  35.105  29.999  11.963
 7793W        W80218  36.069  22.724  12.060
 7794W        W80219  17.746  26.208  14.971
 7795W        W80220   7.786   4.301  12.412
 7796W        W80221  40.396  12.337  12.894
 7797W        W80222  31.451  38.822   1.848
 7798W        W80223  34.484  27.091   0.943
 7799W        W80224  28.514  40.479  11.002
 7800W        W80225   3.415  14.271  10.404
 7801W        W80226  39.878  38.502  12.351
 7802W        W80227  22.662  18.556  13.452
 7803W        W80228  28.653  37.071   1.756
 7804W        W80229  41.489  16.101   4.711
 7805W        W80230  15.236   4.804  12.537
 7806W        W80231   7.708   2.303  13.869
 7807W        W80232  28.607  28.456  11.575
 7808W        W80233  13.316  10.274  10.477
 7809W        W80234  40.387  15.175  14.947
 7810W        W80235   9.283  35.051   2.672
 7811W        W80236  29.995  31.066   3.698
 7812W        W80237  27.103  36.853   2.336
 7813W        W80238  38.014  28.536   4.235
 7814W        W80239  44.990  20.212  13.838
 7815W        W80240  12.295   0.756  11.090
 7816W        W80241  18.599  30.141  13.856
 7817W        W80242  19.179  36.008   4.326
 7818W        W80243  22.518  20.035  12.917
 7819W        W80244  14.260  15.771  14.330
 7820W        W80245  19.683   8.715  10.932
 7821W        W80246  27.965  12.749   1.320
 7822W        W80247  19.145  30.021   4.686
 7823W        W80248  17.302  26.010   3.335
 7824W        W80249  44.981  16.573  13.793
 7825W        W80250   6.676  40.447  12.487
 7826W        W80251  11.829   4.937   4.253
 7827W        W80252  41.913   0.381   3.150
 7828W        W80253   6.698   7.715   3.848
 7829W        W80254   4.764  13.724  11.008
 7830W        W80255  35.484   6.836   9.533
 7831W        W80256   7.912  24.226   1.391
 7832W        W80257  39.527  40.526  13.006
 7833W        W80258  36.407  23.530   0.820
 7834W        W80259   3.228  22.198  13.355
 7835W        W80260   5.238  24.211  14.332
 7836W        W80261  15.597  25.196   2.755
 7837W        W80262   4.268   0.258   1.855
 7838W        W80263   0.300  14.144  11.018
 7839W        W80264  43.892  20.697  14.347
 7840W        W80265  33.422   2.730   1.230
 7841W        W80266   7.243  26.673  13.951
 7842W        W80267  34.108   6.274  13.438
 7843W        W80268  26.057  29.596  10.480
 7844W        W80269  17.782  10.347  11.968
 7845W        W80270  38.010   2.948   0.379
 7846W        W80271  19.638   8.749   4.609
 7847W        W80272  32.017  35.465   4.153
 7848W        W80273  10.717  15.112   4.787
 7849W        W80274  16.812  13.764   0.813
 7850W        W80275  18.699  29.150   0.440
 7851W        W80276   0.477  40.926   2.235
 7852W        W80277   7.250  12.649  13.828
 7853W        W80278  10.662   4.708  13.977
 7854W        W80279   4.352   1.772   3.832
 7855W        W80280   2.762  15.116  11.527
 7856W        W80281  12.626  18.602  12.471
 7857W        W80282  31.057  17.145  12.006
 7858W        W80283  36.352  35.560   0.858
 7859W        W80284  29.141  24.610  13.437
 7860W        W80285  23.501  33.389  12.513
 7861W        W80286  30.494  43.292  14.436
 7862W        W80287  27.040  37.535  14.890
 7863W        W80288  34.371  36.874  11.873
 7864W        W80289  40.900  41.439   1.837
 7865W        W80290  41.455  33.896  14.766
 7866W        W80291  39.978  20.530   2.412
 7867W        W80292  13.184  43.306   4.636
 7868W        W80293  18.637  29.561   4.748
 7869W        W80294  28.575   0.859  14.414
 7870W        W80295  41.327  38.977  14.985
 7871W        W80296   9.222  17.237   2.246
 7872W        W80297  12.667  14.658   0.443
 7873W        W80298  43.335  42.476  14.425
 7874W        W80299  13.754  19.277  14.315
 7875W        W80300  38.052  43.410  14.314
 7876W        W80301   0.321   1.292   1.833
 7877W        W80302  16.167  43.945   1.881
 7878W        W80303  25.618  22.628  10.907
 7879W        W80304  22.726  34.612  14.283
 7880W        W80305   0.975  24.668   3.654
 7881W        W80306  18.237  35.459   4.642
 7882W        W80307  17.623  17.208  11.969
 7883W        W80308  10.685   1.413  10.562
 7884W        W80309   9.866  32.402  11.995
 7885W        W80310  13.299  35.996  10.444
 7886W        W80311  15.294  35.955   1.783
 7887W        W80312  25.516  33.118   1.397
 7888W        W80313  19.282   2.335   4.660
 7889W        W80314  36.388  28.930  11.113
 7890W        W80315   2.917  21.226   0.457
 7891W        W80316  29.581  21.648  12.095
 7892W        W80317  28.163  11.630   2.885
 7893W        W80318  32.617   9.649   2.222
 7894W        W80319  20.644  10.373   5.118
 7895W        W80320  21.032  44.336  13.452
 7896W        W80321  31.906  28.020   2.338
 7897W        W80322  31.083  21.107   3.753
 7898W        W80323  17.185  43.802   1.233
 7899W        W80324   7.817  16.280  10.925
 7900W        W80325  23.681   6.224   4.666
 7901W        W80326  33.935   7.355   0.818
 7902W        W80327  17.112  13.312  12.446
 7903W        W80328   4.396  34.537  11.898
 7904W        W80329  40.424  38.485   2.323
 7905W        W80330  26.108  17.088   2.895
 7906W        W80331   5.382   0.470   1.718
 7907W        W80332   3.925  18.647   0.293
 7908W        W80333  30.936  24.535  13.362
 7909W        W80334  41.495  19.594   9.552
 7910W        W80335  41.857  21.520   4.118
 7911W        W80336   9.853  39.483   0.832
 7912W        W80337  16.211  36.876  14.848
 7913W        W80338  33.542   0.288  11.499
 7914W        W80339   4.229  34.865  13.447
 7915W        W80340  33.918  14.180  11.923
 7916W        W80341  31.634   1.410  14.000
 7917W        W80342  33.949  43.396   1.759
 7918W        W80343  24.041  36.553   1.408
 7919W        W80344  39.364  23.703   1.446
 7920W        W80345   3.243  21.680  11.449
 7921W        W80346  25.066  39.444   1.769
 7922W        W80347  24.089  28.976   0.843
 7923W        W80348  15.138  32.547  13.952
 7924W        W80349   3.322  30.433  11.022
 7925W        W80350  44.774  13.253   1.699
 7926W        W80351   8.401  22.656  12.853
 7927W        W80352  43.827   3.753   2.770
 7928W        W80353  33.406   5.927  12.064
 7929W        W80354   2.798  25.517   3.838
 7930W        W80355  37.066  44.944  13.809
 7931W        W80356  35.405  42.923  14.420
 7932W        W80357  23.493  44.416  11.954
 7933W        W80358  25.165   1.818   3.849
 7934W        W80359   0.442  26.068   1.258
 7935W        W80360  20.654  12.817  11.907
 7936W        W80361  39.547  36.484   2.308
 7937W        W80362  25.045  31.427  10.512
 7938W        W80363  27.579   4.424   3.200
 7939W        W80364  11.268  13.234   0.762
 7940W        W80365  24.504   2.353   2.664
 7941W        W80366   0.968   2.741  10.413
 7942W        W80367   1.910  39.065   3.866
 7943W        W80368  12.711  17.180  14.341
 7944W        W80369  41.009  17.253   4.158
 7945W        W80370  30.053  40.540   1.863
 7946W        W80371   1.820  33.079  12.475
 7947W        W80372  42.902   6.258   2.355
 7948W        W80373  31.027  29.460  11.907
 7949W        W80374  38.369  44.967  14.454
 7950W        W80375  22.552  39.967   1.351
 7951W        W80376  13.756  13.633  14.328
 7952W        W80377  42.325   8.177  12.345
 7953W        W80378   3.229   6.331   5.268
 7954W        W80379  10.725  44.313   2.243
 7955W        W80380  15.187  13.792  11.098
 7956W        W80381   0.250   8.877   0.950
 7957W        W80382  31.934  18.265   3.226
 7958W        W80383  14.791   5.844  11.518
 7959W        W80384  44.381   8.376  14.887
 7960W        W80385  43.802  22.184   3.206
 7961W        W80386  23.231  40.306  11.561
 7962W        W80387  10.317  36.496  14.826
 7963W        W80388  18.627  20.244  12.941
 7964W        W80389  28.080  19.694  10.421
 7965W        W80390  38.496  25.057   1.442
 7966W        W80391   4.888  43.480   4.603
 7967W        W80392  15.174   3.938  13.899
 7968W        W80393  38.509   2.843  14.805
 7969W        W80394  39.876   2.776   4.192
 7970W        W80395  35.503  34.369   4.766
 7971W        W80396  17.606  38.493   2.825
 7972W        W80397  43.491   9.201  11.479
 7973W        W80398  28.676  30.611  12.431
 7974W        W80399  31.949  12.233   0.381
 7975W        W80400  20.750   4.796   1.727
 7976W        W80401  25.477  15.761  12.395
 7977W        W80402   7.690   9.363   4.702
 7978W        W80403   8.239  29.932  13.987
 7979W        W80404   6.386   4.445  12.092
 7980W        W80405  10.818  32.549  11.940
 7981W        W80406   2.868  11.674   4.313
 7982W        W80407  21.632  24.997   3.371
 7983W        W80408  33.997  38.907   2.311
 7984W        W80409  41.473  20.230  12.459
 7985W        W80410  23.699  11.208  12.981
 7986W        W80411  12.846  14.670  14.799
 7987W        W80412  18.633   5.924   3.245
 7988W        W80413  24.205  28.045   2.341
 7989W        W80414  28.500   5.688   4.256
 7990W        W80415  38.046  29.500  13.897
 7991W        W80416  40.305   6.821   3.758
 7992W        W80417  39.965  14.139  14.887
 7993W        W80418  15.229  27.063  12.522
 7994W        W80419  28.469  15.770  14.960
 7995W        W80420  32.083  18.154   1.859
 7996W        W80421  29.580  32.458   2.189
 7997W        W80422  39.837  39.981   4.660
 7998W        W80423  37.037  43.286   0.881
 7999W        W80424  31.964  40.863   2.343
 8000W        W80425  26.524  41.323  10.548
 8001W        W80426   4.890  33.951   3.194
 8002W        W80427  19.741  37.374  11.109
 8003W        W80428   7.408  31.609   1.798
 8004W        W80429   4.450   2.770   4.611
 8005W        W80430  26.069  13.154   0.344
 8006W        W80431  19.677  31.512   4.272
 8007W        W80432  31.451   1.898   0.828
 8008W        W80433   7.413  17.070   4.662
 8009W        W80434  28.672  39.967  13.411
 8010W        W80435  22.026  10.311   3.173
 8011W        W80436  29.485  16.652  14.478
 8012W        W80437  38.897  17.583   0.293
 8013W        W80438   2.436  15.084   4.270
 8014W        W80439   0.482  22.137  11.377
 8015W        W80440  22.613  22.659   0.335
 8016W        W80441  11.146  26.199  14.778
 8017W        W80442  28.612  35.390  11.992
 8018W        W80443  30.975  42.964   4.723
 8019W        W80444   6.755  14.147   2.775
 8020W        W80445  32.961  43.286   4.711
 8021W        W80446   3.935  40.050  12.952
 8022W        W80447  32.097   9.675   3.369
 8023W        W80448  39.430  14.738   1.923
 8024W        W80449  14.272   4.330  12.021
 8025W        W80450  43.870  32.421   4.345
 8026W        W80451  18.571  24.631  10.596
 8027W        W80452  32.607   6.726  12.065
 8028W        W80453   6.859  19.137  14.317
 8029W        W80454  14.633  12.743  13.058
 8030W        W80455  32.521  24.617   1.744
 8031W        W80456  14.782  21.099  13.460
 8032W        W80457  12.680  25.209  11.468
 8033W        W80458  37.058   8.659  10.089
 8034W        W80459  27.644   3.728  13.021
 8035W        W80460   0.772  22.510   4.312
 8036W        W80461  27.087   0.339  14.380
 8037W        W80462   5.246   0.857   0.791
 8038W        W80463  11.745  15.154  14.833
 8039W        W80464  33.478  27.951   3.355
 8040W        W80465  21.656   9.812   9.640
 8041W        W80466  13.112  29.510   1.377
 8042W        W80467  24.618  17.759   1.750
 8043W        W80468  34.579   5.693  11.979
 8044W        W80469  26.503  14.597   1.896
 8045W        W80470  33.085  27.667   1.827
 8046W        W80471  16.693  19.126  12.916
 8047W        W80472   3.287  43.903   3.793
 8048W        W80473  20.578  29.616   3.271
 8049W        W80474  31.980  44.801  12.903
 8050W        W80475  22.139  12.169  14.289
 8051W        W80476  35.907  33.469  14.014
 8052W        W80477  22.527   5.743   2.370
 8053W        W80478  42.472  29.498   2.399
 8054W        W80479  21.693   2.843  12.931
 8055W        W80480  24.604  21.146   0.815
 8056W        W80481  17.615  32.515  11.452
 8057W        W80482  34.559   1.297   0.373
 8058W        W80483  25.982  17.277   4.226
 8059W        W80484  24.699   4.414   3.788
 8060W        W80485  13.721   4.409   3.830
 8061W        W80486  12.699  28.084  14.980
 8062W        W80487  42.871  33.558   5.242
 8063W        W80488   1.939   9.763   1.270
 8064W        W80489   0.812   8.832   5.153
 8065W        W80490  20.732   4.424   2.729
 8066W        W80491  39.331   6.777  11.918
 8067W        W80492  20.074  25.559   2.366
 8068W        W80493  32.920  23.041   3.797
 8069W        W80494  41.472  31.431   3.721
 8070W        W80495  18.670  39.365   2.784
 8071W        W80496  10.198  25.603   0.289
 8072W        W80497   8.304   9.308   4.719
 8073W        W80498  27.645  17.696   3.353
 8074W        W80499  31.907  30.123   1.232
 8075W        W80500   4.375  26.617   1.921
 8076W        W80501  44.001  22.571  11.540
 8077W        W80502   9.842  42.287   3.777
 8078W        W80503  44.009  27.064   0.885
 8079W        W80504  24.066  13.163  14.359
 8080W        W80505  36.939  16.585  12.072
 8081W        W80506  44.870  36.355   3.818
 8082W        W80507  30.422  14.830  11.440
 8083W        W80508  38.824  38.541  14.920
 8084W        W80509  15.748  15.106   2.319
 8085W        W80510  39.923  35.525  14.343
 8086W        W80511  41.508  37.042   2.795
 8087W        W80512  13.133  43.775  13.423
 8088W        W80513   4.837  10.373  14.508
 8089W        W80514  36.982  38.928   4.289
 8090W        W80515  13.215  40.929   3.717
 8091W        W80516  17.585  10.718  12.893
 8092W        W80517   2.914  20.271   2.254
 8093W        W80518  42.867  40.530   3.178
 8094W        W80519  35.533  42.412  12.064
 8095W        W80520  23.063  37.930  12.514
 8096W        W80521  38.472  44.262  14.302
 8097W        W80522   7.770  31.026  11.868
 8098W        W80523  44.483  21.086   5.210
 8099W        W80524  44.464  32.502   0.750
 8100W        W80525  23.493   6.276   3.798
 8101W        W80526  28.535  19.230   0.468
 8102W        W80527  40.880  21.197   2.314
 8103W        W80528   7.247   9.232   1.908
 8104W        W80529  18.617   7.695   4.776
 8105W        W80530  43.325  35.012   2.337
 8106W        W80531  14.703   8.245  13.469
 8107W        W80532  13.715  12.833  14.944
 8108W        W80533  33.110  44.348   3.808
 8109W        W80534  10.186  21.241   2.385
 8110W        W80535  20.540  41.511   3.310
 8111W        W80536   8.281  37.540  14.973
 8112W        W80537  40.807   2.450   0.730
 8113W        W80538  13.700  16.282  11.499
 8114W        W80539  14.715  34.111   4.795
 8115W        W80540   8.739  20.761  13.383
 8116W        W80541  40.492  14.304  12.514
 8117W        W80542  30.421  19.627   4.217
 8118W        W80543   1.978   3.461   2.328
 8119W        W80544  22.693  37.063   0.844
 8120W        W80545   4.269  18.245  10.544
 8121W        W80546  17.124  15.751  12.047
 8122W        W80547  42.012  24.153  14.776
 8123W        W80548  34.545  24.168  14.498
 8124W        W80549   4.410  27.080   1.912
 8125W        W80550  32.583  16.228  13.507
 8126W        W80551  29.025  31.580   2.226
 8127W        W80552  24.502  14.125  12.487
 8128W        W80553  21.241  16.794  12.434
 8129W        W80554  12.354  43.380  10.461
 8130W        W80555   8.340   3.856  11.982
 8131W        W80556  16.236   5.397  12.008
 8132W        W80557  27.635  40.981  12.479
 8133W        W80558  40.970  39.460  11.886
 8134W        W80559  37.496  22.171  10.959
 8135W        W80560   4.785  23.048  11.588
 8136W        W80561   2.324  21.084  12.982
 8137W        W80562   5.829  42.914   2.850
 8138W        W80563   1.418  13.729  13.923
 8139W        W80564   6.415  26.575   9.969
 8140W        W80565  38.346  28.676   4.142
 8141W        W80566  32.092  23.610   4.297
 8142W        W80567  38.519  10.779   3.851
 8143W        W80568  32.908  12.719   0.880
 8144W        W80569   1.813  39.425   1.273
 8145W        W80570   5.340  19.219  10.500
 8146W        W80571   0.950  17.715  12.066
 8147W        W80572  38.855  13.609  10.481
 8148W        W80573   0.780  30.908  11.534
 8149W        W80574  33.566  15.215  13.381
 8150W        W80575  36.037  39.341   4.750
 8151W        W80576  13.114  18.142  13.826
 8152W        W80577  33.415  35.039   2.374
 8153W        W80578  28.140  13.109   4.794
 8154W        W80579  36.422  37.481  14.835
 8155W        W80580  20.656  15.668   1.781
 8156W        W80581  18.248  44.337   0.303
 8157W        W80582  30.522  44.319  11.928
 8158W        W80583   7.389  39.317  14.016
 8159W        W80584  24.713   2.445   3.724
 8160W        W80585  21.186  18.191   2.831
 8161W        W80586  23.634  25.999  12.890
 8162W        W80587  35.578  38.555   2.408
 8163W        W80588  23.105   5.771  12.373
 8164W        W80589  27.993  23.986  11.975
 8165W        W80590  26.701  36.467   1.302
 8166W        W80591   1.475  44.754   3.222
 8167W        W80592  37.454  29.634  11.007
 8168W        W80593  28.501  34.567   2.409
 8169W        W80594  26.127   0.450  13.312
 8170W        W80595  31.914  22.028   2.417
 8171W        W80596   4.752  41.308  13.012
 8172W        W80597  15.616  18.558   2.397
 8173W        W80598  18.129   5.392  12.833
 8174W        W80599  23.689  13.732   1.415
 8175W        W80600  19.600  43.803   1.272
 8176W        W80601  36.997  35.990  11.427
 8177W        W80602  26.963   2.771  11.127
 8178W        W80603  42.008  27.469   3.787
 8179W        W80604  34.484   0.764  11.072
 8180W        W80605  30.080  34.431  10.420
 8181W        W80606   7.262  40.357   3.852
 8182W        W80607  28.061   4.775  12.905
 8183W        W80608  40.024  18.581   3.194
 8184W        W80609  27.176  38.428   0.871
 8185W        W80610  11.801   5.743   0.852
 8186W        W80611  26.689  12.657   1.900
 8187W        W80612  44.783  30.640  13.538
 8188W        W80613  19.729  34.994  11.590
 8189W        W80614  30.007  15.769  12.071
 8190W        W80615  36.387  34.458   4.180
 8191W        W80616  16.108  31.403   2.824
 8192W        W80617  37.356  29.527  14.416
 8193W        W80618   7.886  10.229   1.379
 8194W        W80619  12.665  26.111  11.005
 8195W        W80620  30.082   8.330  13.449
 8196W        W80621  37.347   4.722  13.342
 8197W        W80622  39.354  35.584  11.981
 8198W        W80623   4.749  23.207  10.603
 8199W        W80624  16.224  19.611  12.523
 8200W        W80625   9.193  20.675  14.975
 8201W        W80626  22.504  18.168  11.967
 8202W        W80627  12.188  38.356   3.317
 8203W        W80628  21.074   7.816   1.401
 8204W        W80629  31.113  43.003  13.426
 8205W        W80630   2.407  19.646   0.414
 8206W        W80631  32.462  32.478   3.156
 8207W        W80632  31.598   5.227  14.939
 8208W        W80633  43.350  13.664   4.740
 8209W        W80634   1.802  34.120  10.916
 8210W        W80635  20.544   7.375   0.376
 8211W        W80636  12.250   3.830   9.553
 8212W        W80637  13.330   6.327  14.321
 8213W        W80638   2.811  29.054  10.463
 8214W        W80639  17.719  23.036   4.770
 8215W        W80640  42.484  43.285   2.870
 8216W        W80641  36.995  24.516   1.781
 8217W        W80642  17.203  36.404   0.406
 8218W        W80643  30.502   7.771   0.268
 8219W        W80644  24.549  10.635  12.025
 8220W        W80645  39.898  43.302  12.525
 8221W        W80646   3.710   5.809  13.053
 8222W        W80647  16.607   9.798  14.462
 8223W        W80648  40.423  33.126  13.033
 8224W        W80649  18.062  44.958   2.265
 8225W        W80650  17.292  33.621   1.269
 8226W        W80651   0.847  33.607  10.960
 8227W        W80652  10.162  39.985   0.351
 8228W        W80653  27.659   5.343  10.932
 8229W        W80654  32.462  20.603   0.776
 8230W        W80655  43.398  18.553  11.971
 8231W        W80656  13.133  41.447  13.856
 8232W        W80657  13.334  16.253  13.324
 8233W        W80658  19.658  12.628  11.044
 8234W        W80659  39.893  22.646   4.204
 8235W        W80660  35.910  15.324  10.454
 8236W        W80661  14.192  33.908   4.354
 8237W        W80662  21.517  18.076   1.735
 8238W        W80663  11.760  17.085  14.348
 8239W        W80664  17.657   1.433  13.857
 8240W        W80665   1.341  39.948  11.528
 8241W        W80666  40.808  11.127  12.437
 8242W        W80667  10.196  43.497  12.903
 8243W        W80668  12.730  43.341   3.252
 8244W        W80669  40.879   1.456   3.350
 8245W        W80670   4.913  20.074   0.936
 8246W        W80671  12.233  21.116  14.025
 8247W        W80672  29.654  32.015   3.867
 8248W        W80673  31.620  30.649   0.480
 8249W        W80674  23.985  11.257   2.786
 8250W        W80675   4.810  24.664  12.993
 8251W        W80676  28.646  44.980  13.993
 8252W        W80677   7.193  22.690  10.609
 8253W        W80678  40.313  41.487   3.800
 8254W        W80679   0.340  33.429   1.447
 8255W        W80680  41.461  34.501   0.849
 8256W        W80681   5.315  23.165   2.703
 8257W        W80682  32.028  21.582  14.333
 8258W        W80683  43.019  28.607  14.513
 8259W        W80684  33.382  35.490   0.963
 8260W        W80685  42.778  30.590   4.797
 8261W        W80686  25.612  41.308   4.242
 8262W        W80687   1.414  27.176  11.071
 8263W        W80688  22.708   4.874  12.896
 8264W        W80689  10.694  29.037   4.708
 8265W        W80690   6.733  31.994  13.848
 8266W        W80691  23.516  42.828   1.416
 8267W        W80692  17.596  10.248  14.842
 8268W        W80693  44.317  28.094   2.844
 8269W        W80694  28.584   9.159  14.957
 8270W        W80695   3.364   5.428   1.877
 8271W        W80696  43.467  11.228   1.826
 8272W        W80697  28.609   8.205   3.667
 8273W        W80698  20.678   6.909  13.979
 8274W        W80699  35.469   0.974   1.277
 8275W        W80700  23.547   9.839   3.795
 8276W        W80701  44.271  19.217  13.803
 8277W        W80702  42.002  28.044  10.161
 8278W        W80703  21.103  28.538   3.305
 8279W        W80704  39.554  44.495   2.893
 8280W        W80705   3.245  28.015   0.738
 8281W        W80706  12.279   1.785  14.908
 8282W        W80707  36.851   1.927  12.862
 8283W        W80708  20.183   4.370  14.863
 8284W        W80709  27.521  43.448   0.869
 8285W        W80710  27.520  32.521   4.251
 8286W        W80711  38.003   4.254  11.023
 8287W        W80712  33.432  23.210  12.073
 8288W        W80713  17.188  39.049   3.867
 8289W        W80714  13.255  32.619  14.884
 8290W        W80715  36.895  13.267  11.505
 8291W        W80716  29.126  44.859  12.343
 8292W        W80717  23.639   6.716  13.950
 8293W        W80718  32.042  38.048   1.742
 8294W        W80719  34.085  38.563   0.450
 8295W        W80720  32.983   4.885  10.466
 8296W        W80721  29.961  32.967   4.303
 8297W        W80722   5.842  23.112  14.385
 8298W        W80723  29.438  14.671   1.389
 8299W        W80724  32.043  19.171   0.834
 8300W        W80725  44.281  26.128   2.182
 8301W        W80726  35.001  31.038   1.402
 8302W        W80727  20.211   9.775   4.753
 8303W        W80728   2.452  34.499   4.755
 8304W        W80729  15.701  30.974   0.413
 8305W        W80730  37.872  37.966  14.465
 8306W        W80731   9.370   7.396  11.562
 8307W        W80732  22.087  28.659   2.189
 8308W        W80733  19.210  32.624   4.249
 8309W        W80734   7.714  27.100   2.188
 8310W        W80735   3.835  23.542   2.212
 8311W        W80736   6.837   6.703   3.352
 8312W        W80737  42.999  15.169   3.826
 8313W        W80738  30.972  24.652  13.983
 8314W        W80739  14.727   3.941  14.773
 8315W        W80740  18.708   4.700   1.268
 8316W        W80741  29.633  43.981   1.277
 8317W        W80742  40.454   8.885  10.542
 8318W        W80743   7.869  41.878   4.352
 8319W        W80744  26.004  21.196  13.322
 8320W        W80745   6.415   6.234   2.207
 8321W        W80746  35.493  28.175   1.407
 8322W        W80747   6.852  22.114  13.371
 8323W        W80748  31.590  31.639   1.242
 8324W        W80749  15.283  25.493   4.130
 8325W        W80750  10.269   7.181   3.810
 8326W        W80751  25.614  21.150  13.342
 8327W        W80752  36.522  20.231  10.949
 8328W        W80753  22.553  39.465  11.902
 8329W        W80754  42.435   0.305  11.043
 8330W        W80755  44.329  24.045   0.801
 8331W        W80756  42.430   0.329   2.777
 8332W        W80757  13.308   0.378  14.838
 8333W        W80758   5.888   7.815  14.013
 8334W        W80759  15.088   9.751   0.363
 8335W        W80760  23.201  36.930   3.639
 8336W        W80761  41.309  29.581   3.800
 8337W        W80762  25.069  22.638   0.828
 8338W        W80763  31.458  44.872  14.363
 8339W        W80764  30.058   3.784   2.763
 8340W        W80765  14.151  13.783  12.561
 8341W        W80766   2.899  23.054  14.992
 8342W        W80767  44.447  23.495   1.832
 8343W        W80768  20.648  11.650  10.435
 8344W        W80769   1.238  21.595  12.944
 8345W        W80770  39.008  36.880   2.302
 8346W        W80771  25.086  33.430  12.023
 8347W        W80772  36.871  30.472   2.241
 8348W        W80773  24.598   0.358   1.930
 8349W        W80774  14.607  18.620   1.278
 8350W        W80775   1.379  24.560   4.761
 8351W        W80776  24.053  40.857  12.998
 8352W        W80777   1.268  35.943  13.033
 8353W        W80778  40.883  33.539   2.866
 8354W        W80779  11.742  38.946   1.294
 8355W        W80780   0.451   2.240  10.470
 8356W        W80781  21.168  28.525   0.869
 8357W        W80782  23.089   1.320   3.250
 8358W        W80783  42.978   7.896  13.406
 8359W        W80784  33.472  30.138  14.390
 8360W        W80785  40.414  42.006   2.227
 8361W        W80786   6.363  23.710  14.931
 8362W        W80787  10.170  19.658  11.081
 8363W        W80788  13.599  14.107  14.909
 8364W        W80789  30.609  26.089  14.911
 8365W        W80790  21.668  11.837   5.666
 8366W        W80791  11.302  26.192   0.473
 8367W        W80792  42.527  12.747   2.187
 8368W        W80793  36.544   3.873   2.278
 8369W        W80794   5.416  23.565   1.448
 8370W        W80795  36.047   6.220   4.764
 8371W        W80796  16.612  38.437   3.712
 8372W        W80797  40.547  25.987   4.667
 8373W        W80798   6.395  31.538   4.701
 8374W        W80799  34.922  25.016   2.363
 8375W        W80800   7.409  26.658   1.716
 8376W        W80801   3.898  14.164  14.019
 8377W        W80802   7.297  36.860  14.819
 8378W        W80803  27.087  41.349  11.025
 8379W        W80804  40.053  19.670   4.316
 8380W        W80805  43.781  29.952  13.948
 8381W        W80806  44.302  26.565   3.640
 8382W        W80807  21.668  23.552   2.724
 8383W        W80808   0.409  18.680  14.431
 8384W        W80809  42.893  44.480  10.934
 8385W        W80810   3.394  33.098  13.493
 8386W        W80811  37.946  18.781  14.783
 8387W        W80812   0.876  12.793   1.346
 8388W        W80813  28.510  16.566  11.979
 8389W        W80814  39.397  38.353  11.993
 8390W        W80815  42.499   3.249   1.236
 8391W        W80816  33.029   4.360  10.533
 8392W        W80817  19.753  12.769  13.994
 8393W        W80818  16.242  34.504   2.258
 8394W        W80819  37.472  43.807  10.946
 8395W        W80820  40.956  41.475  14.986
 8396W        W80821   1.740   7.908   1.750
 8397W        W80822  28.065  24.006  13.060
 8398W        W80823   0.364  31.450   1.931
 8399W        W80824  22.012  32.536  12.930
 8400W        W80825   7.367   6.812   4.313
 8401W        W80826  10.366  31.490  10.002
 8402W        W80827  16.582  12.666  13.340
 8403W        W80828  16.091  27.086   0.284
 8404W        W80829  38.969  35.068  10.040
 8405W        W80830  43.511  37.371   3.688
 8406W        W80831   3.798  26.512   4.298
 8407W        W80832  25.185   0.478   3.661
 8408W        W80833  16.223  19.233  14.380
 8409W        W80834  33.561  33.033   0.849
 8410W        W80835  29.040  29.998   4.817
 8411W        W80836  35.592   3.754  12.444
 8412W        W80837  33.581  22.697  14.358
 8413W        W80838  28.577  38.395   2.404
 8414W        W80839  39.469   0.456   2.227
 8415W        W80840   6.269  40.396  13.462
 8416W        W80841  19.586   6.386   2.867
 8417W        W80842  30.929  14.743   0.858
 8418W        W80843   1.929  25.976  10.420
 8419W        W80844  28.177   8.880   1.353
 8420W        W80845  15.741  27.515   4.608
 8421W        W80846  30.955   1.252  14.876
 8422W        W80847  36.963   1.382  13.450
 8423W        W80848  39.822  35.907   3.734
 8424W        W80849  34.952  41.345  12.883
 8425W        W80850   3.776  17.578   0.827
 8426W        W80851  11.638  44.304   0.316
 8427W        W80852  42.980  31.931   5.271
 8428W        W80853  38.821   4.322  10.971
 8429W        W80854  13.262  33.454  11.387
 8430W        W80855  39.517  26.056   3.859
 8431W        W80856   4.766  19.094  11.420
 8432W        W80857  37.865  37.556  11.052
 8433W        W80858  40.523   2.839   0.773
 8434W        W80859   1.306  25.054   2.372
 8435W        W80860  37.420  31.488   2.852
 8436W        W80861  25.649  20.273  13.963
 8437W        W80862  15.584  21.043  10.111
 8438W        W80863  12.339  35.402  13.001
 8439W        W80864  12.200  21.671  12.860
 8440W        W80865  13.678   0.806   2.188
 8441W        W80866   4.926  40.950   3.815
 8442W        W80867  13.331  20.685  13.492
 8443W        W80868  18.098  34.890  12.550
 8444W        W80869  29.135  41.878  10.548
 8445W        W80870  13.148  31.029  11.451
 8446W        W80871  18.286   0.359   3.689
 8447W        W80872  18.588  15.198  13.910
 8448W        W80873   5.388   4.326   1.281
 8449W        W80874  22.124  25.619   2.187
 8450W        W80875  39.333  31.487  14.022
 8451W        W80876  33.088  41.940   3.791
 8452W        W80877  17.601   7.340  12.542
 8453W        W80878  21.065  11.372  14.839
 8454W        W80879  14.337   0.850  11.930
 8455W        W80880  28.596  39.038   1.926
 8456W        W80881  11.709  32.605  14.886
 8457W        W80882  41.424  12.154   3.713
 8458W        W80883  29.130  20.561  12.979
 8459W        W80884  33.973  14.338  13.834
 8460W        W80885  20.677  26.136   4.298
 8461W        W80886  32.913  26.655   3.161
 8462W        W80887  39.476   6.291   1.308
 8463W        W80888  20.625  22.743   4.178
 8464W        W80889  17.784  15.666   4.123
 8465W        W80890  26.505  21.226  14.885
 8466W        W80891  19.171   6.205   2.241
 8467W        W80892  31.599  20.706  14.373
 8468W        W80893  31.539   8.394   1.730
 8469W        W80894  18.235  35.081   0.459
 8470W        W80895  41.991  16.697   4.353
 8471W        W80896  10.784  20.224   1.743
 8472W        W80897   8.210  24.695   4.305
 8473W        W80898  22.154  25.616  14.023
 8474W        W80899  15.614  25.471   2.730
 8475W        W80900  25.138  37.554  13.009
 8476W        W80901  25.200  10.855  13.322
 8477W        W80902  40.041  44.009   3.217
 8478W        W80903  36.406  11.667   2.392
 8479W        W80904   9.807  20.536   2.330
 8480W        W80905  32.569  21.584   0.758
 8481W        W80906  26.662   8.219  11.908
 8482W        W80907  40.377   9.203   2.765
 8483W        W80908  20.752   6.843   4.168
 8484W        W80909  37.861  41.523  12.444
 8485W        W80910  12.335  40.419  10.921
 8486W        W80911  19.763   1.421   2.840
 8487W        W80912  18.072  20.086  14.847
 8488W        W80913   2.241  25.676  12.353
 8489W        W80914   3.400  41.330  11.945
 8490W        W80915  12.206  21.739  13.368
 8491W        W80916  40.416   9.228   4.125
 8492W        W80917  37.514  31.995  10.552
 8493W        W80918  19.063   7.316  10.541
 8494W        W80919  23.201   7.754   1.766
 8495W        W80920  17.274   2.747   0.800
 8496W        W80921  13.681  21.259   1.869
 8497W        W80922   5.712   2.454  12.483
 8498W        W80923  15.247  20.595   0.896
 8499W        W80924  14.289  37.542  14.945
 8500W        W80925  11.864  13.640   2.855
 8501W        W80926  22.034  42.461  13.798
 8502W        W80927   8.821  14.130  13.530
 8503W        W80928   6.875  31.951  11.602
 8504W        W80929  23.734   0.914   0.935
 8505W        W80930  21.644  10.140  10.103
 8506W        W80931  20.631  37.068  13.870
 8507W        W80932  38.903  16.180   1.291
 8508W        W80933   5.327   0.491   2.278
 8509W        W80934  31.121  35.861  10.404
 8510W        W80935   6.811  38.356   3.648
 8511W        W80936   1.436  22.166  11.924
 8512W        W80937   1.237  42.470   3.709
 8513W        W80938  43.297  26.181  14.985
 8514W        W80939  35.978  14.278   3.315
 8515W        W80940   1.879  33.431   4.771
 8516W        W80941  22.184  15.121  11.938
 8517W        W80942  37.387  28.596   0.351
 8518W        W80943  28.594  28.955  12.363
 8519W        W80944  27.167  10.670   4.261
 8520W        W80945  31.934   2.846  13.014
 8521W        W80946  43.880  28.633  10.555
 8522W        W80947  24.675  23.091  12.351
 8523W        W80948  31.096  38.466  11.557
 8524W        W80949  15.716   7.821  10.451
 8525W        W80950   2.266  39.378   2.672
 8526W        W80951  28.040  39.551  12.857
 8527W        W80952  30.469  22.633  13.458
 8528W        W80953  27.526  42.519  13.380
 8529W        W80954   4.728  19.572   3.173
 8530W        W80955  34.462  29.095   4.798
 8531W        W80956  12.333  35.359  13.468
 8532W        W80957  20.225  22.161  12.421
 8533W        W80958  20.265  11.310  14.278
 8534W        W80959  10.773  18.623  14.996
 8535W        W80960  18.678  40.378  12.418
 8536W        W80961  40.332  23.536  14.447
 8537W        W80962  12.349  33.986   2.829
 8538W        W80963  14.632  11.222  11.066
 8539W        W80964  35.980  36.873  13.397
 8540W        W80965   9.760  33.041   1.867
 8541W        W80966  10.186  44.334   4.665
 8542W        W80967   3.955  12.275   0.784
 8543W        W80968  30.966  26.961  14.895
 8544W        W80969  37.448   8.340   3.173
 8545W        W80970   4.335   4.382   3.660
 8546W        W80971  36.349  13.160   4.780
 8547W        W80972  14.825  28.960   3.319
 8548W        W80973  31.486   5.382  10.463
 8549W        W80974  36.043  14.817   0.384
 8550W        W80975   6.305  30.514   0.261
 8551W        W80976  37.555  29.618  14.831
 8552W        W80977  37.034   7.723   2.891
 8553W        W80978   3.762   5.214  13.400
 8554W        W80979   6.905  34.494  14.388
 8555W        W80980  41.859  24.085   4.607
 8556W        W80981  24.524  10.274  11.424
 8557W        W80982  17.263  32.438   5.795
 8558W        W80983  20.222   0.339   2.824
 8559W        W80984  15.296  12.791  11.912
 8560W        W80985  42.861  38.442  13.393
 8561W        W80986  34.514  30.130  10.641
 8562W        W80987   5.712  27.058  11.542
 8563W        W80988  37.866   8.318  12.049
 8564W        W80989   1.451  33.879   1.247
 8565W        W80990  38.569  30.162   2.359
 8566W        W80991   5.347   8.743   1.328
 8567W        W80992  11.858  23.173  13.496
 8568W        W80993  35.094  15.700  10.031
 8569W        W80994   5.327   4.413   4.187
 8570W        W80995  11.288  44.844  10.617
 8571W        W80996   5.820   8.851   2.255
 8572W        W80997  38.477   5.269   4.773
 8573W        W80998  40.836  41.809   0.955
 8574W        W80999  35.395  33.041  13.918
 8575W        W81000  36.432  22.659  10.160
 8576W        W81001   5.330  14.116  13.972
 8577W        W81002  23.136   7.844  11.857
 8578W        W81003   8.737   5.932  11.612
 8579W        W81004   7.377  16.173   3.684
 8580W        W81005  34.416   2.794  14.462
 8581W        W81006  22.569  14.746   3.637
 8582W        W81007  43.872  12.233   4.737
 8583W        W81008  33.480  41.948   0.282
 8584W        W81009  30.129  36.353  10.462
 8585W        W81010  11.272  15.656   3.807
 8586W        W81011  13.311  22.502   4.195
 8587W        W81012  21.732  23.057   2.348
 8588W        W81013  25.150  38.495  12.339
 8589W        W81014  14.695  39.416   2.719
 8590W        W81015  31.083  26.602   1.790
 8591W        W81016  32.467  19.611   1.765
 8592W        W81017  12.763  41.537   4.125
 8593W        W81018  41.956  26.126   2.293
 8594W        W81019  36.565   4.925  14.763
 8595W        W81020   0.745  32.623  12.015
 8596W        W81021  25.085  29.056  14.761
 8597W        W81022  33.053  15.736   3.669
 8598W        W81023   3.366  21.082  10.521
 8599W        W81024  40.490   8.666  12.579
 8600W        W81025  11.663   2.446   5.083
 8601W        W81026  11.774  21.556   2.793
 8602W        W81027  25.029  19.668   0.865
 8603W        W81028  17.644   9.698  11.002
 8604W        W81029  40.950   1.847   2.795
 8605W        W81030   8.300  14.274  11.595
 8606W        W81031   5.279  25.998   1.379
 8607W        W81032  38.532  43.965   3.386
 8608W        W81033  24.212   8.337  11.036
 8609W        W81034  33.018  15.689  14.502
 8610W        W81035  18.066   4.897  13.045
 8611W        W81036  23.094  24.185   4.692
 8612W        W81037  37.847  20.592   4.823
 8613W        W81038  21.202  44.448   5.258
 8614W        W81039   6.238   4.795   4.256
 8615W        W81040  14.307  38.831  10.447
 8616W        W81041   2.348  35.411   3.276
 8617W        W81042  19.764  32.583  14.785
 8618W        W81043  13.154   1.745   4.265
 8619W        W81044  12.338   1.268   2.755
 8620W        W81045  24.983  16.080   0.885
 8621W        W81046  13.317   8.373  11.428
 8622W        W81047  19.581  23.081   2.718
 8623W        W81048  18.706  25.972  10.533
 8624W        W81049  38.839  44.763  13.418
 8625W        W81050  41.417  24.131  11.502
 8626W        W81051   1.944   3.374  10.992
 8627W        W81052   7.840   8.707  11.904
 8628W        W81053  36.586  40.926   0.786
 8629W        W81054  19.129  26.012  14.891
 8630W        W81055  11.639  28.513  10.417
 8631W        W81056  14.692   6.418   2.210
 8632W        W81057  22.722   3.336   0.306
 8633W        W81058   8.180  16.656  14.765
 8634W        W81059  10.289  41.367  13.850
 8635W        W81060   8.190   6.812   4.188
 8636W        W81061   3.863  38.026   4.193
 8637W        W81062  11.766  23.225   3.795
 8638W        W81063  38.570  13.191   2.275
 8639W        W81064  14.100   7.812  11.449
 8640W        W81065  28.984   0.319   3.659
 8641W        W81066   0.270  10.310  11.401
 8642W        W81067  20.712  22.747  14.963
 8643W        W81068  26.068   2.811  12.382
 8644W        W81069  18.190  42.403  11.483
 8645W        W81070   8.397   6.756   1.351
 8646W        W81071  28.670  23.510  14.966
 8647W        W81072  31.022  23.639  13.839
 8648W        W81073  24.977  33.428  13.056
 8649W        W81074  22.600  11.298   5.274
 8650W        W81075  26.682  13.721   0.912
 8651W        W81076  13.681   8.375   1.405
 8652W        W81077  13.674  17.274  12.041
 8653W        W81078  37.521  17.171  14.395
 8654W        W81079   1.246  12.810   4.187
 8655W        W81080  40.900  44.927  14.801
 8656W        W81081   0.434  11.846  13.814
 8657W        W81082  10.841  40.936   1.418
 8658W        W81083  35.400   2.811  14.791
 8659W        W81084  44.273   9.687  11.521
 8660W        W81085  38.533  13.232  10.595
 8661W        W81086  23.548  27.027  10.446
 8662W        W81087   7.896   1.840   1.905
 8663W        W81088  28.626  35.567   0.867
 8664W        W81089  18.735   3.956  12.837
 8665W        W81090  10.262  35.375   1.369
 8666W        W81091  33.590  43.484   3.758
 8667W        W81092   0.409  34.887  10.569
 8668W        W81093  31.620  26.199   1.418
 8669W        W81094   2.297   3.236  14.355
 8670W        W81095  26.175  43.441  14.325
 8671W        W81096  20.727  16.311  12.096
 8672W        W81097   6.831  31.643   4.268
 8673W        W81098  34.373  40.333   4.837
 8674W        W81099  25.196  43.474  14.835
 8675W        W81100   5.253  11.163  12.949
 8676W        W81101  43.302  43.998  13.507
 8677W        W81102  12.319  30.447   4.277
 8678W        W81103   7.868  18.720   2.877
 8679W        W81104  20.574  40.525   0.816
 8680W        W81105  22.145   6.886   3.726
 8681W        W81106  26.591  37.878  12.923
 8682W        W81107  22.026  37.849  12.879
 8683W        W81108  36.353   5.701   4.717
 8684W        W81109  15.640  32.089   2.763
 8685W        W81110  14.173  11.220   1.800
 8686W        W81111  19.563  27.996  14.983
 8687W        W81112  44.936   4.386   2.687
 8688W        W81113   6.359  24.080   2.406
 8689W        W81114  34.944  41.390   4.767
 8690W        W81115  39.462  17.683   1.395
 8691W        W81116  38.445   9.326  14.402
 8692W        W81117  15.768  28.178  13.027
 8693W        W81118   2.445  25.104  10.479
 8694W        W81119  14.642   9.771  11.034
 8695W        W81120  26.007  28.972   3.204
 8696W        W81121  44.449  38.955   0.379
 8697W        W81122  26.167  42.891  11.960
 8698W        W81123   5.919  23.144  14.877
 8699W        W81124   1.369   8.736  11.408
 8700W        W81125  14.622  18.193   1.765
 8701W        W81126  13.160  26.583  14.360
 8702W        W81127   9.777  32.074   1.877
 8703W        W81128  18.634  25.671  11.524
 8704W        W81129  20.183  12.741  10.510
 8705W        W81130  33.943  12.130  14.488
 8706W        W81131  29.538  26.700   2.332
 8707W        W81132  10.305  38.418   9.959
 8708W        W81133  12.694   5.857  12.031
 8709W        W81134  24.019  44.377  12.872
 8710W        W81135  22.152  32.966  14.018
 8711W        W81136  30.079  40.314   4.647
 8712W        W81137  25.534  29.012  11.452
 8713W        W81138  30.951  24.013   3.145
 8714W        W81139  43.944  40.364   1.929
 8715W        W81140   0.978   2.463  11.613
 8716W        W81141  39.010   2.753   3.673
 8717W        W81142  11.741  44.349   4.629
 8718W        W81143  32.405   1.437   0.783
 8719W        W81144   9.247  16.256   4.818
 8720W        W81145  30.535  32.921   1.442
 8721W        W81146  35.971   9.207  13.854
 8722W        W81147  19.153   8.235   3.281
 8723W        W81148  32.040   8.869   1.830
 8724W        W81149  35.596  36.427   1.868
 8725W        W81150  44.290  41.324   1.315
 8726W        W81151  43.928  20.205  11.873
 8727W        W81152  38.919  18.594  13.391
 8728W        W81153   2.741  32.986   0.894
 8729W        W81154  25.113  15.626   2.232
 8730W        W81155  44.398  43.929  11.600
 8731W        W81156   6.330  40.495   4.325
 8732W        W81157  13.741  25.176  14.336
 8733W        W81158  37.848  22.172  14.514
 8734W        W81159  33.513  30.963  14.510
 8735W        W81160  27.066   6.902   2.283
 8736W        W81161   3.281  11.758   4.124
 8737W        W81162  17.301  29.467   1.859
 8738W        W81163  42.329  17.585   2.182
 8739W        W81164  35.097  37.852   0.407
 8740W        W81165  37.922  33.535   4.733
 8741W        W81166  36.587   2.948  14.307
 8742W        W81167   3.819   0.341  14.002
 8743W        W81168  11.172  23.602  14.815
 8744W        W81169   0.412  17.233  13.516
 8745W        W81170  29.117   9.731  13.419
 8746W        W81171  20.107  38.506   0.857
 8747W        W81172   0.321   8.195  13.815
 8748W        W81173  20.119  41.529   0.936
 8749W        W81174  39.824  15.187  11.557
 8750W        W81175  42.449  18.054   4.273
 8751W        W81176  19.603  20.701   0.957
 8752W        W81177   9.387  18.195  14.384
 8753W        W81178  11.703  41.816  14.949
 8754W        W81179  22.681  33.539   3.646
 8755W        W81180  10.321  37.934  13.850
 8756W        W81181  36.358   4.770  12.962
 8757W        W81182  12.749  32.110   4.302
 8758W        W81183  43.331  40.523  11.885
 8759W        W81184  31.519  37.892  12.015
 8760W        W81185  41.369  37.054   3.227
 8761W        W81186   3.758  36.356   1.866
 8762W        W81187  41.024   8.860   1.401
 8763W        W81188  30.157  44.882  14.825
 8764W        W81189   2.313  29.956  12.506
 8765W        W81190  33.915  12.258   2.731
 8766W        W81191   3.793  27.606  12.982
 8767W        W81192   9.172  32.572   0.451
 8768W        W81193   9.176  26.061  14.944
 8769W        W81194  14.696   3.358   4.625
 8770W        W81195  33.021  30.006  12.868
 8771W        W81196  13.722  36.916   0.758
 8772W        W81197   1.439  41.334  11.956
 8773W        W81198  30.580  14.322   1.308
 8774W        W81199   8.363  12.265   3.195
 8775W        W81200  13.610  23.028  14.875
 8776W        W81201  17.196   7.891   5.192
 8777W        W81202  14.709   1.963   2.205
 8778W        W81203  38.487   6.715  11.587
 8779W        W81204  29.639  44.407  12.558
 8780W        W81205   1.861  22.684   1.770
 8781W        W81206  34.890  28.160  14.798
 8782W        W81207  35.913  24.578  13.391
 8783W        W81208  23.707  38.505  14.825
 8784W        W81209  14.765  20.563   0.284
 8785W        W81210   3.792  20.029  12.087
 8786W        W81211   2.377  24.150  12.416
 8787W        W81212   5.230  32.006  12.565
 8788W        W81213  19.202   2.409  13.830
 8789W        W81214  16.173  20.066  11.584
 8790W        W81215  23.119  13.808   1.339
 8791W        W81216   3.398  38.853   2.398
 8792W        W81217  26.536  27.088  11.078
 8793W        W81218  40.906  42.844  13.319
 8794W        W81219  31.980   8.828  14.028
 8795W        W81220  15.678  21.655  12.984
 8796W        W81221  34.467  30.143  11.463
 8797W        W81222  20.550   5.236   0.285
 8798W        W81223  26.101  12.719  11.882
 8799W        W81224  30.621   8.277  10.953
 8800W        W81225   7.791  35.890   0.427
 8801W        W81226  23.128  31.933   0.301
 8802W        W81227  13.612  35.021   1.295
 8803W        W81228  13.828  44.495  13.997
 8804W        W81229  21.078   5.886  11.005
 8805W        W81230   3.846  22.706  13.977
 8806W        W81231   0.302  28.569  10.485
 8807W        W81232   5.389  38.366   4.308
 8808W        W81233  25.600  21.216  11.906
 8809W        W81234  34.425   8.670   1.700
 8810W        W81235  38.494  15.126   3.188
 8811W        W81236  25.071  21.558   2.357
 8812W        W81237  38.374  16.077   2.319
 8813W        W81238  44.789  34.902   2.309
 8814W        W81239   0.254  21.058   3.288
 8815W        W81240   0.883  29.920  14.779
 8816W        W81241  41.431  16.715   2.901
 8817W        W81242  26.196   0.881   1.789
 8818W        W81243  40.046  33.500  12.062
 8819W        W81244  21.636  14.213   2.405
 8820W        W81245  22.168   6.772  14.423
 8821W        W81246  36.421  29.493   4.834
 8822W        W81247  17.564  25.131   0.829
 8823W        W81248   9.190  32.142  10.997
 8824W        W81249  14.746  13.669  10.619
 8825W        W81250  41.511  21.100   0.271
 8826W        W81251  10.784   7.357  13.937
 8827W        W81252  43.467  22.170   1.934
 8828W        W81253  29.484  22.027   3.721
 8829W        W81254  31.920   3.308   2.273
 8830W        W81255   0.359  15.796  13.462
 8831W        W81256  34.055  14.602  10.454
 8832W        W81257  30.110  21.076  11.948
 8833W        W81258   7.228  41.014  11.537
 8834W        W81259  33.474  44.883  12.023
 8835W        W81260  36.376  36.858   2.817
 8836W        W81261  32.960  26.584  13.880
 8837W        W81262  17.237  19.768  10.409
 8838W        W81263  24.209   1.877   0.304
 8839W        W81264  38.857   7.671   2.295
 8840W        W81265  21.512   8.830   3.352
 8841W        W81266  44.758  31.545  13.545
 8842W        W81267  30.147  34.870   1.916
 8843W        W81268   9.206  35.448   4.245
 8844W        W81269  33.546   9.384  13.965
 8845W        W81270  21.546  42.853   0.288
 8846W        W81271  13.216  27.045  10.924
 8847W        W81272  41.990  22.649   5.142
 8848W        W81273  37.006   0.868   3.768
 8849W        W81274   4.276  23.167  13.902
 8850W        W81275   7.735  12.750  12.468
 8851W        W81276   6.807  14.129   1.393
 8852W        W81277  18.733  28.461   0.441
 8853W        W81278  30.568  18.557   5.301
 8854W        W81279  32.080   3.308   0.902
 8855W        W81280  38.445  39.061   3.265
 8856W        W81281  25.550  32.957  12.934
 8857W        W81282  41.912  21.564  13.879
 8858W        W81283  43.300  36.551   0.399
 8859W        W81284  42.427   1.839   2.369
 8860W        W81285  22.209  12.361   2.771
 8861W        W81286  22.202  10.865  14.510
 8862W        W81287  36.894  40.017  12.026
 8863W        W81288  13.785  16.155  11.121
 8864W        W81289  33.437   0.471   0.956
 8865W        W81290  24.200  30.448   5.165
 8866W        W81291  26.994  38.491  11.918
 8867W        W81292  37.420  41.914   2.711
 8868W        W81293  41.917  14.169   4.623
 8869W        W81294   6.272   9.266   1.858
 8870W        W81295  26.658   4.722  11.606
 8871W        W81296   3.850  12.200   2.380
 8872W        W81297  22.545  23.610  10.448
 8873W        W81298   7.671  42.371  12.364
 8874W        W81299   9.198   8.700  13.338
 8875W        W81300  39.904  34.497  12.509
 8876W        W81301  18.259  24.070   3.835
 8877W        W81302  33.379   6.274  11.471
 8878W        W81303   7.783  17.726   2.246
 8879W        W81304  18.561  31.591  12.031
 8880W        W81305  30.459  17.607  14.434
 8881W        W81306  43.394  21.125   1.247
 8882W        W81307  36.892  18.052   2.415
 8883W        W81308   3.272  12.120  13.933
 8884W        W81309  17.122  44.465   1.408
 8885W        W81310  32.423  25.114  11.592
 8886W        W81311  14.797  33.077   0.314
 8887W        W81312  17.166  40.878   0.440
 8888W        W81313  27.150  44.266   1.841
 8889W        W81314   1.395   5.708   1.360
 8890W        W81315  26.504  38.570  11.598
 8891W        W81316  20.607   0.469   1.850
 8892W        W81317  20.187  40.372  13.343
 8893W        W81318  30.494  27.575   3.355
 8894W        W81319   2.790  29.988   4.674
 8895W        W81320  29.639  42.919   1.754
 8896W        W81321  11.169  33.965  10.545
 8897W        W81322  25.703   9.343   0.817
 8898W        W81323  16.648  10.858  12.089
 8899W        W81324  44.414  39.341   3.723
 8900W        W81325   4.874  11.280  14.478
 8901W        W81326  29.100  34.963   4.642
 8902W        W81327  33.961   6.677  12.027
 8903W        W81328  42.885  40.442   4.210
 8904W        W81329  29.607  34.075  14.768
 8905W        W81330  41.800  37.521   1.290
 8906W        W81331   1.276  21.170  13.541
 8907W        W81332  16.796  29.059  11.065
 8908W        W81333   3.847   4.759  13.888
 8909W        W81334   7.267   4.246   2.819
 8910W        W81335  33.568  20.702  12.931
 8911W        W81336   3.426   8.701   4.304
 8912W        W81337  23.022  13.841   0.742
 8913W        W81338  16.789  17.244  13.860
 8914W        W81339  13.152  30.915   2.775
 8915W        W81340  19.564  23.106   4.302
 8916W        W81341   2.309  32.406   0.251
 8917W        W81342  40.512   1.823   4.604
 8918W        W81343  17.725  11.801   4.168
 8919W        W81344   4.722  30.927   3.710
 8920W        W81345  17.135  19.533  11.539
 8921W        W81346  14.113   7.255  12.512
 8922W        W81347  31.126  22.115  13.377
 8923W        W81348  28.138  41.968  11.981
 8924W        W81349  11.270   5.358  11.516
 8925W        W81350   7.314   8.783   2.246
 8926W        W81351  42.395  12.655  12.077
 8927W        W81352   3.244  39.967   2.664
 8928W        W81353  37.547  41.942   2.255
 8929W        W81354  21.681  32.977  14.002
 8930W        W81355   7.694  43.444  13.416
 8931W        W81356  26.179  28.132   1.299
 8932W        W81357  28.665  14.783   2.221
 8933W        W81358  42.834  20.085  10.462
 8934W        W81359   8.352   6.188  10.588
 8935W        W81360  41.968  10.316  10.953
 8936W        W81361  18.577  32.465   4.620
 8937W        W81362  29.104  28.665   0.427
 8938W        W81363  23.583  31.040  11.022
 8939W        W81364  17.269  20.083  14.355
 8940W        W81365  18.750  42.965  12.513
 8941W        W81366  11.629  36.428   0.373
 8942W        W81367  38.840  27.946   2.814
 8943W        W81368   0.885  24.545   4.234
 8944W        W81369  30.420  17.129   4.798
 8945W        W81370  19.075  28.152  13.936
 8946W        W81371  42.473  16.798  12.483
 8947W        W81372  28.545  13.726  14.852
 8948W        W81373  27.967  37.501  13.500
 8949W        W81374   9.663  34.416   3.379
 8950W        W81375   7.230  18.768   1.802
 8951W        W81376  31.039   8.674   2.255
 8952W        W81377  14.726  23.688  11.456
 8953W        W81378  16.210  21.577  13.795
 8954W        W81379  14.649   0.295  11.923
 8955W        W81380   0.454   8.287  12.075
 8956W        W81381  30.918  18.709  13.326
 8957W        W81382  28.174  29.529  13.503
 8958W        W81383  25.122  36.587  14.488
 8959W        W81384  20.252   5.431  12.340
 8960W        W81385  26.501   0.924   4.205
 8961W        W81386  36.348  11.820   4.726
 8962W        W81387  23.234  14.174   3.722
 8963W        W81388  26.984  18.712  12.904
 8964W        W81389  27.978  21.146  10.949
 8965W        W81390  19.196  19.265  13.026
 8966W        W81391  36.934  40.449  13.330
 8967W        W81392  10.365  40.307   2.396
 8968W        W81393  43.515   5.233   4.342
 8969W        W81394  13.318   5.224   4.343
 8970W        W81395  28.496   6.238   0.459
 8971W        W81396  34.473  19.107  13.943
 8972W        W81397  14.330  11.645  11.857
 8973W        W81398  29.661  19.211   2.790
 8974W        W81399  30.052  33.478   2.228
 8975W        W81400  19.603  36.477  13.495
 8976W        W81401  20.567  27.620   1.218
 8977W        W81402  17.644  17.604   4.302
 8978W        W81403  11.215  14.799  12.989
 8979W        W81404  41.354  26.045   1.344
 8980W        W81405  16.659   5.899  12.971
 8981W        W81406  35.904  14.250   2.280
 8982W        W81407  15.179  13.180  13.000
 8983W        W81408   3.944  23.600  11.935
 8984W        W81409  26.545  28.485   1.811
 8985W        W81410  37.462  22.690   1.303
 8986W        W81411  28.524   8.687  13.945
 8987W        W81412  30.595   2.342  14.465
 8988W        W81413  30.421  37.002   3.165
 8989W        W81414  10.709  41.873   1.752
 8990W        W81415   7.798  37.916   2.874
 8991W        W81416  24.063  31.053   4.599
 8992W        W81417  37.400  34.911  13.974
 8993W        W81418  17.258  25.473   0.258
 8994W        W81419  28.548  34.425   1.232
 8995W        W81420  22.688   8.246   1.331
 8996W        W81421  43.403  15.660  11.061
 8997W        W81422  32.034  32.028   3.304
 8998W        W81423  18.777   1.317  11.022
 8999W        W81424   6.186  35.926   0.847
 9000W        W81425  21.208  31.001   1.806
 9001W        W81426  10.240  44.856   1.705
 9002W        W81427  24.609   4.450   1.770
 9003W        W81428  40.493   6.921  12.421
 9004W        W81429   8.231  33.608   2.695
 9005W        W81430  30.058  31.960   0.346
 9006W        W81431  28.081   2.769  12.027
 9007W        W81432  29.565   5.809   2.890
 9008W        W81433  28.940  23.021  10.128
 9009W        W81434  28.174  38.551   3.338
 9010W        W81435  25.595  37.084   1.777
 9011W        W81436  31.623  39.555   0.302
 9012W        W81437  18.680   7.719  14.283
 9013W        W81438  19.749   9.786  12.549
 9014W        W81439  17.733   2.230   1.865
 9015W        W81440  19.278  29.580  13.810
 9016W        W81441  32.052  23.060   1.444
 9017W        W81442  22.614  22.230  13.050
 9018W        W81443  42.911  15.131   0.879
 9019W        W81444  15.179   8.313  11.917
 9020W        W81445  15.681   8.306   4.340
 9021W        W81446  29.609   0.322   4.266
 9022W        W81447  39.435  27.004  11.092
 9023W        W81448  24.128  11.685   4.821
 9024W        W81449  28.524  34.422  12.441
 9025W        W81450  15.746  44.960   1.450
 9026W        W81451  38.865  15.729   3.817
 9027W        W81452  38.983  44.369   2.221
 9028W        W81453  44.263  33.983   3.158
 9029W        W81454  36.003  22.078  10.497
 9030W        W81455  33.877  43.883  14.974
 9031W        W81456  33.886   9.268  12.879
 9032W        W81457  15.087  34.880   5.210
 9033W        W81458   1.322  35.032  13.380
 9034W        W81459   0.885  15.672  11.037
 9035W        W81460  25.082  19.163   3.222
 9036W        W81461  21.656   5.206   3.791
 9037W        W81462  23.641  32.065   0.904
 9038W        W81463  27.636  28.664  10.435
 9039W        W81464   5.414  40.887   0.906
 9040W        W81465  29.593  36.858  11.955
 9041W        W81466  36.861  38.929   3.821
 9042W        W81467  33.058  10.367   0.882
 9043W        W81468  38.487  40.865   2.802
 9044W        W81469   1.449  31.082  10.902
 9045W        W81470   7.233  27.669  14.955
 9046W        W81471  27.110  15.641  13.369
 9047W        W81472  10.632  19.152  11.957
 9048W        W81473   1.939  15.816   4.264
 9049W        W81474  20.711  32.424  11.871
 9050W        W81475  33.051  33.465   2.339
 9051W        W81476  43.987  22.050   0.753
 9052W        W81477  24.995   2.441  11.879
 9053W        W81478   0.774   2.231  14.309
 9054W        W81479   2.752  10.725  12.515
 9055W        W81480  12.128  13.298   1.750
 9056W        W81481  32.008  44.415  14.342
 9057W        W81482  41.812   3.288  13.909
 9058W        W81483   9.817  42.454  12.860
 9059W        W81484   4.772  39.347   1.728
 9060W        W81485  12.316   2.388  11.511
 9061W        W81486   1.358  42.454  11.491
 9062W        W81487   2.453  11.205   4.674
 9063W        W81488  24.639  21.524  10.608
 9064W        W81489  17.206  25.663   2.273
 9065W        W81490  31.646  39.922   3.252
 9066W        W81491  18.135  20.628   2.807
 9067W        W81492  38.074  15.144   0.882
 9068W        W81493   1.240  11.687   2.263
 9069W        W81494  32.981  44.400   2.333
 9070W        W81495  14.167  15.253   4.716
 9071W        W81496   9.382  42.989  11.486
 9072W        W81497  42.368  40.998   4.811
 9073W        W81498  43.447   2.735   3.648
 9074W        W81499   4.449  40.011  11.517
 9075W        W81500  19.262  27.159  14.911
 9076W        W81501  42.816  27.021  10.491
 9077W        W81502  22.176  31.494  13.974
 9078W        W81503  19.205  28.133  13.534
 9079W        W81504   9.153   6.277   4.744
 9080W        W81505  26.623  19.763   1.848
 9081W        W81506   4.782  42.790  11.923
 9082W        W81507  21.582   1.449   2.764
 9083W        W81508  18.218  11.151   1.832
 9084W        W81509  15.187  11.623  10.605
 9085W        W81510  19.595  17.249   0.330
 9086W        W81511   1.257  42.461   0.461
 9087W        W81512  38.009  17.657  11.388
 9088W        W81513  41.859  33.590  11.967
 9089W        W81514  12.140   1.871  13.458
 9090W        W81515   8.823  43.012   2.716
 9091W        W81516  21.669  23.211  10.946
 9092W        W81517   9.848   8.731  12.953
 9093W        W81518  32.065  16.202  14.959
 9094W        W81519  12.769  24.571   1.252
 9095W        W81520  41.380  23.655   0.460
 9096W        W81521  13.700  43.001   2.722
 9097W        W81522  12.264  39.440   1.694
 9098W        W81523   3.327  26.553  14.286
 9099W        W81524   5.714  44.395   1.872
 9100W        W81525  41.516  19.711  11.950
 9101W        W81526  30.159  41.475   4.748
 9102W        W81527  12.361  12.273  13.508
 9103W        W81528  28.078  14.296   0.361
 9104W        W81529   1.800  12.678  13.815
 9105W        W81530  10.374   6.374  12.929
 9106W        W81531   5.804  21.589  13.412
 9107W        W81532  25.505   3.943  13.383
 9108W        W81533  30.566   5.238  14.361
 9109W        W81534  41.320  41.802   0.278
 9110W        W81535   2.807   8.825   3.278
 9111W        W81536  29.453  43.817   4.786
 9112W        W81537  11.655  32.961  11.485
 9113W        W81538   9.874  36.988  11.944
 9114W        W81539  42.487   4.726  12.068
 9115W        W81540  30.460  36.991   1.762
 9116W        W81541  18.623  36.959   4.755
 9117W        W81542  38.467   8.340   5.165
 9118W        W81543   9.830  44.827   1.834
 9119W        W81544  23.182  14.725   4.274
 9120W        W81545  43.356  22.198  14.963
 9121W        W81546  35.888  10.354   9.968
 9122W        W81547  40.506  38.954   3.339
 9123W        W81548  42.390  20.760  10.919
 9124W        W81549  40.994  11.335  11.922
 9125W        W81550  29.464   6.384   4.191
 9126W        W81551  11.371  42.998  14.816
 9127W        W81552  11.366  30.993  11.094
 9128W        W81553  38.966  44.425   1.915
 9129W        W81554  33.543  42.295  10.477
 9130W        W81555  34.610  27.477  11.867
 9131W        W81556   2.293  16.576   2.852
 9132W        W81557  34.863   7.312   0.876
 9133W        W81558  44.771  22.606   1.802
 9134W        W81559  30.493  13.338   2.683
 9135W        W81560  12.246   2.926  11.009
 9136W        W81561  17.218  16.763   0.941
 9137W        W81562   8.227  19.273   4.194
 9138W        W81563  43.909  34.919  11.467
 9139W        W81564  22.221  29.606  13.816
 9140W        W81565  36.476  33.077   4.175
 9141W        W81566   4.797  41.406  12.428
 9142W        W81567   8.224   5.819   3.225
 9143W        W81568  17.186  44.912   2.367
 9144W        W81569  31.463  35.384   4.641
 9145W        W81570  19.040  23.189   3.810
 9146W        W81571  44.974  44.413   1.762
 9147W        W81572  32.091   7.906  12.948
 9148W        W81573  20.042  37.572   4.755
 9149W        W81574  43.839  26.186   2.748
 9150W        W81575   3.385  11.850  14.930
 9151W        W81576  21.586   7.397  14.774
 9152W        W81577  30.037  37.566   3.776
 9153W        W81578  44.920   9.309   2.356
 9154W        W81579  28.652   2.264  11.378
 9155W        W81580  14.235   0.484   3.639
 9156W        W81581  11.264   5.396   4.828
 9157W        W81582   7.808   0.467   4.268
 9158W        W81583  44.821  36.556  11.541
 9159W        W81584  18.765  11.177   4.755
 9160W        W81585  43.956   9.727  13.883
 9161W        W81586  42.812  40.930   1.894
 9162W        W81587  20.583   2.353   4.819
 9163W        W81588   5.417   8.222  11.055
 9164W        W81589  31.532  35.888   2.336
 9165W        W81590  21.089  16.736  12.948
 9166W        W81591   6.738  30.156   1.863
 9167W        W81592  15.702   1.967  13.449
 9168W        W81593   8.756  37.541   1.716
 9169W        W81594  10.825  35.577  13.455
 9170W        W81595   7.840  23.158   3.728
 9171W        W81596  43.789  33.384  10.942
 9172W        W81597  39.051  13.123  12.059
 9173W        W81598  33.439  40.916  14.871
 9174W        W81599  15.625  35.936  14.359
 9175W        W81600  30.430  41.492  14.811
 9176W        W81601  20.584   7.696  13.535
 9177W        W81602  43.927  19.554   0.318
 9178W        W81603   0.987  41.523   4.631
 9179W        W81604   0.808   2.230  10.920
 9180W        W81605  15.809  29.927  13.521
 9181W        W81606  38.524   7.695   5.760
 9182W        W81607   6.307  38.379  12.844
 9183W        W81608   4.790   9.359  13.882
 9184W        W81609  36.087  34.115  14.392
 9185W        W81610  11.780  31.498   2.678
 9186W        W81611  32.510  16.303  10.537
 9187W        W81612  23.694  18.173  12.005
 9188W        W81613  25.190  42.434  12.853
 9189W        W81614  34.062   0.395   4.619
 9190W        W81615  28.949  10.264  12.394
 9191W        W81616  36.467  11.293   4.643
 9192W        W81617  30.089  16.586  13.430
 9193W        W81618  16.648   0.947   4.699
 9194W        W81619   8.745  29.429   1.230
 9195W        W81620  22.668  32.484   0.775
 9196W        W81621  17.587  37.453  10.498
 9197W        W81622  41.863   7.708  12.896
 9198W        W81623   1.340  29.035   0.254
 9199W        W81624   0.463   4.773   3.803
 9200W        W81625  42.935  29.551  14.988
 9201W        W81626  44.813  17.590  11.023
 9202W        W81627   5.299  44.421  13.496
 9203W        W81628  13.344  27.483  14.330
 9204W        W81629  35.865   2.373  12.906
 9205W        W81630  24.538   4.327  14.407
 9206W        W81631  27.073  13.201   2.796
 9207W        W81632   3.726   0.461   0.279
 9208W        W81633  12.722  33.488   4.196
 9209W        W81634   8.196   8.776   4.245
 9210W        W81635  30.471  41.918   1.373
 9211W        W81636  19.676   6.699   4.628
 9212W        W81637   7.748  12.236  13.544
 9213W        W81638  30.096   4.902   4.626
 9214W        W81639  36.089  31.559   0.307
 9215W        W81640  33.403   6.302  12.525
 9216W        W81641   9.743   9.351  10.564
 9217W        W81642  26.680  19.704  13.935
 9218W        W81643  18.078  15.256   1.359
 9219W        W81644  13.121  24.178  13.330
 9220W        W81645  19.235  13.337   4.334
 9221W        W81646  18.142  37.954   4.224
 9222W        W81647  23.550  40.524   0.471
 9223W        W81648  20.061  44.371   3.168
 9224W        W81649   5.778  22.166   3.768
 9225W        W81650  12.674   3.226   2.318
 9226W        W81651  14.664  17.629  13.928
 9227W        W81652   2.440  21.240   4.220
 9228W        W81653  27.116  14.709   0.416
 9229W        W81654  28.112  19.671   4.303
 9230W        W81655  17.196  25.140  12.975
 9231W        W81656  43.404  19.218  10.111
 9232W        W81657   5.219  34.940   3.254
 9233W        W81658  17.612  14.769  12.483
 9234W        W81659   9.188  23.538   1.912
 9235W        W81660  32.568  41.891   0.418
 9236W        W81661  29.540  10.820   4.639
 9237W        W81662   0.345  19.762  12.008
 9238W        W81663   5.930  21.140  14.934
 9239W        W81664   9.177  20.181  10.521
 9240W        W81665  41.043  11.291  10.523
 9241W        W81666   1.394  24.115  14.510
 9242W        W81667  29.995   5.253   2.754
 9243W        W81668  17.739  17.745  10.522
 9244W        W81669  28.453   0.350  13.401
 9245W        W81670  27.168  22.568   0.399
 9246W        W81671  11.206   8.251  11.892
 9247W        W81672  33.598  39.043   2.310
 9248W        W81673  20.531  20.042  13.987
 9249W        W81674  40.924  36.922   1.316
 9250W        W81675  15.186  25.017  14.909
 9251W        W81676   5.284  10.836   2.728
 9252W        W81677  40.430   0.430   3.269
 9253W        W81678  36.004  13.779   3.772
 9254W        W81679  31.570  16.184  14.983
 9255W        W81680  11.271  10.210   3.814
 9256W        W81681  44.501  18.616  11.997
 9257W        W81682  38.365  32.998  10.574
 9258W        W81683  25.486  30.118   1.325
 9259W        W81684   7.738  32.620  11.426
 9260W        W81685  44.796  34.097  11.128
 9261W        W81686  23.131  26.517  10.158
 9262W        W81687  44.839  28.039  13.326
 9263W        W81688   1.960  25.131   0.841
 9264W        W81689  43.301  19.225   0.397
 9265W        W81690   9.670  17.240   1.756
 9266W        W81691  33.914  29.475   2.183
 9267W        W81692   4.211  29.016  13.896
 9268W        W81693   3.901   1.826  13.499
 9269W        W81694   2.830  15.769   2.196
 9270W        W81695  20.151  34.967   2.380
 9271W        W81696   8.834   6.410  11.564
 9272W        W81697   7.208  43.321   2.370
 9273W        W81698  20.637  29.153   4.166
 9274W        W81699  14.682  38.451  10.413
 9275W        W81700   0.963  27.171   1.706
 9276W        W81701  32.598  39.337   2.749
 9277W        W81702  13.700  36.553   0.251
 9278W        W81703  43.307  23.560  13.899
 9279W        W81704  22.999   6.849   4.702
 9280W        W81705  11.309  39.490  13.977
 9281W        W81706  14.286   7.776   0.817
 9282W        W81707   6.706  28.559  12.412
 9283W        W81708  19.085  33.964  13.818
 9284W        W81709  30.073   4.320  11.952
 9285W        W81710  14.338  42.958  11.558
 9286W        W81711  32.634   8.880  14.761
 9287W        W81712  10.355  12.168  10.628
 9288W        W81713   7.362  10.340   1.342
 9289W        W81714  16.625   4.740  13.544
 9290W        W81715  28.582  21.062  10.519
 9291W        W81716  14.236  22.542   1.764
 9292W        W81717   3.921  33.022   0.776
 9293W        W81718  23.134   8.325  13.360
 9294W        W81719  20.149  37.886   1.331
 9295W        W81720   2.375   8.737  13.042
 9296W        W81721   5.764   3.358   2.263
 9297W        W81722   3.385  15.752   0.942
 9298W        W81723  16.130  24.610   3.176
 9299W        W81724  40.052  44.448  12.568
 9300W        W81725  14.269  23.522  10.571
 9301W        W81726  17.214  15.725   2.852
 9302W        W81727  20.162  20.618   4.743
 9303W        W81728  25.486  41.506  10.048
 9304W        W81729  11.285  10.777   3.227
 9305W        W81730  44.793  33.978  11.423
 9306W        W81731  43.959  31.558  10.487
 9307W        W81732  29.586  36.404   4.636
 9308W        W81733   2.412  25.596  13.487
 9309W        W81734  23.559  29.011   1.763
 9310W        W81735  35.065   0.392  12.931
 9311W        W81736   9.784  15.212   0.308
 9312W        W81737  43.835   3.798   2.401
 9313W        W81738  25.473  31.089   9.974
 9314W        W81739  31.997  44.345   2.373
 9315W        W81740   6.785   2.779   3.152
 9316W        W81741  23.035  42.781   1.373
 9317W        W81742   2.257   7.348  10.457
 9318W        W81743   7.294  41.963  14.943
 9319W        W81744  38.518  42.468  14.346
 9320W        W81745  18.209  39.944   3.721
 9321W        W81746  33.437  37.077  14.785
 9322W        W81747  21.093   0.962  12.518
 9323W        W81748   6.798  42.805   2.706
 9324W        W81749  42.914  21.036  12.059
 9325W        W81750  25.134   7.818  14.989
 9326W        W81751  39.399  41.472   1.221
 9327W        W81752  39.939   3.304   3.196
 9328W        W81753  19.252  40.974   0.963
 9329W        W81754   1.251   1.242  11.566
 9330W        W81755  34.569  20.711   2.275
 9331W        W81756  29.173  39.353   3.304
 9332W        W81757   3.293   5.264  14.275
 9333W        W81758  12.324  12.342   2.760
 9334W        W81759  21.611   4.312  10.962
 9335W        W81760  10.277  34.009  10.611
 9336W        W81761   6.222  12.641  11.951
 9337W        W81762  16.757   9.770  10.624
 9338W        W81763  17.658   7.415  13.799
 9339W        W81764   0.274  31.101  14.995
 9340W        W81765   1.291  10.334  12.437
 9341W        W81766  38.510  42.430   4.264
 9342W        W81767  39.862  29.611  11.996
 9343W        W81768  20.200  29.970   3.346
 9344W        W81769  38.565  20.662   4.135
 9345W        W81770  36.585  23.146  14.782
 9346W        W81771   2.308  16.669   1.447
 9347W        W81772  32.097  38.546  13.350
 9348W        W81773   3.904  28.563   4.668
 9349W        W81774   8.345  21.706   3.672
 9350W        W81775  37.434  14.199  14.347
 9351W        W81776  44.350   6.713   2.676
 9352W        W81777  27.472   0.826   2.357
 9353W        W81778  44.302  21.662  11.112
 9354W        W81779  24.072  40.547   0.372
 9355W        W81780  23.205  34.038   3.706
 9356W        W81781   6.834  40.893   3.252
 9357W        W81782   8.803  26.522  12.414
 9358W        W81783  35.539  20.630   3.286
 9359W        W81784  21.723  26.688   0.376
 9360W        W81785   1.769  38.001  12.566
 9361W        W81786   6.770  36.980  12.980
 9362W        W81787   8.277  44.852   1.359
 9363W        W81788  37.509   5.413   1.833
 9364W        W81789  25.056   4.915   2.785
 9365W        W81790  16.792   1.453  11.421
 9366W        W81791  23.050  29.664  11.102
 9367W        W81792  10.318  24.098   2.267
 9368W        W81793   8.375  10.260  11.951
 9369W        W81794  34.069  19.584   4.117
 9370W        W81795  43.321  31.104  14.320
 9371W        W81796  12.801  33.960  14.442
 9372W        W81797   2.303  10.251   2.685
 9373W        W81798  17.638  13.231  10.015
 9374W        W81799  44.971  38.003   3.849
 9375W        W81800  41.312  11.355   1.736
 9376W        W81801   5.426  22.658   1.348
 9377W        W81802   1.919  31.080  13.793
 9378W        W81803   8.804  37.508   3.719
 9379W        W81804  11.135  15.205  13.803
 9380W        W81805  30.439  13.133  12.496
 9381W        W81806  41.449  32.466   1.755
 9382W        W81807  11.359  43.879  10.444
 9383W        W81808  27.053  29.096   2.204
 9384W        W81809  14.589  29.506  13.503
 9385W        W81810  28.164   5.297  14.333
 9386W        W81811  25.709  13.193   4.151
 9387W        W81812  32.044  42.898   5.125
 9388W        W81813  40.880  20.651   2.744
 9389W        W81814   6.189  25.588  12.842
 9390W        W81815  41.499  19.671  13.367
 9391W        W81816  27.646  38.829   0.855
 9392W        W81817  22.669  30.419  13.938
 9393W        W81818   5.877  43.857   4.197
 9394W        W81819  37.921  29.574  12.567
 9395W        W81820  14.729  30.568   9.937
 9396W        W81821   3.452  41.916  13.409
 9397W        W81822  40.833  11.722  14.511
 9398W        W81823   5.928  14.812  12.473
 9399W        W81824  39.435  11.639  10.546
 9400W        W81825  15.618  13.134   2.217
 9401W        W81826  26.205  15.113   0.381
 9402W        W81827  23.017  14.742   1.792
 9403W        W81828  32.052   6.293   1.883
 9404W        W81829  14.754  42.462   1.292
 9405W        W81830  35.490  13.121  11.589
 9406W        W81831  43.764  10.863  13.809
 9407W        W81832  25.030   0.779   1.747
 9408W        W81833   3.929  16.112   3.771
 9409W        W81834   0.761  16.768   2.888
 9410W        W81835   9.153   5.211   2.187
 9411W        W81836  17.277  22.716  14.415
 9412W        W81837  35.896  35.418  13.323
 9413W        W81838  17.109  23.657  13.850
 9414W        W81839  22.635  17.200  14.767
 9415W        W81840  19.543  20.264   1.285
 9416W        W81841  24.205  35.523  10.623
 9417W        W81842  29.923   9.280   3.678
 9418W        W81843   7.312   1.279   0.285
 9419W        W81844  14.591   9.866  13.517
 9420W        W81845  10.635  26.199  10.950
 9421W        W81846  42.790  13.300  13.956
 9422W        W81847  23.676  20.057   3.208
 9423W        W81848   4.741   2.283  11.578
 9424W        W81849  19.204  35.936   1.745
 9425W        W81850   0.403  18.593  11.127
 9426W        W81851  14.145  25.111   0.891
 9427W        W81852   6.214  34.015  13.842
 9428W        W81853  10.285  36.960   4.203
 9429W        W81854  42.356  36.995  13.991
 9430W        W81855  24.710  24.512  12.065
 9431W        W81856   9.285  32.456  12.085
 9432W        W81857  29.448  35.988   2.682
 9433W        W81858  35.421   4.883   4.275
 9434W        W81859  10.725  13.115   4.726
 9435W        W81860  35.399  36.966  10.454
 9436W        W81861  25.472  17.086   4.800
 9437W        W81862  22.195   0.458  13.409
 9438W        W81863  41.040   4.759  11.593
 9439W        W81864  44.011  17.779   0.391
 9440W        W81865  15.655  19.635   4.216
 9441W        W81866  32.566  34.432   2.756
 9442W        W81867  31.585  26.187  11.894
 9443W        W81868  24.068  25.713   1.245
 9444W        W81869  23.576  37.074   1.812
 9445W        W81870  14.663  15.711   3.782
 9446W        W81871   5.310   9.210   2.364
 9447W        W81872   3.445  20.094   1.890
 9448W        W81873  43.391  22.654   0.454
 9449W        W81874   0.936  30.474  13.511
 9450W        W81875   9.851  10.295  11.597
 9451W        W81876   1.438  23.613   1.292
 9452W        W81877  34.969  26.045   2.787
 9453W        W81878  40.042  17.662   2.690
 9454W        W81879  42.354  33.390   2.182
 9455W        W81880  24.188   5.269  12.891
 9456W        W81881   9.158   9.319   2.900
 9457W        W81882  28.077  40.877   3.777
 9458W        W81883   1.259  33.970  12.091
 9459W        W81884  30.048  31.984   2.687
 9460W        W81885  37.483   5.391  11.605
 9461W        W81886  28.994  34.868   2.662
 9462W        W81887  19.695   1.392  11.061
 9463W        W81888   6.874  37.501   1.345
 9464W        W81889  12.208  38.864  11.987
 9465W        W81890   5.702  40.025   0.368
 9466W        W81891   7.906   9.886  12.868
 9467W        W81892  14.099  37.522  13.054
 9468W        W81893  39.488  33.072   1.396
 9469W        W81894  44.425  35.884  10.053
 9470W        W81895  31.522  11.850   0.347
 9471W        W81896  44.417  30.077  13.336
 9472W        W81897  19.752  22.509  13.863
 9473W        W81898  28.950   1.945  14.308
 9474W        W81899  29.506   1.349  14.514
 9475W        W81900  39.934  13.758   2.277
 9476W        W81901  15.722  34.543   1.809
 9477W        W81902  25.650  18.190   4.814
 9478W        W81903  22.716  29.060  12.495
 9479W        W81904  38.367  21.208  14.975
 9480W        W81905  18.778  43.466   4.336
 9481W        W81906  19.712  42.945   5.294
 9482W        W81907  38.418  13.647   1.307
 9483W        W81908  35.368  15.678  10.642
 9484W        W81909  39.549  32.460   3.686
 9485W        W81910   6.707  38.503  13.014
 9486W        W81911   3.937   5.193  12.492
 9487W        W81912  15.304  42.850  13.860
 9488W        W81913  39.011  30.104  13.336
 9489W        W81914  16.613   4.377  11.425
 9490W        W81915  44.946  42.857  10.000
 9491W        W81916  34.863   8.891  13.862
 9492W        W81917  19.062  14.807  14.508
 9493W        W81918   9.392  13.695  11.456
 9494W        W81919   2.850  10.684   4.228
 9495W        W81920  22.595  35.381  14.362
 9496W        W81921  39.049  36.422  12.521
 9497W        W81922  31.410  16.278  14.509
 9498W        W81923  14.231  10.724  12.022
 9499W        W81924   8.389  42.449   4.243
 9500W        W81925  42.440  35.086   3.729
 9501W        W81926  11.698  37.474  11.579
 9502W        W81927  34.945  26.964  12.067
 9503W        W81928   5.823  13.625   4.648
 9504W        W81929  12.675  22.603   2.667
 9505W        W81930  11.755   8.235   3.179
 9506W        W81931   3.433  40.932   2.856
 9507W        W81932  26.646  10.293  13.468
 9508W        W81933  26.015  33.432   0.297
 9509W        W81934  29.986   0.757  13.045
 9510W        W81935  25.612   7.893  11.448
 9511W        W81936   1.770  39.557   2.824
 9512W        W81937   3.886  21.626  11.505
 9513W        W81938  32.099  29.497   1.409
 9514W        W81939   1.917  28.467  12.042
 9515W        W81940   4.764   7.828   3.274
 9516W        W81941   3.874   1.897  14.760
 9517W        W81942  27.560  41.952   2.830
 9518W        W81943   4.446  37.830  14.310
 9519W        W81944  32.129  15.120   5.106
 9520W        W81945  11.727  30.605   0.903
 9521W        W81946  20.538  30.544  14.352
 9522W        W81947  23.648  26.650  12.934
 9523W        W81948   9.386  23.089  12.875
 9524W        W81949  20.049  31.129  13.997
 9525W        W81950  15.590  22.551   4.186
 9526W        W81951   2.235  38.470   2.808
 9527W        W81952  41.508  31.951   4.350
 9528W        W81953  35.963   0.334   4.339
 9529W        W81954  10.209  17.707  14.806
 9530W        W81955  11.245   6.343   0.379
 9531W        W81956  21.196  40.430  13.827
 9532W        W81957  26.985  11.740   3.667
 9533W        W81958   1.400  38.054  10.978
 9534W        W81959  11.152   1.303  11.002
 9535W        W81960  13.284  12.311  11.078
 9536W        W81961  33.030  15.774   4.639
 9537W        W81962  35.370   1.872  11.113
 9538W        W81963  42.901  33.487  14.024
 9539W        W81964  11.825  13.720  11.553
 9540W        W81965  39.335  29.174   2.306
 9541W        W81966  44.481  27.182   4.730
 9542W        W81967  29.951  33.994  12.904
 9543W        W81968  14.687   1.749   3.756
 9544W        W81969  36.050  43.009   4.244
 9545W        W81970   4.269  30.084  10.535
 9546W        W81971  26.973  32.547  10.536
 9547W        W81972   4.272   2.339  11.887
 9548W        W81973  33.043  36.912   1.440
 9549W        W81974  22.650  13.805  10.920
 9550W        W81975  29.608  26.563  12.011
 9551W        W81976  33.609  24.530  11.548
 9552W        W81977  29.129  34.940  14.351
 9553W        W81978   9.707  43.277  13.377
 9554W        W81979  21.616  40.043  14.910
 9555W        W81980   0.856  29.139  13.435
 9556W        W81981  10.697  30.153   1.240
 9557W        W81982  13.169  23.570  13.465
 9558W        W81983  41.030  15.305  12.934
 9559W        W81984  43.787  19.117   0.835
 9560W        W81985  43.952  23.655   4.192
 9561W        W81986  34.080  20.135  14.377
 9562W        W81987  28.141  19.606  11.108
 9563W        W81988  34.032   7.216   3.798
 9564W        W81989  27.969  30.509  11.890
 9565W        W81990   7.897  24.687   4.248
 9566W        W81991  31.021   0.338   3.216
 9567W        W81992  35.570  32.566   0.741
 9568W        W81993  18.716  30.056  12.911
 9569W        W81994  15.090  12.169  12.983
 9570W        W81995  44.259  38.844   0.914
 9571W        W81996  18.729  23.020  11.448
 9572W        W81997   9.223  12.772  11.085
 9573W        W81998   3.911  38.990  11.499
 9574W        W81999  23.104  31.522   0.856
 9575W        W82000   1.425  21.121  13.043
 9576W        W82001  23.504   3.313  12.576
 9577W        W82002   8.397   7.242  13.455
 9578W        W82003  20.649   9.756  13.337
 9579W        W82004  37.562  18.054   4.171
 9580W        W82005  25.162  44.759   0.956
 9581W        W82006  31.425  27.499   2.780
 9582W        W82007  35.445  35.991  14.853
 9583W        W82008  38.440  35.936  14.283
 9584W        W82009  10.767  40.487   4.281
 9585W        W82010  33.118   4.755  11.105
 9586W        W82011  25.999  10.706   0.273
 9587W        W82012  27.988   8.376  10.493
 9588W        W82013   6.745  32.949   4.238
 9589W        W82014  13.173  26.083  11.929
 9590W        W82015  19.231  27.555   0.301
 9591W        W82016  42.003  31.941  11.397
 9592W        W82017   8.868  29.437  13.398
 9593W        W82018   7.778  25.009   2.671
 9594W        W82019  16.220  38.888  12.411
 9595W        W82020  28.668  38.492   9.994
 9596W        W82021  10.723  43.443   4.789
 9597W        W82022  17.101  15.716   2.359
 9598W        W82023  40.834  25.619  12.440
 9599W        W82024  15.320  34.442   4.227
 9600W        W82025  13.698   1.757  11.971
 9601W        W82026  28.588   3.820   0.960
 9602W        W82027  24.162  40.954  12.500
 9603W        W82028   2.389  41.446  13.501
 9604W        W82029  27.959  43.366   4.175
 9605W        W82030  25.168  32.559   4.298
 9606W        W82031  36.561   5.719   2.374
 9607W        W82032  20.165  14.761  11.031
 9608W        W82033  36.003  29.669   1.877
 9609W        W82034  44.293  13.330   0.760
 9610W        W82035   3.722  29.431   0.944
 9611W        W82036  12.779  31.071   1.721
 9612W        W82037  38.968  18.245  14.897
 9613W        W82038  11.265  27.955   2.773
 9614W        W82039   3.803  17.117   2.684
 9615W        W82040   2.334  37.064  10.568
 9616W        W82041  33.924  40.891  14.342
 9617W        W82042   3.853  25.144   2.681
 9618W        W82043  14.181   0.424  14.350
 9619W        W82044  30.615  39.458   4.121
 9620W        W82045  19.619   1.297  12.342
 9621W        W82046  39.412  12.360   1.218
 9622W        W82047  15.261  12.214  13.310
 9623W        W82048  29.628  23.681  12.434
 9624W        W82049   4.726  38.505   3.867
 9625W        W82050  22.726  14.209   4.719
 9626W        W82051  41.966  26.077  13.474
 9627W        W82052  10.838  13.278  14.944
 9628W        W82053   8.391  37.510   2.396
 9629W        W82054  25.980  36.574   2.198
 9630W        W82055  17.589  41.516   3.784
 9631W        W82056  19.222   3.336  13.899
 9632W        W82057  12.824  22.155   0.735
 9633W        W82058  38.462  32.496   4.623
 9634W        W82059   2.266  24.197   4.189
 9635W        W82060  43.473  42.328  11.433
 9636W        W82061  16.704   9.729   3.713
 9637W        W82062  11.264  20.590  12.449
 9638W        W82063  33.575  15.662  11.581
 9639W        W82064  39.352  37.007  11.513
 9640W        W82065   6.794  25.613  10.484
 9641W        W82066   2.455  31.911  11.463
 9642W        W82067  39.542  23.698   4.192
 9643W        W82068  30.633  29.143  13.822
 9644W        W82069   2.883  18.764  13.379
 9645W        W82070   4.926  12.307   3.349
 9646W        W82071  15.126  17.094  14.832
 9647W        W82072  33.913  12.230   1.411
 9648W        W82073  18.584   0.779  12.552
 9649W        W82074  20.266   2.336   4.124
 9650W        W82075   7.236  39.513  14.843
 9651W        W82076  13.771  30.629   0.456
 9652W        W82077  27.943  27.180   4.640
 9653W        W82078  15.607  11.363   1.717
 9654W        W82079  12.739  31.115  12.515
 9655W        W82080  27.108  10.169  12.876
 9656W        W82081  43.784  32.598   2.717
 9657W        W82082  14.239   5.197  14.510
 9658W        W82083   1.350   5.884   2.187
 9659W        W82084   2.238  27.071  11.530
 9660W        W82085   8.348  19.269  13.444
 9661W        W82086  27.648  23.126   1.266
 9662W        W82087   1.896  17.560  11.544
 9663W        W82088  10.734  40.311  12.394
 9664W        W82089  43.511  36.062   4.654
 9665W        W82090  18.569  41.978   0.415
 9666W        W82091  10.242   8.363  11.563
 9667W        W82092  22.132   8.399   1.703
 9668W        W82093  25.045  43.834   2.353
 9669W        W82094   5.345  13.317   0.302
 9670W        W82095  38.549  23.613  12.405
 9671W        W82096  25.104   2.254  13.022
 9672W        W82097  22.033   7.883   0.337
 9673W        W82098   2.774   8.882  10.430
 9674W        W82099  12.715   7.241   2.286
 9675W        W82100  29.434   7.307   4.638
 9676W        W82101  25.969  15.778   0.816
 9677W        W82102  38.401   1.356  13.064
 9678W        W82103  40.516  10.360  14.439
 9679W        W82104  32.567  20.223   0.398
 9680W        W82105  39.849  38.399  13.387
 9681W        W82106  39.986  33.992   1.925
 9682W        W82107  18.660  18.768  11.054
 9683W        W82108  36.077  12.345   4.286
 9684W        W82109  33.883  10.196   3.666
 9685W        W82110   2.328  13.841   4.242
 9686W        W82111  10.159  26.690   1.814
 9687W        W82112  42.444  36.355  14.423
 9688W        W82113  27.464  42.947   2.733
 9689W        W82114  42.895   5.389   3.320
 9690W        W82115  36.384   6.363  11.862
 9691W        W82116  17.176  10.216  13.547
 9692W        W82117   1.476  12.285  13.420
 9693W        W82118  13.831   6.244   4.707
 9694W        W82119   0.310  38.562   4.262
 9695W        W82120   6.835   1.312  14.279
 9696W        W82121  15.246   8.785   3.749
 9697W        W82122  41.332  15.633  14.410
 9698W        W82123   8.342  43.434  10.519
 9699W        W82124  37.011  10.642  10.456
 9700W        W82125  37.977  17.166  10.439
 9701W        W82126   0.407  22.689  13.810
 9702W        W82127   8.188  23.678  14.029
 9703W        W82128  29.665   2.403   4.212
 9704W        W82129  16.592  18.575   3.695
 9705W        W82130  32.997  12.255   4.694
 9706W        W82131  30.042  30.109   2.227
 9707W        W82132   8.792  23.206  11.881
 9708W        W82133  36.393  34.027  11.004
 9709W        W82134  30.573   2.310  11.895
 9710W        W82135  18.277  44.007   4.711
 9711W        W82136  43.362  21.138   2.734
 9712W        W82137  20.623  26.975  13.849
 9713W        W82138  40.330  16.688   1.289
 9714W        W82139  43.964  11.270   1.447
 9715W        W82140  14.217  26.471  13.858
 9716W        W82141  33.440  23.705  14.924
 9717W        W82142  18.147  25.493  12.034
 9718W        W82143  27.453  28.045  10.406
 9719W        W82144   4.402  31.549   4.765
 9720W        W82145  12.200  16.776  12.481
 9721W        W82146  17.556  31.005  14.452
 9722W        W82147   6.753  28.941  10.557
 9723W        W82148  10.261  29.536  12.363
 9724W        W82149  11.648  11.225  14.997
 9725W        W82150   4.938  21.712  13.453
 9726W        W82151  19.177  41.441   2.809
 9727W        W82152   3.273  18.685   4.243
 9728W        W82153  36.499  40.369  10.921
 9729W        W82154  21.135  16.609  10.633
 9730W        W82155   1.831   2.861  10.963
 9731W        W82156  23.517   0.810   2.743
 9732W        W82157  40.945  38.505  11.460
 9733W        W82158  37.433  18.092  14.464
 9734W        W82159  43.336  24.076  11.873
 9735W        W82160  31.617   8.195   2.782
 9736W        W82161  33.086  32.577   1.232
 9737W        W82162  44.392  35.522  13.312
 9738W        W82163   3.713  16.283   0.935
 9739W        W82164  17.229  42.388   1.735
 9740W        W82165  23.053  28.056   0.849
 9741W        W82166   5.406   3.928  13.406
 9742W        W82167  10.236  41.472  11.458
 9743W        W82168  42.504  36.040  11.519
 9744W        W82169  24.204  39.972  13.479
 9745W        W82170  27.554  27.069   1.869
 9746W        W82171  32.573  14.169   3.698
 9747W        W82172  38.071  24.587   3.183
 9748W        W82173  38.433  23.212  11.602
 9749W        W82174  42.462  16.188  11.924
 9750W        W82175  33.890  15.688   4.182
 9751W        W82176  30.449  32.120   4.188
 9752W        W82177  12.751  23.123   3.739
 9753W        W82178  43.005  30.532  10.482
 9754W        W82179  43.946  15.288  14.276
 9755W        W82180  24.568  32.406   2.807
 9756W        W82181  33.116  36.443  14.444
 9757W        W82182  15.159  16.207  10.505
 9758W        W82183   4.935  14.776  14.899
 9759W        W82184   3.836  12.785   2.181
 9760W        W82185  20.137   6.359   1.930
 9761W        W82186  15.638  27.552   0.358
 9762W        W82187   0.368  37.546   4.154
 9763W        W82188  15.680  19.675  14.951
 9764W        W82189  27.029  15.088   2.363
 9765W        W82190  15.241  24.624  10.495
 9766W        W82191  29.156  27.964  11.989
 9767W        W82192  26.687  41.299  12.364
 9768W        W82193   5.798  32.926   0.780
 9769W        W82194  32.020  10.362   2.305
 9770W        W82195  26.153  20.231  11.913
 9771W        W82196  11.230  13.652   0.247
 9772W        W82197  17.727  15.131   1.391
 9773W        W82198  32.395  35.099  14.427
 9774W        W82199  22.733  19.044  10.953
 9775W        W82200  16.621   3.363   4.257
 9776W        W82201  41.380   6.770  10.593
 9777W        W82202  15.278  34.959  12.083
 9778W        W82203  17.302   5.893   1.250
 9779W        W82204  30.515  43.966   1.249
 9780W        W82205  19.054  34.448  14.820
 9781W        W82206  41.486   9.208  14.367
 9782W        W82207  40.381  25.124   4.282
 9783W        W82208  17.780  38.890   3.363
 9784W        W82209  26.545  20.044  12.536
 9785W        W82210  18.115  11.819   0.458
 9786W        W82211  35.523   4.851   4.646
 9787W        W82212  37.955   2.932   2.304
 9788W        W82213   9.688  20.545   4.126
 9789W        W82214  22.652   1.362  12.070
 9790W        W82215  13.787  38.922   3.229
 9791W        W82216   2.848  13.818  12.900
 9792W        W82217  16.076  41.515  14.325
 9793W        W82218  26.549   3.245   1.870
 9794W        W82219  27.579  25.616   3.743
 9795W        W82220  12.189  35.518   4.760
 9796W        W82221  23.732  36.581  14.818
 9797W        W82222   4.930   7.844   4.702
 9798W        W82223  39.061  17.185  12.499
 9799W        W82224  43.884  12.808  14.882
 9800W        W82225  18.283  40.884   4.196
 9801W        W82226   2.848   9.338   2.308
 9802W        W82227  26.605  10.361  12.522
 9803W        W82228  25.655   8.745  14.386
 9804W        W82229  28.575  38.399   3.632
 9805W        W82230  32.610   1.744  13.898
 9806W        W82231   2.799   0.784   4.180
 9807W        W82232  17.684  10.750   2.287
 9808W        W82233  36.933  28.137  10.531
 9809W        W82234  35.932  30.978   0.898
 9810W        W82235  34.061  24.103  12.988
 9811W        W82236  24.497  35.498   2.878
 9812W        W82237  20.709  21.137   0.445
 9813W        W82238  40.444  26.151  10.532
 9814W        W82239  19.674   5.341   4.818
 9815W        W82240  17.136  44.408  14.769
 9816W        W82241  27.614  18.670  13.024
 9817W        W82242   0.780  28.478  10.615
 9818W        W82243  43.989  35.381  10.515
 9819W        W82244  31.931  22.537  11.396
 9820W        W82245  28.959  21.656   2.679
 9821W        W82246  11.773  34.593  11.444
 9822W        W82247  36.589  31.117  13.989
 9823W        W82248  25.474  15.695  12.045
 9824W        W82249  41.509  13.697  11.109
 9825W        W82250  42.304  28.574  11.469
 9826W        W82251  36.023  10.799   4.195
 9827W        W82252  22.057  18.073   2.212
 9828W        W82253  39.426   9.665   0.320
 9829W        W82254  23.500  30.047  10.557
 9830W        W82255  24.496  21.106   2.417
 9831W        W82256   5.814   2.786  10.926
 9832W        W82257  31.003  22.541   3.244
 9833W        W82258  34.393  15.096   3.383
 9834W        W82259  34.000   5.305   4.832
 9835W        W82260  34.386  33.078  13.797
 9836W        W82261  14.765  32.028  10.635
 9837W        W82262  19.041  24.040   3.814
 9838W        W82263  19.256  12.257   1.842
 9839W        W82264  27.187  32.059  12.868
 9840W        W82265   7.752   3.435  12.969
 9841W        W82266  28.954  23.734   3.325
 9842W        W82267  15.112  29.101   0.888
 9843W        W82268  16.250  11.275   0.907
 9844W        W82269   5.237   3.746  14.448
 9845W        W82270  29.568  23.613   1.447
 9846W        W82271  12.846  25.501   3.284
 9847W        W82272  32.025  33.887  12.885
 9848W        W82273  11.649  17.665   2.790
 9849W        W82274  31.911  28.528  13.061
 9850W        W82275  42.958   6.805  12.477
 9851W        W82276  43.766   0.870  10.602
 9852W        W82277   3.832  40.464   1.373
 9853W        W82278  23.524  44.903  12.045
 9854W        W82279  16.685  25.651   2.321
 9855W        W82280  40.945  19.730  12.424
 9856W        W82281  35.042  20.237  14.822
 9857W        W82282  32.893  15.090  11.991
 9858W        W82283   5.415  14.606  13.837
 9859W        W82284  41.388  31.024   4.353
 9860W        W82285  30.586  10.709  11.568
 9861W        W82286   1.248  36.443  14.964
 9862W        W82287  30.456  41.020   1.285
 9863W        W82288  38.956  27.491  14.943
 9864W        W82289   9.223  11.726  14.335
 9865W        W82290  35.987   3.333   4.205
 9866W        W82291  31.139  41.994   1.889
 9867W        W82292   6.238  25.023   4.623
 9868W        W82293  15.791   6.210   1.900
 9869W        W82294   0.468  30.508   2.773
 9870W        W82295  14.191  42.025  13.838
 9871W        W82296  22.680  16.624  12.559
 9872W        W82297  29.933  29.535   4.196
 9873W        W82298   3.740  37.917  11.910
 9874W        W82299  36.523  14.764   1.824
 9875W        W82300  18.265  27.457   1.696
 9876W        W82301  43.953  12.286  11.500
 9877W        W82302  42.900  33.066   4.665
 9878W        W82303  30.599  22.648  14.402
 9879W        W82304  32.946  22.660  11.505
 9880W        W82305   0.260  34.880   4.238
 9881W        W82306  11.293  28.132   3.276
 9882W        W82307  31.963  29.015   1.377
 9883W        W82308   7.905  29.585   4.767
 9884W        W82309  35.054  42.307   2.232
 9885W        W82310  41.832  40.944  14.431
 9886W        W82311  31.976  21.232  10.045
 9887W        W82312  11.356  12.844   0.398
 9888W        W82313  36.523  44.331  10.606
 9889W        W82314   1.855   7.201   0.808
 9890W        W82315  37.526   1.395   0.416
 9891W        W82316  31.601  32.597  13.458
 9892W        W82317  20.062   0.268   4.639
 9893W        W82318   1.833  14.226   1.255
 9894W        W82319  30.137  40.360   0.736
 9895W        W82320  40.501  38.980  12.386
 9896W        W82321  32.519  29.992   4.163
 9897W        W82322   2.878   3.803   4.187
 9898W        W82323   8.735  43.984  14.413
 9899W        W82324  13.664  31.435  10.888
 9900W        W82325  26.692  41.987   0.881
 9901W        W82326  41.443  26.666   2.869
 9902W        W82327  22.524  34.615   3.368
 9903W        W82328   6.397  23.155  13.508
 9904W        W82329   9.742  42.451   4.685
 9905W        W82330   1.335  23.162  11.910
 9906W        W82331  28.487  30.620   2.242
 9907W        W82332  15.618  33.956  13.321
 9908W        W82333  29.094  24.099   0.434
 9909W        W82334   0.297  19.093   4.225
 9910W        W82335  22.601   9.328   3.181
 9911W        W82336   9.696  40.900  12.028
 9912W        W82337  40.517  44.469   1.268
 9913W        W82338  44.807  28.546   1.222
 9914W        W82339  17.218  25.196   0.740
 9915W        W82340  43.345   3.918  14.459
 9916W        W82341   4.824   0.788  10.936
 9917W        W82342  38.960  21.173  10.059
 9918W        W82343  30.525  38.821  12.045
 9919W        W82344  35.590  22.162  11.086
 9920W        W82345  25.075  43.407   4.290
 9921W        W82346  19.100  17.662  10.967
 9922W        W82347  11.351  20.199  14.853
 9923W        W82348  38.348  12.130   2.338
 9924W        W82349  23.515  14.647  10.894
 9925W        W82350  44.413  37.574   0.729
 9926W        W82351  27.563  29.974  12.355
 9927W        W82352  17.634  32.626   2.374
 9928W        W82353  44.757  14.821   0.793
 9929W        W82354  19.070   5.710  14.825
 9930W        W82355  39.916  15.208   4.274
 9931W        W82356   6.856  24.026  14.490
 9932W        W82357   8.360  37.497  12.526
 9933W        W82358  25.181  13.658   1.294
 9934W        W82359  12.823  32.553  11.581
 9935W        W82360  29.601  30.112   0.255
 9936W        W82361  43.498  30.454   1.407
 9937W        W82362  17.162  41.849   4.764
 9938W        W82363   1.246  18.637  13.824
 9939W        W82364  25.090  25.979   3.180
 9940W        W82365   4.359  37.348  11.373
 9941W        W82366  18.633  42.979   2.722
 9942W        W82367  25.637  16.762   1.762
 9943W        W82368  37.549   8.371  11.036
 9944W        W82369  23.646  27.482   1.908
 9945W        W82370  28.140  24.666   4.327
 9946W        W82371  30.587  24.167  11.983
 9947W        W82372  20.101  15.675   2.257
 9948W        W82373  44.414  41.391   1.863
 9949W        W82374  31.492  23.231  11.399
 9950W        W82375  10.163   3.267   0.403
 9951W        W82376  40.304   6.699   0.268
 9952W        W82377  41.966   8.207   4.778
 9953W        W82378  15.126  32.088   1.916
 9954W        W82379  13.770  22.667   2.407
 9955W        W82380  15.744  27.445   9.956
 9956W        W82381   7.351  19.652  13.853
 9957W        W82382  27.671  12.692   0.276
 9958W        W82383  11.345  34.539   4.192
 9959W        W82384  39.827  37.037   0.800
 9960W        W82385  44.353  32.539  10.546
 9961W        W82386  32.546  35.483  10.503
 9962W        W82387  26.202  37.555   2.242
 9963W        W82388   8.764   6.679  11.062
 9964W        W82389   1.464  35.899   0.483
 9965W        W82390  25.037  21.214  12.922
 9966W        W82391  15.166  13.128  12.380
 9967W        W82392  40.305   1.786   1.230
 9968W        W82393  16.595  26.038  10.911
 9969W        W82394  33.552  37.349   1.398
 9970W        W82395  40.017  14.305   1.892
 9971W        W82396  41.906   2.964  11.967
 9972W        W82397  22.536  13.757  10.606
 9973W        W82398   7.829  11.366  11.489
 9974W        W82399  26.175  37.979   2.273
 9975W        W82400  24.664  39.045   3.330
 9976W        W82401  44.381  26.657  10.503
 9977W        W82402  24.595  36.083   1.269
 9978W        W82403  40.028  11.202  12.062
 9979W        W82404  41.477   9.328  11.423
 9980W        W82405  11.154   3.919  11.991
 9981W        W82406  12.712  12.788   3.257
 9982W        W82407  43.502  40.447   4.258
 9983W        W82408  39.539  43.859   4.278
 9984W        W82409  22.010  11.257   2.300
 9985W        W82410  11.672  43.981   4.797
 9986W        W82411  27.624  39.953  13.466
 9987W        W82412  21.731  29.543  11.117
 9988W        W82413  20.628  44.873  12.946
 9989W        W82414  31.092  17.242  13.990
 9990W        W82415   7.711   0.361  14.500
 9991W        W82416  10.635  34.941  14.985
 9992W        W82417  13.229  31.023  10.596
 9993W        W82418  43.772  31.548   0.299
 9994W        W82419  19.639   2.807   1.439
 9995W        W82420  11.806  10.722  13.443
 9996W        W82421   3.319  14.216   1.264
 9997W        W82422  30.945  15.212  12.579
 9998W        W82423   1.350  33.028   0.339
 9999W        W82424  38.982  12.147  11.971
10000W        W82425   8.262  12.167   1.327
10001W        W82426  16.145  44.417  13.852
10002W        W82427  20.661   2.741   4.745
10003W        W82428  13.237  22.169  12.014
10004W        W82429  25.623  33.055   4.219
10005W        W82430   0.752  30.078  10.971
10006W        W82431  26.651  25.183  11.908
10007W        W82432  31.525  24.033   1.725
10008W        W82433   8.710  40.857   0.282
10009W        W82434  24.011  17.686  10.578
10010W        W82435   4.371  41.033  12.985
10011W        W82436  19.122  20.627   0.848
10012W        W82437   0.917  11.160   1.283
10013W        W82438  18.146  35.392  14.999
10014W        W82439  29.135  44.989   1.921
10015W        W82440  42.486   5.402  12.997
10016W        W82441   3.848   0.866  14.930
10017W        W82442  15.813  38.418  10.103
10018W        W82443   7.681   7.180  13.844
10019W        W82444   6.283   6.261   5.196
10020W        W82445   8.394  25.103   0.341
10021W        W82446  39.387  42.010  11.452
10022W        W82447   4.818  41.842   4.316
10023W        W82448   5.843  23.001  10.408
10024W        W82449   1.270  35.934  14.899
10025W        W82450   4.397  44.863   1.259
10026W        W82451   1.389  33.586  12.366
10027W        W82452  25.485   9.226  10.954
10028W        W82453  27.112   2.901  10.574
10029W        W82454  40.880  28.144   3.653
10030W        W82455  21.678  34.536  12.493
10031W        W82456  35.989  10.677   2.320
10032W        W82457  35.889  18.054  11.424
10033W        W82458   6.894   0.951  12.941
10034W        W82459  24.985  32.536  13.413
10035W        W82460  37.025  44.280   1.838
10036W        W82461  16.715  27.619   0.271
10037W        W82462  13.816  37.905  14.907
10038W        W82463  22.120  32.957  11.119
10039W        W82464  29.129  41.356  14.943
10040W        W82465  21.749  12.707  10.522
10041W        W82466  24.713  43.803   0.841
10042W        W82467  21.099  40.855  12.833
10043W        W82468  39.929   5.360   4.708
10044W        W82469  19.104  30.422   0.301
10045W        W82470  38.012  30.568   0.862
10046W        W82471  34.402  39.062  14.988
10047W        W82472  18.633  43.488  13.496
10048W        W82473  41.831  34.488  12.427
10049W        W82474  22.680  41.376  11.583
10050W        W82475  11.853   8.406   4.268
10051W        W82476  31.632   0.971  13.808
10052W        W82477  34.997  20.063   3.678
10053W        W82478   0.308   3.722  14.023
10054W        W82479   7.192  15.751   1.920
10055W        W82480  35.950  43.932  11.484
10056W        W82481  22.155  12.724  13.791
10057W        W82482  10.337  33.415  12.418
10058W        W82483  36.434  42.978   1.259
10059W        W82484  29.019  23.104  12.994
10060W        W82485  28.988  38.459  13.465
10061W        W82486  10.849  26.145  13.331
10062W        W82487  27.998  27.491   0.253
10063W        W82488  25.065  35.890   4.346
10064W        W82489  34.468  32.083  14.000
10065W        W82490   8.895   2.302  10.606
10066W        W82491   1.386  29.449  14.501
10067W        W82492  12.170  43.419  13.811
10068W        W82493  38.445   1.326  11.389
10069W        W82494  15.297  41.385  10.563
10070W        W82495  17.702  17.795   4.699
10071W        W82496  12.730  14.327  12.927
10072W        W82497  11.191  32.443  13.039
10073W        W82498   7.190   1.821   3.659
10074W        W82499   8.164  41.849  12.839
10075W        W82500  13.145  33.587   3.866
10076W        W82501  36.507  39.346   0.870
10077W        W82502  28.592  12.296  10.598
10078W        W82503  44.821  30.986   2.664
10079W        W82504  30.625  13.843   0.399
10080W        W82505  26.620  24.707   4.638
10081W        W82506  28.565  34.429   4.348
10082W        W82507  16.154  20.650  12.077
10083W        W82508   0.437  32.015  12.948
10084W        W82509  18.641  28.676  13.491
10085W        W82510   7.813  11.176   1.717
10086W        W82511  12.648  13.259   1.732
10087W        W82512  21.645  17.306  13.436
10088W        W82513   6.300   4.258  14.908
10089W        W82514  22.573  43.452   4.666
10090W        W82515  19.276  26.178  13.037
10091W        W82516   7.863  18.718  14.407
10092W        W82517   1.472   3.374   2.185
10093W        W82518  33.937  38.883  14.964
10094W        W82519  19.546  17.729   4.114
10095W        W82520   5.900  44.448  12.948
10096W        W82521   4.885  41.885  10.438
10097W        W82522   3.403  34.562  13.952
10098W        W82523  19.667   3.951   2.740
10099W        W82524  31.447  34.888  14.806
10100W        W82525  37.970  27.031   0.434
10101W        W82526  30.090  28.108   1.896
10102W        W82527   1.307  11.310  14.841
10103W        W82528  34.441  40.318  14.461
10104W        W82529  15.297   9.775   1.822
10105W        W82530  38.059  20.659   4.152
10106W        W82531   3.763   4.832   2.823
10107W        W82532  15.322  28.938   3.341
10108W        W82533  33.531   0.397  14.948
10109W        W82534   2.837  13.747   2.765
10110W        W82535   3.830  22.039  14.373
10111W        W82536  14.185  29.013   3.343
10112W        W82537  31.988  22.668   1.716
10113W        W82538  25.580  26.168   4.146
10114W        W82539  20.182  42.920   1.424
10115W        W82540  30.129  19.178   0.753
10116W        W82541   0.775  11.700   3.152
10117W        W82542  15.145   5.215   4.678
10118W        W82543  14.295  40.891   3.369
10119W        W82544  23.078  12.752   4.287
10120W        W82545  13.790   0.973   4.605
10121W        W82546  40.387   9.221   0.307
10122W        W82547  19.106  32.046  14.436
10123W        W82548  29.172  26.207  12.865
10124W        W82549  32.124  25.521  13.325
10125W        W82550   2.912   8.253  12.469
10126W        W82551   2.964   0.853  14.458
10127W        W82552  29.035  26.036  10.498
10128W        W82553  10.194  38.506   3.698
10129W        W82554  31.409   3.844  13.828
10130W        W82555  38.863  39.501  13.046
10131W        W82556  35.545  35.507   1.361
10132W        W82557   2.446  18.189  11.004
10133W        W82558  31.005   6.424   3.318
10134W        W82559  28.627   7.812   2.769
10135W        W82560  20.666  14.122   1.362
10136W        W82561  12.289  34.893  11.114
10137W        W82562  35.035  25.643  11.127
10138W        W82563  27.561  12.275  10.573
10139W        W82564  28.558  37.499  11.857
10140W        W82565  22.181  41.381  14.498
10141W        W82566  30.599   3.887   1.245
10142W        W82567  12.843  37.960   1.252
10143W        W82568  30.938   0.961   1.925
10144W        W82569  29.046   1.313  11.114
10145W        W82570   9.862   8.765   3.776
10146W        W82571  23.593  43.797  11.538
10147W        W82572   1.351  39.327   1.446
10148W        W82573  39.900  17.089  10.592
10149W        W82574   5.211  21.545  11.443
10150W        W82575  42.031  40.417   2.233
10151W        W82576   7.862  20.571  13.358
10152W        W82577   9.763  11.683  11.097
10153W        W82578  15.603   9.193   3.291
10154W        W82579  29.658  26.606  12.369
10155W        W82580  13.789  21.544   0.866
10156W        W82581  17.652  43.364  13.013
10157W        W82582  18.081   9.791  13.516
10158W        W82583  24.064  41.798  11.519
10159W        W82584  26.013  19.281  12.545
10160W        W82585   4.219  21.527  10.412
10161W        W82586  44.967  30.049  12.826
10162W        W82587   4.828   3.758  14.315
10163W        W82588  34.441   3.262   3.662
10164W        W82589   6.696  34.411   3.655
10165W        W82590  16.629  31.478  11.996
10166W        W82591  36.453  30.133  12.428
10167W        W82592  18.153   4.871   3.732
10168W        W82593   7.792  18.179  12.352
10169W        W82594  38.357   0.919  10.609
10170W        W82595  28.045   1.478   2.280
10171W        W82596  11.767   3.951  10.613
10172W        W82597  25.604  23.221   0.826
10173W        W82598  20.146   8.665   2.384
10174W        W82599  25.636  29.997   4.184
10175W        W82600  22.712  36.002  10.064
10176W        W82601  31.013  28.055  14.448
10177W        W82602   4.858  24.644   2.396
10178W        W82603   5.340   2.308  12.440
10179W        W82604   6.258   4.372  13.339
10180W        W82605  13.722  40.055  14.440
10181W        W82606   0.849  28.967  14.863
10182W        W82607   4.832  14.622  11.927
10183W        W82608  34.905  19.253   1.312
10184W        W82609  36.847  21.552   1.890
10185W        W82610  14.773  18.134  11.002
10186W        W82611  30.435  42.895   2.302
10187W        W82612  23.599   6.904   2.782
10188W        W82613   4.329  16.709  12.539
10189W        W82614  33.033  11.786  13.989
10190W        W82615  19.551  23.086  10.503
10191W        W82616  14.228   4.912   4.270
10192W        W82617  42.832  23.119  11.925
10193W        W82618  42.840  43.414   3.146
10194W        W82619  36.997   7.745   3.823
10195W        W82620   7.176  12.222  13.338
10196W        W82621   8.869  20.756  12.544
10197W        W82622   1.367  15.710  13.021
10198W        W82623  30.473  22.197   4.275
10199W        W82624  35.500  24.129   2.250
10200W        W82625  41.463   8.192  14.943
10201W        W82626  21.133  25.488  11.039
10202W        W82627   3.329  27.184  12.442
10203W        W82628  26.626  14.317  12.023
10204W        W82629  30.963  30.933   4.837
10205W        W82630  39.560   2.784   1.361
10206W        W82631  36.009  22.135  10.986
10207W        W82632  14.231   8.368  12.094
10208W        W82633  32.608  35.934   4.189
10209W        W82634  38.897  38.007   0.754
10210W        W82635  34.374  14.132   4.129
10211W        W82636  31.624  33.072  12.067
10212W        W82637  39.993  41.817   3.154
10213W        W82638  20.758   5.888  12.886
10214W        W82639  11.185   8.264   2.326
10215W        W82640  37.540   6.895  10.129
10216W        W82641  22.557  41.306   4.609
10217W        W82642  30.463   1.454   3.276
10218W        W82643  42.343  13.695   4.599
10219W        W82644  33.995  42.440   3.659
10220W        W82645  42.975  13.260   0.254
10221W        W82646  28.002  26.068  11.498
10222W        W82647   2.456  31.016   2.724
10223W        W82648  34.443  40.829   2.215
10224W        W82649  31.142   7.304  13.425
10225W        W82650  44.899  30.433   0.247
10226W        W82651   4.759  43.803   3.810
10227W        W82652   0.807  17.195  13.802
10228W        W82653  31.020  42.815   9.955
10229W        W82654   3.226  37.574   4.147
10230W        W82655  31.971  25.675   5.155
10231W        W82656   2.289   0.775  14.288
10232W        W82657  10.217  26.094  10.910
10233W        W82658  30.650  35.026  14.388
10234W        W82659   5.363  26.127   1.708
10235W        W82660  24.491  44.773   4.256
10236W        W82661  32.636  34.491  14.299
10237W        W82662  33.582  20.665  14.421
10238W        W82663   4.828   7.394  14.487
10239W        W82664  23.689  10.259   0.929
10240W        W82665  35.077  24.993  10.160
10241W        W82666  14.258  19.658   4.700
10242W        W82667   0.380   8.222   0.272
10243W        W82668  19.689  26.516  14.327
10244W        W82669  32.921  14.183  13.029
10245W        W82670   8.773  38.985   1.745
10246W        W82671  44.780  17.575   2.348
10247W        W82672  21.102   5.913   4.712
10248W        W82673  36.852   6.824   4.318
10249W        W82674  23.515   1.475  14.402
10250W        W82675  12.173  14.182  12.374
10251W        W82676  36.539  25.637   0.349
10252W        W82677  43.389  26.074   4.720
10253W        W82678  32.137  35.436   4.669
10254W        W82679  17.209  41.350  11.894
10255W        W82680  16.632  12.323   3.262
10256W        W82681  24.033  44.011  11.569
10257W        W82682  27.527  12.846   2.375
10258W        W82683  44.409  20.587  13.447
10259W        W82684  16.670  27.645  12.063
10260W        W82685  40.479  41.951   3.301
10261W        W82686  11.225  26.153  11.579
10262W        W82687  44.945  15.601   2.214
10263W        W82688  10.675  27.449   1.247
10264W        W82689  10.854  40.417   4.717
10265W        W82690  26.498  41.313  14.371
10266W        W82691   2.302  16.233  12.533
10267W        W82692  38.850  41.343  11.978
10268W        W82693   1.394  25.599  10.509
10269W        W82694  25.203  15.145   3.203
10270W        W82695  30.934   8.718  13.453
10271W        W82696  32.554  23.205   0.405
10272W        W82697   1.746   9.338  12.073
10273W        W82698   9.715  26.617   0.293
10274W        W82699  17.266  20.637   1.776
10275W        W82700   4.343  19.154   1.297
10276W        W82701  37.916  30.045   2.279
10277W        W82702   6.398   9.757   1.336
10278W        W82703  18.753  44.935  12.464
10279W        W82704  17.169  14.283   3.631
10280W        W82705  26.001   8.748  14.001
10281W        W82706  15.805  32.909  12.462
10282W        W82707  30.140  28.454  14.377
10283W        W82708  31.497  10.378   1.430
10284W        W82709  16.149  20.040   3.339
10285W        W82710  29.629  10.809  11.998
10286W        W82711  38.512  15.173  12.556
10287W        W82712  18.764  23.167   3.712
10288W        W82713  22.012   4.348   2.771
10289W        W82714  27.513  37.908   0.291
10290W        W82715   6.293  36.549  14.831
10291W        W82716  17.292   0.462  13.014
10292W        W82717  44.829  31.994   0.252
10293W        W82718  10.236  25.491   3.198
10294W        W82719   7.740  43.484   2.293
10295W        W82720  12.204  34.891   2.700
10296W        W82721  26.977  12.819  11.572
10297W        W82722  31.988   9.350   3.349
10298W        W82723  33.962   8.332   2.322
10299W        W82724  14.835  41.951  11.487
10300W        W82725  18.596  19.563  14.397
10301W        W82726  21.081  10.877   2.799
10302W        W82727  21.092   9.222   1.763
10303W        W82728   3.442   9.317   0.262
10304W        W82729  20.130  38.491  14.995
10305W        W82730  35.944  25.584   3.841
10306W        W82731  19.586   2.958  13.827
10307W        W82732  29.434  19.584   1.896
10308W        W82733  33.579  39.314   3.745
10309W        W82734   3.344  28.474   4.327
10310W        W82735  15.265  43.996  13.845
10311W        W82736  38.442  22.010   4.692
10312W        W82737  25.011  37.081   2.832
10313W        W82738  39.873  21.548  10.589
10314W        W82739   8.731  37.561   2.820
10315W        W82740  27.057  14.339   3.790
10316W        W82741  15.793  42.395  14.484
10317W        W82742  10.690   6.367   4.745
10318W        W82743  36.384   4.344   0.828
10319W        W82744  21.664  29.145   4.192
10320W        W82745  13.311  44.327   0.445
10321W        W82746  37.348  18.266  10.151
10322W        W82747   4.226  25.490   2.326
10323W        W82748  42.460   5.213  11.448
10324W        W82749  32.605  19.613   5.212
10325W        W82750  21.133  35.512  13.525
10326W        W82751  14.296  28.599  11.593
10327W        W82752  23.669  32.605  12.537
10328W        W82753   6.206  23.186   4.724
10329W        W82754  30.420  29.028  12.932
10330W        W82755  22.678  42.465   0.286
10331W        W82756   7.726  13.721   0.824
10332W        W82757  36.582  20.763  10.569
10333W        W82758  19.673  34.017  14.761
10334W        W82759  22.545   2.905   2.364
10335W        W82760  24.060  23.191   0.480
10336W        W82761  10.160   7.718   0.341
10337W        W82762  35.076  26.996   3.665
10338W        W82763  25.095  19.049   4.140
10339W        W82764  21.582  35.066   2.393
10340W        W82765  17.635  10.749   4.253
10341W        W82766  41.532   4.386  12.918
10342W        W82767  11.738  30.936   2.250
10343W        W82768  27.101   8.732   2.757
10344W        W82769   8.377  20.700   4.276
10345W        W82770  25.124   0.940  10.921
10346W        W82771  34.914  39.034   0.936
10347W        W82772  36.954  19.181  14.381
10348W        W82773  37.908   9.652   3.256
10349W        W82774  17.603  20.670  13.541
10350W        W82775  35.534   8.814   1.384
10351W        W82776  19.759  44.383   0.359
10352W        W82777  10.314   2.295  14.772
10353W        W82778  33.443  38.015  13.449
10354W        W82779  17.174  44.936  11.973
10355W        W82780  42.807  42.886  13.308
10356W        W82781  31.519  34.539  11.430
10357W        W82782  36.417  24.648  13.042
10358W        W82783  24.147   0.270   1.275
10359W        W82784  30.414  41.029   2.396
10360W        W82785  40.039   1.814  10.434
10361W        W82786  18.721  34.992   4.199
10362W        W82787  36.975  24.495  13.438
10363W        W82788   2.344   6.922  14.976
10364W        W82789  37.556  21.024   5.100
10365W        W82790  16.644  20.124   2.801
10366W        W82791  34.039  23.535   0.740
10367W        W82792  16.799  40.034  12.876
10368W        W82793  10.293  20.113   1.806
10369W        W82794  38.996  16.163   9.960
10370W        W82795  37.498  30.646  13.956
10371W        W82796  27.039   2.342   0.385
10372W        W82797  35.520  38.395   2.682
10373W        W82798  41.021  23.685  13.463
10374W        W82799  44.932  27.021   2.197
10375W        W82800   2.935  31.623   4.759
10376W        W82801  15.704  42.996   4.228
10377W        W82802  44.462  26.508   0.868
10378W        W82803   1.413  11.639   2.801
10379W        W82804  10.287  37.393   2.856
10380W        W82805  30.991  14.626  12.892
10381W        W82806  22.037   0.252  13.897
10382W        W82807  38.927   3.796  10.436
10383W        W82808   1.470  28.488   2.222
10384W        W82809  10.812  34.041   4.670
10385W        W82810  22.598  20.181   4.822
10386W        W82811  10.226  36.919  12.465
10387W        W82812  40.497  24.181   1.439
10388W        W82813  37.876   2.867   4.716
10389W        W82814  42.355  30.933  10.961
10390W        W82815  31.529  31.476  11.566
10391W        W82816  39.987   0.957   3.729
10392W        W82817  28.584  19.126  12.850
10393W        W82818  19.626  12.707  12.043
10394W        W82819   1.917   1.789  10.432
10395W        W82820  15.173   1.276   4.125
10396W        W82821  14.721   7.189   3.149
10397W        W82822  37.492  15.247   3.729
10398W        W82823  10.237  26.070  13.502
10399W        W82824  22.240  15.322  13.460
10400W        W82825   2.757  33.481  14.418
10401W        W82826   0.803  17.731   0.901
10402W        W82827  11.298   2.938  10.953
10403W        W82828  36.479  23.654   1.736
10404W        W82829   0.465  19.099   3.865
10405W        W82830   2.881  17.253  13.802
10406W        W82831  33.566  35.483  10.615
10407W        W82832   0.893   4.861   3.345
10408W        W82833  18.650  19.057  14.996
10409W        W82834  19.127  30.961  11.604
10410W        W82835  12.283  20.678  11.018
10411W        W82836  19.273   8.845  10.568
10412W        W82837  30.582   9.876   2.364
10413W        W82838  27.601  41.892   4.128
10414W        W82839  44.862  40.906  14.839
10415W        W82840  40.991  24.100   0.751
10416W        W82841   5.260  17.586  11.942
10417W        W82842  15.596  22.712  10.459
10418W        W82843  24.621  24.537   0.313
10419W        W82844   2.304  31.993   4.205
10420W        W82845   6.361  29.100   2.256
10421W        W82846  40.417  33.472  12.529
10422W        W82847  43.831  24.210  14.497
10423W        W82848  17.588  13.259  14.829
10424W        W82849  33.469  40.969   2.367
10425W        W82850  39.002   1.350   1.318
10426W        W82851  15.769  36.589  12.928
10427W        W82852  40.842   1.833   2.365
10428W        W82853  32.940  28.976  11.506
10429W        W82854  21.666   5.746  12.883
10430W        W82855  35.022   7.249  11.400
10431W        W82856  15.788  29.991   1.216
10432W        W82857  15.736   0.317  14.447
10433W        W82858  34.546   8.281   1.702
10434W        W82859  14.688  44.852  11.582
10435W        W82860  40.908  34.020  11.501
10436W        W82861   4.888  12.248  13.511
10437W        W82862   6.291   7.366  10.151
10438W        W82863  26.065  36.592  11.553
10439W        W82864   3.270  11.630   0.296
10440W        W82865  29.426  22.687  14.424
10441W        W82866  41.962  40.420  12.970
10442W        W82867  44.307  11.681  11.492
10443W        W82868  31.954  17.791  10.517
10444W        W82869  15.780  34.549  14.389
10445W        W82870  34.116  22.138   0.483
10446W        W82871  36.099  43.937  12.548
10447W        W82872  25.218   4.402  11.019
10448W        W82873  13.833   1.872   2.185
10449W        W82874  42.809   0.823  11.512
10450W        W82875  38.923  42.413  11.553
10451W        W82876   8.332  44.827  13.029
10452W        W82877  26.057  30.965   0.884
10453W        W82878  26.683  30.124   5.194
10454W        W82879  30.467  23.226  13.475
10455W        W82880  18.275  11.370   4.807
10456W        W82881  40.397  26.015  14.334
10457W        W82882  21.195   8.680   3.640
10458W        W82883  42.469  30.426  13.313
10459W        W82884  29.174  21.552   5.770
10460W        W82885  30.101  32.132  12.541
10461W        W82886   5.297  42.812   2.854
10462W        W82887   4.240  25.685  10.889
10463W        W82888  30.097  18.719   4.655
10464W        W82889  19.596  24.634  14.348
10465W        W82890   9.231   7.176   1.412
10466W        W82891  21.101  35.902   1.423
10467W        W82892  21.569  20.235  12.860
10468W        W82893   8.788  26.052  11.566
10469W        W82894  30.078  30.484  13.447
10470W        W82895  12.660  42.386   2.880
10471W        W82896  36.521   6.404   2.410
10472W        W82897  23.052  44.321  13.037
10473W        W82898  25.578  31.995   5.142
10474W        W82899  35.919   3.367  14.818
10475W        W82900  10.324  33.464   0.313
10476W        W82901  12.290   5.915  11.477
10477W        W82902  11.304   5.323  12.903
10478W        W82903  44.916  38.502  13.828
10479W        W82904  23.022  33.452   4.179
10480W        W82905  18.662   3.414  10.429
10481W        W82906  41.029   4.757  12.035
10482W        W82907  17.147  30.156   2.359
10483W        W82908  23.209   0.809  11.393
10484W        W82909  43.968   0.833  14.884
10485W        W82910  15.670  38.926   3.260
10486W        W82911  29.019   7.184   2.754
10487W        W82912  13.252  27.127  11.444
10488W        W82913   8.328  13.744  10.497
10489W        W82914   3.238  28.024   1.749
10490W        W82915  26.659  41.951   1.407
10491W        W82916  27.172   9.385  14.334
10492W        W82917  25.616  26.157  14.949
10493W        W82918   7.313  21.615   4.133
10494W        W82919  14.645  15.675  11.392
10495W        W82920  14.737   2.451   1.877
10496W        W82921  22.167  20.164  10.428
10497W        W82922  14.607  18.712   4.774
10498W        W82923  39.888  34.034   3.752
10499W        W82924  17.571  15.581  13.880
10500W        W82925  26.055   1.751  13.432
10501W        W82926  13.262  32.957   1.304
10502W        W82927   1.252   2.392   2.831
10503W        W82928  42.926  41.953   4.617
10504W        W82929  43.375  28.160  11.553
10505W        W82930  44.876  21.174   9.998
10506W        W82931  42.416   2.414   1.712
10507W        W82932  32.634  24.141   3.775
10508W        W82933  21.558  13.185  11.058
10509W        W82934   1.309  25.026  11.387
10510W        W82935  23.565   4.250  11.120
10511W        W82936  30.945  18.644  14.897
10512W        W82937  22.678  28.661  12.013
10513W        W82938   2.824  11.184   1.225
10514W        W82939  21.219   4.745   0.854
10515W        W82940   6.753  13.657  13.880
10516W        W82941  24.162  34.971  12.876
10517W        W82942  12.843   5.265  12.518
10518W        W82943  40.540   9.841   3.826
10519W        W82944  16.690  34.518   1.443
10520W        W82945   7.270   6.333  12.077
10521W        W82946   6.328  37.389  11.611
10522W        W82947  10.734   0.342  13.406
10523W        W82948  37.960  21.130  13.804
10524W        W82949  23.050  41.979   2.238
10525W        W82950  25.695  36.958   3.732
10526W        W82951  39.017  26.104  11.890
10527W        W82952  34.423  26.562   4.155
10528W        W82953  23.705  23.225  11.559
10529W        W82954  42.890  20.089  12.005
10530W        W82955  43.435  36.052  14.846
10531W        W82956   5.873  32.619   3.828
10532W        W82957  28.489   7.215   2.734
10533W        W82958  10.691  27.050   3.785
10534W        W82959   3.437  26.135   0.746
10535W        W82960   2.299  36.383  14.408
10536W        W82961   9.268  22.686  11.864
10537W        W82962  42.813   2.772  12.369
10538W        W82963  31.626  17.714  10.554
10539W        W82964  16.168  44.301  11.564
10540W        W82965  31.021   2.252   2.184
10541W        W82966   9.752   6.266  11.125
10542W        W82967   4.775   4.923  12.079
10543W        W82968  31.010  25.048  10.087
10544W        W82969  41.794  14.304   2.277
10545W        W82970  26.611  32.469  13.356
10546W        W82971  24.072  16.097   1.300
10547W        W82972  24.517  10.202   0.758
10548W        W82973   3.799  28.504  14.455
10549W        W82974  33.937  17.728  13.957
10550W        W82975  35.966   9.392   4.671
10551W        W82976  18.070   2.830  11.385
10552W        W82977  31.586   8.277  10.615
10553W        W82978   0.340  31.608   3.242
10554W        W82979  12.833   2.344  12.859
10555W        W82980  10.200   9.722   1.850
10556W        W82981  11.257   8.748  10.990
10557W        W82982   2.814  30.952  10.424
10558W        W82983  42.399  28.510  14.984
10559W        W82984  24.031  12.833   4.141
10560W        W82985  11.128  39.917  13.488
10561W        W82986   0.873  33.906   4.128
10562W        W82987  42.497  23.070  12.013
10563W        W82988  11.698  24.722   0.246
10564W        W82989  18.784  43.901  11.985
10565W        W82990  17.736   6.775  10.979
10566W        W82991   0.341  25.544  14.441
10567W        W82992  34.568  33.018   0.325
10568W        W82993  11.858  40.532  11.017
10569W        W82994  15.273  23.144   4.121
10570W        W82995  25.995   5.745  11.929
10571W        W82996   3.840  23.525   1.865
10572W        W82997  44.808  25.140  13.364
10573W        W82998   2.413  27.978   3.172
10574W        W82999  34.119   7.695  11.576
10575W        W83000   0.885  29.142  10.585
10576W        W83001   2.940  16.795   2.877
10577W        W83002  15.694  17.565  11.939
10578W        W83003  43.505  20.733  10.519
10579W        W83004   6.345   2.227  14.915
10580W        W83005  19.617  29.935  13.802
10581W        W83006  13.639  10.238  10.910
10582W        W83007  23.081  32.615  13.447
10583W        W83008  30.979  30.418   4.740
10584W        W83009  22.573   2.456   0.364
10585W        W83010  22.723  41.923   2.286
10586W        W83011  39.813  43.855  11.104
10587W        W83012  14.626   5.857  11.108
10588W        W83013  24.044  28.630   0.751
10589W        W83014   6.335   5.361   4.300
10590W        W83015   7.386  12.705  12.410
10591W        W83016  25.627  12.170  14.996
10592W        W83017  10.644  43.879   4.708
10593W        W83018  38.490  17.576   4.708
10594W        W83019  38.557   1.816  10.460
10595W        W83020  16.148   6.773  11.392
10596W        W83021  39.982   2.244  14.298
10597W        W83022  28.129   8.864   2.902
10598W        W83023  30.122  20.587  12.413
10599W        W83024   3.299  28.130   2.879
10600W        W83025  39.518  33.091   4.134
10601W        W83026   3.430   4.217  13.047
10602W        W83027   9.378   9.649  11.109
10603W        W83028  16.248  22.739  10.529
10604W        W83029  44.762   6.731   4.296
10605W        W83030  23.085  13.800  13.926
10606W        W83031   0.422  18.578  11.972
10607W        W83032  37.012  12.824   3.637
10608W        W83033  40.396  16.120   0.364
10609W        W83034  33.474  20.692  10.424
10610W        W83035  35.400  18.199  13.448
10611W        W83036  22.696  22.099  13.333
10612W        W83037  22.543  15.675   3.824
10613W        W83038   5.768  32.060  14.415
10614W        W83039  10.833  42.920   3.780
10615W        W83040  25.175  28.033  14.425
10616W        W83041   0.947  14.611   0.385
10617W        W83042  25.132  20.747   3.655
10618W        W83043  25.474   2.771  14.471
10619W        W83044   5.268  42.377  14.784
10620W        W83045  18.590  23.510  14.018
10621W        W83046  43.885   9.261   0.743
10622W        W83047  13.742  13.111   0.853
10623W        W83048   2.424  43.888   2.183
10624W        W83049  43.408  39.877  12.522
10625W        W83050  26.520  31.107   0.332
10626W        W83051  13.179   0.754  13.478
10627W        W83052  39.328   9.837   0.875
10628W        W83053  24.139  22.213   4.264
10629W        W83054  22.581  37.986  14.940
10630W        W83055  22.167  24.601   2.705
10631W        W83056  26.162   2.443  10.634
10632W        W83057  20.256  26.659  13.808
10633W        W83058  33.584  31.591   2.198
10634W        W83059  16.239   0.808   2.208
10635W        W83060  23.002   4.296  12.033
10636W        W83061   9.150  15.643  11.094
10637W        W83062  42.936  24.194  11.902
10638W        W83063  39.441  30.164   1.238
10639W        W83064  11.327  19.189  12.387
10640W        W83065   6.195  29.137  11.436
10641W        W83066  44.867  12.255   4.342
10642W        W83067  30.055   6.842  12.364
10643W        W83068   4.733  12.736   3.354
10644W        W83069  30.561  31.936  13.915
10645W        W83070  33.881  33.070   3.332
10646W        W83071   3.755   1.743   1.364
10647W        W83072  39.926  33.966   0.801
10648W        W83073  14.114  31.153   5.237
10649W        W83074  25.014  19.144  14.472
10650W        W83075  34.034  42.438  12.495
10651W        W83076  43.793  16.603   0.463
10652W        W83077  25.539  26.666  14.937
10653W        W83078  17.582   0.452   4.259
10654W        W83079   2.832  28.974   2.416
10655W        W83080  37.517  30.603  10.530
10656W        W83081   0.798   8.852  13.962
10657W        W83082  11.304  11.212   3.306
10658W        W83083   5.771  24.571  13.908
10659W        W83084  22.559   6.376  12.437
10660W        W83085  38.363  42.775   3.710
10661W        W83086  18.094  40.022   3.311
10662W        W83087  17.769   5.277   1.813
10663W        W83088  14.733  28.637   4.788
10664W        W83089  39.019  34.906   2.250
10665W        W83090  20.121  25.543   0.858
10666W        W83091   0.975   6.781   2.335
10667W        W83092  33.088   7.888   3.796
10668W        W83093  40.907  42.817  10.471
10669W        W83094  16.737  39.462  13.354
10670W        W83095  41.509  16.214   3.859
10671W        W83096  31.499  38.352  10.570
10672W        W83097   4.277  30.593   0.394
10673W        W83098  38.051  11.303  11.898
10674W        W83099  23.725  32.023   9.655
10675W        W83100   8.191  30.020   4.664
10676W        W83101  12.120  26.633   1.261
10677W        W83102  34.108  30.646   0.327
10678W        W83103  36.554   6.740  13.888
10679W        W83104  12.766  23.013  12.990
10680W        W83105  27.988  26.041   3.666
10681W        W83106   8.343  39.327   3.820
10682W        W83107  16.607   7.862  11.914
10683W        W83108  30.981  31.005  10.613
10684W        W83109  23.510  41.312  13.793
10685W        W83110  11.134  32.539   3.716
10686W        W83111  20.576  17.307   4.298
10687W        W83112  23.087  44.936   3.289
10688W        W83113  41.478   3.744  12.353
10689W        W83114  41.512  27.952  12.904
10690W        W83115  30.541  14.774  10.578
10691W        W83116  29.055  13.603  12.871
10692W        W83117   7.174   9.368   2.365
10693W        W83118  44.451  12.250   3.213
10694W        W83119  31.063  11.155  10.985
10695W        W83120   9.210  14.803  14.488
10696W        W83121  18.737  14.815   2.792
10697W        W83122  30.467  40.866  12.548
10698W        W83123  36.430   2.328  12.516
10699W        W83124  16.688  19.603   1.894
10700W        W83125  23.642  27.044  13.386
10701W        W83126   1.793  39.957   4.711
10702W        W83127  17.102  29.922  14.918
10703W        W83128  36.883  30.634   2.726
10704W        W83129  28.679  18.212  13.064
10705W        W83130  34.471   1.459  11.956
10706W        W83131  43.416   9.192  13.873
10707W        W83132   0.949   9.691   1.347
10708W        W83133  42.436  16.302   2.757
10709W        W83134  44.921  43.308   0.408
10710W        W83135  31.103  19.626  10.569
10711W        W83136  27.976  10.806   1.371
10712W        W83137  12.215  27.660   4.325
10713W        W83138  13.332  44.833   2.883
10714W        W83139  27.127  34.394   2.883
10715W        W83140  12.123  29.549  13.991
10716W        W83141  30.986   6.758   2.774
10717W        W83142  26.562  35.495   3.693
10718W        W83143   1.841   2.241  11.090
10719W        W83144   0.957  29.540   3.806
10720W        W83145  23.682  19.651   1.827
10721W        W83146   7.387  40.879   3.871
10722W        W83147   8.306  30.924   2.808
10723W        W83148   4.435  11.164  12.034
10724W        W83149   4.301   6.352  13.916
10725W        W83150  37.578  23.206   3.380
10726W        W83151  43.925   8.768   0.416
10727W        W83152  37.858   1.285  11.905
10728W        W83153  32.393  10.205  10.051
10729W        W83154  37.943  12.140  10.509
10730W        W83155   7.291  15.171  13.339
10731W        W83156  16.664   6.419  10.589
10732W        W83157  28.177   7.323  12.381
10733W        W83158   9.681  21.031  11.426
10734W        W83159  31.911   8.833  11.900
10735W        W83160  33.008  35.871   3.288
10736W        W83161  12.285  32.041  12.073
10737W        W83162  35.933   5.925   0.415
10738W        W83163  20.649   5.810   4.125
10739W        W83164  17.629  30.420  12.527
10740W        W83165  23.665  42.371   4.763
10741W        W83166   7.244  24.208   2.731
10742W        W83167   2.950  44.756   3.732
10743W        W83168  42.498  28.183  11.897
10744W        W83169  21.079  24.069   4.341
10745W        W83170   6.774  23.231  13.365
10746W        W83171  35.443  11.661   4.702
10747W        W83172   4.715  29.015   3.691
10748W        W83173  43.003  14.704   1.321
10749W        W83174  41.387  13.328   4.732
10750W        W83175  25.211  24.082  12.556
10751W        W83176  27.166  28.013  11.983
10752W        W83177  16.650  34.112  14.858
10753W        W83178  23.053   9.783  12.847
10754W        W83179  32.054  14.678  12.051
10755W        W83180  33.526   3.836   2.305
10756W        W83181  43.500  23.199   2.379
10757W        W83182   3.267  12.848   1.246
10758W        W83183  26.187  14.782   1.787
10759W        W83184  18.076  30.499  11.897
10760W        W83185  10.874  32.603   1.442
10761W        W83186  27.604  41.446  13.953
10762W        W83187  23.217  35.980   0.837
10763W        W83188  17.727   7.398   4.752
10764W        W83189  31.506  35.457   3.190
10765W        W83190  36.918   1.973  11.448
10766W        W83191  24.056   1.784   3.866
10767W        W83192  44.785  10.193  13.342
10768W        W83193  40.910   2.454  13.001
10769W        W83194  20.700  23.126  12.345
10770W        W83195  27.107  40.035   9.989
10771W        W83196  13.164   8.857   1.846
10772W        W83197   6.898  11.769   1.363
10773W        W83198   7.265   8.750  13.968
10774W        W83199  34.104   5.309  14.484
10775W        W83200  15.687   5.393  10.571
10776W        W83201  38.896  26.566   5.259
10777W        W83202  25.637  28.951   2.347
10778W        W83203  15.745  37.037   2.701
10779W        W83204   9.726  14.144  13.913
10780W        W83205  44.309  32.510  14.472
10781W        W83206  31.107  29.930   1.345
10782W        W83207   5.861   8.383   3.345
10783W        W83208  26.986  24.684   4.797
10784W        W83209   4.396   6.209   1.422
10785W        W83210  33.875  22.029  12.548
10786W        W83211  15.758  11.779  10.415
10787W        W83212  22.551  21.665   3.250
10788W        W83213  31.615  19.095   4.284
10789W        W83214  42.427  33.986   3.354
10790W        W83215  28.482  23.717   0.806
10791W        W83216   5.876  21.228   0.962
10792W        W83217  22.541  25.092  13.951
10793W        W83218  31.639  34.904  13.505
10794W        W83219  35.071  25.099   4.288
10795W        W83220  26.491  30.551  11.563
10796W        W83221  39.320  16.080  14.510
10797W        W83222  28.098   8.768  10.640
10798W        W83223  23.000  31.552  14.855
10799W        W83224  16.740   3.358   3.240
10800W        W83225   2.234  28.593   4.754
10801W        W83226  16.685   3.846   3.702
10802W        W83227  35.030  15.666   3.829
10803W        W83228   5.310  36.046  13.414
10804W        W83229   5.271  16.143   3.216
10805W        W83230  12.622  13.824  11.095
10806W        W83231  24.615  33.568   1.362
10807W        W83232  43.861   0.383  10.460
10808W        W83233   6.228  39.515   4.212
10809W        W83234  25.041  14.693   1.741
10810W        W83235  31.947  35.093   5.112
10811W        W83236  13.732  28.180  10.446
10812W        W83237  17.161  23.564   2.285
10813W        W83238  39.418   0.303   4.181
10814W        W83239   4.260  37.580   4.689
10815W        W83240  19.548  43.954  14.769
10816W        W83241  18.552  23.004   4.827
10817W        W83242   0.966  36.469   2.365
10818W        W83243  43.308  24.156  11.071
10819W        W83244   3.813  43.787  14.895
10820W        W83245   4.705  33.494  13.845
10821W        W83246  12.622  43.418   1.435
10822W        W83247  27.112  43.991  14.423
10823W        W83248  16.223  11.683  14.309
10824W        W83249   0.953  25.163  10.064
10825W        W83250  36.032  35.433   4.140
10826W        W83251   6.305  42.418   1.900
10827W        W83252   7.225  14.747  12.398
10828W        W83253  28.506  30.562  13.407
10829W        W83254  10.345  30.154  11.444
10830W        W83255  42.434  23.600  14.005
10831W        W83256  43.786  31.563  13.845
10832W        W83257  29.560  29.491   3.308
10833W        W83258  37.415  22.549   2.390
10834W        W83259   7.735  23.056  14.299
10835W        W83260  12.213  28.020   4.601
10836W        W83261  28.964  22.569  14.909
10837W        W83262   3.411   8.255   3.818
10838W        W83263  31.540  19.207  10.896
10839W        W83264  29.139  27.186   4.746
10840W        W83265   5.928  17.301   3.833
10841W        W83266  44.757  17.703   0.848
10842W        W83267  35.862  41.941   4.759
10843W        W83268  29.080  17.272   2.255
10844W        W83269  20.582  10.162   1.701
10845W        W83270  16.739  37.557  11.397
10846W        W83271  34.473  27.451  14.976
10847W        W83272  25.082   5.396   3.149
10848W        W83273  17.693  31.453  14.990
10849W        W83274  16.098  22.008   3.684
10850W        W83275  28.112  19.745   3.347
10851W        W83276  30.426  24.644   0.351
10852W        W83277   3.382   1.391   2.895
10853W        W83278  44.897  31.553   0.862
10854W        W83279   9.222  17.716  11.063
10855W        W83280  39.515  18.669   1.783
10856W        W83281  17.251   7.851   4.281
10857W        W83282  43.486  43.979  14.473
10858W        W83283  25.110  29.965   2.329
10859W        W83284  15.742  29.165  13.854
10860W        W83285  42.523  43.305   2.401
10861W        W83286  42.285   4.781  13.799
10862W        W83287  30.064  13.185  11.037
10863W        W83288  40.935  26.670  14.972
10864W        W83289  22.186  32.993   3.790
10865W        W83290   6.406  25.695  14.874
10866W        W83291   6.361  27.450   2.232
10867W        W83292   6.725   9.341  13.813
10868W        W83293   4.904  10.826   1.306
10869W        W83294  37.073  39.541  13.046
10870W        W83295  16.581   6.706   0.250
10871W        W83296  26.604   2.434   2.829
10872W        W83297  42.508  19.050  11.923
10873W        W83298  15.638  12.228  12.453
10874W        W83299  13.244  38.945   9.974
10875W        W83300  44.369  15.238   3.209
10876W        W83301   0.815  20.636   0.795
10877W        W83302  35.504  14.804  10.568
10878W        W83303  30.118  19.227  10.936
10879W        W83304   2.395  27.956   5.206
10880W        W83305  25.710   4.267   4.292
10881W        W83306  18.186   7.689   3.807
10882W        W83307  14.818   1.387   1.342
10883W        W83308   9.235  11.264   0.855
10884W        W83309  35.865  22.552  11.475
10885W        W83310  41.444  41.825  14.504
10886W        W83311   8.394  27.022   4.647
10887W        W83312  20.168  18.084  10.942
10888W        W83313   2.820  28.479   1.405
10889W        W83314  37.071  32.545   0.256
10890W        W83315   1.410  10.752  13.016
10891W        W83316  13.245   4.290   9.635
10892W        W83317  37.366   4.371   0.325
10893W        W83318  42.921  39.063   4.247
10894W        W83319   8.704  12.686   2.332
10895W        W83320  10.738  17.119   4.133
10896W        W83321  27.522  38.845  14.314
10897W        W83322  43.868  39.914   1.244
10898W        W83323  15.680  42.465  13.835
10899W        W83324  30.932   2.351  11.547
10900W        W83325  29.581  24.666  11.558
10901W        W83326  38.844   7.395  11.920
10902W        W83327  30.096  15.153   4.821
10903W        W83328  17.144   8.283   3.780
10904W        W83329   3.241  29.467   2.664
10905W        W83330  31.035  38.976   0.764
10906W        W83331  33.003  36.093   3.764
10907W        W83332   5.689  36.384   4.607
10908W        W83333  26.188  39.931   2.228
10909W        W83334  21.158  34.888   0.292
10910W        W83335  43.441  24.625   3.779
10911W        W83336  26.998  35.015  12.929
10912W        W83337  30.431  23.499   4.242
10913W        W83338  11.691  26.493   1.928
10914W        W83339  44.452  26.565   4.736
10915W        W83340  32.139  43.961  13.057
10916W        W83341  20.555  23.567   3.748
10917W        W83342  11.261  29.527  10.967
10918W        W83343  27.049   7.177  10.473
10919W        W83344   6.825  23.185  11.093
10920W        W83345  34.930  19.144  11.044
10921W        W83346   9.191  24.106  12.504
10922W        W83347  39.494  14.676   2.884
10923W        W83348  17.158  12.827   5.271
10924W        W83349   7.404  20.154  14.926
10925W        W83350  39.933   7.286  11.372
10926W        W83351  35.070  41.491  14.888
10927W        W83352  42.956  31.023   0.771
10928W        W83353  19.652  32.494  12.344
10929W        W83354  38.395  22.137   3.241
10930W        W83355  14.716  26.983   3.816
10931W        W83356  27.592  39.928   4.169
10932W        W83357  23.513   4.216   0.823
10933W        W83358  34.953  21.517  13.546
10934W        W83359  26.042  42.428  13.541
10935W        W83360  43.415  23.587  12.349
10936W        W83361  16.672  18.293   3.282
10937W        W83362  42.506  24.694   2.741
10938W        W83363  32.132  36.381  13.421
10939W        W83364  39.917  17.167   1.402
10940W        W83365   0.333  43.839  13.455
10941W        W83366  44.297  38.031   4.812
10942W        W83367  38.403  26.603   4.806
10943W        W83368   1.370  26.135   4.279
10944W        W83369  31.578  32.906  13.798
10945W        W83370  14.778  33.966   2.271
10946W        W83371   9.158  17.774   3.782
10947W        W83372   9.335  15.743   2.408
10948W        W83373   5.415   7.264   3.350
10949W        W83374  29.046  42.306   2.751
10950W        W83375  20.592  34.954  14.987
10951W        W83376   3.939   0.400  12.919
10952W        W83377  29.158  16.176   4.281
10953W        W83378  31.048   8.838  11.940
10954W        W83379  12.839  13.208  11.017
10955W        W83380  40.436   9.760  12.362
10956W        W83381  11.271  19.568   2.756
10957W        W83382  13.768   6.296  13.400
10958W        W83383  23.003  33.994  13.896
10959W        W83384   6.348  35.978  14.495
10960W        W83385  17.097  44.918  13.869
10961W        W83386  36.563   8.219   1.764
10962W        W83387  17.236   9.701   0.775
10963W        W83388  29.049  11.817   2.764
10964W        W83389  41.877  18.664  14.461
10965W        W83390  11.632  35.450   0.482
10966W        W83391  24.057  18.690  10.126
10967W        W83392   6.840  37.967  12.912
10968W        W83393  16.737  40.956  11.394
10969W        W83394  16.106  23.632   4.607
10970W        W83395  41.498  38.826  10.468
10971W        W83396  12.733  22.625   2.410
10972W        W83397  26.207  41.360   3.867
10973W        W83398  14.817  44.485  13.059
10974W        W83399  44.269  34.474   5.231
10975W        W83400  18.641  44.370  11.904
10976W        W83401  23.521  39.491  10.450
10977W        W83402  18.295   9.781  14.868
10978W        W83403   1.374  33.384   2.792
10979W        W83404   2.418   7.749   4.833
10980W        W83405   4.258  16.695   0.884
10981W        W83406  39.053  39.479  10.893
10982W        W83407  12.183  28.441  12.961
10983W        W83408  23.670  16.596  12.416
10984W        W83409  16.699  41.309   3.225
10985W        W83410  37.985  23.071   2.239
10986W        W83411  21.122  20.651   2.813
10987W        W83412   1.419  15.639  12.534
10988W        W83413  41.332  43.507   1.867
10989W        W83414  14.616  20.537  14.402
10990W        W83415  26.975  40.913   0.811
10991W        W83416   0.450   4.236  11.454
10992W        W83417   5.367  43.500   1.220
10993W        W83418  12.798  44.495   4.766
10994W        W83419  39.904  39.965  12.998
10995W        W83420   0.927  22.651  11.417
10996W        W83421  19.741  31.435  13.904
10997W        W83422  24.700   6.238   3.182
10998W        W83423  38.541  30.973  13.508
10999W        W83424  19.590  26.068  10.488
11000W        W83425  20.544  10.250   3.194
11001W        W83426  14.189  44.794  13.448
11002W        W83427  12.229  23.077  10.958
11003W        W83428  14.769  17.226  10.017
11004W        W83429  12.264  12.789  13.389
11005W        W83430   1.921  17.266   4.186
11006W        W83431   0.810  16.766   4.310
11007W        W83432  18.584  38.355  13.483
11008W        W83433   5.752   5.860   3.779
11009W        W83434  28.567  14.242  12.002
11010W        W83435  38.510  11.184   2.364
11011W        W83436  41.818   9.885  10.458
11012W        W83437   3.419  29.032  12.424
11013W        W83438  20.727  31.642  10.434
11014W        W83439  24.994  13.191  14.764
11015W        W83440   4.275  33.061   1.758
11016W        W83441   5.708   9.301   0.878
11017W        W83442  28.611  37.524  11.411
11018W        W83443  44.986  21.126  12.056
11019W        W83444  40.984  37.963   2.212
11020W        W83445   6.893   4.235   0.449
11021W        W83446  14.721  19.203   0.286
11022W        W83447  11.663   8.860  11.049
11023W        W83448  19.564  38.963   2.406
11024W        W83449  13.649  18.728  14.893
11025W        W83450  36.938  19.204  11.490
11026W        W83451  19.678   6.785   2.805
11027W        W83452  11.150   7.686  11.897
11028W        W83453  36.962  40.798   1.303
11029W        W83454  26.173   7.813   0.407
11030W        W83455  32.503  40.423   1.321
11031W        W83456  39.833  15.145  14.367
11032W        W83457  15.786  13.663  11.991
11033W        W83458  25.628  22.058  11.126
11034W        W83459  38.033  19.696  13.042
11035W        W83460   4.375   1.265   4.350
11036W        W83461   0.765   5.763  10.617
11037W        W83462   7.340  13.794  11.039
11038W        W83463  16.100   7.246  12.046
11039W        W83464  16.775  19.141  10.450
11040W        W83465  23.691  20.143  14.847
11041W        W83466  41.821   0.481  11.913
11042W        W83467  35.439  21.578  12.066
11043W        W83468   1.899  36.061   2.792
11044W        W83469  41.429  42.879   4.211
11045W        W83470  38.831  11.774   2.273
11046W        W83471  21.697  18.111   3.848
11047W        W83472  29.631  21.070  11.078
11048W        W83473  38.885   6.313  13.327
11049W        W83474  26.702  10.378  14.948
11050W        W83475  15.224  17.290   4.607
11051W        W83476   5.312  28.554  12.853
11052W        W83477  24.051   6.713  14.422
11053W        W83478  18.271  14.147   1.758
11054W        W83479  19.282  39.316   1.366
11055W        W83480  18.261  44.863   2.699
11056W        W83481  14.253  19.652  11.881
11057W        W83482  33.513  26.173   4.698
11058W        W83483  29.642  42.784   0.905
11059W        W83484  31.149   8.165   2.216
11060W        W83485  36.956   7.289  14.879
11061W        W83486   9.750  40.514   2.820
11062W        W83487   7.669  12.341   3.754
11063W        W83488  12.794   6.248  10.624
11064W        W83489  14.769  10.141   4.681
11065W        W83490   1.385   1.731   3.676
11066W        W83491  43.989  13.822  13.375
11067W        W83492   6.394  20.691   2.894
11068W        W83493  24.177   4.268   3.719
11069W        W83494  35.859  14.132  12.023
11070W        W83495  31.981  42.890   0.462
11071W        W83496  20.668  14.198   3.383
11072W        W83497  37.043   0.871   3.331
11073W        W83498   9.886   0.290   1.407
11074W        W83499   4.278  15.298   0.482
11075W        W83500  11.276   6.358  12.886
11076W        W83501  24.531  27.533   4.786
11077W        W83502   0.401  18.775   2.675
11078W        W83503  14.219   5.436   1.260
11079W        W83504   0.774  29.616  14.291
11080W        W83505  32.595  14.620  14.827
11081W        W83506  23.517  31.055  12.363
11082W        W83507  13.287  17.292   4.630
11083W        W83508  36.981   9.169   2.237
11084W        W83509  30.461  39.847   0.476
11085W        W83510   3.294  27.496   1.355
11086W        W83511   4.333  11.189   4.324
11087W        W83512   8.734  29.570  12.347
11088W        W83513  20.122  25.193   0.411
11089W        W83514  39.880  43.382   0.827
11090W        W83515  28.099  17.080   4.351
11091W        W83516   1.343  24.658   2.822
11092W        W83517  24.143  26.182  10.538
11093W        W83518  18.732  23.661   0.449
11094W        W83519  34.968  31.534   1.925
11095W        W83520  36.531  23.728   0.449
11096W        W83521  24.048  26.192  13.425
11097W        W83522  35.072  33.423  11.977
11098W        W83523   1.883  18.066   1.824
11099W        W83524   6.347  37.336   4.243
11100W        W83525  39.434  28.514  14.374
11101W        W83526  21.544  32.631   3.365
11102W        W83527  31.583  19.556  11.116
11103W        W83528  39.009   9.392   2.336
11104W        W83529  29.582  11.162  14.965
11105W        W83530  35.385  41.920  12.502
11106W        W83531  17.078   0.935   3.680
11107W        W83532  33.995  37.978   2.229
11108W        W83533  20.616   7.702   0.429
11109W        W83534  34.439  26.477   0.267
11110W        W83535  43.863   7.400  13.987
11111W        W83536  19.723   4.324  12.879
11112W        W83537   3.233  20.580  12.533
11113W        W83538  23.111   4.793  14.992
11114W        W83539  17.727  34.488  10.890
11115W        W83540  33.386  18.118   0.349
11116W        W83541   5.327  11.342   2.289
11117W        W83542   5.729   3.375   1.274
11118W        W83543   5.800  11.218   3.173
11119W        W83544  34.462   9.687  12.572
11120W        W83545   4.853  29.964  10.464
11121W        W83546   4.894  27.101  14.919
11122W        W83547  22.246  16.690   4.693
11123W        W83548  10.670  35.450   0.271
11124W        W83549  38.924  42.873   2.742
11125W        W83550  41.527  41.998  11.485
11126W        W83551  27.014   3.913  11.567
11127W        W83552   8.272  33.530   4.348
11128W        W83553  29.647  36.408  11.401
11129W        W83554  21.705  17.107   0.444
11130W        W83555  22.036  31.600  13.445
11131W        W83556  19.196  42.975   0.387
11132W        W83557  25.140  11.246   3.186
11133W        W83558   7.385  12.639   3.337
11134W        W83559  29.622  24.569  12.935
11135W        W83560   0.760   2.432  12.416
11136W        W83561  29.470  27.101  13.328
11137W        W83562  22.713  18.245   0.325
11138W        W83563  18.220  13.148   1.698
11139W        W83564  44.402   5.687   9.975
11140W        W83565  20.138  44.787  13.977
11141W        W83566  35.079  26.457   1.891
11142W        W83567  39.961  39.020   0.461
11143W        W83568  31.405   3.369   3.653
11144W        W83569  38.381  17.761   0.916
11145W        W83570  22.120  34.381  12.083
11146W        W83571  10.325  15.222   4.344
11147W        W83572  11.263  38.490  13.922
11148W        W83573  32.493  20.540   0.394
11149W        W83574  14.689  39.372  12.553
11150W        W83575   1.849  26.056   2.242
11151W        W83576   7.908  10.874   3.172
11152W        W83577   2.856  23.574  12.878
11153W        W83578   7.859  26.047   2.390
11154W        W83579   0.804  42.347   0.261
11155W        W83580  34.954  35.075   3.330
11156W        W83581  14.306  25.136  14.430
11157W        W83582  40.964  20.697   4.119
11158W        W83583   2.736  27.073  14.798
11159W        W83584  35.988  23.194   0.801
11160W        W83585  24.221  30.121   1.303
11161W        W83586  40.336  32.562   0.828
11162W        W83587  40.885  41.429   0.363
11163W        W83588  25.117  35.397  14.016
11164W        W83589  10.779  33.028   3.242
11165W        W83590  31.605  27.672   0.329
11166W        W83591   9.261  11.332  13.945
11167W        W83592  39.377  21.730  10.980
11168W        W83593  16.206  16.691   3.322
11169W        W83594  22.009  32.128   3.782
11170W        W83595   1.894  33.450  12.565
11171W        W83596  31.035  42.964   0.855
11172W        W83597  38.338  11.190  13.320
11173W        W83598  21.603  42.851  11.448
11174W        W83599  33.044  16.724  12.015
11175W        W83600  23.108  23.536   4.699
11176W        W83601  43.456  24.995  11.016
11177W        W83602  41.951  17.185   4.623
11178W        W83603   9.784   5.819  12.540
11179W        W83604  27.022  35.877  11.502
11180W        W83605   8.834  42.428  11.999
11181W        W83606  35.519  44.322  11.053
11182W        W83607  37.401  42.856   0.277
11183W        W83608  33.981  40.843   0.937
11184W        W83609   4.726  23.178  13.921
11185W        W83610  13.693   1.451  11.859
11186W        W83611  44.384  19.579  12.435
11187W        W83612  26.150   7.757   1.213
11188W        W83613  20.103  40.878   1.907
11189W        W83614  39.873  11.697   1.378
11190W        W83615  41.017   8.336  11.607
11191W        W83616   5.927  40.502   2.396
11192W        W83617  35.898  43.945  12.037
11193W        W83618  22.181   8.721   2.774
11194W        W83619  16.161   9.169  12.852
11195W        W83620   7.381  16.741  14.907
11196W        W83621  25.049  18.208  10.578
11197W        W83622  33.079  30.062   2.784
11198W        W83623  28.461  33.535   0.466
11199W        W83624  25.138  17.765  13.311
11200W        W83625   0.291  32.572   0.399
11201W        W83626  12.644  17.689   1.314
11202W        W83627  35.405  37.363  11.553
11203W        W83628   6.802  16.671  14.819
11204W        W83629  18.277   2.909  12.087
11205W        W83630   3.820  37.518  11.878
11206W        W83631   4.295   4.907  14.365
11207W        W83632  32.939  28.162  11.401
11208W        W83633  25.203   5.195  13.508
11209W        W83634   4.395   5.697   0.255
11210W        W83635  28.009  24.004   0.771
11211W        W83636   4.334  40.516   3.732
11212W        W83637   1.814  27.505  10.498
11213W        W83638  20.238  25.505   3.333
11214W        W83639  16.130  29.602  11.455
11215W        W83640   6.785  18.137   1.901
11216W        W83641  18.202  12.754  12.509
11217W        W83642  36.487  33.015  13.804
11218W        W83643  23.078  29.933   0.753
11219W        W83644  43.825  17.642  12.024
11220W        W83645  27.998  35.965   0.294
11221W        W83646  28.611  20.581  12.900
11222W        W83647  28.983  26.124  11.449
11223W        W83648  27.984   1.428   1.423
11224W        W83649  21.568  23.166   2.686
11225W        W83650  17.271  43.791  13.357
11226W        W83651  34.091  37.529  14.373
11227W        W83652  30.425  17.213   2.391
11228W        W83653  28.565  25.219   4.617
11229W        W83654   3.296   3.842  10.512
11230W        W83655  34.923   5.837   2.295
11231W        W83656  36.559  25.489   2.797
11232W        W83657   0.358  19.084   0.958
11233W        W83658   6.250  36.379  14.436
11234W        W83659  42.992   3.734  13.889
11235W        W83660  37.341  41.375   3.847
11236W        W83661  30.635  15.093  12.889
11237W        W83662  19.717  36.956  12.046
11238W        W83663  11.339   4.262   0.782
11239W        W83664   3.360  19.615   3.298
11240W        W83665   0.478  28.614   2.183
11241W        W83666   5.260  43.837   3.847
11242W        W83667  29.501  29.124  14.316
11243W        W83668  19.066  23.708  13.931
11244W        W83669  42.298  13.278  10.598
11245W        W83670  23.597  31.509  10.490
11246W        W83671   5.372  30.453  13.029
11247W        W83672   7.232  10.190   2.337
11248W        W83673  40.989  42.937  12.828
11249W        W83674  36.372   4.399   2.766
11250W        W83675  37.967  13.677  14.998
11251W        W83676  40.862  15.319  13.339
11252W        W83677  15.763  19.565  11.049
11253W        W83678   5.398  26.575   0.945
11254W        W83679  33.052  35.458   0.432
11255W        W83680   8.263  30.625  13.958
11256W        W83681  40.350  19.574   3.293
11257W        W83682  37.406  22.673   3.827
11258W        W83683  41.917   8.822   2.682
11259W        W83684   7.749  16.654   4.290
11260W        W83685   6.392  10.316  10.061
11261W        W83686  13.321  40.885   1.703
11262W        W83687  36.039  31.930  11.585
11263W        W83688  15.141   5.836  13.324
11264W        W83689  39.033  28.132   1.891
11265W        W83690  39.058  30.552   2.203
11266W        W83691   1.394  42.780  12.985
11267W        W83692   9.792  10.363   2.765
11268W        W83693  29.601  39.919   2.309
11269W        W83694  28.660  17.105   3.657
11270W        W83695  14.203  18.103   3.192
11271W        W83696   1.398  36.397   2.386
11272W        W83697  12.770   2.358   3.265
11273W        W83698  33.546  14.736  12.499
11274W        W83699   3.405  18.055  14.928
11275W        W83700  20.155  15.101  14.477
11276W        W83701   3.790  36.508   1.290
11277W        W83702  35.004  23.112   0.829
11278W        W83703  14.169  15.140  13.894
11279W        W83704  32.516  36.587  11.111
11280W        W83705   1.833   3.426   5.314
11281W        W83706  39.320  14.594  12.535
11282W        W83707  23.194  33.578  11.565
11283W        W83708   3.322  19.777   4.138
11284W        W83709  10.287  27.130  13.917
11285W        W83710  14.772  37.565   0.305
11286W        W83711  31.055   6.740   1.832
11287W        W83712  14.175   0.800   0.794
11288W        W83713  12.337  29.922   2.784
11289W        W83714  12.225  31.576  12.514
11290W        W83715  15.206  14.131   2.680
11291W        W83716  16.133  36.367   0.862
11292W        W83717   7.226  35.051  13.813
11293W        W83718   7.853  16.631  11.581
11294W        W83719  39.832   8.729  11.095
11295W        W83720  31.485   6.339   2.733
11296W        W83721  10.797  34.585   3.346
11297W        W83722  27.044  44.852  10.490
11298W        W83723  32.463  44.955   2.356
11299W        W83724  43.904   2.761   1.726
11300W        W83725  44.275  30.967  13.331
11301W        W83726  29.990  31.630  11.950
11302W        W83727   8.385   0.939  14.955
11303W        W83728  24.002  35.075  13.347
11304W        W83729  10.715  27.945  11.038
11305W        W83730   4.863  11.243   1.698
11306W        W83731  38.868  32.508   0.381
11307W        W83732  12.652  14.256   0.917
11308W        W83733  29.163  12.741  13.431
11309W        W83734  34.120  24.144   4.704
11310W        W83735  18.249   5.352   4.774
11311W        W83736  19.215  34.078  13.534
11312W        W83737  17.110  42.854   3.195
11313W        W83738   1.757   5.270  11.408
11314W        W83739  41.027  22.184   3.313
11315W        W83740  38.489   9.666  11.979
11316W        W83741  28.939   0.299  12.919
11317W        W83742  11.261  16.749   2.732
11318W        W83743   6.289  14.776   3.817
11319W        W83744  32.529  43.302  11.509
11320W        W83745  12.269   9.170   4.154
11321W        W83746  13.257  16.674   0.450
11322W        W83747  40.969  37.880  12.513
11323W        W83748  17.204   9.180  13.993
11324W        W83749  17.649   9.885  11.610
11325W        W83750  38.376  12.333  11.899
11326W        W83751  19.742  34.034   1.313
11327W        W83752   8.365  21.573   2.887
11328W        W83753   7.340  19.082   0.937
11329W        W83754   5.707  27.094   4.613
11330W        W83755  24.145  33.544   1.416
11331W        W83756  36.365   8.768  11.962
11332W        W83757   7.712  12.173  13.049
11333W        W83758  30.624   4.838  12.035
11334W        W83759  44.771   0.948   3.155
11335W        W83760  38.528   4.803   0.780
11336W        W83761  30.942  36.006   2.819
11337W        W83762  23.227  27.188   4.776
11338W        W83763  31.031  22.058  12.552
11339W        W83764  15.210  38.330  14.903
11340W        W83765  26.984  36.528  11.574
11341W        W83766  17.087  22.556   1.713
11342W        W83767  34.577   6.855   4.242
11343W        W83768  36.881   6.359   9.957
11344W        W83769  22.217  27.510  13.024
11345W        W83770  23.734  37.397   0.782
11346W        W83771  28.636  37.363  12.903
11347W        W83772  19.141  41.510  13.034
11348W        W83773  26.617   4.435   1.389
11349W        W83774  10.337  30.524  14.442
11350W        W83775   8.723  33.487  11.086
11351W        W83776  12.246   3.241  10.990
11352W        W83777  20.735  39.017   4.147
11353W        W83778  12.656  10.795  10.549
11354W        W83779  20.249  43.938  11.924
11355W        W83780  26.094  12.177   3.156
11356W        W83781  13.140  40.341  13.045
11357W        W83782  12.130  27.619   1.792
11358W        W83783  11.163  22.052   4.332
11359W        W83784  34.967   3.423   2.789
11360W        W83785  29.968  35.912  13.962
11361W        W83786  22.609  25.171  14.768
11362W        W83787  42.854  25.643   0.777
11363W        W83788  33.073  40.987  14.329
11364W        W83789  41.869  22.076   2.738
11365W        W83790  30.636  26.513  12.469
11366W        W83791   0.330  30.557  11.387
11367W        W83792  14.741   2.787   0.427
11368W        W83793   3.827  33.042   1.808
11369W        W83794  14.692  32.540  12.378
11370W        W83795  19.573  39.391   2.190
11371W        W83796   2.945  41.855   3.660
11372W        W83797  35.578   9.242  10.432
11373W        W83798   9.718  30.520   0.449
11374W        W83799  20.218  26.685  14.371
11375W        W83800  10.143  11.203   3.151
11376W        W83801  14.623  30.471   2.841
11377W        W83802  20.217  40.910  13.020
11378W        W83803  31.475   8.233   3.692
11379W        W83804  13.148  11.725   5.176
11380W        W83805  14.761  29.096  12.069
11381W        W83806   8.237  29.561  11.576
11382W        W83807  43.422  41.471  11.951
11383W        W83808  37.411  12.358   4.202
11384W        W83809  26.045  40.410  10.943
11385W        W83810  44.444  20.692  14.433
11386W        W83811  32.397  22.668   4.269
11387W        W83812  24.509  43.310  10.628
11388W        W83813   5.733  26.657   4.784
11389W        W83814  10.295  25.566  14.329
11390W        W83815  36.970  31.574  11.890
11391W        W83816   3.929   8.388  12.088
11392W        W83817  37.427  17.584   4.669
11393W        W83818  27.659   6.804   2.736
11394W        W83819   9.363   0.914   0.932
11395W        W83820  11.854   8.716   3.148
11396W        W83821  41.850  17.656   4.653
11397W        W83822  44.476   8.875  14.320
11398W        W83823  39.499  34.864  11.477
11399W        W83824  12.203   5.795   1.818
11400W        W83825   2.425  20.751   1.435
11401W        W83826  22.144  34.612   3.849
11402W        W83827  19.065  30.518  12.921
11403W        W83828  12.759  24.660  10.026
11404W        W83829  35.909  36.986   4.230
11405W        W83830  16.648  44.816   0.468
11406W        W83831  42.340  11.337  13.445
11407W        W83832   2.765  22.577  11.408
11408W        W83833   6.211  24.973  14.769
11409W        W83834  34.381   4.813  14.291
11410W        W83835  34.105  24.990   3.640
11411W        W83836  10.285  15.139   2.805
11412W        W83837  34.566  36.062  11.433
11413W        W83838  39.914  37.083  10.419
11414W        W83839  13.224  14.178   1.261
11415W        W83840  10.750  22.207  10.017
11416W        W83841   8.769  24.018  11.427
11417W        W83842  39.447  22.014   2.886
11418W        W83843  24.208  26.959   0.288
11419W        W83844  13.600  42.516   2.194
11420W        W83845  22.141  43.774  12.947
11421W        W83846  32.108  28.049  14.450
11422W        W83847  16.311  17.150  13.819
11423W        W83848   9.321  10.347   5.309
11424W        W83849  37.514  23.518  13.020
11425W        W83850  20.547  25.137   1.447
11426W        W83851  37.400  11.185  12.422
11427W        W83852  43.980  33.589   2.378
11428W        W83853  24.145  28.979   3.748
11429W        W83854   0.316   0.334   0.394
11430W        W83855  32.527   7.186   1.905
11431W        W83856  14.173  39.961   0.756
11432W        W83857  13.785  17.201   3.747
11433W        W83858   7.866  44.373  13.440
11434W        W83859   0.896  20.529   3.182
11435W        W83860   6.701  33.887   3.862
11436W        W83861  24.154   9.876  14.963
11437W        W83862  44.280  32.044   0.786
11438W        W83863   7.336  21.641  10.970
11439W        W83864  37.849  23.562  13.900
11440W        W83865  28.635   8.278   2.789
11441W        W83866  29.633  41.532  12.034
11442W        W83867   7.810  33.123   4.761
11443W        W83868  29.522  37.522  13.954
11444W        W83869  26.951  40.476  14.977
11445W        W83870  15.207  15.259   4.640
11446W        W83871  35.027   9.813   4.170
11447W        W83872  14.727  11.200  13.342
11448W        W83873   1.348  36.951  12.004
11449W        W83874  33.112  32.068  14.453
11450W        W83875   5.338  19.688   2.865
11451W        W83876  11.757  15.208  12.339
11452W        W83877  19.538  18.649   4.800
11453W        W83878  29.928  16.256  14.002
11454W        W83879   8.358  12.619  13.926
11455W        W83880  20.247   7.277  12.869
11456W        W83881  10.645  13.817   3.164
11457W        W83882  39.019  32.435   4.195
11458W        W83883   6.223  11.256  10.405
11459W        W83884  22.096  31.017   0.957
11460W        W83885  44.806  32.940  12.482
11461W        W83886  37.962  36.413   0.296
11462W        W83887  14.746   1.242   5.585
11463W        W83888  32.971  22.088   4.245
11464W        W83889   8.277  33.416   2.307
11465W        W83890  21.142   9.280   3.210
11466W        W83891  13.248  10.662  12.399
11467W        W83892   0.406  10.338   5.225
11468W        W83893  10.148  31.505   3.247
11469W        W83894  27.451  16.203  11.603
11470W        W83895  31.616  36.940  13.499
11471W        W83896   7.799   7.709   1.241
11472W        W83897  21.025   3.336   3.658
11473W        W83898  19.738  39.528  10.982
11474W        W83899  12.276   8.169  14.396
11475W        W83900  13.302  27.573   1.284
11476W        W83901   9.182  11.783   3.712
11477W        W83902  43.784  12.728   2.251
11478W        W83903  26.037  12.691   0.482
11479W        W83904   5.234  14.164   2.779
11480W        W83905  31.944  37.451   3.785
11481W        W83906   4.726   2.267  14.449
11482W        W83907  41.507   0.315  10.919
11483W        W83908   2.315  42.425   4.335
11484W        W83909  32.140  36.367  13.990
11485W        W83910   4.891  26.685   5.240
11486W        W83911  32.938  16.306   3.723
11487W        W83912  15.596  39.462  11.059
11488W        W83913  12.823  41.316  12.437
11489W        W83914  30.023  20.080  12.862
11490W        W83915  14.638  15.707   1.419
11491W        W83916  11.150  22.659  10.919
11492W        W83917  21.583   7.187   0.456
11493W        W83918  21.527  36.348  12.479
11494W        W83919  31.458  43.429  10.504
11495W        W83920  38.836  11.655  11.584
11496W        W83921  12.723  15.217   0.328
11497W        W83922  39.394  23.672  14.993
11498W        W83923  18.714  43.317  13.937
11499W        W83924  29.651  15.291  12.881
11500W        W83925  15.814  14.722  13.841
11501W        W83926   6.405  38.898  10.034
11502W        W83927  13.267   0.256  10.439
11503W        W83928  35.986  28.133   3.151
11504W        W83929  35.878  13.671  13.454
11505W        W83930  40.511   4.895  12.000
11506W        W83931  23.578  11.821   3.204
11507W        W83932  41.796   8.212   0.862
11508W        W83933   0.864  28.010  13.543
11509W        W83934   7.786  29.088  12.352
11510W        W83935   1.751   1.244  12.479
11511W        W83936  32.512  39.321  12.571
11512W        W83937  41.461  36.408   2.899
11513W        W83938   6.749   0.863  14.448
11514W        W83939  27.558  43.494   1.765
11515W        W83940  17.075  18.060  13.515
11516W        W83941   8.234  33.483   1.293
11517W        W83942   7.203  30.606   1.714
11518W        W83943   1.289  24.061  14.917
11519W        W83944  13.715  14.753   4.702
11520W        W83945  31.449  10.768   3.363
11521W        W83946   6.797  25.066  10.996
11522W        W83947  42.025   1.749   5.168
11523W        W83948  44.265  40.931  10.608
11524W        W83949   1.780  19.741   1.276
11525W        W83950  26.468  15.762  12.481
11526W        W83951  21.580  28.590   1.871
11527W        W83952  30.063  16.271   0.355
11528W        W83953  30.468  19.109   0.349
11529W        W83954   5.772   1.894  13.047
11530W        W83955   4.701  33.956   1.299
11531W        W83956  33.072  20.083  10.433
11532W        W83957   6.833  41.961  12.485
11533W        W83958   2.471  25.104  11.904
11534W        W83959  23.990  16.655   0.388
11535W        W83960  33.528  19.563  13.462
11536W        W83961   9.773  16.207   3.752
11537W        W83962  41.845  18.704   4.712
11538W        W83963  36.379  35.565   2.371
11539W        W83964  21.518   8.772  13.062
11540W        W83965   5.390  26.647  12.428
11541W        W83966   8.894  11.219  11.122
11542W        W83967  40.324   1.915   4.125
11543W        W83968   1.809  26.548  11.993
11544W        W83969  27.619  31.519   2.271
11545W        W83970  34.594  34.042   0.267
11546W        W83971  30.479  11.321   1.358
11547W        W83972  21.046   6.408  14.377
11548W        W83973  41.996  13.210  13.012
11549W        W83974  24.644  32.482  11.880
11550W        W83975   0.876  24.681  13.892
11551W        W83976   7.695   7.335  11.394
11552W        W83977   5.928  21.624  10.900
11553W        W83978   8.775  27.642   2.407
11554W        W83979   4.323  30.553  14.351
11555W        W83980  20.570  30.920  12.482
11556W        W83981  38.911   9.260   0.795
11557W        W83982  38.366  15.234   4.325
11558W        W83983  30.139   4.434   4.645
11559W        W83984  40.387  27.536  13.796
11560W        W83985  43.430  34.603   0.821
11561W        W83986  15.733   3.447   1.892
11562W        W83987  25.998  14.182   1.309
11563W        W83988  25.526  39.469  13.439
11564W        W83989  29.575  38.343  10.095
11565W        W83990  16.707  40.403  14.955
11566W        W83991  34.904  44.303  11.456
11567W        W83992  43.400  11.671  13.362
11568W        W83993  24.219  36.591  12.093
11569W        W83994  34.502  21.200   0.349
11570W        W83995  18.631   1.462  14.952
11571W        W83996  26.049  17.188  11.960
11572W        W83997  17.227   1.922  13.476
11573W        W83998  15.813   5.816   1.357
11574W        W83999  16.175  29.109   1.768
11575W        W84000  29.127  13.641  14.858
11576W        W84001  17.255   4.401  13.499
11577W        W84002  27.076  42.396  11.022
11578W        W84003   2.865  43.516  14.332
11579W        W84004   7.694  14.610   3.190
11580W        W84005  16.657  27.953  14.835
11581W        W84006  24.197   5.321  11.601
11582W        W84007   5.313  27.618   4.243
11583W        W84008   4.799  42.419  12.079
11584W        W84009   3.928  24.992   1.314
11585W        W84010  31.480  19.193  12.025
11586W        W84011  12.207  25.118  14.463
11587W        W84012  33.452  32.970   2.744
11588W        W84013  42.519  11.184   0.733
11589W        W84014  25.509   7.189   0.958
11590W        W84015  37.568  32.600  12.841
11591W        W84016  42.984  11.300  14.482
11592W        W84017  30.620   9.696  14.912
11593W        W84018   8.329  41.038   4.745
11594W        W84019  21.547   6.842   1.727
11595W        W84020  23.163  33.549   1.308
11596W        W84021  17.684  25.211   0.443
11597W        W84022  28.655  11.663  13.839
11598W        W84023  35.902  14.282   2.688
11599W        W84024  14.247  11.297   4.613
11600W        W84025  43.810  11.270  13.942
11601W        W84026  38.392   0.348   0.773
11602W        W84027  13.728  38.921   0.835
11603W        W84028  12.338  29.423   3.668
11604W        W84029  34.032   2.812   1.720
11605W        W84030   7.180   1.454   3.323
11606W        W84031  41.400  42.983  10.627
11607W        W84032  17.563  38.327   0.324
11608W        W84033   5.397   4.368  13.339
11609W        W84034  21.018  28.463   3.817
11610W        W84035   0.485  35.956  14.922
11611W        W84036   5.272  25.598   1.810
11612W        W84037  18.689  36.048  10.423
11613W        W84038  18.099  33.577  10.430
11614W        W84039  16.621  27.468  10.477
11615W        W84040  29.560  27.142  14.762
11616W        W84041  17.633  29.597   2.393
11617W        W84042  10.184  22.234   4.776
11618W        W84043  23.084  24.650  14.031
11619W        W84044  41.367  18.565  12.876
11620W        W84045   2.927   0.309  10.451
11621W        W84046  28.090   5.739   4.721
11622W        W84047   2.466  16.683  12.848
11623W        W84048  36.425  42.511   3.807
11624W        W84049  34.926  41.488   5.094
11625W        W84050  34.498  36.094  13.438
11626W        W84051  29.075   4.204  13.059
11627W        W84052  19.595  14.313  11.888
11628W        W84053  30.008  37.027   0.432
11629W        W84054  31.926   8.742  11.422
11630W        W84055  34.867  16.584   3.291
11631W        W84056  31.402  33.090  10.638
11632W        W84057  16.585  30.597  11.009
11633W        W84058  37.571  40.962  12.843
11634W        W84059  29.161   5.420   4.740
11635W        W84060  18.755   1.949   2.813
11636W        W84061   3.247  11.189   0.806
11637W        W84062  21.121   6.236   3.246
11638W        W84063  35.957  39.001   4.165
11639W        W84064  12.798   5.753  10.958
11640W        W84065   5.756  38.514  12.578
11641W        W84066  21.040  25.084  13.823
11642W        W84067  25.996  40.956   1.306
11643W        W84068  33.449   1.373  11.554
11644W        W84069  42.792  30.082  11.374
11645W        W84070  24.204   7.278  14.429
11646W        W84071  24.583  21.515   3.800
11647W        W84072   8.753  14.703   0.283
11648W        W84073  33.540  35.092   2.684
11649W        W84074   7.749   1.962   9.930
11650W        W84075  37.906  24.201  14.325
11651W        W84076  24.588  16.261  13.400
11652W        W84077   7.837  19.125   3.718
11653W        W84078   5.713  37.443  14.343
11654W        W84079  14.624  24.210   1.750
11655W        W84080  10.285  38.825  14.383
11656W        W84081  22.627  41.367   0.917
11657W        W84082  30.996  31.127   3.721
11658W        W84083   7.259  44.969   0.275
11659W        W84084   1.790   4.297   0.831
11660W        W84085  39.557  25.505   3.694
11661W        W84086   1.263  44.335   2.292
11662W        W84087   2.318   4.731   0.377
11663W        W84088  27.146  42.973  10.579
11664W        W84089  27.556  37.924  14.357
11665W        W84090  25.527  25.527  13.933
11666W        W84091  27.591  44.831  11.946
11667W        W84092  36.916  41.790   3.338
11668W        W84093   0.356  26.164   3.313
11669W        W84094  15.230   9.197  13.319
11670W        W84095   6.350  41.438  14.500
11671W        W84096  40.460  25.583   1.288
11672W        W84097   7.907  14.199   0.746
11673W        W84098  16.615   6.826   4.308
11674W        W84099  10.183  18.645  11.502
11675W        W84100   8.838  38.829  12.432
11676W        W84101   9.314   0.832   3.656
11677W        W84102  26.105  29.029   0.249
11678W        W84103  10.652   9.343  14.912
11679W        W84104  35.944   9.715  12.053
11680W        W84105  24.484  17.772   0.360
11681W        W84106  17.609   3.216  14.358
11682W        W84107   9.229   2.374  12.895
11683W        W84108  13.620  19.227   2.693
11684W        W84109  14.589  12.652   5.126
11685W        W84110  19.693  13.222   5.107
11686W        W84111  25.099  34.893  11.515
11687W        W84112  24.065  37.455   2.193
11688W        W84113  13.667  38.463  10.408
11689W        W84114  14.669   8.692   3.267
11690W        W84115  34.953  31.469  13.054
11691W        W84116   4.792  19.103  10.413
11692W        W84117  35.591  43.947  13.456
11693W        W84118  19.663  26.069  13.469
11694W        W84119   9.272  25.025  10.643
11695W        W84120  19.209  36.980  10.891
11696W        W84121  30.641  14.274  14.504
11697W        W84122  44.503   2.841   2.327
11698W        W84123  12.663   6.402   2.265
11699W        W84124  12.254   6.242  10.998
11700W        W84125  11.700   2.880  10.449
11701W        W84126  28.156  39.034   0.428
11702W        W84127   6.286   8.709  13.870
11703W        W84128   1.321   3.229  14.307
11704W        W84129  21.119  22.225   0.402
11705W        W84130  29.623  28.611   1.769
11706W        W84131  11.627  31.573  13.928
11707W        W84132  28.484  22.128  13.503
11708W        W84133  41.922  25.586  13.033
11709W        W84134  26.126  27.465   2.708
11710W        W84135   8.896   9.206   3.169
11711W        W84136  28.974   9.719  12.873
11712W        W84137  43.368  21.731  12.511
11713W        W84138  11.136  26.620   3.264
11714W        W84139  37.458  30.606   1.401
11715W        W84140  19.049  17.624   2.394
11716W        W84141  28.529  35.010  14.370
11717W        W84142   4.720  44.878   4.658
11718W        W84143  38.961  20.178  13.859
11719W        W84144  42.311  26.464  14.817
11720W        W84145   6.343  19.222   3.354
11721W        W84146  25.666   0.941   1.820
11722W        W84147  28.478  17.142   1.420
11723W        W84148  37.530  41.298   0.806
11724W        W84149  44.297  37.944   1.707
11725W        W84150   6.686   3.799  11.394
11726W        W84151  21.195  12.653   0.824
11727W        W84152  15.783  15.094   1.309
11728W        W84153  25.660   9.788  13.851
11729W        W84154   8.778  38.891   4.184
11730W        W84155   2.859   8.391   3.327
11731W        W84156  28.589  16.153   0.379
11732W        W84157  21.567  33.944   3.687
11733W        W84158  11.342  22.243  10.017
11734W        W84159   1.874   8.866  10.998
11735W        W84160  38.875   8.333   4.760
11736W        W84161  14.180   0.484   1.706
11737W        W84162  11.290  13.769   0.747
11738W        W84163   0.827  31.086   3.215
11739W        W84164  24.143   1.336  12.945
11740W        W84165  36.480   6.817  13.323
11741W        W84166   0.359   9.817  10.403
11742W        W84167   1.430  14.780   1.761
11743W        W84168  41.964  37.855   3.229
11744W        W84169  27.503   2.815   2.813
11745W        W84170  10.171  17.798  11.961
11746W        W84171  25.494  32.406  11.540
11747W        W84172  19.705  26.132   4.290
11748W        W84173  26.127  41.353  11.966
11749W        W84174   5.778  14.663   0.394
11750W        W84175  35.901  10.716  13.809
11751W        W84176  19.555  30.084  12.954
11752W        W84177  34.452  37.351  14.857
11753W        W84178   2.431  13.322  10.522
11754W        W84179  18.159  33.041   5.685
11755W        W84180  22.571  20.571  14.936
11756W        W84181  18.186  31.917  10.099
11757W        W84182   3.424  33.077   9.979
11758W        W84183  42.028  16.712   0.279
11759W        W84184  14.128  21.594  13.835
11760W        W84185  37.880  33.108   4.141
11761W        W84186   7.672  35.915   0.797
11762W        W84187  36.863   4.815  14.397
11763W        W84188  16.251  33.487  13.013
11764W        W84189  41.947   4.723   0.931
11765W        W84190  34.550  35.033  12.067
11766W        W84191  30.123  36.520   2.853
11767W        W84192  38.947  39.021   3.218
11768W        W84193  26.957   6.900   1.256
11769W        W84194  25.550  31.409   3.343
11770W        W84195   3.949   4.256   1.256
11771W        W84196  25.179   1.333   0.745
11772W        W84197  10.257  35.966   2.891
11773W        W84198   2.471  10.284  13.511
11774W        W84199  42.790  25.217  11.080
11775W        W84200  30.502   9.797  10.408
11776W        W84201  35.066  25.025   0.455
11777W        W84202   8.751  28.476   1.902
11778W        W84203  29.950  21.147  11.112
11779W        W84204  15.617  25.022   1.829
11780W        W84205  30.096   0.888   3.382
11781W        W84206  34.380  36.930  13.907
11782W        W84207  18.292   7.409  13.938
11783W        W84208  17.173  26.151  12.407
11784W        W84209  36.418  10.373  12.393
11785W        W84210   2.379  20.696  14.348
11786W        W84211  13.767  36.433  10.952
11787W        W84212   1.820  24.592   3.804
11788W        W84213   5.325  23.508   3.331
11789W        W84214  10.691  15.642  11.445
11790W        W84215  19.610   2.745   1.875
11791W        W84216  15.667  13.602  12.482
11792W        W84217  44.866  30.466  13.867
11793W        W84218  20.635  21.729  12.834
11794W        W84219   5.822  14.303   1.301
11795W        W84220   6.397  20.183   2.792
11796W        W84221  26.041  36.933   2.767
11797W        W84222  17.215  41.795  13.390
11798W        W84223  41.898   9.767   1.432
11799W        W84224  40.928  28.068   1.780
11800W        W84225  38.478  23.049  10.909
11801W        W84226   6.741  18.125   3.755
11802W        W84227  34.063   6.787  14.941
11803W        W84228  22.251  23.156  11.555
11804W        W84229  31.628  38.470  14.339
11805W        W84230  33.617  30.580  10.082
11806W        W84231  26.460  16.647  11.029
11807W        W84232  28.441  26.162  11.527
11808W        W84233  34.108  17.157  13.865
11809W        W84234  27.477  37.393   0.869
11810W        W84235   0.427  41.998  12.498
11811W        W84236  32.559  18.293  11.040
11812W        W84237  35.871  23.664  13.434
11813W        W84238   6.803  14.747  11.115
11814W        W84239  30.606  24.206  14.414
11815W        W84240  33.888  40.481  11.430
11816W        W84241  15.083  38.376   0.826
11817W        W84242  21.548   4.845  13.500
11818W        W84243   3.934  40.544  10.576
11819W        W84244  16.152   0.331   0.893
11820W        W84245  32.570  15.147   3.797
11821W        W84246  13.243   2.350   1.408
11822W        W84247  21.247   1.749  12.512
11823W        W84248   5.798  33.930  11.860
11824W        W84249  44.815  18.654   1.273
11825W        W84250  19.066  10.796   0.398
11826W        W84251  35.545   6.792   3.241
11827W        W84252  36.410  17.708   0.256
11828W        W84253  16.248   1.918   0.445
11829W        W84254  13.659  15.725  12.561
11830W        W84255  18.184  44.470  12.362
11831W        W84256   5.262  32.496   2.185
11832W        W84257  35.108   7.853   1.298
11833W        W84258  35.430  33.574  11.574
11834W        W84259  41.807  13.676   1.874
11835W        W84260  31.924  11.773  14.008
11836W        W84261   3.436  43.765   1.738
11837W        W84262  44.492  23.666  13.530
11838W        W84263  21.714  22.206   1.921
11839W        W84264  29.518  12.182   0.471
11840W        W84265  25.185   2.810   1.279
11841W        W84266  35.479  41.936   0.897
11842W        W84267  18.769  15.287  12.930
11843W        W84268  11.266  30.010  12.351
11844W        W84269   3.443   4.737  10.576
11845W        W84270   5.313  15.141   0.468
11846W        W84271  35.363  15.727  14.031
11847W        W84272   9.281  30.017   2.355
11848W        W84273  14.250  38.519   9.935
11849W        W84274  25.611   4.270   0.892
11850W        W84275  19.244  20.068   1.827
11851W        W84276  20.619   7.695   4.651
11852W        W84277   4.406   7.757  12.347
11853W        W84278  25.181   2.431   3.754
11854W        W84279  11.270   4.879   2.205
11855W        W84280  30.139   5.832   3.775
11856W        W84281  18.617  11.772  10.903
11857W        W84282  23.179  12.141  13.035
11858W        W84283  41.312  38.496  13.042
11859W        W84284  33.537  17.626  11.984
11860W        W84285  13.200   6.891   3.853
11861W        W84286  18.779   7.308   5.254
11862W        W84287  36.023  34.604  14.423
11863W        W84288  13.204  32.610  10.496
11864W        W84289  21.697  22.625   2.268
11865W        W84290   2.860  22.583  13.502
11866W        W84291  39.452  39.865   1.450
11867W        W84292   9.682  12.768  14.030
11868W        W84293  42.929  36.936  14.326
11869W        W84294   4.815  42.843  14.852
11870W        W84295  10.800   3.220   3.183
11871W        W84296  26.525   4.263  10.565
11872W        W84297   5.373   7.335  14.922
11873W        W84298  24.639  39.886  11.390
11874W        W84299  32.903  15.236  13.429
11875W        W84300  32.094   3.460   3.643
11876W        W84301  31.004  23.085   2.395
11877W        W84302  24.049   2.862  12.909
11878W        W84303  12.684  30.932   2.251
11879W        W84304  24.090  37.384   1.885
11880W        W84305  16.309  30.438  13.896
11881W        W84306  22.020  17.794   2.775
11882W        W84307  20.273  24.053  14.964
11883W        W84308  40.963  32.440   0.814
11884W        W84309   0.749   7.188   4.125
11885W        W84310  43.019  34.898   3.256
11886W        W84311  39.475   8.240   1.452
11887W        W84312  26.041  40.323   3.685
11888W        W84313  12.851  31.543   1.816
11889W        W84314  44.363   1.264  10.971
11890W        W84315  19.274  29.432   2.765
11891W        W84316  27.181  16.772   3.326
11892W        W84317  18.757  22.651   2.749
11893W        W84318  18.561  11.702  12.929
11894W        W84319  32.950  27.091  12.541
11895W        W84320  16.698  37.949   2.409
11896W        W84321  17.712   3.427  14.981
11897W        W84322  44.843  16.084  13.905
11898W        W84323  35.453  33.953   2.891
11899W        W84324  33.538   0.910  13.975
11900W        W84325  13.139  23.074   3.864
11901W        W84326   5.914  15.261   1.862
11902W        W84327   2.953   3.924  14.319
11903W        W84328  33.442  40.937  11.581
11904W        W84329  19.273  25.159   4.201
11905W        W84330  42.493   9.728   3.189
11906W        W84331  21.035  22.123   0.792
11907W        W84332   7.409   6.281   3.825
11908W        W84333   9.780  21.728  14.938
11909W        W84334  14.731   5.743   1.442
11910W        W84335  25.189  17.136  11.381
11911W        W84336   5.200  36.442   4.240
11912W        W84337  35.432  33.383   1.829
11913W        W84338   5.201  35.990  13.812
11914W        W84339  41.513  24.523   1.803
11915W        W84340  14.241  14.220  14.892
11916W        W84341  42.896  20.650  13.880
11917W        W84342  39.328  34.940  12.937
11918W        W84343  43.350  16.607  12.999
11919W        W84344  21.613   6.292  14.405
11920W        W84345  38.031  30.978   1.864
11921W        W84346  35.534   2.455   1.441
11922W        W84347  44.486  20.194  12.935
11923W        W84348  10.752  33.072  12.414
11924W        W84349  23.614  13.646  11.503
11925W        W84350   3.709  24.492   3.643
11926W        W84351   7.899   8.328   4.344
11927W        W84352  38.835  11.631  11.086
11928W        W84353   8.309  15.650   2.746
11929W        W84354   5.742  27.111   2.335
11930W        W84355  16.645   2.827  14.864
11931W        W84356  33.622   3.904   4.332
11932W        W84357  38.480  44.278   1.823
11933W        W84358   6.203   4.222  11.112
11934W        W84359  31.454   2.277  11.543
11935W        W84360   3.908  40.442  11.537
11936W        W84361  18.180  38.025   4.833
11937W        W84362  16.119  42.415  11.122
11938W        W84363  19.173  13.773  10.988
11939W        W84364  24.592  39.056   3.758
11940W        W84365  36.388   3.721  11.437
11941W        W84366   2.730  42.316   1.322
11942W        W84367  41.333  31.124   0.280
11943W        W84368  15.779  18.076  12.412
11944W        W84369  10.216   4.279   2.202
11945W        W84370  33.951   4.221  12.378
11946W        W84371   2.728   4.726  14.296
11947W        W84372   9.810  30.526  13.383
11948W        W84373   0.923  27.152  11.994
11949W        W84374  44.490  20.613  10.041
11950W        W84375  20.656  22.038   4.807
11951W        W84376  19.136  43.382   3.219
11952W        W84377  35.096  10.236  12.422
11953W        W84378  38.331  41.884   1.755
11954W        W84379  24.138   3.845  10.433
11955W        W84380  37.842  29.114   2.720
11956W        W84381  41.937  33.954  13.842
11957W        W84382  43.810  13.134   2.263
11958W        W84383  25.581  32.493   0.298
11959W        W84384  34.031  41.383   4.731
11960W        W84385  32.542  44.307  14.289
11961W        W84386  25.174  40.425  14.847
11962W        W84387  19.546  29.594  12.540
11963W        W84388  44.976  11.840  14.403
11964W        W84389  43.932  25.553  14.840
11965W        W84390   4.742  39.856  10.907
11966W        W84391  42.358  36.096   1.816
11967W        W84392  17.143  33.584   1.770
11968W        W84393   0.427  40.431  10.964
11969W        W84394  23.112  39.359   1.736
11970W        W84395  15.819   7.701   1.375
11971W        W84396  42.346  44.794  14.417
11972W        W84397  33.007  24.061  13.523
11973W        W84398  44.493  21.115  14.496
11974W        W84399   0.272   1.257  12.364
11975W        W84400   1.958  25.618  12.855
11976W        W84401  10.321   2.393   2.272
11977W        W84402  24.545  39.493  12.373
11978W        W84403  11.291  43.937   2.307
11979W        W84404  38.537  25.196   3.343
11980W        W84405  21.624   8.785   0.758
11981W        W84406  20.547  25.602  13.415
11982W        W84407  37.021  20.170   1.797
11983W        W84408  43.879  38.874  14.279
11984W        W84409  43.940  32.087   2.706
11985W        W84410  34.063  14.183   0.850
11986W        W84411   1.399   6.193   0.357
11987W        W84412  38.975  17.230  11.916
11988W        W84413   4.920  16.196   1.315
11989W        W84414  28.640  22.652  12.055
11990W        W84415  43.468  39.841   1.914
11991W        W84416  30.118  24.055   1.433
11992W        W84417  43.357   8.742   0.390
11993W        W84418  19.540   2.441   0.275
11994W        W84419  21.112  42.499  12.356
11995W        W84420  24.559  21.745  12.528
11996W        W84421  13.637  10.138  12.476
11997W        W84422  32.115  38.955  13.350
11998W        W84423  42.956  42.306   3.755
11999W        W84424  32.994  28.999  11.897
12000W        W84425   2.781  18.635   2.389
12001W        W84426  10.148   8.786   1.774
12002W        W84427  19.661  23.547  12.014
12003W        W84428  41.861  24.185   2.400
12004W        W84429  17.719  18.248   3.367
12005W        W84430  38.468  22.106   2.670
12006W        W84431  10.638  43.337  11.474
12007W        W84432  10.166  25.558   2.270
12008W        W84433  29.084  14.729  13.944
12009W        W84434  38.337  15.238  13.398
12010W        W84435  38.998   3.770   0.935
12011W        W84436  34.524  22.127   2.745
12012W        W84437  44.272  32.426  12.505
12013W        W84438  12.227  35.416   0.888
12014W        W84439  12.783  34.558   3.681
12015W        W84440  27.010   1.250   4.666
12016W        W84441  27.613   8.175  11.864
12017W        W84442   8.260  39.485  12.891
12018W        W84443  33.032   0.447   1.369
12019W        W84444  35.470  29.154   4.303
12020W        W84445  10.270  40.814  14.760
12021W        W84446  37.426  15.800   2.763
12022W        W84447  44.807  11.174  10.890
12023W        W84448  44.346  18.166  10.427
12024W        W84449  40.028  30.976   4.835
12025W        W84450  13.612  17.597   4.203
12026W        W84451  32.033  37.360  13.470
12027W        W84452  42.903   7.172   4.786
12028W        W84453  25.589  39.419   3.677
12029W        W84454   7.861   0.462   1.371
12030W        W84455  17.079  37.952  11.535
12031W        W84456  16.766  18.224   0.926
12032W        W84457  24.664  39.023  13.818
12033W        W84458  33.470  38.076   3.814
12034W        W84459  43.433  33.569  13.345
12035W        W84460  10.859  38.387   1.248
12036W        W84461  40.971  24.988   3.779
12037W        W84462  43.279  23.060  11.561
12038W        W84463  31.506  18.695  10.415
12039W        W84464  11.303  44.447   3.827
12040W        W84465   4.841  19.538   1.247
12041W        W84466  26.702  32.504   4.811
12042W        W84467  15.716  41.419   1.331
12043W        W84468   0.818  18.073   0.300
12044W        W84469  29.030  27.471  14.982
12045W        W84470  19.596  28.544   0.384
12046W        W84471  15.663  43.447  13.793
12047W        W84472   6.897  23.561   4.300
12048W        W84473  10.655  26.515   3.151
12049W        W84474  36.487  11.246   3.695
12050W        W84475  35.408  35.051   4.304
12051W        W84476  34.379   4.294   1.424
12052W        W84477   4.428  16.312  12.996
12053W        W84478  28.152  14.667  13.978
12054W        W84479  10.174   8.334  11.126
12055W        W84480  19.588   7.772   2.249
12056W        W84481   1.732   1.388  13.942
12057W        W84482  37.950  18.773  12.349
12058W        W84483  12.164  27.131   3.161
12059W        W84484   1.834  22.061  12.012
12060W        W84485  12.239  24.174  10.439
12061W        W84486  40.025  43.897   2.791
12062W        W84487   5.222  17.592   2.870
12063W        W84488  27.521  18.230  14.850
12064W        W84489  44.811  38.011  12.572
12065W        W84490  35.001   7.395  13.980
12066W        W84491   9.263  13.727  13.835
12067W        W84492  15.688  23.716   2.338
12068W        W84493  28.949  31.045   2.402
12069W        W84494  22.029  38.341  10.433
12070W        W84495   6.229  21.150  12.851
12071W        W84496   2.275  37.932  14.932
12072W        W84497  26.002  35.560   4.629
12073W        W84498  32.969   4.795   0.800
12074W        W84499  28.009  43.326  12.490
12075W        W84500  27.607  12.781  14.883
12076W        W84501  25.595  36.086   0.739
12077W        W84502  29.472  24.033  12.989
12078W        W84503  13.131   3.902  12.478
12079W        W84504   8.355  23.700  13.434
12080W        W84505  22.584  33.094   2.685
12081W        W84506   4.378  22.246  13.022
12082W        W84507  11.156  32.477  13.355
12083W        W84508  32.124  10.354  14.388
12084W        W84509   5.805  13.335   3.375
12085W        W84510  30.051   7.830   2.816
12086W        W84511  29.944  40.981  11.953
12087W        W84512  33.528  17.561  10.033
12088W        W84513  38.530  43.435   4.286
12089W        W84514  32.502  42.335  12.899
12090W        W84515  40.536   6.220  12.550
12091W        W84516  27.535  17.183  14.464
12092W        W84517  10.230   4.915  11.407
12093W        W84518  31.413  29.064  14.836
12094W        W84519  20.173  33.564  11.449
12095W        W84520   5.860  26.698  12.501
12096W        W84521  33.130   7.348   0.817
12097W        W84522   9.222   3.309   3.663
12098W        W84523  38.933  38.558   3.723
12099W        W84524   2.278   6.844  11.109
12100W        W84525  13.709  39.836  11.012
12101W        W84526   3.855  15.216   4.631
12102W        W84527  41.857  26.481   1.911
12103W        W84528  16.171   8.334  11.092
12104W        W84529  39.839   3.390   3.717
12105W        W84530   7.387  12.127  13.878
12106W        W84531   5.254   4.276   0.883
12107W        W84532  34.580  12.119  13.043
12108W        W84533  37.459   1.802  12.549
12109W        W84534  33.452  10.345   4.689
12110W        W84535  32.605   6.197   2.673
12111W        W84536  30.594  33.976   2.383
12112W        W84537  29.531  17.618  11.479
12113W        W84538   7.851   4.320  14.988
12114W        W84539  44.355  39.863   2.756
12115W        W84540  10.762  20.271   2.240
12116W        W84541  27.614  12.222   1.908
12117W        W84542   7.358  27.138   2.706
12118W        W84543  24.564  41.790   0.484
12119W        W84544  39.864  38.923  14.276
12120W        W84545  29.433  36.572   3.268
12121W        W84546  37.967   7.811  11.467
12122W        W84547  17.085  35.105   4.266
12123W        W84548  12.229  25.014  12.490
12124W        W84549  40.322  11.230  13.997
12125W        W84550  12.161  42.868  11.428
12126W        W84551   9.699  30.040   3.250
12127W        W84552  22.537  43.821  13.914
12128W        W84553  35.420   3.712   3.728
12129W        W84554   5.743  32.498  14.952
12130W        W84555  21.244   9.692  12.832
12131W        W84556  35.443  23.084   4.665
12132W        W84557  10.206   3.347   1.266
12133W        W84558   3.371  33.617   3.240
12134W        W84559  14.106  16.667   0.937
12135W        W84560  38.917  35.437   3.165
12136W        W84561  12.301  20.181   4.822
12137W        W84562  38.414  35.520   4.187
12138W        W84563   6.410   3.785  10.581
12139W        W84564  35.071  32.116   0.775
12140W        W84565  33.385  18.761  11.890
12141W        W84566  24.494  27.616   1.838
12142W        W84567  27.650   3.307  14.425
12143W        W84568  31.090  38.325  12.900
12144W        W84569   2.915  15.110  11.895
12145W        W84570  34.065  10.689  13.425
12146W        W84571  39.485   7.284  14.806
12147W        W84572  10.660  15.603  12.965
12148W        W84573  21.199  17.683  10.595
12149W        W84574  40.026  34.487   4.806
12150W        W84575  15.604   6.923   2.697
12151W        W84576  14.689  30.057   2.332
12152W        W84577  42.890   6.243   3.318
12153W        W84578  21.194  24.976  11.567
12154W        W84579  16.735   5.739   2.312
12155W        W84580  11.788  13.662   3.370
12156W        W84581  28.184  34.010   2.225
12157W        W84582  39.350  41.837   3.332
12158W        W84583  44.811  14.197  11.981
12159W        W84584  11.366  41.929   1.915
12160W        W84585   5.434  17.800  13.387
12161W        W84586   8.773  35.449  10.429
12162W        W84587  32.602   4.705  11.072
12163W        W84588  28.156  25.152  12.365
12164W        W84589  25.186  30.097  12.073
12165W        W84590  15.675   0.335   4.324
12166W        W84591  11.176  24.557   4.285
12167W        W84592  22.715   7.884  13.425
12168W        W84593  13.146  32.581   4.622
12169W        W84594   9.783  29.551  14.843
12170W        W84595  44.880  31.436  11.389
12171W        W84596   3.921  10.791   3.807
12172W        W84597   2.249  41.957  10.519
12173W        W84598   9.663  26.483  11.479
12174W        W84599  32.560  28.074  12.096
12175W        W84600  33.056  40.010   4.149
12176W        W84601  44.772   7.228   1.764
12177W        W84602  38.978   0.438   2.366
12178W        W84603  44.332  35.412   3.200
12179W        W84604  22.525  22.572   3.188
12180W        W84605  11.151  10.684  13.061
12181W        W84606  17.624  37.475   0.255
12182W        W84607  33.047  22.571  14.317
12183W        W84608   3.320  10.797  14.326
12184W        W84609  13.750   7.897  14.359
12185W        W84610  43.968  25.097  11.010
12186W        W84611  28.156  27.165  13.945
12187W        W84612   7.890   1.804   0.857
12188W        W84613   1.788  14.760   4.140
12189W        W84614  12.660  33.980   3.852
12190W        W84615  31.598  39.394  12.344
12191W        W84616  41.975  25.633   4.710
12192W        W84617  38.478   5.405   2.869
12193W        W84618  30.444  16.255  11.572
12194W        W84619  15.182   2.381   5.714
12195W        W84620  22.025  22.660   4.785
12196W        W84621  32.914  12.274   0.360
12197W        W84622  26.145  19.691  14.355
12198W        W84623  31.927  12.845   0.273
12199W        W84624  33.443  29.085   3.210
12200W        W84625  36.549   3.439  14.795
12201W        W84626   7.905  42.362  12.023
12202W        W84627  35.893  11.332   3.761
12203W        W84628   0.756   2.329   3.688
12204W        W84629  24.655  11.343  14.942
12205W        W84630   4.433  20.753  12.855
12206W        W84631  15.750  35.541   4.215
12207W        W84632   4.765  34.471  12.532
12208W        W84633   0.864  43.948  13.982
12209W        W84634   2.404  10.252   4.820
12210W        W84635  24.994   1.300   3.249
12211W        W84636  27.666  31.109   3.315
12212W        W84637  12.809  24.211   4.309
12213W        W84638  21.560   5.282   4.261
12214W        W84639  34.980  27.082   4.723
12215W        W84640  42.904  33.087  13.930
12216W        W84641  14.685  31.970   2.247
12217W        W84642  27.046   9.866  14.886
12218W        W84643  36.861   1.385  15.000
12219W        W84644   9.724  34.599   0.966
12220W        W84645   4.706  40.362   4.114
12221W        W84646  42.912   5.744   9.977
12222W        W84647  19.047  32.509  11.420
12223W        W84648  12.345  11.290   1.213
12224W        W84649  32.986   6.687   1.449
12225W        W84650  30.927  31.941  12.858
12226W        W84651  44.330  30.462  14.466
12227W        W84652  10.856   3.825   0.741
12228W        W84653  18.136  19.776  10.456
12229W        W84654  23.703  21.552   1.250
12230W        W84655  33.425   5.876   1.410
12231W        W84656  44.400  26.463  14.928
12232W        W84657  40.027  23.578  12.028
12233W        W84658  18.651  11.300   0.447
12234W        W84659  30.142   1.862  12.368
12235W        W84660  14.619  34.571   0.304
12236W        W84661   7.301  27.031   0.455
12237W        W84662  10.246  23.620  13.350
12238W        W84663  15.645  39.959  13.835
12239W        W84664  17.218  20.522  12.046
12240W        W84665  16.148  24.686   2.343
12241W        W84666  34.498   6.873   4.671
12242W        W84667  26.480   8.182   3.789
12243W        W84668  14.821  35.094   4.250
12244W        W84669  11.329  43.973   4.181
12245W        W84670  29.538  26.023   4.690
12246W        W84671  41.832   0.773  11.392
12247W        W84672  33.525  25.633  11.382
12248W        W84673  12.656   2.951  12.482
12249W        W84674  32.109  23.133  11.607
12250W        W84675   5.283  32.418   0.252
12251W        W84676  12.791  24.225   0.441
12252W        W84677  34.587  27.585   2.404
12253W        W84678  16.135  33.419  11.993
12254W        W84679  24.596  27.970   0.274
12255W        W84680  42.314  36.584   0.850
12256W        W84681  12.681  36.397  14.387
12257W        W84682  36.062  44.832  14.497
12258W        W84683  14.284  28.091   3.854
12259W        W84684  20.705  19.118   1.712
12260W        W84685   6.183   9.783  11.861
12261W        W84686  43.335  33.883  13.353
12262W        W84687   0.835  23.595  13.828
12263W        W84688  11.785   9.323   2.230
12264W        W84689  26.702  17.769   2.286
12265W        W84690  38.060  20.686   3.787
12266W        W84691  38.068  44.971  10.577
12267W        W84692  24.978  36.457   2.410
12268W        W84693  21.592  38.337  13.996
12269W        W84694  37.988  38.859  11.470
12270W        W84695  14.784  12.249   0.726
12271W        W84696   9.298  40.972  11.448
12272W        W84697  24.226  35.852   9.967
12273W        W84698  17.186  42.961  14.772
12274W        W84699  42.933  20.555   2.182
12275W        W84700  22.233  20.106   2.855
12276W        W84701  40.809  27.035  14.956
12277W        W84702  21.641  15.662   5.312
12278W        W84703  29.595   4.865   0.410
12279W        W84704  16.200  24.659   3.642
12280W        W84705  13.680  14.707   1.811
12281W        W84706  24.629  27.642   1.435
12282W        W84707  18.603   3.784   4.746
12283W        W84708  40.953  23.241   3.272
12284W        W84709  38.558   6.276   4.191
12285W        W84710  19.122  39.359  13.912
12286W        W84711  13.720   8.875   4.272
12287W        W84712  28.140  15.085  11.862
12288W        W84713  23.579  24.110   1.835
12289W        W84714  14.619  43.909  11.886
12290W        W84715  35.059  18.673  14.773
12291W        W84716  36.957  31.990  14.968
12292W        W84717  29.031   4.777   2.741
12293W        W84718  12.272   1.402  11.472
12294W        W84719  11.827  22.037   5.576
12295W        W84720  12.675  28.581   2.714
12296W        W84721  42.844  26.622  13.394
12297W        W84722   6.714  34.528   0.338
12298W        W84723  41.905  18.546   2.736
12299W        W84724   0.420  12.664  13.540
12300W        W84725  42.945  18.687  11.438
12301W        W84726  28.547  20.584  14.461
12302W        W84727   4.224  31.647  11.430
12303W        W84728  17.730  15.136  13.394
12304W        W84729  33.583   5.415   0.785
12305W        W84730  10.273  36.022  13.931
12306W        W84731  44.757  40.473  11.383
12307W        W84732   7.763  43.817  14.433
12308W        W84733  42.857  41.501   4.249
12309W        W84734  19.168  31.968   2.391
12310W        W84735  31.042  33.495   0.277
12311W        W84736  26.517  19.571   3.204
12312W        W84737   5.710  10.764  10.449
12313W        W84738  35.945   7.223   4.722
12314W        W84739  37.346  39.534   3.266
12315W        W84740  21.575   1.281  12.090
12316W        W84741  22.561   5.896  11.071
12317W        W84742  25.132  16.585   0.402
12318W        W84743  15.192   2.763   9.570
12319W        W84744  12.737   7.362  14.923
12320W        W84745  22.502  17.728  13.420
12321W        W84746  31.484  43.022  14.476
12322W        W84747  22.148   4.815  12.080
12323W        W84748  14.680   4.372   1.448
12324W        W84749  19.129  18.267  14.414
12325W        W84750  14.218  15.667   5.158
12326W        W84751  11.274  26.582   2.322
12327W        W84752  31.933  18.287  13.895
12328W        W84753  30.503  29.122   2.387
12329W        W84754   4.940  35.975   1.823
12330W        W84755   4.363  44.433  13.794
12331W        W84756  39.817  11.690   0.356
12332W        W84757  43.504  42.922  14.804
12333W        W84758  24.556  33.520  14.331
12334W        W84759  27.108  38.933   4.215
12335W        W84760  33.889  34.437  12.446
12336W        W84761  42.457  16.727   0.966
12337W        W84762  11.716  22.732   1.302
12338W        W84763  24.185  20.065   4.602
12339W        W84764  38.489  43.285  11.592
12340W        W84765  37.958  32.008  11.940
12341W        W84766  11.719   8.729  11.527
12342W        W84767   6.427  10.854  14.898
12343W        W84768  15.663  37.055  13.903
12344W        W84769  31.930  23.693   0.780
12345W        W84770   7.372  36.383   4.317
12346W        W84771   1.449   9.706   1.878
12347W        W84772  16.655  31.142  14.338
12348W        W84773   8.847   1.405  11.424
12349W        W84774  28.937  22.681   4.134
12350W        W84775  15.802  29.611  13.887
12351W        W84776  37.502  33.018   1.444
12352W        W84777  14.135  25.632   4.175
12353W        W84778  23.100  21.185   4.188
12354W        W84779   9.882   0.789   1.250
12355W        W84780  12.744  23.520  12.887
12356W        W84781  43.799   6.383   1.431
12357W        W84782  22.643  19.559  10.548
12358W        W84783  29.597  20.663   3.632
12359W        W84784  25.083  35.977   0.862
12360W        W84785  34.387  20.711  11.441
12361W        W84786  26.643  23.029  10.554
12362W        W84787  21.071  19.594   2.666
12363W        W84788   5.283   1.788   2.775
12364W        W84789  20.243  31.043  13.354
12365W        W84790  25.005  23.556   4.313
12366W        W84791  27.138  17.582  14.344
12367W        W84792  23.095  20.120   1.930
12368W        W84793  20.097  28.534   3.285
12369W        W84794  12.717  18.730  10.973
12370W        W84795  13.783  17.067  11.047
12371W        W84796  25.028  12.334   0.339
12372W        W84797   0.321  10.148  10.954
12373W        W84798  44.305  27.116   2.299
12374W        W84799  15.120  34.419  13.504
12375W        W84800  20.767   9.858  12.017
12376W        W84801  34.588  16.292   0.454
12377W        W84802  27.057  20.736   1.709
12378W        W84803   3.348   4.742   3.728
12379W        W84804   5.329  12.810   1.893
12380W        W84805  22.581  37.464   4.773
12381W        W84806  15.195   0.780   1.322
12382W        W84807  21.712  30.437   2.306
12383W        W84808  20.111  20.229   2.762
12384W        W84809  28.672  22.100   4.816
12385W        W84810  12.757   1.816  13.361
12386W        W84811  40.420  29.464   2.748
12387W        W84812  22.587  31.093   3.341
12388W        W84813  42.822  41.999   1.787
12389W        W84814  28.583  44.785  11.864
12390W        W84815  41.393  31.899   1.825
12391W        W84816   5.811  31.911   3.311
12392W        W84817  20.533  11.314  13.977
12393W        W84818  40.974  13.278   3.377
12394W        W84819  33.412  31.418  10.412
12395W        W84820  27.125  32.577  12.419
12396W        W84821  16.776  17.610  10.994
12397W        W84822   6.726  14.652  14.924
12398W        W84823  28.671   4.368   1.253
12399W        W84824  15.282  31.410   4.603
12400W        W84825  38.433  28.452   2.699
12401W        W84826  26.547  36.864  11.379
12402W        W84827  36.843  17.234  14.379
12403W        W84828   9.801  27.073  14.451
12404W        W84829   9.822  41.881   3.209
12405W        W84830  32.556   5.278  13.355
12406W        W84831  21.032  31.915  12.039
12407W        W84832   5.853  13.232   1.832
12408W        W84833  16.309  19.691   1.340
12409W        W84834  32.568  21.143  14.807
12410W        W84835   0.839  40.390   2.242
12411W        W84836  39.314  42.951  10.895
12412W        W84837  24.025  14.232   2.830
12413W        W84838  39.481  40.317  10.434
12414W        W84839   9.818   4.865   4.813
12415W        W84840  17.145  21.172  14.930
12416W        W84841   5.752   8.870   4.796
12417W        W84842  12.641  38.881   1.803
12418W        W84843  20.733  19.716   1.216
12419W        W84844  10.147  42.447   4.695
12420W        W84845  19.747  41.918  12.400
12421W        W84846  37.405  41.988   4.827
12422W        W84847  26.592  33.968   2.379
12423W        W84848  25.650  44.262   3.309
12424W        W84849  17.267  28.140  12.544
12425W        W84850  16.658  28.631   4.661
12426W        W84851  18.238  40.014  10.955
12427W        W84852  22.133  14.595  11.613
12428W        W84853  22.730  40.840  10.485
12429W        W84854  16.738  16.086   0.803
12430W        W84855  39.862  39.833   3.288
12431W        W84856  35.946  30.099   2.409
12432W        W84857  10.862  14.676   0.939
12433W        W84858   5.345  15.697   9.997
12434W        W84859   5.850  43.390   1.856
12435W        W84860   4.943  26.489  14.924
12436W        W84861  20.048  35.951   2.414
12437W        W84862  43.408  18.074  13.400
12438W        W84863  25.498  36.927  13.401
12439W        W84864   5.852  39.950  14.899
12440W        W84865  12.277  44.269   0.731
12441W        W84866  10.686   5.379  13.881
12442W        W84867   8.219  41.030   1.908
12443W        W84868  34.923   1.766  11.868
12444W        W84869   5.357  40.547  12.936
12445W        W84870  36.479   6.749   4.233
12446W        W84871  25.616   8.279  11.410
12447W        W84872  38.920   4.262  13.452
12448W        W84873  33.970  25.673   3.264
12449W        W84874  37.499   2.808  12.509
12450W        W84875  20.133   3.711   1.756
12451W        W84876  29.463  30.143  11.499
12452W        W84877  19.715  22.019  13.040
12453W        W84878  43.810  41.357  11.112
12454W        W84879  21.722  41.986  12.078
12455W        W84880  10.304   2.241  12.463
12456W        W84881  15.236  17.649  12.410
12457W        W84882  33.539  26.067   4.295
12458W        W84883  42.458  28.622  14.306
12459W        W84884  44.899  24.546  11.115
12460W        W84885  14.676  33.116   5.568
12461W        W84886  25.039  40.006   3.263
12462W        W84887  20.565  25.174  10.444
12463W        W84888  22.641  12.695   4.690
12464W        W84889   2.391  41.036  13.526
12465W        W84890   4.293  32.084   3.777
12466W        W84891  21.229  34.996  11.452
12467W        W84892  26.481   4.820  14.343
12468W        W84893  28.005   5.748   2.711
12469W        W84894  29.517  37.952   1.711
12470W        W84895  42.377  26.096  10.584
12471W        W84896   4.344   8.189   1.438
12472W        W84897  26.492  17.746  10.519
12473W        W84898  34.563  35.975   2.787
12474W        W84899   2.784  10.296   3.249
12475W        W84900   6.423  11.844  14.770
12476W        W84901  31.420   4.833  10.444
12477W        W84902  43.888  13.227  14.285
12478W        W84903  23.509  31.613   4.705
12479W        W84904  39.012  21.188  14.280
12480W        W84905   1.757  33.610   1.285
12481W        W84906   2.318  20.116  12.375
12482W        W84907  26.469  30.103  13.375
12483W        W84908  32.454  18.247  13.939
12484W        W84909   7.808  10.228  10.624
12485W        W84910  30.101  29.009   2.382
12486W        W84911  34.878  38.337   2.848
12487W        W84912  25.989  30.975   1.403
12488W        W84913  16.102  29.508  10.908
12489W        W84914  18.082  35.020  13.391
12490W        W84915  12.249  36.081   4.295
12491W        W84916  14.307  39.955   3.814
12492W        W84917   1.736  17.644  13.538
12493W        W84918   8.770  34.522   1.385
12494W        W84919  17.785  10.211   3.729
12495W        W84920  25.600  11.350  14.431
12496W        W84921  35.907  15.285  14.007
12497W        W84922   2.844  29.034   1.375
12498W        W84923  26.046  30.016  13.911
12499W        W84924   1.272  36.449   0.388
12500W        W84925  41.877   5.915   1.854
12501W        W84926  25.514  24.998   2.295
12502W        W84927  34.985  10.189  11.403
12503W        W84928  19.770  18.571   3.850
12504W        W84929  18.609   5.765   3.869
12505W        W84930  11.338  18.670  12.963
12506W        W84931  10.861  35.546  11.546
12507W        W84932   7.911  36.568  10.461
12508W        W84933   4.927   2.280  10.502
12509W        W84934  37.012  39.989  11.106
12510W        W84935  32.421  34.501   2.348
12511W        W84936  29.029  15.811   4.782
12512W        W84937  20.704   3.712   0.451
12513W        W84938  16.214  23.560  10.890
12514W        W84939   1.820  23.165   4.751
12515W        W84940  23.596  27.976  14.303
12516W        W84941  16.638  27.486   4.206
12517W        W84942  42.013  23.630   1.750
12518W        W84943  31.440  41.407   2.219
12519W        W84944  43.855   7.319  12.854
12520W        W84945   0.406  36.978   0.325
12521W        W84946   1.782  41.017  12.390
12522W        W84947  43.006  31.940  11.950
12523W        W84948  23.999  38.356  14.320
12524W        W84949  25.485  36.049  12.459
12525W        W84950   0.960  44.469  11.974
12526W        W84951   8.161   0.371  11.945
12527W        W84952   1.785  20.258   2.372
12528W        W84953  38.353  38.918  13.391
12529W        W84954  36.865  36.518  11.048
12530W        W84955  14.718  13.300   2.706
12531W        W84956   8.398   6.237   3.224
12532W        W84957   4.386  19.086   0.247
12533W        W84958   7.734  33.955  12.573
12534W        W84959  34.586  17.103   2.351
12535W        W84960  21.239  31.017   3.365
12536W        W84961   6.394  17.750  10.137
12537W        W84962  16.795  28.080  13.455
12538W        W84963  24.211  17.719   4.309
12539W        W84964  41.417  40.541  14.351
12540W        W84965  36.557  38.943   3.175
12541W        W84966  28.471  22.178  14.294
12542W        W84967  27.646  40.404   0.449
12543W        W84968  24.997  36.481  12.452
12544W        W84969   0.256  31.055   1.899
12545W        W84970  23.048  22.557   4.782
12546W        W84971  11.711  24.166  13.063
12547W        W84972  39.440  10.718   3.700
12548W        W84973   7.309   4.267   4.715
12549W        W84974   2.932  44.946   1.910
12550W        W84975   0.358  19.681   0.316
12551W        W84976  34.941  29.628   3.760
12552W        W84977  42.286  29.427   2.885
12553W        W84978  33.918  36.542   3.358
12554W        W84979  29.457  39.421   0.308
12555W        W84980  27.527  16.072   0.836
12556W        W84981  44.343  34.489   0.337
12557W        W84982  11.170   7.257  14.842
12558W        W84983  15.618   9.813  14.389
12559W        W84984   6.918   7.358  12.868
12560W        W84985   3.277  27.131   3.355
12561W        W84986  16.661  15.085   0.269
12562W        W84987  26.475  17.073   1.305
12563W        W84988  23.582  17.769  12.061
12564W        W84989  42.395  23.692  14.464
12565W        W84990  24.541  41.821  14.769
12566W        W84991  27.455  36.064   3.855
12567W        W84992  14.257  18.089  14.456
12568W        W84993  16.586  43.884  12.546
12569W        W84994  19.629   2.278   1.232
12570W        W84995  35.461   1.379  12.532
12571W        W84996  13.168  20.235   2.254
12572W        W84997  10.716  38.956   1.715
12573W        W84998  29.442  41.361   2.312
12574W        W84999  13.843  30.918  13.973
12575W        W85000  19.709  18.275  13.387
12576W        W85001   6.340  40.318   3.743
12577W        W85002  41.988  14.657  12.534
12578W        W85003  28.946  11.144   4.233
12579W        W85004  34.069  30.967  14.436
12580W        W85005  34.607  44.822  11.076
12581W        W85006  15.183  43.005   3.317
12582W        W85007   3.325  29.018  12.042
12583W        W85008  38.384  18.093  10.605
12584W        W85009   5.354   0.411  10.621
12585W        W85010  39.546   3.840  10.889
12586W        W85011  11.198  29.100   1.885
12587W        W85012  27.566  26.697   0.387
12588W        W85013  42.012  21.514   2.721
12589W        W85014  23.648  43.974  12.485
12590W        W85015  26.172  19.213   1.866
12591W        W85016  32.548  33.385   4.271
12592W        W85017  34.428  24.672   3.172
12593W        W85018  40.992  40.971  11.021
12594W        W85019   0.801  33.973  10.116
12595W        W85020  36.580  18.134  14.506
12596W        W85021  15.091  28.934  13.868
12597W        W85022  19.707  41.432   4.222
12598W        W85023   3.365  21.592   0.462
12599W        W85024   2.925   9.824  12.524
12600W        W85025  30.997  28.154  14.926
12601W        W85026  22.182  16.651   0.253
12602W        W85027  28.609   0.901   2.275
12603W        W85028  11.816  25.532   1.376
12604W        W85029  34.455   8.891  13.923
12605W        W85030   7.217  25.202   2.400
12606W        W85031  22.020  13.317   0.397
12607W        W85032  21.046   1.808  12.031
12608W        W85033  13.298  31.027   0.434
12609W        W85034  35.876  43.800   3.738
12610W        W85035  27.063  33.908  12.374
12611W        W85036   8.828  31.137  10.409
12612W        W85037  12.303  39.894  11.884
12613W        W85038  35.992  43.494   0.482
12614W        W85039  31.589  43.273  12.960
12615W        W85040  32.935  24.216   0.326
12616W        W85041  38.037  19.283   1.263
12617W        W85042   4.798  27.196   3.208
12618W        W85043  43.286  28.508   4.798
12619W        W85044  31.899  28.117   4.306
12620W        W85045  40.880   3.356  12.440
12621W        W85046  42.470   7.220  14.302
12622W        W85047  30.453   0.923  12.948
12623W        W85048  30.106  41.981   0.753
12624W        W85049  43.905  30.472   1.842
12625W        W85050  15.295  29.160   2.259
12626W        W85051  44.864  39.487   3.189
12627W        W85052  31.152  23.561  13.043
12628W        W85053  15.190   1.812  14.758
12629W        W85054   7.221  15.702  14.871
12630W        W85055   2.892  17.198  10.622
12631W        W85056   5.719  43.412  13.954
12632W        W85057  19.190  26.123   1.914
12633W        W85058   6.231  24.107  11.535
12634W        W85059  17.163  34.996   0.955
12635W        W85060  44.347  41.904   1.914
12636W        W85061   0.868  22.691  11.924
12637W        W85062  40.406   0.870  10.593
12638W        W85063   3.927  17.753  14.762
12639W        W85064   1.809   1.813  12.049
12640W        W85065  22.095   6.849  14.916
12641W        W85066   6.678  23.992  10.442
12642W        W85067  38.970  42.350  10.071
12643W        W85068  33.098  44.965   1.889
12644W        W85069  35.509  16.650   1.440
12645W        W85070  28.048  37.467   4.640
12646W        W85071  15.584  38.550  10.602
12647W        W85072   9.204  18.075   2.180
12648W        W85073  13.149  19.188  10.898
12649W        W85074  29.152  10.787   4.338
12650W        W85075  37.882  15.609   4.739
12651W        W85076  27.965  12.719  12.570
12652W        W85077  39.455  41.325  14.867
12653W        W85078  32.474  14.229   3.324
12654W        W85079   0.362  36.439   3.215
12655W        W85080   5.892  29.609   0.290
12656W        W85081   5.848  32.090  10.983
12657W        W85082  28.457  43.447  12.554
12658W        W85083  24.012  20.101   1.446
12659W        W85084  43.341  29.442  13.457
12660W        W85085  12.129  16.745   1.919
12661W        W85086  19.091  23.007   2.308
12662W        W85087  26.125  16.302  10.617
12663W        W85088   3.747   5.409  14.403
12664W        W85089   7.874   5.800   0.968
12665W        W85090  34.951   3.221   0.769
12666W        W85091  18.098  22.558  10.502
12667W        W85092  40.480  37.440   4.228
12668W        W85093  38.363  28.125   1.731
12669W        W85094  43.394  26.545   2.877
12670W        W85095  38.905  42.356   4.678
12671W        W85096  23.602   3.802  14.347
12672W        W85097  41.333  15.139  11.979
12673W        W85098  27.012   7.212   4.186
12674W        W85099  44.944   3.871  12.932
12675W        W85100  38.454   2.754  14.497
12676W        W85101  44.795  22.137   4.816
12677W        W85102  18.693  15.188   3.841
12678W        W85103  12.355  18.080  14.854
12679W        W85104  34.597  37.407  12.058
12680W        W85105   2.961  30.159  13.509
12681W        W85106  30.957  30.503   1.338
12682W        W85107  26.607  34.526  14.845
12683W        W85108   1.387   2.893  14.286
12684W        W85109  11.252  42.794   1.404
12685W        W85110  27.639  27.531   1.912
12686W        W85111   6.839  26.683  10.430
12687W        W85112   2.283  32.596   2.708
12688W        W85113  20.151  12.736  12.941
12689W        W85114  20.152  10.859   4.828
12690W        W85115  15.137  33.963  13.443
12691W        W85116  42.894   1.827   1.896
12692W        W85117  18.288  22.559   1.324
12693W        W85118   7.824   6.694  11.940
12694W        W85119  20.205  34.962   3.167
12695W        W85120  43.450  16.138   2.804
12696W        W85121  35.371   6.886  14.948
12697W        W85122  25.628  28.447   2.252
12698W        W85123   6.715   7.241   4.255
12699W        W85124  42.782   9.367   1.847
12700W        W85125   5.347  17.146   0.321
12701W        W85126  16.265  42.026  12.344
12702W        W85127  43.972  25.533  11.386
12703W        W85128  27.543  33.130  14.857
12704W        W85129   7.786  39.471   2.683
12705W        W85130  19.702  12.774  11.563
12706W        W85131   1.907  21.244  11.121
12707W        W85132  15.122  31.575   3.337
12708W        W85133   1.907   0.831   4.652
12709W        W85134  43.006  24.669   3.815
12710W        W85135  33.898   1.784  13.049
12711W        W85136  22.109  33.022  10.459
12712W        W85137  39.535  27.477  10.463
12713W        W85138  32.908   8.890   2.821
12714W        W85139  41.449  16.715   0.332
12715W        W85140  42.933  25.218   4.191
12716W        W85141  42.001  42.877  12.552
12717W        W85142  24.011  28.965  13.921
12718W        W85143  13.626   2.469   4.323
12719W        W85144  38.976  27.588  10.911
12720W        W85145  25.206   3.347   1.868
12721W        W85146  18.197  35.929   2.696
12722W        W85147  16.594  30.960   3.637
12723W        W85148  35.059   0.988  10.486
12724W        W85149  20.582  34.498  11.072
12725W        W85150   2.785  42.361   0.850
12726W        W85151  13.138  25.640   3.326
12727W        W85152   1.751  11.751   3.154
12728W        W85153  15.287  27.036   4.194
12729W        W85154  36.585   6.849   3.181
12730W        W85155  26.134   5.345  12.545
12731W        W85156   2.226  29.119  12.475
12732W        W85157  35.900   0.258  13.447
12733W        W85158  26.675  38.450  12.906
12734W        W85159  28.037  32.015  10.531
12735W        W85160   5.786  35.956   3.320
12736W        W85161  37.835  44.409   0.943
12737W        W85162  31.008  38.824  14.776
12738W        W85163  15.725  26.009   1.370
12739W        W85164  21.235  13.202   1.887
12740W        W85165   2.406   4.870  14.276
12741W        W85166   4.937  21.598   5.170
12742W        W85167  38.922  20.526   4.785
12743W        W85168  30.097  14.628  11.909
12744W        W85169  16.199   3.329  13.499
12745W        W85170   9.842  35.473   0.933
12746W        W85171   9.343  31.601  14.809
12747W        W85172  43.511  31.041   2.356
12748W        W85173  33.570   9.819   0.873
12749W        W85174  38.074  13.151  11.479
12750W        W85175  36.995  31.581   3.775
12751W        W85176  27.585  11.259   4.190
12752W        W85177  35.537  17.071   3.685
12753W        W85178  10.856  28.137   2.858
12754W        W85179  43.391   5.739   4.816
12755W        W85180  44.997  21.149  11.427
12756W        W85181  36.886   3.766   2.222
12757W        W85182   3.725  21.220  12.369
12758W        W85183  36.396  32.021   0.372
12759W        W85184   2.257   8.274  12.067
12760W        W85185  30.444  10.877  13.053
12761W        W85186  22.104   6.313  13.402
12762W        W85187  28.482   1.338   4.828
12763W        W85188   0.330  19.190   1.315
12764W        W85189  32.035  40.051   1.737
12765W        W85190   5.729   4.944   2.333
12766W        W85191   5.834  37.906  13.943
12767W        W85192  43.871   6.896   0.931
12768W        W85193  13.309   9.351   1.294
12769W        W85194  41.362   2.445  13.051
12770W        W85195   0.414  35.418  13.822
12771W        W85196  40.008  22.542  14.016
12772W        W85197  17.556  18.214  14.858
12773W        W85198  43.313  11.648  13.840
12774W        W85199  13.137  32.118  11.012
12775W        W85200  10.254   3.808  12.915
12776W        W85201  22.637  41.800   1.772
12777W        W85202   5.888  41.982  11.942
12778W        W85203  35.880  16.632   1.389
12779W        W85204  43.391   0.451   2.863
12780W        W85205  25.478   2.426  12.498
12781W        W85206  36.992  44.852  14.956
12782W        W85207  29.147  20.271   0.467
12783W        W85208  31.970  44.977   2.857
12784W        W85209  17.783  39.975   3.865
12785W        W85210  35.019  26.087  13.495
12786W        W85211  13.311   0.758   0.930
12787W        W85212   3.366  36.988   4.748
12788W        W85213  39.890   8.748   3.812
12789W        W85214  14.773  33.927   3.754
12790W        W85215   4.303  43.868  10.551
12791W        W85216  35.881  21.609  10.902
12792W        W85217  18.096  24.531   4.612
12793W        W85218   7.672  35.438  14.835
12794W        W85219  43.342  32.044   3.822
12795W        W85220  11.249  39.414  12.524
12796W        W85221  22.010  18.665  12.493
12797W        W85222  40.895  14.656  10.498
12798W        W85223  40.512  44.996   3.652
12799W        W85224   9.177   4.894  11.938
12800W        W85225   5.847  43.505  11.583
12801W        W85226  18.582  10.742   2.412
12802W        W85227  17.117  36.572  12.864
12803W        W85228  30.925  42.503   4.136
12804W        W85229  21.576  14.173  10.422
12805W        W85230  15.770  23.694   4.287
12806W        W85231  41.963  38.523  10.907
12807W        W85232  22.092  15.287   3.304
12808W        W85233  26.587  26.638  13.433
12809W        W85234  26.165  12.325  14.497
12810W        W85235  32.578  42.987  12.550
12811W        W85236  12.269  10.645  12.534
12812W        W85237  35.059   7.681  14.500
12813W        W85238  32.971   1.359   0.385
12814W        W85239   4.242   5.370   3.371
12815W        W85240  34.493   4.722   2.693
12816W        W85241   8.362  12.133  14.372
12817W        W85242  24.985  34.953  13.435
12818W        W85243  30.559  13.109   4.601
12819W        W85244  38.366  29.977  10.573
12820W        W85245  11.845   7.379   1.717
12821W        W85246  14.683  24.998  14.341
12822W        W85247  20.146  32.008   9.930
12823W        W85248  32.504  38.944  14.957
12824W        W85249  41.401   7.849   0.860
12825W        W85250   5.783  17.103  11.051
12826W        W85251  30.638  32.512  12.411
12827W        W85252   3.262  14.606  10.480
12828W        W85253   0.286  38.010  12.907
12829W        W85254  19.694   4.813   0.390
12830W        W85255  38.451   0.768  14.496
12831W        W85256  26.991   3.437   4.148
12832W        W85257  41.503  28.478  12.347
12833W        W85258  17.604  26.557  14.799
12834W        W85259  19.534  36.442  14.867
12835W        W85260  19.586  29.132  12.046
12836W        W85261  43.320  12.798  13.791
12837W        W85262   4.815  31.554  11.505
12838W        W85263  11.711  37.538  10.891
12839W        W85264   4.292  33.624  12.922
12840W        W85265  33.499  14.100   4.354
12841W        W85266   9.666  26.530  14.455
12842W        W85267  11.192  31.616  11.099
12843W        W85268   1.797  30.908  10.599
12844W        W85269  38.059   5.856  12.029
12845W        W85270  36.889  33.428   1.804
12846W        W85271  21.514  29.066  14.494
12847W        W85272   9.662  17.267   4.788
12848W        W85273  16.293  36.390  14.301
12849W        W85274  21.092  14.687  11.573
12850W        W85275  42.414  10.250  14.959
12851W        W85276  27.548  15.776  14.024
12852W        W85277  41.996  38.413   3.274
12853W        W85278  42.900   3.245   3.360
12854W        W85279  37.447  11.277  11.906
12855W        W85280   9.161   8.271   1.259
12856W        W85281  17.566  26.636  11.933
12857W        W85282  34.025  16.103   3.725
12858W        W85283  27.687  28.545   3.366
12859W        W85284   1.878  17.696  12.083
12860W        W85285  41.018  21.049  14.354
12861W        W85286  26.554  40.324  12.883
12862W        W85287  23.656  27.448   0.822
12863W        W85288  28.085  23.026  13.882
12864W        W85289  12.214  15.701  12.947
12865W        W85290  15.315  33.426   2.393
12866W        W85291  16.656  14.744   4.242
12867W        W85292  41.296  29.453   0.741
12868W        W85293  41.348  23.040   0.807
12869W        W85294  37.517   9.812   2.307
12870W        W85295   5.291  14.671  10.922
12871W        W85296  22.619   3.362  11.470
12872W        W85297  20.754  28.015   1.792
12873W        W85298  13.681   9.273  11.484
12874W        W85299  11.762  32.427  10.989
12875W        W85300  29.468  10.682  12.837
12876W        W85301   8.326  21.047  14.772
12877W        W85302  27.134  11.777   3.343
12878W        W85303  12.769  40.052   0.272
12879W        W85304  22.039  44.803  13.446
12880W        W85305  39.330  19.723   2.207
12881W        W85306  43.900  13.614  14.443
12882W        W85307  23.705   1.757   2.404
12883W        W85308   1.365  24.098   4.756
12884W        W85309  31.931  19.641  11.435
12885W        W85310  43.440  11.299   1.374
12886W        W85311  25.217  36.462   3.282
12887W        W85312  27.998  41.010  13.935
12888W        W85313  42.800   4.294   2.687
12889W        W85314   6.355  40.340  12.393
12890W        W85315  12.619  16.621  12.376
12891W        W85316  35.548  18.755   0.743
12892W        W85317  38.000  20.201  10.640
12893W        W85318  42.781   4.327  11.494
12894W        W85319  25.968  25.711  14.454
12895W        W85320  14.698  27.089  12.339
12896W        W85321  35.047  34.454  13.512
12897W        W85322  17.615  35.601  13.891
12898W        W85323  40.990  34.942  14.998
12899W        W85324  41.509  17.185   1.710
12900W        W85325  43.276  16.102   4.618
12901W        W85326  30.916  19.060   1.842
12902W        W85327   5.748  37.416   0.800
12903W        W85328  18.273  34.586   4.129
12904W        W85329  44.828  29.669  11.560
12905W        W85330  15.774   1.737  11.918
12906W        W85331   3.938   4.341   2.811
12907W        W85332  17.086  21.046  10.990
12908W        W85333  27.548  38.974   1.808
12909W        W85334  40.507  17.615  12.463
12910W        W85335   4.222  33.049  13.878
12911W        W85336  43.490  38.365  12.536
12912W        W85337  17.688  43.291   1.264
12913W        W85338  34.012   8.748  13.815
12914W        W85339  17.633   3.793  12.992
12915W        W85340  41.430  14.602  14.792
12916W        W85341  16.792  41.834   4.163
12917W        W85342  19.057  21.571   0.900
12918W        W85343   8.852  21.602   2.883
12919W        W85344  33.032  23.698   4.798
12920W        W85345  26.998  34.906   1.272
12921W        W85346  39.064   6.712   3.767
12922W        W85347  44.931  28.072   1.306
12923W        W85348   3.312   6.257  14.971
12924W        W85349   3.234  36.898   4.176
12925W        W85350   0.907   8.743   0.391
12926W        W85351  17.208   8.879  10.971
12927W        W85352  12.683  22.600   4.705
12928W        W85353   3.949  36.981  10.919
12929W        W85354  32.448  42.318  14.835
12930W        W85355   1.478  15.287  11.079
12931W        W85356  27.057  37.890  14.460
12932W        W85357  16.165   3.321  10.618
12933W        W85358  27.055  22.180  11.492
12934W        W85359  27.528  31.644   9.630
12935W        W85360   0.954   3.714   1.818
12936W        W85361  43.996  34.514   5.271
12937W        W85362   5.205  28.057  14.817
12938W        W85363  15.715  30.505   0.759
12939W        W85364  43.370  32.548   2.853
12940W        W85365  27.446  15.184  14.786
12941W        W85366   0.953   5.924  11.963
12942W        W85367  17.759  44.779  13.008
12943W        W85368  35.489   5.827   1.738
12944W        W85369  10.837  30.945   3.764
12945W        W85370  42.466  42.434  13.917
12946W        W85371   6.742  41.386  12.390
12947W        W85372  18.121  25.512   2.737
12948W        W85373  33.131  40.033   3.735
12949W        W85374  31.086  39.394   9.956
12950W        W85375  28.637  42.963   3.731
12951W        W85376  14.181  32.118  11.973
12952W        W85377  33.580  22.144   2.377
12953W        W85378  10.763   9.154   0.435
12954W        W85379   0.474  17.092  11.899
12955W        W85380  27.166   5.890  11.406
12956W        W85381  20.047  39.809  11.881
12957W        W85382  10.303   1.414   4.671
12958W        W85383   4.846   1.904   3.382
12959W        W85384  20.708  21.253  12.015
12960W        W85385   9.182  19.049  10.489
12961W        W85386  43.309  31.146   0.349
12962W        W85387  40.830  25.064  12.570
12963W        W85388   2.299  32.399   4.230
12964W        W85389  13.297  42.389   1.724
12965W        W85390   6.406  33.034  10.920
12966W        W85391  33.443   3.955   3.355
12967W        W85392  26.567  32.585   2.330
12968W        W85393  40.469  21.055  14.409
12969W        W85394  25.097  11.796  13.399
12970W        W85395  35.500  27.078   4.792
12971W        W85396   7.408  43.473  10.892
12972W        W85397   2.396  35.056   5.102
12973W        W85398  34.068  19.118  10.963
12974W        W85399  33.941  19.696   3.349
12975W        W85400  44.834  14.316   1.915
12976W        W85401  32.082  16.674   2.831
12977W        W85402   5.323  14.771  14.508
12978W        W85403  13.680  44.824   3.208
12979W        W85404  36.902  26.514   3.806
12980W        W85405  42.339  16.078   0.784
12981W        W85406  17.769  29.510   3.862
12982W        W85407  32.405  27.164   0.350
12983W        W85408   4.360  35.989   0.791
12984W        W85409  36.004  18.239   0.926
12985W        W85410  14.628   1.361   0.453
12986W        W85411  39.866  44.459   3.722
12987W        W85412  29.114   0.849  13.919
12988W        W85413  36.347  44.413  14.979
12989W        W85414  39.977  12.812  14.925
12990W        W85415  14.138  31.486   0.394
12991W        W85416  33.878  21.179  13.999
12992W        W85417   1.390   6.411   3.348
12993W        W85418  10.658  24.983   3.739
12994W        W85419   1.306  25.083  10.644
12995W        W85420  36.021   4.915  11.516
12996W        W85421  15.143  27.512  12.349
12997W        W85422  42.447  44.398   4.600
12998W        W85423  34.028  23.668   2.374
12999W        W85424  24.514  15.325  13.969
13000W        W85425  10.195  10.659   1.375
13001W        W85426  11.830  34.928   0.925
13002W        W85427  35.545  26.116  11.000
13003W        W85428   4.733  26.648  10.439
13004W        W85429  38.390   2.879   3.672
13005W        W85430  20.113  21.255  12.051
13006W        W85431  40.548   9.671  11.967
13007W        W85432  43.314  23.023  13.037
13008W        W85433  18.094  23.664  13.382
13009W        W85434   3.897  25.085  12.544
13010W        W85435  19.056  34.922   4.637
13011W        W85436  37.917  42.869  10.061
13012W        W85437  39.909  40.365  10.483
13013W        W85438  21.663  17.163  10.443
13014W        W85439  32.575   6.428  12.930
13015W        W85440  36.991   5.792   4.715
13016W        W85441  11.814  11.865  14.437
13017W        W85442  11.335  23.191   0.874
13018W        W85443  14.336  25.531  14.510
13019W        W85444  42.847  19.668  10.595
13020W        W85445  39.380  10.817  10.932
13021W        W85446   4.289  19.257   2.371
13022W        W85447   0.933   2.466   3.232
13023W        W85448  44.479  36.077  12.943
13024W        W85449  24.063  22.658  12.410
13025W        W85450   4.805  14.117  14.797
13026W        W85451  15.651  40.544  11.870
13027W        W85452   7.296  37.997   2.216
13028W        W85453  25.546   8.735  12.852
13029W        W85454  37.399  33.552  14.489
13030W        W85455  12.350  10.181   3.145
13031W        W85456   7.242  25.111   1.442
13032W        W85457  31.015  13.244  12.409
13033W        W85458  25.624  40.808   4.173
13034W        W85459  31.906  33.415  13.790
13035W        W85460   6.874  33.939   4.182
13036W        W85461   0.940  13.632  13.332
13037W        W85462  34.010  39.941  12.563
13038W        W85463  34.864   8.169  12.504
13039W        W85464   4.888   3.230   2.224
13040W        W85465  37.898  28.528  12.403
13041W        W85466  30.089  43.927   0.810
13042W        W85467  40.798  15.689  14.841
13043W        W85468  31.411  42.835  11.999
13044W        W85469  43.882  29.945   0.922
13045W        W85470  13.666   1.864   1.777
13046W        W85471  29.968  43.365  13.311
13047W        W85472   7.740  17.248  13.047
13048W        W85473  11.799   8.321  13.335
13049W        W85474   4.779  16.223  10.411
13050W        W85475  25.647  25.601   1.835
13051W        W85476  15.807  28.569  13.324
13052W        W85477  33.589   2.775   4.683
13053W        W85478  24.579  25.155   1.417
13054W        W85479  38.506  27.515  13.000
13055W        W85480  12.785  39.043  10.535
13056W        W85481  29.603  35.480  14.865
13057W        W85482  34.000  11.838  14.484
13058W        W85483  36.477  14.633  11.395
13059W        W85484  21.559  32.438  10.555
13060W        W85485   7.786   0.816   4.199
13061W        W85486  41.435  16.573   1.884
13062W        W85487  42.940  11.838  10.914
13063W        W85488   8.367  40.037   1.339
13064W        W85489  36.985  28.672   2.197
13065W        W85490  22.081   9.872  14.026
13066W        W85491  28.112  36.851   1.907
13067W        W85492  23.711  24.621  13.834
13068W        W85493  15.258   9.174  12.848
13069W        W85494  37.418  31.511  14.791
13070W        W85495  43.494  27.984   2.329
13071W        W85496  35.010  30.636  10.456
13072W        W85497   9.869  23.013   0.927
13073W        W85498   3.448   4.887   0.793
13074W        W85499  42.978  31.643  13.368
13075W        W85500  29.134  13.804  10.896
13076W        W85501  19.573  28.969   2.237
13077W        W85502  17.662  19.143   0.823
13078W        W85503  10.299  21.743  10.909
13079W        W85504  15.758  15.324   2.801
13080W        W85505   5.230  16.212  14.857
13081W        W85506  20.722  39.037   2.885
13082W        W85507   9.784   2.254   0.783
13083W        W85508  30.972  28.979  12.019
13084W        W85509  16.312  16.715   3.652
13085W        W85510  21.051  30.492   0.444
13086W        W85511  37.572  29.116   3.320
13087W        W85512   1.265   4.873   1.817
13088W        W85513  43.800  38.951   0.861
13089W        W85514   0.417  34.504  14.965
13090W        W85515  43.501  13.692   1.729
13091W        W85516  33.417  27.669   0.319
13092W        W85517   3.756  19.135   1.697
13093W        W85518   1.467  20.696   2.357
13094W        W85519  27.530  44.998   2.807
13095W        W85520  42.520  31.600  13.311
13096W        W85521  10.865   8.344   3.678
13097W        W85522  14.658  25.088   0.935
13098W        W85523  27.954  30.939  13.943
13099W        W85524  25.139  22.057  10.467
13100W        W85525  34.982  24.065  11.982
13101W        W85526  21.263  22.097  13.911
13102W        W85527  31.549  30.053   3.386
13103W        W85528   7.381   1.850  11.598
13104W        W85529  36.923  31.115  13.992
13105W        W85530  20.693  28.641  12.851
13106W        W85531   8.760  24.225   4.327
13107W        W85532   5.781  19.648  11.409
13108W        W85533   3.445  36.474  13.368
13109W        W85534  41.358  20.671   4.143
13110W        W85535  15.124  30.552  12.091
13111W        W85536  40.005  43.832  13.039
13112W        W85537  22.047  12.704   0.914
13113W        W85538  33.437  34.913   4.132
13114W        W85539  35.425  27.588   1.800
13115W        W85540   2.344  32.434  10.562
13116W        W85541   6.202  12.210   0.461
13117W        W85542  31.590  36.454   0.283
13118W        W85543  34.444   8.895  10.472
13119W        W85544  16.109  28.457  14.351
13120W        W85545  38.472   0.873   0.305
13121W        W85546  28.044  13.306   1.319
13122W        W85547  20.737  30.018   4.687
13123W        W85548  17.640   0.455  13.021
13124W        W85549  42.980  34.532  11.441
13125W        W85550   6.917  37.934  14.766
13126W        W85551  18.778  29.980   1.440
13127W        W85552  42.499  40.394   0.788
13128W        W85553  24.133   4.830   2.339
13129W        W85554  18.775  41.325   1.712
13130W        W85555  34.892  42.403  11.903
13131W        W85556  36.877  18.068  14.315
13132W        W85557   0.931  18.264   9.990
13133W        W85558  42.395   2.820  14.334
13134W        W85559  15.651  15.123  11.024
13135W        W85560   0.748  31.973  10.095
13136W        W85561   9.200  17.780   3.352
13137W        W85562  10.177  22.221   2.286
13138W        W85563  28.040  23.567  11.997
13139W        W85564  26.695  14.239  12.522
13140W        W85565  24.694  12.719   3.802
13141W        W85566  40.871  29.605  14.796
13142W        W85567  23.527  35.050   4.335
13143W        W85568  23.090  14.305   4.311
13144W        W85569  35.422  13.126  12.855
13145W        W85570  24.218   2.242   4.633
13146W        W85571  31.442   1.381   1.878
13147W        W85572  19.736  36.352   1.800
13148W        W85573  17.257  16.801   2.241
13149W        W85574   4.864  36.972   3.360
13150W        W85575  41.527  17.587  11.041
13151W        W85576  29.655  16.604  12.476
13152W        W85577  34.055  33.526  13.865
13153W        W85578   0.908  31.997   5.167
13154W        W85579  19.160   7.800   3.336
13155W        W85580   8.211  43.353  11.512
13156W        W85581   3.381  16.712   2.796
13157W        W85582   1.754   5.879   0.783
13158W        W85583  34.454   3.745  12.016
13159W        W85584   2.831  18.735   4.206
13160W        W85585  29.960  40.983  12.415
13161W        W85586   2.837  11.352  10.516
13162W        W85587  44.338  21.528  14.025
13163W        W85588  11.327  44.303   0.789
13164W        W85589  41.495  34.063   4.220
13165W        W85590  35.480  25.538   1.374
13166W        W85591  43.391  36.843  11.535
13167W        W85592  34.930   1.317  13.526
13168W        W85593   5.703  30.494   3.184
13169W        W85594  11.324  43.351   0.483
13170W        W85595  14.684  26.657   1.818
13171W        W85596  13.771  36.071   3.635
13172W        W85597  28.467   8.781  10.520
13173W        W85598  41.908  36.563   2.201
13174W        W85599  11.284  30.018   0.446
13175W        W85600  20.546  13.348   1.807
13176W        W85601  17.082  10.832  12.939
13177W        W85602  18.652  31.929   0.728
13178W        W85603  28.617   6.305  11.405
13179W        W85604  36.846  12.224   1.271
13180W        W85605   8.832  17.569  13.804
13181W        W85606   0.299  35.877   4.305
13182W        W85607  10.307  24.054  11.499
13183W        W85608   4.267   9.778   4.783
13184W        W85609  38.866  20.264  11.030
13185W        W85610  17.794  28.171  13.854
13186W        W85611  11.766  15.182  10.941
13187W        W85612  23.504  42.813   0.951
13188W        W85613  10.706  29.471  13.862
13189W        W85614  21.255   6.350   5.294
13190W        W85615  40.030  33.621   2.279
13191W        W85616  23.240   1.859  14.901
13192W        W85617  31.916  34.041  11.462
13193W        W85618  11.204   4.362   2.242
13194W        W85619  17.674   0.757  13.329
13195W        W85620  32.550  11.351   4.171
13196W        W85621   6.777  26.089  13.517
13197W        W85622   9.886  26.080   1.217
13198W        W85623   1.904  18.265  12.423
13199W        W85624  42.344  24.087   4.657
13200W        W85625  14.632  44.841  10.608
13201W        W85626  31.004  28.124  10.587
13202W        W85627   3.256  16.768   1.354
13203W        W85628  40.336  37.389  14.007
13204W        W85629   4.367  19.588  14.855
13205W        W85630  30.626  40.878  10.618
13206W        W85631  43.922  21.244   0.915
13207W        W85632   2.931  34.096  10.920
13208W        W85633   7.357  31.413   2.411
13209W        W85634  24.648  31.640  10.554
13210W        W85635  15.743  27.969   0.339
13211W        W85636   2.741  39.000   4.712
13212W        W85637  13.779   7.214  11.385
13213W        W85638  23.679  33.915  14.780
13214W        W85639   6.780  10.311  13.850
13215W        W85640  24.585  20.153  11.445
13216W        W85641  42.433   3.342  12.043
13217W        W85642   0.873  30.567  10.998
13218W        W85643  11.795  16.214   1.301
13219W        W85644  19.728  27.954   1.881
13220W        W85645   4.802  41.905   3.194
13221W        W85646  17.304  28.110  13.503
13222W        W85647  27.464  28.467  13.017
13223W        W85648  24.625  28.599   1.856
13224W        W85649  43.951  36.964  14.470
13225W        W85650  43.359  13.161   2.391
13226W        W85651   5.400  37.979  11.531
13227W        W85652  42.915  35.550   2.327
13228W        W85653  37.902  26.557  11.039
13229W        W85654  42.856  22.556  10.917
13230W        W85655  32.005  29.658   0.352
13231W        W85656  14.595  21.103  10.152
13232W        W85657  30.023  42.507   2.334
13233W        W85658  31.064   0.455  14.791
13234W        W85659   2.940  23.216   2.184
13235W        W85660  13.274  26.117   0.915
13236W        W85661  28.181  22.154  11.070
13237W        W85662  10.221  23.665   2.385
13238W        W85663   2.441  41.461   0.755
13239W        W85664  32.902  17.187   3.788
13240W        W85665  15.298  13.611   2.346
13241W        W85666  25.024  12.684   3.865
13242W        W85667   2.252  24.025   4.686
13243W        W85668  35.438  19.592  11.037
13244W        W85669  13.794  18.205   1.231
13245W        W85670  41.992  20.050   4.734
13246W        W85671  21.518  23.638   1.743
13247W        W85672  13.793  39.449   1.934
13248W        W85673  33.507  16.768   4.654
13249W        W85674  39.889  32.576   4.827
13250W        W85675  34.454   1.479  11.389
13251W        W85676  18.220  16.253  13.424
13252W        W85677  35.419  24.490   4.329
13253W        W85678   0.906   3.873   2.287
13254W        W85679  14.671   1.921   1.363
13255W        W85680   6.245  18.184   1.236
13256W        W85681  39.318   5.794   4.321
13257W        W85682   5.829  18.090  11.947
13258W        W85683  30.475  38.331   3.355
13259W        W85684  21.668  25.076   0.459
13260W        W85685  44.281  27.683   1.901
13261W        W85686  40.462  10.865  13.062
13262W        W85687  36.021  39.851   1.881
13263W        W85688   7.695  28.964  14.863
13264W        W85689  19.074   9.889  14.291
13265W        W85690  31.522   1.304   3.807
13266W        W85691  31.900  42.864  12.569
13267W        W85692  12.700  37.837  10.610
13268W        W85693  27.479  23.032  11.391
13269W        W85694  13.800  34.372  12.519
13270W        W85695  19.755  16.688   1.382
13271W        W85696  29.006  38.453  11.067
13272W        W85697  12.245  33.087  12.885
13273W        W85698  28.991   5.226   4.186
13274W        W85699  32.917   5.694   4.189
13275W        W85700   0.823  23.088  14.020
13276W        W85701  34.599  18.618   3.222
13277W        W85702  32.528  24.119   0.247
13278W        W85703   4.720   3.318   4.730
13279W        W85704   7.901  10.843  12.993
13280W        W85705  22.083  36.063  13.511
13281W        W85706  35.470  40.960   4.235
13282W        W85707  34.583  40.050   3.866
13283W        W85708  20.580   7.304  11.386
13284W        W85709  38.533  36.423   0.466
13285W        W85710  40.933  31.972   4.204
13286W        W85711  29.492  21.663   5.620
13287W        W85712  11.858  42.355   2.370
13288W        W85713  18.581  38.043   1.914
13289W        W85714  41.401  25.059  13.882
13290W        W85715  26.952   0.422  13.494
13291W        W85716   2.228  26.952   3.722
13292W        W85717  11.723   8.775   1.893
13293W        W85718  20.554  37.387   4.784
13294W        W85719  35.513  43.471   1.814
13295W        W85720  13.241  43.327   3.807
13296W        W85721  17.648   0.968  13.886
13297W        W85722  13.145   3.221  13.011
13298W        W85723   7.806  35.960   9.981
13299W        W85724  17.286  20.249  13.323
13300W        W85725  14.735  31.468  13.048
13301W        W85726  21.628  32.015  10.406
13302W        W85727   3.319   5.295  12.477
13303W        W85728  24.981  27.659  10.443
13304W        W85729  35.451   7.895  13.049
13305W        W85730  32.397  33.985  12.980
13306W        W85731  12.273  32.422  14.293
13307W        W85732  25.138  19.632  11.995
13308W        W85733  40.869  25.173   3.300
13309W        W85734  41.891  39.000  12.544
13310W        W85735  21.138  38.892   0.881
13311W        W85736  28.936  30.526   0.482
13312W        W85737  11.212  35.556   3.352
13313W        W85738  36.468  11.298   3.356
13314W        W85739  18.216   1.877  14.379
13315W        W85740  35.401  31.057  11.901
13316W        W85741  35.096  31.934   5.211
13317W        W85742  36.885  14.261   1.770
13318W        W85743  18.203  11.346   0.413
13319W        W85744  44.871  42.936  12.033
13320W        W85745  11.213  19.147  10.941
13321W        W85746  10.818  41.524  12.984
13322W        W85747  12.278  13.668  11.378
13323W        W85748  42.479   4.275   1.421
13324W        W85749  23.083  15.152   0.376
13325W        W85750  16.788  12.273  14.332
13326W        W85751   9.218  15.765   1.427
13327W        W85752  40.966  39.558   2.881
13328W        W85753  33.594  23.139  14.867
13329W        W85754   4.898  16.760   2.302
13330W        W85755   6.215  12.192  10.438
13331W        W85756  21.724   1.913  14.340
13332W        W85757  24.165  25.188  12.048
13333W        W85758  39.993  41.477   1.351
13334W        W85759  11.723  29.535  10.583
13335W        W85760  20.236   8.759   5.308
13336W        W85761  13.139  35.937  11.557
13337W        W85762   4.318   4.243   0.277
13338W        W85763  33.897  11.336   0.888
13339W        W85764  42.975  28.648  11.508
13340W        W85765  41.325  24.691  12.538
13341W        W85766  11.648  13.698  11.013
13342W        W85767  40.365  26.208  14.913
13343W        W85768  40.932  40.487   2.866
13344W        W85769  17.730  12.747  14.344
13345W        W85770  19.109  29.633  11.924
13346W        W85771  13.647  15.735   4.793
13347W        W85772   4.794  10.876  11.103
13348W        W85773  30.941  23.692  12.355
13349W        W85774  39.478  22.060   1.892
13350W        W85775  44.809  35.419  10.943
13351W        W85776  40.406  23.085  11.029
13352W        W85777   7.683  16.775   1.817
13353W        W85778  31.414  25.531  10.895
13354W        W85779   8.332   3.402   0.960
13355W        W85780  21.734  44.413  13.508
13356W        W85781  23.041  39.375  11.509
13357W        W85782  12.219  43.821   3.214
13358W        W85783  29.005  36.373  14.442
13359W        W85784  30.629  38.962   4.685
13360W        W85785  44.403   5.722   3.184
13361W        W85786  36.887  16.684   1.377
13362W        W85787   6.239   0.420   2.681
13363W        W85788  10.156  33.511   1.903
13364W        W85789  43.274   0.932  12.555
13365W        W85790  34.897  12.121   4.613
13366W        W85791  27.570  20.751  14.030
13367W        W85792  11.138  36.846   2.216
13368W        W85793  33.006   0.798  12.528
13369W        W85794   9.805  39.335  10.584
13370W        W85795  21.716  16.631  12.411
13371W        W85796  36.387  18.068  12.837
13372W        W85797  33.596  11.698   2.668
13373W        W85798  23.138  39.065   0.394
13374W        W85799  31.900  23.137   4.727
13375W        W85800  17.556  20.667   0.358
13376W        W85801  20.194  10.316  11.964
13377W        W85802  40.902  11.861   1.347
13378W        W85803  17.641  38.889   3.674
13379W        W85804  27.036  38.400   1.295
13380W        W85805  35.899  32.627  10.432
13381W        W85806  20.556   5.835  11.531
13382W        W85807   3.392  40.035  13.460
13383W        W85808  30.935  10.727   1.405
13384W        W85809  23.074  16.738  10.565
13385W        W85810  41.902  36.365  12.942
13386W        W85811  36.914  34.373   3.677
13387W        W85812   7.376  18.654   2.322
13388W        W85813   9.771  14.182   3.828
13389W        W85814  11.168  25.073   0.284
13390W        W85815  26.079  29.608   3.326
13391W        W85816  43.479  33.564  12.561
13392W        W85817  15.228  42.318  10.470
13393W        W85818  33.053  13.314  14.851
13394W        W85819   7.858  38.391   2.683
13395W        W85820  12.736  27.136  12.426
13396W        W85821  29.925  41.393  13.981
13397W        W85822  44.784   3.258   3.663
13398W        W85823   5.739  35.106   4.661
13399W        W85824  12.129  26.124   2.408
13400W        W85825   4.846  10.787  11.532
13401W        W85826  15.622  42.527   0.963
13402W        W85827  29.106  30.527  11.374
13403W        W85828  42.020  40.912   4.716
13404W        W85829  36.914  13.813  14.986
13405W        W85830   4.727  27.472   2.293
13406W        W85831   0.864  34.458   2.772
13407W        W85832  25.040  12.325   1.297
13408W        W85833   2.357  37.423   2.240
13409W        W85834   7.370  44.961  12.897
13410W        W85835  17.285  37.066   0.960
13411W        W85836  43.011  18.712   2.670
13412W        W85837  26.465  41.456  10.994
13413W        W85838  39.414  26.641   3.795
13414W        W85839  33.998  36.523   1.728
13415W        W85840  27.449  27.610   4.781
13416W        W85841  36.565   5.694   3.797
13417W        W85842  12.815  28.455   2.203
13418W        W85843  17.731  24.605   3.241
13419W        W85844   9.236  13.669   2.413
13420W        W85845  43.401  21.152  14.340
13421W        W85846  11.223  41.343  13.361
13422W        W85847  33.875  43.812   2.183
13423W        W85848  38.416  40.364   1.265
13424W        W85849  44.336   2.812   0.863
13425W        W85850  21.148  27.641  14.953
13426W        W85851  28.056   8.698   0.953
13427W        W85852  32.408  25.713  13.338
13428W        W85853   3.946  25.607   3.717
13429W        W85854  17.278  12.622   4.751
13430W        W85855  38.855  34.953   1.823
13431W        W85856  37.965  21.214   1.400
13432W        W85857   6.752   0.941  10.948
13433W        W85858  40.001  24.107  14.439
13434W        W85859   0.489  36.351   4.760
13435W        W85860  18.091  24.548   2.775
13436W        W85861  16.802  26.969  13.903
13437W        W85862  17.761  40.880   4.337
13438W        W85863  13.329   4.808  13.521
13439W        W85864  10.721  10.325   2.328
13440W        W85865   7.215   1.909  14.922
13441W        W85866  39.887   7.244  12.514
13442W        W85867  18.660   1.281  14.400
13443W        W85868  15.323  20.525  14.959
13444W        W85869  38.940  20.212   4.614
13445W        W85870  27.166  23.136  10.552
13446W        W85871  39.837  25.062   0.878
13447W        W85872  41.450  42.411   0.890
13448W        W85873  20.714  15.711   3.649
13449W        W85874  24.486  12.348   2.391
13450W        W85875   1.303   4.266   1.403
13451W        W85876   3.750  11.740  13.332
13452W        W85877  41.835   8.161  12.486
13453W        W85878  25.120  31.633   1.910
13454W        W85879  11.231  15.599   0.948
13455W        W85880  34.456  42.500   1.230
13456W        W85881  42.367   0.474  12.405
13457W        W85882  11.829  34.575   1.292
13458W        W85883  19.737  33.912  11.008
13459W        W85884  23.176  32.472   1.695
13460W        W85885  43.376  22.072  11.599
13461W        W85886   3.313  25.514   3.827
13462W        W85887   4.883  43.314   0.732
13463W        W85888  30.119  10.863  14.428
13464W        W85889   6.206  18.127   0.262
13465W        W85890  20.748  20.070   2.325
13466W        W85891  12.850  26.030  12.918
13467W        W85892  41.441  14.319  11.475
13468W        W85893  40.884  26.503   2.179
13469W        W85894  38.422  18.098  11.466
13470W        W85895  18.152   6.707   0.267
13471W        W85896  19.654  30.599  14.393
13472W        W85897  30.985  35.930   1.270
13473W        W85898  19.580  44.276   2.359
13474W        W85899  20.576   0.423   2.223
13475W        W85900  16.628  23.020   2.702
13476W        W85901  24.509  43.982  13.915
13477W        W85902  43.883   7.220  10.565
13478W        W85903  13.136  10.750   2.220
13479W        W85904  29.023  35.531   1.234
13480W        W85905  27.077   7.710  14.760
13481W        W85906  13.808  12.311  13.311
13482W        W85907  33.991  33.972  10.543
13483W        W85908  42.842  10.211  14.761
13484W        W85909  22.740  38.470  11.552
13485W        W85910  20.248  36.061   0.424
13486W        W85911   2.471   0.455  10.980
13487W        W85912  24.214  39.021  14.498
13488W        W85913  43.424  37.858  11.969
13489W        W85914  23.688  10.171  14.504
13490W        W85915  23.610  36.369  13.945
13491W        W85916  15.649  44.962   3.277
13492W        W85917   4.820  16.189   3.695
13493W        W85918  10.300  38.945  13.828
13494W        W85919  20.676   2.272  10.467
13495W        W85920  43.483   2.278  14.489
13496W        W85921  30.080  30.150   3.203
13497W        W85922  23.054  31.445   0.250
13498W        W85923  10.362  21.751  14.868
13499W        W85924  44.475  36.019   1.730
13500W        W85925  14.137  39.479  12.876
13501W        W85926  25.633  41.295  11.402
13502W        W85927  37.496  39.525  12.060
13503W        W85928  27.195  28.511  10.463
13504W        W85929  20.040  21.259   3.713
13505W        W85930  15.223  38.019  13.836
13506W        W85931  10.705  43.874  11.017
13507W        W85932  34.443  25.539  10.479
13508W        W85933   4.852  25.574   3.735
13509W        W85934   5.392  32.455   4.623
13510W        W85935  11.256  39.532  11.904
13511W        W85936  38.856   4.309   0.331
13512W        W85937  15.726  34.580  13.369
13513W        W85938  26.995  23.581  11.595
13514W        W85939   8.251  44.869  11.014
13515W        W85940  44.431  38.904  14.392
13516W        W85941   1.419  27.000  11.610
13517W        W85942  41.509  37.023  10.562
13518W        W85943   9.395   1.413  11.554
13519W        W85944  15.168  38.504   4.691
13520W        W85945  43.785   5.749   4.662
13521W        W85946  10.267  13.115   0.384
13522W        W85947  23.204  32.470  12.408
13523W        W85948  17.207  43.406   3.818
13524W        W85949  19.157   5.402  12.487
13525W        W85950  15.676  23.039   0.373
13526W        W85951   9.801  14.821  12.935
13527W        W85952  26.038   8.367  11.437
13528W        W85953  38.904  20.686   1.344
13529W        W85954  14.599  24.542   2.759
13530W        W85955  23.098  17.623  11.982
13531W        W85956  38.414   9.823   3.828
13532W        W85957  36.402   5.925   3.325
13533W        W85958  40.345  21.022   2.315
13534W        W85959  29.444  28.166  14.014
13535W        W85960  18.128  35.494  11.943
13536W        W85961  35.540  14.214   1.921
13537W        W85962  22.172   8.762   3.305
13538W        W85963  32.535  41.827   3.830
13539W        W85964  26.982  32.589   5.152
13540W        W85965  36.474  20.531   4.279
13541W        W85966  28.150  44.802   4.188
13542W        W85967  36.911  22.065   2.336
13543W        W85968  41.530  22.042  14.956
13544W        W85969   7.676   0.251  14.808
13545W        W85970  33.398  24.015  13.512
13546W        W85971  26.619  43.498  10.609
13547W        W85972  28.953  14.631  12.352
13548W        W85973  26.668  16.629  14.466
13549W        W85974  14.618  30.973   3.323
13550W        W85975  42.346   6.363   1.742
13551W        W85976  38.868   3.336   4.643
13552W        W85977  37.502   7.868  14.285
13553W        W85978  22.152  23.571  14.888
13554W        W85979   6.727   6.678  14.837
13555W        W85980   7.375  24.635  14.482
13556W        W85981  39.522  21.513   4.309
13557W        W85982  10.354  29.670  11.941
13558W        W85983  36.448   0.411   1.861
13559W        W85984   7.216  43.789  14.387
13560W        W85985  20.066  34.501   2.666
13561W        W85986  14.115  27.099   1.713
13562W        W85987   6.369  31.150  11.868
13563W        W85988  32.032  27.488  13.433
13564W        W85989   4.772  41.023   4.804
13565W        W85990   5.276  11.839  11.551
13566W        W85991  41.292  22.701   3.328
13567W        W85992   5.718  31.114   0.744
13568W        W85993  37.415   1.433  11.547
13569W        W85994  41.019   2.819  12.075
13570W        W85995  10.849  24.675  11.527
13571W        W85996  21.173  41.457  12.878
13572W        W85997  13.648   8.272   2.382
13573W        W85998  16.119  36.048  11.882
13574W        W85999  25.498  21.592  10.939
13575W        W86000   7.760  25.661  14.972
13576W        W86001  42.432  16.572  11.382
13577W        W86002  32.138  32.886   4.210
13578W        W86003  22.502  24.984  11.567
13579W        W86004  35.405   2.830   1.737
13580W        W86005  39.548  24.084   3.328
13581W        W86006  33.893  12.131   0.920
13582W        W86007   2.793   1.794   2.819
13583W        W86008  10.702  28.620  13.393
13584W        W86009   8.805  29.616   1.811
13585W        W86010   4.794  27.583   0.906
13586W        W86011  12.768  40.838   3.655
13587W        W86012   9.386  19.576   2.335
13588W        W86013  30.519   0.752  12.344
13589W        W86014  34.397  14.222  13.022
13590W        W86015  14.195  20.729  11.017
13591W        W86016  14.142  37.042   1.864
13592W        W86017  41.507  12.132  11.036
13593W        W86018  38.904  18.758   2.261
13594W        W86019   3.821  18.221   4.150
13595W        W86020  15.583  18.642   3.684
13596W        W86021  25.585  15.308   1.918
13597W        W86022  43.770  34.499   3.283
13598W        W86023  22.124  23.638   2.222
13599W        W86024  17.781  19.547  10.459
13600W        W86025  16.268  40.465  10.965
13601W        W86026  23.984   1.451  11.107
13602W        W86027  39.324  21.586   0.898
13603W        W86028  24.667  35.571   3.192
13604W        W86029   3.842  38.369  10.535
13605W        W86030  14.596  41.352   0.424
13606W        W86031  40.418  11.356   4.161
13607W        W86032  40.525   6.235   0.469
13608W        W86033  29.078   3.750   0.256
13609W        W86034  29.560   1.743  11.035
13610W        W86035  35.565   6.386   4.817
13611W        W86036  12.735   0.280  14.406
13612W        W86037  44.420  10.270   4.168
13613W        W86038  33.483  28.043   1.325
13614W        W86039  14.810   1.915  10.474
13615W        W86040  44.482  40.913   4.231
13616W        W86041  24.045  42.353   1.865
13617W        W86042  25.476  31.561  14.350
13618W        W86043   0.437   2.752  12.428
13619W        W86044   8.743   2.788  11.454
13620W        W86045   7.283  22.527   1.765
13621W        W86046  16.710  35.072   4.127
13622W        W86047  28.606  19.177   0.856
13623W        W86048  20.691  10.361  12.539
13624W        W86049   7.389  12.759   1.331
13625W        W86050  40.915  39.435   4.345
13626W        W86051   7.198   7.365  11.494
13627W        W86052  38.388   8.379  13.441
13628W        W86053  30.053  26.129  12.519
13629W        W86054   7.383   7.748  13.005
13630W        W86055  36.549  14.764  13.003
13631W        W86056  31.022  15.189  14.986
13632W        W86057   8.381  15.698   0.942
13633W        W86058  40.985  25.157  14.797
13634W        W86059   8.697  13.635   1.768
13635W        W86060   7.780  10.266   0.301
13636W        W86061  40.512  26.633  13.516
13637W        W86062  13.240  19.229  10.573
13638W        W86063  25.193  38.362   1.379
13639W        W86064  37.574  20.067   1.226
13640W        W86065  41.860  43.780   2.253
13641W        W86066  22.696   4.395  12.479
13642W        W86067  35.508  11.273   4.279
13643W        W86068   6.784  20.102   4.257
13644W        W86069  32.110  36.096  13.474
13645W        W86070  13.286  28.025  11.947
13646W        W86071   6.326  34.503  14.317
13647W        W86072   4.724  28.453   4.143
13648W        W86073  18.272  29.487  12.016
13649W        W86074   4.322  31.150   1.904
13650W        W86075  23.119  20.061   3.148
13651W        W86076  43.957  21.592  12.853
13652W        W86077  32.943  31.562  13.530
13653W        W86078   2.933   2.419   2.353
13654W        W86079  17.606  38.397   1.298
13655W        W86080  29.939   8.770   2.226
13656W        W86081  44.969  41.841  10.954
13657W        W86082  24.706  19.206   1.724
13658W        W86083  17.223  38.571  10.573
13659W        W86084  12.219  30.124  12.444
13660W        W86085   9.693  20.206  13.029
13661W        W86086  15.655  12.803   1.235
13662W        W86087  10.226  32.522  10.509
13663W        W86088  17.190  15.314  11.108
13664W        W86089  35.020  43.958  13.541
13665W        W86090  22.716  13.267  14.964
13666W        W86091  34.402   7.357   0.449
13667W        W86092  16.272  23.047  10.471
13668W        W86093   2.801  35.854  10.514
13669W        W86094  36.946   3.236  11.030
13670W        W86095  26.121  41.817  14.960
13671W        W86096   3.379  36.014   0.794
13672W        W86097   3.244  38.403   4.782
13673W        W86098  17.080  30.483   2.409
13674W        W86099  32.908   5.282   2.710
13675W        W86100   3.928  20.699  12.966
13676W        W86101  37.484   5.204  14.793
13677W        W86102  23.589   0.922  13.850
13678W        W86103  21.041   6.766  12.856
13679W        W86104  43.485  34.573   4.200
13680W        W86105  21.097  33.891  11.075
13681W        W86106  31.903  37.518   5.119
13682W        W86107  13.179   4.782  12.515
13683W        W86108  25.047   9.197  14.929
13684W        W86109  33.513   2.266  12.410
13685W        W86110   3.344  37.406   0.300
13686W        W86111  38.399  20.150   4.285
13687W        W86112  38.881  36.421  14.499
13688W        W86113   2.324  14.614  10.443
13689W        W86114  39.390   0.851   2.349
13690W        W86115  27.193   4.270  12.940
13691W        W86116   4.302  37.442  11.922
13692W        W86117   2.761  43.380  14.881
13693W        W86118   6.331  36.580   2.375
13694W        W86119   3.374   6.326   1.310
13695W        W86120  36.363  16.621  13.976
13696W        W86121   6.793   6.293  10.417
13697W        W86122  12.779   2.867  10.436
13698W        W86123  27.526  29.572   1.705
13699W        W86124  44.463   6.324   1.336
13700W        W86125  27.044  43.931  12.428
13701W        W86126  41.511  29.004   4.680
13702W        W86127  13.168   5.787   3.680
13703W        W86128  37.396  24.678  12.412
13704W        W86129  41.792  35.057   4.176
13705W        W86130  35.956  20.158  11.072
13706W        W86131  21.594  15.634  11.118
13707W        W86132  39.968  10.864  12.390
13708W        W86133  32.561  33.607  11.535
13709W        W86134  11.228  14.203   3.755
13710W        W86135  28.940  10.218  11.971
13711W        W86136  24.543  33.922   4.614
13712W        W86137  39.374  18.123   0.857
13713W        W86138  18.629  11.166  10.586
13714W        W86139  10.748  44.970   0.831
13715W        W86140  28.646  12.279   2.350
13716W        W86141  19.197  28.006   0.834
13717W        W86142   3.908   2.789  14.900
13718W        W86143  27.021  31.084  10.523
13719W        W86144  24.625  29.001  14.440
13720W        W86145  44.306   4.269  13.388
13721W        W86146   8.405  36.396  14.893
13722W        W86147   2.866  28.082   0.473
13723W        W86148  34.939  33.027  11.119
13724W        W86149  26.159  10.704  14.949
13725W        W86150   0.850   8.751  12.551
13726W        W86151  19.076  35.884  13.307
13727W        W86152  33.013   6.849  12.355
13728W        W86153  41.461  22.639  11.563
13729W        W86154   1.360  13.758   0.261
13730W        W86155   6.332  19.257  10.483
13731W        W86156  12.197  38.530  12.382
13732W        W86157   1.344  40.841   3.174
13733W        W86158  33.023  34.994   3.291
13734W        W86159  40.392  43.994  11.574
13735W        W86160  23.193  39.454   2.266
13736W        W86161  28.997   2.878   1.212
13737W        W86162  44.388  14.607  10.958
13738W        W86163  18.277  18.251   3.827
13739W        W86164  41.903  42.978  12.959
13740W        W86165   1.353  18.692   1.743
13741W        W86166  24.492  29.655   2.247
13742W        W86167   0.364   8.886  12.929
13743W        W86168  31.533  30.064  11.912
13744W        W86169  30.028  14.656  14.964
13745W        W86170  28.069  28.172  11.483
13746W        W86171  32.433  25.076  12.576
13747W        W86172  23.098  43.430   3.656
13748W        W86173  42.380  20.232  11.106
13749W        W86174   3.267  18.651  14.943
13750W        W86175   3.432  18.721  13.362
13751W        W86176   4.309  40.314  14.472
13752W        W86177  25.702   0.306  10.918
13753W        W86178  33.537  33.058   4.634
13754W        W86179   8.786  11.639   2.885
13755W        W86180   7.220  35.570  14.335
13756W        W86181  43.999   3.755   4.199
13757W        W86182  27.628  40.832   2.753
13758W        W86183  40.825  18.054  13.334
13759W        W86184  12.733  37.009  11.881
13760W        W86185  44.411  12.272   4.652
13761W        W86186  22.020  41.884  12.066
13762W        W86187  36.577  41.304  12.447
13763W        W86188  34.978  31.607   2.348
13764W        W86189  21.098  41.824  11.971
13765W        W86190  24.487   7.291   0.748
13766W        W86191  16.567  36.991  13.962
13767W        W86192  40.531  37.071  14.359
13768W        W86193  34.373  13.229   2.891
13769W        W86194  22.125   8.362  11.941
13770W        W86195  42.812  23.638  12.410
13771W        W86196   7.849  29.558  11.476
13772W        W86197  17.639  27.116  13.339
13773W        W86198  29.546  44.800   2.886
13774W        W86199   8.272   8.228   2.243
13775W        W86200  24.717  15.678   9.996
13776W        W86201  18.635  28.007  10.932
13777W        W86202  25.074  42.026   0.309
13778W        W86203  12.198  41.823  14.329
13779W        W86204  19.096   6.264  14.957
13780W        W86205   4.904  16.677  14.779
13781W        W86206  10.364  15.604  11.469
13782W        W86207  37.088  38.868  13.058
13783W        W86208  13.605  23.126   5.087
13784W        W86209  33.510  27.957  14.874
13785W        W86210  10.675   1.790   4.148
13786W        W86211  13.692  24.588   9.533
13787W        W86212  24.484   1.444   0.835
13788W        W86213  22.119  28.122   3.336
13789W        W86214  13.652   7.269   0.880
13790W        W86215   5.739  28.095  12.551
13791W        W86216   4.749  10.332  11.581
13792W        W86217  33.381  17.734  14.992
13793W        W86218  27.557  14.727  14.950
13794W        W86219  27.467  44.791  12.393
13795W        W86220  33.038  17.765   2.807
13796W        W86221  11.762  14.618  10.902
13797W        W86222  15.687   8.824  11.881
13798W        W86223  12.256   2.820   1.386
13799W        W86224   0.267  43.851  13.039
13800W        W86225  36.372  37.413   2.327
13801W        W86226   2.315   6.196   1.273
13802W        W86227  20.677  24.977  14.391
13803W        W86228  16.670  26.645   3.375
13804W        W86229  27.602  39.405   9.458
13805W        W86230  16.572   5.912   4.748
13806W        W86231  23.020  18.748   3.871
13807W        W86232  32.478  11.817   0.367
13808W        W86233  11.214  38.988   2.672
13809W        W86234  24.684   4.251   4.676
13810W        W86235   6.751  11.747  10.518
13811W        W86236   0.408   6.223  13.455
13812W        W86237  27.063  42.926   2.782
13813W        W86238  15.704  16.699  10.021
13814W        W86239  29.503  30.051   4.353
13815W        W86240  21.606   3.877   2.392
13816W        W86241  23.594   1.248  11.096
13817W        W86242  28.024  31.514  13.423
13818W        W86243   3.854  37.368  12.396
13819W        W86244  14.107   4.274   3.755
13820W        W86245  29.084  11.633  12.458
13821W        W86246   2.361  20.062   1.885
13822W        W86247  13.227  29.656  10.954
13823W        W86248   9.662  34.001  14.823
13824W        W86249  40.810  29.584   0.835
13825W        W86250  11.364  36.546  11.377
13826W        W86251  40.442  37.338   1.821
13827W        W86252  10.735  43.398   0.474
13828W        W86253  22.099  23.069   4.657
13829W        W86254  17.272  11.778  13.795
13830W        W86255  17.123  42.316  11.076
13831W        W86256  36.383  35.085   4.342
13832W        W86257   4.235  44.408   0.283
13833W        W86258   7.805  35.044   2.359
13834W        W86259  28.986   8.654  11.436
13835W        W86260  23.615  21.193   4.621
13836W        W86261  15.226  12.171   1.817
13837W        W86262  34.070   8.891  11.910
13838W        W86263   0.298  41.832   0.799
13839W        W86264   6.196   7.816   2.777
13840W        W86265  43.979  12.704  12.824
13841W        W86266   5.743  28.517   0.426
13842W        W86267  21.520  17.786  12.573
13843W        W86268  12.806  38.329  12.876
13844W        W86269  34.886  42.326  14.953
13845W        W86270  34.934  21.522   3.833
13846W        W86271  27.663   3.852   4.654
13847W        W86272  30.626  27.086  13.385
13848W        W86273  35.500  26.546  12.533
13849W        W86274  28.523  27.664   3.869
13850W        W86275   7.700  31.603  13.821
13851W        W86276  39.927   6.323   0.324
13852W        W86277  35.361  19.202   3.855
13853W        W86278  32.896  21.204   0.377
13854W        W86279  31.028   4.872   0.299
13855W        W86280  12.842   8.176   4.185
13856W        W86281   3.382   6.798  14.390
13857W        W86282  24.111   3.948  13.960
13858W        W86283  13.126  44.426  10.015
13859W        W86284  29.537  39.384   1.888
13860W        W86285  23.589  39.323   4.691
13861W        W86286   0.753   7.371  10.897
13862W        W86287  13.321  39.547  12.938
13863W        W86288   7.416  44.905   1.292
13864W        W86289  27.572  37.540   2.327
13865W        W86290  32.597  16.105   2.693
13866W        W86291  38.466   3.865  13.507
13867W        W86292  32.402   1.775  13.479
13868W        W86293  34.952  31.906   2.863
13869W        W86294   9.851  27.504   0.441
13870W        W86295  36.988  32.890  13.477
13871W        W86296   9.784   0.799   0.873
13872W        W86297  38.377  37.992   0.250
13873W        W86298  38.041  13.742   3.633
13874W        W86299  29.142  32.912   1.906
13875W        W86300  21.644  26.497  14.334
13876W        W86301  27.666   5.361  13.975
13877W        W86302  13.164   4.794  11.100
13878W        W86303  13.279  31.568   2.699
13879W        W86304  36.442  44.994   0.460
13880W        W86305  17.075  34.517   9.966
13881W        W86306  28.125  29.004  12.464
13882W        W86307  18.727  29.043  10.487
13883W        W86308  34.099  11.192   1.744
13884W        W86309  24.014  19.578   1.387
13885W        W86310   5.252  36.959  10.437
13886W        W86311   8.236  29.562   4.744
13887W        W86312   8.817  35.091  12.409
13888W        W86313  13.321   3.804  10.934
13889W        W86314  44.260  25.140  10.630
13890W        W86315  18.673  18.091  14.934
13891W        W86316  35.871  23.216  14.030
13892W        W86317  25.522  24.670  13.535
13893W        W86318  21.562   7.743  11.496
13894W        W86319  42.994  43.287   1.754
13895W        W86320  30.511  29.031   3.654
13896W        W86321  25.991   0.450  12.937
13897W        W86322   2.433  43.990  14.937
13898W        W86323   5.768   9.249  12.887
13899W        W86324  12.666  42.469  13.948
13900W        W86325  19.280  41.958  13.875
13901W        W86326  36.549   2.430   4.652
13902W        W86327  39.425  31.110  11.002
13903W        W86328  36.464   9.668  13.790
13904W        W86329  30.109   9.276  13.478
13905W        W86330  19.120   8.882   0.963
13906W        W86331   7.267  32.636   4.672
13907W        W86332   4.743  22.514   0.959
13908W        W86333  21.612  10.218   1.818
13909W        W86334  23.596   0.939  10.560
13910W        W86335  18.214  19.658  14.799
13911W        W86336  43.913  10.162   4.618
13912W        W86337  40.422   8.817   4.725
13913W        W86338  23.150  35.932  12.993
13914W        W86339  38.450  37.043  13.446
13915W        W86340  39.877   3.433   2.673
13916W        W86341  33.537  21.567  14.928
13917W        W86342  35.539  13.299   1.332
13918W        W86343  31.566  34.081  14.870
13919W        W86344  28.106  33.944   2.863
13920W        W86345   4.334  10.688  10.627
13921W        W86346  38.349  36.905   1.816
13922W        W86347  15.634  24.032  12.860
13923W        W86348  18.226  28.075   3.281
13924W        W86349   6.391  34.985   0.742
13925W        W86350  34.447   7.301  11.882
13926W        W86351  25.480   0.980  14.450
13927W        W86352  27.036  36.012  11.862
13928W        W86353  26.566  41.407  13.814
13929W        W86354  13.735   1.477   9.520
13930W        W86355  38.044  19.547   0.313
13931W        W86356  35.893  41.848   1.386
13932W        W86357  37.361  35.556  14.947
13933W        W86358  32.584  30.911   0.880
13934W        W86359   9.774   3.811   0.845
13935W        W86360   7.193   7.804   5.239
13936W        W86361  20.640  34.523   0.912
13937W        W86362  13.111  34.590   3.781
13938W        W86363  31.079  21.094   0.370
13939W        W86364  26.541  17.614   0.478
13940W        W86365  33.597  42.451  11.987
13941W        W86366  33.448  39.881  12.921
13942W        W86367   6.901  36.844   3.671
13943W        W86368  42.298   4.422   3.243
13944W        W86369  12.190  42.885  13.408
13945W        W86370   0.787  21.107  11.964
13946W        W86371   8.402  31.621  13.471
13947W        W86372  37.424  16.567  12.461
13948W        W86373  19.267  33.048  12.042
13949W        W86374   8.396  11.249   0.727
13950W        W86375  17.224   3.939  11.001
13951W        W86376  40.860   2.935   4.822
13952W        W86377  33.880   0.834  13.310
13953W        W86378  14.133  15.124  10.599
13954W        W86379  35.517   4.714  11.573
13955W        W86380  34.602  12.663   0.860
13956W        W86381  41.357  35.467   2.387
13957W        W86382  24.196   4.734  10.423
13958W        W86383  15.174  12.716   1.253
13959W        W86384  28.938  28.132  12.990
13960W        W86385  26.635  17.105   5.273
13961W        W86386  39.014  18.575   3.269
13962W        W86387  38.520  12.270  12.890
13963W        W86388  35.393  38.536   4.285
13964W        W86389  12.334  11.854   3.195
13965W        W86390   4.320   1.877  11.917
13966W        W86391  20.531  31.917   1.885
13967W        W86392  17.069  41.407   1.384
13968W        W86393  25.174  16.701  14.426
13969W        W86394  31.501   1.919   4.144
13970W        W86395  20.149  16.075  12.930
13971W        W86396  31.423  12.855   4.330
13972W        W86397  24.669  34.877  14.341
13973W        W86398  35.033   5.722  12.888
13974W        W86399  41.505  32.136  12.962
13975W        W86400   2.807  15.664  13.516
13976W        W86401  43.470  16.695   2.300
13977W        W86402   7.406  12.194  11.446
13978W        W86403   2.768  43.988   2.237
13979W        W86404  42.410  44.830  12.394
13980W        W86405   2.913   9.804  13.420
13981W        W86406  12.830  30.620   2.777
13982W        W86407   7.376   2.427  10.527
13983W        W86408   5.241  42.027   2.882
13984W        W86409   5.697   1.386   4.630
13985W        W86410  15.119  34.984   4.603
13986W        W86411  29.957  10.779  12.899
13987W        W86412  24.555  37.364  11.460
13988W        W86413   0.296  37.409  10.505
13989W        W86414  16.165  33.003   0.921
13990W        W86415  15.746  29.445   3.154
13991W        W86416  11.234  16.671   4.739
13992W        W86417  37.360   5.256  13.350
13993W        W86418  31.954  44.996   0.949
13994W        W86419   2.915  32.101   4.287
13995W        W86420  38.484  33.557  13.375
13996W        W86421  16.642  28.107   2.689
13997W        W86422  24.639  17.782   3.690
13998W        W86423  15.155  22.171   1.863
13999W        W86424  17.267   8.168   0.881
14000W        W86425  39.533   7.293  12.966
14001W        W86426  26.476  42.447  12.419
14002W        W86427  41.027  40.976  11.525
14003W        W86428  37.350  27.515   1.794
14004W        W86429   9.257  30.599   0.351
14005W        W86430  21.162  20.141   1.382
14006W        W86431  10.715  31.423  13.860
14007W        W86432  21.533  42.869   2.758
14008W        W86433  16.655   2.312   4.315
14009W        W86434  36.982   2.436  12.943
14010W        W86435   1.329  22.240   2.866
14011W        W86436  37.471  18.684  14.435
14012W        W86437  15.819  23.184   3.839
14013W        W86438   8.734  17.782  11.458
14014W        W86439   4.274  17.288   0.275
14015W        W86440  30.061  11.844   4.328
14016W        W86441  20.547  17.601  12.375
14017W        W86442  41.997  15.303  10.541
14018W        W86443  19.267  16.162   0.404
14019W        W86444  22.043  31.509   1.857
14020W        W86445  24.086   1.320   3.303
14021W        W86446  41.413   4.338   0.791
14022W        W86447   6.200  37.541   1.310
14023W        W86448   8.218  18.713   3.673
14024W        W86449  20.673   7.402   4.214
14025W        W86450  11.202   0.328  13.397
14026W        W86451  20.110  33.518  14.454
14027W        W86452  16.096  34.020  11.116
14028W        W86453  44.431  31.488  12.060
14029W        W86454  13.603   8.200  14.447
14030W        W86455   8.364  35.877  10.517
14031W        W86456  36.414  15.700  13.807
14032W        W86457  32.624  33.495  12.013
14033W        W86458  39.021   1.430  13.358
14034W        W86459  31.646  39.551   4.813
14035W        W86460   2.246  43.945  12.395
14036W        W86461  18.254  41.348   3.258
14037W        W86462   5.719   4.885  10.415
14038W        W86463  12.814  14.214   3.809
14039W        W86464  17.184  13.249   0.248
14040W        W86465  26.568  14.219   3.329
14041W        W86466   2.353  21.122  11.381
14042W        W86467   3.748  38.466   3.213
14043W        W86468  40.420  20.091  13.835
14044W        W86469  29.554  11.765   4.600
14045W        W86470  27.539  26.490  12.507
14046W        W86471  27.578  27.552   3.843
14047W        W86472  44.285   7.272  11.029
14048W        W86473  26.103   3.939  12.400
14049W        W86474  19.690  21.520   3.639
14050W        W86475  34.978  22.060   0.760
14051W        W86476  15.325  28.602   0.371
14052W        W86477   3.450   3.242  12.906
14053W        W86478  33.956   7.240  11.095
14054W        W86479  15.131   4.894  13.547
14055W        W86480  42.775  40.878   2.777
14056W        W86481  32.990  15.110  13.905
14057W        W86482  18.770  25.025   3.671
14058W        W86483   9.191  33.390  12.012
14059W        W86484   1.402   9.218  12.905
14060W        W86485  26.668  26.115  10.937
14061W        W86486   2.355  15.254  12.543
14062W        W86487  36.963   7.689   1.873
14063W        W86488  28.479  12.146  13.880
14064W        W86489  27.030   5.812  14.371
14065W        W86490  32.622  43.347  13.055
14066W        W86491  26.697  15.733  13.405
14067W        W86492  35.935  25.996  11.944
14068W        W86493  23.541   1.454   3.378
14069W        W86494  27.188  22.632   0.793
14070W        W86495  29.495  25.684   3.816
14071W        W86496  24.115  22.136  13.343
14072W        W86497  23.179  25.510  14.957
14073W        W86498  13.324  36.476  13.901
14074W        W86499  27.446  42.430  14.346
14075W        W86500  12.159  12.714   0.746
14076W        W86501   7.355  42.969   1.402
14077W        W86502   3.906  14.223  11.418
14078W        W86503  21.136   4.872  11.060
14079W        W86504  12.808  33.421   3.708
14080W        W86505  34.533  12.647   2.306
14081W        W86506  21.731  39.451  11.465
14082W        W86507  23.162   3.938  10.983
14083W        W86508  28.567   9.317   0.873
14084W        W86509   7.325  31.008  11.034
14085W        W86510  26.468  12.610   1.350
14086W        W86511  41.350  37.949  11.487
14087W        W86512  29.920  33.460   2.715
14088W        W86513  36.556   5.861   0.427
14089W        W86514  20.170  39.373   0.828
14090W        W86515  18.280  32.067   0.899
14091W        W86516  41.496  42.370   0.470
14092W        W86517  11.676  36.416  11.870
14093W        W86518  10.813   2.263  13.991
14094W        W86519  41.895  14.234   0.382
14095W        W86520  20.548  20.161   3.314
14096W        W86521   6.755  44.473   2.797
14097W        W86522  42.361  34.871   2.369
14098W        W86523  13.846  43.883   2.828
14099W        W86524  29.019  13.828   1.213
14100W        W86525  44.498  22.719   1.232
14101W        W86526  15.126   5.741  11.876
14102W        W86527  12.180   7.388  13.050
14103W        W86528  17.257   2.842   3.715
14104W        W86529  35.482  17.237  11.605
14105W        W86530   7.750   9.773  14.886
14106W        W86531  43.392  16.185   3.238
14107W        W86532  28.945  23.734   2.259
14108W        W86533  14.203   2.893   2.276
14109W        W86534  23.141  16.585  13.966
14110W        W86535  33.446  41.803   0.800
14111W        W86536  18.642  42.939  10.451
14112W        W86537  29.160   1.430   3.322
14113W        W86538  25.501  15.176  12.560
14114W        W86539  37.412   8.223  10.035
14115W        W86540  33.429  27.644   3.235
14116W        W86541  39.878   4.222   1.800
14117W        W86542  22.051  25.170   1.450
14118W        W86543  20.735  40.438   1.932
14119W        W86544  28.585  24.204   2.407
14120W        W86545  30.082  23.688  10.434
14121W        W86546  10.841  12.785  14.984
14122W        W86547  23.697  27.961  10.972
14123W        W86548  10.663  22.218  11.415
14124W        W86549   8.890  37.512   0.460
14125W        W86550  30.080  41.533   4.119
14126W        W86551  18.255  33.512  12.879
14127W        W86552  25.586  16.618  13.869
14128W        W86553  40.303   1.402   4.351
14129W        W86554   6.826  24.609  14.436
14130W        W86555  41.947  11.335   1.727
14131W        W86556  30.495  20.043  11.027
14132W        W86557  31.961   6.767  11.859
14133W        W86558  15.739  13.308   0.858
14134W        W86559  39.917  17.306  11.986
14135W        W86560   1.938  15.289  13.979
14136W        W86561   6.873  17.284  14.423
14137W        W86562  43.278  18.133  12.897
14138W        W86563  32.988  29.035  13.449
14139W        W86564  19.578  22.051   3.299
14140W        W86565  21.181  43.811  14.780
14141W        W86566  34.021  36.899  14.904
14142W        W86567   4.766   8.859   1.315
14143W        W86568  27.628  44.261  13.897
14144W        W86569  22.154   7.384   1.357
14145W        W86570   7.388  31.446   1.432
14146W        W86571  21.247  14.729  14.512
14147W        W86572  16.568  15.625   4.808
14148W        W86573  10.161  31.546   2.851
14149W        W86574   4.922  35.927  13.455
14150W        W86575   6.822   3.831   2.762
14151W        W86576  12.714  12.613  10.983
14152W        W86577   4.233  31.937  13.831
14153W        W86578  33.425   6.338   3.653
14154W        W86579  33.882   4.253   3.783
14155W        W86580  36.989   7.764   4.692
14156W        W86581  41.808  31.578   2.346
14157W        W86582  23.003   8.738  13.432
14158W        W86583   6.386  26.088  14.311
14159W        W86584  12.807  24.523  10.624
14160W        W86585   4.341  26.484  12.445
14161W        W86586  13.258  37.003  10.962
14162W        W86587  29.660  34.027   1.833
14163W        W86588  23.093  14.256   0.371
14164W        W86589  38.836  28.165   5.131
14165W        W86590  15.229  40.839  14.310
14166W        W86591  43.306  38.460   4.800
14167W        W86592  11.299  10.642  11.895
14168W        W86593  37.907  42.007   4.287
14169W        W86594  42.404   2.735   4.756
14170W        W86595   3.335  15.214  13.434
14171W        W86596   5.219   7.820   3.765
14172W        W86597  12.728  19.702  11.560
14173W        W86598   9.659  17.084  14.303
14174W        W86599  24.571   9.359   2.337
14175W        W86600  33.939  12.216   3.239
14176W        W86601  38.933  28.167  14.397
14177W        W86602  26.968  14.765   4.303
14178W        W86603  13.617  44.962  14.900
14179W        W86604  16.318  33.882   1.347
14180W        W86605  42.790  43.279   3.752
14181W        W86606   4.735   1.390  14.960
14182W        W86607  29.993  17.134  10.473
14183W        W86608  25.218   3.340   0.357
14184W        W86609   5.865   0.260  14.481
14185W        W86610  44.779  37.366  11.987
14186W        W86611   0.399  15.720   4.278
14187W        W86612  28.112  39.385   4.770
14188W        W86613  27.607   8.797   3.308
14189W        W86614  16.670  36.505   0.400
14190W        W86615  17.131   1.421  11.410
14191W        W86616  13.671   0.914  10.126
14192W        W86617  41.345   2.232  14.418
14193W        W86618  21.617   7.273  11.443
14194W        W86619   7.399  29.128   1.380
14195W        W86620  10.844   0.818  13.484
14196W        W86621  36.050   0.345   1.390
14197W        W86622  23.534  15.748   1.806
14198W        W86623  35.511  27.164   4.227
14199W        W86624  30.004  44.929   1.268
14200W        W86625  38.032   6.692  11.510
14201W        W86626  23.503   2.809  14.780
14202W        W86627  15.114   6.398   2.413
14203W        W86628   0.861  42.332  13.002
14204W        W86629  26.078   9.208   1.803
14205W        W86630   0.294  27.168   1.271
14206W        W86631  41.865   2.727  13.830
14207W        W86632  37.430  30.023  11.523
14208W        W86633  22.724  17.119  11.382
14209W        W86634   8.731  41.524   1.900
14210W        W86635  25.966  17.193   3.234
14211W        W86636  30.585  42.916  13.805
14212W        W86637  35.917  43.830  14.348
14213W        W86638  36.413   2.762   0.917
14214W        W86639  33.018  40.495   4.791
14215W        W86640  23.660  39.507   3.810
14216W        W86641   6.876   0.795   3.719
14217W        W86642  16.601   9.645  13.344
14218W        W86643  12.228  29.554  12.991
14219W        W86644   7.738  21.249  11.858
14220W        W86645  16.705  12.754   4.634
14221W        W86646  19.214  43.915   0.313
14222W        W86647  28.499  43.956   2.736
14223W        W86648  38.328   9.300  13.427
14224W        W86649  34.435   6.404   1.838
14225W        W86650   9.187  33.472   2.870
14226W        W86651  24.020   4.397   0.945
14227W        W86652   9.330  25.628  10.628
14228W        W86653  29.524  16.764  12.018
14229W        W86654   8.216   6.277   3.837
14230W        W86655  15.610  17.118   3.211
14231W        W86656   9.265   3.411   3.260
14232W        W86657  28.671   7.829   4.628
14233W        W86658   9.196  39.862  14.772
14234W        W86659  16.178   3.308  14.015
14235W        W86660   3.930  32.471   3.203
14236W        W86661   6.311   8.693   4.752
14237W        W86662   5.746  34.418  14.492
14238W        W86663  43.288  11.292  10.504
14239W        W86664  16.690   1.266  13.939
14240W        W86665   8.390  21.161   1.815
14241W        W86666  26.114  11.272   2.844
14242W        W86667   1.465   7.766   0.838
14243W        W86668  22.067  14.764  12.555
14244W        W86669  12.696  42.303   4.348
14245W        W86670  19.771  36.098  13.913
14246W        W86671  42.883  15.752  14.440
14247W        W86672  12.217  17.774   3.813
14248W        W86673  40.324  14.804  12.547
14249W        W86674  20.145  32.896   4.752
14250W        W86675  12.804   1.859  14.347
14251W        W86676  41.495  31.963   4.665
14252W        W86677  38.468  16.282  14.484
14253W        W86678   1.347  15.170   3.161
14254W        W86679  16.609  29.440  12.051
14255W        W86680  34.496  37.873  11.127
14256W        W86681   3.369  37.899   1.243
14257W        W86682  13.347  42.506   3.754
14258W        W86683  35.363   8.374   0.470
14259W        W86684  22.015  18.252  11.953
14260W        W86685   2.366   7.225  11.514
14261W        W86686   2.425   4.944  14.793
14262W        W86687  10.285  32.965  10.903
14263W        W86688   5.379  44.332   2.394
14264W        W86689  32.437  21.256   2.681
14265W        W86690   1.411   5.267  12.837
14266W        W86691  30.938  30.956  11.941
14267W        W86692  31.618  14.786   0.411
14268W        W86693   8.769   4.297  13.988
14269W        W86694  26.982  44.491  11.051
14270W        W86695  28.674  20.620   3.156
14271W        W86696  19.076  44.915  14.286
14272W        W86697  25.973  38.429  13.031
14273W        W86698  13.308  18.581  12.391
14274W        W86699  26.987  33.075  11.379
14275W        W86700  25.202  12.353  12.848
14276W        W86701  37.354  16.707   2.224
14277W        W86702  41.871  33.505   4.186
14278W        W86703  13.215  28.123  10.158
14279W        W86704  32.612   5.722  12.462
14280W        W86705  23.168  14.240  10.550
14281W        W86706  25.569  36.518   0.929
14282W        W86707   6.193  42.948  13.310
14283W        W86708  12.124  33.930   1.426
14284W        W86709  39.943  20.172   4.335
14285W        W86710  38.361  40.846  13.978
14286W        W86711   8.713  42.345   2.702
14287W        W86712  35.372  13.706  10.907
14288W        W86713  34.938  20.603   1.367
14289W        W86714  38.911   1.810   4.695
14290W        W86715   8.741  10.382  14.873
14291W        W86716  31.597  44.842   1.746
14292W        W86717  14.303  41.968  12.915
14293W        W86718  15.147  23.207  13.018
14294W        W86719  24.678  41.986  11.397
14295W        W86720  12.189  39.047  14.768
14296W        W86721   2.241   2.466   1.933
14297W        W86722  37.492  23.733   3.799
14298W        W86723   0.807  15.637  14.774
14299W        W86724  37.871  10.148   3.775
14300W        W86725   2.859  32.496  13.030
14301W        W86726   3.909   3.342   5.192
14302W        W86727   6.214  27.551   4.328
14303W        W86728  17.767   7.853  14.839
14304W        W86729  26.977  35.054  13.422
14305W        W86730  38.855  37.998   4.759
14306W        W86731   2.733  14.605   1.696
14307W        W86732  21.244  10.245   4.835
14308W        W86733   3.751  35.992   0.254
14309W        W86734  40.452  43.354  12.519
14310W        W86735   2.831   4.737   4.347
14311W        W86736  40.487   7.888   1.218
14312W        W86737  11.324  35.051  13.990
14313W        W86738   0.972  36.441  13.939
14314W        W86739  25.006  15.148  11.549
14315W        W86740  23.629   9.200  11.084
14316W        W86741  19.266  17.295  10.892
14317W        W86742  38.372  19.594   3.640
14318W        W86743  16.588   2.381  13.449
14319W        W86744  18.128  40.018  13.401
14320W        W86745  36.975  35.535   2.845
14321W        W86746  17.772  29.548  12.488
14322W        W86747  31.149  22.148   9.986
14323W        W86748  40.937  28.646  11.549
14324W        W86749   8.866  25.579  12.854
14325W        W86750  41.005  16.594   3.166
14326W        W86751  39.521  15.682  11.014
14327W        W86752  28.525   9.298   3.193
14328W        W86753   5.785  35.896  12.019
14329W        W86754  24.557  19.536   0.378
14330W        W86755  35.895  32.024   0.827
14331W        W86756  34.552  16.085   3.161
14332W        W86757  34.925  35.856   1.268
14333W        W86758   5.913  44.340  14.469
14334W        W86759  14.721  33.588  11.544
14335W        W86760  28.933  22.699  11.111
14336W        W86761  24.563  38.468  13.501
14337W        W86762  38.822  31.114   0.774
14338W        W86763   0.308  42.448   2.411
14339W        W86764  19.241  26.189   3.359
14340W        W86765  31.566  20.651  14.873
14341W        W86766  20.742  32.938   4.768
14342W        W86767  43.396  16.309  12.824
14343W        W86768  18.125   0.255   4.350
14344W        W86769  32.008   8.671   3.257
14345W        W86770  25.562  14.638   4.121
14346W        W86771  15.200  40.012  13.451
14347W        W86772  27.566   8.178   1.890
14348W        W86773  11.331  23.499   2.783
14349W        W86774  31.553  30.587  13.382
14350W        W86775  30.573  35.409   1.755
14351W        W86776   3.838   5.377   3.203
14352W        W86777  26.992  41.944   1.742
14353W        W86778   3.951  44.770  10.944
14354W        W86779   8.173  38.036   1.789
14355W        W86780  31.452  26.613  10.951
14356W        W86781   8.701  37.990  12.543
14357W        W86782  13.115  36.543   2.362
14358W        W86783  44.953  31.018  13.471
14359W        W86784  32.509  12.275  10.408
14360W        W86785  17.120   4.364  10.604
14361W        W86786   6.851  29.945   4.228
14362W        W86787  12.132  17.627  11.377
14363W        W86788  16.100   3.939  10.970
14364W        W86789  14.164   9.161   0.370
14365W        W86790  23.635   4.332   3.661
14366W        W86791   1.408  34.061   9.436
14367W        W86792  29.433  13.757   0.908
14368W        W86793  11.675   5.824   4.711
14369W        W86794  28.579  26.170  13.038
14370W        W86795  40.950  34.918  14.293
14371W        W86796   3.797  32.622   3.644
14372W        W86797  39.961   1.809   1.247
14373W        W86798   3.373  13.186   3.774
14374W        W86799  41.462  21.019  11.460
14375W        W86800  18.289  32.083   1.423
14376W        W86801  26.046  31.600   0.753
14377W        W86802   9.175  36.883  12.368
14378W        W86803  42.009   1.406   0.760
14379W        W86804   9.818  36.579   2.855
14380W        W86805  16.232  44.928   0.756
14381W        W86806  43.988  28.557   4.671
14382W        W86807   9.366   1.439   1.749
14383W        W86808  34.890  29.457  13.887
14384W        W86809  34.941  36.398   3.642
14385W        W86810  37.843  27.624  11.978
14386W        W86811  41.531  23.511   1.359
14387W        W86812  30.933  36.848  10.417
14388W        W86813  37.353   6.897   0.349
14389W        W86814  32.118  25.558   0.268
14390W        W86815  31.049  11.286   4.622
14391W        W86816  28.008  40.869   0.907
14392W        W86817  24.656  26.090  11.565
14393W        W86818  10.837   3.218   2.381
14394W        W86819  44.478  33.994  14.996
14395W        W86820  19.639  14.095   0.786
14396W        W86821  11.763  22.552   2.225
14397W        W86822  25.634  32.522  10.642
14398W        W86823   8.812  31.584  10.548
14399W        W86824  37.057  37.408  14.329
14400W        W86825  26.952   9.368   0.422
14401W        W86826   9.664  12.235   1.893
14402W        W86827  14.673  23.017  12.091
14403W        W86828  37.921  28.065  14.355
14404W        W86829  39.437  42.896   0.377
14405W        W86830  24.505  14.677   3.708
14406W        W86831  13.742  40.481  13.488
14407W        W86832  12.303   9.722  13.464
14408W        W86833  41.967   5.294  12.023
14409W        W86834  37.579  29.454   5.109
14410W        W86835  43.018  29.059   4.722
14411W        W86836   2.928  34.063  12.433
14412W        W86837  31.518  20.128   1.741
14413W        W86838   1.310   2.225   1.312
14414W        W86839  34.043  14.780  13.341
14415W        W86840   0.943  32.000   5.736
14416W        W86841  38.479  41.338  12.552
14417W        W86842  23.508  41.385   0.292
14418W        W86843  19.756  23.494  12.410
14419W        W86844  18.230  38.829   0.915
14420W        W86845   5.818  19.552   3.711
14421W        W86846   8.286   8.824   0.425
14422W        W86847  38.351  32.927   4.328
14423W        W86848  42.441   5.709   4.724
14424W        W86849  39.968  39.432  12.079
14425W        W86850  35.467   2.297   4.692
14426W        W86851   3.804   8.716  13.544
14427W        W86852  19.266  14.239   4.222
14428W        W86853  29.498  17.648   4.736
14429W        W86854   0.869  14.601  12.062
14430W        W86855  20.640  18.608  11.875
14431W        W86856  43.826  19.081   1.219
14432W        W86857  29.650  23.046  10.952
14433W        W86858  29.080  33.557  12.468
14434W        W86859  17.304  39.881   3.273
14435W        W86860   8.745  30.499   3.381
14436W        W86861   7.685   1.868   4.178
14437W        W86862  18.178  44.325  11.049
14438W        W86863  10.204   6.760  11.890
14439W        W86864  32.892  32.432   4.643
14440W        W86865  34.905  12.639   1.759
14441W        W86866  24.222  41.464   4.636
14442W        W86867  24.166  27.507  13.486
14443W        W86868   0.844  19.593   2.238
14444W        W86869  34.906  11.327  14.830
14445W        W86870   7.235  16.717   4.337
14446W        W86871   6.871  18.063  13.399
14447W        W86872  41.467  27.028   4.801
14448W        W86873   8.344  36.477   4.791
14449W        W86874  28.565  31.612  12.483
14450W        W86875   3.796  29.003  12.906
14451W        W86876  23.527  22.190   2.778
14452W        W86877  28.553  35.886   4.779
14453W        W86878  23.686   5.418  13.796
14454W        W86879  17.754  14.146  13.529
14455W        W86880  42.903   4.926  12.895
14456W        W86881  37.511  13.783   1.696
14457W        W86882  38.986  41.390  13.379
14458W        W86883  13.300  26.203  11.026
14459W        W86884  20.253  43.876  13.451
14460W        W86885  28.087  32.393  11.983
14461W        W86886   4.291  26.601  11.495
14462W        W86887  26.187   5.281  10.980
14463W        W86888  34.597  30.537  12.067
14464W        W86889  10.816   8.759  13.048
14465W        W86890  28.560   5.238   0.965
14466W        W86891  42.954  38.995   5.286
14467W        W86892  42.480   5.821   0.851
14468W        W86893  42.801  13.746  14.776
14469W        W86894  37.493  36.022  11.105
14470W        W86895  40.872  10.792  13.425
14471W        W86896  43.934  42.876   4.709
14472W        W86897  26.986   9.756  13.826
14473W        W86898  39.847  11.697  10.560
14474W        W86899  41.377  20.265   0.252
14475W        W86900   6.895  22.239   0.309
14476W        W86901  11.675  27.512   0.288
14477W        W86902   9.293  39.054   3.254
14478W        W86903  31.613  24.608  10.500
14479W        W86904  11.809  35.520  10.547
14480W        W86905   9.798  40.927  12.419
14481W        W86906  24.087  23.628   4.192
14482W        W86907   5.418   9.361  11.885
14483W        W86908  32.516  26.666   1.356
14484W        W86909  10.162   3.804   2.703
14485W        W86910  29.146  43.804  12.907
14486W        W86911  33.541  33.429   4.161
14487W        W86912  42.480  29.170  14.787
14488W        W86913   7.718  42.890   1.368
14489W        W86914   4.768  16.632   1.717
14490W        W86915  29.454  30.136  13.426
14491W        W86916  42.478  30.466   3.788
14492W        W86917  35.076  15.300  13.817
14493W        W86918  44.821  12.140  10.557
14494W        W86919   5.322  23.725  13.355
14495W        W86920   7.729   6.194   0.371
14496W        W86921  29.030  20.759  12.347
14497W        W86922   2.390  13.299   4.204
14498W        W86923  11.696   5.346   1.817
14499W        W86924  10.740   6.339  14.759
14500W        W86925  14.624  41.485  12.957
14501W        W86926  36.897  37.509  12.952
14502W        W86927  27.103  15.226  11.058
14503W        W86928   9.254   3.458   1.252
14504W        W86929  37.489  16.149   2.753
14505W        W86930  14.152  18.070   9.932
14506W        W86931  35.909  43.947   0.441
14507W        W86932  27.135   5.318   0.898
14508W        W86933   6.704  27.598  13.872
14509W        W86934   9.240  38.444   3.679
14510W        W86935  43.424  12.242  11.495
14511W        W86936  22.635  18.064   3.695
14512W        W86937  42.971  18.555  14.923
14513W        W86938  38.907  15.116   4.821
14514W        W86939  19.107  16.595  11.542
14515W        W86940   6.205   8.401  13.834
14516W        W86941  25.992  20.197  10.893
14517W        W86942  15.093  37.512   0.853
14518W        W86943  15.804  22.612  11.523
14519W        W86944  18.605   9.231   0.756
14520W        W86945  31.524  25.564   4.350
14521W        W86946   8.675  35.556   4.253
14522W        W86947  30.510  29.437   3.195
14523W        W86948  26.128  22.618   3.260
14524W        W86949  39.984   8.398   0.815
14525W        W86950  24.569  11.642  14.512
14526W        W86951  44.378  20.650  10.589
14527W        W86952  16.133  31.074   2.354
14528W        W86953  44.900  11.845   4.760
14529W        W86954   0.914  14.301  10.990
14530W        W86955  26.504   3.351   5.155
14531W        W86956   9.153  31.911  10.070
14532W        W86957  14.752  10.650   1.788
14533W        W86958  23.555  36.020  14.325
14534W        W86959   5.346  39.368  14.022
14535W        W86960  16.138  33.013   4.253
14536W        W86961   8.881  23.575   2.707
14537W        W86962  42.971  21.636   5.247
14538W        W86963  42.914  40.933  14.886
14539W        W86964  29.093  16.782  14.988
14540W        W86965  18.626  10.372   3.702
14541W        W86966   3.839  39.894   4.301
14542W        W86967  32.091  42.858   3.825
14543W        W86968  20.041   7.753   4.638
14544W        W86969   3.302  22.169  11.407
14545W        W86970  23.048   8.735   3.654
14546W        W86971  41.413   4.345  13.404
14547W        W86972  37.387  27.062  12.351
14548W        W86973  31.526  25.577  13.882
14549W        W86974  41.821  21.221   2.773
14550W        W86975  24.159   2.244  12.887
14551W        W86976   6.193   9.796  10.545
14552W        W86977  19.159  17.589   4.638
14553W        W86978  41.931  13.327   2.366
14554W        W86979   7.865  25.204   3.382
14555W        W86980   4.759  29.066  12.937
14556W        W86981   3.820  43.365   4.660
14557W        W86982  39.373   9.344  13.796
14558W        W86983  34.543  16.151   1.364
14559W        W86984  33.028  14.113  14.454
14560W        W86985  38.464  26.534  12.824
14561W        W86986  21.055  39.418   3.727
14562W        W86987  21.024  23.066  11.945
14563W        W86988  36.975  27.175   0.771
14564W        W86989  13.736  25.485  10.907
14565W        W86990   4.760  31.585  12.040
14566W        W86991  11.766  37.068  13.394
14567W        W86992  42.352  17.133   3.337
14568W        W86993  40.411  20.040  12.835
14569W        W86994  16.633  12.329  11.914
14570W        W86995  22.014  43.859   2.786
14571W        W86996  31.938  11.213   4.811
14572W        W86997  43.816  22.075   4.681
14573W        W86998   7.248  35.085  12.414
14574W        W86999  26.563  12.205  13.056
14575W        W87000  20.195   2.862  11.126
14576W        W87001   8.757  15.634  13.055
14577W        W87002  17.158  43.925  14.425
14578W        W87003  35.437  24.157   3.698
14579W        W87004   0.336   2.827  13.003
14580W        W87005  23.156  40.362   2.840
14581W        W87006  32.011  16.133  11.582
14582W        W87007  19.748   3.285  10.935
14583W        W87008   1.892   8.809   4.247
14584W        W87009   5.753  38.827   3.795
14585W        W87010  18.205  23.142  11.433
14586W        W87011  27.994  13.125   1.739
14587W        W87012  31.528  41.336   0.332
14588W        W87013  39.551   8.794   3.786
14589W        W87014  12.783  35.541   1.817
14590W        W87015  21.128  24.069  12.056
14591W        W87016  29.479   6.717   4.799
14592W        W87017  26.489   4.336   0.946
14593W        W87018   1.462   3.228  13.482
14594W        W87019  41.039  23.055   2.232
14595W        W87020  34.894  21.152   0.840
14596W        W87021  37.019  36.943  11.395
14597W        W87022  33.020  19.766   4.147
14598W        W87023  27.120  36.910   4.305
14599W        W87024  34.451  14.592   0.414
14600W        W87025   3.941  26.111  11.071
14601W        W87026  10.313  43.997   1.797
14602W        W87027  44.817  20.244  13.531
14603W        W87028  13.707  16.227  10.528
14604W        W87029   8.695   5.877  12.868
14605W        W87030  26.197  27.668  13.896
14606W        W87031  10.314  21.734   4.312
14607W        W87032   5.929  31.976   0.850
14608W        W87033  30.578   9.287  13.906
14609W        W87034  16.225  24.071   3.820
14610W        W87035   9.358  25.582   0.337
14611W        W87036  34.034   4.382   2.217
14612W        W87037  17.297   5.814   0.875
14613W        W87038  16.802   0.869  10.909
14614W        W87039  40.919   9.359  11.402
14615W        W87040  13.123  43.932   1.764
14616W        W87041  44.968  11.749  13.506
14617W        W87042   9.218  23.105   2.799
14618W        W87043   7.381  10.335  14.301
14619W        W87044  10.371  14.595   1.811
14620W        W87045  21.749  12.257  14.441
14621W        W87046  29.935  42.958   3.317
14622W        W87047  26.991  34.064   4.779
14623W        W87048  44.339  35.911  13.412
14624W        W87049  22.238   2.843   0.355
14625W        W87050   5.399   0.359   4.600
14626W        W87051  21.235  19.611   2.319
14627W        W87052  22.253  32.622  12.534
14628W        W87053  14.610  24.579   3.191
14629W        W87054   2.812  40.349  12.518
14630W        W87055  17.189  38.549   2.841
14631W        W87056  27.548  27.115  11.946
14632W        W87057  42.406  38.819  13.532
14633W        W87058   6.725  23.705   0.427
14634W        W87059  33.921  22.058   3.174
14635W        W87060   7.244  42.778  13.849
14636W        W87061  22.168  17.557   4.269
14637W        W87062  11.724  13.243  10.897
14638W        W87063   7.828   7.840   1.705
14639W        W87064   2.307  24.223  11.055
14640W        W87065  15.190   3.364   3.357
14641W        W87066  28.136   7.889   0.397
14642W        W87067   0.966  29.632   4.779
14643W        W87068  42.882  43.310  11.927
14644W        W87069   8.869  42.794   3.271
14645W        W87070  37.020   9.332   0.458
14646W        W87071  12.650   3.249  11.920
14647W        W87072  34.369  33.485   0.316
14648W        W87073  33.883  23.060   4.624
14649W        W87074  36.499  21.241   2.863
14650W        W87075  16.243   1.413  13.328
14651W        W87076  33.565   6.306   4.724
14652W        W87077  28.616  10.738  14.781
14653W        W87078  41.480  41.535  13.971
14654W        W87079  42.301   9.830   0.819
14655W        W87080  25.140  43.018  13.316
14656W        W87081   1.883   7.356   1.717
14657W        W87082  40.533  40.882  12.986
14658W        W87083  43.271  32.410   3.288
14659W        W87084   2.904  23.730  12.426
14660W        W87085  15.329  28.574   4.677
14661W        W87086  34.988  32.959  11.855
14662W        W87087  41.800  29.583  10.510
14663W        W87088  16.779  43.882   1.393
14664W        W87089  23.573  12.697  11.856
14665W        W87090  23.563  11.648   5.298
14666W        W87091   7.292  19.177  10.891
14667W        W87092  11.762  39.964  14.771
14668W        W87093  36.892  15.114  13.029
14669W        W87094  15.692  39.868   9.933
14670W        W87095  42.396  27.570  10.980
14671W        W87096  30.933   3.241   2.311
14672W        W87097  18.677  11.649   3.737
14673W        W87098   5.832  19.543   4.174
14674W        W87099  21.619   5.393  13.791
14675W        W87100   7.356  14.599  14.857
14676W        W87101  38.444  32.396  11.881
14677W        W87102  25.512  19.155  13.015
14678W        W87103  14.683   2.898  11.508
14679W        W87104  16.276  34.436   3.652
14680W        W87105  27.667   0.402  14.425
14681W        W87106  13.333  24.506   0.757
14682W        W87107   8.294   1.964   0.297
14683W        W87108  33.604  27.086   3.865
14684W        W87109  30.472   9.831   3.815
14685W        W87110  32.578   4.708  14.278
14686W        W87111  35.437  44.280   1.407
14687W        W87112  37.944  44.374   1.311
14688W        W87113   2.446  12.634  12.063
14689W        W87114  15.213  22.663  12.855
14690W        W87115  23.985  14.699   4.222
14691W        W87116  44.774  43.467   2.865
14692W        W87117  34.935  32.077   4.711
14693W        W87118   1.768  14.114   0.861
14694W        W87119  42.874  19.182  11.438
14695W        W87120  11.139  15.776  11.948
14696W        W87121   5.847  42.361  11.072
14697W        W87122  20.761  18.746   4.187
14698W        W87123  14.249  25.579   1.899
14699W        W87124  23.588  16.776  13.533
14700W        W87125  13.649  14.334  10.614
14701W        W87126  41.411   6.679  12.067
14702W        W87127  12.163  34.117  14.932
14703W        W87128  38.859  24.162  10.092
14704W        W87129  37.391  33.093  14.984
14705W        W87130  44.958  37.908  12.063
14706W        W87131  44.466   4.287   1.914
14707W        W87132  42.806  31.456  11.505
14708W        W87133   7.680   4.821  14.016
14709W        W87134  36.971  27.630   1.440
14710W        W87135  27.182  11.129  11.893
14711W        W87136  10.179  43.482   2.771
14712W        W87137  40.830  21.594   5.171
14713W        W87138   2.236  42.956  11.535
14714W        W87139  12.158  23.560   4.751
14715W        W87140  18.095  10.304  12.053
14716W        W87141  41.375  23.547  14.811
14717W        W87142  40.373  28.452  10.492
14718W        W87143  42.794   6.918   4.348
14719W        W87144  17.674  43.275   2.719
14720W        W87145  28.508  24.618  11.880
14721W        W87146  16.792  31.476   1.237
14722W        W87147   0.923  28.589   3.160
14723W        W87148   5.408  16.254   1.830
14724W        W87149  14.105  26.209  11.011
14725W        W87150  38.023  11.170  13.314
14726W        W87151  43.991  13.107   1.444
14727W        W87152  22.999   5.887  11.931
14728W        W87153   1.834  18.784  13.796
14729W        W87154  23.197  28.448  10.973
14730W        W87155  10.222  34.380  13.931
14731W        W87156  28.539  27.613  14.922
14732W        W87157  43.506  10.655   3.831
14733W        W87158  34.018  10.207  13.915
14734W        W87159   6.342  18.089   0.878
14735W        W87160  43.441  16.629  14.989
14736W        W87161  43.944   3.456   4.680
14737W        W87162   9.698  12.675  11.498
14738W        W87163  33.962   2.829   4.189
14739W        W87164  35.953  21.138   4.344
14740W        W87165  32.391  19.286   3.164
14741W        W87166  15.700  16.128   4.632
14742W        W87167  28.542   1.929   3.368
14743W        W87168  40.520  35.038   3.654
14744W        W87169  27.018   7.330  14.310
14745W        W87170  23.595  42.918   2.188
14746W        W87171  42.522  28.004  13.035
14747W        W87172  31.426  11.631  14.808
14748W        W87173  12.179  43.016   4.304
14749W        W87174  25.643  31.585   9.582
14750W        W87175   2.394   9.798   4.767
14751W        W87176  21.658  34.560   2.227
14752W        W87177  42.992  10.253  12.408
14753W        W87178  26.673  29.074  11.094
14754W        W87179  12.247   6.684  11.042
14755W        W87180   4.210  26.171   0.290
14756W        W87181  26.589   8.246   2.377
14757W        W87182  32.403  17.753   2.301
14758W        W87183  39.546  43.889  10.913
14759W        W87184  23.734  17.733  12.950
14760W        W87185  24.087  25.600  11.070
14761W        W87186   4.944  10.791  13.981
14762W        W87187   9.690   2.343  13.048
14763W        W87188  21.204   5.385   0.763
14764W        W87189  12.227  21.607   3.674
14765W        W87190  24.979  18.618  11.043
14766W        W87191   8.794  25.072  10.027
14767W        W87192  30.500   0.975  11.979
14768W        W87193  24.641  14.198   3.862
14769W        W87194   2.937  37.516  11.006
14770W        W87195   9.688  10.161  14.280
14771W        W87196   8.746  43.401   0.940
14772W        W87197  43.287  42.416  13.469
14773W        W87198  23.219   7.206   3.687
14774W        W87199  28.058  40.332  12.878
14775W        W87200   2.883  12.706  12.416
14776W        W87201  30.060  38.963   0.263
14777W        W87202  36.915  36.589  13.320
14778W        W87203  13.727  31.921  12.481
14779W        W87204   0.961  21.225  14.304
14780W        W87205  24.141   0.460   2.819
14781W        W87206  28.566  42.816   3.251
14782W        W87207  42.505   2.258  12.095
14783W        W87208  12.294  10.329  13.923
14784W        W87209  37.547  40.493   4.275
14785W        W87210  34.914  17.800  13.004
14786W        W87211  23.110  25.188  13.898
14787W        W87212   7.712  37.941   3.326
14788W        W87213   9.179  17.287  11.451
14789W        W87214  10.659  16.187   1.789
14790W        W87215  15.146  39.862   0.448
14791W        W87216   9.199  37.071  14.500
14792W        W87217   1.381  28.549  13.880
14793W        W87218  18.280  19.243  14.820
14794W        W87219   3.788  41.927   3.842
14795W        W87220  38.886  14.683  13.487
14796W        W87221  31.424   9.874   4.666
14797W        W87222   0.252   6.228  10.409
14798W        W87223   2.965  43.465  10.496
14799W        W87224   7.784  13.670  14.759
14800W        W87225  39.534  26.515   0.916
14801W        W87226  38.835  17.557  12.532
14802W        W87227  37.994  38.919   0.413
14803W        W87228  15.789   0.848  13.452
14804W        W87229  12.211  26.515   0.482
14805W        W87230  15.169  31.644  10.489
14806W        W87231   7.816  42.450   3.215
14807W        W87232   3.378  24.006   2.828
14808W        W87233   4.891  44.794  14.987
14809W        W87234  27.529  43.782   0.766
14810W        W87235  16.700  11.746  14.292
14811W        W87236  35.538  30.007   1.404
14812W        W87237   6.270   5.356  11.109
14813W        W87238  36.069   8.185   4.598
14814W        W87239  21.658  11.364   4.141
14815W        W87240  11.210  42.511  14.862
14816W        W87241  40.898  30.450  10.640
14817W        W87242  13.750   5.848   0.425
14818W        W87243  29.159  12.244   0.290
14819W        W87244  14.141  38.869   3.719
14820W        W87245  36.011   3.831   3.215
14821W        W87246  31.025   1.893   4.154
14822W        W87247  31.480  42.820  13.419
14823W        W87248  36.511   8.396   3.738
14824W        W87249  20.574  36.441  14.963
14825W        W87250  27.517  30.424  12.886
14826W        W87251  43.343  32.629   5.275
14827W        W87252  36.906  41.303  10.941
14828W        W87253   4.260  40.347  11.472
14829W        W87254  26.473  10.683   0.364
14830W        W87255  17.179  35.855   1.840
14831W        W87256  37.569  31.910  12.915
14832W        W87257   9.181  12.242  14.788
14833W        W87258   0.979  20.094  10.409
14834W        W87259   8.880  28.637  12.524
14835W        W87260  38.553   2.861  12.432
14836W        W87261  31.985  24.650  14.823
14837W        W87262  44.440  29.078   4.214
14838W        W87263  33.087  42.882   4.297
14839W        W87264  29.112   3.299  12.907
14840W        W87265  25.047  15.276   2.817
14841W        W87266   9.376  21.580   1.396
14842W        W87267  39.896  13.220  12.049
14843W        W87268   1.861  21.693  14.277
14844W        W87269  39.344  41.960   4.732
14845W        W87270  24.010  29.937   0.416
14846W        W87271  11.151  24.607   1.233
14847W        W87272  44.448   1.443  13.958
14848W        W87273   1.978  35.089   4.188
14849W        W87274  12.264  26.702   1.772
14850W        W87275  33.443  12.676   3.185
14851W        W87276  20.754  27.981   3.215
14852W        W87277  34.107   6.733   0.948
14853W        W87278  42.340  10.169   4.615
14854W        W87279  15.277  34.549   2.417
14855W        W87280  36.423  41.798  11.460
14856W        W87281  38.898  12.148   2.318
14857W        W87282  37.422  13.105  12.845
14858W        W87283  10.254  16.794   0.815
14859W        W87284  42.807  37.060   3.770
14860W        W87285  14.770  36.466   1.872
14861W        W87286   6.371  35.487  11.007
14862W        W87287  21.577  33.444   3.233
14863W        W87288  20.143  41.475  12.849
14864W        W87289  10.793  17.304  10.601
14865W        W87290  38.543  40.467   1.895
14866W        W87291  25.503  25.528   1.338
14867W        W87292  22.502  44.940   1.879
14868W        W87293  44.005  43.311  10.598
14869W        W87294  35.088  36.567   1.756
14870W        W87295   2.331  13.625  13.994
14871W        W87296  39.359  20.117  12.491
14872W        W87297  11.762   1.379   4.179
14873W        W87298  18.677  32.579  13.445
14874W        W87299   5.739  36.564  12.401
14875W        W87300  16.168   7.800   1.376
14876W        W87301  17.304   6.906   2.698
14877W        W87302  42.006   4.794   4.683
14878W        W87303  43.493  18.173   4.117
14879W        W87304  33.984  42.303  11.478
14880W        W87305   8.301  23.197   1.369
14881W        W87306  39.350  20.272   4.621
14882W        W87307  10.340  16.167  11.904
14883W        W87308  32.905  25.993   3.848
14884W        W87309   4.332   0.964   3.369
14885W        W87310  22.623  27.639   3.153
14886W        W87311  35.489  32.605  14.851
14887W        W87312  14.239  12.798   3.744
14888W        W87313  23.635  27.130  11.586
14889W        W87314  18.099  31.453   0.906
14890W        W87315  24.663  32.099   2.745
14891W        W87316   2.812  36.061   2.208
14892W        W87317  19.090  24.647  12.964
14893W        W87318  12.162  25.713  14.422
14894W        W87319  43.419  26.548  10.890
14895W        W87320  24.996  25.587   3.277
14896W        W87321  43.793  33.620   3.848
14897W        W87322  13.179   3.326  14.936
14898W        W87323  36.517   3.296   4.273
14899W        W87324  15.206  43.824   2.800
14900W        W87325  42.030  22.539   2.860
14901W        W87326  39.412  34.438  11.535
14902W        W87327  28.097   4.257  12.926
14903W        W87328   3.269   6.386   4.652
14904W        W87329  19.130  35.880  14.490
14905W        W87330  11.215  30.981  12.487
14906W        W87331  10.320  34.973  13.512
14907W        W87332  43.007  38.826  12.901
14908W        W87333  26.688  41.998   4.796
14909W        W87334  21.611   8.217   2.194
14910W        W87335  15.305  26.587  11.072
14911W        W87336  29.039  14.633   2.876
14912W        W87337  25.973   9.341  12.848
14913W        W87338  39.342  29.514   4.122
14914W        W87339  16.228  12.703  14.441
14915W        W87340  17.253  32.394  10.573
14916W        W87341  36.050  44.282   3.747
14917W        W87342  30.436  41.346   9.609
14918W        W87343   7.412  40.408  14.771
14919W        W87344  28.179  12.799  10.022
14920W        W87345   9.293   5.229   1.927
14921W        W87346  41.367  25.640  14.514
14922W        W87347   5.308  39.995  14.991
14923W        W87348   5.712  43.409   4.762
14924W        W87349  15.322  30.565   1.876
14925W        W87350  26.464   4.234  14.765
14926W        W87351  17.167  19.649   4.322
14927W        W87352  34.977  33.980  13.422
14928W        W87353  40.853  42.355   1.787
14929W        W87354  28.474  24.071  14.508
14930W        W87355   3.275  20.077   4.244
14931W        W87356   5.387  36.993   2.870
14932W        W87357   4.411  20.271  10.420
14933W        W87358   0.302  23.042   1.780
14934W        W87359   6.816   5.348  13.011
14935W        W87360  24.569  23.077  13.365
14936W        W87361   5.846   4.371  14.301
14937W        W87362  40.801   7.859   4.715
14938W        W87363   1.332  33.909   4.174
14939W        W87364  12.749  20.164  14.779
14940W        W87365   0.791  38.926  14.460
14941W        W87366  39.952  39.434   2.847
14942W        W87367  14.147   3.818   4.722
14943W        W87368  22.692   7.399  14.369
14944W        W87369  30.608  32.938  12.911
14945W        W87370  40.305  42.911  11.023
14946W        W87371  24.115   2.406  12.038
14947W        W87372   1.404  19.721   3.150
14948W        W87373  30.970  42.973  11.063
14949W        W87374   1.241  36.085  14.505
14950W        W87375  14.306  39.894   4.822
14951W        W87376  31.913  22.575   3.641
14952W        W87377   4.399  13.240   4.648
14953W        W87378  40.883  22.646   0.294
14954W        W87379  44.269  24.193   3.671
14955W        W87380  41.874   9.151  14.964
14956W        W87381  12.709  22.037  11.490
14957W        W87382  35.382  27.638  11.046
14958W        W87383  14.770  21.649   1.810
14959W        W87384   2.300  34.605   0.917
14960W        W87385  15.597  25.545   3.151
14961W        W87386  29.078  17.293   1.417
14962W        W87387  25.032  40.452  12.002
14963W        W87388  28.091   2.737  14.931
14964W        W87389  23.508  32.422  10.546
14965W        W87390  35.357  36.440   4.800
14966W        W87391  34.545  44.439   1.401
14967W        W87392   0.860  15.273   2.768
14968W        W87393   3.362  41.796   4.332
14969W        W87394   1.942   6.694  12.853
14970W        W87395  28.544  36.061   3.845
14971W        W87396  11.665  20.705   3.231
14972W        W87397  20.678   1.944  10.936
14973W        W87398  14.297  27.982   1.380
14974W        W87399  43.837  34.550  10.931
14975W        W87400   2.403  10.158   0.416
14976W        W87401  32.425  36.355   2.719
14977W        W87402  19.096  15.209  13.373
14978W        W87403   8.174  37.875  12.951
14979W        W87404  35.556  15.811  11.413
14980W        W87405  43.773  37.914  11.099
14981W        W87406  42.522  29.429  10.602
14982W        W87407   3.733  38.454   1.794
14983W        W87408  15.237  28.028   1.875
14984W        W87409  11.158  20.663  13.905
14985W        W87410   6.780   1.327  12.538
14986W        W87411   2.362  21.248   5.167
14987W        W87412  15.318   4.309   0.288
14988W        W87413  22.019  35.503  14.513
14989W        W87414  13.751  21.638   3.651
14990W        W87415  29.500  27.006  12.031
14991W        W87416  43.512  31.088   0.949
14992W        W87417  44.878  41.347  11.959
14993W        W87418  30.149  17.795  14.385
14994W        W87419  15.602  39.530   3.194
14995W        W87420   0.928   9.734   0.474
14996W        W87421  17.644  39.542  11.071
14997W        W87422  15.598  32.520   0.272
14998W        W87423  36.432   8.890   4.350
14999W        W87424  30.933   8.329   4.782
15000W        W87425  42.504  27.989  11.378
15001W        W87426  43.915  12.704  11.959
15002W        W87427  42.429  31.485  11.003
15003W        W87428  22.506   6.900  11.481
15004W        W87429  22.655  27.004  11.417
15005W        W87430  42.848  13.163   1.407
15006W        W87431  41.881  44.268  12.973
15007W        W87432  27.649  26.035  14.993
15008W        W87433  12.794   7.912  12.410
15009W        W87434   0.836  36.965  12.016
15010W        W87435  26.963  36.369   2.713
15011W        W87436  43.492  21.026   5.310
15012W        W87437  21.223  37.429   4.742
15013W        W87438  17.110   5.209   3.243
15014W        W87439  28.180  33.503   2.712
15015W        W87440  19.238  16.303   1.419
15016W        W87441  15.264  34.514   1.369
15017W        W87442  34.417  12.346  11.450
15018W        W87443  41.850  36.521  11.469
15019W        W87444  30.934  37.931   4.808
15020W        W87445  23.035  41.489  10.888
15021W        W87446  13.718  13.664   1.790
15022W        W87447   5.285   0.378   3.849
15023W        W87448  31.024  12.206  11.999
15024W        W87449   4.805  18.291  11.923
15025W        W87450   8.879  21.629  12.415
15026W        W87451  41.930   6.864   4.214
15027W        W87452  35.012  14.136  13.548
15028W        W87453  38.342  30.036  12.873
15029W        W87454   4.388  25.065  11.914
15030W        W87455   4.374  31.957   4.665
15031W        W87456  34.580   8.234  11.591
15032W        W87457   7.386   5.721   3.832
15033W        W87458  19.656  41.521  12.432
15034W        W87459  27.632  42.921   5.244
15035W        W87460  15.679   5.352   3.821
15036W        W87461  24.489   6.426   1.851
15037W        W87462   6.187  10.645   2.777
15038W        W87463  32.931   0.784  11.975
15039W        W87464  31.600   0.925  12.495
15040W        W87465  39.491  32.919  12.384
15041W        W87466  40.055  39.532   3.839
15042W        W87467  38.029  40.469  13.045
15043W        W87468   7.710  14.332  10.127
15044W        W87469   5.378  42.779   1.737
15045W        W87470   3.267  13.176   1.789
15046W        W87471  38.921  37.421  12.050
15047W        W87472  15.597  11.145  10.599
15048W        W87473  22.680  11.287   2.875
15049W        W87474  40.323  34.930   0.932
15050W        W87475   7.391  41.404  10.637
15051W        W87476   8.800  14.273  14.850
15052W        W87477   5.427  43.944  13.858
15053W        W87478  28.477   1.861   4.767
15054W        W87479  35.490   3.765   4.730
15055W        W87480  17.117  11.346   3.658
15056W        W87481   8.750   7.839   2.355
15057W        W87482  12.759   1.438   4.301
15058W        W87483  10.275  10.864   1.697
15059W        W87484  12.332   0.365   0.376
15060W        W87485  20.188  36.847  14.843
15061W        W87486  23.495  20.666   1.410
15062W        W87487  13.298  21.207   1.800
15063W        W87488  41.384  37.556  13.987
15064W        W87489  24.482  19.596  13.932
15065W        W87490  21.057  12.330  13.026
15066W        W87491  19.072  16.656  12.506
15067W        W87492   6.722   5.439   3.644
15068W        W87493  21.125  22.606   5.099
15069W        W87494  42.384  19.107   9.560
15070W        W87495  11.354  43.418  10.536
15071W        W87496  20.563  12.854   2.690
15072W        W87497   7.897  39.013   3.697
15073W        W87498  20.571  43.771   4.826
15074W        W87499  12.141  42.878  11.864
15075W        W87500  41.424  34.872   4.774
15076W        W87501  36.014  33.014  14.022
15077W        W87502  28.681   8.281  14.943
15078W        W87503   0.486  24.053  13.020
15079W        W87504  21.517  24.211   2.212
15080W        W87505  32.391  28.518  13.309
15081W        W87506  38.020  16.150  13.381
15082W        W87507  32.006  22.205   4.207
15083W        W87508  30.971  34.446   2.220
15084W        W87509  23.185   6.283  13.944
15085W        W87510  25.467  21.155   1.758
15086W        W87511  14.717   7.783  13.979
15087W        W87512   8.399   2.311   4.117
15088W        W87513   3.949  29.659   3.298
15089W        W87514  43.314   6.330   1.798
15090W        W87515   7.245  36.843   4.784
15091W        W87516   7.257  27.570   4.255
15092W        W87517  35.555  36.873   4.308
15093W        W87518  35.857  16.714  13.014
15094W        W87519   6.794  13.116  11.420
15095W        W87520  32.617   8.353   3.660
15096W        W87521   2.301  34.409   1.815
15097W        W87522  15.156  41.305   0.407
15098W        W87523  27.565   6.760   3.337
15099W        W87524   0.483  38.556   0.452
15100W        W87525  13.131  44.419  13.374
15101W        W87526  25.088  17.634  12.354
15102W        W87527  29.654   9.305   1.881
15103W        W87528  40.446   9.882   3.371
15104W        W87529  34.074   6.217  10.904
15105W        W87530   2.773   0.440   1.388
15106W        W87531  41.891  19.549   0.302
15107W        W87532  15.696  21.714   3.700
15108W        W87533  44.260  11.326   3.693
15109W        W87534  40.421   1.901  10.142
15110W        W87535  21.672  31.475  12.405
15111W        W87536  41.487   1.879   4.739
15112W        W87537  30.073  27.956  12.514
15113W        W87538   7.733  43.397   0.296
15114W        W87539  43.432  31.436   1.252
15115W        W87540  33.988  41.457   2.699
15116W        W87541  19.622  11.189   2.182
15117W        W87542  27.030  27.082   1.903
15118W        W87543  38.918   9.864  13.058
15119W        W87544  44.927  24.024  13.045
15120W        W87545  11.821  23.057   0.879
15121W        W87546  30.048  42.791   2.832
15122W        W87547   2.377   2.780  10.493
15123W        W87548   5.359  41.861  14.768
15124W        W87549  26.131  37.451  12.943
15125W        W87550  38.563  19.634   4.777
15126W        W87551   8.165   7.755   1.375
15127W        W87552  13.821  21.553  13.479
15128W        W87553  14.319   2.797   3.635
15129W        W87554  15.282  18.278   0.780
15130W        W87555  30.450  10.233   3.201
15131W        W87556  43.396   9.229   4.699
15132W        W87557  42.936   1.343  11.373
15133W        W87558  28.631  40.955   0.480
15134W        W87559   0.877  41.529   1.407
15135W        W87560  34.559  23.723   3.355
15136W        W87561  22.688  38.861  13.015
15137W        W87562  37.379  44.427  13.856
15138W        W87563  44.458  13.188   0.327
15139W        W87564   0.455  16.666  10.903
15140W        W87565   4.751  32.961  11.458
15141W        W87566   3.905  12.692  10.056
15142W        W87567  20.108   1.805  10.466
15143W        W87568  20.526  15.701  14.997
15144W        W87569   4.744  16.670   0.869
15145W        W87570  33.536   9.793   4.118
15146W        W87571  39.811  29.012  12.067
15147W        W87572  38.381  39.937  12.942
15148W        W87573   9.254  41.535  12.044
15149W        W87574  20.123  18.107   2.270
15150W        W87575  39.059   0.358  14.305
15151W        W87576   8.896  39.925  13.940
15152W        W87577  40.423  18.718   4.222
15153W        W87578  21.662  14.632   3.384
15154W        W87579  41.528  41.298  12.464
15155W        W87580  27.181  21.125  11.985
15156W        W87581  35.439  26.504   4.309
15157W        W87582  42.518  26.165  12.388
15158W        W87583   2.406  41.816  12.844
15159W        W87584   7.204   9.240  11.598
15160W        W87585  12.237   0.464  10.412
15161W        W87586  11.833   3.726   2.259
15162W        W87587  44.890   8.789  10.412
15163W        W87588   4.426  22.041  11.875
15164W        W87589  40.987  20.071  13.414
15165W        W87590  23.602  23.713  13.984
15166W        W87591  30.983  11.647  11.990
15167W        W87592  10.231  23.133   3.735
15168W        W87593   1.366  31.089   0.802
15169W        W87594  44.891  30.578   4.200
15170W        W87595   6.726  32.637  11.983
15171W        W87596  11.202  13.285   1.321
15172W        W87597   8.235   8.733  12.930
15173W        W87598  23.096  34.438   3.842
15174W        W87599  14.651  10.318  11.864
15175W        W87600  28.600  30.019   2.397
15176W        W87601  12.714  28.028  12.067
15177W        W87602  35.389  36.032   1.382
15178W        W87603  18.197  42.775   2.786
15179W        W87604   7.708  28.929  10.124
15180W        W87605  39.043  16.308  10.446
15181W        W87606  24.664  32.132   4.225
15182W        W87607  24.209  40.396   0.748
15183W        W87608  22.166   0.751  14.833
15184W        W87609  14.796  44.292   4.663
15185W        W87610   2.926  20.698   1.932
15186W        W87611  29.062  36.034   0.449
15187W        W87612  19.160  39.039  12.909
15188W        W87613   8.743  43.295  11.499
15189W        W87614   4.416  12.760  13.987
15190W        W87615  40.324   9.288  13.909
15191W        W87616  44.924  43.865   3.762
15192W        W87617  40.542  34.021  12.350
15193W        W87618  42.780  29.494   0.451
15194W        W87619  37.568   6.895   3.794
15195W        W87620  23.182  26.036   1.730
15196W        W87621   1.961  30.132  13.829
15197W        W87622  29.960  43.428  14.008
15198W        W87623   7.238  11.272   0.321
15199W        W87624  34.933  12.354  13.918
15200W        W87625  36.935  42.873  12.901
15201W        W87626   1.791  26.022  14.815
15202W        W87627  41.317  18.662   2.274
15203W        W87628   3.243   7.239   1.222
15204W        W87629  41.852  29.958  10.931
15205W        W87630  33.122  43.894   3.243
15206W        W87631  12.814   2.313  14.815
15207W        W87632  41.006  36.544  14.818
15208W        W87633  42.350  23.549   0.297
15209W        W87634  33.400   9.858  13.480
15210W        W87635  19.076   7.806  14.350
15211W        W87636  12.261  20.109   2.373
15212W        W87637  19.127  20.667   0.399
15213W        W87638  36.490   7.325  14.914
15214W        W87639   4.941  37.477   1.450
15215W        W87640  33.945  14.294   0.252
15216W        W87641  26.032  43.781  10.910
15217W        W87642  43.387  22.137  12.463
15218W        W87643  32.043  16.229   0.859
15219W        W87644  29.443   0.354  14.417
15220W        W87645   8.380  42.511   1.908
15221W        W87646  17.186  24.498   0.902
15222W        W87647   8.282   1.875  11.537
15223W        W87648  27.178   4.396   3.342
15224W        W87649   8.831   3.872   2.759
15225W        W87650  27.614  39.353  13.041
15226W        W87651   3.725  11.836  11.513
15227W        W87652  40.957  16.158  14.327
15228W        W87653  30.156  34.014  11.980
15229W        W87654  24.650  37.380  11.047
15230W        W87655  27.676  23.061  14.429
15231W        W87656  42.014  16.810  13.377
15232W        W87657  34.111  42.973  14.919
15233W        W87658  17.283  34.888  11.397
15234W        W87659   5.253  36.955  12.945
15235W        W87660  41.454   3.811   2.726
15236W        W87661   9.756  18.667  10.418
15237W        W87662  12.786  14.813   2.302
15238W        W87663  40.030  38.435  13.815
15239W        W87664  28.153  14.315  10.583
15240W        W87665  42.382  23.577  10.440
15241W        W87666  11.371   8.735  14.939
15242W        W87667  21.700  28.141  11.925
15243W        W87668  29.521  26.486  14.021
15244W        W87669  34.944  19.702  13.356
15245W        W87670  42.342  38.536   1.348
15246W        W87671  41.874  41.941   2.298
15247W        W87672  39.403  42.393   0.413
15248W        W87673  15.608   6.405  13.876
15249W        W87674  43.832  37.437  14.481
15250W        W87675  38.330   0.891   1.433
15251W        W87676  30.026   2.953   0.864
15252W        W87677  40.923  31.989   3.658
15253W        W87678   9.794  19.218   4.159
15254W        W87679  42.007  25.665   0.915
15255W        W87680  39.463  36.044  13.491
15256W        W87681  35.891   1.289   3.695
15257W        W87682   8.386  10.712   2.761
15258W        W87683   1.337   4.817  12.372
15259W        W87684  24.153  26.621   0.457
15260W        W87685  25.168   1.454   1.917
15261W        W87686  17.287  27.129   2.397
15262W        W87687  13.215   3.816  13.891
15263W        W87688  29.596   9.180   2.380
15264W        W87689  25.683  10.295  12.485
15265W        W87690   0.861   3.380   3.782
15266W        W87691   1.387  26.544   4.829
15267W        W87692  12.613   4.253  12.493
15268W        W87693  19.724  19.204   2.240
15269W        W87694  15.665  16.116   1.837
15270W        W87695  23.182  27.102  12.889
15271W        W87696  40.051  15.136  14.024
15272W        W87697  29.949  31.602   0.339
15273W        W87698  30.488   8.208   1.733
15274W        W87699  18.155  20.203  10.549
15275W        W87700  39.336   0.894  13.022
15276W        W87701  26.194  36.449  10.921
15277W        W87702  27.568  42.011   3.660
15278W        W87703  33.894  24.533  10.457
15279W        W87704  11.854  26.661  13.975
15280W        W87705  32.983  38.949   3.728
15281W        W87706   8.828  27.158   0.407
15282W        W87707   7.693  25.122  10.156
15283W        W87708   2.406  18.578   5.293
15284W        W87709  16.783  34.896   4.657
15285W        W87710  18.175  44.926  13.430
15286W        W87711  24.108  33.965   0.349
15287W        W87712  16.243  10.691   4.650
15288W        W87713  40.493   7.846  13.432
15289W        W87714  33.957  28.102  10.159
15290W        W87715  37.977  36.423  13.975
15291W        W87716  30.061  30.483  14.808
15292W        W87717  38.430  26.006  13.884
15293W        W87718  14.165  37.044   2.691
15294W        W87719  32.128  14.298  13.939
15295W        W87720   1.417  11.864  11.926
15296W        W87721  15.312  29.661  13.372
15297W        W87722  37.944  10.722   2.411
15298W        W87723  36.357  16.593  14.277
15299W        W87724  21.558  30.954  13.904
15300W        W87725   3.765  34.602   4.123
15301W        W87726  13.600  32.126   0.434
15302W        W87727  38.478  23.596  14.301
15303W        W87728  12.812  34.877  12.505
15304W        W87729  33.575   4.358  13.860
15305W        W87730  36.583  14.309   9.937
15306W        W87731   5.258  44.809   0.397
15307W        W87732  43.436  22.096  14.311
15308W        W87733  34.973  19.249   0.819
15309W        W87734  21.073  40.403   2.305
15310W        W87735  13.186  26.464   3.634
15311W        W87736  39.065   9.157  10.920
15312W        W87737  36.952  33.524   1.309
15313W        W87738  21.689  24.056   0.882
15314W        W87739  34.414   0.373  12.989
15315W        W87740  23.233  21.620   4.662
15316W        W87741  38.326  42.921   4.116
15317W        W87742  26.585   1.474   4.209
15318W        W87743   5.916   9.663   1.344
15319W        W87744  10.729  23.603   5.257
15320W        W87745  14.770  23.169   4.705
15321W        W87746  25.575  14.832   1.741
15322W        W87747  34.535  41.413   2.864
15323W        W87748  29.448  32.023  11.891
15324W        W87749  33.918  35.432  12.914
15325W        W87750  17.106   3.298  10.481
15326W        W87751  20.122  11.345   1.371
15327W        W87752   5.722  30.106   0.265
15328W        W87753   8.325  40.356  12.063
15329W        W87754  39.438   2.397  12.827
15330W        W87755  11.135  17.275  14.334
15331W        W87756  12.325  11.178  13.311
15332W        W87757  28.078  30.084   2.232
15333W        W87758   6.884  29.142  13.844
15334W        W87759  11.749  27.957   4.706
15335W        W87760  24.037  41.405  14.875
15336W        W87761  16.691  43.462  12.926
15337W        W87762  31.601  26.128   0.922
15338W        W87763  27.452  19.708   4.611
15339W        W87764  39.348  35.875   3.310
15340W        W87765  12.164  17.786  14.277
15341W        W87766  21.624  40.503   0.754
15342W        W87767   5.218  41.020   1.391
15343W        W87768  13.831   2.269  12.941
15344W        W87769  41.000  16.161  14.774
15345W        W87770  28.947  17.212  14.775
15346W        W87771   8.764  13.208  10.922
15347W        W87772  25.539  25.118  13.393
15348W        W87773  33.517  11.236  11.916
15349W        W87774  32.930  43.440   2.868
15350W        W87775   7.231  40.331   1.768
15351W        W87776  14.758  34.576  11.858
15352W        W87777  24.224  29.654  10.075
15353W        W87778  33.511  21.136  13.865
15354W        W87779  44.399   6.210   0.776
15355W        W87780   4.708  39.973   4.631
15356W        W87781   0.779  20.683   1.935
15357W        W87782  30.512  26.551   4.189
15358W        W87783   2.335  25.579   1.806
15359W        W87784  17.211  32.636   0.326
15360W        W87785  34.557  36.359   4.721
15361W        W87786  38.341  29.534  11.077
15362W        W87787  34.461  12.222  14.498
15363W        W87788  31.939  23.703  11.599
15364W        W87789  16.585   3.422  11.440
15365W        W87790   0.419  40.460  11.424
15366W        W87791  33.574   9.372  12.442
15367W        W87792  24.711  36.399  12.994
15368W        W87793  27.630  41.925  14.467
15369W        W87794  37.410  14.613   5.276
15370W        W87795  44.786  18.791  13.063
15371W        W87796   6.249  42.873   1.283
15372W        W87797   9.836  24.513   4.766
15373W        W87798  43.993  30.521   3.330
15374W        W87799  27.975  37.404   5.282
15375W        W87800  13.341  27.943   3.698
15376W        W87801  23.991  33.959   0.939
15377W        W87802  38.332  37.537  12.512
15378W        W87803  12.346  26.183   3.176
15379W        W87804  44.281  35.560   0.274
15380W        W87805  41.334   9.690  14.883
15381W        W87806   2.949  40.421   2.348
15382W        W87807  37.507   0.345  11.064
15383W        W87808  25.677  33.899  13.463
15384W        W87809  13.613  28.473  11.538
15385W        W87810  28.448   9.731  11.972
15386W        W87811  35.020   3.737   3.222
15387W        W87812  31.478   7.320  13.795
15388W        W87813  30.034   0.278  11.923
15389W        W87814  14.262  23.571   0.783
15390W        W87815  23.155  31.007   1.857
15391W        W87816   1.283   6.814   0.904
15392W        W87817  14.250  41.869   1.893
15393W        W87818   6.914  44.760   3.177
15394W        W87819  13.760   7.731   4.816
15395W        W87820  24.988  23.221  14.379
15396W        W87821  23.989  29.124   3.186
15397W        W87822  44.442  13.707   4.830
15398W        W87823  18.701  33.394  13.535
15399W        W87824  23.065   6.422   2.851
15400W        W87825  32.493  20.654  10.906
15401W        W87826  40.532  19.754  11.976
15402W        W87827  42.384  15.710   2.816
15403W        W87828  34.572  10.289  10.630
15404W        W87829  21.555  34.602   4.794
15405W        W87830   1.412  18.679   4.294
15406W        W87831   6.286  24.109  10.508
15407W        W87832  26.158  10.792  13.403
15408W        W87833   6.320  43.976  10.533
15409W        W87834   5.843   7.349  10.986
15410W        W87835  41.977  36.933   3.870
15411W        W87836  31.580  42.863   1.320
15412W        W87837   7.858  11.330   1.339
15413W        W87838  18.162  19.173   2.851
15414W        W87839  40.800  38.532  13.934
15415W        W87840  38.034  20.122   2.695
15416W        W87841   3.769  14.633  11.575
15417W        W87842  24.086  29.998  14.503
15418W        W87843   8.334  30.626   3.747
15419W        W87844  22.724   5.355  13.374
15420W        W87845  39.480  24.670   2.321
15421W        W87846  44.444   0.745   4.750
15422W        W87847   3.247   5.799  14.388
15423W        W87848   5.844  14.099  11.984
15424W        W87849  10.249  29.080   1.774
15425W        W87850  43.020  40.839   2.227
15426W        W87851  17.669   4.246   3.698
15427W        W87852  17.175   1.462  13.412
15428W        W87853  18.192  17.255   1.882
15429W        W87854   7.865  43.792  12.970
15430W        W87855   1.969  28.461  10.483
15431W        W87856   4.789  38.864  11.908
15432W        W87857  31.068   2.794  10.430
15433W        W87858  35.915   0.468  12.898
15434W        W87859  12.777  38.442  11.995
15435W        W87860  35.569  11.863  11.989
15436W        W87861   0.858   3.860  10.587
15437W        W87862  38.862  37.922   4.332
15438W        W87863  19.249  33.582  13.478
15439W        W87864   2.788  42.800   2.683
15440W        W87865  30.635  21.633   4.714
15441W        W87866  36.443  30.541  13.964
15442W        W87867   9.815  10.823   0.435
15443W        W87868  15.813  35.568   0.474
15444W        W87869  28.629  36.410   2.315
15445W        W87870  27.083  32.395   0.330
15446W        W87871  26.097  17.253   1.854
15447W        W87872   2.282  31.646   2.260
15448W        W87873  28.975  39.001  14.801
15449W        W87874  36.091  26.591   4.830
15450W        W87875   3.229   9.176   2.726
15451W        W87876  33.429  25.652  13.438
15452W        W87877  40.891   6.680   2.321
15453W        W87878  32.480   5.306  10.589
15454W        W87879  25.060  32.043   2.773
15455W        W87880  29.027  28.486  12.513
15456W        W87881  30.010  12.694   4.642
15457W        W87882   3.221   9.822  12.348
15458W        W87883  20.088  31.538  14.432
15459W        W87884  23.995  28.176   4.236
15460W        W87885  23.985  36.919   0.750
15461W        W87886  14.162  17.575  12.930
15462W        W87887  15.762  34.492   4.672
15463W        W87888  34.061  36.547   1.298
15464W        W87889  29.507   8.880  13.820
15465W        W87890  32.999  12.799  11.861
15466W        W87891  28.111  17.796  12.949
15467W        W87892  11.740  19.686   1.331
15468W        W87893  10.839   0.371  14.396
15469W        W87894  25.574  34.879   0.734
15470W        W87895  44.391  33.418   1.886
15471W        W87896  20.111  13.276  13.031
15472W        W87897  37.363  18.248  12.916
15473W        W87898  30.485  23.692   0.343
15474W        W87899  21.579  11.222   2.359
15475W        W87900  44.770  20.736   1.731
15476W        W87901  29.468   7.835  14.881
15477W        W87902  15.318  37.836   3.172
15478W        W87903  16.223  21.239   4.184
15479W        W87904  30.595  36.008  13.380
15480W        W87905   3.294  44.394  14.460
15481W        W87906  12.147  14.822   1.842
15482W        W87907  34.016  24.602   0.847
15483W        W87908  39.324   6.403   4.287
15484W        W87909  34.994  11.813  14.368
15485W        W87910  23.209  29.607   1.269
15486W        W87911   0.889  12.623  11.117
15487W        W87912  24.622  40.899   3.661
15488W        W87913  30.988   4.780   1.880
15489W        W87914  24.517   2.772  11.120
15490W        W87915  37.942  23.501   2.316
15491W        W87916  25.657  10.816   1.380
15492W        W87917  18.272  36.530   1.918
15493W        W87918  33.946   3.302  13.993
15494W        W87919  29.065   5.387  11.607
15495W        W87920  30.921  32.565   1.912
15496W        W87921  28.554  37.570   1.858
15497W        W87922  28.676  43.333   3.769
15498W        W87923  27.133  16.218   2.667
15499W        W87924  43.801  11.631  13.456
15500W        W87925  20.565   0.464  12.459
15501W        W87926   7.224  31.610  14.945
15502W        W87927  12.840   2.317   3.665
15503W        W87928   5.407  17.799  13.041
15504W        W87929   0.765  37.345  13.486
15505W        W87930  26.144  42.452  13.796
15506W        W87931  11.214  20.065   1.334
15507W        W87932  41.486  23.722   0.825
15508W        W87933  44.935  25.207   1.404
15509W        W87934  36.091  24.629  13.850
15510W        W87935  38.327  19.740  14.945
15511W        W87936  11.678  42.859  14.886
15512W        W87937  22.204  17.093  12.491
15513W        W87938  11.160   3.822   1.266
15514W        W87939  30.135  12.739   2.885
15515W        W87940  28.638   9.711   0.434
15516W        W87941   4.375  28.953  10.620
15517W        W87942   3.247  18.265   2.267
15518W        W87943  19.691   2.802  11.570
15519W        W87944  24.681  11.203   5.709
15520W        W87945  28.930  22.572   2.883
15521W        W87946  32.141   7.387   0.817
15522W        W87947   8.285  23.697  10.636
15523W        W87948  19.544  37.472   1.263
15524W        W87949  34.100  22.698   2.813
15525W        W87950  23.111  36.496  10.449
15526W        W87951   5.204   1.775   2.181
15527W        W87952  14.657  30.031   0.960
15528W        W87953  31.093   0.814   5.230
15529W        W87954  14.156  26.624  14.347
15530W        W87955  42.448  29.961  10.513
15531W        W87956  36.411  10.811   2.807
15532W        W87957   1.466   3.948   0.440
15533W        W87958  29.000  25.538   1.783
15534W        W87959   8.349  29.484   3.803
15535W        W87960  17.151  19.248   0.345
15536W        W87961   1.452  42.957  10.514
15537W        W87962  32.401  10.763  11.498
15538W        W87963  27.453  34.904  11.526
15539W        W87964  19.279   5.265  12.031
15540W        W87965  41.801  43.942  10.485
15541W        W87966  31.405  41.514   1.241
15542W        W87967  28.962  43.513  13.330
15543W        W87968  27.619  28.548   4.193
15544W        W87969   9.329  23.491   4.622
15545W        W87970  21.034  43.297   1.878
15546W        W87971   1.325  17.240  11.432
15547W        W87972  40.813  39.824   0.288
15548W        W87973  29.166  36.419   3.357
15549W        W87974  27.035  39.331  10.487
15550W        W87975  44.900  44.967   2.289
15551W        W87976  39.436  15.786  13.377
15552W        W87977  13.162  15.741   2.217
15553W        W87978  42.984   3.276  10.583
15554W        W87979   1.364  42.804   3.797
15555W        W87980  20.653  18.743   3.329
15556W        W87981   6.273  41.427   3.333
15557W        W87982  18.729   5.194  14.809
15558W        W87983   2.840  28.089   2.902
15559W        W87984  32.406  44.900  12.353
15560W        W87985  35.046  20.663  13.911
15561W        W87986  33.087  19.270  13.505
15562W        W87987   1.845   6.300  12.374
15563W        W87988  25.124   5.358   0.892
15564W        W87989  14.315  10.678   4.134
15565W        W87990  10.216   3.760  12.538
15566W        W87991   6.923  10.352   1.909
15567W        W87992  35.055   1.297   1.373
15568W        W87993  31.119  35.081   1.854
15569W        W87994  34.082  10.205   4.134
15570W        W87995  28.158   9.760   0.901
15571W        W87996  31.132  15.671   4.813
15572W        W87997   4.774  27.031  11.429
15573W        W87998  14.131  42.446  10.405
15574W        W87999  35.467  26.186  14.008
15575W        W88000  19.220   5.247   1.862
15576W        W88001  32.094  27.534  12.991
15577W        W88002   7.905  27.649   2.713
15578W        W88003  27.461  24.114  13.038
15579W        W88004  35.907  32.979   2.814
15580W        W88005  11.220  13.246  10.588
15581W        W88006   1.943  34.020  11.456
15582W        W88007  21.033  16.729   1.432
15583W        W88008  35.938   8.840   1.797
15584W        W88009  27.576  24.135   0.910
15585W        W88010  35.069  32.549  12.403
15586W        W88011  17.611  21.757   3.837
15587W        W88012  11.788  24.701   5.172
15588W        W88013  10.203   5.337  13.369
15589W        W88014  36.893  21.027   0.399
15590W        W88015  35.384  36.960   2.789
15591W        W88016  17.608  38.436   3.735
15592W        W88017  23.236  29.639  14.838
15593W        W88018   6.855  10.267  11.886
15594W        W88019  33.897  31.629  14.834
15595W        W88020  44.821  44.795   1.387
15596W        W88021  36.930  43.343   0.385
15597W        W88022  26.491  15.813   3.791
15598W        W88023  11.726   1.407  10.033
15599W        W88024   7.898  44.282   3.267
15600W        W88025  26.149  15.089  10.951
15601W        W88026  11.700   9.281  11.890
15602W        W88027   8.287   1.888   2.899
15603W        W88028  22.642  20.561  12.427
15604W        W88029  13.215  13.114  13.476
15605W        W88030  42.328  40.864  11.569
15606W        W88031  36.508  29.642   0.407
15607W        W88032   5.905  27.954  11.909
15608W        W88033   0.485  25.701  10.594
15609W        W88034   1.815  42.411   0.730
15610W        W88035   9.734  33.897   4.215
15611W        W88036  12.736  26.033   4.678
15612W        W88037  25.587   0.419  10.479
15613W        W88038  12.207  16.586  11.091
15614W        W88039  39.871   2.749  11.949
15615W        W88040  43.277  15.705   4.659
15616W        W88041   6.392  38.944  14.004
15617W        W88042  38.029   8.173   5.259
15618W        W88043  19.723  10.245  13.015
15619W        W88044  44.825  16.660   0.305
15620W        W88045  14.702  20.655   2.419
15621W        W88046  36.052  12.152  13.019
15622W        W88047  18.289   3.359   1.756
15623W        W88048  20.705  37.991  12.853
15624W        W88049  44.294  38.431  12.570
15625W        W88050  37.071  36.021   3.165
15626W        W88051  34.517  44.488   2.230
15627W        W88052  17.099  17.281   2.264
15628W        W88053   1.868   5.316  11.967
15629W        W88054  26.619   1.425   1.357
15630W        W88055  44.876  22.217   3.702
15631W        W88056  11.360   9.725   2.828
15632W        W88057   1.760  44.323  11.065
15633W        W88058  44.453  35.508  11.986
15634W        W88059  20.197  31.943  11.052
15635W        W88060   3.217  22.167  12.846
15636W        W88061  15.603   3.733   4.597
15637W        W88062  33.998   8.181   3.355
15638W        W88063  40.305  26.006  11.933
15639W        W88064  33.436  22.217   3.779
15640W        W88065  40.865  26.011   2.316
15641W        W88066   6.206  35.047  13.371
15642W        W88067  36.910  14.603  10.497
15643W        W88068  20.272  41.021  14.406
15644W        W88069  19.543  38.387  12.437
15645W        W88070  32.905   1.357  11.969
15646W        W88071  11.133  39.816  11.570
15647W        W88072  10.244  22.735  13.946
15648W        W88073  21.696  18.618   1.256
15649W        W88074   4.365  39.889  12.858
15650W        W88075  12.655  37.347   1.763
15651W        W88076   8.166   0.864   0.926
15652W        W88077  38.825  17.219  11.587
15653W        W88078  35.995  18.142  11.034
15654W        W88079  42.837  42.469  12.438
15655W        W88080  27.625   7.910   3.340
15656W        W88081   3.440  22.720   3.345
15657W        W88082  21.079  32.134   4.681
15658W        W88083  36.892  29.625  13.911
15659W        W88084  15.609   4.418   2.213
15660W        W88085  28.538  11.209  12.934
15661W        W88086  41.329  18.055   4.301
15662W        W88087   4.813  10.270   1.218
15663W        W88088  31.918  35.988   0.860
15664W        W88089  32.928  32.423  13.378
15665W        W88090  20.272  21.179  11.401
15666W        W88091  20.767   1.429  10.405
15667W        W88092   8.688  34.526   3.736
15668W        W88093  13.236  42.778   0.434
15669W        W88094  16.219  34.488  13.866
15670W        W88095  12.661  39.061   4.641
15671W        W88096  11.228  42.456   0.785
15672W        W88097  10.786   3.256  12.413
15673W        W88098  11.304  36.952   3.335
15674W        W88099   4.758  25.565  12.827
15675W        W88100  17.585   8.235  10.577
15676W        W88101   1.865   5.196  13.410
15677W        W88102  28.943  43.936   1.414
15678W        W88103  31.520  40.849  10.952
15679W        W88104  13.210   8.761  12.844
15680W        W88105  37.980  42.925   3.369
15681W        W88106   2.364  44.936   4.741
15682W        W88107  38.938  26.656   4.156
15683W        W88108  35.360  35.378  11.400
15684W        W88109   3.256   4.218   2.670
15685W        W88110  20.583   3.385  12.904
15686W        W88111   2.948  43.364  11.416
15687W        W88112  42.497  20.633  10.483
15688W        W88113   4.357   6.225   4.166
15689W        W88114  18.761  17.187   4.245
15690W        W88115  30.151  24.502   2.383
15691W        W88116  39.027  22.190  11.895
15692W        W88117  22.089  10.360  12.075
15693W        W88118  13.721  40.968   1.396
15694W        W88119   2.246  21.185   2.840
15695W        W88120  31.551  18.082   1.406
15696W        W88121   3.423  39.875   1.757
15697W        W88122  41.399  24.094  14.865
15698W        W88123  33.906  34.089  14.771
15699W        W88124  31.553   6.241  13.008
15700W        W88125  17.791   6.389  11.456
15701W        W88126  25.614  18.562   2.389
15702W        W88127  39.932  33.065   3.845
15703W        W88128  21.750  42.962  10.951
15704W        W88129  28.066  10.339  14.374
15705W        W88130  23.711   9.284   1.871
15706W        W88131  37.004  12.246  13.961
15707W        W88132  34.501  37.462  14.001
15708W        W88133   2.768  28.553  14.506
15709W        W88134  15.138   1.864   4.695
15710W        W88135   9.394  38.904   3.808
15711W        W88136  41.395  26.029  11.470
15712W        W88137  18.200   4.765   1.300
15713W        W88138  14.237  13.276   3.729
15714W        W88139  42.000  35.892  11.071
15715W        W88140  36.982   6.278  11.050
15716W        W88141  36.013  16.609  10.972
15717W        W88142  36.064  31.431  13.035
15718W        W88143  42.392  25.631   3.181
15719W        W88144  22.153  39.516   2.383
15720W        W88145  38.035  40.021  14.943
15721W        W88146  29.658  30.978  10.632
15722W        W88147  15.202   5.321  12.971
15723W        W88148  26.483  29.036  10.455
15724W        W88149  24.129  44.292   4.266
15725W        W88150   6.819  26.079   4.652
15726W        W88151  35.033  14.108  12.346
15727W        W88152  28.102  43.511  13.029
15728W        W88153  29.553   8.359  10.560
15729W        W88154  13.808  22.705   3.708
15730W        W88155  24.685  31.896  12.993
15731W        W88156  14.199  32.495   0.821
15732W        W88157   3.245  21.029   4.710
15733W        W88158  30.083  42.795   1.235
15734W        W88159  15.237  21.130   1.360
15735W        W88160  22.529  17.108  12.854
15736W        W88161  39.521  32.102  12.542
15737W        W88162  25.991  17.752   0.837
15738W        W88163  38.445  41.786   4.642
15739W        W88164  14.241   8.893   4.803
15740W        W88165   3.841  29.058  10.453
15741W        W88166   8.184  43.461   3.298
15742W        W88167  30.453  24.485   2.765
15743W        W88168  14.296   0.389  11.600
15744W        W88169   5.383  26.599   2.788
15745W        W88170  42.385  30.503  14.915
15746W        W88171   0.277  41.328  10.607
15747W        W88172  42.844   8.785   2.849
15748W        W88173  33.991  16.727   0.774
15749W        W88174  37.035  17.610  13.359
15750W        W88175  18.559  29.050  14.985
15751W        W88176  18.122  26.953  13.375
15752W        W88177  20.057  17.134  14.840
15753W        W88178   7.683  14.764   2.279
15754W        W88179  18.253  43.377  10.611
15755W        W88180  13.232   8.166   1.308
15756W        W88181   7.889  25.592  11.865
15757W        W88182  35.436   0.933  13.453
15758W        W88183  30.989  18.201   3.802
15759W        W88184  17.662  21.074   0.290
15760W        W88185  23.045  17.222  14.959
15761W        W88186  44.363  19.119  11.517
15762W        W88187  34.035  42.426   0.328
15763W        W88188  18.230  18.722   0.326
15764W        W88189  12.710  44.341   9.945
15765W        W88190   4.307  44.917  10.496
15766W        W88191   1.319  39.895   2.752
15767W        W88192  35.601   9.851  12.539
15768W        W88193  14.236   2.760   4.776
15769W        W88194   3.268   2.833  11.128
15770W        W88195  33.878   5.811   2.304
15771W        W88196  12.274  25.477   1.883
15772W        W88197  20.623  24.713  13.340
15773W        W88198  20.690  31.052  14.910
15774W        W88199  17.723  33.441  12.428
15775W        W88200  33.984  16.220   1.237
15776W        W88201  11.225   2.860  13.013
15777W        W88202   9.778  36.351  14.351
15778W        W88203  14.276  21.569   1.863
15779W        W88204   9.788  12.325  13.817
15780W        W88205  11.205  21.726   2.257
15781W        W88206  38.344  16.694   0.880
15782W        W88207  16.772  38.962   2.823
15783W        W88208  30.533  22.088   1.440
15784W        W88209  35.958   3.785  12.009
15785W        W88210  35.087  43.853  14.864
15786W        W88211  32.950  11.667   0.858
15787W        W88212  15.768  31.075  14.409
15788W        W88213  29.444  23.604   0.924
15789W        W88214  32.469  20.241  14.790
15790W        W88215  11.680   1.759   2.183
15791W        W88216  18.597  27.079  10.457
15792W        W88217  39.453  16.114  14.829
15793W        W88218  17.203  42.887   3.796
15794W        W88219  41.006   5.251   2.363
15795W        W88220   0.860  31.133   2.281
15796W        W88221  18.664  43.320  11.544
15797W        W88222  22.561  28.468  10.432
15798W        W88223  34.952   5.783  12.469
15799W        W88224  40.316  26.516   3.833
15800W        W88225  34.074  25.215  10.488
15801W        W88226   8.196  10.244   0.960
15802W        W88227  13.212   1.473  10.418
15803W        W88228  23.050   3.239  11.422
15804W        W88229  15.087  29.474   4.166
15805W        W88230  37.034   4.253   2.845
15806W        W88231   5.721  15.621   1.262
15807W        W88232  30.996  14.187  12.503
15808W        W88233  27.546  23.536  10.107
15809W        W88234  44.883   6.309   3.191
15810W        W88235  31.410  39.519   9.544
15811W        W88236  17.686  10.267  13.333
15812W        W88237  26.999  28.987  13.884
15813W        W88238  27.070  26.477   1.695
15814W        W88239  42.913   6.765  12.066
15815W        W88240  41.823  27.956   1.417
15816W        W88241  43.826   0.815   2.332
15817W        W88242   1.371  15.297  11.583
15818W        W88243  37.449   9.668   0.410
15819W        W88244  44.985  14.169   2.400
15820W        W88245  12.686  42.391   3.266
15821W        W88246  18.774  25.086  13.491
15822W        W88247   7.188  18.666  10.458
15823W        W88248  25.160  22.024  12.354
15824W        W88249  11.239  13.320   3.385
15825W        W88250  28.678   1.745  13.449
15826W        W88251   2.366  32.089  12.994
15827W        W88252  13.221   6.362  10.019
15828W        W88253   8.812   2.349   4.327
15829W        W88254  32.971  32.959   4.302
15830W        W88255  18.730  32.981   1.798
15831W        W88256  40.941  38.437  10.893
15832W        W88257  42.388   2.436  10.638
15833W        W88258  19.265  31.091   0.407
15834W        W88259  34.556  35.584   2.400
15835W        W88260  35.085  33.511  12.989
15836W        W88261   4.211   4.727   0.480
15837W        W88262  34.595  35.423   3.726
15838W        W88263  43.344   7.777   3.222
15839W        W88264  34.014  11.285  12.073
15840W        W88265  40.496  44.001   3.718
15841W        W88266  39.048  33.485  12.924
15842W        W88267  31.605   0.321   0.454
15843W        W88268  44.403  35.904   4.616
15844W        W88269   4.409  23.661  14.854
15845W        W88270   0.388  30.077  12.552
15846W        W88271  30.157  40.939   0.959
15847W        W88272   9.262  28.484   2.351
15848W        W88273   2.829  31.431   0.304
15849W        W88274  13.734  36.441  12.486
15850W        W88275   1.815  39.965   0.958
15851W        W88276  19.239  14.127   2.902
15852W        W88277  27.519  32.636   1.399
15853W        W88278  31.518  22.635  13.027
15854W        W88279  15.329  29.960   3.160
15855W        W88280  35.395  16.663   0.399
15856W        W88281  40.974   7.174   4.782
15857W        W88282  15.663  30.582   3.676
15858W        W88283  37.038  28.628   1.894
15859W        W88284  25.649  11.664   3.816
15860W        W88285  37.021  21.178   3.197
15861W        W88286  37.066  15.581  14.946
15862W        W88287  20.629  36.871  12.492
15863W        W88288  36.379  10.875  11.937
15864W        W88289  16.781   3.919   0.886
15865W        W88290  34.594   0.375   1.401
15866W        W88291  22.712   9.884  12.832
15867W        W88292  42.872  20.621   2.793
15868W        W88293  20.586  28.144   4.214
15869W        W88294  25.474  25.128  10.003
15870W        W88295  43.788  38.885  10.929
15871W        W88296  37.554  13.600  14.452
15872W        W88297  25.048  18.276   0.777
15873W        W88298  21.190   4.240  13.902
15874W        W88299  22.648  27.100  11.128
15875W        W88300   8.879  41.947  12.407
15876W        W88301  22.059  41.796   1.743
15877W        W88302  29.428   8.201   0.456
15878W        W88303   0.775  39.945  12.441
15879W        W88304   6.279  19.264   4.747
15880W        W88305  18.175  25.493   1.286
15881W        W88306   7.883  18.165   1.358
15882W        W88307  43.963  29.439  14.869
15883W        W88308  22.231   6.352   0.769
15884W        W88309  32.903  36.512   0.464
15885W        W88310   2.285  38.521  12.452
15886W        W88311  38.887   4.263   1.371
15887W        W88312   1.906  21.245   1.836
15888W        W88313  25.537  12.672   1.840
15889W        W88314  32.137  27.470  11.589
15890W        W88315  35.886  17.631  13.913
15891W        W88316  31.420  16.162   3.300
15892W        W88317  19.760  11.749  12.939
15893W        W88318  14.152  41.406   2.890
15894W        W88319  17.267  10.730  10.955
15895W        W88320  40.839   2.808   0.460
15896W        W88321  18.190   3.754  14.928
15897W        W88322   1.354  20.697   4.280
15898W        W88323  17.224  33.503   3.722
15899W        W88324  35.967  14.320  13.475
15900W        W88325  30.569  26.603   3.682
15901W        W88326  28.990  42.425   4.662
15902W        W88327  12.296  25.161   3.770
15903W        W88328  14.228  11.287   0.924
15904W        W88329  29.928  16.788   3.803
15905W        W88330   8.182  42.445  11.436
15906W        W88331  27.998   3.309   3.673
15907W        W88332  34.972   1.839  11.458
15908W        W88333  10.802  10.771   1.935
15909W        W88334  13.683  38.903   4.701
15910W        W88335  16.768  36.365   1.450
15911W        W88336   1.440  13.117   0.935
15912W        W88337  43.469  32.498  14.916
15913W        W88338  17.670  40.010  13.809
15914W        W88339  14.292  26.060   3.163
15915W        W88340   4.247  25.554   1.270
15916W        W88341  29.992   3.936  13.057
15917W        W88342  16.695  36.041   2.791
15918W        W88343  28.174  37.832   0.274
15919W        W88344   9.215  35.944   1.333
15920W        W88345  25.039  38.407  14.832
15921W        W88346  37.990  37.029   4.287
15922W        W88347  26.602  21.242  10.052
15923W        W88348  31.484  39.842  12.926
15924W        W88349   9.337  43.411   1.791
15925W        W88350   4.902  18.185  13.401
15926W        W88351  22.008  12.229   3.315
15927W        W88352  43.353  34.892   0.406
15928W        W88353  39.021  20.197  10.465
15929W        W88354  32.579  26.146   0.293
15930W        W88355  37.975   8.331   0.258
15931W        W88356  42.500  12.653  14.907
15932W        W88357  17.761  10.845  12.580
15933W        W88358  15.614  14.816  13.360
15934W        W88359  19.618  36.365   0.870
15935W        W88360  33.525  33.910  10.640
15936W        W88361   1.251  35.443   0.917
15937W        W88362  25.518  23.560   1.712
15938W        W88363  13.791  15.795   0.322
15939W        W88364   1.877   9.326   3.866
15940W        W88365  25.671   0.954  11.506
15941W        W88366  21.149  16.776   3.275
15942W        W88367  41.020  10.633  14.909
15943W        W88368  29.509  44.896   1.840
15944W        W88369   7.863  39.014  13.405
15945W        W88370  23.096  17.133  12.513
15946W        W88371  17.123  15.218  14.989
15947W        W88372  15.314  26.513  12.961
15948W        W88373   0.750   2.860   4.224
15949W        W88374  16.702   6.356   4.752
15950W        W88375   7.750   2.816  11.863
15951W        W88376  12.720  36.445   0.848
15952W        W88377  16.810  42.351  10.502
15953W        W88378   1.935  42.798   3.846
15954W        W88379  24.062  22.087  13.820
15955W        W88380  25.693  21.572   3.194
15956W        W88381  30.027   1.815  11.532
15957W        W88382  21.042   5.724   3.309
15958W        W88383  34.095  42.443   4.241
15959W        W88384  26.991   3.237   3.210
15960W        W88385  20.625  30.583  13.489
15961W        W88386  41.973   5.868  12.416
15962W        W88387  38.359   9.695  11.509
15963W        W88388  21.703  40.478  14.471
15964W        W88389   3.242   0.862   5.292
15965W        W88390  30.927  39.898   5.287
15966W        W88391  25.136  33.045   4.763
15967W        W88392  31.613   4.293   2.357
15968W        W88393  38.502   5.775   4.751
15969W        W88394  34.510  16.276   2.884
15970W        W88395  23.664  35.975  11.410
15971W        W88396  37.883  13.158  11.897
15972W        W88397  37.914  44.974  12.999
15973W        W88398  34.593   7.325   1.300
15974W        W88399  21.139  21.528   2.244
15975W        W88400   7.267   9.782  11.862
15976W        W88401   9.784  35.999  12.348
15977W        W88402   9.346  11.144  12.047
15978W        W88403  32.394   6.751  12.947
15979W        W88404   4.739   1.751  11.462
15980W        W88405  18.098   2.332  12.829
15981W        W88406  21.522   5.346  14.885
15982W        W88407  27.026  39.033  14.417
15983W        W88408  34.562  39.059   4.601
15984W        W88409  12.207  12.178   4.204
15985W        W88410  13.735  19.594   5.153
15986W        W88411  30.491  31.051   1.725
15987W        W88412   5.825  32.541   4.808
15988W        W88413   0.841   4.733   4.273
15989W        W88414  19.604   7.801  13.479
15990W        W88415  14.314  17.285  11.054
15991W        W88416   5.888  25.190   4.791
15992W        W88417   4.865  26.654   4.749
15993W        W88418   6.237  32.018  14.764
15994W        W88419  19.264  30.497   2.796
15995W        W88420   9.187  14.669  14.981
15996W        W88421  19.085  29.927  12.477
15997W        W88422  43.910  32.398  13.870
15998W        W88423  17.760  13.804   1.347
15999W        W88424  27.555  21.208  14.834
16000W        W88425  42.316  33.415  12.929
16001W        W88426  31.119  13.783   4.294
16002W        W88427   3.314   4.254   4.659
16003W        W88428  12.122  40.487   0.873
16004W        W88429  40.026   0.297   3.360
16005W        W88430  42.490  32.059   3.348
16006W        W88431  25.671  11.822  13.540
16007W        W88432   5.729  11.208   2.346
16008W        W88433  41.792  14.791   3.722
16009W        W88434  43.930  15.170   0.897
16010W        W88435  40.010  40.402  11.396
16011W        W88436  21.711  29.155  13.438
16012W        W88437  26.034  21.679  10.923
16013W        W88438   9.886   7.217   3.633
16014W        W88439  14.823   5.833  14.762
16015W        W88440   1.327  40.477  12.870
16016W        W88441  32.518   2.847  13.510
16017W        W88442  19.538  15.626   0.892
16018W        W88443   3.715  35.526  12.963
16019W        W88444   0.873  31.500  14.932
16020W        W88445  22.555  36.976   1.311
16021W        W88446  32.531   6.800   3.841
16022W        W88447  30.418  32.485  13.379
16023W        W88448  33.033  40.408   2.324
16024W        W88449  18.074  43.932  14.760
16025W        W88450   6.285  14.694  14.954
16026W        W88451  38.945  23.196  10.451
16027W        W88452  13.150  13.161   3.838
16028W        W88453  36.563  12.651   0.810
16029W        W88454   1.896  37.983  14.476
16030W        W88455   9.305  18.128   0.921
16031W        W88456  41.994   9.781  11.993
16032W        W88457  28.648  44.888   1.447
16033W        W88458  39.540  23.598   1.753
16034W        W88459  44.279  37.563  10.424
16035W        W88460  11.235  19.221   0.255
16036W        W88461  15.610  39.978   3.644
16037W        W88462   7.889  26.022   0.245
16038W        W88463  12.162  15.820   1.865
16039W        W88464   2.398  32.079   5.282
16040W        W88465  15.752   4.381  12.073
16041W        W88466  29.468  26.639  10.615
16042W        W88467  30.043   5.322   1.866
16043W        W88468  11.658  27.544  10.512
16044W        W88469   9.275   1.391   3.864
16045W        W88470  42.446  44.418  11.937
16046W        W88471  20.093  14.262  14.396
16047W        W88472  16.176  10.350  10.914
16048W        W88473  21.631  17.269  12.386
16049W        W88474  24.150  37.047   2.675
16050W        W88475  21.165   2.374   2.775
16051W        W88476  41.955  38.954  14.030
16052W        W88477  27.530  20.634  12.861
16053W        W88478  27.109  40.342  13.329
16054W        W88479  36.905  10.773   1.450
16055W        W88480   2.875  22.507   3.309
16056W        W88481  20.236   5.200  13.403
16057W        W88482  33.522   6.411  14.309
16058W        W88483   7.173  28.038   4.257
16059W        W88484  42.018  43.855  11.388
16060W        W88485   9.174   0.455  10.603
16061W        W88486   5.885  14.300   2.727
16062W        W88487   3.923  29.429   4.224
16063W        W88488  27.446  40.534   9.656
16064W        W88489  22.662  24.506   4.264
16065W        W88490   8.864  10.772  10.956
16066W        W88491  41.871  11.856   3.251
16067W        W88492  41.451  42.475  14.311
16068W        W88493  44.995  24.077   0.929
16069W        W88494   6.892  40.915  12.046
16070W        W88495  44.996   9.741  11.407
16071W        W88496  14.126  23.676   5.780
16072W        W88497  44.883  10.756   4.800
16073W        W88498  29.502  29.170   1.772
16074W        W88499  20.756  39.441   0.367
16075W        W88500  15.290  34.921  13.360
16076W        W88501  17.698  15.697   2.753
16077W        W88502  37.928   1.771  10.448
16078W        W88503   7.751  42.473  13.385
16079W        W88504   9.662   5.335  12.501
16080W        W88505   0.896  29.657   2.262
16081W        W88506  14.829   9.319   1.865
16082W        W88507  30.651  40.345   0.309
16083W        W88508  33.593  39.551  11.442
16084W        W88509  26.174   0.287  13.976
16085W        W88510  21.536  22.629   2.684
16086W        W88511  18.258   6.901  13.997
16087W        W88512  14.153  10.248  14.816
16088W        W88513  43.933  44.366   3.704
16089W        W88514  42.420  25.007  14.977
16090W        W88515   6.735  27.460   2.213
16091W        W88516  24.602  37.082   0.363
16092W        W88517   9.179  20.640  12.573
16093W        W88518  40.891  22.051  13.330
16094W        W88519  33.411  30.557   4.687
16095W        W88520  41.535  39.484  12.034
16096W        W88521  31.643  23.565   1.422
16097W        W88522  10.317  26.562   3.674
16098W        W88523   5.875   9.674   4.135
16099W        W88524  34.910  38.993   2.855
16100W        W88525  12.307  11.331   1.761
16101W        W88526  23.634   3.906   0.345
16102W        W88527  25.183  40.433   5.091
16103W        W88528   8.703   4.834  11.458
16104W        W88529   2.896  26.526  14.862
16105W        W88530  31.450  25.086   3.845
16106W        W88531  40.527  43.508   0.893
16107W        W88532  39.830   5.318  14.774
16108W        W88533  22.557   3.390   2.205
16109W        W88534   0.976  19.574   1.915
16110W        W88535  26.601  13.606  12.986
16111W        W88536  14.760  34.944  14.991
16112W        W88537   7.226  14.741   1.783
16113W        W88538  10.305  35.590  10.463
16114W        W88539  19.074  38.940   4.232
16115W        W88540  10.308  28.619   0.756
16116W        W88541   3.429  36.368   0.302
16117W        W88542  11.154   0.258   0.367
16118W        W88543  36.859  37.479  12.523
16119W        W88544   6.879  40.910  13.062
16120W        W88545  35.479  23.034   2.326
16121W        W88546   9.286   2.384  12.015
16122W        W88547   5.361  34.615  14.459
16123W        W88548   9.793  24.669  11.487
16124W        W88549  13.702  10.656   2.213
16125W        W88550  32.984   2.906  14.956
16126W        W88551  44.437   7.263  14.433
16127W        W88552   9.846  27.007  11.881
16128W        W88553   2.428  25.064  12.464
16129W        W88554   2.767  14.140  14.032
16130W        W88555  14.105  23.130  11.901
16131W        W88556  36.920  32.046  11.550
16132W        W88557  43.404  21.633   1.777
16133W        W88558  32.114   5.370  12.422
16134W        W88559  31.908  34.981   2.210
16135W        W88560  25.651  23.098  12.387
16136W        W88561  36.969   4.815   2.694
16137W        W88562  43.270   3.849  14.945
16138W        W88563  26.068  25.991   1.779
16139W        W88564  18.239  27.128   2.259
16140W        W88565  33.080  19.126   3.247
16141W        W88566  25.621  28.051   0.427
16142W        W88567  10.306  40.496  12.356
16143W        W88568  18.067  12.693  10.637
16144W        W88569  40.913  13.659  11.419
16145W        W88570  16.674  42.383   2.710
16146W        W88571  24.199  37.400  10.018
16147W        W88572  28.566   0.931   1.373
16148W        W88573  12.329  35.582  13.854
16149W        W88574  17.766  41.936  14.303
16150W        W88575  28.186  27.629  13.426
16151W        W88576  23.988  27.471   3.271
16152W        W88577  44.996  19.588   2.379
16153W        W88578  35.472  43.909   3.315
16154W        W88579  29.550   7.764   2.383
16155W        W88580  26.981  30.932  11.475
16156W        W88581   3.726  10.338  13.038
16157W        W88582  37.884   7.691   3.642
16158W        W88583   3.901   7.278   2.213
16159W        W88584  26.072  19.701  12.518
16160W        W88585   7.182   2.840  10.944
16161W        W88586  13.168   3.935   0.355
16162W        W88587  23.574   4.854  14.460
16163W        W88588  26.019  11.193  14.826
16164W        W88589  40.970  34.429  12.995
16165W        W88590  29.524  41.911   9.994
16166W        W88591  42.777  23.188  13.952
16167W        W88592  30.115  37.024   4.170
16168W        W88593  32.103   9.378  14.867
16169W        W88594  32.918  31.540   0.895
16170W        W88595   4.944  18.727   2.312
16171W        W88596  36.918  32.403  14.819
16172W        W88597  11.822  33.973  13.435
16173W        W88598  40.339  22.219   3.322
16174W        W88599  15.777  16.291  11.067
16175W        W88600  23.199   9.187   3.272
16176W        W88601  37.518  11.864  11.553
16177W        W88602  16.663  34.898  12.095
16178W        W88603  14.188  20.567   4.734
16179W        W88604  23.050  15.237  13.872
16180W        W88605  27.641  19.773  10.605
16181W        W88606  33.525  39.545  10.911
16182W        W88607  41.306  30.625  11.115
16183W        W88608  21.741  13.650   3.324
16184W        W88609   4.888  15.776  13.409
16185W        W88610  14.623  40.852  14.359
16186W        W88611   8.779  24.001   5.143
16187W        W88612  26.055  10.740  14.002
16188W        W88613  43.358   3.387   1.306
16189W        W88614   2.912  40.797   4.269
16190W        W88615  18.650  20.248   1.927
16191W        W88616  26.187  11.672  12.563
16192W        W88617  41.917  12.638  14.012
16193W        W88618  14.106  40.846  11.578
16194W        W88619  28.526   4.274  11.903
16195W        W88620  11.824   0.752  13.936
16196W        W88621   8.272  32.098  10.947
16197W        W88622  44.308  14.309   0.278
16198W        W88623  27.578  19.623   3.652
16199W        W88624  15.595   0.921  11.982
16200W        W88625  20.532  27.528   2.694
16201W        W88626  36.851  25.606  13.924
16202W        W88627  20.273   0.260   3.799
16203W        W88628   2.831  21.109  11.421
16204W        W88629  12.641  11.286   1.794
16205W        W88630  16.604  43.392   0.468
16206W        W88631  42.013  41.469   0.728
16207W        W88632  21.187  17.123   1.417
16208W        W88633  15.722   7.685  14.343
16209W        W88634  26.110  14.323  14.451
16210W        W88635   1.931  43.789   0.256
16211W        W88636  31.501  15.787  14.412
16212W        W88637   6.879   1.386   2.900
16213W        W88638  15.689   2.720  12.576
16214W        W88639  24.103  37.476  14.332
16215W        W88640   4.824  14.113  13.965
16216W        W88641   5.870  39.501  11.972
16217W        W88642  12.738  31.992   3.660
16218W        W88643  10.235   2.877  12.038
16219W        W88644  39.476   7.671   4.757
16220W        W88645   1.948  38.394   4.348
16221W        W88646  30.135  43.340   2.314
16222W        W88647  36.355  20.172  10.610
16223W        W88648  31.004   3.388   3.814
16224W        W88649  42.476  36.947   0.795
16225W        W88650   3.815  28.993   3.207
16226W        W88651  32.937  37.866  14.841
16227W        W88652  15.736  18.088   1.803
16228W        W88653  23.510  14.207  12.828
16229W        W88654  44.768  41.889   3.648
16230W        W88655   1.438  23.984  11.860
16231W        W88656  10.309  19.160  14.512
16232W        W88657   8.311  13.348   3.222
16233W        W88658   5.765  33.939   2.739
16234W        W88659   8.657  38.521   1.908
16235W        W88660  21.614   8.823   2.179
16236W        W88661   1.836  21.042  10.473
16237W        W88662  33.070  11.174   1.314
16238W        W88663  37.044   2.402   0.919
16239W        W88664  20.232  44.332  11.095
16240W        W88665  33.068  14.665  11.529
16241W        W88666  22.121  11.317   4.123
16242W        W88667   1.847   6.754   2.334
16243W        W88668  33.554  34.900  14.493
16244W        W88669  23.663   2.384   1.833
16245W        W88670   9.220  35.900   2.292
16246W        W88671  39.437  22.564   4.271
16247W        W88672  13.714   0.863   0.934
16248W        W88673  44.428  20.207  13.484
16249W        W88674  24.013  42.377  14.977
16250W        W88675  19.201  43.365   0.369
16251W        W88676  22.230   5.836  12.570
16252W        W88677   5.719   1.962  13.347
16253W        W88678  28.094  19.594  12.891
16254W        W88679  37.428  33.607  12.017
16255W        W88680  43.380  40.847  13.042
16256W        W88681  40.409  11.354  14.884
16257W        W88682  37.064  35.528   0.781
16258W        W88683  26.570  44.787   1.352
16259W        W88684  24.003   9.790   3.296
16260W        W88685  29.453  40.036  11.600
16261W        W88686  10.338  30.634  14.917
16262W        W88687  23.102  27.655  11.090
16263W        W88688  28.607   6.199  12.938
16264W        W88689  22.698   4.932  13.475
16265W        W88690  30.974  42.967   0.339
16266W        W88691  28.544  26.971  13.881
16267W        W88692  25.121  24.624   4.303
16268W        W88693  26.626  30.600   5.100
16269W        W88694   6.390  44.337   4.292
16270W        W88695  11.129  23.084   1.400
16271W        W88696   2.334  39.978  12.559
16272W        W88697  36.864  37.482   4.145
16273W        W88698   5.412  40.970   1.849
16274W        W88699  16.742  42.780   3.323
16275W        W88700   1.894  35.946   3.824
16276W        W88701  27.084   0.794  11.576
16277W        W88702  43.322  28.102   0.480
16278W        W88703   2.737  21.193   5.307
16279W        W88704   5.914  15.733   1.929
16280W        W88705  24.632  33.075  13.380
16281W        W88706  39.899   1.272   1.845
16282W        W88707  44.935  29.094  13.480
16283W        W88708  42.411   1.742  13.401
16284W        W88709   3.267  30.989   4.669
16285W        W88710  30.146  22.522   1.212
16286W        W88711  26.201  13.626  13.347
16287W        W88712   2.414   9.177  14.499
16288W        W88713  42.374   8.896  12.476
16289W        W88714  17.641  43.910  14.878
16290W        W88715  17.724   4.335  14.374
16291W        W88716  15.724   8.672   3.334
16292W        W88717  26.638  12.261  12.044
16293W        W88718  36.515   2.783   4.249
16294W        W88719  11.276  14.099   1.421
16295W        W88720  29.160  20.128   3.855
16296W        W88721  32.463   6.717   1.292
16297W        W88722  26.204  38.925  12.555
16298W        W88723  23.165  23.110   2.356
16299W        W88724  35.965  29.975  14.397
16300W        W88725  17.225  11.788   4.203
16301W        W88726   5.359  17.795   4.331
16302W        W88727  11.283   3.925   1.807
16303W        W88728  34.058  23.556   1.231
16304W        W88729  22.655  20.035  11.870
16305W        W88730  11.831  24.075   4.308
16306W        W88731   6.836  37.525   3.793
16307W        W88732  29.132  11.826   2.297
16308W        W88733  13.172  16.274  10.996
16309W        W88734   9.756  44.968  12.545
16310W        W88735  40.333  12.274   4.780
16311W        W88736  20.762  25.061  12.066
16312W        W88737  22.061  16.158   4.113
16313W        W88738  33.024  36.062   4.620
16314W        W88739  22.155  39.829   0.917
16315W        W88740  12.795   9.249   2.228
16316W        W88741  37.573  10.327   0.396
16317W        W88742  15.750  24.070  13.794
16318W        W88743   2.361  20.640   0.404
16319W        W88744  18.775  22.208   2.867
16320W        W88745  20.040  27.041   4.634
16321W        W88746  36.539  43.912  11.388
16322W        W88747  32.534  39.442   1.787
16323W        W88748  37.982  25.658   4.198
16324W        W88749  43.874  43.972  11.021
16325W        W88750  36.388  10.769   4.649
16326W        W88751   4.297  39.534   2.310
16327W        W88752  22.236   8.284  13.833
16328W        W88753  20.258  29.556   2.681
16329W        W88754  12.653  44.994  11.123
16330W        W88755  44.355   2.442  11.871
16331W        W88756   6.263  14.273   3.733
16332W        W88757  17.711  26.623  14.373
16333W        W88758  16.212  43.778  12.495
16334W        W88759  22.629  30.492  11.497
16335W        W88760  24.174  11.300   1.823
16336W        W88761  39.338  24.485  14.428
16337W        W88762   0.851   4.725   0.308
16338W        W88763  33.978  39.533  12.999
16339W        W88764  14.784  24.682  14.823
16340W        W88765  33.577   2.859   2.744
16341W        W88766  18.191   0.409  13.329
16342W        W88767   3.429  43.505  11.912
16343W        W88768  31.473  28.569  14.819
16344W        W88769  21.135  35.379  13.873
16345W        W88770  33.098  14.267  10.418
16346W        W88771  14.618  28.473   4.132
16347W        W88772  31.431  37.052   4.247
16348W        W88773  15.666  26.603   3.347
16349W        W88774  11.802  21.643   0.379
16350W        W88775  38.371  30.573   4.191
16351W        W88776  37.546   6.905   2.251
16352W        W88777  12.163  43.998  12.029
16353W        W88778  17.065   6.421   4.672
16354W        W88779   6.733  39.404  10.526
16355W        W88780  27.167   0.403   0.242
16356W        W88781  24.051  43.458  10.998
16357W        W88782  40.366  33.381  13.037
16358W        W88783  10.819  44.464   9.976
16359W        W88784  16.259  28.559  11.041
16360W        W88785   9.307  15.640   3.823
16361W        W88786   9.347   2.863  13.046
16362W        W88787  11.854  32.565  10.519
16363W        W88788  25.478  13.776  14.008
16364W        W88789  13.794  16.305   2.235
16365W        W88790   1.957  19.047  13.976
16366W        W88791  41.931   6.830   0.278
16367W        W88792  31.479  24.724   0.802
16368W        W88793  37.039  13.625  10.950
16369W        W88794  29.614  37.575   2.856
16370W        W88795  34.074  19.575   3.763
16371W        W88796  38.470  35.054   1.343
16372W        W88797   8.802  15.130  14.771
16373W        W88798   5.761   4.234   2.788
16374W        W88799  42.446  28.129   0.960
16375W        W88800  16.666  16.097  14.964
16376W        W88801  12.687  22.672   1.865
16377W        W88802  27.012  15.232   4.170
16378W        W88803  16.262  41.814   3.756
16379W        W88804  18.201  40.317   2.810
16380W        W88805  11.272  36.510   2.243
16381W        W88806  40.427   8.794   0.780
16382W        W88807  22.664  14.657  12.448
16383W        W88808  22.078  42.809   0.283
16384W        W88809  41.006  10.750   0.436
16385W        W88810   0.954  30.628   0.387
16386W        W88811  35.104   9.174  10.999
16387W        W88812   2.742   1.739   4.284
16388W        W88813  42.478   4.847   2.319
16389W        W88814  40.316  42.431  10.621
16390W        W88815  27.535  24.545   0.876
16391W        W88816  14.316  23.678  12.043
16392W        W88817   5.842   1.268  13.844
16393W        W88818  39.545  27.481   2.895
16394W        W88819  21.657  39.845   4.614
16395W        W88820  41.362  22.552  14.834
16396W        W88821  13.184  27.156   3.806
16397W        W88822  42.289   3.917   0.322
16398W        W88823   1.273  42.902  14.939
16399W        W88824   7.911  40.029   1.253
16400W        W88825  10.844  26.478   4.769
16401W        W88826  43.476  44.362  12.985
16402W        W88827   6.288  17.298  12.942
16403W        W88828   3.826  13.666   4.704
16404W        W88829  17.607  33.410   0.791
16405W        W88830  43.021  42.294   1.399
16406W        W88831  17.096  28.999   2.321
16407W        W88832  15.642   3.445   0.736
16408W        W88833   7.360  38.462   1.835
16409W        W88834  11.741  18.605   1.219
16410W        W88835   5.784  28.939   0.264
16411W        W88836  42.779   2.895  14.874
16412W        W88837  39.982   2.875   2.194
16413W        W88838  42.799  21.207  13.367
16414W        W88839  30.032  33.608  14.880
16415W        W88840  18.156  26.504  10.439
16416W        W88841  28.662  30.054  14.954
16417W        W88842  26.010   6.715  14.893
16418W        W88843  41.023   5.743  13.316
16419W        W88844  41.962  10.637   4.599
16420W        W88845  26.666  18.139   3.177
16421W        W88846  32.554  29.001  13.390
16422W        W88847  10.185   3.882   0.793
16423W        W88848  41.985  25.998  10.921
16424W        W88849   0.826  26.469  14.457
16425W        W88850  13.807  35.374   3.332
16426W        W88851  17.234  24.712  13.031
16427W        W88852  33.069  42.960  14.835
16428W        W88853  11.242   4.760   1.342
16429W        W88854  26.967  43.848   3.714
16430W        W88855  17.743  41.512  13.440
16431W        W88856  13.180  40.332   1.412
16432W        W88857  44.891  38.462  11.433
16433W        W88858  34.444  37.074   2.716
16434W        W88859  13.766  34.075  13.390
16435W        W88860  43.334   1.262  14.283
16436W        W88861  33.444   3.769   0.837
16437W        W88862  30.948  36.494   3.733
16438W        W88863  10.377  39.916  14.797
16439W        W88864   0.975   3.791  14.278
16440W        W88865  26.543  23.525   0.424
16441W        W88866  12.353   6.359  11.482
16442W        W88867  24.675  10.856  14.474
16443W        W88868   4.227  38.939   4.681
16444W        W88869  25.988  19.776   2.330
16445W        W88870  39.467   7.686   3.213
16446W        W88871  26.556  44.421   1.429
16447W        W88872  24.722  25.092   3.777
16448W        W88873  18.644  31.998  12.006
16449W        W88874  33.553  28.179   2.755
16450W        W88875  14.224  32.533   1.886
16451W        W88876  30.553  41.933  11.889
16452W        W88877  43.958  32.090   4.265
16453W        W88878  19.723   4.207  13.898
16454W        W88879  28.016  22.558   4.755
16455W        W88880  24.072  19.056   4.600
16456W        W88881   9.694   4.891   3.254
16457W        W88882  17.596  25.653   1.334
16458W        W88883  29.446   9.273   2.666
16459W        W88884  23.631   4.384   0.397
16460W        W88885  14.198  31.982   2.817
16461W        W88886  29.041  29.012  14.761
16462W        W88887  19.673   5.288  14.873
16463W        W88888  30.464  17.663  13.378
16464W        W88889  28.133  41.039  14.941
16465W        W88890  10.337  32.108   0.339
16466W        W88891  41.447  38.055  13.400
16467W        W88892   5.801   9.683  12.022
16468W        W88893  16.301  13.746   0.374
16469W        W88894  41.534   8.254  11.044
16470W        W88895  21.636  12.219  14.879
16471W        W88896  40.415  43.785  10.444
16472W        W88897  11.723  17.678  14.487
16473W        W88898  23.148   5.355   0.906
16474W        W88899  38.538   6.252  14.910
16475W        W88900  44.879  14.216   1.297
16476W        W88901  36.424  34.006   4.718
16477W        W88902  41.872  40.336   4.310
16478W        W88903   8.251  24.628   0.893
16479W        W88904   4.809   6.850  13.820
16480W        W88905  36.524  28.581  14.300
16481W        W88906  12.626  13.652  12.891
16482W        W88907  24.609   5.908   2.882
16483W        W88908  35.522  33.091  12.399
16484W        W88909  36.424  29.157  11.964
16485W        W88910  17.715  40.461  11.990
16486W        W88911  18.190   3.864  13.059
16487W        W88912  42.895  30.494   4.128
16488W        W88913  25.120  44.871   4.275
16489W        W88914  32.527   0.371   5.318
16490W        W88915  42.780  31.598   0.257
16491W        W88916   1.964  29.451   4.786
16492W        W88917  36.462  10.828  11.070
16493W        W88918  20.583  36.960  13.384
16494W        W88919  39.043  28.447   2.285
16495W        W88920  32.394  27.148  13.947
16496W        W88921  18.278  21.055   0.294
16497W        W88922  41.336  33.426   4.666
16498W        W88923  44.448  23.016  11.922
16499W        W88924   9.267  42.777   3.206
16500W        W88925  40.950   4.732   0.902
16501W        W88926  17.626  43.409  14.773
16502W        W88927   5.746   6.383  11.942
16503W        W88928  13.297   8.291   3.247
16504W        W88929   8.661  40.798   1.827
16505W        W88930  26.524   1.975  10.121
16506W        W88931  32.937  40.384   1.719
16507W        W88932   5.271  15.258  12.507
16508W        W88933  15.615  17.747  11.605
16509W        W88934   0.417  24.031  14.989
16510W        W88935  36.953  26.087  14.292
16511W        W88936   5.380  28.937  11.417
16512W        W88937   3.273  36.494   2.278
16513W        W88938  37.898  33.874  11.992
16514W        W88939   1.245   8.731  13.547
16515W        W88940  39.823   6.342   4.138
16516W        W88941  36.463   2.307   1.826
16517W        W88942  10.189  13.299   0.768
16518W        W88943  32.917   6.721   1.854
16519W        W88944  28.955   6.416   0.276
16520W        W88945  21.626  31.001   0.806
16521W        W88946  33.980  39.030   4.832
16522W        W88947  37.884  30.653  12.927
16523W        W88948  25.220  29.669  13.890
16524W        W88949   7.800  35.452   0.368
16525W        W88950   0.436  16.781   1.344
16526W        W88951  40.902  17.272   1.442
16527W        W88952  26.663  34.917   2.286
16528W        W88953  32.553  38.914  13.804
16529W        W88954  19.126  20.658  10.515
16530W        W88955  29.998  11.340   4.210
16531W        W88956  15.112  14.762   3.733
16532W        W88957  37.423   4.317   3.781
16533W        W88958   4.251  35.914  14.315
16534W        W88959   7.766   9.250  12.386
16535W        W88960  16.635  41.370   4.145
16536W        W88961   9.229   5.275   1.301
16537W        W88962  24.072  16.272   4.718
16538W        W88963  13.318  28.574  14.307
16539W        W88964   9.793  12.156   1.330
16540W        W88965  26.085  30.946  12.052
16541W        W88966  19.732  28.576  10.489
16542W        W88967   2.409  43.945  11.482
16543W        W88968  34.416  35.878  14.294
16544W        W88969  33.438  42.946   0.319
16545W        W88970   2.934   3.382  10.503
16546W        W88971  15.115  43.472  10.955
16547W        W88972  15.665  24.724  11.070
16548W        W88973  37.906  25.487  11.982
16549W        W88974  33.438   6.357  12.895
16550W        W88975  26.092  19.052   2.273
16551W        W88976  21.604  18.590  11.967
16552W        W88977   6.380  16.708  11.507
16553W        W88978   2.314  36.495   2.362
16554W        W88979  16.101  27.681  11.933
16555W        W88980  22.041  13.714  12.999
16556W        W88981   1.429  38.511  13.845
16557W        W88982   9.651  38.015  12.906
16558W        W88983   7.329  36.922   2.304
16559W        W88984  39.947  34.578  11.564
16560W        W88985  29.618  21.561   3.637
16561W        W88986  43.375  41.996   3.292
16562W        W88987  40.309  16.627  12.945
16563W        W88988  33.917  28.469  10.598
16564W        W88989  15.804   0.987   2.828
16565W        W88990  19.152  42.352   1.347
16566W        W88991  43.328  13.133  13.442
16567W        W88992  20.034   1.318  13.036
16568W        W88993   1.413  39.446  13.501
16569W        W88994   1.820   2.375  12.544
16570W        W88995  31.510  10.349   4.700
16571W        W88996   9.675  23.590   3.674
16572W        W88997  32.515  10.200  14.783
16573W        W88998  27.994   6.714   0.407
16574W        W88999  37.346  14.746   1.760
16575W        W89000  20.661  24.114   3.380
16576W        W89001  10.303  30.987   2.278
16577W        W89002  27.961   9.309  13.441
16578W        W89003  24.498  29.441  14.031
16579W        W89004   5.864  35.408   2.779
16580W        W89005  27.493  38.956   2.697
16581W        W89006  40.415  35.986  10.038
16582W        W89007  39.452  20.607   0.917
16583W        W89008  38.975  16.742   3.182
16584W        W89009  26.110   0.397  14.290
16585W        W89010   6.211   1.359  10.600
16586W        W89011  44.943  16.652   0.934
16587W        W89012   8.199  38.465  14.512
16588W        W89013   3.245  33.597   0.438
16589W        W89014  14.694  11.169  14.789
16590W        W89015  39.047   8.290  12.519
16591W        W89016  27.495  18.052   2.845
16592W        W89017  32.557  43.943   3.180
16593W        W89018  22.113  14.176  12.400
16594W        W89019  40.816  16.300  11.598
16595W        W89020  27.645  28.079   1.758
16596W        W89021   3.876  14.156  10.430
16597W        W89022  16.144   1.452  11.434
16598W        W89023  11.751  29.968   1.743
16599W        W89024  40.544  40.530   1.342
16600W        W89025  12.842   9.379   0.880
16601W        W89026  43.275  12.853   0.888
16602W        W89027  16.576  44.833   4.781
16603W        W89028   9.773  24.668   3.260
16604W        W89029  17.250  23.702   2.858
16605W        W89030  14.101  40.946   1.763
16606W        W89031  41.333   2.403   5.219
16607W        W89032  43.782  18.583   4.611
16608W        W89033   0.412  31.571   4.138
16609W        W89034   7.185  27.543   0.832
16610W        W89035   0.434  17.248   3.277
16611W        W89036  21.732  34.898   0.790
16612W        W89037  24.713   3.746   2.246
16613W        W89038  39.858   0.481   1.372
16614W        W89039   7.813  23.540  12.843
16615W        W89040   9.789   9.285   2.698
16616W        W89041  17.271  29.138  12.410
16617W        W89042  27.513  31.005   3.684
16618W        W89043  38.001  25.973  11.021
16619W        W89044   9.260  39.822   4.295
16620W        W89045  10.638   4.319   0.891
16621W        W89046  40.937  36.863  11.068
16622W        W89047   4.759  19.772  14.348
16623W        W89048  37.874  19.041   4.316
16624W        W89049  35.108   8.365  12.030
16625W        W89050  36.045  19.134   3.693
16626W        W89051  34.537  14.777   2.792
16627W        W89052   0.455  37.027   2.790
16628W        W89053  37.412   1.272  14.989
16629W        W89054  25.557   9.359   4.767
16630W        W89055  36.927  22.674   3.672
16631W        W89056   8.188  24.008   4.657
16632W        W89057  11.347   3.271   2.762
16633W        W89058  13.207   3.950   5.591
16634W        W89059  35.533  36.018   3.652
16635W        W89060  25.613  39.477  14.883
16636W        W89061  17.722  39.417   1.697
16637W        W89062  26.470  19.127  11.949
16638W        W89063  25.640  38.903   0.295
16639W        W89064  15.202  33.055   4.792
16640W        W89065  23.208  13.224  13.902
16641W        W89066  20.137   9.371  14.332
16642W        W89067  41.362  11.769   3.790
16643W        W89068   1.330  21.652  14.779
16644W        W89069  29.943  36.985   3.182
16645W        W89070  12.342  33.569   1.932
16646W        W89071  30.575  13.350   3.742
16647W        W89072  38.833  20.548   0.929
16648W        W89073  27.626   5.341   4.260
16649W        W89074  39.816  12.675   1.233
16650W        W89075  21.701  27.511  13.905
16651W        W89076  33.514  27.185  10.542
16652W        W89077  32.994   6.295  12.883
16653W        W89078  25.573  16.681  14.777
16654W        W89079  42.962  23.196  12.527
16655W        W89080  27.162  41.974  13.467
16656W        W89081  21.074  27.623  14.008
16657W        W89082   3.720   7.839  11.049
16658W        W89083  32.607  17.241  12.856
16659W        W89084  11.234  16.695  13.513
16660W        W89085  39.321   6.711   3.260
16661W        W89086  16.159  31.115  11.387
16662W        W89087  10.266  12.255  11.939
16663W        W89088  16.670  33.982  11.058
16664W        W89089  16.662  12.811   3.865
16665W        W89090   2.901  42.857  14.002
16666W        W89091  21.633  19.604  14.363
16667W        W89092  42.327  25.075   0.935
16668W        W89093  23.083  41.984  14.345
16669W        W89094  31.025  39.342  13.827
16670W        W89095  41.440  23.622  12.970
16671W        W89096   9.395  30.643  11.059
16672W        W89097  38.395  34.048   0.479
16673W        W89098  36.436  44.450  13.947
16674W        W89099   5.205  36.018   1.912
16675W        W89100   7.274  31.085  11.581
16676W        W89101  24.617   1.850   0.423
16677W        W89102   7.789   0.937  12.580
16678W        W89103   0.971   9.736   2.711
16679W        W89104  19.606  11.358   1.211
16680W        W89105  39.526  38.038   4.602
16681W        W89106   0.454   4.779  13.344
16682W        W89107  16.765  31.083   1.785
16683W        W89108  35.565  17.145  13.526
16684W        W89109  18.197  12.257  10.909
16685W        W89110  44.963  22.568   3.270
16686W        W89111  24.569  15.259   3.207
16687W        W89112  32.992  24.025   3.250
16688W        W89113  13.796  32.568   2.291
16689W        W89114  41.854  44.898  12.024
16690W        W89115  36.482  19.550   2.738
16691W        W89116  18.672  13.140  10.998
16692W        W89117  15.765   7.332  12.825
16693W        W89118  14.281   1.360  10.500
16694W        W89119  42.941  26.009  13.370
16695W        W89120  30.940  12.165  11.062
16696W        W89121  32.128  23.689   1.888
16697W        W89122  28.978  41.975  13.323
16698W        W89123   6.246  26.640  11.982
16699W        W89124  37.485  18.565   4.796
16700W        W89125  19.734   9.366   4.250
16701W        W89126  30.984  21.718  10.934
16702W        W89127  30.654  18.764   1.777
16703W        W89128  34.516  15.823  13.003
16704W        W89129   6.316  12.833   9.966
16705W        W89130  37.848  10.312   4.271
16706W        W89131  33.995  31.968  13.374
16707W        W89132  17.071  25.144   1.884
16708W        W89133  30.416  43.417   0.756
16709W        W89134  18.634  41.350   9.946
16710W        W89135  19.181   9.205   1.699
16711W        W89136  12.638  41.302   2.226
16712W        W89137  43.392  28.586  14.361
16713W        W89138  33.380   8.807   2.369
16714W        W89139  34.526  40.430   1.794
16715W        W89140  37.458  16.244  13.002
16716W        W89141  20.158   7.900   1.256
16717W        W89142  31.561  40.878   1.769
16718W        W89143  35.034  40.459  12.085
16719W        W89144  10.273  32.597  14.333
16720W        W89145  16.705  30.046  14.894
16721W        W89146   3.831  40.489  14.943
16722W        W89147  23.507  14.727   4.774
16723W        W89148  29.471  13.619   3.870
16724W        W89149   5.869   1.784   3.368
16725W        W89150   8.359   3.434   2.669
16726W        W89151  32.114  37.907  13.791
16727W        W89152   1.754  42.871  13.415
16728W        W89153  41.356  16.136   2.738
16729W        W89154  38.960  43.381  12.064
16730W        W89155   2.855  35.497  12.971
16731W        W89156  41.828  20.576  13.895
16732W        W89157  15.700  17.234   1.845
16733W        W89158   8.749  35.882  11.944
16734W        W89159  28.036  23.635   1.927
16735W        W89160  15.807   2.914   3.781
16736W        W89161  26.597   7.682   3.664
16737W        W89162  12.645  30.626  14.951
16738W        W89163  43.514  13.285   1.850
16739W        W89164   7.847  15.274   0.929
16740W        W89165  21.722  28.654   3.842
16741W        W89166  31.431  28.076  13.935
16742W        W89167   6.727  32.402   3.187
16743W        W89168  26.044  11.223  13.912
16744W        W89169  17.189  28.557  12.350
16745W        W89170   9.762  42.797  12.869
16746W        W89171  41.915  25.157  12.459
16747W        W89172   4.359  28.586  12.381
16748W        W89173  38.399  30.135  14.950
16749W        W89174  13.335  43.944   3.790
16750W        W89175   0.249  36.360  13.949
16751W        W89176  37.889  43.358  11.071
16752W        W89177  25.546  43.295   3.681
16753W        W89178  19.178   6.192   1.269
16754W        W89179  25.513  16.790  14.493
16755W        W89180   6.855  39.458   2.302
16756W        W89181   5.918   5.802  12.539
16757W        W89182  33.491  18.239  12.029
16758W        W89183  40.837  16.592  10.490
16759W        W89184  27.679   7.414   0.824
16760W        W89185  14.750  37.435  10.487
16761W        W89186  25.073  10.736  12.374
16762W        W89187  39.551  24.707  11.103
16763W        W89188   7.820  17.792   1.296
16764W        W89189  11.798  23.164  10.957
16765W        W89190  22.593  21.582   2.333
16766W        W89191  19.161  42.784   1.401
16767W        W89192  41.883  28.139  10.919
16768W        W89193  18.655  34.030   4.341
16769W        W89194  37.542  10.876  14.361
16770W        W89195  44.498   9.254   2.784
16771W        W89196  16.311   1.333  10.561
16772W        W89197  16.624  19.131  10.984
16773W        W89198  39.054  17.587  13.037
16774W        W89199  24.685  42.281  11.119
16775W        W89200  34.999  34.978  13.434
16776W        W89201  39.511   3.946   1.299
16777W        W89202  30.555  31.459  11.403
16778W        W89203   9.356   1.261   2.368
16779W        W89204  21.135  34.586   2.246
16780W        W89205   2.930  35.899   4.248
16781W        W89206   6.706  38.949  13.479
16782W        W89207  27.950  14.697  14.920
16783W        W89208  13.837   8.353  12.482
16784W        W89209   0.319  32.498  11.506
16785W        W89210  33.419   8.718  10.581
16786W        W89211  20.590  41.961  11.380
16787W        W89212  42.491  44.479  10.492
16788W        W89213   6.802   7.362  13.331
16789W        W89214   0.465  13.284  12.413
16790W        W89215   4.862  43.910  13.807
16791W        W89216   8.699   6.290   5.249
16792W        W89217  37.892  18.122   2.865
16793W        W89218  39.432  39.980   2.288
16794W        W89219  13.166  31.938  13.018
16795W        W89220  30.523  35.096  14.883
16796W        W89221   2.794  28.455   4.635
16797W        W89222  26.513  41.496  13.046
16798W        W89223  18.102  14.640  12.084
16799W        W89224  23.596  29.428  14.509
16800W        W89225  39.008   6.377  14.932
16801W        W89226  40.859  14.616  14.419
16802W        W89227   4.760  40.962   3.282
16803W        W89228  38.546   3.380  10.887
16804W        W89229  41.503  37.942   2.810
16805W        W89230  16.674  38.936   0.257
16806W        W89231  36.370  43.869  10.412
16807W        W89232  12.737   7.753  14.394
16808W        W89233  15.234   9.805   3.750
16809W        W89234  18.051  35.942   4.684
16810W        W89235  20.631   9.276  10.581
16811W        W89236  10.261  37.560   0.802
16812W        W89237   0.455  20.106   4.653
16813W        W89238   4.391  43.427  11.374
16814W        W89239   9.814  35.428   2.680
16815W        W89240   0.860  16.703  10.941
16816W        W89241  18.101  24.531   4.275
16817W        W89242   9.328  43.377  12.034
16818W        W89243  36.847  20.548   1.817
16819W        W89244   4.824  20.057  13.033
16820W        W89245   0.280  22.137   4.686
16821W        W89246  12.241  42.519   4.276
16822W        W89247  13.208   5.267   0.446
16823W        W89248   6.768  42.025   3.813
16824W        W89249  16.741  16.183   4.690
16825W        W89250  40.980  15.714  11.949
16826W        W89251  22.053   8.316  13.475
16827W        W89252   2.388  19.730   1.377
16828W        W89253  12.839   3.409  10.961
16829W        W89254  30.035   7.773  11.125
16830W        W89255  15.102  18.590   3.782
16831W        W89256  28.514   7.888  14.944
16832W        W89257  12.699  42.898  11.976
16833W        W89258  17.211   3.945   1.766
16834W        W89259   7.907  39.934  12.342
16835W        W89260  16.725  28.633   1.855
16836W        W89261  22.632  23.663  10.072
16837W        W89262  12.725   3.741   2.341
16838W        W89263  13.846  43.788   0.884
16839W        W89264  30.956  29.437   3.274
16840W        W89265  35.453  29.167   3.177
16841W        W89266  23.235  14.144   1.436
16842W        W89267  20.197  24.676   0.479
16843W        W89268  13.152  23.571   5.238
16844W        W89269   0.373  23.191   1.288
16845W        W89270  13.199  19.676  10.137
16846W        W89271  18.245   7.730  11.387
16847W        W89272  41.852  20.042   2.861
16848W        W89273  43.940  20.254   5.132
16849W        W89274  21.748  18.560  12.951
16850W        W89275  32.890   4.306   0.831
16851W        W89276  44.969   4.406  11.023
16852W        W89277  36.851  32.619  12.345
16853W        W89278  25.144  10.343   1.705
16854W        W89279  26.586  44.943   2.192
16855W        W89280  30.940  28.120  11.124
16856W        W89281  38.937   3.760  11.861
16857W        W89282   5.231  32.990   2.737
16858W        W89283  21.694  41.997   3.744
16859W        W89284   4.709   6.744   2.237
16860W        W89285  13.221  29.134  13.938
16861W        W89286  14.329  20.094   2.236
16862W        W89287  11.205  20.675  10.907
16863W        W89288  36.015  13.811   3.208
16864W        W89289   0.419   3.717  14.394
16865W        W89290  44.413  30.986  10.029
16866W        W89291   8.751  25.073   2.823
16867W        W89292  10.824  12.834   1.250
16868W        W89293   4.816   2.849  11.086
16869W        W89294  15.690  15.233  12.052
16870W        W89295  19.667  43.311   3.645
16871W        W89296  38.842  39.454  12.510
16872W        W89297  16.258  37.474   0.366
16873W        W89298  42.019   9.199   2.746
16874W        W89299  36.086   6.827   1.347
16875W        W89300  11.831   8.195  14.910
16876W        W89301  10.368   6.220  12.422
16877W        W89302  23.726  21.219  11.987
16878W        W89303   5.219   3.725   2.871
16879W        W89304  11.338   8.340  14.934
16880W        W89305  24.575  13.622  12.015
16881W        W89306   1.322  15.657   0.917
16882W        W89307   3.397  35.477   1.399
16883W        W89308   3.297   8.738  12.939
16884W        W89309  42.448  43.335   0.280
16885W        W89310   6.795  11.192  13.042
16886W        W89311  32.053  44.342  11.879
16887W        W89312  42.344  11.208   0.250
16888W        W89313  16.571  34.010   3.722
16889W        W89314  42.983  25.046  11.511
16890W        W89315  40.390   1.749   0.859
16891W        W89316  16.195  37.427  14.301
16892W        W89317  13.222  30.112   1.769
16893W        W89318  31.481  28.160   2.767
16894W        W89319  17.577  24.694  11.059
16895W        W89320   6.361  24.706   0.925
16896W        W89321   9.743  25.177  14.282
16897W        W89322  17.297  28.059  11.496
16898W        W89323  34.074  11.298  12.550
16899W        W89324  12.635  31.133   0.931
16900W        W89325  38.568   3.919   4.763
16901W        W89326   4.427  18.623   1.745
16902W        W89327  14.101  23.005   3.211
16903W        W89328  27.120  20.715   2.347
16904W        W89329   9.192  43.786   0.779
16905W        W89330   4.407   5.315  11.123
16906W        W89331  14.192  19.184   3.366
16907W        W89332  26.467  14.783   0.766
16908W        W89333  10.268  41.951   4.255
16909W        W89334  17.070  37.463   4.619
16910W        W89335  14.321  31.616  12.860
16911W        W89336   2.229  23.077   3.710
16912W        W89337  34.392  19.175  14.426
16913W        W89338  44.433  44.311   5.108
16914W        W89339  44.843  40.349  11.882
16915W        W89340  36.052  36.436   1.795
16916W        W89341  43.000  32.634   2.214
16917W        W89342  38.842   7.769  14.989
16918W        W89343  11.645  29.101   4.312
16919W        W89344  25.146  36.455  13.037
16920W        W89345  25.555   5.701   1.314
16921W        W89346   7.309  27.971  10.559
16922W        W89347   9.694   0.989  12.550
16923W        W89348   6.864  35.413   2.299
16924W        W89349  38.360  31.585   2.738
16925W        W89350   9.154  32.920  13.063
16926W        W89351   3.320  25.045   9.965
16927W        W89352  33.565  37.046   4.724
16928W        W89353  36.887  36.422  11.577
16929W        W89354  26.469  44.810  11.886
16930W        W89355  27.037  21.122   0.821
16931W        W89356  37.391  43.283   4.201
16932W        W89357  32.973  32.458   3.778
16933W        W89358  22.524  30.616   0.835
16934W        W89359  37.538  42.416  10.941
16935W        W89360  30.494  44.954   2.245
16936W        W89361  19.202  32.600  12.062
16937W        W89362   8.817  26.162  14.383
16938W        W89363  26.098  33.102  13.055
16939W        W89364  10.352  31.506  11.991
16940W        W89365  22.083   5.874   3.651
16941W        W89366  33.569  10.350  12.431
16942W        W89367  25.088  32.535  12.360
16943W        W89368   6.906  41.983   0.441
16944W        W89369  34.604  40.382   0.282
16945W        W89370   3.409  16.215   2.742
16946W        W89371  43.402   4.862  11.598
16947W        W89372  43.270   9.363  12.074
16948W        W89373   3.764  29.983   3.335
16949W        W89374   1.741  11.343  14.809
16950W        W89375  31.033  39.483  14.440
16951W        W89376   3.335  31.638   3.189
16952W        W89377  13.185  17.748   0.466
16953W        W89378  27.194  28.667   3.318
16954W        W89379   4.808  40.932   2.761
16955W        W89380  19.183  41.471   1.768
16956W        W89381  10.361  30.967   3.811
16957W        W89382  23.589   5.415   3.770
16958W        W89383  38.442  25.083   2.735
16959W        W89384  33.427  27.080   3.279
16960W        W89385   6.260  15.135   1.243
16961W        W89386  42.471  38.364   2.209
16962W        W89387  42.414  13.162  13.359
16963W        W89388  21.261  23.202   0.299
16964W        W89389  21.741   9.327   2.383
16965W        W89390  19.275  23.206   4.316
16966W        W89391   4.339  20.698   0.290
16967W        W89392   6.799  21.660   0.948
16968W        W89393   1.276  17.617   4.346
16969W        W89394  14.212  22.219   2.809
16970W        W89395  18.753  31.600   2.380
16971W        W89396  34.916  41.315  14.314
16972W        W89397  20.751   7.377  10.547
16973W        W89398  24.095  30.631   1.704
16974W        W89399   2.884  16.309   1.911
16975W        W89400  11.215  21.680   0.335
16976W        W89401  36.445   7.897   3.827
16977W        W89402   0.834  12.666  13.336
16978W        W89403  31.081  26.584  13.044
16979W        W89404  15.740  40.372   0.320
16980W        W89405  33.089   5.337  10.638
16981W        W89406  33.393  44.896   3.653
16982W        W89407   5.229   4.879  12.981
16983W        W89408  29.978  33.965  11.014
16984W        W89409  43.847   6.219   0.273
16985W        W89410  42.470   4.839  13.030
16986W        W89411   7.704   5.231   2.682
16987W        W89412  22.008  21.638  13.807
16988W        W89413  40.435   0.314  11.054
16989W        W89414  15.199  37.389  14.500
16990W        W89415  18.263  17.211   3.150
16991W        W89416  15.815  18.589  10.408
16992W        W89417   4.728   6.276  14.928
16993W        W89418  22.627   4.935   2.344
16994W        W89419   7.214  29.458   1.834
16995W        W89420  16.087  15.299   1.738
16996W        W89421  26.120  31.492  13.462
16997W        W89422  40.021   4.412  14.363
16998W        W89423  17.262  20.202  12.487
16999W        W89424  42.917  43.387  12.552
17000W        W89425  28.604  42.952  13.412
17001W        W89426  30.591  17.634  13.835
17002W        W89427  10.295  15.753   4.640
17003W        W89428  10.752  37.897   4.306
17004W        W89429  30.100  28.137   3.209
17005W        W89430  12.705  21.192  12.467
17006W        W89431  13.845   6.257   3.753
17007W        W89432  11.809  39.516   4.289
17008W        W89433   4.719  42.888   3.330
17009W        W89434  36.411  34.090   3.196
17010W        W89435  32.009  13.350  13.428
17011W        W89436   5.228  19.250   1.794
17012W        W89437  34.983   5.715  10.983
17013W        W89438  43.414  34.051   3.846
17014W        W89439   6.395   7.695   4.765
17015W        W89440  44.797  15.197   1.385
17016W        W89441  14.329  28.549   0.425
17017W        W89442  20.664  43.448  10.921
17018W        W89443   0.469  38.434   3.262
17019W        W89444  41.529  15.812  13.053
17020W        W89445  26.056  36.875  13.044
17021W        W89446   4.332  27.997  11.948
17022W        W89447  19.086   0.286   0.855
17023W        W89448  31.948  21.161  10.530
17024W        W89449   8.356  38.427   1.419
17025W        W89450  18.550  16.175  13.048
17026W        W89451  43.451  36.552   1.839
17027W        W89452  35.041  23.522  11.386
17028W        W89453  30.481   1.346  13.418
17029W        W89454  20.572  36.389   3.733
17030W        W89455  18.676  18.145  12.507
17031W        W89456  37.456  26.987  12.959
17032W        W89457  19.549   7.333   3.172
17033W        W89458  20.567  44.842   0.840
17034W        W89459  41.358  41.391  11.000
17035W        W89460   5.389  32.514  14.344
17036W        W89461  26.573   8.714  14.507
17037W        W89462  18.590  36.852  12.472
17038W        W89463  14.605  35.934   2.184
17039W        W89464  34.446  35.456  10.990
17040W        W89465   3.933  17.580   1.886
17041W        W89466  24.699   6.848   4.137
17042W        W89467  11.287  39.853   4.623
17043W        W89468  35.999  12.821  12.359
17044W        W89469  38.841  30.646   0.311
17045W        W89470  20.723  18.114  14.461
17046W        W89471  41.901   4.912  10.641
17047W        W89472   3.361   6.226   3.292
17048W        W89473  25.214   7.229  13.406
17049W        W89474  38.829  34.542   0.322
17050W        W89475  44.866  13.616  10.489
17051W        W89476  27.596  10.166  12.542
17052W        W89477  27.144  18.611   1.841
17053W        W89478  26.607  27.153  12.473
17054W        W89479  38.933   4.225  11.584
17055W        W89480  22.539  13.658  11.388
17056W        W89481  33.584  39.987  12.053
17057W        W89482  40.515  32.009   4.226
17058W        W89483  43.969  13.329  13.966
17059W        W89484  37.088  34.901   3.247
17060W        W89485  34.081  40.350   0.383
17061W        W89486  31.599  18.120   3.772
17062W        W89487  43.317   3.735  12.037
17063W        W89488  17.585  31.993  10.439
17064W        W89489   3.875  12.188  11.100
17065W        W89490   6.858  42.001  12.829
17066W        W89491  24.485  14.709  13.360
17067W        W89492   3.403  43.810   4.330
17068W        W89493   8.710  37.889  10.524
17069W        W89494  14.314  29.560   3.304
17070W        W89495   2.226  42.397  12.577
17071W        W89496  30.530  32.511  13.937
17072W        W89497   0.410  17.643  11.594
17073W        W89498  29.656  13.130   2.359
17074W        W89499  22.604   4.416   1.293
17075W        W89500  31.519  27.606  10.922
17076W        W89501  22.616  34.915  10.488
17077W        W89502  11.223  11.732   4.728
17078W        W89503  41.939  38.334  12.365
17079W        W89504  22.167  37.035  12.016
17080W        W89505  11.713  20.624   2.322
17081W        W89506  24.043  40.986  11.457
17082W        W89507  30.161  35.488   1.758
17083W        W89508  43.857   3.731   0.885
17084W        W89509   6.877  30.107  14.814
17085W        W89510  37.937  33.604   3.224
17086W        W89511  21.245  38.394  13.017
17087W        W89512  21.150  28.508  14.513
17088W        W89513  13.231  15.140   0.351
17089W        W89514  16.144  28.543   3.170
17090W        W89515   1.740  39.062   0.407
17091W        W89516  32.102  42.848   2.806
17092W        W89517   4.759  15.086  12.364
17093W        W89518  19.634  10.279  12.504
17094W        W89519  16.703  41.956  12.359
17095W        W89520  35.511  33.422   0.244
17096W        W89521   7.898  28.005  14.370
17097W        W89522   8.315  29.649   0.759
17098W        W89523  25.149  42.369   4.643
17099W        W89524  23.162  19.770   0.747
17100W        W89525  10.683  22.555   5.640
17101W        W89526  12.227  36.847   0.900
17102W        W89527  23.049  28.680   2.793
17103W        W89528  19.745  34.372  11.108
17104W        W89529  38.958  41.885  13.875
17105W        W89530   3.255  43.494   0.262
17106W        W89531  10.367   9.743  10.147
17107W        W89532   7.236   0.441  11.123
17108W        W89533  28.661   2.942   4.340
17109W        W89534  13.185  41.011  14.418
17110W        W89535  20.755  39.022   4.672
17111W        W89536  30.924  29.047   0.747
17112W        W89537  38.336  14.648   3.284
17113W        W89538  44.434  11.737   1.786
17114W        W89539  24.062  29.021   2.675
17115W        W89540  38.038  29.508   4.174
17116W        W89541   5.919  15.778   0.395
17117W        W89542  22.225  21.083   3.191
17118W        W89543   0.370  44.931   2.214
17119W        W89544  24.139  44.984  12.410
17120W        W89545   8.172  36.488   0.901
17121W        W89546  22.608  33.985   2.404
17122W        W89547   0.969  36.403  11.908
17123W        W89548  26.000  40.485   0.272
17124W        W89549  12.737  27.101  14.422
17125W        W89550  44.404  22.211  13.819
17126W        W89551  41.884  19.062   4.229
17127W        W89552  13.162  13.296  13.016
17128W        W89553   6.877  24.072  11.533
17129W        W89554  16.173  35.433   5.165
17130W        W89555  26.518  29.593  14.871
17131W        W89556  11.235  21.671   4.832
17132W        W89557  29.661  24.161  12.001
17133W        W89558   4.789  23.054  11.964
17134W        W89559  39.558  41.847  12.531
17135W        W89560  23.725  27.588   3.293
17136W        W89561   9.233  41.940  13.961
17137W        W89562   4.250   1.383   0.289
17138W        W89563  13.754  39.994  12.962
17139W        W89564  15.745  33.555  10.618
17140W        W89565  24.194  35.050   1.233
17141W        W89566  36.512  24.063   2.768
17142W        W89567  19.155  25.513  10.438
17143W        W89568  37.358  22.636  14.460
17144W        W89569  22.065  44.356   0.349
17145W        W89570  39.490  36.374  12.044
17146W        W89571  26.663  13.275   4.297
17147W        W89572  44.868  27.966  13.961
17148W        W89573  31.609  11.698   3.737
17149W        W89574   0.824  30.908  10.509
17150W        W89575  19.731  34.957   1.395
17151W        W89576  39.344  17.762   3.830
17152W        W89577   2.749  24.113  12.392
17153W        W89578  32.587  42.793  10.116
17154W        W89579  29.628   0.917   0.328
17155W        W89580   0.932  15.259  11.122
17156W        W89581  24.591   3.226  12.515
17157W        W89582  17.658  11.182  12.406
17158W        W89583   8.672   8.365  13.950
17159W        W89584  12.812  30.006  11.524
17160W        W89585  23.636   4.387  14.438
17161W        W89586  32.415  29.137  12.574
17162W        W89587  34.104  24.534   2.779
17163W        W89588  13.177  26.122  14.801
17164W        W89589  28.676  28.481   1.697
17165W        W89590  25.661   4.381  11.611
17166W        W89591   3.460  41.487  14.974
17167W        W89592  30.972  39.956  11.439
17168W        W89593  40.502  12.717  12.956
17169W        W89594  31.586  35.576  11.929
17170W        W89595  44.870  40.385   4.243
17171W        W89596   1.951  38.545   3.355
17172W        W89597   4.728  27.140   4.298
17173W        W89598  42.959  12.672   3.728
17174W        W89599  14.276  36.997   4.134
17175W        W89600  22.631  41.973  11.916
17176W        W89601   5.408  19.772   3.322
17177W        W89602  33.076  43.502  10.973
17178W        W89603   7.843  28.035  14.827
17179W        W89604  37.923  19.274   2.808
17180W        W89605  33.885  36.900  12.513
17181W        W89606  36.053  23.503   3.864
17182W        W89607   2.944  19.758   4.325
17183W        W89608  43.492  10.350  13.436
17184W        W89609   4.778  27.161  13.511
17185W        W89610  10.808  42.388   2.389
17186W        W89611   1.395  16.751   2.233
17187W        W89612   0.891   8.890   2.689
17188W        W89613  35.875  40.052   2.200
17189W        W89614  19.136   7.340  10.944
17190W        W89615  18.738  22.681   3.153
17191W        W89616  29.543   9.291  11.124
17192W        W89617  24.041   9.195   0.842
17193W        W89618   2.755  39.901  14.920
17194W        W89619  27.966  21.170   2.848
17195W        W89620  26.696   2.453   0.344
17196W        W89621  43.851  40.012  13.385
17197W        W89622  23.225  30.958  10.561
17198W        W89623   2.797  15.129  14.360
17199W        W89624  14.784  14.765  10.977
17200W        W89625   5.284  39.061   1.765
17201W        W89626  21.555   5.242  12.941
17202W        W89627  30.514  23.730  14.772
17203W        W89628  41.316  24.193  10.409
17204W        W89629  31.436  36.583  13.430
17205W        W89630  20.147   7.276  13.983
17206W        W89631  26.053   2.959  11.478
17207W        W89632  34.542  18.740   3.870
17208W        W89633  24.147  23.655   3.657
17209W        W89634  15.590   3.223   1.443
17210W        W89635  20.685  27.109  11.980
17211W        W89636  21.188  25.055   4.135
17212W        W89637  18.090   0.332   3.361
17213W        W89638  39.515  12.275   4.245
17214W        W89639   2.901  10.735  14.394
17215W        W89640  11.251  12.295   1.735
17216W        W89641  40.483  35.970  13.449
17217W        W89642  21.223  33.081   2.359
17218W        W89643  23.687  16.745   3.707
17219W        W89644  24.686  41.302  10.508
17220W        W89645  34.953  28.111   3.231
17221W        W89646  30.022  13.789   0.265
17222W        W89647   7.888  21.701   4.161
17223W        W89648  27.452  30.948   5.627
17224W        W89649  37.396   9.383  12.405
17225W        W89650  43.476  13.615   2.226
17226W        W89651  31.002  24.652  11.983
17227W        W89652  32.447  17.682  12.936
17228W        W89653  31.969   9.281  14.350
17229W        W89654  15.159  41.328   2.721
17230W        W89655  14.757  16.665  10.580
17231W        W89656   2.260  26.987   1.775
17232W        W89657  26.633   5.790  13.806
17233W        W89658  39.314  39.965   1.711
17234W        W89659  26.489  18.196  12.537
17235W        W89660  16.219  22.022  12.862
17236W        W89661  31.947  35.942  10.534
17237W        W89662  31.541  34.552  12.469
17238W        W89663   9.293  19.671   1.423
17239W        W89664  44.301   3.837  10.641
17240W        W89665  19.169   2.784  14.334
17241W        W89666  10.632  26.652  13.953
17242W        W89667  31.028  16.086  14.782
17243W        W89668  21.676   3.229   4.658
17244W        W89669  13.667  24.080   1.698
17245W        W89670  41.912  35.884  12.557
17246W        W89671   2.422   8.173  12.572
17247W        W89672  13.124  33.511   4.796
17248W        W89673  17.736   7.824  12.825
17249W        W89674  31.584  11.268  11.119
17250W        W89675   2.733  28.176   4.678
17251W        W89676  18.772   6.262   3.725
17252W        W89677  20.738  26.989   3.742
17253W        W89678   4.726  31.107   5.097
17254W        W89679  14.190  23.134   0.863
17255W        W89680  33.934  28.481   4.156
17256W        W89681  36.848  35.057  13.921
17257W        W89682  36.008  26.480  12.911
17258W        W89683   0.383   9.343  10.442
17259W        W89684   7.382  11.311  11.502
17260W        W89685  17.263   5.926  14.512
17261W        W89686  41.879  17.191   0.484
17262W        W89687  33.008  26.499   0.400
17263W        W89688  17.238  44.278  11.073
17264W        W89689   6.821   4.750   3.835
17265W        W89690  40.457  12.746  14.469
17266W        W89691  12.811  31.619  13.432
17267W        W89692  12.210   4.257   0.879
17268W        W89693  23.595  25.074   4.292
17269W        W89694  39.483  35.979  10.972
17270W        W89695  11.186  24.006  14.017
17271W        W89696  43.421  11.164   3.735
17272W        W89697  26.061  13.108  13.895
17273W        W89698  21.755  10.803  12.009
17274W        W89699  31.543  27.058   0.881
17275W        W89700   6.717  35.393   4.137
17276W        W89701  13.227   0.763  11.055
17277W        W89702  38.554   5.814  14.002
17278W        W89703  35.012  27.640   2.848
17279W        W89704  26.691  44.321  14.370
17280W        W89705  39.899   4.381  11.588
17281W        W89706   9.172  35.555  14.839
17282W        W89707   3.221  26.098  10.427
17283W        W89708  18.082  11.704  13.359
17284W        W89709   4.865  20.673  13.340
17285W        W89710   5.756  26.554   2.852
17286W        W89711  19.558  23.183  13.911
17287W        W89712   7.297  20.182  14.485
17288W        W89713  21.706   3.753  14.323
17289W        W89714  24.673   0.455   0.946
17290W        W89715  44.932   1.259  13.363
17291W        W89716  37.879  25.622  11.462
17292W        W89717   9.323   5.833  10.435
17293W        W89718  39.021   5.834  14.399
17294W        W89719  24.579  27.476   0.960
17295W        W89720  18.265  41.471  14.887
17296W        W89721   6.310  35.028  14.835
17297W        W89722   3.751  29.641  12.930
17298W        W89723  15.648  19.281   0.951
17299W        W89724  13.832   5.800   0.749
17300W        W89725   8.295  12.204   1.909
17301W        W89726  23.069  43.018   2.365
17302W        W89727   6.355  22.674   3.185
17303W        W89728  16.209   9.645   0.759
17304W        W89729  17.776  12.201  12.506
17305W        W89730  35.971  39.928   3.203
17306W        W89731  10.344  34.034  13.476
17307W        W89732   7.839  15.121   4.182
17308W        W89733   6.388   1.764   2.858
17309W        W89734  37.083  43.401   2.692
17310W        W89735  43.800   1.375   4.212
17311W        W89736  32.950  15.115  10.995
17312W        W89737   2.326  36.427  13.855
17313W        W89738  14.612  33.589  10.447
17314W        W89739  36.422  13.151   3.655
17315W        W89740   9.695   9.643  12.840
17316W        W89741   6.776  15.217   1.814
17317W        W89742  20.753  12.646   0.809
17318W        W89743   7.754  38.465  14.282
17319W        W89744  10.844  22.189   3.753
17320W        W89745  10.675  13.341  14.428
17321W        W89746  36.850  20.677   0.788
17322W        W89747  15.655  38.529   4.120
17323W        W89748   0.298   7.368   4.783
17324W        W89749  15.676  11.279   2.776
17325W        W89750  19.641  39.523  12.525
17326W        W89751  34.873   8.879   0.271
17327W        W89752  35.424   1.271  13.051
17328W        W89753  14.328  43.488  13.934
17329W        W89754  26.166  13.720   4.647
17330W        W89755  17.771  23.632  12.976
17331W        W89756  23.195  20.769   4.722
17332W        W89757   0.343  11.802  11.113
17333W        W89758  41.792  14.659  10.416
17334W        W89759  40.924  41.485  12.927
17335W        W89760  19.706  11.306  13.410
17336W        W89761  17.690  43.866  13.334
17337W        W89762  14.325  37.467  12.426
17338W        W89763  17.749   0.298   2.396
17339W        W89764  37.897   2.803  11.379
17340W        W89765  11.149  34.086   3.233
17341W        W89766  14.316  12.750  14.510
17342W        W89767  11.678  12.259   0.812
17343W        W89768   0.273  28.108   2.398
17344W        W89769   0.492  12.811   0.292
17345W        W89770  14.157  23.537   1.925
17346W        W89771  19.547  39.346  11.969
17347W        W89772  15.730  30.982   1.876
17348W        W89773   8.388  26.626  13.906
17349W        W89774  39.890  40.895   3.709
17350W        W89775   8.830  39.889   4.666
17351W        W89776   2.324  10.870   2.211
17352W        W89777  12.728  10.296   2.245
17353W        W89778  17.578  34.083   1.761
17354W        W89779  41.909  24.648  13.868
17355W        W89780  28.938   0.293   4.290
17356W        W89781  38.071  11.286   4.759
17357W        W89782  12.145  38.346  13.805
17358W        W89783  21.068  31.560   1.835
17359W        W89784  43.832  37.843   3.843
17360W        W89785   2.897  23.153   1.820
17361W        W89786  14.612  24.663  13.308
17362W        W89787  15.639  33.544   2.179
17363W        W89788  23.198  39.832  12.372
17364W        W89789  17.163   1.269   3.318
17365W        W89790  30.014  43.472  10.517
17366W        W89791  28.461  43.948   2.265
17367W        W89792  25.540  39.028   5.213
17368W        W89793  40.413  28.525  11.384
17369W        W89794  14.129  32.969   2.248
17370W        W89795  24.994   9.811   4.229
17371W        W89796  44.840  40.540  12.359
17372W        W89797  27.026  29.509   3.333
17373W        W89798  27.614  42.999  11.022
17374W        W89799  22.575  35.941  14.023
17375W        W89800  30.481  41.331   5.162
17376W        W89801  23.034  12.346   9.494
17377W        W89802  10.364  15.669   9.952
17378W        W89803   9.761  12.852  12.507
17379W        W89804  17.133   1.825  10.959
17380W        W89805  31.619   0.878  13.502
17381W        W89806  18.187  27.986  13.321
17382W        W89807  25.576   6.911  10.625
17383W        W89808  41.886  12.223   0.473
17384W        W89809  14.227  33.017   4.619
17385W        W89810  23.527   2.416   3.752
17386W        W89811  17.622  20.762  11.928
17387W        W89812  34.435   2.739  12.053
17388W        W89813   7.812  23.686   3.785
17389W        W89814  29.493  13.114  14.951
17390W        W89815  15.107   5.688  14.375
17391W        W89816   6.892  29.437   2.870
17392W        W89817  37.874   2.805  12.557
17393W        W89818  28.975  37.921   1.694
17394W        W89819   6.415  21.740  13.827
17395W        W89820  17.673  39.387   4.635
17396W        W89821  35.366  20.546   4.313
17397W        W89822  44.407  35.056   4.293
17398W        W89823  32.133  25.709   1.224
17399W        W89824  12.810  12.723   2.879
17400W        W89825  26.512  25.171   0.392
17401W        W89826   6.895  14.643   4.626
17402W        W89827   9.224  30.933  13.465
17403W        W89828  11.142  14.742  13.881
17404W        W89829  11.279  23.048  10.017
17405W        W89830  12.207  10.196   2.259
17406W        W89831  14.589  30.136   1.248
17407W        W89832  31.903  28.489   4.290
17408W        W89833  34.070  26.593   2.885
17409W        W89834  17.599  11.197   1.215
17410W        W89835  20.162   1.849   3.635
17411W        W89836  24.480  31.122  14.306
17412W        W89837  12.709  39.949  14.423
17413W        W89838   3.356  15.270  14.861
17414W        W89839  35.102  30.044   4.155
17415W        W89840  29.453   4.699   4.708
17416W        W89841   0.765  40.863   1.438
17417W        W89842  19.241   7.393   3.316
17418W        W89843  21.740  34.998  11.998
17419W        W89844  37.578   8.240   5.207
17420W        W89845   5.772  40.330   2.796
17421W        W89846  14.299  39.995  11.966
17422W        W89847  33.550  24.672  13.423
17423W        W89848  41.314   0.399  11.939
17424W        W89849  13.837  14.736  12.350
17425W        W89850  26.956   5.437  12.998
17426W        W89851   6.407  23.557   5.180
17427W        W89852   7.344  18.591   3.662
17428W        W89853  39.527  21.729   3.244
17429W        W89854   1.460  32.036   4.253
17430W        W89855   4.834  11.363   3.286
17431W        W89856  23.010  37.071   2.785
17432W        W89857  36.403   4.718   2.706
17433W        W89858  37.865  41.510   3.256
17434W        W89859  18.591  31.433  10.496
17435W        W89860  14.714   3.218   2.391
17436W        W89861  17.228  10.159   1.406
17437W        W89862  36.459  23.669   5.164
17438W        W89863   7.804  40.017   0.894
17439W        W89864  18.145  37.381   3.698
17440W        W89865  37.465  23.512   0.951
17441W        W89866  23.615  30.127  13.880
17442W        W89867  33.073  36.947   4.675
17443W        W89868  10.653  36.921   1.212
17444W        W89869  15.124  19.620   2.254
17445W        W89870   9.348  28.438   4.783
17446W        W89871  15.302   1.970   1.842
17447W        W89872  16.164  36.068  13.887
17448W        W89873  29.128  33.877  13.799
17449W        W89874  13.624  35.899   2.847
17450W        W89875   8.187  38.484  12.972
17451W        W89876  33.881  17.173  10.957
17452W        W89877  26.513   2.226  15.000
17453W        W89878  44.804  17.128  14.488
17454W        W89879  31.924   4.347   1.695
17455W        W89880  43.353  18.051  11.537
17456W        W89881  30.949  36.004   1.829
17457W        W89882  38.045  32.139  13.908
17458W        W89883  29.089   2.883   4.625
17459W        W89884   6.769  27.054  12.407
17460W        W89885  12.295  33.945  11.527
17461W        W89886  10.222   1.400   2.249
17462W        W89887   9.290  22.126   1.329
17463W        W89888  10.714  10.675   0.273
17464W        W89889  26.962  25.486  11.961
17465W        W89890  34.974  26.690   4.226
17466W        W89891  37.531  39.029  10.461
17467W        W89892  44.341  32.000   2.749
17468W        W89893   1.896  41.903  14.798
17469W        W89894  35.959  19.664  13.962
17470W        W89895  14.826  20.259   1.326
17471W        W89896  35.994  34.029  10.495
17472W        W89897   4.432  39.521  14.939
17473W        W89898  35.583  20.114  10.440
17474W        W89899  34.550  12.819   1.276
17475W        W89900   1.321  12.733  10.612
17476W        W89901  10.250  34.549   4.227
17477W        W89902  15.123  42.985  11.075
17478W        W89903  23.541  20.753  14.867
17479W        W89904  41.380   8.805   1.419
17480W        W89905  27.167  13.798  14.504
17481W        W89906  29.110  16.102  11.407
17482W        W89907  15.647  16.717  11.989
17483W        W89908  41.935  10.826  10.534
17484W        W89909  27.515   8.688   1.340
17485W        W89910  26.057  38.985  14.773
17486W        W89911  44.786  33.092  13.357
17487W        W89912  10.774  35.071   4.299
17488W        W89913  39.410  35.369   1.307
17489W        W89914  13.786  20.047   1.295
17490W        W89915   9.805  11.706   4.756
17491W        W89916  23.716  19.751   3.379
17492W        W89917  43.937  24.721   1.373
17493W        W89918  28.084  23.102  10.948
17494W        W89919   1.799  16.625   1.722
17495W        W89920  41.804  24.163   0.267
17496W        W89921  44.360  10.373   0.844
17497W        W89922  15.721  31.914  11.463
17498W        W89923   4.759  26.658   1.354
17499W        W89924  41.022  21.722  14.515
17500W        W89925   8.403  13.700   3.781
17501W        W89926  39.431  22.069   0.275
17502W        W89927  11.786  28.679   1.843
17503W        W89928  28.162  20.647   3.228
17504W        W89929  16.625  27.517   4.815
17505W        W89930   5.220   6.763   3.195
17506W        W89931  37.025  37.353   4.603
17507W        W89932  15.117   0.832   4.242
17508W        W89933  19.240  26.079  11.428
17509W        W89934  16.689   8.237  10.454
17510W        W89935  34.424   5.865  14.511
17511W        W89936   5.793  22.060  12.388
17512W        W89937  33.108  27.013   1.227
17513W        W89938  23.164  44.757  12.419
17514W        W89939  25.129  42.830   1.328
17515W        W89940  31.109   5.746  12.369
17516W        W89941  27.134  37.049  11.918
17517W        W89942   1.469  14.323   4.673
17518W        W89943  32.448   4.229  12.358
17519W        W89944  13.828  21.247   1.266
17520W        W89945  27.183  40.032  12.900
17521W        W89946   0.320  40.913   4.798
17522W        W89947  43.780   9.872  13.398
17523W        W89948  17.263   4.783   5.240
17524W        W89949   3.311  44.452  11.524
17525W        W89950  40.859  35.097   2.275
17526W        W89951  39.503  10.153  11.910
17527W        W89952  42.419  12.643  10.968
17528W        W89953   1.442  29.051   0.792
17529W        W89954  10.752  34.021  10.956
17530W        W89955  25.972  36.997   2.300
17531W        W89956  24.579  20.757  13.389
17532W        W89957   7.866  37.480  13.355
17533W        W89958  14.205   8.179   4.811
17534W        W89959  43.817  43.968  13.384
17535W        W89960   0.399  23.702   1.238
17536W        W89961  11.183  28.047  10.487
17537W        W89962  17.630  19.159  14.856
17538W        W89963   0.476  44.826   3.856
17539W        W89964   9.351  11.325  12.525
17540W        W89965   1.768   8.768   2.191
17541W        W89966  20.760  41.032  10.923
17542W        W89967  19.218  17.210   4.330
17543W        W89968  41.310   3.301   2.353
17544W        W89969   7.737  16.082   3.633
17545W        W89970  41.300  25.125  14.944
17546W        W89971   6.331   1.807   2.277
17547W        W89972  39.049  25.086  13.044
17548W        W89973  38.964   1.954  13.393
17549W        W89974  36.910  17.080   1.746
17550W        W89975  18.717  36.529   1.282
17551W        W89976  37.866   7.842   4.744
17552W        W89977  42.900  12.710   1.378
17553W        W89978   5.432  30.578  13.905
17554W        W89979  30.019  15.815  11.102
17555W        W89980  18.226  34.068   9.978
17556W        W89981   7.213  36.004  10.513
17557W        W89982  35.042   7.677   3.353
17558W        W89983  28.599  17.584   1.241
17559W        W89984   9.814  13.209  10.476
17560W        W89985  13.211   7.665  13.835
17561W        W89986  40.895  34.382   1.802
17562W        W89987  44.323  12.622   1.783
17563W        W89988  34.007  23.194   2.272
17564W        W89989   7.188   6.405   5.088
17565W        W89990  18.628  32.456   3.700
17566W        W89991  18.760   9.336   4.289
17567W        W89992   8.290  37.947   4.682
17568W        W89993  27.680  25.650   0.288
17569W        W89994  39.446  38.532   2.823
17570W        W89995  14.750   7.866   1.785
17571W        W89996  23.694  12.132   3.667
17572W        W89997  30.920  31.581  13.468
17573W        W89998   3.317   4.865   4.799
17574W        W89999  32.445   6.371  10.426
17575W        W90000  29.472   9.225   3.361
17576W        W90001  14.205  16.105  13.029
17577W        W90002  36.071  32.940   0.437
17578W        W90003  36.954  17.802   0.469
17579W        W90004  43.935  33.610   0.789
17580W        W90005  42.505  38.053  13.846
17581W        W90006   0.947  27.589  13.016
17582W        W90007  41.836  24.704   3.292
17583W        W90008  34.016  16.090   2.234
17584W        W90009  11.636  25.148   4.715
17585W        W90010  35.479  27.597  12.355
17586W        W90011  42.369  28.581  11.065
17587W        W90012  42.332   5.324   3.652
17588W        W90013  11.200  24.581  13.905
17589W        W90014   8.390  13.171  10.512
17590W        W90015  29.460   3.807  12.052
17591W        W90016  32.504  17.114   0.891
17592W        W90017  13.291  32.988  14.416
17593W        W90018  24.494  28.116   1.931
17594W        W90019  38.905  43.016   2.289
17595W        W90020   6.768  39.431   0.413
17596W        W90021  18.626   7.810   1.828
17597W        W90022   9.845  15.818   2.760
17598W        W90023  28.036  33.480  14.281
17599W        W90024  44.425  37.515   5.127
17600W        W90025   6.424  28.624   0.290
17601W        W90026   8.776  26.007   0.889
17602W        W90027  20.219  40.866  11.988
17603W        W90028  16.136  19.201  13.511
17604W        W90029   2.907  20.143   1.710
17605W        W90030   4.763   5.427  11.051
17606W        W90031   5.372  25.072  10.489
17607W        W90032  30.973   7.758   4.340
17608W        W90033  34.973  19.545   2.331
17609W        W90034  24.654  36.414   4.190
17610W        W90035  42.454  33.406   1.812
17611W        W90036   3.217  20.203  14.905
17612W        W90037  31.474  10.811  13.933
17613W        W90038  24.159  36.391  11.459
17614W        W90039  25.484  32.511   5.784
17615W        W90040  39.909  27.126  13.404
17616W        W90041  31.499  38.974  11.461
17617W        W90042  40.825   1.362  10.498
17618W        W90043  35.470  23.998   0.466
17619W        W90044  28.561  25.579   2.778
17620W        W90045  30.126  35.907   1.222
17621W        W90046  14.165  13.802   0.275
17622W        W90047   3.841  31.535   3.295
17623W        W90048  24.147   1.475   4.665
17624W        W90049  11.158  43.302  11.490
17625W        W90050  42.967  13.218   2.840
17626W        W90051   7.379  26.089  12.540
17627W        W90052   6.216  13.844  13.904
17628W        W90053   6.774  16.726   3.856
17629W        W90054  39.451  24.136  10.460
17630W        W90055  32.466  37.579   4.598
17631W        W90056  36.857  23.152  11.972
17632W        W90057  34.074  33.095   0.470
17633W        W90058   2.815  20.689  11.044
17634W        W90059  42.521  32.421   1.425
17635W        W90060  41.533  17.112  14.024
17636W        W90061  10.188  33.611   4.131
17637W        W90062  44.353  26.522   3.336
17638W        W90063  31.093  44.442   4.604
17639W        W90064   5.803  43.475   2.775
17640W        W90065  22.035  42.506  12.418
17641W        W90066  29.541  13.837  11.042
17642W        W90067  23.240  35.415  10.936
17643W        W90068  29.110   0.457  13.906
17644W        W90069  36.550  21.526  11.573
17645W        W90070  10.639  15.684  10.892
17646W        W90071  14.594   4.825  10.461
17647W        W90072  33.494  18.087  10.966
17648W        W90073  17.717  41.468   0.261
17649W        W90074  41.377  17.105  12.580
17650W        W90075  12.722  33.983   0.441
17651W        W90076  12.764  24.599   0.919
17652W        W90077   7.194  41.818  12.563
17653W        W90078  41.364  36.542   0.439
17654W        W90079  44.967  42.851   3.830
17655W        W90080  15.194   1.398   0.913
17656W        W90081  40.924   6.814   4.679
17657W        W90082  13.682  24.713   2.292
17658W        W90083  19.612  24.058   0.380
17659W        W90084   7.695   2.815   2.213
17660W        W90085  27.520  44.505   1.895
17661W        W90086   1.415   9.296   1.400
17662W        W90087  18.684  34.947   0.278
17663W        W90088  42.025   9.178   2.378
17664W        W90089  15.713  38.375  13.031
17665W        W90090  25.628  23.010  13.366
17666W        W90091  27.534  41.336   0.740
17667W        W90092  30.982  32.631   0.362
17668W        W90093  17.640   6.711  12.856
17669W        W90094  26.459  12.256  14.017
17670W        W90095   8.788  28.596  11.442
17671W        W90096  12.208   5.888   4.144
17672W        W90097  32.903   9.778   1.875
17673W        W90098  22.630  19.227  10.485
17674W        W90099  35.982   0.805  14.295
17675W        W90100  10.298  12.346  11.595
17676W        W90101  39.554  20.600  14.766
17677W        W90102  44.485  15.192   0.436
17678W        W90103  41.515  17.234  14.457
17679W        W90104  43.292  42.936  14.007
17680W        W90105  44.373  38.856   1.382
17681W        W90106  42.816   7.893  14.504
17682W        W90107   7.880  41.365  10.964
17683W        W90108   4.314   5.840  11.106
17684W        W90109  27.088  41.990  11.590
17685W        W90110  23.060  33.065  12.530
17686W        W90111   0.943  38.867  10.572
17687W        W90112  17.296  36.367  13.419
17688W        W90113  44.918  40.830   2.676
17689W        W90114  15.242  40.987   1.411
17690W        W90115   9.647  44.815  12.954
17691W        W90116  15.761  44.946   1.872
17692W        W90117  43.405  22.129   9.644
17693W        W90118  30.083  16.209   0.857
17694W        W90119   6.425  11.146  11.449
17695W        W90120  22.539  41.435  12.092
17696W        W90121   6.360   6.734   0.252
17697W        W90122  36.434  25.008   4.266
17698W        W90123  14.830  15.814   9.991
17699W        W90124   7.843  41.340   0.890
17700W        W90125  23.186  12.131   5.219
17701W        W90126   5.855  42.786   1.320
17702W        W90127  19.681  31.535   2.214
17703W        W90128  21.178  36.099   2.348
17704W        W90129   6.707   1.781  12.859
17705W        W90130  10.873  40.804  14.989
17706W        W90131  36.405  34.047  12.001
17707W        W90132  38.967  12.720   4.837
17708W        W90133  24.134  42.440   3.767
17709W        W90134  29.522   2.865   2.291
17710W        W90135   6.825  31.045  11.862
17711W        W90136  11.371  31.027  11.554
17712W        W90137  44.309   8.678   0.408
17713W        W90138   2.952  13.609   2.288
17714W        W90139  36.964  21.718   2.835
17715W        W90140  38.931  15.590   3.332
17716W        W90141   3.373   3.358   5.179
17717W        W90142  19.745   7.392   1.907
17718W        W90143  35.947  37.978   2.405
17719W        W90144  43.410  44.327   1.293
17720W        W90145  27.572  42.917  13.977
17721W        W90146  14.701  30.481   2.212
17722W        W90147   2.277  42.432  13.515
17723W        W90148  31.029  28.081   0.402
17724W        W90149  18.774   4.768   3.816
17725W        W90150   2.727  21.231   1.345
17726W        W90151  16.309  33.922   9.482
17727W        W90152   5.832  43.944   0.432
17728W        W90153   2.357  25.986  13.996
17729W        W90154  39.061  22.187   4.600
17730W        W90155  27.107  19.538  10.976
17731W        W90156   3.836  11.756   3.801
17732W        W90157  13.773  18.544   4.172
17733W        W90158  14.174  14.239   1.733
17734W        W90159  16.782  27.615   1.438
17735W        W90160  33.579  11.331   3.324
17736W        W90161  32.998   4.874   2.245
17737W        W90162  21.058  38.821  14.308
17738W        W90163  44.999  14.809   4.652
17739W        W90164  33.954  38.367   2.859
17740W        W90165  26.086  26.672   2.779
17741W        W90166  14.329  38.964   2.227
17742W        W90167  41.025   6.762  14.004
17743W        W90168   6.417   2.885  13.332
17744W        W90169  16.268   4.244  11.563
17745W        W90170  24.521  44.846   1.333
17746W        W90171  25.090  28.633  14.480
17747W        W90172  42.326  32.011  10.512
17748W        W90173  36.943  16.633  13.342
17749W        W90174  44.878   7.190   2.704
17750W        W90175  12.738  39.896   4.301
17751W        W90176  10.314  20.686  13.521
17752W        W90177   8.813  10.179  13.484
17753W        W90178   1.470  36.895  13.885
17754W        W90179  37.953   4.817  11.557
17755W        W90180  21.533  13.703  13.829
17756W        W90181  39.978  12.276  14.917
17757W        W90182  40.408   8.335  13.809
17758W        W90183   0.396  23.550  13.008
17759W        W90184  25.490  16.234  12.904
17760W        W90185  42.857   6.749   3.163
17761W        W90186   7.772  22.120   4.822
17762W        W90187   1.755  39.048  12.011
17763W        W90188   8.850   1.789  13.474
17764W        W90189  18.279   4.214   4.170
17765W        W90190  13.750   0.846   5.775
17766W        W90191  25.009   6.406  14.939
17767W        W90192   7.795  20.594  13.053
17768W        W90193  42.877  42.819   4.835
17769W        W90194  38.409   9.350   0.341
17770W        W90195  37.932  29.569  11.927
17771W        W90196  10.321  40.490  11.114
17772W        W90197  21.657  29.509  14.969
17773W        W90198  16.589  23.237  11.393
17774W        W90199  39.909  19.553  11.864
17775W        W90200  17.778  25.050   2.246
17776W        W90201  34.524  34.452  14.985
17777W        W90202  22.728  23.065  12.419
17778W        W90203  16.662  26.031  14.838
17779W        W90204  11.245   4.782  11.419
17780W        W90205  17.611  26.186  13.045
17781W        W90206  31.061   3.948   2.715
17782W        W90207  27.965  29.533   2.823
17783W        W90208   1.272  12.854   0.256
17784W        W90209  37.992   7.246  11.548
17785W        W90210  18.679  22.655  11.413
17786W        W90211  26.038  16.690  11.039
17787W        W90212  18.236   8.405   4.831
17788W        W90213  35.915   3.289  13.508
17789W        W90214  33.115  16.582  13.924
17790W        W90215  34.372   8.700   9.664
17791W        W90216  40.949  31.010  11.994
17792W        W90217  29.930   0.460   2.727
17793W        W90218   9.816   4.850  13.354
17794W        W90219  25.118   7.874  12.553
17795W        W90220  13.158  15.241  13.326
17796W        W90221   1.927  14.273   3.251
17797W        W90222  16.078  36.842  12.841
17798W        W90223  26.476  34.382  14.415
17799W        W90224  18.212  35.593  12.342
17800W        W90225   6.323   6.321  13.397
17801W        W90226   2.903  37.428  11.938
17802W        W90227   2.434   9.211   1.785
17803W        W90228  12.647  42.901   1.388
17804W        W90229   7.881  24.691   1.441
17805W        W90230  11.260   2.358   1.743
17806W        W90231  26.042  28.070  12.966
17807W        W90232  13.128  29.969   2.311
17808W        W90233  35.889  42.477  12.064
17809W        W90234  38.850   5.707  14.992
17810W        W90235   5.210  29.161   2.313
17811W        W90236  28.007  26.671   5.307
17812W        W90237  24.688  10.841  13.893
17813W        W90238   5.772   4.890   3.848
17814W        W90239  38.411  37.563   4.781
17815W        W90240   5.313  43.369  11.477
17816W        W90241   0.442   3.760   0.755
17817W        W90242   7.210  16.646   3.819
17818W        W90243   3.946  42.353  12.392
17819W        W90244   7.884  20.220  10.539
17820W        W90245  11.147  41.293   1.842
17821W        W90246   2.747   6.276  13.848
17822W        W90247  39.953  21.592   2.186
17823W        W90248  44.832   2.882  14.769
17824W        W90249  18.782  24.690   3.861
17825W        W90250   6.762  43.907   3.854
17826W        W90251   1.786  38.991   2.719
17827W        W90252  38.932  19.169  12.915
17828W        W90253  37.444  10.334  14.465
17829W        W90254  36.522  24.637  13.979
17830W        W90255  34.869  22.106   3.858
17831W        W90256   9.657  37.906  11.493
17832W        W90257   6.915   3.288   0.365
17833W        W90258  38.480   3.744  14.322
17834W        W90259  24.088  13.800   3.383
17835W        W90260  43.800   5.804  12.395
17836W        W90261  26.521  33.560   1.375
17837W        W90262  28.660  25.610  10.515
17838W        W90263  43.829   6.295  11.388
17839W        W90264  17.268   3.362   2.320
17840W        W90265  44.754  35.558   3.235
17841W        W90266  15.585  31.435   1.285
17842W        W90267  39.048  37.850  13.030
17843W        W90268   7.786   9.661  14.448
17844W        W90269   6.205  33.888   1.733
17845W        W90270  19.061  40.953  12.437
17846W        W90271  12.618  22.223  13.916
17847W        W90272  12.670  41.381  13.930
17848W        W90273  27.131  23.092  13.345
17849W        W90274  40.342  36.094  12.420
17850W        W90275   0.327   9.649   1.232
17851W        W90276  10.843   3.897   3.756
17852W        W90277  14.317   6.752   2.395
17853W        W90278  11.341  13.206  11.011
17854W        W90279   4.388  25.566  11.400
17855W        W90280  36.414  40.318   0.837
17856W        W90281  10.320   5.764  14.932
17857W        W90282  37.361   1.476  13.900
17858W        W90283  42.977  20.204   4.181
17859W        W90284  17.567  28.443   2.770
17860W        W90285  43.283  40.884   3.203
17861W        W90286  39.490  39.888  13.063
17862W        W90287  35.921  10.357   1.853
17863W        W90288   9.808   9.659   4.731
17864W        W90289   4.824  17.667  14.379
17865W        W90290  25.213  31.008  11.011
17866W        W90291  38.518  13.807   3.699
17867W        W90292  19.554   8.692  13.040
17868W        W90293  10.178  27.194  11.546
17869W        W90294  22.204  16.680   2.797
17870W        W90295  35.427  35.358  14.871
17871W        W90296  41.802   0.280   0.244
17872W        W90297  10.352   2.399   0.749
17873W        W90298  41.002  22.738   3.280
17874W        W90299  28.439  14.168  12.342
17875W        W90300   1.326  10.816   2.819
17876W        W90301  19.139  24.703   3.359
17877W        W90302  42.021  24.610  12.569
17878W        W90303  42.340  22.113   2.779
17879W        W90304  13.776  33.925   1.369
17880W        W90305  13.687  36.874  11.573
17881W        W90306  24.081  36.527   0.941
17882W        W90307  13.808  28.129   3.704
17883W        W90308  22.230  44.457   2.841
17884W        W90309  30.510   7.322   3.869
17885W        W90310   7.786  35.036  11.097
17886W        W90311  21.673   7.909   2.227
17887W        W90312  20.155   5.831  14.461
17888W        W90313  19.041  17.170   3.175
17889W        W90314  25.976  10.734   1.418
17890W        W90315  26.658  17.709   1.354
17891W        W90316  33.105  30.499  10.500
17892W        W90317  42.331  14.625   0.745
17893W        W90318   3.291  22.052  11.920
17894W        W90319  41.847  19.666  13.504
17895W        W90320  36.930  44.324  13.421
17896W        W90321  23.993  35.420   4.183
17897W        W90322  41.352  41.461   2.397
17898W        W90323   8.883   8.669   3.160
17899W        W90324  25.023  32.484   0.806
17900W        W90325  36.918   2.790  14.476
17901W        W90326  35.984  37.836  12.935
17902W        W90327  35.463  29.151   1.828
17903W        W90328  13.766  23.164   9.960
17904W        W90329  37.379  44.806   0.340
17905W        W90330  31.118  37.067   2.671
17906W        W90331  30.471   4.249   0.428
17907W        W90332  22.736  31.038  13.427
17908W        W90333  29.646  36.573  14.991
17909W        W90334   1.749  39.859   1.385
17910W        W90335  10.329   1.252   3.171
17911W        W90336  15.757  40.456  14.451
17912W        W90337  30.635  27.538   2.779
17913W        W90338   2.470  40.388   3.357
17914W        W90339  17.629   6.348  14.482
17915W        W90340  33.047   9.853   3.383
17916W        W90341  31.446  17.081  13.307
17917W        W90342   2.332  11.206   0.343
17918W        W90343   9.886   6.261   0.372
17919W        W90344  41.894  36.498   1.823
17920W        W90345   2.469  13.330   2.211
17921W        W90346  33.530  34.984  10.607
17922W        W90347  30.937  34.515   4.627
17923W        W90348  33.054  25.984   4.800
17924W        W90349   2.941  20.621  11.427
17925W        W90350  21.671  18.203   2.819
17926W        W90351  13.313  31.464  12.033
17927W        W90352  10.768  44.337  14.835
17928W        W90353   1.743  38.980  14.915
17929W        W90354  33.422   0.313   0.366
17930W        W90355  35.070  28.130  10.409
17931W        W90356   8.160  36.392  13.367
17932W        W90357  22.730   2.881  12.872
17933W        W90358  44.378  18.145  14.812
17934W        W90359  35.101  34.030  10.506
17935W        W90360  42.962   5.728  13.397
17936W        W90361  34.500  43.831   4.352
17937W        W90362   7.387   9.716  13.804
17938W        W90363  15.823  27.109  11.984
17939W        W90364  27.561  33.010   2.299
17940W        W90365  13.630  23.689   4.277
17941W        W90366  21.049   2.248   0.806
17942W        W90367   6.270  13.666  11.875
17943W        W90368  21.594  11.812  13.483
17944W        W90369  13.780  32.433   1.840
17945W        W90370   8.756   0.260   3.641
17946W        W90371   0.977   7.845   3.772
17947W        W90372  29.012  23.541  13.876
17948W        W90373  40.873   4.392   1.817
17949W        W90374  26.019   9.733   3.164
17950W        W90375  44.432  25.080   2.736
17951W        W90376  15.300  41.865  13.911
17952W        W90377  33.010  11.813  12.039
17953W        W90378   7.327  26.623  10.993
17954W        W90379  21.731  42.458  14.870
17955W        W90380   0.945  37.509  11.896
17956W        W90381  40.490  31.444  14.307
17957W        W90382  43.371  28.152  12.366
17958W        W90383  37.400  38.467  11.884
17959W        W90384  27.596  32.105   1.838
17960W        W90385  10.178   9.252   3.196
17961W        W90386  23.718  15.774  13.469
17962W        W90387  12.322   6.216  11.901
17963W        W90388  32.075  15.754  13.832
17964W        W90389   1.828  38.929   1.392
17965W        W90390   4.394  11.262   1.700
17966W        W90391  17.144  21.100  14.315
17967W        W90392  38.344  19.156  12.968
17968W        W90393   5.196  33.398   1.272
17969W        W90394  31.635  32.461  12.862
17970W        W90395  23.117  13.159  10.446
17971W        W90396  13.619  32.489   2.884
17972W        W90397   0.424  33.912   5.797
17973W        W90398  43.451  39.949  14.315
17974W        W90399  34.045   4.896   4.311
17975W        W90400  23.615  31.641  11.560
17976W        W90401   6.906   0.467  12.065
17977W        W90402  15.083  23.025  14.914
17978W        W90403  40.372  27.553  12.378
17979W        W90404  36.530   6.923  10.574
17980W        W90405  28.949  37.991   0.310
17981W        W90406  14.661  33.051   4.608
17982W        W90407   4.344  44.837  14.959
17983W        W90408   6.767   5.905  13.898
17984W        W90409  37.544  17.149   0.332
17985W        W90410  24.016  17.780  12.090
17986W        W90411  30.625   0.978  13.436
17987W        W90412   9.783   3.279   1.888
17988W        W90413  13.816  39.945   2.187
17989W        W90414   9.223  29.172   3.193
17990W        W90415   5.784  39.825  13.396
17991W        W90416  20.217   2.814   2.839
17992W        W90417  22.657  43.859  11.992
17993W        W90418  11.310  20.201  11.964
17994W        W90419  41.857  14.833  13.424
17995W        W90420   4.246  33.399   3.800
17996W        W90421   4.840  37.832   3.382
17997W        W90422   1.906  42.869   3.361
17998W        W90423  12.249  10.757  10.634
17999W        W90424  39.518  18.098   4.303
18000W        W90425  35.066  17.673   0.871
18001W        W90426  18.572   8.683  14.834
18002W        W90427  32.961  36.916   0.333
18003W        W90428  10.694   9.265  10.969
18004W        W90429   0.888  21.756   1.379
18005W        W90430   6.404  33.563   4.228
18006W        W90431  17.795  37.882  14.493
18007W        W90432  11.844  13.696   2.313
18008W        W90433   5.196  13.176   3.856
18009W        W90434  38.848  27.077   3.845
18010W        W90435  43.360  19.098  14.498
18011W        W90436   5.874  21.721  11.391
18012W        W90437  23.661  23.687   0.404
18013W        W90438  19.242  44.995   0.413
18014W        W90439  12.713   6.755   4.761
18015W        W90440   2.323  29.960  11.416
18016W        W90441   2.304  44.501   9.967
18017W        W90442  21.723  41.861  13.928
18018W        W90443   5.896  12.330   3.197
18019W        W90444  19.191  27.046  11.030
18020W        W90445  42.493  16.230   2.332
18021W        W90446  38.431  15.814  14.897
18022W        W90447   7.798  12.800   1.238
18023W        W90448  39.470  17.227  13.054
18024W        W90449  27.650   6.191   1.323
18025W        W90450   3.953  44.470   4.830
18026W        W90451   3.232  19.167  13.348
18027W        W90452  24.025  43.450   3.778
18028W        W90453  29.066   5.905   3.865
18029W        W90454  37.506  44.360   1.418
18030W        W90455  26.667  35.586   2.802
18031W        W90456  24.208   4.723   4.204
18032W        W90457  19.073  26.017  12.532
18033W        W90458  22.541   0.797  12.857
18034W        W90459   8.365  37.405  11.127
18035W        W90460   6.296  19.263   1.875
18036W        W90461  15.786  41.324   2.768
18037W        W90462  36.084  32.126  13.398
18038W        W90463  23.726   2.283  13.537
18039W        W90464  29.000   9.180  14.838
18040W        W90465  26.087  39.558  14.884
18041W        W90466  11.649  21.257   2.286
18042W        W90467   6.862  39.995   2.372
18043W        W90468   0.328  26.132   0.750
18044W        W90469   4.790  16.309  14.788
18045W        W90470  22.602   3.726   3.266
18046W        W90471   9.201   7.908  14.797
18047W        W90472   1.402  17.084   1.826
18048W        W90473  20.606  34.387  13.432
18049W        W90474  19.179  23.202   4.674
18050W        W90475  13.741  13.164   0.399
18051W        W90476  40.491  21.606  14.781
18052W        W90477  38.907  43.974  11.544
18053W        W90478  18.551  30.016   3.291
18054W        W90479  42.903  36.083   1.883
18055W        W90480  23.540  18.711  12.847
18056W        W90481  17.569  11.720  13.915
18057W        W90482   5.436   6.753  12.373
18058W        W90483  21.191  18.183   3.837
18059W        W90484   9.703  38.557   4.187
18060W        W90485  26.490  20.068  11.432
18061W        W90486   6.723  19.779   4.188
18062W        W90487  38.566   6.765  10.908
18063W        W90488  16.813   0.253   2.698
18064W        W90489  33.024  43.811  11.934
18065W        W90490   6.207  10.690  11.991
18066W        W90491  24.143  30.441  13.401
18067W        W90492  33.060  26.110  14.995
18068W        W90493   0.398   6.269   2.796
18069W        W90494  26.206  26.631   2.241
18070W        W90495  16.220  22.627   2.368
18071W        W90496   1.237   6.721   1.418
18072W        W90497  35.412   0.780   0.481
18073W        W90498  16.285  28.995   4.700
18074W        W90499  27.060  34.875   0.759
18075W        W90500  10.757  14.159   1.276
18076W        W90501  22.545  26.050   1.835
18077W        W90502  31.492  39.020   2.813
18078W        W90503  33.084   3.388  13.050
18079W        W90504  14.212  31.610  14.983
18080W        W90505  34.868  29.630  14.814
18081W        W90506   3.799   9.323  12.951
18082W        W90507  29.479   5.356  11.474
18083W        W90508  42.800  16.086   1.386
18084W        W90509  19.072  25.602  13.818
18085W        W90510   3.268  21.260   3.738
18086W        W90511  36.388  28.668   2.315
18087W        W90512  39.451   5.817   1.295
18088W        W90513   7.219  21.656  10.426
18089W        W90514  39.356  44.367   3.180
18090W        W90515  24.707   9.233  14.959
18091W        W90516  32.006   9.645   3.869
18092W        W90517   6.733  25.132  12.962
18093W        W90518   7.769   4.726  11.493
18094W        W90519  13.706  23.082   4.718
18095W        W90520   2.795   3.456   0.769
18096W        W90521   5.298  29.090   4.258
18097W        W90522   9.240  23.057   3.311
18098W        W90523  25.034  18.567  11.562
18099W        W90524   3.224  22.143   0.361
18100W        W90525   2.920   2.290  13.887
18101W        W90526   9.722  17.630  13.058
18102W        W90527  21.511  14.268   1.305
18103W        W90528  14.816  44.293  10.143
18104W        W90529  28.652  16.316  12.922
18105W        W90530  27.048  39.536   4.268
18106W        W90531  30.530  15.189  13.792
18107W        W90532  14.254  11.289  14.327
18108W        W90533  14.112  39.022  14.915
18109W        W90534  13.148   4.835   2.882
18110W        W90535   5.334  36.467  12.528
18111W        W90536   0.314   2.875   2.266
18112W        W90537  25.987  31.569  12.916
18113W        W90538  40.385  34.484   3.155
18114W        W90539  36.579  36.007  14.456
18115W        W90540  18.606  32.485   4.242
18116W        W90541  43.831  20.098   3.860
18117W        W90542  42.280  27.125  13.912
18118W        W90543  20.742  22.132  11.987
18119W        W90544  33.978   8.824  12.484
18120W        W90545  23.684  40.407   4.735
18121W        W90546   4.717  18.224   2.767
18122W        W90547  41.379  36.576   4.751
18123W        W90548  38.462  11.757  13.385
18124W        W90549  24.560  34.412   2.402
18125W        W90550  26.481   5.218  14.387
18126W        W90551  10.332  15.158  11.389
18127W        W90552  25.643   9.328   3.695
18128W        W90553   8.374  39.950  14.347
18129W        W90554   8.885  35.420   1.446
18130W        W90555  20.164  32.478  12.933
18131W        W90556  42.425   4.300   4.336
18132W        W90557  40.307  28.118   3.711
18133W        W90558  40.490  25.208   1.848
18134W        W90559  23.580  32.069  11.005
18135W        W90560  14.282  41.446   3.243
18136W        W90561  17.248  16.739   0.254
18137W        W90562   7.865  15.218  12.531
18138W        W90563  27.506  29.103  13.891
18139W        W90564  16.743  13.208  14.339
18140W        W90565  11.361  30.608  14.315
18141W        W90566  43.350   7.409  10.024
18142W        W90567  21.245  44.773   4.712
18143W        W90568  30.949  43.971   4.786
18144W        W90569  40.882  36.533   2.317
18145W        W90570   3.770  14.781  14.872
18146W        W90571  19.709  11.762   4.141
18147W        W90572  33.435   3.936   1.211
18148W        W90573  33.594  35.470   2.850
18149W        W90574   5.280  11.816  13.345
18150W        W90575   8.307  18.658  11.568
18151W        W90576  18.683  35.023  11.953
18152W        W90577  40.831  16.687  11.515
18153W        W90578  41.793  21.684  14.447
18154W        W90579  14.168  40.410  10.625
18155W        W90580  18.210  34.372  12.422
18156W        W90581  26.007   0.456   4.156
18157W        W90582  17.222   7.857   1.770
18158W        W90583  35.981  13.797   1.784
18159W        W90584  17.281  33.411   4.336
18160W        W90585  12.178  18.661  11.870
18161W        W90586  43.428  17.111  14.004
18162W        W90587  34.908  39.913   1.338
18163W        W90588  42.373   8.208   4.692
18164W        W90589  35.854  14.712  12.454
18165W        W90590  30.921  13.809  14.885
18166W        W90591  22.189   7.358  13.867
18167W        W90592  32.907  42.375  14.310
18168W        W90593  16.172  13.155  14.393
18169W        W90594  30.590  36.462  12.450
18170W        W90595   4.380  28.159   4.826
18171W        W90596   0.249   6.403   3.281
18172W        W90597   1.857  16.187   0.961
18173W        W90598  36.409  18.071  11.855
18174W        W90599   7.884  16.650  10.540
18175W        W90600   6.219  21.047   4.734
18176W        W90601  17.207   1.392   2.196
18177W        W90602  10.272  16.253  12.977
18178W        W90603  18.226  24.012   0.269
18179W        W90604  33.909  22.067  14.774
18180W        W90605  13.738  32.949  13.868
18181W        W90606  16.298  29.670  13.864
18182W        W90607  39.853  31.988  12.490
18183W        W90608   7.393  32.040  11.459
18184W        W90609  36.945  31.933   5.135
18185W        W90610   2.893   9.821  14.840
18186W        W90611  11.199  23.605  10.897
18187W        W90612  28.990  11.231   2.310
18188W        W90613  27.158  23.119   3.246
18189W        W90614  41.016  17.732  14.025
18190W        W90615  18.573  15.740   0.895
18191W        W90616  30.572  36.481   2.411
18192W        W90617  29.012  21.582  11.925
18193W        W90618  31.082  32.520  12.501
18194W        W90619  17.754   7.407   2.393
18195W        W90620   8.275   2.386   3.370
18196W        W90621   7.217  28.183  13.510
18197W        W90622   6.347   3.221  12.576
18198W        W90623  36.013   1.978  11.960
18199W        W90624  12.745  17.076  13.990
18200W        W90625  41.919   0.389  12.948
18201W        W90626  33.127   3.808   1.317
18202W        W90627  35.358  44.905  13.969
18203W        W90628  41.831  44.824  14.278
18204W        W90629  11.149  35.418   4.142
18205W        W90630  19.586  19.593  11.557
18206W        W90631  30.942  32.438  13.855
18207W        W90632  29.955   6.782   4.208
18208W        W90633   5.910  44.918   2.752
18209W        W90634  23.653   1.937   3.815
18210W        W90635  39.522  13.819  11.123
18211W        W90636  27.069  18.735  10.599
18212W        W90637   5.772   7.305   4.208
18213W        W90638  31.025   9.219   1.710
18214W        W90639  35.081  35.498  11.089
18215W        W90640  40.985  39.871   4.753
18216W        W90641  25.060  28.117   4.282
18217W        W90642  34.451  42.452   4.312
18218W        W90643  19.596  27.673   0.798
18219W        W90644   9.202  40.347   3.740
18220W        W90645  16.709  21.140  11.004
18221W        W90646  39.453   1.865   0.896
18222W        W90647   6.401  11.696  10.064
18223W        W90648   0.263  43.781   2.183
18224W        W90649  22.211  38.839  13.816
18225W        W90650  23.175  25.542   2.797
18226W        W90651   5.865  28.181  11.448
18227W        W90652  10.145  18.642   4.802
18228W        W90653  29.631  39.395  11.917
18229W        W90654  18.261   8.715  14.276
18230W        W90655  25.691  37.566   3.727
18231W        W90656  22.579  33.991   4.156
18232W        W90657  26.016  20.566   2.283
18233W        W90658  32.090  20.141   4.247
18234W        W90659  31.963  16.809   3.846
18235W        W90660  14.588  34.880   1.708
18236W        W90661  44.874  28.660  11.468
18237W        W90662  22.015  37.501   3.381
18238W        W90663  38.876  21.741   1.822
18239W        W90664  44.769  17.121  12.411
18240W        W90665   7.842  34.098   3.647
18241W        W90666  27.980  38.371   3.853
18242W        W90667  39.557  32.899   3.694
18243W        W90668  30.109  27.691   0.904
18244W        W90669  15.657  32.121   0.424
18245W        W90670  21.248  16.224   3.315
18246W        W90671   3.925  19.201  13.016
18247W        W90672  28.086  23.735   3.769
18248W        W90673  33.529  32.544   3.647
18249W        W90674   7.902  29.449  12.440
18250W        W90675  21.168  43.907   1.392
18251W        W90676  32.059   3.915  12.918
18252W        W90677   6.901  24.132  11.018
18253W        W90678   2.843  12.201   0.436
18254W        W90679  42.864  10.776   1.935
18255W        W90680  17.663  28.051  11.897
18256W        W90681  19.232   5.741  14.476
18257W        W90682  10.339  29.068   0.882
18258W        W90683  29.600  18.067  12.544
18259W        W90684  12.845  14.117   0.353
18260W        W90685  40.408  10.658   3.868
18261W        W90686  17.167   0.290   1.698
18262W        W90687   9.847  32.958  14.463
18263W        W90688  43.766  16.117  11.987
18264W        W90689  21.064  27.556   2.402
18265W        W90690  43.316  27.513   4.229
18266W        W90691  35.418  15.191   0.284
18267W        W90692  30.487  37.972   1.912
18268W        W90693  21.175  12.174  11.127
18269W        W90694   9.150  26.997  11.415
18270W        W90695  16.660  19.677  14.436
18271W        W90696  41.954  33.957  10.519
18272W        W90697  30.625  21.138  10.967
18273W        W90698   4.780  35.497   4.175
18274W        W90699  29.530  11.286  10.631
18275W        W90700  35.602  17.198   3.276
18276W        W90701  31.511  31.982   1.732
18277W        W90702  26.590  36.503  13.795
18278W        W90703  38.895   7.195  10.041
18279W        W90704  20.739  18.153  11.902
18280W        W90705  26.646  23.508   3.683
18281W        W90706  40.527  33.578  13.482
18282W        W90707   0.911  20.134  11.050
18283W        W90708  36.593  17.116  11.407
18284W        W90709  25.214  34.374   1.383
18285W        W90710  13.148  36.432   3.714
18286W        W90711   4.254  35.866  13.887
18287W        W90712   4.871  22.210   0.433
18288W        W90713   1.290   6.201  12.068
18289W        W90714  44.469   7.219   4.353
18290W        W90715  13.148  13.128   4.825
18291W        W90716  44.977  12.804  11.974
18292W        W90717  24.706  20.748  12.461
18293W        W90718  29.604  26.167  12.904
18294W        W90719   9.799   2.273  14.395
18295W        W90720   8.856  37.896   2.186
18296W        W90721  19.697  39.945  14.514
18297W        W90722  16.122  37.073  12.474
18298W        W90723   9.348   3.397   5.280
18299W        W90724  39.507  32.003   4.773
18300W        W90725  21.729  39.866  11.877
18301W        W90726  24.688  32.071  10.007
18302W        W90727  22.565   9.731  14.835
18303W        W90728  24.148  22.708  11.888
18304W        W90729  36.466  30.429   2.768
18305W        W90730  31.131  28.138  13.946
18306W        W90731  36.016  40.343  12.921
18307W        W90732  25.649   3.762  11.486
18308W        W90733  31.600  40.401  12.930
18309W        W90734  39.009  40.456  13.316
18310W        W90735  12.622  16.211  11.922
18311W        W90736   2.887   9.813   1.869
18312W        W90737  12.814  27.569   1.733
18313W        W90738  23.130   5.769  14.774
18314W        W90739  28.129   1.920  10.931
18315W        W90740  13.346  25.607   0.861
18316W        W90741  15.207  21.705  10.485
18317W        W90742  12.341  23.058   0.965
18318W        W90743  16.237  30.486  10.976
18319W        W90744   8.206   9.361   3.762
18320W        W90745  27.502  22.048   3.374
18321W        W90746   7.302  38.869   3.290
18322W        W90747  15.117  37.362  10.896
18323W        W90748   7.678  11.828  12.929
18324W        W90749  37.373  13.201   4.254
18325W        W90750  17.645  37.998  12.970
18326W        W90751  43.345   8.192   0.782
18327W        W90752  31.634  37.527   2.405
18328W        W90753   2.434  38.826   3.855
18329W        W90754   3.355  25.023   0.871
18330W        W90755   0.891   9.691   3.179
18331W        W90756  28.638  11.309   1.406
18332W        W90757  15.191  40.962   2.803
18333W        W90758  23.625  42.308   4.354
18334W        W90759  34.552  40.988  10.602
18335W        W90760   2.423  28.165   2.319
18336W        W90761  20.582  22.046   3.703
18337W        W90762  21.669  34.588   3.750
18338W        W90763  11.778  27.036   4.710
18339W        W90764  34.955  31.555  12.498
18340W        W90765   4.889  32.519   3.754
18341W        W90766  32.541  34.909  10.134
18342W        W90767  16.638  32.998  10.631
18343W        W90768  23.093  32.545  13.794
18344W        W90769  37.439   0.343  14.806
18345W        W90770  44.486  11.288  11.403
18346W        W90771  42.027  15.657  12.349
18347W        W90772   6.827  15.769   2.696
18348W        W90773  31.078  39.320   1.424
18349W        W90774  14.157  26.011  13.050
18350W        W90775   7.762   4.383   4.800
18351W        W90776  19.142   5.788   1.359
18352W        W90777  11.261  24.003  12.092
18353W        W90778  21.056  19.138  11.037
18354W        W90779   0.940  28.448   4.136
18355W        W90780  44.486  40.302   0.967
18356W        W90781   6.366   7.284  13.837
18357W        W90782   1.828  32.138   0.958
18358W        W90783  28.506  28.098   4.247
18359W        W90784   7.691   7.690  12.571
18360W        W90785  18.570  35.599   0.482
18361W        W90786  23.169   1.873  13.895
18362W        W90787  25.113  19.779  10.545
18363W        W90788  23.707  12.199  12.345
18364W        W90789   0.345  39.981  13.876
18365W        W90790   8.742  10.721   0.457
18366W        W90791  19.198   5.728   0.378
18367W        W90792   4.873  44.348  14.389
18368W        W90793  36.086  27.112   4.129
18369W        W90794   4.845  18.787   4.269
18370W        W90795   7.259  44.376  13.859
18371W        W90796  29.543  32.519  12.843
18372W        W90797  21.753  30.509   3.256
18373W        W90798   2.901  24.632  12.845
18374W        W90799   8.683  38.466   1.292
18375W        W90800  24.059   0.742  11.992
18376W        W90801  26.661   5.266  11.911
18377W        W90802  38.493  42.906  13.005
18378W        W90803  36.444  39.820  11.400
18379W        W90804  44.958  16.784   4.209
18380W        W90805  16.682  32.448   2.688
18381W        W90806  40.930  18.700  12.345
18382W        W90807  34.974  19.712  13.844
18383W        W90808   9.816  30.537  12.398
18384W        W90809  37.472  14.734   0.432
18385W        W90810  39.501  44.964  10.889
18386W        W90811  41.992  11.313   2.245
18387W        W90812  13.809   5.786  11.120
18388W        W90813  40.020  24.494  12.339
18389W        W90814  31.128  20.224   3.650
18390W        W90815  13.704  33.396  13.027
18391W        W90816   2.779   5.806  14.863
18392W        W90817  43.888  12.663  14.284
18393W        W90818  17.118  43.927   4.179
18394W        W90819   5.198  35.089  12.420
18395W        W90820  23.186  12.119  13.827
18396W        W90821  25.651  25.545  11.945
18397W        W90822  14.120   9.309   5.083
18398W        W90823  24.478  27.183  14.305
18399W        W90824  23.115  11.798  14.794
18400W        W90825   7.184   6.412   4.733
18401W        W90826  15.682  23.136  13.932
18402W        W90827  33.385  29.644   0.310
18403W        W90828  31.974  14.689  13.386
18404W        W90829  25.592   0.300  13.882
18405W        W90830  14.223  21.612   2.413
18406W        W90831  25.564  31.999  10.964
18407W        W90832   5.806   6.309  10.572
18408W        W90833   6.257   5.342   2.726
18409W        W90834  38.333   0.967   1.891
18410W        W90835  12.256  19.215   3.786
18411W        W90836  25.146  33.118  11.401
18412W        W90837  15.235  30.505   4.620
18413W        W90838  27.667  34.487   3.869
18414W        W90839  25.217  13.742   0.934
18415W        W90840  34.063  28.092  10.888
18416W        W90841  38.037  40.509   0.925
18417W        W90842  10.774  19.141  14.487
18418W        W90843  42.427   9.691   1.780
18419W        W90844  18.631  19.612   1.350
18420W        W90845  42.859  41.847  14.341
18421W        W90846  25.020  40.501  11.087
18422W        W90847   0.797  16.767   3.838
18423W        W90848   4.865  19.047   4.243
18424W        W90849   5.710   6.417   1.391
18425W        W90850  42.790   3.937   3.231
18426W        W90851  19.194  40.499  13.447
18427W        W90852  43.780  40.457   4.739
18428W        W90853  40.852  36.952   0.320
18429W        W90854   1.480  12.827  13.364
18430W        W90855  43.315   1.298   0.264
18431W        W90856  42.444  41.997  12.025
18432W        W90857  14.168  10.160  11.988
18433W        W90858  11.146   1.935   3.723
18434W        W90859  19.106  20.752   2.703
18435W        W90860  29.498  36.875   3.692
18436W        W90861   6.682  14.308  11.961
18437W        W90862  22.088  42.449  11.938
18438W        W90863  43.326   7.366   1.806
18439W        W90864   0.446  37.452   0.317
18440W        W90865  28.623  25.563   2.412
18441W        W90866  10.760   4.709   3.247
18442W        W90867  27.986  32.935  12.400
18443W        W90868  11.766  43.008   5.217
18444W        W90869  11.175  14.635   0.933
18445W        W90870  10.380   6.386   4.764
18446W        W90871  30.535   1.935  14.359
18447W        W90872   6.260  33.535   1.390
18448W        W90873   7.377  37.078   0.912
18449W        W90874   1.361  43.397   3.325
18450W        W90875  40.877  20.265   0.331
18451W        W90876   9.242  20.679   0.877
18452W        W90877   2.429  41.358  11.105
18453W        W90878  31.554   4.255  13.315
18454W        W90879  35.442  20.051  12.445
18455W        W90880  44.328  38.888   4.218
18456W        W90881  12.761  43.334  13.378
18457W        W90882  37.350   7.856   5.151
18458W        W90883  23.148  38.553  11.473
18459W        W90884  34.475   7.787   2.322
18460W        W90885  23.099  18.221  12.505
18461W        W90886  40.842  27.161  13.819
18462W        W90887  37.567   0.423  13.388
18463W        W90888  23.069  15.789  13.959
18464W        W90889  26.618  10.227  11.888
18465W        W90890   9.231  41.922  10.475
18466W        W90891  12.840   8.304   0.403
18467W        W90892  23.058  16.646   2.399
18468W        W90893  17.801  30.071   3.360
18469W        W90894  22.189  19.657   4.688
18470W        W90895  39.390  30.073  12.545
18471W        W90896   5.879  37.042   2.860
18472W        W90897  11.733  38.434   2.873
18473W        W90898  13.269  18.226   0.731
18474W        W90899   6.679  30.629  10.579
18475W        W90900  22.533  21.700   4.611
18476W        W90901  28.666   4.721  12.347
18477W        W90902  35.599  43.838   0.265
18478W        W90903  33.415  17.748   4.311
18479W        W90904   6.328  13.248  12.961
18480W        W90905  42.474  34.481  12.393
18481W        W90906  25.028  14.099   4.119
18482W        W90907  17.204  17.640   2.741
18483W        W90908  31.921  23.572  10.421
18484W        W90909  13.266  35.918  11.945
18485W        W90910   9.304  12.824  14.817
18486W        W90911  39.980  32.407   1.303
18487W        W90912  13.696  44.849   2.396
18488W        W90913  34.897  40.966  13.815
18489W        W90914  27.476  12.646  11.514
18490W        W90915   8.702  14.692  11.942
18491W        W90916  18.752  36.435   4.634
18492W        W90917  42.284  43.829  13.972
18493W        W90918  44.845  27.986  14.845
18494W        W90919  36.912  15.738  14.467
18495W        W90920   2.372  32.023   0.777
18496W        W90921  16.786  22.212   4.805
18497W        W90922  10.726  12.224   3.160
18498W        W90923  40.926  41.984   1.708
18499W        W90924  30.604  21.608  14.513
18500W        W90925  21.545  40.328  10.613
18501W        W90926  20.138  36.094   9.989
18502W        W90927  18.736   7.670   2.841
18503W        W90928  11.346   7.819  14.874
18504W        W90929  19.618   6.321  13.508
18505W        W90930  44.443  12.347  11.938
18506W        W90931  17.610  20.746   4.795
18507W        W90932   4.797  18.089   5.213
18508W        W90933  44.363   3.939   0.255
18509W        W90934  34.036  35.075  10.952
18510W        W90935  18.214  26.049  12.555
18511W        W90936  33.903  42.911  14.305
18512W        W90937  29.597  27.946   4.671
18513W        W90938  41.905  38.528   0.384
18514W        W90939  37.947   1.808  14.758
18515W        W90940   0.428   4.374  12.441
18516W        W90941  41.967  17.709   1.735
18517W        W90942  27.580   6.252   2.873
18518W        W90943  40.995  41.351  11.956
18519W        W90944  37.982  34.909  11.533
18520W        W90945  39.956  24.668  13.984
18521W        W90946   1.404  25.057   1.379
18522W        W90947  10.685  43.273   2.413
18523W        W90948   7.405  21.518  13.344
18524W        W90949  18.684  19.675  10.985
18525W        W90950  22.734   3.341  14.798
18526W        W90951   2.854  30.148  11.571
18527W        W90952  40.317   9.280   3.847
18528W        W90953  43.911  30.637  10.553
18529W        W90954  38.331   1.852   1.377
18530W        W90955  24.705  25.708   2.700
18531W        W90956  19.230  34.897  14.812
18532W        W90957  38.000  35.102  11.083
18533W        W90958  12.300   1.336   1.806
18534W        W90959  12.177   6.749   4.172
18535W        W90960  36.082  27.595  14.910
18536W        W90961  18.205   6.217  10.493
18537W        W90962  13.741  25.531   1.247
18538W        W90963  22.722  22.235   3.204
18539W        W90964   7.862  40.865   4.136
18540W        W90965  28.125  43.909   3.226
18541W        W90966  23.516   1.814  11.590
18542W        W90967  13.799  20.722  11.015
18543W        W90968  35.051  26.139  11.934
18544W        W90969   0.915  10.699   0.947
18545W        W90970  22.637   1.332  11.400
18546W        W90971   1.438  32.537   1.265
18547W        W90972  25.568  43.449   2.863
18548W        W90973  26.502  15.203  11.579
18549W        W90974   0.858  33.520   0.299
18550W        W90975  12.691  28.103  11.566
18551W        W90976   9.326  36.030  13.027
18552W        W90977  33.550   1.461   3.806
18553W        W90978  35.421  28.504  10.945
18554W        W90979   3.929  23.036   1.333
18555W        W90980  14.684  25.035   4.628
18556W        W90981  39.326  12.148  11.598
18557W        W90982  29.922  40.518  14.798
18558W        W90983  12.117   0.898   2.852
18559W        W90984  22.527  26.952  14.396
18560W        W90985  30.911  36.969   0.905
18561W        W90986  14.687  14.606   1.718
18562W        W90987  13.223  21.166  14.497
18563W        W90988   9.652  42.003  14.803
18564W        W90989  13.633   9.736  12.948
18565W        W90990  39.392  12.344  10.979
18566W        W90991  27.498  11.253  14.874
18567W        W90992  25.544  42.500   1.424
18568W        W90993  40.507  16.166  10.540
18569W        W90994  38.978   3.715   2.771
18570W        W90995   2.890   8.254  13.840
18571W        W90996  15.296  42.943  13.044
18572W        W90997  44.365  22.535  11.509
18573W        W90998  43.016  34.490  13.042
18574W        W90999  40.468  44.266  12.926
18575W        W91000  30.544  35.524  11.124
18576W        W91001   0.948  17.792  13.954
18577W        W91002  11.795  25.681  13.351
18578W        W91003   1.779  17.791  10.896
18579W        W91004  15.664  24.157  14.444
18580W        W91005  33.519   1.446  14.496
18581W        W91006   0.751  25.978  14.419
18582W        W91007  14.239   6.751   2.726
18583W        W91008  20.662  26.616  13.970
18584W        W91009  36.022  29.988  12.414
18585W        W91010   6.389  25.708   0.798
18586W        W91011   4.830  26.679  12.575
18587W        W91012  19.558  23.152   3.261
18588W        W91013  26.460  32.094   0.870
18589W        W91014  34.603  17.655   3.344
18590W        W91015  37.002  34.071   1.850
18591W        W91016  21.194  23.124   1.318
18592W        W91017  41.960  29.466  11.931
18593W        W91018  19.045  10.369  14.293
18594W        W91019   9.177   0.297   3.338
18595W        W91020  10.651  34.105  13.045
18596W        W91021  15.640  25.092  14.462
18597W        W91022  22.525  21.226  12.462
18598W        W91023   8.766  14.234  13.928
18599W        W91024  17.141  34.580  11.000
18600W        W91025  35.583   3.771   0.331
18601W        W91026   5.228  27.667   1.794
18602W        W91027  30.979  44.934   3.700
18603W        W91028  20.224  37.365   2.859
18604W        W91029  21.148  14.665   3.215
18605W        W91030  11.198   4.833   2.894
18606W        W91031  26.464  32.418   0.812
18607W        W91032  29.025  18.138   0.264
18608W        W91033   6.757   9.331  14.937
18609W        W91034  44.362  11.682  13.453
18610W        W91035  31.145  13.613   2.418
18611W        W91036  28.566  30.977  11.899
18612W        W91037   1.872  30.981  11.861
18613W        W91038   9.246  31.549  11.412
18614W        W91039  44.804  34.989   3.846
18615W        W91040  26.655  38.551   3.340
18616W        W91041  29.125  20.165  10.471
18617W        W91042  40.438  42.447  12.988
18618W        W91043   0.925  24.659  14.772
18619W        W91044  19.565   9.391  11.526
18620W        W91045  25.629   8.192   0.339
18621W        W91046  18.189   2.464  13.486
18622W        W91047  35.945  39.540   2.205
18623W        W91048   5.356   3.236   1.393
18624W        W91049  27.501  41.450  12.424
18625W        W91050  28.596  21.156  11.973
18626W        W91051  20.092  11.689   2.267
18627W        W91052  15.787  18.653  13.374
18628W        W91053  36.549   2.455   1.399
18629W        W91054  40.309  35.962   4.605
18630W        W91055  31.463  34.973  11.886
18631W        W91056  15.093  36.461  14.444
18632W        W91057  13.648   1.292   0.780
18633W        W91058  38.926  25.474  13.905
18634W        W91059  35.362  21.587   3.795
18635W        W91060  42.488  24.011  12.095
18636W        W91061  34.056  11.768  13.855
18637W        W91062  33.545   0.455  13.376
18638W        W91063  11.677  43.835  12.870
18639W        W91064   4.416  17.203  12.451
18640W        W91065   4.796  24.701  14.456
18641W        W91066  32.932  29.069   0.958
18642W        W91067  21.259  17.790   4.156
18643W        W91068  17.088  22.189  10.507
18644W        W91069   9.873  26.679   2.245
18645W        W91070  38.982   2.928  14.789
18646W        W91071  39.988   6.299  10.469
18647W        W91072  10.790  33.533   4.147
18648W        W91073  10.320  40.027  12.969
18649W        W91074  18.743  42.829   1.868
18650W        W91075  28.601  38.824   1.397
18651W        W91076  16.077  24.110  12.898
18652W        W91077  21.083  31.072   0.743
18653W        W91078  24.058  36.009  11.450
18654W        W91079  26.023  22.640   0.351
18655W        W91080   8.329  40.035  13.367
18656W        W91081  23.705  28.170   3.268
18657W        W91082  18.767  44.902  13.531
18658W        W91083  24.118  35.563   4.818
18659W        W91084  25.205  17.605   0.305
18660W        W91085  32.935  14.803   4.178
18661W        W91086  32.560  29.144  11.991
18662W        W91087  21.055   6.399  11.895
18663W        W91088  31.553  27.137   3.788
18664W        W91089  20.043  11.237   4.789
18665W        W91090  36.355  42.781   1.860
18666W        W91091  14.196   5.436   3.267
18667W        W91092   3.786  30.650  14.436
18668W        W91093   4.880  19.174  14.867
18669W        W91094  41.444  30.617   3.157
18670W        W91095  33.095  27.153   0.905
18671W        W91096  34.407  14.807   0.834
18672W        W91097  25.547  33.405  13.538
18673W        W91098   2.294  29.487   4.300
18674W        W91099  25.635   1.787  12.572
18675W        W91100   2.817  26.045  10.629
18676W        W91101   3.448   5.814  11.081
18677W        W91102  32.567  39.346   4.660
18678W        W91103  11.726  22.210   2.677
18679W        W91104  22.249   1.917   4.663
18680W        W91105  39.010  36.369   0.264
18681W        W91106  22.676   7.747  13.815
18682W        W91107  17.712  35.501  12.924
18683W        W91108   7.225  20.073   2.713
18684W        W91109  34.973   6.869  11.374
18685W        W91110  33.407  43.788   0.943
18686W        W91111   9.254  26.576  10.952
18687W        W91112  40.812  39.529   3.646
18688W        W91113  10.254  26.128  14.904
18689W        W91114  11.367  35.963   0.298
18690W        W91115  35.881  39.833   0.476
18691W        W91116  43.944  20.047   0.432
18692W        W91117  15.133  26.188  14.027
18693W        W91118  44.926  39.821  12.026
18694W        W91119  22.590  13.124  14.338
18695W        W91120   8.896  26.479  14.771
18696W        W91121   9.693   5.259   4.628
18697W        W91122  13.724  30.464   1.323
18698W        W91123  24.030  27.192  11.594
18699W        W91124  34.025  31.411   4.821
18700W        W91125  13.693  37.963  11.110
18701W        W91126  44.411  30.952  14.429
18702W        W91127  31.927  10.845   0.472
18703W        W91128   3.946   4.227  12.947
18704W        W91129   0.961  21.138   1.436
18705W        W91130  42.027  33.509  14.322
18706W        W91131   4.891  19.643   4.228
18707W        W91132  37.378  24.182   1.746
18708W        W91133  37.856  36.906  11.419
18709W        W91134  25.163   1.861  11.030
18710W        W91135  12.321   7.713   1.450
18711W        W91136  21.739  22.170   3.800
18712W        W91137  20.215   2.863  11.879
18713W        W91138  10.867  39.342  12.531
18714W        W91139  15.612  34.069  11.559
18715W        W91140  39.506   3.752  13.874
18716W        W91141   6.381  27.593  14.913
18717W        W91142  36.946   5.410  11.415
18718W        W91143  41.984  43.893   4.346
18719W        W91144  19.658  40.496  11.040
18720W        W91145   7.184  25.017   3.385
18721W        W91146  26.968  16.721   2.859
18722W        W91147  11.696   1.838  10.609
18723W        W91148  38.356  13.310   0.782
18724W        W91149  16.667  16.594  13.412
18725W        W91150   5.201  16.080  11.480
18726W        W91151  31.124   8.785   4.661
18727W        W91152   9.352  20.614   4.328
18728W        W91153   4.791  28.182   3.804
18729W        W91154  31.561  14.749  14.284
18730W        W91155  36.389   3.230   3.791
18731W        W91156  41.381   4.775   4.709
18732W        W91157  23.517  38.830   1.750
18733W        W91158  13.728  36.964  10.962
18734W        W91159   3.717  11.868   0.381
18735W        W91160  36.867   8.209  10.515
18736W        W91161  29.452  29.582   3.644
18737W        W91162  30.022  39.960   0.273
18738W        W91163  39.550   7.253  10.991
18739W        W91164   3.217   1.441  11.470
18740W        W91165  26.128   2.461   4.117
18741W        W91166  41.915   9.733  12.874
18742W        W91167  42.006  31.554  12.897
18743W        W91168   9.786  44.851  13.791
18744W        W91169  34.433  24.507   4.836
18745W        W91170  27.604  19.124   3.195
18746W        W91171  36.402  22.652   3.859
18747W        W91172   5.401  20.674   4.269
18748W        W91173   3.720  35.596  14.928
18749W        W91174  44.490  29.938  12.459
18750W        W91175  16.626   7.689  11.396
18751W        W91176  19.247  38.860  12.509
18752W        W91177  20.100  25.102   4.632
18753W        W91178  10.221  14.632   0.474
18754W        W91179  19.214   2.786   0.792
18755W        W91180  19.043   0.954  12.075
18756W        W91181  38.978  17.151   0.388
18757W        W91182  14.154   1.307  14.398
18758W        W91183  31.911  29.660  12.095
18759W        W91184  28.631   2.831  12.955
18760W        W91185  10.677   3.380   4.622
18761W        W91186  29.483  29.942   2.718
18762W        W91187  22.065  22.197   2.814
18763W        W91188  22.699  17.569  10.962
18764W        W91189   1.835  28.484   0.877
18765W        W91190  23.688  38.422   3.699
18766W        W91191  37.525  10.818  14.893
18767W        W91192  40.841  19.539  13.840
18768W        W91193   3.898  14.327   3.785
18769W        W91194  42.873   8.843  14.348
18770W        W91195   9.350  13.746   4.686
18771W        W91196   0.896  18.765  12.854
18772W        W91197  42.388   8.282  12.984
18773W        W91198  22.158  28.660  13.953
18774W        W91199  28.080  21.067   4.136
18775W        W91200  28.000  41.307  12.087
18776W        W91201  35.936  23.581   1.402
18777W        W91202  41.502  37.374   5.180
18778W        W91203   6.817  19.770  12.006
18779W        W91204  43.388  23.695   0.831
18780W        W91205   0.898  32.084  11.372
18781W        W91206  11.667  35.890   1.439
18782W        W91207  25.072   5.890   4.609
18783W        W91208  38.896  26.158  10.512
18784W        W91209  32.941  40.481  11.010
18785W        W91210  23.010  11.788  13.793
18786W        W91211  36.372  11.283   0.854
18787W        W91212   9.672  21.647  13.873
18788W        W91213  19.089   2.905  13.429
18789W        W91214   2.891  18.782  14.895
18790W        W91215   3.335   7.779  11.383
18791W        W91216  34.073  32.041   2.859
18792W        W91217   8.226   4.704  11.374
18793W        W91218  40.405  15.704   4.249
18794W        W91219  17.228  28.571  13.320
18795W        W91220  24.689  38.950   4.344
18796W        W91221   8.193  41.882   0.416
18797W        W91222  40.407   7.377  12.037
18798W        W91223  38.444  28.635   2.193
18799W        W91224  15.120  12.188   2.724
18800W        W91225  38.399  41.959  13.902
18801W        W91226   6.213  40.964  13.963
18802W        W91227  35.906  34.554   0.742
18803W        W91228  39.449  43.367   2.314
18804W        W91229   8.324  20.645  13.798
18805W        W91230  20.580  10.713   5.801
18806W        W91231   6.265   5.287   3.365
18807W        W91232   0.380  35.598  10.608
18808W        W91233  24.608  30.547   1.870
18809W        W91234  24.722  18.288   2.713
18810W        W91235  43.410  24.082  14.919
18811W        W91236  24.980  23.536   1.926
18812W        W91237  30.977  41.530   5.279
18813W        W91238  31.967  16.737  13.488
18814W        W91239   3.236  30.427   2.865
18815W        W91240  30.482  42.851   1.319
18816W        W91241  21.677  37.878   3.673
18817W        W91242   2.739  17.194  11.977
18818W        W91243   8.789   9.303   2.235
18819W        W91244  28.015  33.613   1.901
18820W        W91245   8.807  36.529  14.977
18821W        W91246  22.733  18.245   4.799
18822W        W91247  19.129  33.909  12.881
18823W        W91248   3.714   1.748  13.019
18824W        W91249  14.224   6.340   4.146
18825W        W91250  43.838  12.251  14.795
18826W        W91251  30.084   4.337   2.726
18827W        W91252  20.083   0.941   2.732
18828W        W91253   6.214  28.084   5.242
18829W        W91254   0.478  38.496  11.466
18830W        W91255  24.624  12.186   3.698
18831W        W91256  43.470   1.243   3.708
18832W        W91257   7.697  10.715   2.672
18833W        W91258  12.268  10.691  13.802
18834W        W91259  30.634  40.427   2.266
18835W        W91260  29.929   2.896   4.666
18836W        W91261   1.313   5.251   0.459
18837W        W91262  28.458  36.963   0.435
18838W        W91263  13.264  28.654   3.342
18839W        W91264   7.750  24.090   4.699
18840W        W91265  11.275  35.032   1.831
18841W        W91266  27.501  33.876  14.330
18842W        W91267   3.240  30.507  14.015
18843W        W91268   7.251  20.200   1.780
18844W        W91269  43.895  11.324   2.180
18845W        W91270  20.209  12.275   0.361
18846W        W91271   5.201  32.898   1.316
18847W        W91272  11.212  27.150  13.497
18848W        W91273  33.589  38.332  14.997
18849W        W91274  42.425  44.283   2.407
18850W        W91275  22.613  43.841  13.544
18851W        W91276  26.035  11.362   1.248
18852W        W91277   8.674  10.803   1.383
18853W        W91278  20.156  31.548   4.816
18854W        W91279   8.308  30.047  10.952
18855W        W91280  37.388  40.527  14.281
18856W        W91281  24.226  28.580   3.716
18857W        W91282  31.466   1.434  11.001
18858W        W91283  29.131  37.005   0.298
18859W        W91284   7.350  36.521   0.948
18860W        W91285  13.831  34.600  11.011
18861W        W91286  31.454  26.468   1.304
18862W        W91287  26.495   5.770  14.447
18863W        W91288  40.474   1.388  14.019
18864W        W91289  41.303  16.249   1.734
18865W        W91290   1.310   9.769  12.521
18866W        W91291  17.200  32.610   2.218
18867W        W91292  43.270   3.298   4.228
18868W        W91293  38.561  29.543   0.420
18869W        W91294   1.345  32.566  11.943
18870W        W91295  34.525  30.128  14.509
18871W        W91296  17.124   5.417   4.131
18872W        W91297   0.907  21.730   0.398
18873W        W91298  17.064  29.960  13.393
18874W        W91299  15.144  22.015   0.323
18875W        W91300   5.826  29.157  11.954
18876W        W91301  22.997  21.732  10.613
18877W        W91302  26.180  20.669  13.940
18878W        W91303   6.688  42.387  13.946
18879W        W91304  29.980  42.412  13.345
18880W        W91305   4.882  32.423   0.782
18881W        W91306   2.423  24.212  13.337
18882W        W91307  12.819  21.548  12.075
18883W        W91308  14.113   1.366   4.139
18884W        W91309   6.237   6.796   1.863
18885W        W91310  12.305  21.715   4.217
18886W        W91311  32.888  19.618  13.310
18887W        W91312  25.149  10.865   4.150
18888W        W91313   4.706   9.330   1.696
18889W        W91314  30.494  31.055   0.831
18890W        W91315  30.069  20.233   4.809
18891W        W91316  13.222  18.206   2.360
18892W        W91317  14.702  13.821   4.255
18893W        W91318  31.029  35.448   0.763
18894W        W91319  43.997  38.502   3.818
18895W        W91320  34.384  27.981  14.789
18896W        W91321  26.573  43.802  13.917
18897W        W91322   0.864  40.942  10.544
18898W        W91323  40.414  30.456   4.188
18899W        W91324  34.060  29.940   0.822
18900W        W91325  26.986  32.572  11.882
18901W        W91326  24.211  26.967   4.308
18902W        W91327   9.322  24.697  12.887
18903W        W91328  34.877  26.631   3.768
18904W        W91329  15.745   5.721  10.521
18905W        W91330   0.794  25.682  12.571
18906W        W91331   0.430  12.699  11.939
18907W        W91332  32.425  18.629   0.927
18908W        W91333  26.106  32.017  14.408
18909W        W91334  33.618  33.434   3.333
18910W        W91335  20.611  15.202  14.358
18911W        W91336   5.228  22.007  14.375
18912W        W91337  13.776  21.605   4.679
18913W        W91338   8.403  44.434   3.370
18914W        W91339  34.997   7.708  13.515
18915W        W91340  35.093  29.918  13.916
18916W        W91341   3.336  18.135  12.880
18917W        W91342  31.115   3.398   4.219
18918W        W91343  11.735  19.040  12.436
18919W        W91344  22.544  20.527  14.455
18920W        W91345  29.471  28.444  13.496
18921W        W91346  43.358  38.455  14.012
18922W        W91347  39.034  29.966   4.204
18923W        W91348  11.791  23.563   1.903
18924W        W91349   1.964  21.671   4.634
18925W        W91350  24.976  25.083   0.313
18926W        W91351  19.669  18.170   1.218
18927W        W91352   6.209   6.871   0.897
18928W        W91353  20.662   3.806  11.963
18929W        W91354   0.286  36.899   4.681
18930W        W91355  23.698  38.514  14.383
18931W        W91356  23.200   8.705  11.959
18932W        W91357  29.664  41.430   4.693
18933W        W91358  34.876  10.686  14.900
18934W        W91359  12.614  40.505  13.875
18935W        W91360  19.568  41.823   3.631
18936W        W91361  28.027  30.641  12.568
18937W        W91362  23.659  20.230  10.981
18938W        W91363  33.983   7.234   1.295
18939W        W91364  31.115  16.802   0.798
18940W        W91365  40.395  43.454   1.725
18941W        W91366  30.612   3.373   3.792
18942W        W91367   0.256  33.465  13.916
18943W        W91368  11.284  24.135   2.364
18944W        W91369  28.456  43.421   2.324
18945W        W91370  44.496   7.741  13.424
18946W        W91371  40.003   5.383   2.258
18947W        W91372   5.401  29.470  14.969
18948W        W91373  28.595  20.671   0.742
18949W        W91374   3.918  29.127  12.484
18950W        W91375  34.598  24.168   1.792
18951W        W91376  32.462  29.140   2.225
18952W        W91377  36.083  17.686  12.999
18953W        W91378  19.208  40.327   4.744
18954W        W91379  11.133  42.510  12.530
18955W        W91380  18.189  40.960  11.425
18956W        W91381  18.736  43.884   3.200
18957W        W91382  44.762  15.727   4.267
18958W        W91383  25.049  26.066   2.380
18959W        W91384  44.952  23.097   4.158
18960W        W91385  42.919  22.658   0.368
18961W        W91386  31.641  38.060   4.641
18962W        W91387  38.063  42.371   2.694
18963W        W91388  23.123  31.056  12.979
18964W        W91389  39.953   4.296   4.297
18965W        W91390   3.421  32.585  13.814
18966W        W91391  19.157  27.683  14.794
18967W        W91392   0.486  11.219  11.589
18968W        W91393  14.817  41.944   3.278
18969W        W91394  27.500  18.266  13.877
18970W        W91395  28.466   6.676   4.297
18971W        W91396  34.459   5.415   0.428
18972W        W91397  18.110  36.537   2.410
18973W        W91398  35.855  43.794   1.818
18974W        W91399   5.203  36.572  11.114
18975W        W91400  28.648  30.442   3.683
18976W        W91401  19.144  27.679   0.752
18977W        W91402   8.250  30.622   4.256
18978W        W91403  25.510  40.983   1.430
18979W        W91404  12.361  14.812   2.704
18980W        W91405  22.062  27.535   3.325
18981W        W91406  40.393   7.283  14.419
18982W        W91407  36.930   8.180   0.923
18983W        W91408  19.700   7.403   3.753
18984W        W91409  23.030  40.892  13.943
18985W        W91410  11.743  43.937  10.456
18986W        W91411  36.591  31.908   2.664
18987W        W91412  36.403   9.744   4.726
18988W        W91413  21.229  17.174  14.965
18989W        W91414  36.547  13.147  10.934
18990W        W91415  33.078  42.892   3.797
18991W        W91416  19.766  44.819   1.303
18992W        W91417  18.064   3.855  13.931
18993W        W91418   2.926  20.609   3.865
18994W        W91419  27.049  30.931   4.181
18995W        W91420  37.527  27.073  14.772
18996W        W91421  42.870  39.952   4.240
18997W        W91422  10.705  26.558  10.594
18998W        W91423   6.686   3.417  14.469
18999W        W91424  41.983  27.545   0.326
19000W        W91425  14.787  20.252  12.477
19001W        W91426  23.664  32.617   2.769
19002W        W91427  40.522  40.420  12.367
19003W        W91428  10.840  35.399   4.210
19004W        W91429  29.000   3.368  14.814
19005W        W91430  28.056  21.722  12.420
19006W        W91431   4.361  10.270   3.261
19007W        W91432  34.455  21.230  11.584
19008W        W91433  27.453  42.394   1.273
19009W        W91434   8.274  44.445   0.443
19010W        W91435  40.506   5.847  11.999
19011W        W91436  41.332   3.428   3.766
19012W        W91437  39.359  41.509  14.482
19013W        W91438  34.981  35.969  13.412
19014W        W91439   8.780  28.937  11.024
19015W        W91440  33.946  33.389   3.347
19016W        W91441  37.032   0.771  12.939
19017W        W91442  24.200  21.024   4.679
19018W        W91443   6.750   1.345  10.513
19019W        W91444   4.258  30.988  11.084
19020W        W91445  36.064  19.140   2.378
19021W        W91446  25.626  38.973  13.386
19022W        W91447  40.525   9.367  14.774
19023W        W91448  36.414   0.772   3.216
19024W        W91449  22.040  33.626   1.858
19025W        W91450   6.413  13.250   9.979
19026W        W91451   9.215   3.316  14.405
19027W        W91452  26.044  27.135  11.890
19028W        W91453  39.880  36.903   1.439
19029W        W91454  10.219   6.425   3.853
19030W        W91455  10.758  36.463   3.230
19031W        W91456  43.862   7.359  12.555
19032W        W91457   0.379  27.974   0.285
19033W        W91458  22.732  41.534   3.376
19034W        W91459  42.436  24.160   2.754
19035W        W91460  30.543   4.899   5.203
19036W        W91461  26.141   6.813   0.257
19037W        W91462  44.945  39.977   0.303
19038W        W91463  44.267  20.257   1.902
19039W        W91464  38.007   5.406  10.589
19040W        W91465  41.316  14.759  11.487
19041W        W91466  11.741  18.602  10.463
19042W        W91467  42.853  41.392  12.451
19043W        W91468  22.252  42.899  13.358
19044W        W91469  33.020  23.073   2.256
19045W        W91470  44.307  19.747   3.798
19046W        W91471  36.509   1.842   2.364
19047W        W91472  10.781  10.225  10.432
19048W        W91473  17.247   9.873   1.833
19049W        W91474   7.905  44.316  10.966
19050W        W91475   9.720  42.395   2.342
19051W        W91476  19.062   2.263  13.331
19052W        W91477  14.335  26.606   9.955
19053W        W91478  40.431  17.300   3.720
19054W        W91479  18.555  13.608  13.513
19055W        W91480  36.971  18.110  11.121
19056W        W91481  20.737  23.544   2.837
19057W        W91482  17.188  12.735   0.909
19058W        W91483  41.028  18.573   3.348
19059W        W91484  43.318  19.104  10.423
19060W        W91485  11.224  25.004  11.891
19061W        W91486  28.570  30.648  11.098
19062W        W91487   2.739  39.531  13.310
19063W        W91488  44.429  31.991   5.128
19064W        W91489  37.336   4.790  11.431
19065W        W91490  16.298   3.851   2.706
19066W        W91491   0.307  32.397  14.903
19067W        W91492  16.611  32.560  12.075
19068W        W91493  23.120  14.806  11.104
19069W        W91494   9.262  29.453  13.414
19070W        W91495   0.293  43.504  11.044
19071W        W91496  43.916  38.918   4.347
19072W        W91497  11.237   6.197  11.471
19073W        W91498  10.856  30.941   0.243
19074W        W91499  36.095  37.082   3.274
19075W        W91500   6.399  14.248   0.923
19076W        W91501  28.039  30.089   4.746
19077W        W91502  25.000  31.922   0.303
19078W        W91503   7.710  43.944   4.251
19079W        W91504  10.264  17.677  14.484
19080W        W91505  33.120  17.654  13.329
19081W        W91506  31.097  41.852   0.866
19082W        W91507   4.430   8.310  12.384
19083W        W91508  27.687  41.009  13.988
19084W        W91509  34.064  25.703   3.722
19085W        W91510  24.000  11.335  14.005
19086W        W91511  33.400   6.336   0.920
19087W        W91512  32.036  38.554  14.969
19088W        W91513  37.983  40.948   0.276
19089W        W91514  44.283  25.972   1.863
19090W        W91515  23.136  34.462  12.029
19091W        W91516  31.077  43.955  13.988
19092W        W91517  28.953  25.079  13.482
19093W        W91518   6.728   5.776  11.121
19094W        W91519   6.187  29.536  12.518
19095W        W91520  17.076  37.510   0.329
19096W        W91521  24.697   4.770  13.799
19097W        W91522  35.416   5.264   1.359
19098W        W91523  36.898  34.001  13.884
19099W        W91524  44.362   8.832  12.501
19100W        W91525  11.728  17.189  11.094
19101W        W91526   2.922  28.577   2.777
19102W        W91527  44.413   2.755  12.525
19103W        W91528   3.931  29.503   1.718
19104W        W91529  35.858  25.664  12.479
19105W        W91530  16.082  20.642   4.631
19106W        W91531   1.429  34.610   0.930
19107W        W91532  35.453   2.458  11.009
19108W        W91533  26.700  15.093  10.986
19109W        W91534  33.042   7.368   2.821
19110W        W91535  29.990  21.583  11.417
19111W        W91536  20.057  12.682   3.212
19112W        W91537  17.155  11.835   0.461
19113W        W91538  11.710  40.845   3.301
19114W        W91539  38.467   7.379  14.322
19115W        W91540  39.333  32.524  12.411
19116W        W91541  35.021  20.556   1.793
19117W        W91542  38.414  12.714  10.523
19118W        W91543   4.257   8.210  14.829
19119W        W91544   7.246  25.565  14.302
19120W        W91545  27.089  34.421   4.126
19121W        W91546  23.108  42.876  13.807
19122W        W91547   6.267  30.516   2.352
19123W        W91548  43.273  44.276  11.549
19124W        W91549  24.203  31.585  11.487
19125W        W91550  38.887  12.788  13.850
19126W        W91551  43.944  39.925   0.876
19127W        W91552   5.689  27.010   4.230
19128W        W91553  31.622  24.665  12.387
19129W        W91554  25.155  13.205   0.350
19130W        W91555   1.777  10.345   1.895
19131W        W91556  29.442  36.975   0.803
19132W        W91557  32.488  23.544   4.829
19133W        W91558  39.438  25.703  14.024
19134W        W91559   3.328  15.722  11.425
19135W        W91560  28.072  17.641  11.873
19136W        W91561  11.707   8.285  13.795
19137W        W91562  25.075  29.027  11.003
19138W        W91563  12.801  10.209  10.577
19139W        W91564  16.574  12.632  11.882
19140W        W91565  39.357  24.500   0.282
19141W        W91566  12.831  27.103   1.864
19142W        W91567  30.602  25.678   4.203
19143W        W91568  16.805  32.141   0.757
19144W        W91569  17.663  26.598  10.035
19145W        W91570   9.227  25.500   4.815
19146W        W91571   9.372  26.083  10.514
19147W        W91572  33.496   1.361  12.941
19148W        W91573  15.594  26.500  14.929
19149W        W91574  28.101  32.042  14.854
19150W        W91575  21.241   4.739  10.587
19151W        W91576   1.355  12.697  14.016
19152W        W91577   6.402  40.457  11.894
19153W        W91578  20.545   9.707  10.951
19154W        W91579  19.605  29.662  11.374
19155W        W91580  28.070  28.586  13.052
19156W        W91581   3.869  16.758   4.743
19157W        W91582  13.614   3.726  10.534
19158W        W91583   8.245  38.981   2.198
19159W        W91584   5.799  31.429   4.669
19160W        W91585  27.576  21.101  11.459
19161W        W91586  29.559  21.737  13.323
19162W        W91587   7.759   3.397  14.830
19163W        W91588  34.548  34.116   2.859
19164W        W91589  15.087  37.483  11.523
19165W        W91590  36.964  38.470   0.735
19166W        W91591  22.124  19.642  14.014
19167W        W91592  39.524   1.470   1.270
19168W        W91593  18.294  34.378   2.212
19169W        W91594  33.445   2.280  13.897
19170W        W91595  39.008  21.519   3.780
19171W        W91596  25.563  13.657  12.451
19172W        W91597  38.976  22.216   0.934
19173W        W91598   1.462  31.919   3.743
19174W        W91599  39.036  19.589   4.673
19175W        W91600   6.835   6.323   3.196
19176W        W91601  32.886  32.934   1.708
19177W        W91602  38.833  25.038   1.860
19178W        W91603  13.256  31.616   1.232
19179W        W91604  40.458  24.012  14.289
19180W        W91605  42.885   4.399  13.354
19181W        W91606  12.634  31.151   1.329
19182W        W91607  44.433   9.334  12.569
19183W        W91608  36.361  32.106   2.384
19184W        W91609  33.886  29.021  13.021
19185W        W91610   3.459  39.875   3.353
19186W        W91611  10.341  11.355  13.434
19187W        W91612   9.314  31.427  12.368
19188W        W91613  21.627   6.788  14.864
19189W        W91614  29.629   8.218   1.213
19190W        W91615  24.215  12.161  14.515
19191W        W91616  43.309  17.203  10.625
19192W        W91617  25.071  30.498  13.501
19193W        W91618  44.419  22.695   4.820
19194W        W91619  42.875  30.075  14.485
19195W        W91620  17.599  44.281  11.100
19196W        W91621  23.524  35.870  12.350
19197W        W91622   3.303  22.150  10.594
19198W        W91623  33.943  15.131  10.449
19199W        W91624  15.692  24.109   4.673
19200W        W91625  11.226  24.009  14.812
19201W        W91626  42.914  40.369  14.768
19202W        W91627   1.434  17.713   1.333
19203W        W91628  30.494  42.778   3.833
19204W        W91629  29.155  35.930   2.872
19205W        W91630  34.371   8.700   3.631
19206W        W91631  13.182  34.928  14.379
19207W        W91632   2.471  42.953   2.852
19208W        W91633  25.126  37.375   4.790
19209W        W91634  40.400   1.453   3.776
19210W        W91635  11.680  21.602  10.542
19211W        W91636  33.025  11.856   2.409
19212W        W91637  34.403  21.741  13.532
19213W        W91638  40.054  41.310  12.527
19214W        W91639  26.002  43.898   0.345
19215W        W91640   8.225   3.748   0.780
19216W        W91641  39.047  30.022   2.391
19217W        W91642  42.352  15.600   1.813
19218W        W91643  39.536  40.395  14.458
19219W        W91644  42.830  22.555  14.352
19220W        W91645   3.742  22.172   0.882
19221W        W91646  40.882  23.732  14.916
19222W        W91647  11.368  26.966   1.799
19223W        W91648  27.123  33.598   9.936
19224W        W91649   9.773   1.913   2.202
19225W        W91650  10.727  19.169   4.249
19226W        W91651  41.878  21.601   1.338
19227W        W91652  19.586   5.820   2.853
19228W        W91653  43.481  20.692  14.879
19229W        W91654  13.699   1.895   4.218
19230W        W91655   7.274   9.280   3.649
19231W        W91656  25.660  30.961   3.689
19232W        W91657  32.519   2.288  14.842
19233W        W91658  34.070   7.409   0.345
19234W        W91659  44.494  32.605   1.896
19235W        W91660  15.310  12.741  14.399
19236W        W91661  15.637  19.573   3.685
19237W        W91662  31.565  28.464  11.093
19238W        W91663  13.838  17.736   2.356
19239W        W91664  33.463  37.508   0.861
19240W        W91665  32.944  10.373   4.667
19241W        W91666  39.919  29.125   3.359
19242W        W91667  38.925   0.927  11.125
19243W        W91668  31.537  24.024   0.767
19244W        W91669   7.777  15.215   3.196
19245W        W91670  24.614  41.798   4.704
19246W        W91671  21.165  10.211  13.937
19247W        W91672  12.118  32.440   4.294
19248W        W91673   6.198   8.772   0.480
19249W        W91674  29.067  37.905   3.236
19250W        W91675  41.961  34.888   3.792
19251W        W91676   7.815  32.962   0.291
19252W        W91677  33.474  12.226  11.536
19253W        W91678  23.096  24.075  12.022
19254W        W91679   5.869  40.044   0.967
19255W        W91680  31.642   8.356   2.229
19256W        W91681  21.044   4.794  11.541
19257W        W91682  14.782   2.797  13.952
19258W        W91683  32.100   3.916  13.960
19259W        W91684  16.741  28.033  11.121
19260W        W91685  29.468  11.714  10.511
19261W        W91686  28.944  30.511   2.902
19262W        W91687   6.266  15.783  12.960
19263W        W91688  18.274  39.482   3.155
19264W        W91689  38.562  20.261   1.327
19265W        W91690  26.204  44.429  13.523
19266W        W91691  14.677   1.355  11.886
19267W        W91692  21.081   6.766   2.824
19268W        W91693   6.181  41.000   4.620
19269W        W91694  18.566  14.226   0.248
19270W        W91695  17.301  34.612   0.807
19271W        W91696  23.035  14.773  11.477
19272W        W91697  19.595  42.354   2.756
19273W        W91698  14.632  22.541  10.537
19274W        W91699  44.821  26.699  11.049
19275W        W91700  44.455  19.674  12.918
19276W        W91701  18.574   3.283   0.316
19277W        W91702  30.420  20.083  11.400
19278W        W91703  34.372  33.068  11.512
19279W        W91704  12.359  31.560   0.335
19280W        W91705  12.253  44.505   1.426
19281W        W91706  41.985  28.934   3.223
19282W        W91707   5.736  23.992   4.811
19283W        W91708   4.238  19.623   3.812
19284W        W91709  24.563   1.763  14.781
19285W        W91710   0.394   7.784  10.888
19286W        W91711  13.826  44.278  12.051
19287W        W91712  13.614  19.761   4.352
19288W        W91713  18.590  32.985   4.722
19289W        W91714  14.666   6.298   0.346
19290W        W91715  21.200  12.629   3.328
19291W        W91716  33.548  16.764   0.401
19292W        W91717  14.204   3.438   2.784
19293W        W91718  22.544  38.460   0.405
19294W        W91719  34.504  38.409   4.724
19295W        W91720  41.868  24.524  14.510
19296W        W91721   6.793  17.695  14.323
19297W        W91722  35.434   6.284   3.779
19298W        W91723  22.711   5.932  10.506
19299W        W91724  21.523   9.357   3.796
19300W        W91725  33.891  19.611   0.885
19301W        W91726   5.351  31.067   1.295
19302W        W91727   3.782  22.117   0.417
19303W        W91728  34.912  40.880  10.566
19304W        W91729   7.816  18.751  12.505
19305W        W91730  22.689  17.783   4.228
19306W        W91731  16.657  25.555  11.421
19307W        W91732  37.904  42.951  12.953
19308W        W91733  20.711  33.459  11.491
19309W        W91734   0.473  40.957  14.437
19310W        W91735  26.975  36.006  12.960
19311W        W91736  38.406  29.116  12.831
19312W        W91737  37.462  41.923  13.894
19313W        W91738  18.255   6.426   4.703
19314W        W91739  12.223  10.728   2.761
19315W        W91740  39.378  44.396   1.728
19316W        W91741   0.418  23.546  12.458
19317W        W91742  35.373  38.834   3.248
19318W        W91743  39.821  22.137   4.655
19319W        W91744   4.260  24.533  13.014
19320W        W91745  17.226  37.890   2.323
19321W        W91746  38.958  33.112   1.840
19322W        W91747  34.539  11.624   0.417
19323W        W91748  37.420  30.617   4.277
19324W        W91749  13.770  24.667  13.972
19325W        W91750  32.523   4.847  12.024
19326W        W91751   2.877   1.275  13.819
19327W        W91752   7.677  33.984  11.383
19328W        W91753   4.862  23.085  14.828
19329W        W91754   0.901  22.999   3.823
19330W        W91755  28.654  40.861   4.195
19331W        W91756  35.579  28.002   2.751
19332W        W91757  15.708  22.080   3.672
19333W        W91758  17.721  34.893  13.477
19334W        W91759  32.092  41.372  13.480
19335W        W91760  11.250  23.698   3.814
19336W        W91761  11.843  34.106  10.574
19337W        W91762   2.817  10.248  11.478
19338W        W91763   3.263  14.739   2.795
19339W        W91764  31.555  10.844   1.926
19340W        W91765  27.630  22.515  12.465
19341W        W91766  14.593  41.038  12.479
19342W        W91767  41.533  18.120  13.835
19343W        W91768  37.548  17.689  13.394
19344W        W91769  18.549  40.448  11.099
19345W        W91770  38.483  40.947   1.233
19346W        W91771  30.431  12.207  14.343
19347W        W91772  29.498  38.035   1.425
19348W        W91773   7.883  29.977   4.323
19349W        W91774   2.382  33.504  12.528
19350W        W91775   8.284  22.724  11.054
19351W        W91776  22.170  34.059  12.903
19352W        W91777  27.688  10.273   2.799
19353W        W91778   1.244   1.280   3.300
19354W        W91779   7.838  44.345  13.881
19355W        W91780  24.009  15.624   4.183
19356W        W91781  32.108  20.112   0.772
19357W        W91782  31.108  34.867  14.780
19358W        W91783  34.459  27.134   4.701
19359W        W91784  34.514  43.821  12.880
19360W        W91785   5.917  31.120   4.745
19361W        W91786  22.192  16.276  14.989
19362W        W91787  30.017   1.267   4.234
19363W        W91788   1.413  14.234   1.706
19364W        W91789  14.281  29.573   4.318
19365W        W91790   5.806  30.584  12.055
19366W        W91791  29.026   7.360  14.306
19367W        W91792  34.455  29.636   2.879
19368W        W91793  34.603  16.657   1.791
19369W        W91794  28.981  40.998  12.510
19370W        W91795   3.903   3.835   0.463
19371W        W91796  10.867  36.366  11.993
19372W        W91797  12.852  43.945   3.259
19373W        W91798  21.679  42.294   0.874
19374W        W91799  21.069  18.238  10.084
19375W        W91800  17.081  10.176   0.839
19376W        W91801   6.228  13.791   4.315
19377W        W91802  37.348  22.664  12.940
19378W        W91803  37.046   8.806   2.203
19379W        W91804   5.378  39.454  12.975
19380W        W91805  19.580  20.554  10.599
19381W        W91806   6.899  16.627  10.573
19382W        W91807  27.574   9.713  11.913
19383W        W91808  18.059   2.424   4.206
19384W        W91809  26.956  19.233   3.784
19385W        W91810   4.255  41.343  13.871
19386W        W91811   3.747  21.670   1.440
19387W        W91812  30.073  18.242  12.950
19388W        W91813  19.643   1.370  13.899
19389W        W91814   5.341   9.688  11.061
19390W        W91815   8.719  42.848  11.888
19391W        W91816  16.142  44.323  11.941
19392W        W91817  33.553   1.453   4.126
19393W        W91818   9.763  22.253   3.838
19394W        W91819  12.298  29.040   0.247
19395W        W91820  26.957  23.080   0.446
19396W        W91821  27.194  20.104   4.711
19397W        W91822  36.392  32.921  12.936
19398W        W91823   5.321  44.780  12.367
19399W        W91824  26.192  22.667   3.826
19400W        W91825  36.367  11.802   3.268
19401W        W91826   2.460  31.601   3.351
19402W        W91827  40.004   6.346  14.428
19403W        W91828   5.821  32.394   1.807
19404W        W91829  13.599  13.729  10.586
19405W        W91830   5.307  12.166   4.310
19406W        W91831  14.833  27.651  12.971
19407W        W91832  17.246   6.366  12.913
19408W        W91833  14.799  40.893   4.290
19409W        W91834  12.242  27.195  14.889
19410W        W91835   4.854   8.873   2.334
19411W        W91836  35.054   0.755  13.971
19412W        W91837  26.602   8.380   0.265
19413W        W91838  10.351  31.021  11.862
19414W        W91839  15.735  33.051   0.885
19415W        W91840  22.616   7.201  13.475
19416W        W91841  36.441   0.308   1.336
19417W        W91842   7.397  23.006  13.951
19418W        W91843  26.957  29.960  12.430
19419W        W91844  23.617  41.462   2.409
19420W        W91845  42.790  17.670  13.033
19421W        W91846   7.797  26.189  14.301
19422W        W91847  23.062  19.749   0.405
19423W        W91848   2.803  37.376  11.598
19424W        W91849  36.447  16.114   3.702
19425W        W91850  37.477  13.801  13.451
19426W        W91851  29.631  35.539   4.196
19427W        W91852  38.350   6.867  14.345
19428W        W91853  18.645  33.074  10.453
19429W        W91854  27.644  42.476  13.826
19430W        W91855  17.168  39.827  10.565
19431W        W91856  43.992  36.910  12.900
19432W        W91857  39.052  23.147  13.460
19433W        W91858  39.877  26.680   0.869
19434W        W91859  10.722   6.244  12.012
19435W        W91860  25.993  35.947  10.566
19436W        W91861  18.286  42.935  14.873
19437W        W91862  42.479  39.335  14.342
19438W        W91863  42.498  44.480  13.511
19439W        W91864  31.421  29.091   2.262
19440W        W91865  17.606  19.601   2.825
19441W        W91866   7.171  13.657  10.568
19442W        W91867  41.005  33.114   3.266
19443W        W91868   3.953  25.593   4.795
19444W        W91869  18.583  39.512   1.843
19445W        W91870   5.400   5.427   3.777
19446W        W91871  42.828  30.627   3.638
19447W        W91872  33.920  11.756  12.412
19448W        W91873  36.949  16.308  12.517
19449W        W91874  12.265   8.701   0.777
19450W        W91875  28.096  25.599   3.664
19451W        W91876  13.335  33.545   9.992
19452W        W91877  34.495   7.787   5.216
19453W        W91878  20.080  38.868  10.603
19454W        W91879  17.696  30.992  12.460
19455W        W91880  41.312   4.362  13.956
19456W        W91881  43.299  44.903   2.373
19457W        W91882   4.737  20.214   2.803
19458W        W91883   3.932  44.913  12.869
19459W        W91884   6.196  17.293   5.202
19460W        W91885   8.387  25.969   1.917
19461W        W91886  15.254  27.516  13.845
19462W        W91887  24.180  15.588   0.290
19463W        W91888   0.301  16.263  11.071
19464W        W91889   4.262  17.216   3.146
19465W        W91890  36.898  18.288   2.874
19466W        W91891  31.946  29.019   1.918
19467W        W91892  17.242  37.941  10.557
19468W        W91893  42.481  34.091  14.825
19469W        W91894  18.741  37.055   3.338
19470W        W91895   0.794  21.728  10.518
19471W        W91896  29.174  26.608   3.813
19472W        W91897  37.431  18.566  11.431
19473W        W91898   6.689  20.152   4.750
19474W        W91899  25.128  42.449   3.722
19475W        W91900  20.205  33.954  11.001
19476W        W91901  11.245  25.660   4.185
19477W        W91902  20.661  20.715  10.442
19478W        W91903  15.665  11.795  13.915
19479W        W91904  42.024  43.451  11.450
19480W        W91905  43.505  40.523  11.051
19481W        W91906   0.818  15.746  12.951
19482W        W91907   1.818  34.572   3.161
19483W        W91908  34.973   5.395  11.069
19484W        W91909  15.092  31.442  12.946
19485W        W91910  10.872  32.408   1.763
19486W        W91911  44.762  18.234   2.269
19487W        W91912  41.322   9.779   1.264
19488W        W91913  43.863   8.822   4.330
19489W        W91914  34.006  35.442   2.276
19490W        W91915  32.052   4.928   5.190
19491W        W91916  14.169  18.698   0.750
19492W        W91917   6.410   1.444   4.624
19493W        W91918  10.376   1.918   9.962
19494W        W91919  21.631  36.412  13.427
19495W        W91920  18.151  12.122  12.398
19496W        W91921  28.658  17.775  11.937
19497W        W91922  44.980  28.143   2.750
19498W        W91923   4.755   7.181  14.819
19499W        W91924  22.639  16.756  13.952
19500W        W91925  21.176  34.393  12.499
19501W        W91926   2.885   9.208   4.302
19502W        W91927  39.920  40.491   2.724
19503W        W91928  20.145   6.420  14.889
19504W        W91929  11.297   8.706  11.543
19505W        W91930   8.845  41.812   3.302
19506W        W91931  32.137  17.129   4.660
19507W        W91932  34.089  34.552  11.959
19508W        W91933   3.451  18.575   2.418
19509W        W91934   7.773  27.468  13.843
19510W        W91935  16.184  35.919  10.574
19511W        W91936  34.437  44.348   1.844
19512W        W91937  18.216  41.342   1.366
19513W        W91938  14.776   7.761  12.070
19514W        W91939  11.645  42.453  11.506
19515W        W91940  18.612  13.319   1.331
19516W        W91941  40.823   8.732  13.798
19517W        W91942   1.363  12.700   3.159
19518W        W91943  13.131  14.600  11.570
19519W        W91944  18.284  15.768   2.230
19520W        W91945  10.336  14.327   3.861
19521W        W91946  29.498  38.847   5.215
19522W        W91947  38.913  10.770  10.054
19523W        W91948   6.856  21.178  14.759
19524W        W91949  44.941  10.191  12.398
19525W        W91950  29.546  41.809   4.144
19526W        W91951  19.278  44.006  14.930
19527W        W91952  11.277  34.995  10.621
19528W        W91953  25.972   7.188   4.706
19529W        W91954  44.354  11.684  12.043
19530W        W91955  30.653  13.136   2.258
19531W        W91956  11.371  40.498  14.409
19532W        W91957  19.632  43.346  13.379
19533W        W91958  26.025  40.919   2.744
19534W        W91959  30.118  27.482   2.245
19535W        W91960  43.994  32.921  12.836
19536W        W91961  41.882  40.045   1.287
19537W        W91962  28.151  17.095   3.866
19538W        W91963  24.169  21.603   2.769
19539W        W91964  13.166  20.109  12.392
19540W        W91965  24.020  29.436   2.831
19541W        W91966  14.317   6.777   3.724
19542W        W91967  42.017   7.309  14.456
19543W        W91968  18.189  42.387  14.937
19544W        W91969  31.597  25.512  11.382
19545W        W91970   5.764  29.540  14.455
19546W        W91971  35.363   0.441  10.989
19547W        W91972  38.067  36.415   3.258
19548W        W91973  24.168   1.819  13.975
19549W        W91974  43.907  27.497  11.880
19550W        W91975   1.368   3.731   1.735
19551W        W91976   9.183  16.568  14.959
19552W        W91977   5.878  39.997   4.239
19553W        W91978  25.488  12.723  10.984
19554W        W91979  24.009  11.828  13.496
19555W        W91980  29.102  24.048   9.956
19556W        W91981   5.889  10.871  12.962
19557W        W91982  30.133  16.755  12.374
19558W        W91983   2.804  18.564  11.603
19559W        W91984  42.302  23.723   4.732
19560W        W91985  41.902  22.089  11.576
19561W        W91986  34.068  21.717   1.387
19562W        W91987  38.545  21.524   2.875
19563W        W91988  37.994  29.643   3.309
19564W        W91989  19.663  24.040   2.285
19565W        W91990   6.240   0.855  11.008
19566W        W91991  29.482  42.464   4.838
19567W        W91992  32.489  22.146  10.911
19568W        W91993  37.364  32.532   3.719
19569W        W91994  22.039  11.301   1.224
19570W        W91995  28.468  26.669   0.863
19571W        W91996  24.042  22.706   2.368
19572W        W91997  41.811  17.630   0.301
19573W        W91998  29.068  25.028  14.498
19574W        W91999  39.885   4.331   3.374
19575W        W92000  26.038  43.485   0.248
19576W        W92001   6.365   2.895  11.968
19577W        W92002  41.980   1.396  13.363
19578W        W92003   6.215  34.944   5.145
19579W        W92004  20.096  20.653  13.515
19580W        W92005   7.776  28.172  11.903
19581W        W92006  19.154   6.690   3.178
19582W        W92007  31.016  44.480   0.954
19583W        W92008  15.809  21.709   4.224
19584W        W92009  36.957  44.861   2.847
19585W        W92010  15.787  35.853  14.907
19586W        W92011  38.042  26.590   1.230
19587W        W92012  23.138  20.067  10.973
19588W        W92013  25.537  16.731  13.497
19589W        W92014  16.213  42.345   2.875
19590W        W92015  35.967  18.696  10.911
19591W        W92016   9.792  33.052  13.524
19592W        W92017   0.752   8.811  10.033
19593W        W92018  36.939  27.445  13.401
19594W        W92019  10.195  36.542   1.293
19595W        W92020   1.776   0.345  13.469
19596W        W92021  15.248  18.678   1.891
19597W        W92022  19.640  41.395   2.768
19598W        W92023  34.114  12.276  10.415
19599W        W92024   7.833  23.045   3.263
19600W        W92025  34.554  20.051  11.391
19601W        W92026  31.932  14.262  11.075
19602W        W92027   6.863  19.594   3.840
19603W        W92028  31.103  34.414  14.509
19604W        W92029  12.780  20.130  12.558
19605W        W92030  28.992  18.288  11.562
19606W        W92031  34.548  17.109  12.469
19607W        W92032  21.076  19.089   0.403
19608W        W92033  30.546  43.820   3.263
19609W        W92034  26.972   8.317  11.999
19610W        W92035   3.238  13.201  14.859
19611W        W92036  28.448  12.168   3.632
19612W        W92037  33.474  42.987  14.976
19613W        W92038   7.313  30.056  14.823
19614W        W92039  26.132  14.817  14.921
19615W        W92040   2.254  40.948  12.031
19616W        W92041  13.161  28.513  11.914
19617W        W92042  17.758  11.628  13.460
19618W        W92043  39.451  42.371   2.352
19619W        W92044  12.216  36.526  13.940
19620W        W92045  12.741  11.695  11.497
19621W        W92046  23.608   9.206   4.675
19622W        W92047   3.350  41.895  11.911
19623W        W92048  15.287  11.705   1.825
19624W        W92049  28.139  35.534   1.374
19625W        W92050  44.477   9.783  14.410
19626W        W92051  29.472  24.604   4.125
19627W        W92052  25.688  16.106  11.470
19628W        W92053  10.316  21.697   3.267
19629W        W92054   1.870  33.010  13.802
19630W        W92055  11.763  17.247   2.741
19631W        W92056   8.192  14.733   2.202
19632W        W92057  11.745   3.355  11.437
19633W        W92058   7.355  42.337  13.337
19634W        W92059  31.129  14.747  14.474
19635W        W92060  21.236   8.217  11.917
19636W        W92061  18.114  32.535  13.310
19637W        W92062  27.451  33.597  11.581
19638W        W92063  12.341  32.042  14.310
19639W        W92064  27.141   6.297  12.866
19640W        W92065  20.189  26.549   2.761
19641W        W92066  25.019  13.794   2.730
19642W        W92067  16.138  20.651  11.594
19643W        W92068  13.601  24.022  14.384
19644W        W92069  35.896  31.548   4.827
19645W        W92070  40.447  38.377   3.848
19646W        W92071   6.880   4.372  12.967
19647W        W92072  37.532  42.350  11.445
19648W        W92073  38.829  15.746  13.918
19649W        W92074  44.452  12.192  11.571
19650W        W92075  44.297  44.332   2.840
19651W        W92076  40.032  17.670  10.994
19652W        W92077   8.803  27.980  12.830
19653W        W92078  32.085  23.134   4.266
19654W        W92079  22.539  15.723   0.770
19655W        W92080  29.546   0.811  10.575
19656W        W92081  25.482  33.106  12.489
19657W        W92082   0.955  37.462   2.845
19658W        W92083   8.859  40.880  11.604
19659W        W92084  43.438   6.304   2.334
19660W        W92085  33.012  39.034  10.579
19661W        W92086  23.023  15.634  12.435
19662W        W92087  43.886  37.496  11.938
19663W        W92088  29.504  38.421   1.843
19664W        W92089  29.517  15.820   0.900
19665W        W92090  10.353  37.851  14.805
19666W        W92091  40.829  23.550   0.463
19667W        W92092   2.875  27.150  12.912
19668W        W92093  30.415   4.401  10.621
19669W        W92094  30.474  19.615   1.715
19670W        W92095  16.803   9.864   0.323
19671W        W92096  32.510  23.118   0.923
19672W        W92097   6.739   3.356   2.345
19673W        W92098  16.133  16.657  10.937
19674W        W92099  41.373  41.870   1.452
19675W        W92100  14.245  38.941   1.229
19676W        W92101  23.648  11.853   0.331
19677W        W92102  36.054  25.128   0.759
19678W        W92103  14.179  10.381   5.239
19679W        W92104  16.250  36.446   2.325
19680W        W92105  40.888  36.906  14.887
19681W        W92106  39.522  27.127   2.307
19682W        W92107  23.583   8.322  11.572
19683W        W92108  31.099  19.248   2.372
19684W        W92109  44.757  20.635  11.375
19685W        W92110  22.062  15.641   2.834
19686W        W92111  22.652  26.634   1.816
19687W        W92112   1.893  35.574  11.573
19688W        W92113  10.216  31.468  10.905
19689W        W92114  12.360  12.703  13.031
19690W        W92115  10.688   9.683  12.508
19691W        W92116   6.381  44.924   0.432
19692W        W92117  43.403  15.298   1.702
19693W        W92118  32.557  41.934   3.366
19694W        W92119  41.794  19.185   1.858
19695W        W92120   7.730  12.680   1.903
19696W        W92121  32.403  33.517  12.510
19697W        W92122  17.123  15.710  10.603
19698W        W92123  33.423  28.516   3.198
19699W        W92124   5.822  15.202   0.291
19700W        W92125   8.750  19.610   3.222
19701W        W92126  44.433  18.708  14.430
19702W        W92127  22.736  25.635   4.250
19703W        W92128  32.524   3.414   0.404
19704W        W92129  42.802  35.867  14.291
19705W        W92130  10.144   5.874   1.341
19706W        W92131  34.931   0.892   4.773
19707W        W92132  30.625   4.915   0.284
19708W        W92133   8.719  18.654  10.454
19709W        W92134  29.149  23.034  14.439
19710W        W92135   6.376  31.640   0.747
19711W        W92136   0.927  20.607  12.906
19712W        W92137  30.121  41.905  10.058
19713W        W92138  35.854   2.882  12.878
19714W        W92139   8.403   5.432   0.770
19715W        W92140  37.447  32.928  13.860
19716W        W92141  12.315  44.377  14.771
19717W        W92142  22.742   6.746   1.864
19718W        W92143   4.872  28.965  12.036
19719W        W92144   8.389   7.811  11.931
19720W        W92145  32.548   8.347   1.786
19721W        W92146  18.571  44.853  13.918
19722W        W92147  43.290  23.497   3.382
19723W        W92148  36.955   5.758   1.759
19724W        W92149   9.237  34.576   0.761
19725W        W92150  37.353  22.569  11.050
19726W        W92151  38.454  33.966  13.431
19727W        W92152  39.504  23.062   4.331
19728W        W92153  34.045  38.953  12.522
19729W        W92154   2.942  35.508   4.266
19730W        W92155  37.518  14.706  13.023
19731W        W92156  43.785  37.507   0.469
19732W        W92157  36.412  42.510  13.331
19733W        W92158   2.803  12.683   2.718
19734W        W92159  20.268   5.406   3.231
19735W        W92160  27.159  36.058   4.604
19736W        W92161  15.256  40.944   4.139
19737W        W92162  25.157  24.622   2.289
19738W        W92163   8.740   8.887   0.731
19739W        W92164  18.234  15.281   3.693
19740W        W92165  23.490  29.994  11.476
19741W        W92166   4.301  44.364   2.367
19742W        W92167  17.214  15.159  13.902
19743W        W92168  34.373  31.048  12.054
19744W        W92169  10.683  41.434  11.609
19745W        W92170  17.559  13.838  10.489
19746W        W92171  27.177  34.595   2.289
19747W        W92172  33.901   1.483  13.051
19748W        W92173  32.120  23.643  11.015
19749W        W92174  20.544  26.203   2.745
19750W        W92175   2.763  40.018   4.296
19751W        W92176  12.617  37.033  14.025
19752W        W92177  36.861  22.576   4.733
19753W        W92178   8.401  35.893  11.121
19754W        W92179  16.255  42.943   2.796
19755W        W92180  23.096   2.870   1.873
19756W        W92181  41.875  12.748  10.114
19757W        W92182  22.710   0.906   1.321
19758W        W92183   1.741  16.166  13.956
19759W        W92184  18.584  42.023  11.862
19760W        W92185  34.115  13.795  11.613
19761W        W92186   8.286  42.877  14.930
19762W        W92187  19.143  15.799   2.855
19763W        W92188  31.988  31.646  11.382
19764W        W92189   9.831  21.115   1.913
19765W        W92190   4.340  40.890  11.490
19766W        W92191   9.247  18.116   1.269
19767W        W92192  36.047   2.472  12.427
19768W        W92193  27.614  44.504   2.767
19769W        W92194  18.141  31.930   1.749
19770W        W92195  29.060   0.779   4.746
19771W        W92196  41.797   3.251   0.310
19772W        W92197  13.839  39.472  11.509
19773W        W92198  32.583  20.250   1.746
19774W        W92199  43.281  10.275   0.279
19775W        W92200  11.203  12.330   1.366
19776W        W92201  32.558  17.564   1.295
19777W        W92202  31.928  37.879  14.385
19778W        W92203   4.764   6.726  12.356
19779W        W92204   0.480   6.330  12.933
19780W        W92205  22.725  31.474   4.824
19781W        W92206  20.688  11.235  13.348
19782W        W92207  28.485  42.307   2.401
19783W        W92208   1.879   1.332   2.348
19784W        W92209  36.501  44.277   3.836
19785W        W92210   8.743   4.885  12.415
19786W        W92211   1.921  40.417  11.052
19787W        W92212  39.944  23.239  13.797
19788W        W92213  32.888   8.280   1.758
19789W        W92214  29.601  34.099   2.768
19790W        W92215  44.967  39.453  13.533
19791W        W92216  30.153  10.300   3.805
19792W        W92217   9.725  24.040  12.419
19793W        W92218  17.726  23.206   4.327
19794W        W92219  23.994   4.274  10.916
19795W        W92220  27.659  27.477  11.389
19796W        W92221   2.811  29.024   3.752
19797W        W92222   0.970  32.931  12.879
19798W        W92223  43.888  24.205   4.193
19799W        W92224  31.130  35.054   3.353
19800W        W92225  44.303   1.847   2.688
19801W        W92226  37.513  26.655  10.960
19802W        W92227  41.508  16.702   3.198
19803W        W92228  40.035  21.248   9.664
19804W        W92229  18.706  29.027  13.966
19805W        W92230  34.479  12.697   2.887
19806W        W92231   6.704  29.624   3.689
19807W        W92232  40.982  35.465   0.253
19808W        W92233  40.033  37.479  10.908
19809W        W92234   7.413  41.410  13.039
19810W        W92235  13.780  34.474   0.362
19811W        W92236  43.458  14.101  12.487
19812W        W92237   3.733   1.977   4.758
19813W        W92238  18.295  13.632   0.863
19814W        W92239  10.143  13.157   3.702
19815W        W92240  20.040  28.161  12.826
19816W        W92241  41.310  24.583  11.081
19817W        W92242  34.110  23.565  11.879
19818W        W92243   2.374  44.895  12.396
19819W        W92244  35.391  25.174   3.733
19820W        W92245   2.859   0.851   2.195
19821W        W92246   1.764  14.731  12.860
19822W        W92247   4.231  15.735   2.384
19823W        W92248  29.645  36.574   3.809
19824W        W92249   7.223  14.752  12.994
19825W        W92250  12.843   5.757  11.487
19826W        W92251  27.179  44.371   3.147
19827W        W92252  36.098  27.678   2.808
19828W        W92253  26.699  12.313   4.791
19829W        W92254  14.264  36.901   4.773
19830W        W92255  22.216  23.669   3.799
19831W        W92256  43.920  14.179  13.964
19832W        W92257  29.439  35.962  10.137
19833W        W92258   1.768  33.924  12.065
19834W        W92259  12.785  35.415  14.484
19835W        W92260  29.946  40.826   0.452
19836W        W92261  10.758   8.745   4.819
19837W        W92262  34.112  21.063   3.871
19838W        W92263  26.009  22.124  13.837
19839W        W92264  44.349  41.513   2.670
19840W        W92265  31.052   9.654  11.565
19841W        W92266  23.223  39.843   0.855
19842W        W92267   8.268  35.049   1.780
19843W        W92268   5.702  40.937  11.511
19844W        W92269  19.184   0.969   0.304
19845W        W92270  41.926  28.058  14.360
19846W        W92271   4.275  16.740   4.137
19847W        W92272  19.172  41.896   4.298
19848W        W92273  14.248  18.222   2.309
19849W        W92274  21.170   9.213   2.682
19850W        W92275  35.871  34.497   3.686
19851W        W92276  39.371  29.478   1.767
19852W        W92277  27.084  39.505  13.864
19853W        W92278  42.924  43.400   0.414
19854W        W92279   3.422  34.108  11.549
19855W        W92280  24.506  40.039  11.104
19856W        W92281  20.124   7.791  12.341
19857W        W92282  41.023  37.406   2.770
19858W        W92283   3.410  10.368  13.474
19859W        W92284  28.681  12.144  11.871
19860W        W92285   0.787  24.187  14.388
19861W        W92286  18.640   4.699  12.470
19862W        W92287  15.769  33.940   0.295
19863W        W92288  38.466  22.629  12.477
19864W        W92289  37.360  10.691   4.798
19865W        W92290  23.522  43.999  14.962
19866W        W92291  25.536  40.801   4.784
19867W        W92292  10.349  37.574   5.197
19868W        W92293  35.887  41.889   1.869
19869W        W92294  24.046   7.258   5.184
19870W        W92295  43.881  23.163   0.324
19871W        W92296  24.148  33.988  11.039
19872W        W92297   0.379   7.693  12.545
19873W        W92298  33.424   6.185  10.447
19874W        W92299  32.443  44.790   4.793
19875W        W92300  41.392   7.312   3.176
19876W        W92301   3.806  23.034   4.215
19877W        W92302  19.770  26.004   0.822
19878W        W92303  19.076  34.884  12.926
19879W        W92304   3.416   4.875  14.304
19880W        W92305  16.621   8.673  10.924
19881W        W92306  44.816  31.939   1.867
19882W        W92307  30.546  17.176  10.950
19883W        W92308  44.756  28.108  11.985
19884W        W92309  22.630  15.780  13.913
19885W        W92310  21.650  23.096  14.781
19886W        W92311  37.042  40.472   3.354
19887W        W92312  35.447  13.183  12.409
19888W        W92313  18.132  17.565  12.853
19889W        W92314  36.896  21.095  11.023
19890W        W92315  22.530  40.902  12.006
19891W        W92316  14.773  39.423   2.183
19892W        W92317  39.534  20.589   4.762
19893W        W92318  42.777  10.753   4.601
19894W        W92319  23.134  23.130   3.180
19895W        W92320  33.626   8.816   4.302
19896W        W92321  17.756  21.212   1.738
19897W        W92322  28.182  39.507   2.260
19898W        W92323  44.915  36.400  13.476
19899W        W92324   3.810  39.460  11.907
19900W        W92325   8.767  31.476   1.881
19901W        W92326  25.207   7.348  11.542
19902W        W92327  34.519  20.257  12.478
19903W        W92328  38.533  17.792  13.050
19904W        W92329  35.520  41.482  14.785
19905W        W92330  40.954  12.710   4.333
19906W        W92331  28.494  28.125  10.047
19907W        W92332  18.789  12.797  11.955
19908W        W92333  18.758   2.812   3.662
19909W        W92334   4.842   4.761   3.238
19910W        W92335  25.704   7.805   4.673
19911W        W92336  18.171  22.154   3.207
19912W        W92337  23.235  42.780   4.328
19913W        W92338  37.557  40.894  14.425
19914W        W92339  25.146  33.098  10.985
19915W        W92340  29.532  23.034  13.859
19916W        W92341  23.666   4.833   2.752
19917W        W92342  36.540  39.904  10.934
19918W        W92343   8.299  33.963   0.807
19919W        W92344  20.746  14.219  10.443
19920W        W92345  36.960  38.570  12.540
19921W        W92346  22.576  25.599  12.062
19922W        W92347  27.945  33.523   2.200
19923W        W92348   7.400  35.088  13.338
19924W        W92349  10.255  43.874  12.924
19925W        W92350  30.475  30.112  11.552
19926W        W92351  44.340   5.403  11.392
19927W        W92352  42.421  22.587  11.492
19928W        W92353  11.737  44.895   2.808
19929W        W92354  20.271  21.260   0.751
19930W        W92355  29.169  22.627   2.257
19931W        W92356  17.090  43.942  10.992
19932W        W92357   3.823  26.968  13.396
19933W        W92358   9.277  10.278   1.900
19934W        W92359   5.367  40.008   4.169
19935W        W92360  29.133  27.600   1.711
19936W        W92361  35.385   6.374  11.413
19937W        W92362  39.060  42.461   2.389
19938W        W92363  38.528   0.357  13.372
19939W        W92364  19.733  13.179  12.080
19940W        W92365  14.133  28.443   2.890
19941W        W92366  39.882  28.443   2.667
19942W        W92367   5.797  40.822  10.491
19943W        W92368  41.832  14.111   5.085
19944W        W92369   8.664  33.393  13.992
19945W        W92370  15.323  39.394   3.384
19946W        W92371  27.664   2.333   2.348
19947W        W92372  26.176   5.257  14.931
19948W        W92373  19.200  15.302   2.347
19949W        W92374  38.934  35.404   2.275
19950W        W92375  40.378   6.886   4.181
19951W        W92376   0.827  15.314   3.319
19952W        W92377  19.142  25.708  14.345
19953W        W92378  25.585  26.104  13.367
19954W        W92379   0.853   8.725  13.307
19955W        W92380  26.030  18.229  10.529
19956W        W92381  14.139  27.551  13.388
19957W        W92382  27.569  29.527  13.966
19958W        W92383  33.462  34.044  12.476
19959W        W92384  35.875   3.866  12.519
19960W        W92385  20.756  17.661   2.253
19961W        W92386  42.490  40.882  11.018
19962W        W92387  29.952  40.948   4.789
19963W        W92388  25.126   8.386   4.186
19964W        W92389  20.084   8.285  14.409
19965W        W92390  39.371   8.697  14.300
19966W        W92391  13.208  17.150  14.433
19967W        W92392  13.329  23.171  12.922
19968W        W92393   5.365  12.616  11.520
19969W        W92394  24.102  43.011  13.951
19970W        W92395  26.514  40.868  14.828
19971W        W92396  16.663  15.178  14.507
19972W        W92397  18.790  21.175   5.139
19973W        W92398   3.391  27.554  13.989
19974W        W92399  32.100  31.002  13.819
19975W        W92400   9.159  41.367   1.763
19976W        W92401   9.826  25.706  10.937
19977W        W92402   6.212  44.963  14.764
19978W        W92403  21.169  10.688  13.946
19979W        W92404  17.234  44.477   2.720
19980W        W92405  12.748  25.480   2.278
19981W        W92406  34.475  35.092   2.709
19982W        W92407  29.966  32.543   1.415
19983W        W92408  38.563  15.595  14.330
19984W        W92409  41.406  15.288  11.538
19985W        W92410  30.156  12.314   2.674
19986W        W92411  37.980  18.191   4.623
19987W        W92412  34.011   5.906   3.330
19988W        W92413  21.664  18.061   4.706
19989W        W92414  28.510  13.254  10.502
19990W        W92415  41.926  15.610   5.194
19991W        W92416  40.998  33.550  12.415
19992W        W92417   8.664  22.167  12.863
19993W        W92418  33.544  20.079  11.012
19994W        W92419   7.899  26.070   1.919
19995W        W92420  13.162  30.621   2.681
19996W        W92421   0.762  25.018  13.495
19997W        W92422  28.029  43.936   2.737
19998W        W92423  25.984   9.703   1.792
19999W        W92424   2.757   6.392  11.008
20000W        W92425   9.216  17.201   2.885
20001W        W92426  21.190  19.742  14.869
20002W        W92427  39.510  35.899  11.931
20003W        W92428  41.869  22.149  14.839
20004W        W92429   5.197  30.516  14.783
20005W        W92430  26.503  29.599  10.609
20006W        W92431  37.979   3.438  13.883
20007W        W92432  25.126   9.722  11.903
20008W        W92433  40.880  18.592  11.494
20009W        W92434   6.892  11.861   3.323
20010W        W92435  37.538   2.726   4.683
20011W        W92436  19.213   2.731   1.228
20012W        W92437  30.414   9.389   0.841
20013W        W92438  41.857  32.002   0.449
20014W        W92439   9.723  25.590   0.377
20015W        W92440  28.584  16.120   4.771
20016W        W92441  27.988  14.160  13.420
20017W        W92442  41.010  41.805  14.996
20018W        W92443  37.493   8.789   3.225
20019W        W92444  23.647  18.645  11.890
20020W        W92445  38.551  19.650   4.275
20021W        W92446  37.390   0.921  12.478
20022W        W92447  39.888  28.528  12.966
20023W        W92448   6.898  24.494  11.546
20024W        W92449   6.786   8.684   0.249
20025W        W92450  22.552   7.372  13.040
20026W        W92451  42.996  13.620   2.669
20027W        W92452  12.313  17.296  14.822
20028W        W92453  31.517  40.843  14.995
20029W        W92454  35.040  18.747   3.269
20030W        W92455  44.481  13.746   2.318
20031W        W92456  12.807  40.430  13.467
20032W        W92457  16.722  12.119  13.308
20033W        W92458  27.969  39.552   0.434
20034W        W92459  42.307   5.767  13.920
20035W        W92460  22.587   4.351   0.349
20036W        W92461  10.263  22.681  11.530
20037W        W92462  42.961  21.664  12.963
20038W        W92463  35.447  31.444   1.762
20039W        W92464  17.274  41.951   3.183
20040W        W92465  35.969   8.745  11.874
20041W        W92466  20.151  21.246   1.244
20042W        W92467  15.222  29.061  14.433
20043W        W92468   3.257  33.057  12.859
20044W        W92469  33.062  39.468  12.475
20045W        W92470  30.044  27.525   3.787
20046W        W92471   3.328  31.935   5.293
20047W        W92472  28.608  40.406   4.164
20048W        W92473   5.405  17.138  11.084
20049W        W92474  34.402  44.502   2.861
20050W        W92475  40.005  44.933  10.412
20051W        W92476  15.268  37.579   3.808
20052W        W92477  23.569  35.454   0.462
20053W        W92478  16.695  43.415   2.704
20054W        W92479  23.226   9.823   3.217
20055W        W92480   2.296  20.201   0.424
20056W        W92481   1.250  27.446  10.631
20057W        W92482  10.755  19.202  10.937
20058W        W92483  18.060  42.815   3.667
20059W        W92484  44.775  32.135  14.828
20060W        W92485   2.349  20.718  10.496
20061W        W92486   4.434  26.620   3.843
20062W        W92487  44.905  39.897   2.751
20063W        W92488  31.505  34.920   3.300
20064W        W92489   2.917  10.678   2.673
20065W        W92490  20.264  10.658  14.397
20066W        W92491   7.412  14.311  11.061
20067W        W92492  44.903  32.459  13.980
20068W        W92493  33.893   7.732  12.359
20069W        W92494  13.110  43.892   0.936
20070W        W92495  18.187   8.809   0.953
20071W        W92496  15.145  41.480  12.477
20072W        W92497  22.735  37.978   3.217
20073W        W92498  28.468  11.852   1.833
20074W        W92499  38.939   4.407   3.675
20075W        W92500  34.442  39.961   0.913
20076W        W92501  15.088  22.622  11.901
20077W        W92502  25.202  41.470  10.455
20078W        W92503  32.109  39.900  13.976
20079W        W92504  20.068  39.915  10.963
20080W        W92505  32.971  18.190  12.977
20081W        W92506   2.792   6.697  13.525
20082W        W92507  39.950  28.498  11.064
20083W        W92508   7.389  26.483  10.487
20084W        W92509  41.845  44.505   2.729
20085W        W92510   1.849  33.453   3.174
20086W        W92511  12.351  23.645   3.869
20087W        W92512  14.692  43.503   4.132
20088W        W92513  31.615  11.319  10.530
20089W        W92514  17.221  30.907  13.047
20090W        W92515  10.825  18.242   0.727
20091W        W92516   5.858   8.241   4.684
20092W        W92517   3.826  29.001   1.865
20093W        W92518  23.196   0.743   3.827
20094W        W92519  19.284  33.061   4.772
20095W        W92520  16.099  33.938   0.940
20096W        W92521  10.870  27.049   2.378
20097W        W92522  20.539  23.511   4.624
20098W        W92523  17.715  14.652   1.363
20099W        W92524  44.874   9.690  14.813
20100W        W92525  43.395  38.057   3.684
20101W        W92526  41.382  27.194  11.604
20102W        W92527  20.668  25.105   3.654
20103W        W92528  14.616  14.226  13.441
20104W        W92529   0.915   4.447  13.393
20105W        W92530  13.267  13.782   3.851
20106W        W92531  16.305   1.919  11.389
20107W        W92532  11.675  20.097  10.911
20108W        W92533   8.802  17.271  14.891
20109W        W92534  21.518  32.088   3.754
20110W        W92535   0.460   8.365  11.091
20111W        W92536  37.999  16.598   0.882
20112W        W92537  14.279  10.801   0.424
20113W        W92538  15.740   3.361   2.282
20114W        W92539  32.525   5.914  12.019
20115W        W92540   9.652  35.030   3.796
20116W        W92541  21.204   5.890   1.439
20117W        W92542   1.434  42.478   3.182
20118W        W92543  33.555  21.191  13.402
20119W        W92544  38.930  44.837  10.424
20120W        W92545  42.961  23.197  13.464
20121W        W92546  41.043  41.989  11.572
20122W        W92547  43.422  26.163  13.532
20123W        W92548   9.368   9.389  14.293
20124W        W92549  27.474  10.714  14.843
20125W        W92550   8.202  21.209  13.368
20126W        W92551  15.785  12.842  13.042
20127W        W92552  37.943  23.580   3.799
20128W        W92553   5.346  13.239  11.932
20129W        W92554   8.221  32.616   4.129
20130W        W92555  37.015  34.558  12.859
20131W        W92556  15.673  34.023   2.274
20132W        W92557  43.352  18.095  12.364
20133W        W92558  31.435  40.803  14.458
20134W        W92559  39.352  22.700  12.496
20135W        W92560   0.831   4.855   4.598
20136W        W92561  12.127  20.180  13.471
20137W        W92562  12.822  20.594  14.982
20138W        W92563  33.118   2.948  14.513
20139W        W92564  17.144  15.598  12.488
20140W        W92565  40.942   2.831   3.745
20141W        W92566  30.572  42.339   3.211
20142W        W92567  14.816  43.338   0.364
20143W        W92568  18.717  40.959  10.621
20144W        W92569  43.287  32.625   3.761
20145W        W92570  24.605  42.952   0.877
20146W        W92571   3.779  41.361  11.981
20147W        W92572  28.071   1.841   3.653
20148W        W92573   3.793   4.722  14.835
20149W        W92574  22.527   7.355  14.030
20150W        W92575  34.025  12.255   3.633
20151W        W92576  39.971  42.992  11.931
20152W        W92577  21.219  36.425  13.382
20153W        W92578  10.649  20.106  11.977
20154W        W92579  27.981   9.777   4.114
20155W        W92580  11.214  13.735   4.340
20156W        W92581  44.980  20.605   1.306
20157W        W92582  39.328  19.562  12.485
20158W        W92583  38.018  28.027  10.554
20159W        W92584  27.142  29.983   9.572
20160W        W92585  42.018  31.035  13.341
20161W        W92586  10.741   0.465  11.561
20162W        W92587  34.955  41.357   0.285
20163W        W92588  36.845   9.701  14.989
20164W        W92589  41.900  30.117  13.959
20165W        W92590  23.116  36.503  13.462
20166W        W92591   5.351  40.967   2.868
20167W        W92592  18.229  22.526  11.068
20168W        W92593   1.811   0.797   0.736
20169W        W92594  35.451  21.554   1.801
20170W        W92595  13.690  43.921  14.921
20171W        W92596  42.365  33.487  14.299
20172W        W92597  14.202  41.840   5.296
20173W        W92598  12.631  14.177  11.492
20174W        W92599  17.733  43.764  14.422
20175W        W92600  22.604   0.459   1.242
20176W        W92601  28.007  31.469  12.040
20177W        W92602  31.942   5.283   0.259
20178W        W92603  31.088   5.738  14.888
20179W        W92604  23.702   9.748  11.008
20180W        W92605  29.120  13.238  13.969
20181W        W92606  34.060  18.716   1.215
20182W        W92607  44.406  40.422  13.355
20183W        W92608   9.289  44.904  12.344
20184W        W92609  15.216  25.479  11.961
20185W        W92610  38.885  22.589   3.649
20186W        W92611  12.349  28.633  14.996
20187W        W92612  12.148  16.736   4.774
20188W        W92613  39.549  37.086   1.913
20189W        W92614  10.339   5.766   0.301
20190W        W92615   8.901  16.779   1.886
20191W        W92616  11.665  33.483   3.716
20192W        W92617  15.279  23.186  11.413
20193W        W92618  43.430   6.878   0.281
20194W        W92619   1.322   5.776   3.831
20195W        W92620  17.225  34.001   2.780
20196W        W92621  34.525  32.637  13.447
20197W        W92622  36.973  40.515   1.704
20198W        W92623  15.591  14.714   3.288
20199W        W92624   8.248  22.091   2.703
20200W        W92625  18.056  28.462   2.245
20201W        W92626  41.881  41.367   2.757
20202W        W92627  30.909  11.796  14.790
20203W        W92628  27.145  15.717   2.205
20204W        W92629  34.016  41.856  13.829
20205W        W92630  36.010  32.131  12.405
20206W        W92631   3.417   8.881   0.749
20207W        W92632  10.248  41.389   4.633
20208W        W92633  20.258  28.493  10.487
20209W        W92634  30.457  34.488  14.899
20210W        W92635  21.577   9.710  14.978
20211W        W92636   9.839  43.839   4.642
20212W        W92637  27.665  34.380  14.285
20213W        W92638  10.721  39.823   4.650
20214W        W92639  37.353  32.995   1.789
20215W        W92640  14.323   8.818  14.440
20216W        W92641  16.724  40.993  13.545
20217W        W92642  26.083   8.887  10.989
20218W        W92643  13.265   5.841   0.379
20219W        W92644  14.710  35.964   1.927
20220W        W92645  25.514  38.922   4.269
20221W        W92646  42.505  24.558  12.539
20222W        W92647  16.795  35.033   1.828
20223W        W92648   6.382  19.241   1.302
20224W        W92649  37.078   8.302  14.446
20225W        W92650  29.101  37.367   1.380
20226W        W92651  42.958  21.115   0.459
20227W        W92652  29.996  32.415  11.904
20228W        W92653  37.440  42.451   1.450
20229W        W92654  35.496  15.271  10.929
20230W        W92655  21.526   1.409  14.781
20231W        W92656  12.753   2.966   5.193
20232W        W92657   0.269  38.392   1.914
20233W        W92658   6.258   2.468   3.759
20234W        W92659   4.768   2.340  13.849
20235W        W92660  19.584  31.538  13.025
20236W        W92661  12.200  15.269  14.335
20237W        W92662  11.330  40.976   3.656
20238W        W92663  12.238  34.520   4.222
20239W        W92664  28.671  37.992   1.348
20240W        W92665   1.427  25.543  13.938
20241W        W92666   6.296  21.220   3.676
20242W        W92667  12.617  33.592  10.464
20243W        W92668   2.245  43.878   3.269
20244W        W92669   7.784   1.935   3.227
20245W        W92670  36.510  44.781   3.356
20246W        W92671  32.945  24.549   3.179
20247W        W92672  27.038  39.975   1.243
20248W        W92673  14.796   1.331  10.045
20249W        W92674  13.236  14.715   3.750
20250W        W92675  26.546  39.468   1.448
20251W        W92676   8.686  21.557   0.402
20252W        W92677   9.842   2.771  12.380
20253W        W92678  29.015  23.703  14.790
20254W        W92679  15.776   8.398  11.481
20255W        W92680  26.605  39.537   2.866
20256W        W92681  25.623  24.122   1.829
20257W        W92682   2.820  20.073   4.226
20258W        W92683  13.763  22.541   9.674
20259W        W92684   6.305  30.640   1.760
20260W        W92685   4.938  28.494  13.928
20261W        W92686  31.918  20.241   0.249
20262W        W92687  12.209  35.537   3.254
20263W        W92688   3.834  18.658  14.771
20264W        W92689   9.336  43.834  12.922
20265W        W92690  18.650  30.951  12.529
20266W        W92691  11.308   4.732   0.801
20267W        W92692  13.695  44.943   1.239
20268W        W92693  17.756  20.252   1.365
20269W        W92694  11.681  37.083   4.657
20270W        W92695  42.801  24.646  14.994
20271W        W92696  26.987  36.914  10.437
20272W        W92697  23.570  40.817  12.480
20273W        W92698   6.294   9.803   1.704
20274W        W92699  32.093  18.767   3.257
20275W        W92700  29.461  29.964  13.030
20276W        W92701  32.061  43.276  14.918
20277W        W92702  39.811   2.776  11.094
20278W        W92703  23.633   4.891  10.499
20279W        W92704  40.023   6.793  12.440
20280W        W92705  23.195   6.266   2.378
20281W        W92706  17.801  33.393   0.311
20282W        W92707  34.963  17.063  12.572
20283W        W92708  33.478  44.326   0.291
20284W        W92709  28.667  12.646  14.323
20285W        W92710   7.801  38.439   4.247
20286W        W92711  23.149  21.135   2.265
20287W        W92712  23.667  26.642  13.548
20288W        W92713  13.320  23.034  10.947
20289W        W92714   2.946  23.516  14.344
20290W        W92715   1.857  19.704  12.066
20291W        W92716  19.164  14.774   0.944
20292W        W92717   0.894   4.216  12.346
20293W        W92718  30.099  36.571  14.374
20294W        W92719  41.849   6.408   4.778
20295W        W92720   6.327  44.474  11.453
20296W        W92721   6.747  39.461  12.030
20297W        W92722  31.636  40.964  12.866
20298W        W92723  27.950  17.694  13.309
20299W        W92724  30.511  10.671   4.748
20300W        W92725  41.377  16.205  14.943
20301W        W92726  35.075  13.115   4.276
20302W        W92727  41.948  18.084   1.271
20303W        W92728  29.653  39.064  12.013
20304W        W92729  14.684  34.917   2.384
20305W        W92730  12.706  36.858  11.388
20306W        W92731  26.098  30.509   4.808
20307W        W92732  25.635  18.615   1.739
20308W        W92733  30.077  35.519   4.227
20309W        W92734  43.001  44.938   4.815
20310W        W92735  39.517   8.675   1.348
20311W        W92736  38.468  22.587  13.045
20312W        W92737  38.459  41.984   3.809
20313W        W92738  31.896  15.718  11.431
20314W        W92739  32.549  37.429  12.042
20315W        W92740   3.384  33.115  12.433
20316W        W92741   5.862  21.748   4.794
20317W        W92742  29.140  38.058   2.878
20318W        W92743   3.252   1.913  13.820
20319W        W92744  33.381  16.572   0.903
20320W        W92745  27.506   1.261  14.824
20321W        W92746  19.637  20.685  11.058
20322W        W92747  21.641  19.753  12.446
20323W        W92748  23.006  15.240   4.144
20324W        W92749  32.628   5.846  14.309
20325W        W92750   8.334  36.882   0.953
20326W        W92751   9.347  34.476  14.981
20327W        W92752  10.216   4.868   5.190
20328W        W92753  27.001   3.946  12.031
20329W        W92754  34.944  26.633  12.923
20330W        W92755  24.190  42.437  12.043
20331W        W92756  26.963   3.863   0.450
20332W        W92757  19.233  34.951  11.576
20333W        W92758  42.007   9.358   1.744
20334W        W92759  36.096  21.565   2.829
20335W        W92760  42.485   8.744  10.556
20336W        W92761   7.271  14.120   0.854
20337W        W92762  43.450  37.363   1.377
20338W        W92763  38.002  11.698   4.633
20339W        W92764  14.247  33.563  13.890
20340W        W92765   4.724   1.305   0.449
20341W        W92766  20.191  19.249  14.951
20342W        W92767   3.336  24.039   4.732
20343W        W92768  36.050  34.949   4.155
20344W        W92769  14.725  18.689  11.048
20345W        W92770  17.211   8.292  12.002
20346W        W92771  22.044  40.996   4.175
20347W        W92772  16.750   6.426   3.252
20348W        W92773  25.598  41.483   3.730
20349W        W92774   5.340  13.616  11.497
20350W        W92775   9.234  33.475  14.403
20351W        W92776  30.053   4.445  10.939
20352W        W92777  19.204  40.922   3.242
20353W        W92778  39.003  21.021  12.513
20354W        W92779  28.446   5.765  14.774
20355W        W92780  30.037  21.026   3.214
20356W        W92781  44.338  14.613   2.254
20357W        W92782  14.260  10.768  10.992
20358W        W92783  17.234  15.170  12.502
20359W        W92784  12.767  19.078   3.780
20360W        W92785  11.805  16.573   2.239
20361W        W92786   9.786  44.345  13.055
20362W        W92787   2.944  41.806  12.876
20363W        W92788  33.086  22.627  13.513
20364W        W92789  28.034  26.987   3.253
20365W        W92790   3.401  23.585  13.834
20366W        W92791  29.135  18.743  10.956
20367W        W92792  14.321  35.399  12.477
20368W        W92793  29.979   5.770   0.764
20369W        W92794  19.238   3.415   1.257
20370W        W92795  14.115  15.768   1.846
20371W        W92796   9.276  41.842  13.383
20372W        W92797  37.830  29.031   0.471
20373W        W92798  42.935  32.409   3.359
20374W        W92799  17.709   2.358  11.085
20375W        W92800  39.875  16.292   3.703
20376W        W92801  16.597  19.580   1.354
20377W        W92802  23.019  31.600   1.698
20378W        W92803   6.848  44.999  13.366
20379W        W92804   7.264  21.196   1.264
20380W        W92805  26.647   7.291  12.001
20381W        W92806   6.753  35.000  11.566
20382W        W92807  33.940  11.217   3.153
20383W        W92808  26.962  36.972  12.552
20384W        W92809  28.082  33.061  11.034
20385W        W92810  32.559  32.433  13.340
20386W        W92811   4.876  42.989   3.783
20387W        W92812  19.201  32.082  12.910
20388W        W92813  19.591  31.556  12.472
20389W        W92814  42.411  18.607   4.292
20390W        W92815  37.509  40.979   1.250
20391W        W92816  23.593  11.162   3.250
20392W        W92817  21.674  13.839  14.472
20393W        W92818  22.108  31.133  12.374
20394W        W92819  12.179  38.961  13.534
20395W        W92820  43.378   5.239  13.500
20396W        W92821  14.621  36.855   2.793
20397W        W92822  18.764  29.589  14.903
20398W        W92823  16.214   2.793  14.989
20399W        W92824   3.339  18.137  12.547
20400W        W92825  15.739   0.462   1.417
20401W        W92826  26.548  30.098   5.691
20402W        W92827  43.900  20.053   4.809
20403W        W92828  43.415  25.212   4.648
20404W        W92829  40.346  40.528   0.295
20405W        W92830  33.000   5.218  12.840
20406W        W92831   3.229  37.070   0.732
20407W        W92832  26.135  43.859  11.415
20408W        W92833  41.982  16.617  13.858
20409W        W92834   5.439  26.092   4.717
20410W        W92835  38.422  18.707  11.022
20411W        W92836  29.060  38.909   4.238
20412W        W92837  33.982  15.662  14.892
20413W        W92838  13.711  13.815   4.294
20414W        W92839   0.918  12.826  12.024
20415W        W92840  18.128  10.632  14.960
20416W        W92841  21.222  29.467  11.574
20417W        W92842  22.507  18.648  14.833
20418W        W92843  16.140  16.255   1.250
20419W        W92844  30.986  40.961  14.364
20420W        W92845  41.518  36.847   1.800
20421W        W92846   9.842  28.630  13.804
20422W        W92847  27.586  13.175   0.270
20423W        W92848  18.066   3.847  10.961
20424W        W92849  26.498  32.610   5.768
20425W        W92850  32.060  31.622   1.345
20426W        W92851   5.729  30.937  11.066
20427W        W92852  10.270  41.311  12.380
20428W        W92853  23.196   9.251  14.451
20429W        W92854  25.175  28.451  11.433
20430W        W92855  39.830   4.338  12.554
20431W        W92856  24.154   3.336   3.211
20432W        W92857  14.171  25.194   3.279
20433W        W92858  36.504   7.369  13.933
20434W        W92859  34.407  37.514   4.124
20435W        W92860   9.149   6.787   1.371
20436W        W92861   2.834  39.447   1.227
20437W        W92862   2.382  33.426   5.166
20438W        W92863  23.726   7.376   4.227
20439W        W92864  22.040  43.817  12.575
20440W        W92865  22.607  18.158   3.217
20441W        W92866  44.992  19.096   3.239
20442W        W92867  14.755  23.532   1.324
20443W        W92868  35.981  29.612   3.291
20444W        W92869  35.013  20.600  14.426
20445W        W92870   4.242  23.157  14.296
20446W        W92871  20.183  19.055   4.810
20447W        W92872  22.584  30.594   1.449
20448W        W92873  43.822  34.056   9.442
20449W        W92874   4.248  24.120   1.839
20450W        W92875  34.462  35.447  12.380
20451W        W92876  18.748  18.270  12.978
20452W        W92877  25.086  40.435   2.670
20453W        W92878  36.483  10.773  11.377
20454W        W92879  39.942  10.658  13.805
20455W        W92880   5.296  43.018  10.477
20456W        W92881  43.893  31.115  11.527
20457W        W92882  25.702   8.196   3.310
20458W        W92883  27.116  14.750  12.898
20459W        W92884  13.158  39.813   2.316
20460W        W92885  30.089  38.014  11.870
20461W        W92886  27.959   2.294  10.496
20462W        W92887  13.683   2.318  14.785
20463W        W92888   9.164   8.670   2.399
20464W        W92889  23.105  41.998  10.532
20465W        W92890  31.961  26.111  13.062
20466W        W92891   0.424   0.475   1.366
20467W        W92892  20.142   4.925  12.845
20468W        W92893  30.096  26.464  14.768
20469W        W92894  28.665  29.100  12.008
20470W        W92895  35.975  39.915  11.005
20471W        W92896  33.962   5.918  11.548
20472W        W92897  44.386  16.747  12.502
20473W        W92898  42.357  33.596  10.619
20474W        W92899   9.644   2.876  11.483
20475W        W92900  26.970  31.530  11.576
20476W        W92901  43.981  21.232  11.472
20477W        W92902  44.787  26.632  14.501
20478W        W92903  27.179   2.961   1.327
20479W        W92904   2.241   1.885   2.833
20480W        W92905  25.468  35.038  13.436
20481W        W92906  11.261  25.475   4.813
20482W        W92907  44.947  31.041   4.321
20483W        W92908  38.822  20.174   3.734
20484W        W92909   2.366  44.324  13.032
20485W        W92910  37.991  35.032  13.405
20486W        W92911  16.613  39.954  13.418
20487W        W92912  28.080  39.967   4.176
20488W        W92913  22.612  17.793  14.966
20489W        W92914   3.277  39.482   2.714
20490W        W92915  30.094  32.588   1.781
20491W        W92916  38.548  43.784   3.784
20492W        W92917   5.734  34.898   3.311
20493W        W92918  44.369   8.697  11.593
20494W        W92919   4.702  43.316   0.468
20495W        W92920  36.964   1.250  13.942
20496W        W92921  26.044   8.803  14.910
20497W        W92922   0.799  21.118  14.950
20498W        W92923  43.342  31.957  14.978
20499W        W92924  30.055  44.289  10.555
20500W        W92925  16.588  35.433  10.007
20501W        W92926  34.899  17.122   9.958
20502W        W92927   9.723  37.908   0.860
20503W        W92928  14.815  12.803  10.927
20504W        W92929   5.201  33.016   2.287
20505W        W92930  18.144  20.545  13.510
20506W        W92931  26.615  14.650   2.372
20507W        W92932  37.057  36.856   3.704
20508W        W92933   8.240  35.034  11.043
20509W        W92934  16.722  16.658   2.793
20510W        W92935   2.870  12.243  12.579
20511W        W92936  29.170  24.115  13.795
20512W        W92937  12.268  16.177  10.595
20513W        W92938   8.166  14.632  11.863
20514W        W92939   4.260  40.482   2.795
20515W        W92940   8.802   6.423   4.251
20516W        W92941   8.722  27.588   0.837
20517W        W92942  20.685  41.897   0.861
20518W        W92943  41.011  24.042   3.727
20519W        W92944  15.163   4.269  13.956
20520W        W92945  20.547  23.566   1.214
20521W        W92946  33.514   2.276   3.203
20522W        W92947  40.040  23.092   1.773
20523W        W92948  33.900  22.538  12.916
20524W        W92949   8.853  22.025   4.315
20525W        W92950  41.372   1.247  14.775
20526W        W92951  16.732  14.689   3.719
20527W        W92952  31.505  24.139  10.475
20528W        W92953  13.233  25.682   3.651
20529W        W92954  23.564  13.327   0.947
20530W        W92955   1.932  38.504   2.363
20531W        W92956  43.370  35.477  14.862
20532W        W92957  16.572   0.346  14.758
20533W        W92958  42.526  26.607  11.063
20534W        W92959   6.711  36.533  10.940
20535W        W92960  13.816  27.077  13.057
20536W        W92961  20.635  15.143  14.006
20537W        W92962  25.977  28.463  14.443
20538W        W92963  21.246   9.716  12.528
20539W        W92964  41.794  18.573  11.471
20540W        W92965   9.852  33.562   0.323
20541W        W92966   9.686   9.764   1.809
20542W        W92967  33.128  15.328  10.502
20543W        W92968  14.244  31.546  10.486
20544W        W92969   7.332  14.146  13.053
20545W        W92970  18.625  18.109  11.019
20546W        W92971  25.214   2.722  11.038
20547W        W92972   3.370  36.926  10.446
20548W        W92973  12.654  11.305   4.823
20549W        W92974  22.244  24.667   1.275
20550W        W92975  37.366   7.729  11.405
20551W        W92976   1.362   2.757  10.926
20552W        W92977  18.217  15.242   0.325
20553W        W92978  40.468  27.481  11.889
20554W        W92979  27.971  37.482   3.386
20555W        W92980   9.839   3.901  11.053
20556W        W92981  39.549  37.550  10.978
20557W        W92982  40.347  10.373  13.504
20558W        W92983  38.899  29.935  10.996
20559W        W92984  12.663  28.159   4.127
20560W        W92985  12.621  35.950  10.965
20561W        W92986  39.052   6.752  13.946
20562W        W92987  35.508  26.560  10.565
20563W        W92988  21.518  19.548   2.888
20564W        W92989  19.113   2.390   1.827
20565W        W92990   9.696  13.721  13.457
20566W        W92991  38.013  28.542   0.446
20567W        W92992   8.895  27.087   4.138
20568W        W92993  39.406  37.486   4.326
20569W        W92994  27.636  21.176   5.257
20570W        W92995   8.192  35.516  14.420
20571W        W92996  19.610  24.052  14.389
20572W        W92997  14.664  16.582  13.447
20573W        W92998  14.212   1.358   5.578
20574W        W92999   5.428  21.560   2.258
20575W        W93000  10.670  30.597   4.753
20576W        W93001   8.874   2.956   1.276
20577W        W93002  21.638  43.959   0.310
20578W        W93003   5.818  10.809  11.126
20579W        W93004  36.974  40.377   2.798
20580W        W93005  26.703   1.731   1.427
20581W        W93006   9.273  42.307   4.748
20582W        W93007  17.748  24.150   3.772
20583W        W93008  16.663  35.046   3.653
20584W        W93009  29.024  41.372   5.726
20585W        W93010  24.688  30.145  10.972
20586W        W93011  40.305  29.524  11.919
20587W        W93012  35.027   2.440   0.856
20588W        W93013   5.435  12.697   3.739
20589W        W93014  15.115  24.201  10.924
20590W        W93015   3.309   7.394  12.522
20591W        W93016  16.708  13.342   4.681
20592W        W93017  39.487  21.221  11.895
20593W        W93018   8.310  11.306  10.915
20594W        W93019  24.564  43.992  11.428
20595W        W93020  43.948  35.100   3.241
20596W        W93021  25.182  35.960  11.494
20597W        W93022   6.189  34.488   1.383
20598W        W93023  15.785  12.748  12.058
20599W        W93024  31.596  43.836   0.862
20600W        W93025  34.985  29.438  10.600
20601W        W93026  25.483  26.672   0.816
20602W        W93027  31.602   2.908   2.836
20603W        W93028  31.634  25.208  14.389
20604W        W93029  38.044   7.381  10.602
20605W        W93030  32.407   2.256   2.845
20606W        W93031  26.078  28.680  10.569
20607W        W93032  11.275   5.303   3.703
20608W        W93033  39.821   0.976   3.379
20609W        W93034  14.805   3.713  14.354
20610W        W93035  33.891   5.199  11.028
20611W        W93036   7.256  25.169  10.579
20612W        W93037   6.900  25.166   2.186
20613W        W93038  24.179  20.093  11.905
20614W        W93039  37.928  26.485   1.912
20615W        W93040  32.563   5.758   0.797
20616W        W93041  28.466  40.921  13.542
20617W        W93042  32.937   2.966   4.173
20618W        W93043  23.110  37.005  10.412
20619W        W93044  38.431  14.687   2.774
20620W        W93045  21.206  10.867  10.518
20621W        W93046  41.327   0.352   0.352
20622W        W93047  42.819   1.811   3.668
20623W        W93048  25.990  18.702   2.418
20624W        W93049  29.609  22.548   1.386
20625W        W93050  23.513  10.219  12.953
20626W        W93051   4.272  16.192  14.780
20627W        W93052  37.543  36.348   1.388
20628W        W93053  32.554  40.479   3.681
20629W        W93054  15.727  30.545  14.868
20630W        W93055  36.068   6.703   9.563
20631W        W93056  38.467  25.492   0.396
20632W        W93057  21.601   1.444   0.267
20633W        W93058  13.610   8.377   4.165
20634W        W93059   8.816  35.474  11.907
20635W        W93060  34.374  15.580   3.792
20636W        W93061   1.807   1.463  11.405
20637W        W93062  44.395   6.875  10.454
20638W        W93063   1.430   5.237   4.597
20639W        W93064  27.941  15.787   3.661
20640W        W93065   4.725  19.152   1.931
20641W        W93066   5.739  13.258   0.425
20642W        W93067   9.772  23.529   2.903
20643W        W93068  36.946   3.383   1.778
20644W        W93069  21.207  19.082   1.306
20645W        W93070  32.590   3.834  14.006
20646W        W93071  41.908  28.949   2.847
20647W        W93072   8.818   6.279   1.253
20648W        W93073   9.777   4.319   1.893
20649W        W93074  25.091   3.408  11.500
20650W        W93075  13.754  42.902   3.635
20651W        W93076   9.796  18.623  13.942
20652W        W93077  39.321   3.357  11.089
20653W        W93078  33.966  22.043   1.420
20654W        W93079   8.190  40.921   0.409
20655W        W93080  26.566  15.150  11.936
20656W        W93081   1.848  37.476   1.876
20657W        W93082   9.227   2.346   3.225
20658W        W93083  17.235  41.427   3.156
20659W        W93084  34.898  40.036  10.604
20660W        W93085  17.205  13.286  13.377
20661W        W93086  29.499  18.168   0.860
20662W        W93087  21.136   9.651   5.240
20663W        W93088   4.259  44.763   0.436
20664W        W93089  43.445  17.707  12.058
20665W        W93090  36.961  30.917   2.356
20666W        W93091  23.716  19.199  11.377
20667W        W93092  28.140   8.396  13.821
20668W        W93093  11.777  28.499  12.436
20669W        W93094  17.114   0.867  12.562
20670W        W93095  11.293  36.475   4.327
20671W        W93096  26.004  35.887  13.345
20672W        W93097  35.954   6.284  12.481
20673W        W93098  27.613  11.691  11.046
20674W        W93099  38.904  30.065  10.004
20675W        W93100  23.676  33.439   1.881
20676W        W93101  37.887  34.415  11.449
20677W        W93102  44.003  31.962   2.208
20678W        W93103  12.810  10.801   0.951
20679W        W93104  37.076  30.139   0.442
20680W        W93105  42.296  16.269  11.396
20681W        W93106  18.781  23.194  13.431
20682W        W93107  23.003  19.147   3.705
20683W        W93108  42.804  12.210   1.301
20684W        W93109  20.243  27.086  10.454
20685W        W93110  35.596  28.566   3.765
20686W        W93111  22.617  27.655  10.020
20687W        W93112  44.883   7.178  12.384
20688W        W93113  40.352   3.848   3.653
20689W        W93114  34.108  38.980   1.727
20690W        W93115  16.783  15.321   1.435
20691W        W93116  21.516  22.671   3.227
20692W        W93117  32.887  22.143  13.053
20693W        W93118  22.213  13.318   2.825
20694W        W93119  42.011  11.735  12.344
20695W        W93120  30.121  13.649  12.363
20696W        W93121  14.615  34.060   0.902
20697W        W93122  37.843  11.287   1.286
20698W        W93123  14.338   9.284  12.463
20699W        W93124  13.634  27.972  11.929
20700W        W93125  16.637  33.917  13.525
20701W        W93126   1.460  42.997  14.031
20702W        W93127   3.228   0.765  10.933
20703W        W93128  43.507   7.792  14.460
20704W        W93129   1.801  24.131  11.528
20705W        W93130   1.405  38.921  11.424
20706W        W93131  44.295  32.543   2.837
20707W        W93132  32.024  43.933  13.811
20708W        W93133  17.229  14.291   1.808
20709W        W93134   6.883   1.274  11.466
20710W        W93135   2.331  26.204  12.047
20711W        W93136  42.791   8.337  13.354
20712W        W93137  22.214  29.600   2.226
20713W        W93138   1.260   9.389  14.358
20714W        W93139  21.727  28.458  11.906
20715W        W93140  12.670   5.786   0.395
20716W        W93141   8.697   0.905   3.384
20717W        W93142   9.774   0.379  12.840
20718W        W93143  24.597  24.217   0.356
20719W        W93144  41.468  34.509  12.985
20720W        W93145  43.885  27.599  12.376
20721W        W93146  37.023  12.262   1.781
20722W        W93147   3.844  34.434  14.980
20723W        W93148   8.781  42.429  14.825
20724W        W93149  23.717  14.624   1.266
20725W        W93150  34.962  27.990  13.319
20726W        W93151  25.065  32.480  14.341
20727W        W93152  37.955  36.025  13.515
20728W        W93153  35.004  10.729  10.587
20729W        W93154  23.076  25.506   1.278
20730W        W93155  42.316   4.223  12.543
20731W        W93156  23.526   0.859   1.257
20732W        W93157   8.163  25.583  13.539
20733W        W93158  25.643  12.193  12.450
20734W        W93159  23.556   1.905  10.575
20735W        W93160  43.478   2.950  13.313
20736W        W93161  36.883  15.624  13.862
20737W        W93162  22.133  10.695  10.060
20738W        W93163  13.804  32.090   2.383
20739W        W93164  15.746  27.157  10.936
20740W        W93165  25.490  27.450   1.801
20741W        W93166  44.281  39.957   4.762
20742W        W93167  26.117  24.699   4.819
20743W        W93168  14.206  11.806   0.458
20744W        W93169  11.779  40.307   4.171
20745W        W93170  25.150  34.875   2.864
20746W        W93171  24.140  33.575  12.964
20747W        W93172  28.551  10.322  11.374
20748W        W93173  32.114   4.779  11.386
20749W        W93174  21.045  23.999  11.125
20750W        W93175  26.054  25.082  13.482
20751W        W93176  35.586   4.735   3.266
20752W        W93177  24.111  24.175   5.116
20753W        W93178  34.549  37.451   4.674
20754W        W93179  19.558   9.678   1.384
20755W        W93180  44.285   4.290  12.568
20756W        W93181  16.207  29.539   0.369
20757W        W93182   7.397  15.636  12.006
20758W        W93183   1.795  29.018   1.793
20759W        W93184  26.091  22.019   2.387
20760W        W93185  15.317  28.985  13.466
20761W        W93186  38.854  36.410   4.618
20762W        W93187  34.890  17.731  11.432
20763W        W93188  42.975   9.663   1.372
20764W        W93189  21.255   6.758   2.295
20765W        W93190   0.760  40.029  14.940
20766W        W93191  43.003  20.221   0.263
20767W        W93192  10.727  29.446   0.967
20768W        W93193  21.596  33.442   1.934
20769W        W93194   7.242  15.594  13.860
20770W        W93195  28.069  21.203   3.801
20771W        W93196  22.557  18.282  14.909
20772W        W93197  30.535  37.530  10.460
20773W        W93198  38.852   8.390  11.469
20774W        W93199  27.661  13.328   2.270
20775W        W93200  25.561  24.105  11.440
20776W        W93201  34.571  18.181  12.403
20777W        W93202  25.996  10.180  14.798
20778W        W93203  15.767   9.242  11.008
20779W        W93204   8.808  33.116  12.530
20780W        W93205  20.207  11.750  13.931
20781W        W93206  31.468  29.137   4.816
20782W        W93207  32.402  11.678  14.981
20783W        W93208  18.083  15.647   1.357
20784W        W93209   2.368  41.503   3.811
20785W        W93210  19.556   1.947  13.914
20786W        W93211  19.218  39.347   0.307
20787W        W93212   4.298   6.258   3.268
20788W        W93213  17.072   9.243   3.862
20789W        W93214   8.169  25.149   0.782
20790W        W93215  29.166   4.215   4.120
20791W        W93216   1.299  19.079  11.921
20792W        W93217  13.298  32.083  13.986
20793W        W93218   8.799  25.128  14.935
20794W        W93219   4.748   4.932   4.653
20795W        W93220  42.525  35.407   2.743
20796W        W93221  37.552   8.673   5.272
20797W        W93222   7.666  11.788  13.540
20798W        W93223  18.709  36.588  13.436
20799W        W93224  17.263  28.070   1.811
20800W        W93225  29.430  30.974   4.326
20801W        W93226   7.307   3.292   3.360
20802W        W93227   7.255  29.452  10.561
20803W        W93228   1.482   0.830   1.748
20804W        W93229  43.767  44.286   1.247
20805W        W93230   5.402  34.117  10.447
20806W        W93231  18.758  43.964   3.689
20807W        W93232  23.561  14.676   4.323
20808W        W93233   2.909  16.121   0.406
20809W        W93234   8.848   0.884   5.089
20810W        W93235  21.517  27.479   3.321
20811W        W93236  43.932  28.175  13.414
20812W        W93237   4.221  22.995   4.616
20813W        W93238  20.121  28.067  13.533
20814W        W93239   1.377  18.582  14.276
20815W        W93240   7.787  34.876  14.372
20816W        W93241  39.914   0.940  12.472
20817W        W93242  37.041  33.503  13.869
20818W        W93243  36.372  36.928  14.296
20819W        W93244  24.987  11.174  12.060
20820W        W93245  31.429  21.147   0.876
20821W        W93246   2.953  42.426  12.872
20822W        W93247   9.213   1.860   4.288
20823W        W93248  34.026   5.395  12.415
20824W        W93249  17.247  13.682  10.115
20825W        W93250  35.892  22.056  11.403
20826W        W93251  32.902  41.876   4.212
20827W        W93252  36.554  28.133   2.396
20828W        W93253  30.495  26.609  13.802
20829W        W93254  29.061  13.280  14.804
20830W        W93255  26.621  28.047  12.924
20831W        W93256  10.351   7.791   4.198
20832W        W93257  34.508  39.528  12.464
20833W        W93258  30.435  30.011   1.242
20834W        W93259  23.695  18.190   1.321
20835W        W93260  33.547  22.673  11.587
20836W        W93261  14.770  32.505   1.808
20837W        W93262  36.523  18.626   3.301
20838W        W93263   9.688  25.615  14.816
20839W        W93264  43.436  24.129   1.807
20840W        W93265  42.805  34.938   2.669
20841W        W93266  24.588  39.416  12.875
20842W        W93267  42.486   8.852   2.735
20843W        W93268  37.004  31.997  12.360
20844W        W93269  21.199  21.084  12.358
20845W        W93270  20.579   3.397  13.948
20846W        W93271  44.444  16.597   3.764
20847W        W93272  11.813  14.776   3.811
20848W        W93273   6.203  13.335  11.938
20849W        W93274  26.572  24.047   2.817
20850W        W93275  37.905   8.865   3.811
20851W        W93276  42.296  39.345   0.355
20852W        W93277  38.974  13.642  12.437
20853W        W93278  26.559  33.127   2.882
20854W        W93279  19.107   8.212  13.354
20855W        W93280   9.340  42.423   2.681
20856W        W93281   3.743   0.977   4.225
20857W        W93282   9.772  40.803  14.455
20858W        W93283  30.561  18.066  12.074
20859W        W93284  23.542  30.566  14.388
20860W        W93285  33.024  13.704  14.442
20861W        W93286  38.030   5.817  14.887
20862W        W93287   9.790  43.448  14.759
20863W        W93288   2.856   4.256  13.486
20864W        W93289  32.031  21.662   4.318
20865W        W93290  18.545  23.619  10.405
20866W        W93291   5.845  27.671   1.269
20867W        W93292  25.602  44.496  10.426
20868W        W93293  18.605  29.569  10.947
20869W        W93294  23.112  38.435   4.186
20870W        W93295  37.918   6.872   3.363
20871W        W93296  18.058   0.324  10.973
20872W        W93297  28.678   7.183   4.635
20873W        W93298  18.278   4.775  14.370
20874W        W93299  44.765  16.147   4.334
20875W        W93300  35.049   7.736   0.820
20876W        W93301  22.163  38.980   2.776
20877W        W93302  31.042  32.061   1.696
20878W        W93303  41.893  31.407  11.044
20879W        W93304  12.850  12.769   1.436
20880W        W93305   3.798   7.737   4.319
20881W        W93306   6.846  38.502   4.818
20882W        W93307   3.788  43.858  13.907
20883W        W93308  40.853  16.792  13.798
20884W        W93309   2.828  29.936  11.019
20885W        W93310   0.964   9.344   4.608
20886W        W93311  26.037  18.755   0.321
20887W        W93312  15.753  44.421   0.836
20888W        W93313  18.168   2.937  13.511
20889W        W93314   0.376  31.539   3.848
20890W        W93315  16.619  31.490  14.825
20891W        W93316  40.350  23.235  11.447
20892W        W93317   6.770   8.710  13.343
20893W        W93318  33.413  10.368   5.259
20894W        W93319   5.718  44.883  14.814
20895W        W93320  35.599  24.075  13.059
20896W        W93321  25.605  30.491  10.621
20897W        W93322  20.687  31.026  14.014
20898W        W93323  18.141  21.173   0.937
20899W        W93324  27.688  20.716  11.924
20900W        W93325  31.467  27.557  11.474
20901W        W93326  40.370  22.008   1.746
20902W        W93327  36.478   7.808   4.820
20903W        W93328   8.295  13.622   4.237
20904W        W93329  13.843  18.739  14.513
20905W        W93330   3.396   8.300  13.998
20906W        W93331   1.796  44.487  12.035
20907W        W93332  15.210  10.841   0.846
20908W        W93333  35.036  39.477   4.777
20909W        W93334  11.856   8.365   0.903
20910W        W93335   3.298  41.295  11.373
20911W        W93336  44.801  26.072   1.311
20912W        W93337   6.702  26.106  14.387
20913W        W93338  20.749  35.587  11.887
20914W        W93339  37.839  28.166   1.417
20915W        W93340  29.579  13.286  12.837
20916W        W93341  22.664   0.793   5.084
20917W        W93342  25.011  44.368   0.798
20918W        W93343   7.870  42.380   4.301
20919W        W93344  42.972  12.819   4.692
20920W        W93345  36.020  25.580   0.245
20921W        W93346  21.590  28.436  12.827
20922W        W93347  34.466  10.846  12.352
20923W        W93348   6.790  10.167  10.906
20924W        W93349  36.933  41.310  14.913
20925W        W93350   9.232  37.935  14.865
20926W        W93351  24.197  16.210   0.392
20927W        W93352   0.275   8.734  13.322
20928W        W93353  22.611  21.552  14.838
20929W        W93354  16.096  39.849   1.221
20930W        W93355  24.979  44.001  10.617
20931W        W93356  13.209  27.546   4.635
20932W        W93357  24.543   7.211  14.949
20933W        W93358  28.006  42.901   0.727
20934W        W93359  11.214  17.132  12.542
20935W        W93360  27.500  25.032   4.345
20936W        W93361   6.182  16.219   4.705
20937W        W93362   7.760  21.719  11.008
20938W        W93363   0.381  39.454   3.744
20939W        W93364   0.438   6.736   0.371
20940W        W93365  44.978  17.561   4.138
20941W        W93366  41.972  36.387   0.924
20942W        W93367  23.057  33.118   0.398
20943W        W93368  21.754  19.118   4.806
20944W        W93369   6.325  29.464  13.488
20945W        W93370  31.415   4.318   4.603
20946W        W93371  42.378   9.335   3.343
20947W        W93372   2.843  24.122   1.784
20948W        W93373   7.384   9.677   3.844
20949W        W93374   4.815   2.837  12.984
20950W        W93375   7.201  26.561  14.972
20951W        W93376   8.287  22.133   2.319
20952W        W93377  12.165  32.101   4.806
20953W        W93378  36.404  39.542  14.847
20954W        W93379  29.981  26.549   1.362
20955W        W93380  38.467   8.868  12.347
20956W        W93381  15.763  42.940   2.789
20957W        W93382  26.555  37.032  14.389
20958W        W93383  18.092  10.202  14.988
20959W        W93384  29.574  39.393  12.429
20960W        W93385  12.827  13.212   2.368
20961W        W93386  37.842  29.428   2.417
20962W        W93387   0.833  11.172  12.495
20963W        W93388  43.766  29.492   4.316
20964W        W93389  44.785  14.731  13.318
20965W        W93390  36.523  15.237  13.818
20966W        W93391  31.930  30.063   0.881
20967W        W93392  43.975  26.479   1.741
20968W        W93393  22.064   3.858   1.428
20969W        W93394   6.724  14.667   0.768
20970W        W93395  23.124  43.277  13.501
20971W        W93396   4.266  42.367   1.404
20972W        W93397  42.996  12.214  11.400
20973W        W93398   8.832  31.963   1.696
20974W        W93399  16.759   0.390  12.378
20975W        W93400  18.613  17.686   1.724
20976W        W93401  35.923  13.335   2.882
20977W        W93402  39.534  27.150  10.619
20978W        W93403  21.563   1.738  14.819
20979W        W93404  13.312  26.959   3.333
20980W        W93405   6.710   2.241  13.898
20981W        W93406  36.917   6.852   5.806
20982W        W93407  13.741  19.650   1.696
20983W        W93408  34.097  42.525   3.245
20984W        W93409  20.614  23.223   4.150
20985W        W93410  31.019  17.064  11.070
20986W        W93411  40.827  33.948   4.191
20987W        W93412   8.386  22.038  11.027
20988W        W93413  39.888  24.027   1.446
20989W        W93414  17.297  39.856   0.358
20990W        W93415  18.221  28.607   3.715
20991W        W93416  14.271  30.651   3.826
20992W        W93417  30.934   9.336  12.070
20993W        W93418  29.152  35.960  11.428
20994W        W93419   8.354  16.720  13.907
20995W        W93420  26.052   0.868  11.024
20996W        W93421  25.050  18.180  11.585
20997W        W93422  36.535  32.964  11.110
20998W        W93423  22.025   3.843  10.644
20999W        W93424  14.215  23.035  11.483
21000W        W93425  21.558  21.745   3.189
21001W        W93426  13.177  17.300  12.535
21002W        W93427  10.656  44.277   0.378
21003W        W93428   9.191   8.838   1.906
21004W        W93429   7.350  25.038  11.066
21005W        W93430  32.003  12.691  12.504
21006W        W93431  19.678  14.772   2.418
21007W        W93432  16.211   5.235   2.831
21008W        W93433   1.259  31.944  11.920
21009W        W93434   5.263  37.974  12.457
21010W        W93435  14.282  22.668  14.390
21011W        W93436  22.135  15.706   0.811
21012W        W93437  33.515  12.681  11.127
21013W        W93438  27.678  36.547  10.445
21014W        W93439  33.383  38.074  10.428
21015W        W93440  21.745  28.493   4.695
21016W        W93441  36.576  37.463  13.030
21017W        W93442   1.330   6.315  14.485
21018W        W93443  32.094  18.145   0.416
21019W        W93444   9.198  25.970   2.199
21020W        W93445  31.566  44.931   3.869
21021W        W93446  10.799  29.529   4.327
21022W        W93447   0.912  44.808   1.926
21023W        W93448  32.127  13.745  11.975
21024W        W93449  24.163  37.443  13.016
21025W        W93450  26.566  19.233  10.428
21026W        W93451  18.070  38.501  12.914
21027W        W93452   8.234  42.426   3.630
21028W        W93453  37.024  32.428  13.490
21029W        W93454  35.897   4.400   3.781
21030W        W93455  33.385   8.345  10.625
21031W        W93456  41.529  30.439   2.349
21032W        W93457  33.905  26.545   4.199
21033W        W93458  10.684   3.734   2.694
21034W        W93459  16.678  33.459   3.716
21035W        W93460   1.810   4.311  12.522
21036W        W93461  39.856   2.845  11.375
21037W        W93462   9.285   3.259  10.916
21038W        W93463   0.856  12.207  12.082
21039W        W93464  27.455  32.459  13.353
21040W        W93465  40.824  12.305  10.904
21041W        W93466  38.820  29.490   2.751
21042W        W93467   8.225  26.637   2.362
21043W        W93468  25.654  33.907  10.594
21044W        W93469   3.731  29.449   3.725
21045W        W93470  37.512  33.422  12.481
21046W        W93471  27.609  31.602  13.003
21047W        W93472  36.365  16.268   3.199
21048W        W93473  33.482  38.865  13.366
21049W        W93474   2.377  12.701  13.882
21050W        W93475   0.312  30.599   2.250
21051W        W93476  36.489  39.388  10.552
21052W        W93477  10.141  37.530  13.447
21053W        W93478  41.457  12.723  10.901
21054W        W93479   5.691  11.348   0.911
21055W        W93480  24.120  25.522  14.012
21056W        W93481  24.511  40.849   2.728
21057W        W93482   4.871  41.337   3.281
21058W        W93483  39.408  32.525   3.204
21059W        W93484   0.768   5.392  14.002
21060W        W93485  14.151  44.343   4.123
21061W        W93486   1.265  28.046  12.488
21062W        W93487  30.583   7.290   0.946
21063W        W93488  19.557   0.926   4.738
21064W        W93489  28.963  40.833   3.652
21065W        W93490  25.204   0.950   3.372
21066W        W93491  21.550   8.285   2.859
21067W        W93492   5.893  26.182   4.630
21068W        W93493  25.969  34.931   4.227
21069W        W93494  17.602  36.564   2.211
21070W        W93495  16.652  26.959   1.743
21071W        W93496   1.434  23.691  11.581
21072W        W93497  11.864  22.149   4.242
21073W        W93498  35.488  18.195   1.389
21074W        W93499  43.776  28.473  14.307
21075W        W93500  42.373  40.986  12.835
21076W        W93501  32.616  15.167   2.240
21077W        W93502  28.492  23.984  14.791
21078W        W93503   7.188  40.474  13.967
21079W        W93504   6.829   1.352  11.973
21080W        W93505  33.479  22.065  13.904
21081W        W93506  20.625  20.638  13.495
21082W        W93507  18.598  39.330   3.254
21083W        W93508  21.527  19.128   1.868
21084W        W93509   6.715  23.505   2.243
21085W        W93510   1.311  39.943  13.925
21086W        W93511   1.322  17.106   1.420
21087W        W93512  37.337  32.473   4.122
21088W        W93513   9.854  10.722  12.028
21089W        W93514  27.540  18.728   4.792
21090W        W93515   8.671  37.575   1.248
21091W        W93516  19.200  26.137   2.249
21092W        W93517  30.504  11.216  10.453
21093W        W93518  11.843  13.264  14.915
21094W        W93519   4.932  26.958  12.038
21095W        W93520  37.352  22.066   3.263
21096W        W93521  32.966  33.567  11.559
21097W        W93522  24.578   9.816   2.362
21098W        W93523  40.971   5.394  11.574
21099W        W93524  42.420  31.120  12.410
21100W        W93525  39.956  13.343   4.780
21101W        W93526  16.627  37.455   4.685
21102W        W93527   4.920   3.928  13.822
21103W        W93528  39.463  39.042  13.388
21104W        W93529  37.547  15.816  14.426
21105W        W93530   2.457  44.763  12.055
21106W        W93531  42.831   4.328   9.944
21107W        W93532   2.927   2.453   2.758
21108W        W93533  26.999  35.513   4.334
21109W        W93534   9.298  21.023   4.113
21110W        W93535  37.975  23.093   3.703
21111W        W93536  27.048  20.637  13.325
21112W        W93537   6.685  13.194   4.623
21113W        W93538  18.253  36.363   0.332
21114W        W93539  44.849   5.278  12.536
21115W        W93540  23.187  13.720  11.945
21116W        W93541  14.828   5.702  13.968
21117W        W93542  16.087  24.534   0.955
21118W        W93543  10.791  21.575  12.046
21119W        W93544  16.609  19.671   2.734
21120W        W93545  31.522  30.600  13.832
21121W        W93546  15.801  22.069   4.706
21122W        W93547   4.794  41.523   4.710
21123W        W93548  13.649  25.004   2.840
21124W        W93549  33.066  26.660   2.331
21125W        W93550  10.302  36.508  11.873
21126W        W93551   7.175  13.344   4.160
21127W        W93552  20.739  14.184  13.467
21128W        W93553  30.911   6.921   3.735
21129W        W93554   0.413   5.855   4.618
21130W        W93555   0.827  23.630  10.050
21131W        W93556  24.091  18.122   3.680
21132W        W93557  31.974  32.527  10.579
21133W        W93558  24.546  11.184   1.706
21134W        W93559  38.048  19.178   3.209
21135W        W93560  33.625  26.610  12.419
21136W        W93561  24.663  29.160   0.837
21137W        W93562  31.940   8.688   3.715
21138W        W93563  14.313  39.322   4.614
21139W        W93564   2.929  28.991   0.356
21140W        W93565   2.408  40.887  12.934
21141W        W93566   7.758  31.487  12.558
21142W        W93567  42.409   9.212  11.466
21143W        W93568  30.999  33.119   2.313
21144W        W93569  17.728   6.802   2.687
21145W        W93570  12.135  15.618  12.579
21146W        W93571  26.674   3.415  11.902
21147W        W93572  28.524  39.840  11.948
21148W        W93573  42.394  43.807   4.655
21149W        W93574  10.794  22.729  10.525
21150W        W93575  43.989  29.584  13.349
21151W        W93576  22.078  36.955   4.809
21152W        W93577  20.532   7.384  14.424
21153W        W93578   6.210   8.700  14.293
21154W        W93579   8.895  21.180   0.431
21155W        W93580  26.125  25.099   4.779
21156W        W93581  29.505  24.624  10.142
21157W        W93582  22.620  34.452  13.397
21158W        W93583   0.759  38.389   2.332
21159W        W93584  27.160   1.381  13.321
21160W        W93585  17.128  20.041  13.899
21161W        W93586  31.471  17.776   2.380
21162W        W93587  16.134  34.927  10.498
21163W        W93588  44.789  19.667   1.740
21164W        W93589  23.033  24.122   1.779
21165W        W93590   6.887   4.860   1.703
21166W        W93591  44.988  39.052  10.911
21167W        W93592  14.770  43.294   4.788
21168W        W93593  36.041   8.662   1.451
21169W        W93594  24.023   4.749  13.856
21170W        W93595  41.399  12.268   4.164
21171W        W93596  31.424  18.623  13.889
21172W        W93597   0.970  41.945  12.913
21173W        W93598  21.708   7.212   4.742
21174W        W93599  17.093  30.942   4.300
21175W        W93600  20.725  25.143   3.206
21176W        W93601  38.571  28.553  11.537
21177W        W93602   8.742  36.472  14.285
21178W        W93603  38.990  16.674  13.468
21179W        W93604  31.432  31.986  14.452
21180W        W93605  36.570  24.670   2.220
21181W        W93606  33.996  13.752   0.766
21182W        W93607  34.938  44.973  12.884
21183W        W93608  20.087  36.367   0.782
21184W        W93609   9.301  13.346  12.964
21185W        W93610  29.154  34.556   1.843
21186W        W93611  13.148  32.578   1.386
21187W        W93612  23.006   9.186   0.956
21188W        W93613  20.166  25.050   3.258
21189W        W93614  15.602  25.137  13.862
21190W        W93615   4.777  36.854  11.095
21191W        W93616  44.916  38.880   0.318
21192W        W93617  21.188   1.244   1.752
21193W        W93618   5.715  35.035  11.993
21194W        W93619   1.751  28.548   2.396
21195W        W93620  26.014   5.763  12.981
21196W        W93621  29.970  17.290  13.915
21197W        W93622   2.374  42.927   1.883
21198W        W93623   3.222  25.601   4.199
21199W        W93624  20.688  38.996  12.361
21200W        W93625   7.384  39.899  13.883
21201W        W93626  28.501  18.643  10.503
21202W        W93627   5.929   9.300  12.425
21203W        W93628  20.081   9.754  12.014
21204W        W93629  23.097  36.572  14.369
21205W        W93630   7.896  15.718  14.952
21206W        W93631   9.354  41.536  11.378
21207W        W93632  21.137  43.826   2.814
21208W        W93633  43.281  30.497   4.127
21209W        W93634  34.898  35.585   1.428
21210W        W93635  14.128  42.287   0.909
21211W        W93636  27.071  40.424  12.492
21212W        W93637  32.562  24.997  10.623
21213W        W93638  10.729  31.647  12.958
21214W        W93639  31.025  16.078   3.241
21215W        W93640  22.169  32.098   0.896
21216W        W93641  13.145  15.821   0.302
21217W        W93642  30.944  39.560   3.185
21218W        W93643   4.760  15.703  10.422
21219W        W93644   3.764   7.912   3.325
21220W        W93645  27.666  26.031  12.846
21221W        W93646  31.508   9.167  12.843
21222W        W93647  26.638   1.435  13.534
21223W        W93648   9.232  25.126   1.781
21224W        W93649  10.839  30.036  12.466
21225W        W93650   1.277  42.776  11.587
21226W        W93651  10.270  11.184  13.045
21227W        W93652  27.969  28.023  12.983
21228W        W93653  34.017  13.751  10.523
21229W        W93654  25.569  32.002   3.176
21230W        W93655   8.740   3.368   4.188
21231W        W93656   0.756  42.526  13.955
21232W        W93657   7.885  19.264  12.001
21233W        W93658   0.865  10.305   1.878
21234W        W93659   8.269  22.732  11.574
21235W        W93660  27.645  12.158   0.849
21236W        W93661  10.849  44.837   1.919
21237W        W93662  16.602  33.915   5.248
21238W        W93663  33.492  43.295   2.401
21239W        W93664  33.616  32.547  12.433
21240W        W93665   3.325  23.033  13.358
21241W        W93666  35.095   0.744  10.895
21242W        W93667  29.990  41.413   5.312
21243W        W93668  32.607  16.223   0.324
21244W        W93669   5.759  42.471   2.296
21245W        W93670   5.880  43.814  14.465
21246W        W93671   9.801  31.140  14.937
21247W        W93672  34.372  19.664   3.350
21248W        W93673  37.081   1.385  11.559
21249W        W93674  27.162   9.326   4.260
21250W        W93675  39.982   0.409  11.489
21251W        W93676  36.493  37.502  14.355
21252W        W93677  42.860   2.308   3.261
21253W        W93678  13.309  15.598   1.316
21254W        W93679   4.861  21.246  11.463
21255W        W93680  38.944  32.915   3.256
21256W        W93681  32.141  38.527   0.810
21257W        W93682  38.417  35.392  12.411
21258W        W93683   5.231  24.046  12.392
21259W        W93684   2.316  30.033   4.137
21260W        W93685  44.285  22.623   3.162
21261W        W93686  36.078   3.231  14.376
21262W        W93687  15.094  38.369   2.287
21263W        W93688  19.534  37.913   0.355
21264W        W93689   7.310  42.954  14.931
21265W        W93690  39.928   2.246  13.373
21266W        W93691   9.273  32.557  13.407
21267W        W93692   3.815  23.687  14.398
21268W        W93693   3.292  10.217  12.540
21269W        W93694  41.373  31.597   0.944
21270W        W93695  27.096   9.166  13.966
21271W        W93696   4.369  13.794   2.866
21272W        W93697   6.329  43.431  13.865
21273W        W93698   9.728  40.832   4.723
21274W        W93699   4.450  35.956  10.470
21275W        W93700  24.486  39.338   3.829
21276W        W93701  15.779  31.976  11.947
21277W        W93702   3.805  27.567   0.399
21278W        W93703  29.175  28.973   2.760
21279W        W93704  35.962  15.696   1.448
21280W        W93705   0.250  40.391   2.730
21281W        W93706  30.612   0.835   3.837
21282W        W93707  12.281  33.043   2.732
21283W        W93708   8.693  36.086  11.505
21284W        W93709  22.051  38.571  14.021
21285W        W93710  20.255  14.657  12.958
21286W        W93711  29.432  40.358   0.888
21287W        W93712   8.253  29.520   1.853
21288W        W93713   6.219  24.519   4.820
21289W        W93714  15.168  22.035   3.743
21290W        W93715  13.277  37.077   3.384
21291W        W93716  29.074  38.900   4.811
21292W        W93717  38.481  11.157  12.351
21293W        W93718   6.843  11.838  14.864
21294W        W93719   2.746  43.284  12.361
21295W        W93720   8.252  21.667   1.871
21296W        W93721  36.485  17.102   1.253
21297W        W93722  35.869  19.241  11.492
21298W        W93723  19.202  32.111   2.778
21299W        W93724  44.961  17.139   3.275
21300W        W93725   4.445   0.331  13.042
21301W        W93726  38.949  38.869  11.094
21302W        W93727   4.313  24.690  13.389
21303W        W93728  12.129   5.315   4.287
21304W        W93729   8.660  16.583  12.508
21305W        W93730  12.735  13.655  10.480
21306W        W93731  17.669  13.834   2.225
21307W        W93732  32.996  24.004   1.762
21308W        W93733   2.783   4.788  14.944
21309W        W93734  23.206  37.968  14.759
21310W        W93735  18.591   2.304  11.575
21311W        W93736   8.340  41.967  11.386
21312W        W93737  43.459  42.829   2.181
21313W        W93738  35.864   7.828   0.860
21314W        W93739  36.856  18.283  14.821
21315W        W93740   9.287  31.995   4.811
21316W        W93741   8.865  37.020  14.981
21317W        W93742  35.453   5.832  14.512
21318W        W93743  44.343  21.647  14.990
21319W        W93744  18.705  37.877  12.390
21320W        W93745  40.829  37.429  10.947
21321W        W93746   5.225  12.319  11.587
21322W        W93747  13.691  27.956  13.872
21323W        W93748   8.355   5.898  13.916
21324W        W93749   6.847  14.682  10.515
21325W        W93750  14.673  44.299   1.698
21326W        W93751   5.819   8.223  12.934
21327W        W93752  43.986  34.013  12.381
21328W        W93753  21.537  18.746  14.302
21329W        W93754  21.200  12.855  12.919
21330W        W93755  22.089  15.692  13.878
21331W        W93756  34.970  28.950  12.510
21332W        W93757   9.245   5.326  12.404
21333W        W93758  41.510   8.223   3.770
21334W        W93759  37.979  34.482   2.289
21335W        W93760  41.485  27.961  13.965
21336W        W93761  17.679  21.237   1.341
21337W        W93762  30.475  43.386   4.141
21338W        W93763  18.686   8.736  10.157
21339W        W93764   3.785  23.107   3.369
21340W        W93765  23.697  42.504  13.451
21341W        W93766   6.319   0.283   4.166
21342W        W93767  41.344   4.414  10.463
21343W        W93768   7.799  20.652  12.378
21344W        W93769  19.764  18.092  11.980
21345W        W93770  19.039  15.109  11.563
21346W        W93771  27.526  12.681   3.797
21347W        W93772  41.812  19.588  13.041
21348W        W93773  38.920  13.672   1.261
21349W        W93774  26.585  20.562  14.437
21350W        W93775  10.331  30.577   1.898
21351W        W93776  14.135   7.746   1.898
21352W        W93777  18.196  34.557   2.747
21353W        W93778   3.264  11.841  12.565
21354W        W93779  22.066  32.036  14.922
21355W        W93780   1.902   2.934   1.227
21356W        W93781  28.534  10.303   4.611
21357W        W93782  36.370  42.519  10.405
21358W        W93783   4.256  37.502   2.288
21359W        W93784  32.453  26.043   4.207
21360W        W93785  35.509  35.947  11.872
21361W        W93786  21.643  31.596   0.350
21362W        W93787  35.578  28.111  14.409
21363W        W93788  30.991  39.826  14.874
21364W        W93789   4.832  36.847  11.498
21365W        W93790   5.205   0.820   4.169
21366W        W93791   1.810  11.337  10.608
21367W        W93792  30.482  12.661   0.808
21368W        W93793  39.950  37.965   1.283
21369W        W93794  27.993  30.012   3.194
21370W        W93795  39.021  30.973  10.997
21371W        W93796   6.893  32.921   1.388
21372W        W93797  44.863   0.461  10.463
21373W        W93798  39.443  20.174   4.238
21374W        W93799   0.291  22.013   1.876
21375W        W93800  21.203  32.013   3.318
21376W        W93801  33.480   0.757   1.696
21377W        W93802  22.627  33.538   5.215
21378W        W93803  36.082   7.687  14.919
21379W        W93804  40.323  38.392  13.316
21380W        W93805  38.853  28.628   4.785
21381W        W93806  34.037  40.032   1.727
21382W        W93807  18.116  11.705  14.413
21383W        W93808  20.032  33.951   1.331
21384W        W93809  27.592   2.280  10.989
21385W        W93810  36.036   5.350  13.922
21386W        W93811  17.184   0.402   3.331
21387W        W93812  44.945  32.574   0.966
21388W        W93813  14.233  40.860  13.910
21389W        W93814  14.280  21.019   0.456
21390W        W93815  31.935   7.898  14.840
21391W        W93816  16.675  23.176  13.909
21392W        W93817  26.958  40.391  11.864
21393W        W93818  34.607  22.731  10.907
21394W        W93819  13.145  33.614  10.565
21395W        W93820  31.429   6.916   0.419
21396W        W93821  35.503   0.813   3.711
21397W        W93822  28.614  17.658  13.913
21398W        W93823  27.617  26.555   3.815
21399W        W93824   9.371  42.856  14.798
21400W        W93825   8.200  11.236  12.927
21401W        W93826  10.336   1.950   1.829
21402W        W93827  13.348  37.433   4.258
21403W        W93828   0.488  42.963   2.687
21404W        W93829  31.912   6.893  10.471
21405W        W93830   0.826  42.817   2.835
21406W        W93831  27.506  36.083  11.066
21407W        W93832  12.140  44.915  12.924
21408W        W93833  44.758  17.113   2.216
21409W        W93834  44.431  13.664   0.878
21410W        W93835  42.779  26.953   3.869
21411W        W93836   7.396  10.735   4.298
21412W        W93837  19.175  17.650   1.701
21413W        W93838  22.528  20.140  11.383
21414W        W93839   0.478  13.791  13.309
21415W        W93840  12.219  27.154  10.441
21416W        W93841  31.017   8.290  11.389
21417W        W93842  22.554  24.121   0.910
21418W        W93843  35.389  14.149  12.509
21419W        W93844   0.987  24.486   2.365
21420W        W93845  22.164  44.818   4.689
21421W        W93846  16.627  32.618  10.467
21422W        W93847  23.498  36.577   4.306
21423W        W93848  40.882   4.332   1.392
21424W        W93849  14.768  40.424   0.755
21425W        W93850  20.175  32.079   4.125
21426W        W93851  37.015  24.573   2.784
21427W        W93852   6.208  33.875   1.431
21428W        W93853  41.315   8.213   2.225
21429W        W93854  33.452   9.773  13.988
21430W        W93855  26.118  29.662   5.309
21431W        W93856   9.339  21.757   3.182
21432W        W93857  35.518  14.327   2.832
21433W        W93858   5.907  30.054   4.806
21434W        W93859   4.755  21.602   4.688
21435W        W93860  40.907  22.048  10.549
21436W        W93861  12.214  28.150   3.652
21437W        W93862  24.193  36.906   3.782
21438W        W93863   7.372  13.293   0.752
21439W        W93864   6.208   6.806   2.281
21440W        W93865  10.738  11.148   0.265
21441W        W93866   4.413  18.583   3.309
21442W        W93867  36.501  16.099  11.558
21443W        W93868  40.990  44.304  11.534
21444W        W93869  18.159  18.052  11.953
21445W        W93870   7.869  30.581   1.730
21446W        W93871  26.083   2.837  10.950
21447W        W93872  23.619  27.068   4.211
21448W        W93873   8.844  25.485  14.027
21449W        W93874  23.053  40.043  11.063
21450W        W93875   4.832  28.101   2.694
21451W        W93876  38.021  10.264   0.876
21452W        W93877  25.976  33.974  13.325
21453W        W93878   1.740  41.865  11.381
21454W        W93879   9.321  40.370   4.742
21455W        W93880  18.681  11.248   1.809
21456W        W93881  38.934  14.685   4.813
21457W        W93882  15.275  38.842   1.377
21458W        W93883   7.291   3.868   3.708
21459W        W93884  35.090   2.331   3.299
21460W        W93885  28.640  36.398   3.684
21461W        W93886  32.920   5.903  11.897
21462W        W93887  12.240  10.162   2.801
21463W        W93888  39.407  15.583   3.722
21464W        W93889  39.896   2.876  12.421
21465W        W93890  42.020  25.096  14.493
21466W        W93891  40.942   6.799  12.864
21467W        W93892  30.465  24.594   0.732
21468W        W93893   2.848   7.862   3.675
21469W        W93894  32.432   0.261  11.542
21470W        W93895  39.410  10.252   2.315
21471W        W93896  32.581   7.771  13.831
21472W        W93897  25.996  27.623   0.472
21473W        W93898   5.376  41.349  10.628
21474W        W93899  18.184  35.082  13.026
21475W        W93900  39.503  27.079  13.972
21476W        W93901  35.867  13.327   2.333
21477W        W93902   3.449   5.253   2.896
21478W        W93903   7.319  16.247  13.510
21479W        W93904  28.016  32.554   2.208
21480W        W93905  36.920  37.048   4.271
21481W        W93906  14.639  41.344  14.435
21482W        W93907  21.243  37.018  13.043
21483W        W93908  37.552  37.519  13.479
21484W        W93909  11.179  13.829  13.342
21485W        W93910  25.620  11.863  13.988
21486W        W93911  35.964   2.312   1.425
21487W        W93912  40.860  32.099  11.018
21488W        W93913   9.660   4.398  14.283
21489W        W93914  41.886  30.463   3.848
21490W        W93915   1.306  24.617  14.408
21491W        W93916  21.740  30.465   1.326
21492W        W93917  14.104  26.468   2.226
21493W        W93918  24.650   5.798  13.422
21494W        W93919  44.261  27.679  13.028
21495W        W93920  22.046  41.378   4.205
21496W        W93921  36.067  22.566  10.583
21497W        W93922  30.910  22.561   9.930
21498W        W93923  17.178  11.778   4.648
21499W        W93924  19.560  15.759  11.604
21500W        W93925  13.734  14.821   1.262
21501W        W93926  24.005   6.760   1.378
21502W        W93927  21.146   2.289   3.214
21503W        W93928   5.740  32.432  12.405
21504W        W93929  35.499  38.547   3.715
21505W        W93930  33.404  36.961   4.126
21506W        W93931  18.156  31.034   0.939
21507W        W93932  25.198   3.816   0.772
21508W        W93933  14.098   9.211  11.501
21509W        W93934   1.822  43.827  12.560
21510W        W93935  42.480   8.680  13.839
21511W        W93936  13.805  28.495  10.997
21512W        W93937  43.988  34.062  14.319
21513W        W93938  35.369  30.439   2.678
21514W        W93939   6.360  44.408  11.044
21515W        W93940   3.311  39.316  13.856
21516W        W93941  36.393  15.192   2.845
21517W        W93942   5.399   8.862   4.203
21518W        W93943  20.568  31.038   4.224
21519W        W93944  23.099  32.131  14.363
21520W        W93945  31.055   0.260  13.395
21521W        W93946  44.435  27.074  13.463
21522W        W93947  44.491  17.150  10.998
21523W        W93948   2.276  14.219   1.908
21524W        W93949  12.739  40.899  12.900
21525W        W93950  10.732   0.858  12.543
21526W        W93951  22.173  14.197   0.432
21527W        W93952   0.754  31.411   3.319
21528W        W93953  26.953  41.026  12.973
21529W        W93954  30.638  22.042   2.381
21530W        W93955   1.381   8.263  14.941
21531W        W93956  21.113   1.933  13.453
21532W        W93957  12.122  10.850   0.895
21533W        W93958  26.109  30.914  12.370
21534W        W93959  18.091  28.096   1.732
21535W        W93960   5.368  19.677  12.897
21536W        W93961  23.053  10.736  13.512
21537W        W93962  34.538  22.248   3.685
21538W        W93963  14.725  39.513  13.307
21539W        W93964  16.151   4.703   1.374
21540W        W93965  32.968  42.801  12.957
21541W        W93966  33.579  25.994  12.573
21542W        W93967  11.624  21.138  12.024
21543W        W93968  40.937  20.220  10.026
21544W        W93969  22.193   1.924  11.436
21545W        W93970  21.132  18.696   0.355
21546W        W93971  36.067  34.392  10.986
21547W        W93972  13.712  12.744   2.817
21548W        W93973  14.155  15.098   3.373
21549W        W93974  11.720   1.281  14.937
21550W        W93975  37.919  20.587   3.328
21551W        W93976  39.447  35.502  11.443
21552W        W93977  10.347  22.052   1.343
21553W        W93978  33.438  24.632   2.278
21554W        W93979  11.277  42.313  11.061
21555W        W93980   3.336   5.229  11.038
21556W        W93981  13.729   8.330  11.391
21557W        W93982   6.756  40.544   0.439
21558W        W93983  22.636   7.784   2.187
21559W        W93984  35.999  40.524  10.931
21560W        W93985  16.169  33.389  13.494
21561W        W93986   5.727  31.034  12.364
21562W        W93987  28.982  18.661   4.307
21563W        W93988  32.112  11.216  12.900
21564W        W93989  15.163  34.478  11.438
21565W        W93990  43.926  43.314  13.485
21566W        W93991  13.724  42.993  12.387
21567W        W93992  35.497  40.516  12.448
21568W        W93993   2.961  42.903   0.380
21569W        W93994  32.062   0.832  14.778
21570W        W93995  11.668  42.378   1.751
21571W        W93996   7.402  25.152  14.949
21572W        W93997   3.818   7.396  14.457
21573W        W93998  20.180  36.998  13.036
21574W        W93999  20.729  39.907  11.879
21575W        W94000   8.899   4.428  12.877
21576W        W94001   0.366  18.178   3.634
21577W        W94002  37.487  28.060  11.585
21578W        W94003  13.650  42.908  14.361
21579W        W94004   0.424  20.623   0.945
21580W        W94005  11.686   5.216   2.215
21581W        W94006   9.807  43.482   4.712
21582W        W94007  42.324  16.154  13.901
21583W        W94008  23.512  40.993   3.800
21584W        W94009   0.378  24.057  11.581
21585W        W94010  16.601  12.818  10.487
21586W        W94011   1.817  26.566   0.885
21587W        W94012  12.814  42.823  14.802
21588W        W94013  44.855  13.275   3.266
21589W        W94014   0.416  29.450  12.987
21590W        W94015  40.883  12.758  13.353
21591W        W94016   4.348   2.760  13.863
21592W        W94017  10.208   7.839   1.449
21593W        W94018  28.078   8.854   3.147
21594W        W94019  28.556  42.475  11.073
21595W        W94020  37.499  14.229   4.202
21596W        W94021   8.162  44.352  13.063
21597W        W94022  19.104  36.989  14.901
21598W        W94023  36.881  16.688  10.620
21599W        W94024  38.032  35.461   3.380
21600W        W94025  40.867  14.097  14.805
21601W        W94026   0.409  41.320   3.208
21602W        W94027  22.180  43.929   1.783
21603W        W94028  17.591  16.572   1.404
21604W        W94029  42.518  24.681   4.756
21605W        W94030  20.272  17.137  13.510
21606W        W94031  29.129  27.124  14.487
21607W        W94032  24.583  38.370  14.025
21608W        W94033  44.784  42.873  14.968
21609W        W94034  40.810  24.027  14.805
21610W        W94035  38.835  40.940  13.818
21611W        W94036  34.494  15.244  13.038
21612W        W94037  39.439  14.815  14.905
21613W        W94038  27.651  10.293   1.872
21614W        W94039  20.612   9.242  11.497
21615W        W94040  42.489  12.784  12.390
21616W        W94041  32.422  28.041   2.697
21617W        W94042  15.797  22.171   3.335
21618W        W94043  28.557  14.320   0.806
21619W        W94044  15.602  30.000  14.869
21620W        W94045  26.514  35.056   1.236
21621W        W94046  13.280   2.274  10.606
21622W        W94047  23.574  31.551   1.801
21623W        W94048  11.762  17.560  12.027
21624W        W94049   8.267  17.792   3.807
21625W        W94050  22.109  22.677   0.436
21626W        W94051   5.332  32.467   0.766
21627W        W94052   3.279  19.244   2.363
21628W        W94053  14.680  22.696   2.354
21629W        W94054  15.237  24.168   0.435
21630W        W94055  36.871  23.077  14.816
21631W        W94056  23.093  28.944  10.430
21632W        W94057  20.172  25.007  13.401
21633W        W94058   1.735  40.045  12.973
21634W        W94059  43.332  10.657   1.711
21635W        W94060  32.054  29.143  10.100
21636W        W94061   9.273  28.977  13.857
21637W        W94062  24.985  25.073  14.513
21638W        W94063  29.479   6.816  14.441
21639W        W94064  18.233   3.951   2.799
21640W        W94065  27.626  23.233  12.944
21641W        W94066  44.419  43.272  11.107
21642W        W94067  37.345   2.764   1.236
21643W        W94068   2.255  34.985   1.221
21644W        W94069  20.185  13.210  14.865
21645W        W94070  40.980  14.736   3.160
21646W        W94071  12.157  35.554  14.438
21647W        W94072   9.752  40.372  12.522
21648W        W94073  36.872  39.494  14.447
21649W        W94074  36.991  19.187   4.350
21650W        W94075   6.379  37.955  11.939
21651W        W94076  27.009   4.412   3.733
21652W        W94077  30.121  40.360  13.838
21653W        W94078  21.203  21.151   3.708
21654W        W94079   5.406  36.088   4.634
21655W        W94080  37.545  13.280  14.968
21656W        W94081   6.886  15.102   2.399
21657W        W94082  36.898  15.123  12.387
21658W        W94083  20.046  30.965   2.242
21659W        W94084  12.142  28.518  13.888
21660W        W94085  27.007   1.455   3.869
21661W        W94086  12.668  23.706   3.792
21662W        W94087  20.217   7.375  12.493
21663W        W94088  42.415  34.462   3.769
21664W        W94089  33.904  29.047  12.060
21665W        W94090  22.032   9.815  12.441
21666W        W94091  30.432   4.758   3.253
21667W        W94092  14.744  25.654   4.696
21668W        W94093  19.548  11.342  12.366
21669W        W94094  22.697  44.779  14.505
21670W        W94095  16.708  20.728  11.987
21671W        W94096   7.221  11.373  10.968
21672W        W94097  13.740  29.593  12.376
21673W        W94098  36.877  13.756  13.440
21674W        W94099  18.288   5.194   1.359
21675W        W94100  44.316  10.829  10.917
21676W        W94101  12.146   6.192  14.807
21677W        W94102  40.396   2.721  11.481
21678W        W94103  43.798  15.159   3.693
21679W        W94104   2.766  34.071  12.833
21680W        W94105  31.081   7.300  13.881
21681W        W94106  22.135  27.027  14.374
21682W        W94107  10.655   2.249  14.412
21683W        W94108  32.947  23.217   0.440
21684W        W94109   5.422  25.162  12.073
21685W        W94110  33.945  16.809  13.837
21686W        W94111  26.640  34.944   3.828
21687W        W94112  36.387  22.594   0.420
21688W        W94113   8.711   0.882  13.484
21689W        W94114  31.483  23.023  14.031
21690W        W94115  17.122  20.066  10.062
21691W        W94116  30.580  19.591  14.761
21692W        W94117   3.812   3.867  12.903
21693W        W94118   3.793  10.299  12.570
21694W        W94119  29.131  16.099   1.424
21695W        W94120  42.518  14.688   1.707
21696W        W94121  29.035  41.316   3.312
21697W        W94122  34.396  24.092  11.941
21698W        W94123  29.978  23.079  11.471
21699W        W94124  37.417  10.142   3.693
21700W        W94125  33.605   0.304   1.785
21701W        W94126  27.514   5.228   3.862
21702W        W94127  38.875   2.830   0.369
21703W        W94128  18.699  29.552   1.788
21704W        W94129  30.115  18.618  10.455
21705W        W94130  25.999  11.866   1.347
21706W        W94131   4.397  44.446  10.540
21707W        W94132  40.501  21.055  11.079
21708W        W94133   8.385   2.267   1.840
21709W        W94134  14.808  11.179   0.796
21710W        W94135   1.789  42.332   1.853
21711W        W94136  30.099  19.273   1.852
21712W        W94137   1.778  26.186  10.900
21713W        W94138  35.451  43.958   4.337
21714W        W94139   1.389  24.012   3.292
21715W        W94140   0.414  18.105  11.865
21716W        W94141  35.888  21.134  10.483
21717W        W94142   4.788  31.546  10.558
21718W        W94143  25.066  34.992   1.832
21719W        W94144   8.769  14.259   4.807
21720W        W94145  17.163  14.202  12.067
21721W        W94146  29.160  40.921   2.190
21722W        W94147   4.323  15.321  12.535
21723W        W94148  35.045  16.566  12.437
21724W        W94149  36.419  41.535   0.412
21725W        W94150  40.895  18.230   4.282
21726W        W94151  38.373   6.796   4.673
21727W        W94152  10.233  31.508  13.824
21728W        W94153   9.877  23.576   1.871
21729W        W94154  43.786  44.360  13.063
21730W        W94155  14.169  42.781  11.886
21731W        W94156   3.328  23.493  12.907
21732W        W94157  22.614   2.877  10.620
21733W        W94158   4.416  19.542   1.844
21734W        W94159  37.566  20.735   3.318
21735W        W94160  41.438  27.974   4.177
21736W        W94161  35.076  15.322   2.816
21737W        W94162  10.315  27.555   4.338
21738W        W94163  35.085  34.101   4.130
21739W        W94164  35.437  13.819   1.695
21740W        W94165  32.458   6.689   2.755
21741W        W94166   4.802  38.360  14.901
21742W        W94167   6.257  29.139  11.000
21743W        W94168  21.093   8.812   2.231
21744W        W94169  18.209  33.540   2.774
21745W        W94170   9.202  25.155   5.195
21746W        W94171   4.342  14.717  10.558
21747W        W94172  27.497  11.813   2.685
21748W        W94173  23.984  31.117  13.967
21749W        W94174   8.276  11.689  14.362
21750W        W94175   6.863  11.353  12.389
21751W        W94176   6.783  34.041   4.758
21752W        W94177  25.644  27.531  11.997
21753W        W94178  20.197   3.450   5.114
21754W        W94179  18.162  29.576  14.775
21755W        W94180  40.037  18.152  11.506
21756W        W94181  33.889  26.086   3.222
21757W        W94182   0.793  35.456  11.109
21758W        W94183  29.124  44.335   1.726
21759W        W94184  33.626  31.903  11.977
21760W        W94185  16.288   4.267  13.533
21761W        W94186   4.297  32.942   0.779
21762W        W94187  21.145  27.576  13.393
21763W        W94188   8.901   5.229  13.930
21764W        W94189  35.585   4.718   2.196
21765W        W94190   4.236  12.245   1.313
21766W        W94191  14.689  28.998   2.362
21767W        W94192  15.797  12.176  13.479
21768W        W94193  12.663  40.025   4.697
21769W        W94194  12.613  14.795   2.828
21770W        W94195  33.027  20.641  12.915
21771W        W94196  33.558  28.121  10.475
21772W        W94197  10.199   6.770  13.505
21773W        W94198  31.103   5.294   3.323
21774W        W94199  24.086  43.313  12.093
21775W        W94200  37.945  29.922   1.410
21776W        W94201  34.492  17.558  11.964
21777W        W94202  17.086  26.512   1.308
21778W        W94203  24.487  33.064  13.964
21779W        W94204  25.200  18.286  13.898
21780W        W94205  29.638  41.433  13.342
21781W        W94206  38.948  23.530   0.728
21782W        W94207  21.617  25.618  14.375
21783W        W94208  41.471  19.179  14.299
21784W        W94209  24.228  39.954   1.733
21785W        W94210  30.048   4.768  14.974
21786W        W94211  35.010   2.321   2.831
21787W        W94212  43.978  43.927  12.559
21788W        W94213  12.298  21.025   0.733
21789W        W94214   4.227  21.710   0.732
21790W        W94215   2.783  29.450  11.051
21791W        W94216  17.558  42.391   0.885
21792W        W94217  10.770   3.234   0.756
21793W        W94218   6.681   2.318   2.251
21794W        W94219  39.502  40.800   3.278
21795W        W94220  25.169  42.515  11.495
21796W        W94221  17.217   7.377   1.902
21797W        W94222  32.454   6.290  13.827
21798W        W94223   1.263  25.472   2.224
21799W        W94224   7.712  17.701  12.995
21800W        W94225  42.351   0.433  11.893
21801W        W94226   6.831   3.303   4.339
21802W        W94227  37.007  10.273   4.219
21803W        W94228  28.135  25.059   4.223
21804W        W94229  40.382  28.968   1.433
21805W        W94230  43.899  36.371   0.369
21806W        W94231  32.969  36.083  10.550
21807W        W94232  28.657  32.903   3.867
21808W        W94233  20.173  40.854   4.316
21809W        W94234   3.321  39.371  14.781
21810W        W94235  14.682  11.844   4.350
21811W        W94236  39.363  10.796   4.177
21812W        W94237  36.489  10.824  13.385
21813W        W94238   8.178   3.936  10.986
21814W        W94239  22.236  34.405  12.405
21815W        W94240  32.478   0.324  12.366
21816W        W94241   2.735   9.723  11.470
21817W        W94242  10.308  21.609   3.803
21818W        W94243  24.134  27.447   1.255
21819W        W94244  22.596  41.413  14.447
21820W        W94245  23.098  30.970   3.336
21821W        W94246  10.172  11.163  11.960
21822W        W94247   2.393  17.198   1.316
21823W        W94248   2.401  12.119   0.920
21824W        W94249  25.690  36.076  13.370
21825W        W94250   9.738  38.339   2.887
21826W        W94251  29.996  37.419   2.759
21827W        W94252  22.223  22.653  14.448
21828W        W94253  30.546  16.681  12.063
21829W        W94254   4.257  36.476  13.366
21830W        W94255  31.442  23.641   1.910
21831W        W94256  35.520  28.978   4.633
21832W        W94257   1.302   9.389  12.424
21833W        W94258  17.619  41.028  14.324
21834W        W94259  22.069  10.778   0.874
21835W        W94260  34.479  12.815  14.460
21836W        W94261  22.068  42.889  11.112
21837W        W94262  41.439   6.217   3.781
21838W        W94263  13.108  41.437   3.190
21839W        W94264  23.628   1.908  12.887
21840W        W94265  34.466  37.896  14.300
21841W        W94266   4.731   3.375   1.855
21842W        W94267  15.793   3.845   2.247
21843W        W94268  23.696  11.809   2.691
21844W        W94269  22.706   6.676   3.869
21845W        W94270  22.694  14.624   1.384
21846W        W94271   8.884  33.015   0.278
21847W        W94272  32.527  33.064  10.522
21848W        W94273  35.861  11.747  13.429
21849W        W94274  14.714  12.686   3.747
21850W        W94275   6.886  11.853   2.803
21851W        W94276  28.665   8.302  11.125
21852W        W94277  36.889   5.711   5.659
21853W        W94278  41.416  26.668  13.794
21854W        W94279  39.858  21.052   2.900
21855W        W94280  21.023  18.178   1.298
21856W        W94281  12.748   1.760  10.935
21857W        W94282  14.139  22.142  12.969
21858W        W94283  26.701  42.810  13.033
21859W        W94284  11.640   2.786   5.142
21860W        W94285  42.804  15.663   3.261
21861W        W94286  12.851   7.898   0.347
21862W        W94287   8.226  37.967   2.722
21863W        W94288  44.387  34.439   4.122
21864W        W94289  21.599  18.190  13.010
21865W        W94290   9.875  16.127  11.031
21866W        W94291  31.614  42.909  10.614
21867W        W94292  25.659  29.514  10.610
21868W        W94293   9.652  40.510   3.172
21869W        W94294  41.942   6.388  13.849
21870W        W94295  38.340  36.527   3.236
21871W        W94296  31.925   8.885   1.367
21872W        W94297  42.024  16.629   3.269
21873W        W94298   9.670  35.508   4.206
21874W        W94299  21.620  38.932  13.907
21875W        W94300  34.901  40.995   4.807
21876W        W94301  10.758   5.386   0.780
21877W        W94302  36.001  26.991   3.800
21878W        W94303  18.557  19.183  12.999
21879W        W94304  15.233   6.690   3.670
21880W        W94305   9.202   3.930  10.468
21881W        W94306  30.614  41.369   2.787
21882W        W94307  13.620  44.367   0.447
21883W        W94308  35.599  43.418   1.359
21884W        W94309  40.007  17.140  12.842
21885W        W94310  27.610  36.546  13.441
21886W        W94311  38.008  43.341  14.829
21887W        W94312   8.733  15.228  13.885
21888W        W94313  24.508  27.527   4.205
21889W        W94314  38.014  10.669   1.421
21890W        W94315   6.787  35.566   1.730
21891W        W94316  34.606  21.205   4.766
21892W        W94317   2.855  41.524  10.496
21893W        W94318  39.353  15.152  11.126
21894W        W94319   2.409  11.337  13.027
21895W        W94320  29.425  33.581  10.611
21896W        W94321   1.816  28.524  12.501
21897W        W94322   1.483  23.232  14.927
21898W        W94323  26.977   2.783  14.313
21899W        W94324  31.048  41.904   5.100
21900W        W94325   8.243  19.698   4.184
21901W        W94326   6.728  29.038   1.916
21902W        W94327  26.626   9.837  12.478
21903W        W94328  24.483  23.541  14.844
21904W        W94329  18.094  15.219  14.385
21905W        W94330  43.798  34.885  13.882
21906W        W94331  34.375  10.703   3.299
21907W        W94332  18.085  13.667   4.270
21908W        W94333  17.197  39.445   1.236
21909W        W94334  39.381  31.024   0.929
21910W        W94335  29.584  28.500  14.974
21911W        W94336  10.304  23.091  13.473
21912W        W94337  40.831  32.915   4.703
21913W        W94338  44.793  33.493  12.882
21914W        W94339  26.618  34.389  10.540
21915W        W94340   9.798  17.198   2.230
21916W        W94341  27.100   5.801  11.983
21917W        W94342  16.594   8.242  12.433
21918W        W94343   9.206   4.735   1.234
21919W        W94344  37.053  19.753  13.886
21920W        W94345  33.104  32.456  14.355
21921W        W94346  32.557  30.551  11.470
21922W        W94347   7.842  31.960   2.805
21923W        W94348  33.430  17.251   1.318
21924W        W94349  19.087  20.141   2.357
21925W        W94350   8.180   8.865   2.368
21926W        W94351  36.038  19.565  14.486
21927W        W94352  15.709   4.748   2.895
21928W        W94353   6.813  43.426  12.368
21929W        W94354  18.699  13.718  13.032
21930W        W94355  43.773   8.194  11.116
21931W        W94356  28.149   7.242   4.720
21932W        W94357   8.689  21.629   0.939
21933W        W94358  18.250  39.540   4.354
21934W        W94359  43.868  31.419   9.575
21935W        W94360  16.573  42.344  14.908
21936W        W94361   5.924  21.068  11.422
21937W        W94362  27.153   5.861   0.817
21938W        W94363  29.665  40.835  12.895
21939W        W94364   3.397  34.449   0.927
21940W        W94365  13.713   3.399   2.876
21941W        W94366  24.984  38.532  10.903
21942W        W94367  14.607   0.873  10.549
21943W        W94368  13.349  34.969   3.652
21944W        W94369  43.943  27.128  11.942
21945W        W94370   9.213  29.577  12.522
21946W        W94371   7.381  23.071   2.685
21947W        W94372   6.295  10.832  13.951
21948W        W94373  38.546   3.387  11.507
21949W        W94374  43.954  41.511   3.801
21950W        W94375  19.256  38.846   4.598
21951W        W94376  25.685   2.355  11.935
21952W        W94377  26.603  34.055   3.321
21953W        W94378  33.014  36.900  11.920
21954W        W94379  27.651  16.790  13.457
21955W        W94380  19.266  13.178  11.104
21956W        W94381  10.303  20.124  11.513
21957W        W94382  42.288   0.343  14.783
21958W        W94383  14.686  31.498  13.512
21959W        W94384  32.463  25.989  12.963
21960W        W94385  40.420  44.467  10.566
21961W        W94386   2.865   7.690  14.962
21962W        W94387  44.292   8.278  13.996
21963W        W94388  28.036  29.561   1.801
21964W        W94389  39.508  43.422  13.448
21965W        W94390  16.142  14.775   4.248
21966W        W94391  36.576  29.095  13.831
21967W        W94392  44.828  15.105  12.058
21968W        W94393  19.080  40.984   3.746
21969W        W94394   2.285  29.497   0.393
21970W        W94395   9.723  22.063   0.348
21971W        W94396  41.339  41.794  12.359
21972W        W94397  21.748  37.570  14.822
21973W        W94398   8.249  26.043   0.800
21974W        W94399   1.337  24.557   4.245
21975W        W94400  34.592  25.046  14.877
21976W        W94401  20.549   2.424   4.182
21977W        W94402   0.272  40.905  10.896
21978W        W94403   1.371   3.728  14.397
21979W        W94404  39.371  42.489   1.847
21980W        W94405  39.430  10.821  12.491
21981W        W94406  33.498  15.267   1.283
21982W        W94407  27.055  16.117   1.817
21983W        W94408  32.049  33.988   3.709
21984W        W94409  38.917  34.895  11.937
21985W        W94410  29.008  24.074   5.787
21986W        W94411  14.099  32.398  13.937
21987W        W94412  38.950  20.033  11.446
21988W        W94413   9.243  22.732  10.903
21989W        W94414   1.973  18.665  11.509
21990W        W94415  23.991  21.262   3.865
21991W        W94416  20.253  14.655  12.571
21992W        W94417  13.282  33.052  11.600
21993W        W94418  41.834  42.477   3.796
21994W        W94419   7.260  29.146   2.192
21995W        W94420  34.005  42.497   1.301
21996W        W94421  42.920   4.817   3.312
21997W        W94422  32.131  10.861  13.835
21998W        W94423  21.051  10.232   0.316
21999W        W94424   5.859  22.179  14.894
22000W        W94425  35.972   2.338   4.310
22001W        W94426  24.070  36.971  14.926
22002W        W94427  27.473   9.373   4.125
22003W        W94428  37.507   8.843  14.462
22004W        W94429  36.095  30.540  12.065
22005W        W94430  30.443  15.584  13.008
22006W        W94431  11.692   5.234   3.836
22007W        W94432   7.348  32.920  10.503
22008W        W94433   2.344  44.777  14.865
22009W        W94434   5.227  33.418  12.001
22010W        W94435   8.232  41.524  12.383
22011W        W94436  36.558   2.401   2.696
22012W        W94437  39.888  39.329   3.213
22013W        W94438   2.399   2.392   1.280
22014W        W94439   3.872  30.470  11.383
22015W        W94440  38.565  38.860   1.312
22016W        W94441  33.076  30.622   1.247
22017W        W94442  24.693  43.356   2.339
22018W        W94443  11.205  15.664   2.248
22019W        W94444  27.496  37.043  13.404
22020W        W94445  43.986  19.546  11.492
22021W        W94446  28.125  25.988  14.025
22022W        W94447  15.118  18.054   1.237
22023W        W94448  26.552   8.789  11.493
22024W        W94449   0.492   3.232  11.461
22025W        W94450  44.943  28.952  14.505
22026W        W94451   0.476   2.324   3.706
22027W        W94452  13.117  29.656  11.513
22028W        W94453  24.673  30.926   0.765
22029W        W94454  34.940  12.767   2.324
22030W        W94455  13.660  34.448  13.834
22031W        W94456  29.024   8.682  13.482
22032W        W94457  14.762  14.237   3.779
22033W        W94458  16.261  43.455   0.889
22034W        W94459  25.683  38.838  12.878
22035W        W94460  44.309  24.702   0.400
22036W        W94461  39.869  10.257  11.486
22037W        W94462  44.771  38.923  14.459
22038W        W94463  32.037  15.735  12.925
22039W        W94464  24.522  40.396   1.873
22040W        W94465  39.925  30.624  14.474
22041W        W94466  30.567  12.724   1.726
22042W        W94467  10.803   4.771   0.959
22043W        W94468  42.930  13.218   3.299
22044W        W94469  21.645  23.111  13.958
22045W        W94470  29.465  19.206  13.023
22046W        W94471  15.744  43.462   3.785
22047W        W94472   6.711  22.117   3.165
22048W        W94473  43.290  19.535   1.424
22049W        W94474  42.914  21.017  14.934
22050W        W94475   4.916  41.794  13.933
22051W        W94476  41.800  32.534   1.896
22052W        W94477   2.926  23.019  12.842
22053W        W94478  11.269  12.659   4.351
22054W        W94479  18.696   6.903   2.700
22055W        W94480   3.289  10.336  14.344
22056W        W94481  23.176  36.002   0.351
22057W        W94482  13.775  25.674   3.384
22058W        W94483  13.666  30.520  14.781
22059W        W94484  11.155   4.273   1.299
22060W        W94485  44.795   4.909  12.924
22061W        W94486  19.718   0.907  14.827
22062W        W94487  17.751   4.232  11.064
22063W        W94488   0.848  21.512  11.034
22064W        W94489  31.420  38.570  13.064
22065W        W94490   1.440  13.832   2.893
22066W        W94491  30.125  24.519  12.921
22067W        W94492  33.470   5.320  14.322
22068W        W94493  38.048  14.296  13.491
22069W        W94494  31.921  15.122  12.341
22070W        W94495  25.626  29.505   0.405
22071W        W94496  39.445  18.734  14.870
22072W        W94497  39.377   8.355   4.691
22073W        W94498   0.317  14.157  13.418
22074W        W94499  32.032  43.274  13.487
22075W        W94500  23.131   6.921  14.503
22076W        W94501  16.249   5.303  10.897
22077W        W94502  12.837  27.030  11.377
22078W        W94503  32.082  41.399  11.927
22079W        W94504  20.044  42.343   1.759
22080W        W94505  22.231   8.853   5.129
22081W        W94506   0.297  37.460  12.830
22082W        W94507  40.492  36.071   3.374
22083W        W94508   5.238  32.056   5.321
22084W        W94509   1.298  43.960  12.560
22085W        W94510  33.954  29.477  13.010
22086W        W94511  42.974  44.766  12.958
22087W        W94512  35.105  24.702   0.850
22088W        W94513  33.084  39.964   2.219
22089W        W94514  29.549  25.470   3.272
22090W        W94515  39.503  11.671   3.671
22091W        W94516  15.326  19.753  10.468
22092W        W94517  13.762  10.818   1.770
22093W        W94518  23.645  38.544  11.868
22094W        W94519   1.444  13.808   3.317
22095W        W94520  40.806  25.148   2.750
22096W        W94521  22.103  37.981   0.741
22097W        W94522  40.928  25.203   1.238
22098W        W94523  26.458  34.549   4.254
22099W        W94524  18.067  27.073   4.166
22100W        W94525  13.704  42.900  13.548
22101W        W94526  17.235  18.274  11.501
22102W        W94527  22.525  16.753  10.982
22103W        W94528  19.731  34.450  14.780
22104W        W94529  19.103  18.661  10.511
22105W        W94530  20.566  34.043   0.433
22106W        W94531  43.838   0.259   3.637
22107W        W94532  14.746  43.803   0.833
22108W        W94533  27.643  19.251   1.800
22109W        W94534  32.390  41.498   3.744
22110W        W94535   9.329  44.413  14.866
22111W        W94536  33.585  39.335   4.174
22112W        W94537  40.917  10.853   3.799
22113W        W94538  40.410  31.954   3.251
22114W        W94539  37.546   0.342   2.727
22115W        W94540  25.667  22.570  10.614
22116W        W94541   0.908  16.658   4.634
22117W        W94542  31.438  19.195  12.823
22118W        W94543  25.666  43.956   4.256
22119W        W94544  23.159  36.447  10.973
22120W        W94545  23.631  42.400   3.743
22121W        W94546  20.049  19.766  14.000
22122W        W94547  13.621   9.224  12.991
22123W        W94548  27.624  38.395  11.504
22124W        W94549  24.103   5.386  13.482
22125W        W94550  35.473  27.086  12.545
22126W        W94551  44.828  19.598   4.268
22127W        W94552  37.419  27.635  13.054
22128W        W94553   9.714   8.315  10.485
22129W        W94554   8.250  31.925   0.430
22130W        W94555  38.904  12.163  14.929
22131W        W94556   8.341   5.764  14.785
22132W        W94557  15.596  13.751   4.647
22133W        W94558  10.234  29.658   2.694
22134W        W94559  38.362  25.179   1.727
22135W        W94560  14.294  14.622   1.915
22136W        W94561  42.297  39.984  10.899
22137W        W94562  36.003  17.217   3.724
22138W        W94563   7.383  44.932  12.446
22139W        W94564   6.807   6.708   2.401
22140W        W94565  36.982  34.403   4.176
22141W        W94566  33.585  12.643  11.920
22142W        W94567  10.671  19.103   3.254
22143W        W94568  30.658  19.225  12.564
22144W        W94569  21.261   2.310  12.955
22145W        W94570  23.144  35.558   2.849
22146W        W94571   2.228  27.952  14.398
22147W        W94572  15.269   0.879  14.962
22148W        W94573  25.160  32.397  10.479
22149W        W94574  39.033   7.675   2.829
22150W        W94575   4.703  22.252  10.991
22151W        W94576  42.389  32.545  12.538
22152W        W94577  27.501  34.919   0.323
22153W        W94578  17.214   6.804  14.876
22154W        W94579  24.591  30.932  11.978
22155W        W94580  31.422   1.740   2.819
22156W        W94581  12.694  22.605  10.908
22157W        W94582  10.192  29.664   1.409
22158W        W94583  40.539   2.920  14.327
22159W        W94584   0.854  33.907   0.461
22160W        W94585  23.100  40.008  11.555
22161W        W94586   8.808  40.325   2.741
22162W        W94587  23.064  39.475  12.034
22163W        W94588  14.793   3.938  12.442
22164W        W94589   7.911  33.131  11.924
22165W        W94590  21.094  31.973  12.895
22166W        W94591  21.564  10.264  11.114
22167W        W94592  19.754  37.032   3.812
22168W        W94593   9.686  21.557  14.492
22169W        W94594  40.809  27.972  12.934
22170W        W94595  12.192  28.938  13.004
22171W        W94596  24.122   0.897  10.582
22172W        W94597  25.509   8.177   1.264
22173W        W94598  44.327  31.080   3.258
22174W        W94599  32.518  36.056   5.132
22175W        W94600  24.711  14.822   4.707
22176W        W94601  38.909  43.913   1.360
22177W        W94602  39.390  39.330  12.486
22178W        W94603   5.265  34.901   4.780
22179W        W94604  44.005  43.499  14.867
22180W        W94605  39.908  22.211  13.028
22181W        W94606   6.767  33.558  10.527
22182W        W94607   6.773   7.183   2.856
22183W        W94608  13.162  12.770   3.370
22184W        W94609  14.288  26.467  11.541
22185W        W94610   0.905  14.645   3.837
22186W        W94611  35.011  25.526  11.380
22187W        W94612  32.559   7.773  11.014
22188W        W94613   3.905  11.820  12.490
22189W        W94614  16.106  39.956   2.382
22190W        W94615  17.143  40.946   1.294
22191W        W94616  17.135  22.210   4.266
22192W        W94617  22.739   5.276  11.938
22193W        W94618   7.390  22.153  11.896
22194W        W94619  14.680  41.335   2.792
22195W        W94620  30.413  28.640   2.793
22196W        W94621   1.942  17.150   0.834
22197W        W94622   3.378  16.151  13.842
22198W        W94623   2.232  29.500   4.679
22199W        W94624  14.156  22.239   4.748
22200W        W94625  17.592  36.539   3.369
22201W        W94626  40.470  23.146   4.631
22202W        W94627   8.695  11.135   4.743
22203W        W94628  22.158  41.415   0.418
22204W        W94629  35.036  38.008   4.738
22205W        W94630  23.180  21.246   0.302
22206W        W94631  12.689  18.742   1.877
22207W        W94632  27.473  18.228  11.023
22208W        W94633  24.050   1.827   4.621
22209W        W94634  12.335  30.477   3.636
22210W        W94635   1.788  33.465   3.824
22211W        W94636  31.614  43.287   2.833
22212W        W94637  44.800  26.098   0.258
22213W        W94638  20.161   8.308  11.976
22214W        W94639  17.569   9.296  12.481
22215W        W94640  10.307  28.133  12.899
22216W        W94641  33.038  43.325   3.785
22217W        W94642  13.213  16.587  11.900
22218W        W94643  38.899  34.986   3.810
22219W        W94644   8.875   4.228   0.309
22220W        W94645  40.511   4.404   0.842
22221W        W94646  20.732  33.935   4.133
22222W        W94647  41.971  33.963  13.003
22223W        W94648   1.801  30.140   4.345
22224W        W94649  41.036  16.696   2.302
22225W        W94650  16.746  24.645   4.797
22226W        W94651  19.074  23.548   1.700
22227W        W94652  28.134  17.603   3.841
22228W        W94653  13.141  11.202   2.746
22229W        W94654  35.037   2.376  11.553
22230W        W94655  41.433  29.656  13.852
22231W        W94656   1.454   5.382  13.531
22232W        W94657   7.304   2.859  13.027
22233W        W94658  36.476   9.391  10.514
22234W        W94659  32.510  14.824  13.989
22235W        W94660  22.559  38.955  13.919
22236W        W94661  11.184  27.985  12.088
22237W        W94662   1.746  41.515   3.217
22238W        W94663  40.871   4.237  14.897
22239W        W94664  27.044   4.718  10.432
22240W        W94665  25.151  41.823  10.458
22241W        W94666  34.536   1.855  14.940
22242W        W94667  37.965   0.880  13.054
22243W        W94668  37.401  21.743  14.983
22244W        W94669  42.031  30.528   4.291
22245W        W94670  38.922  23.019  11.386
22246W        W94671  42.810   0.863  14.383
22247W        W94672  33.405  25.073  12.006
22248W        W94673  32.034  40.524   1.808
22249W        W94674  31.931  33.887   3.355
22250W        W94675  37.385   8.789   0.438
22251W        W94676  12.704  33.991   1.338
22252W        W94677  18.127  31.930   2.829
22253W        W94678  11.707  17.170   0.347
22254W        W94679  36.949  15.773   0.774
22255W        W94680  34.606  40.984   3.168
22256W        W94681  37.962  13.838  14.493
22257W        W94682  23.148  31.998  12.087
22258W        W94683  16.566  11.775   3.197
22259W        W94684  38.991   0.965   2.356
22260W        W94685  18.693  10.203   2.194
22261W        W94686  36.562  38.866   4.160
22262W        W94687  43.883  29.110  11.989
22263W        W94688  24.162  33.052   0.782
22264W        W94689  31.120  13.803  10.508
22265W        W94690  29.614  18.132  11.982
22266W        W94691  28.498  39.056  13.400
22267W        W94692  15.641  20.570  11.125
22268W        W94693  19.613  39.821   4.816
22269W        W94694  36.894  20.579  13.439
22270W        W94695  21.731  42.407  12.857
22271W        W94696  42.367  22.021  12.834
22272W        W94697  38.548  42.013  11.879
22273W        W94698   3.858  21.248   4.670
22274W        W94699  24.230  28.014   4.811
22275W        W94700  15.173  36.387   0.473
22276W        W94701  43.917  17.220  11.106
22277W        W94702  33.529  40.839  11.997
22278W        W94703  21.163  25.576  13.330
22279W        W94704  13.232  43.476   0.851
22280W        W94705  17.153  33.061   0.952
22281W        W94706  39.377   3.753  12.394
22282W        W94707   8.177  16.632   2.766
22283W        W94708  36.392  44.442  10.001
22284W        W94709   3.926  18.657  12.070
22285W        W94710   9.381  32.071  12.504
22286W        W94711  37.005  35.998   4.292
22287W        W94712  24.155  30.621   0.761
22288W        W94713  30.413  11.140  10.920
22289W        W94714  42.330  14.245   4.197
22290W        W94715   1.304  12.807  14.471
22291W        W94716  10.280  14.156  14.841
22292W        W94717  23.569   0.839  10.976
22293W        W94718  27.504   5.832   4.835
22294W        W94719  20.155  40.033   3.228
22295W        W94720  36.908  18.061  12.941
22296W        W94721  36.032  12.790   0.434
22297W        W94722  21.540  39.989   0.298
22298W        W94723  25.581   6.379  14.507
22299W        W94724  42.969   1.960  14.460
22300W        W94725  40.988  29.087  12.567
22301W        W94726  27.667  26.509  12.922
22302W        W94727  40.929  31.462  11.914
22303W        W94728  12.128   4.243   5.732
22304W        W94729  17.182  41.393   2.276
22305W        W94730  32.059  29.462  11.023
22306W        W94731  20.120  26.055  11.442
22307W        W94732   8.389  12.739   2.891
22308W        W94733  10.150  30.515   1.259
22309W        W94734  28.614  13.690  11.032
22310W        W94735   7.236  41.807  11.050
22311W        W94736   4.892  27.941  14.831
22312W        W94737  13.622   4.434  13.917
22313W        W94738  37.345  21.687  12.948
22314W        W94739  32.595  32.067   2.247
22315W        W94740  35.863   1.276  11.507
22316W        W94741  13.252  22.202   9.648
22317W        W94742  30.636   4.716   2.772
22318W        W94743   9.681  27.491  11.030
22319W        W94744   7.835  11.687  11.598
22320W        W94745   2.937  43.968   3.796
22321W        W94746  13.615  27.531   4.762
22322W        W94747  41.380  17.251   4.715
22323W        W94748  11.853  25.048  14.791
22324W        W94749  34.537   4.238   1.773
22325W        W94750  24.521  21.087  11.471
22326W        W94751  22.730   5.743  12.033
22327W        W94752  27.155  40.414  10.447
22328W        W94753  14.781  34.057  12.887
22329W        W94754  11.128  27.648   3.275
22330W        W94755   8.248   5.807  13.515
22331W        W94756  26.667  31.055  10.626
22332W        W94757   3.877  38.443   2.683
22333W        W94758   2.919  44.794  12.078
22334W        W94759  13.791   6.241  12.876
22335W        W94760   8.292   0.897  13.035
22336W        W94761  38.439  42.497  13.967
22337W        W94762   0.362  43.502  12.823
22338W        W94763  43.943  10.792  14.516
22339W        W94764  44.767  15.173   2.885
22340W        W94765  10.771  12.724   5.284
22341W        W94766   7.182   7.693  10.626
22342W        W94767  24.048  39.477  12.361
22343W        W94768  13.691  39.463  12.961
22344W        W94769  42.380   3.256  14.353
22345W        W94770  33.414  14.607   0.318
22346W        W94771  39.974  40.368  12.395
22347W        W94772  18.571  12.752   2.830
22348W        W94773  24.994   9.261   2.212
22349W        W94774   6.743  25.065   2.754
22350W        W94775   2.472  13.221   0.456
22351W        W94776  18.546  35.405  12.918
22352W        W94777  37.067  18.228  10.568
22353W        W94778  43.884  10.227   1.418
22354W        W94779  28.594  12.739   2.255
22355W        W94780   5.406  33.410   1.737
22356W        W94781  33.987  27.072  12.402
22357W        W94782  29.611  15.779  11.438
22358W        W94783  28.028  19.270   0.773
22359W        W94784  24.508  20.163  10.953
22360W        W94785  10.371   4.371  10.562
22361W        W94786  25.691  13.676  11.593
22362W        W94787   2.233   8.231  13.794
22363W        W94788  32.393   9.377  13.491
22364W        W94789   4.922  39.329   3.344
22365W        W94790  37.034  32.012  14.009
22366W        W94791  20.186  17.296  14.402
22367W        W94792  28.617   3.732  13.363
22368W        W94793  26.067  21.060   0.255
22369W        W94794  33.945  11.713   4.644
22370W        W94795  32.511  15.626  10.927
22371W        W94796  44.838   7.797  11.522
22372W        W94797  26.588   7.387  10.410
22373W        W94798  18.604   0.879  12.852
22374W        W94799  40.880  17.767  12.478
22375W        W94800  12.828  16.796   3.257
22376W        W94801  24.119   0.851  12.439
22377W        W94802  31.625  19.277  12.420
22378W        W94803  44.494  27.063   3.326
22379W        W94804  28.008   8.664  13.424
22380W        W94805  43.381  38.937  11.558
22381W        W94806   4.212  21.716   1.819
22382W        W94807  32.120  25.611  14.924
22383W        W94808  27.177  31.923  14.293
22384W        W94809  24.597   3.325   0.443
22385W        W94810  39.005  39.350  10.568
22386W        W94811  23.654  12.796  14.828
22387W        W94812   6.880  18.616  10.629
22388W        W94813  29.642  25.476   2.701
22389W        W94814  24.579   6.920   2.202
22390W        W94815  29.929  15.119   2.402
22391W        W94816   0.336  43.437   4.764
22392W        W94817  23.637  18.719  14.366
22393W        W94818   7.332  19.641  13.441
22394W        W94819  11.650  44.983  11.383
22395W        W94820  30.042  17.153   0.385
22396W        W94821   1.325  12.787   3.741
22397W        W94822  16.137  38.352  10.915
22398W        W94823   5.831  37.387  12.007
22399W        W94824  39.045  16.656  12.047
22400W        W94825  22.633  40.340  12.969
22401W        W94826   8.404  13.740  14.868
22402W        W94827  17.611  19.137  14.438
22403W        W94828   6.338  21.547  12.870
22404W        W94829   4.306   6.272   2.198
22405W        W94830  23.492   7.208   1.233
22406W        W94831  15.255   8.161  12.462
22407W        W94832   7.908   1.283   4.252
22408W        W94833  27.104   3.317  11.118
22409W        W94834  14.297   0.784   5.136
22410W        W94835  37.032  26.155   4.353
22411W        W94836   0.903  17.789  12.954
22412W        W94837  24.647  14.833  14.350
22413W        W94838  37.034  10.330  14.899
22414W        W94839   8.391  42.383   2.352
22415W        W94840  37.457  34.531  14.026
22416W        W94841  16.117   6.397   0.861
22417W        W94842   5.882  18.261  10.969
22418W        W94843  42.876   0.436  11.379
22419W        W94844  38.020  25.984   2.302
22420W        W94845  19.250  15.235  14.834
22421W        W94846   1.259  27.156  14.888
22422W        W94847   2.422  24.581   3.734
22423W        W94848  22.081  24.541  11.570
22424W        W94849  20.625  37.543   0.308
22425W        W94850  17.768  39.408  12.499
22426W        W94851  29.960  16.637  14.796
22427W        W94852   7.393  31.624   0.848
22428W        W94853  42.861  20.620   0.761
22429W        W94854  16.283  18.677  11.532
22430W        W94855   7.800  35.505  14.402
22431W        W94856   4.312  20.708   2.819
22432W        W94857  35.933  21.098   1.728
22433W        W94858  19.605  25.083  12.544
22434W        W94859  37.986  41.487  11.459
22435W        W94860  32.488  24.056  14.279
22436W        W94861   1.419  28.028  11.126
22437W        W94862  37.359  29.959  13.371
22438W        W94863  15.802   0.843  12.412
22439W        W94864  30.648  31.101   1.272
22440W        W94865  32.115   3.719   0.788
22441W        W94866   5.744  44.479   3.329
22442W        W94867  38.395  19.124  12.435
22443W        W94868   8.392  41.460   4.332
22444W        W94869  28.033  23.057  12.940
22445W        W94870  18.741  26.635   2.798
22446W        W94871   9.688   7.415  14.493
22447W        W94872  20.131  13.634  14.479
22448W        W94873  31.582  38.883  10.410
22449W        W94874  36.092  13.273   5.205
22450W        W94875  15.127  40.306  12.890
22451W        W94876  31.028  27.035  14.313
22452W        W94877   8.208  28.938   2.742
22453W        W94878  38.028  35.585  10.966
22454W        W94879  21.168  38.024   3.867
22455W        W94880  16.674  17.607  12.988
22456W        W94881  10.827   2.782   1.261
22457W        W94882  10.230   8.252  12.447
22458W        W94883  36.061   1.311   2.845
22459W        W94884  34.515  41.425  13.324
22460W        W94885  22.577   3.256  13.440
22461W        W94886  27.001  33.947   1.930
22462W        W94887  43.351   9.854  13.861
22463W        W94888   9.756   2.894   3.728
22464W        W94889   8.748  27.665  12.927
22465W        W94890  30.128  31.961   0.839
22466W        W94891  12.638  26.531   1.780
22467W        W94892   6.694  10.831  13.356
22468W        W94893  10.239  28.158   4.672
22469W        W94894   9.352  29.946  11.388
22470W        W94895   0.884  30.006   4.783
22471W        W94896  37.958  39.447   4.134
22472W        W94897  13.199  26.186  10.484
22473W        W94898  13.806  29.016  12.906
22474W        W94899   3.219  43.400   3.252
22475W        W94900  24.035  44.393  13.325
22476W        W94901  16.782  33.380  13.965
22477W        W94902  17.119  36.985   3.768
22478W        W94903  30.070  18.713   2.198
22479W        W94904  16.102  26.530  10.928
22480W        W94905   2.428  35.543  11.938
22481W        W94906  31.995  37.468   2.802
22482W        W94907   1.965  18.116   0.951
22483W        W94908   4.749   7.691  12.008
22484W        W94909   8.403  24.177  11.064
22485W        W94910  27.504   5.383  14.431
22486W        W94911  25.980  15.643   1.376
22487W        W94912  18.140  32.043  11.883
22488W        W94913   1.839  14.604  11.583
22489W        W94914  32.032   3.782   1.369
22490W        W94915  23.051  23.197   4.255
22491W        W94916  15.784   9.749  14.902
22492W        W94917  44.920  39.995  11.394
22493W        W94918  14.324  31.413   1.379
22494W        W94919   6.815  14.716   3.834
22495W        W94920  39.523   1.895   2.714
22496W        W94921  32.487   2.372   3.696
22497W        W94922  10.281  27.041   2.773
22498W        W94923  19.590   1.965   3.190
22499W        W94924  41.797  22.548  14.465
22500W        W94925   9.391  44.426   4.747
22501W        W94926  14.120  36.904   1.396
22502W        W94927  42.294  44.810  13.372
22503W        W94928  12.753  16.124  10.902
22504W        W94929   2.388  27.543   4.748
22505W        W94930  39.517  16.169   0.315
22506W        W94931   0.861  15.763   9.920
22507W        W94932  44.361  28.513  14.931
22508W        W94933  36.976   0.974  14.978
22509W        W94934  21.119  40.874   4.638
22510W        W94935  27.065  41.500   4.242
22511W        W94936  37.889  29.143  10.578
22512W        W94937  19.159   8.713   0.377
22513W        W94938  40.493   2.365  11.013
22514W        W94939  10.178  38.923   5.151
22515W        W94940  11.754   9.296   4.654
22516W        W94941  30.953  22.090   0.484
22517W        W94942  26.628  29.130   2.263
22518W        W94943  28.512   4.863   4.340
22519W        W94944  31.597  11.697   2.248
22520W        W94945  36.867  38.525  14.792
22521W        W94946  39.475  24.206   2.220
22522W        W94947  32.889  35.875   0.865
22523W        W94948   9.777  35.366  14.360
22524W        W94949   9.216   1.246  14.779
22525W        W94950  17.293  24.624  12.081
22526W        W94951   5.787   3.414  12.998
22527W        W94952  13.311  18.230  10.489
22528W        W94953  12.773  30.581  14.500
22529W        W94954   8.321  17.135   4.816
22530W        W94955   7.702  31.991   3.288
22531W        W94956  31.074  31.110  11.073
22532W        W94957   1.922  33.387  11.534
22533W        W94958  27.448  32.141  14.823
22534W        W94959  27.482  27.193   4.654
22535W        W94960  16.137  23.679  14.947
22536W        W94961  44.003  19.565  14.009
22537W        W94962  31.410  21.556   3.736
22538W        W94963   6.904  13.686   4.713
22539W        W94964  42.939   5.252   2.223
22540W        W94965   6.798  27.456   1.725
22541W        W94966  23.669  11.834  14.343
22542W        W94967  35.576  15.151   2.780
22543W        W94968  28.129  25.193  10.080
22544W        W94969  15.717   2.340  13.923
22545W        W94970  34.380  23.524  11.041
22546W        W94971  25.088  40.527  13.018
22547W        W94972  11.653  22.679  11.076
22548W        W94973  32.892  43.898  13.352
22549W        W94974  30.912  35.371  14.512
22550W        W94975  22.719  32.132   3.329
22551W        W94976  35.397  19.537  12.070
22552W        W94977  33.506   7.320   3.803
22553W        W94978  31.480  26.042  12.904
22554W        W94979  35.482  37.367   1.337
22555W        W94980   1.831  15.266   3.869
22556W        W94981  19.553  25.711  10.943
22557W        W94982   6.306   3.839  11.892
22558W        W94983  26.101  23.511  11.585
22559W        W94984  29.453  42.514  13.043
22560W        W94985  42.861  21.713   2.300
22561W        W94986  26.206  23.115  14.283
22562W        W94987   8.847  15.794   5.257
22563W        W94988  17.800  43.014  14.780
22564W        W94989  30.971  24.526   4.814
22565W        W94990  25.978  15.605   3.690
22566W        W94991  33.433  13.105  11.513
22567W        W94992  31.425  40.450  11.495
22568W        W94993  41.794   1.294   2.297
22569W        W94994  11.251   2.440  12.486
22570W        W94995  31.488  32.616   0.245
22571W        W94996  21.514  10.142  14.845
22572W        W94997   9.352   6.806   4.339
22573W        W94998  31.455  44.788   4.612
22574W        W94999  23.212  26.190  13.375
22575W        W95000  26.521  25.176   1.695
22576W        W95001  38.373  36.499   1.410
22577W        W95002  18.710   8.752  11.525
22578W        W95003   8.755  44.430   4.223
22579W        W95004   2.470   2.245  13.005
22580W        W95005  16.585  28.555  13.933
22581W        W95006  12.771   3.767   3.324
22582W        W95007   7.752  21.114  12.946
22583W        W95008   4.415  17.063   1.418
22584W        W95009  26.035  32.041   1.328
22585W        W95010  37.974  32.569  13.374
22586W        W95011  28.939  21.149   3.196
22587W        W95012  34.428  44.333   0.893
22588W        W95013  10.788   7.289   1.301
22589W        W95014  18.216  20.638  10.888
22590W        W95015  39.455  38.877   3.159
22591W        W95016   9.205   2.849   4.764
22592W        W95017  19.591  44.775   2.346
22593W        W95018  26.589  18.574  10.543
22594W        W95019  30.020  16.684   4.647
22595W        W95020  11.710   6.699   1.446
22596W        W95021  36.964  11.640  11.409
22597W        W95022  22.143   7.289  14.416
22598W        W95023  34.909  42.947  13.508
22599W        W95024   0.787  24.062   2.395
22600W        W95025  25.556  16.679  12.971
22601W        W95026  23.652  40.036  14.512
22602W        W95027  15.703   7.186  14.414
22603W        W95028  25.133  13.312  10.544
22604W        W95029  28.611  30.028   4.260
22605W        W95030  29.101  29.510   2.306
22606W        W95031   3.849  22.588   3.717
22607W        W95032  29.598  10.233   0.262
22608W        W95033  14.788  24.721   0.948
22609W        W95034  16.204   0.433  13.353
22610W        W95035   3.869  29.155  13.444
22611W        W95036  18.595   2.880  12.890
22612W        W95037  11.850   0.444  13.826
22613W        W95038  15.682  16.174  12.571
22614W        W95039   4.285  17.686  14.834
22615W        W95040  37.497  12.305  12.386
22616W        W95041  20.635  22.732   3.658
22617W        W95042   2.427  19.126  13.355
22618W        W95043   4.288   8.190   4.235
22619W        W95044   1.891  37.531   3.330
22620W        W95045  20.569   8.182   2.418
22621W        W95046   2.372  42.925  10.603
22622W        W95047   0.252   3.364   2.875
22623W        W95048  23.144   5.771  14.484
22624W        W95049  41.476  29.160   3.730
22625W        W95050  11.787  21.197   5.237
22626W        W95051  10.715  14.651  13.497
22627W        W95052  13.283  14.703   2.824
22628W        W95053  28.967  38.421  12.082
22629W        W95054  18.610  26.050  13.890
22630W        W95055  14.331  22.181   5.143
22631W        W95056  29.171   8.775   0.321
22632W        W95057  22.577   9.249   3.862
22633W        W95058  42.946  38.347   2.815
22634W        W95059  43.359  30.652  12.370
22635W        W95060  40.935  21.114  11.026
22636W        W95061  35.989  38.552  12.058
22637W        W95062  14.284  12.739  11.536
22638W        W95063  13.190   1.926   2.677
22639W        W95064  18.705  44.302   2.216
22640W        W95065  18.780  22.523   1.721
22641W        W95066  24.050   0.285   4.770
22642W        W95067   4.703  32.592  11.586
22643W        W95068  36.511   2.311  13.928
22644W        W95069  28.586  27.987   3.159
22645W        W95070  17.576  12.146   3.648
22646W        W95071   9.654  32.099   9.923
22647W        W95072   5.220  22.171  13.996
22648W        W95073  28.590  41.483  13.372
22649W        W95074  29.584  41.866   0.790
22650W        W95075   8.246   3.945  10.637
22651W        W95076  11.165  44.279  13.805
22652W        W95077  11.715  26.486  10.135
22653W        W95078  27.009  26.197  11.510
22654W        W95079  21.578  25.213  12.349
22655W        W95080  16.085   6.868   0.872
22656W        W95081  10.169  17.773  11.095
22657W        W95082  36.995   8.171   1.443
22658W        W95083  22.620  14.225   0.296
22659W        W95084  23.521  17.065   0.934
22660W        W95085   5.692   8.291   2.672
22661W        W95086   4.922  22.053   4.682
22662W        W95087  21.261  32.437  11.573
22663W        W95088  16.117   3.299  12.050
22664W        W95089  22.155  36.350   0.415
22665W        W95090  10.669  44.863  13.905
22666W        W95091   9.151   8.856  14.920
22667W        W95092  20.575  42.910  12.095
22668W        W95093   1.847  33.961  14.871
22669W        W95094  15.263   2.433   4.829
22670W        W95095  24.516   5.407   0.865
22671W        W95096  43.335  23.682   0.300
22672W        W95097  25.562  27.179   4.667
22673W        W95098  15.260  24.126  12.525
22674W        W95099  44.344  44.275   2.217
22675W        W95100  12.760   7.817   1.290
22676W        W95101  34.410  27.057  13.015
22677W        W95102  43.279  20.269   3.721
22678W        W95103   4.766  28.629  11.859
22679W        W95104  12.214  12.650  13.984
22680W        W95105  17.718  42.323   3.787
22681W        W95106  35.971   8.392  11.097
22682W        W95107  38.544  21.552   1.905
22683W        W95108  11.273   8.167   2.892
22684W        W95109  10.802  36.040   3.644
22685W        W95110  27.635  40.472   4.797
22686W        W95111  14.673  21.630   4.334
22687W        W95112  41.960  31.525   2.828
22688W        W95113  18.231  25.522   0.803
22689W        W95114  19.060  39.845   4.788
22690W        W95115  31.569  26.980   1.799
22691W        W95116  21.553  31.024   4.125
22692W        W95117  11.763   6.363   0.252
22693W        W95118  14.722  14.833   3.821
22694W        W95119  30.459  43.011  12.015
22695W        W95120  29.966  36.405  12.861
22696W        W95121  12.766   3.379  13.454
22697W        W95122  35.072  43.477  13.410
22698W        W95123   9.737   6.250   1.851
22699W        W95124  23.712  25.471  12.941
22700W        W95125  35.543  10.307   0.245
22701W        W95126  12.244  22.540   4.214
22702W        W95127  40.395  44.288  10.923
22703W        W95128   3.387  10.333   2.736
22704W        W95129  29.969  27.664  14.021
22705W        W95130   7.304  30.502  11.415
22706W        W95131  28.629  42.801   2.255
22707W        W95132  23.634   6.211  13.449
22708W        W95133  43.926  31.478   2.253
22709W        W95134  18.587  40.046   2.189
22710W        W95135  37.558  15.819  13.012
22711W        W95136  43.812  16.147  12.954
22712W        W95137   6.407  18.279   5.098
22713W        W95138  11.305  25.160  14.491
22714W        W95139   9.743  37.360   1.248
22715W        W95140  38.987  23.511   0.443
22716W        W95141   5.209   6.219  13.997
22717W        W95142  16.277  36.881   0.741
22718W        W95143  20.733  39.550   4.170
22719W        W95144  38.001   9.825  11.454
22720W        W95145  25.697   4.336   3.292
22721W        W95146  37.867  17.094  13.877
22722W        W95147  10.669   5.403   2.256
22723W        W95148  20.555   9.188  11.120
22724W        W95149  11.814  16.602   1.340
22725W        W95150  19.101   9.743   2.404
22726W        W95151  22.158  27.941  13.326
22727W        W95152  11.821  44.950  11.982
22728W        W95153  28.101  36.386  14.859
22729W        W95154  17.692  40.836  11.553
22730W        W95155   7.212   9.758   2.409
22731W        W95156  23.079  44.293   3.336
22732W        W95157  20.051  42.931  14.982
22733W        W95158  26.565   2.261  13.955
22734W        W95159   8.744  42.896   3.710
22735W        W95160  14.655   8.696   4.697
22736W        W95161  41.471   8.800   3.672
22737W        W95162  21.139  16.161  14.864
22738W        W95163   2.853  34.102  14.948
22739W        W95164   5.378   0.278  14.974
22740W        W95165  41.532   7.292   0.809
22741W        W95166   4.933  21.017   1.390
22742W        W95167  30.610  10.666  14.787
22743W        W95168  38.358   6.754   3.692
22744W        W95169  30.445  25.485   2.716
22745W        W95170  10.243  30.484   3.771
22746W        W95171  31.592  21.121  13.363
22747W        W95172  38.845   9.356   5.100
22748W        W95173  44.461  33.976   9.577
22749W        W95174  35.003  29.930  12.410
22750W        W95175  38.560  37.538  13.993
22751W        W95176  18.189  29.667  13.318
22752W        W95177  39.982  42.833  13.013
22753W        W95178  29.988  31.498   0.856
22754W        W95179   8.850  20.188  11.106
22755W        W95180  10.654  15.808   3.773
22756W        W95181  24.095  32.069  14.364
22757W        W95182   5.406  34.050   4.332
22758W        W95183  43.451  36.385  13.441
22759W        W95184   2.792  19.128   2.669
22760W        W95185  40.352  23.164  14.281
22761W        W95186  43.393  17.626  11.045
22762W        W95187  11.306   5.801   4.201
22763W        W95188  19.243   4.247  11.540
22764W        W95189  16.781  25.606   3.815
22765W        W95190  40.923  21.055  13.898
22766W        W95191  42.390  23.512  11.982
22767W        W95192  16.301   6.343   3.823
22768W        W95193   1.866  26.053   2.734
22769W        W95194  28.543  34.980  12.917
22770W        W95195   3.289  40.877  13.309
22771W        W95196   3.224  31.522  13.013
22772W        W95197  35.584  43.866   3.703
22773W        W95198  39.864   7.756   2.297
22774W        W95199  35.938  24.490  14.982
22775W        W95200  28.675   2.415  12.341
22776W        W95201  38.980  10.638  13.043
22777W        W95202  25.673  17.269   3.163
22778W        W95203  44.838  41.011  11.406
22779W        W95204  32.894  36.510  12.035
22780W        W95205  25.139  31.447  14.957
22781W        W95206  28.938  39.538  14.454
22782W        W95207  22.194  23.180   0.425
22783W        W95208  36.844  27.159  13.064
22784W        W95209   1.789  30.025   2.296
22785W        W95210  18.581  33.546  11.095
22786W        W95211  22.693  37.071   1.774
22787W        W95212  43.414  35.059   2.709
22788W        W95213  42.975  26.965   4.746
22789W        W95214  31.456   4.427  14.017
22790W        W95215  37.515   4.382  13.503
22791W        W95216  17.786  32.531  12.984
22792W        W95217   6.840  26.020  11.858
22793W        W95218  31.118  39.959  13.489
22794W        W95219  18.749  35.082  11.458
22795W        W95220  34.433   4.834  12.878
22796W        W95221  26.493  33.428   4.219
22797W        W95222  35.905  22.031  12.842
22798W        W95223  20.636  15.733   4.285
22799W        W95224  38.459  29.515   3.749
22800W        W95225  32.628  21.215  10.987
22801W        W95226   3.437  44.323  10.931
22802W        W95227  36.925  34.875   0.455
22803W        W95228   1.371  29.546   1.307
22804W        W95229  17.210  15.183   3.659
22805W        W95230  32.985   8.817  13.369
22806W        W95231  32.930  42.475  13.003
22807W        W95232  41.335  28.623   0.926
22808W        W95233  34.075  12.740   3.212
22809W        W95234  16.144  33.095  14.960
22810W        W95235  23.120   1.432   2.763
22811W        W95236  22.050  25.036  11.948
22812W        W95237  22.513  42.966   5.250
22813W        W95238  39.838  21.532  13.846
22814W        W95239  37.489  24.588   4.630
22815W        W95240   5.333   2.247   3.235
22816W        W95241   3.870   5.327  14.956
22817W        W95242  29.961   8.778   4.343
22818W        W95243  31.039   6.825  10.892
22819W        W95244  15.676  31.606   0.342
22820W        W95245   6.688  40.934  10.924
22821W        W95246  11.858  30.432  11.052
22822W        W95247  10.244  29.176  14.999
22823W        W95248  12.678  28.511   1.808
22824W        W95249  39.328  43.804   1.220
22825W        W95250  20.135   4.898  11.087
22826W        W95251  28.450  41.315   4.812
22827W        W95252   2.417  38.937  12.966
22828W        W95253   9.307  42.020   4.254
22829W        W95254  23.026  18.219  13.949
22830W        W95255   7.860  17.100   1.278
22831W        W95256  35.071  36.033   0.805
22832W        W95257   3.368  22.022  14.814
22833W        W95258   4.943  37.969  13.484
22834W        W95259  11.703   4.783   4.710
22835W        W95260  31.963  17.114   2.863
22836W        W95261   2.773  15.233   3.734
22837W        W95262  17.559  27.049   0.890
22838W        W95263  35.374  10.798  12.994
22839W        W95264  24.018  32.611   3.701
22840W        W95265  31.639  26.622  11.471
22841W        W95266  24.140   7.721  14.381
22842W        W95267  43.375   4.355  13.915
22843W        W95268   8.203   5.242  13.462
22844W        W95269  23.509  30.165   4.799
22845W        W95270  30.537   8.867  12.954
22846W        W95271  38.541  10.293   4.190
22847W        W95272  26.978  23.076   2.685
22848W        W95273  37.946   3.392   2.686
22849W        W95274  14.135  37.886  14.892
22850W        W95275   6.247  25.976  11.513
22851W        W95276  33.502  44.456   5.108
22852W        W95277  16.677   9.289  11.430
22853W        W95278  35.401   1.379   1.791
22854W        W95279   0.421  20.625   3.833
22855W        W95280  12.795  35.983  11.567
22856W        W95281  41.489   3.416   5.319
22857W        W95282  22.523  34.423   4.252
22858W        W95283   0.823   5.359  11.897
22859W        W95284  18.639  37.383  14.827
22860W        W95285  20.739  10.222  11.555
22861W        W95286  11.354  32.014   0.813
22862W        W95287  16.719  26.479   2.307
22863W        W95288  30.576  31.511  14.437
22864W        W95289  43.443  30.043   3.204
22865W        W95290   1.341  22.682   0.372
22866W        W95291  15.720  21.583  14.284
22867W        W95292  41.390  24.016  13.312
22868W        W95293   8.199   2.786   0.339
22869W        W95294  31.911  12.708   4.637
22870W        W95295  13.827  20.585  12.874
22871W        W95296  26.587  24.017   5.304
22872W        W95297  44.297  18.752  14.835
22873W        W95298   8.660   2.287  13.958
22874W        W95299   8.216  13.144  11.117
22875W        W95300   2.726  20.695   2.418
22876W        W95301  21.112  30.540  11.402
22877W        W95302   1.751  19.175   3.370
22878W        W95303   1.828   1.973   2.836
22879W        W95304  27.621   1.894  14.478
22880W        W95305  28.118  34.607  11.388
22881W        W95306  40.957  28.962  12.998
22882W        W95307  35.400  19.071  11.387
22883W        W95308   6.298  26.465  11.382
22884W        W95309   4.931  26.019   2.739
22885W        W95310  41.868  11.692   0.247
22886W        W95311  11.793  12.225  10.989
22887W        W95312  41.990  17.072  14.465
22888W        W95313  22.092   7.385   2.691
22889W        W95314  41.834   9.777   3.629
22890W        W95315  44.456   1.468   3.256
22891W        W95316   7.800   2.347   0.938
22892W        W95317  27.658  39.339   3.809
22893W        W95318  15.819   4.903  11.898
22894W        W95319  10.339  32.511   0.282
22895W        W95320  18.628  20.642   1.886
22896W        W95321  41.469  37.511  11.521
22897W        W95322  22.010  16.138  12.029
22898W        W95323  27.589  44.003  10.573
22899W        W95324  27.642  43.389   0.307
22900W        W95325  11.128  38.529  11.098
22901W        W95326  32.550  40.324   1.879
22902W        W95327  44.265   4.793  10.427
22903W        W95328   2.859  18.777  10.944
22904W        W95329   8.850  24.206   4.765
22905W        W95330  18.553   2.862   0.949
22906W        W95331  43.455  17.626   0.289
22907W        W95332  31.581  32.447  12.450
22908W        W95333  40.537  40.878   0.909
22909W        W95334  37.846  17.562   4.745
22910W        W95335  33.408  39.550   4.647
22911W        W95336  22.659  12.284   1.811
22912W        W95337  34.867  42.832   4.702
22913W        W95338  22.099   2.448   2.746
22914W        W95339  10.759  11.643  11.067
22915W        W95340  37.557  43.448  10.499
22916W        W95341  10.275  12.338   1.696
22917W        W95342  15.608  13.702   2.317
22918W        W95343  19.188  18.557   0.253
22919W        W95344  37.965  43.319   3.178
22920W        W95345  29.592  21.073  13.501
22921W        W95346  17.788  43.347   0.379
22922W        W95347  25.624  28.474   4.689
22923W        W95348  42.285  42.470  12.430
22924W        W95349   9.379   8.166   0.392
22925W        W95350  39.902  12.779   4.599
22926W        W95351  41.439   1.842  13.476
22927W        W95352  22.637   8.698   3.357
22928W        W95353  24.488  13.623  14.313
22929W        W95354  36.062   0.292   3.322
22930W        W95355   1.319  26.077  11.526
22931W        W95356   9.874  13.828   3.238
22932W        W95357  44.843  43.365  14.510
22933W        W95358  27.120  11.718   4.689
22934W        W95359   2.833   6.365  12.837
22935W        W95360  27.159  19.601   2.213
22936W        W95361  18.788  28.170  10.409
22937W        W95362  22.564  25.552   0.906
22938W        W95363  17.645  16.099  11.524
22939W        W95364  28.478  23.995   1.929
22940W        W95365  34.500   4.714  11.543
22941W        W95366  11.308  23.157  11.897
22942W        W95367   0.923  44.850   0.402
22943W        W95368  21.643   4.240  11.409
22944W        W95369  41.455  11.149  11.388
22945W        W95370  14.617  12.640  14.872
22946W        W95371  24.583  23.547   3.721
22947W        W95372  28.969  11.626  11.565
22948W        W95373   2.307  16.278   3.163
22949W        W95374  12.148  29.025   0.892
22950W        W95375  12.130   7.334  10.450
22951W        W95376  31.133  26.137  13.403
22952W        W95377   9.770  43.340  14.285
22953W        W95378  27.946   4.827   2.727
22954W        W95379  13.761  43.389   0.333
22955W        W95380  35.518  29.950  14.011
22956W        W95381   8.309  30.002  12.060
22957W        W95382  10.222  35.464   4.241
22958W        W95383  41.912  43.504   3.361
22959W        W95384  19.160  40.052   4.344
22960W        W95385  11.658   2.269   2.397
22961W        W95386  37.974  16.678  10.536
22962W        W95387  12.753  17.593  13.815
22963W        W95388   6.339  14.808  13.885
22964W        W95389  26.017  25.215  11.885
22965W        W95390  25.092  13.200   2.834
22966W        W95391   8.714  39.380  10.421
22967W        W95392   8.199  34.392  12.891
22968W        W95393  11.229  29.533   3.284
22969W        W95394  42.482  21.077   4.645
22970W        W95395  19.243  44.760  14.025
22971W        W95396  38.854  34.405  11.526
22972W        W95397  23.671  43.829  10.973
22973W        W95398  30.070  30.970  10.912
22974W        W95399  16.766  27.125  12.826
22975W        W95400  44.896  38.326  14.917
22976W        W95401   9.868  40.526  10.515
22977W        W95402   2.858  41.940  12.548
22978W        W95403   2.245  26.617   9.994
22979W        W95404  10.335  19.168  10.575
22980W        W95405   2.806  31.594  14.918
22981W        W95406   4.301  11.825  12.488
22982W        W95407  10.268  14.661  12.945
22983W        W95408  40.907  29.992   2.806
22984W        W95409   5.279  21.208  10.894
22985W        W95410  31.547  43.398   1.774
22986W        W95411  19.594  42.868   1.219
22987W        W95412  25.680  29.099  13.318
22988W        W95413   0.779  23.206  12.929
22989W        W95414   7.818  40.514   0.850
22990W        W95415  19.625  37.533  11.388
22991W        W95416   7.797  11.714  13.985
22992W        W95417  30.051   0.872  11.494
22993W        W95418  31.440  26.076   3.379
22994W        W95419  44.407   9.393  10.525
22995W        W95420   1.940  40.822   0.898
22996W        W95421   3.405  12.724   4.172
22997W        W95422  16.127  27.484   4.214
22998W        W95423  16.295  26.700  14.454
22999W        W95424  29.110  17.759  12.517
23000W        W95425  21.069  14.106  12.987
23001W        W95426   8.877  44.913  10.960
23002W        W95427   0.473  31.898   0.806
23003W        W95428  42.955   5.760   1.736
23004W        W95429  43.882  37.014   3.788
23005W        W95430  44.339  23.541   2.800
23006W        W95431   0.847   4.849  14.492
23007W        W95432  28.038  20.164   4.683
23008W        W95433  15.297  22.107   1.359
23009W        W95434  13.291  33.884   4.246
23010W        W95435  37.910  25.475  13.336
23011W        W95436   3.895  40.517   3.296
23012W        W95437  18.208  40.980  12.896
23013W        W95438  34.426  20.654   3.856
23014W        W95439  41.477  36.439   4.153
23015W        W95440   9.218   2.449   0.253
23016W        W95441  32.497  33.889   4.138
23017W        W95442  26.985  18.184   3.302
23018W        W95443  36.436  16.608  11.856
23019W        W95444  20.119  40.320   2.785
23020W        W95445  43.898  38.343   0.751
23021W        W95446   3.228  41.808  10.416
23022W        W95447  12.729  36.524   0.267
23023W        W95448  23.705  38.905  14.798
23024W        W95449  42.873  40.542   1.416
23025W        W95450   1.358   9.307  13.512
23026W        W95451  15.817  21.229  12.407
23027W        W95452  17.665  30.955   3.658
23028W        W95453   6.876   4.343   4.833
23029W        W95454  15.713  21.513  11.924
23030W        W95455  43.516  38.437  14.413
23031W        W95456  22.660  37.524   2.672
23032W        W95457  12.251  20.106   4.145
23033W        W95458  27.072  14.733  11.108
23034W        W95459   4.417  19.752  11.472
23035W        W95460  17.214  31.023   2.227
23036W        W95461  33.055  31.615  10.498
23037W        W95462  30.445  11.712   3.259
23038W        W95463  41.305  24.705  11.928
23039W        W95464  37.980  16.670  13.824
23040W        W95465  39.813  38.951  11.021
23041W        W95466  31.971  33.462  14.278
23042W        W95467  28.183  38.439  10.147
23043W        W95468  25.593  37.530   5.264
23044W        W95469   8.239  24.157  10.536
23045W        W95470  23.039  16.660   4.693
23046W        W95471  44.862  20.230   1.410
23047W        W95472  17.108  29.573  10.093
23048W        W95473  39.877  43.006  13.333
23049W        W95474   1.380  32.531  12.363
23050W        W95475   0.306  34.006  14.321
23051W        W95476  23.551  32.916  11.963
23052W        W95477  44.785  26.669   1.902
23053W        W95478  10.142  35.053  12.523
23054W        W95479  43.317   4.322  14.443
23055W        W95480  13.261  44.758   3.730
23056W        W95481   6.778  16.573  10.945
23057W        W95482   5.333  41.400   4.747
23058W        W95483  19.552  26.668   4.643
23059W        W95484   0.275  32.017   5.636
23060W        W95485  17.766  44.907  10.607
23061W        W95486  30.594   6.388   1.346
23062W        W95487   7.248  21.123  14.441
23063W        W95488   8.746  29.619   0.300
23064W        W95489  29.614  29.102  10.632
23065W        W95490   4.437  32.512   3.682
23066W        W95491  27.459  39.921   2.285
23067W        W95492  38.384  34.516  10.533
23068W        W95493  41.348  43.870   2.832
23069W        W95494  23.188   7.363   1.797
23070W        W95495  23.129  34.905  12.351
23071W        W95496  13.113  32.022  11.504
23072W        W95497   5.273  42.481  10.476
23073W        W95498  36.040  41.916  11.019
23074W        W95499  27.088  31.457  10.931
23075W        W95500  19.046   1.448  13.419
23076W        W95501  39.907   1.483   0.400
23077W        W95502   3.279  25.161  14.825
23078W        W95503   3.736  35.932  11.042
23079W        W95504  23.674  28.616   0.935
23080W        W95505   7.292   5.702  14.452
23081W        W95506   0.897  43.928   0.313
23082W        W95507   7.785  39.954   3.317
23083W        W95508   2.815  20.716  13.015
23084W        W95509  27.607  40.438   5.756
23085W        W95510  24.153  16.164  12.418
23086W        W95511   4.220   7.845  13.380
23087W        W95512  37.874  19.609  10.965
23088W        W95513  38.547  20.585  13.522
23089W        W95514  25.647   5.293   0.387
23090W        W95515  42.498  20.760  12.396
23091W        W95516  28.994  18.149  12.501
23092W        W95517  29.000  42.945  10.925
23093W        W95518  14.203  36.082   4.655
23094W        W95519  30.024  16.725  12.902
23095W        W95520  32.115  23.602  13.524
23096W        W95521   5.725   8.328   1.369
23097W        W95522  17.215   8.219   2.407
23098W        W95523  31.151  22.501  10.425
23099W        W95524   8.877  18.250  10.997
23100W        W95525  22.233   9.754  14.823
23101W        W95526  28.054  18.647  12.373
23102W        W95527  32.941  22.134  14.832
23103W        W95528  12.842  33.993  13.023
23104W        W95529  44.828   2.241  14.305
23105W        W95530   5.349  39.876   2.798
23106W        W95531  10.154  14.802  13.541
23107W        W95532   2.802  11.656   1.717
23108W        W95533  25.216  12.617  14.914
23109W        W95534  34.414  22.713  13.387
23110W        W95535  32.609  19.165   0.337
23111W        W95536   1.822   7.681  11.964
23112W        W95537   5.341  10.779   1.348
23113W        W95538   4.733  40.962   1.864
23114W        W95539  12.733  20.047   3.211
23115W        W95540  42.318  15.736  12.496
23116W        W95541  37.977  32.475   3.366
23117W        W95542  40.479   0.249   0.730
23118W        W95543  31.632  14.813  12.987
23119W        W95544  19.166  34.885   2.249
23120W        W95545  18.067  21.590  13.408
23121W        W95546   1.846  39.480  14.765
23122W        W95547  20.061  37.375   4.187
23123W        W95548  20.070  18.101  14.965
23124W        W95549  11.152  43.423   0.960
23125W        W95550   6.266  18.210  14.489
23126W        W95551  10.656  27.949   2.383
23127W        W95552  17.132  30.460  11.489
23128W        W95553  35.926  43.019   5.320
23129W        W95554   0.349  23.005   3.161
23130W        W95555  32.476  12.260  12.546
23131W        W95556  11.291  12.692   2.274
23132W        W95557   2.335  12.283  12.483
23133W        W95558  11.288  18.123  10.459
23134W        W95559  35.558  44.759   2.409
23135W        W95560  15.190  16.805   1.737
23136W        W95561  15.273  44.885  12.917
23137W        W95562  23.620  22.095   2.183
23138W        W95563  17.263  40.413   4.744
23139W        W95564  29.164   1.773  13.491
23140W        W95565  32.488  31.980   4.823
23141W        W95566  30.159  20.665  12.890
23142W        W95567  40.509   6.246   5.305
23143W        W95568  26.040  14.595  12.449
23144W        W95569  37.054  33.481   2.798
23145W        W95570  17.137  36.392   3.750
23146W        W95571  27.151  27.039   4.252
23147W        W95572  10.143   8.782  14.886
23148W        W95573  34.939  35.932  12.847
23149W        W95574  25.140  15.129  12.852
23150W        W95575   9.812  17.597  11.967
23151W        W95576  32.942  33.122  14.824
23152W        W95577  29.119  12.221   4.807
23153W        W95578  27.110  13.732  11.010
23154W        W95579  16.678  37.410  10.579
23155W        W95580  39.976  35.553  11.088
23156W        W95581  28.554  26.957  12.928
23157W        W95582  35.077  37.999  14.973
23158W        W95583  37.489   0.885   2.221
23159W        W95584  21.560  30.568  12.521
23160W        W95585  18.178  34.088  10.607
23161W        W95586   8.281  23.565   1.405
23162W        W95587   7.868  17.069  11.026
23163W        W95588  18.160  17.114   1.234
23164W        W95589  40.401   9.333  10.409
23165W        W95590  25.696  10.637   0.901
23166W        W95591   1.391  43.775  10.541
23167W        W95592  39.499  17.761  13.835
23168W        W95593  42.350  34.094   4.234
23169W        W95594   9.246  33.505   0.781
23170W        W95595   4.287  39.941  12.515
23171W        W95596  28.942  33.424   3.749
23172W        W95597  35.459   7.342  10.011
23173W        W95598   5.411  18.718   0.949
23174W        W95599  28.060   9.206   3.160
23175W        W95600  12.224  40.997   0.394
23176W        W95601  18.279  30.641   2.721
23177W        W95602  11.650  36.401   2.209
23178W        W95603   8.296   4.833  12.983
23179W        W95604  15.675  22.573  13.519
23180W        W95605   8.714  12.275  13.367
23181W        W95606  27.482  43.394  13.368
23182W        W95607  28.108  30.654   2.750
23183W        W95608  28.463   7.377   3.263
23184W        W95609  38.859  42.004   0.743
23185W        W95610  17.729  42.521  12.858
23186W        W95611   3.755  31.410  11.507
23187W        W95612  32.068  11.353   1.834
23188W        W95613  23.575  38.999  10.990
23189W        W95614  40.937   3.954  11.602
23190W        W95615  41.846  10.731   1.252
23191W        W95616  38.894   4.847  11.398
23192W        W95617  38.987  13.217  13.800
23193W        W95618  37.380  29.093  10.493
23194W        W95619  30.091   0.829   0.351
23195W        W95620  10.372  42.977   4.247
23196W        W95621  28.972  35.077  12.476
23197W        W95622  36.927  27.028   1.340
23198W        W95623  11.660   9.646   4.113
23199W        W95624  10.693  44.769   3.203
23200W        W95625  37.869  14.748  11.537
23201W        W95626  23.640  17.686  12.475
23202W        W95627  42.948  42.877  14.878
23203W        W95628  42.339  23.057   9.598
23204W        W95629  32.513  28.144  13.353
23205W        W95630  39.843  26.024  13.064
23206W        W95631  43.343   3.823   1.740
23207W        W95632  11.731  13.152   4.640
23208W        W95633   0.372  37.342  14.376
23209W        W95634  33.956  38.405   1.796
23210W        W95635   7.195  44.320  11.035
23211W        W95636  38.050   8.229   3.276
23212W        W95637  31.471   4.216   0.401
23213W        W95638  17.776  27.067  14.800
23214W        W95639  20.269   9.738   4.142
23215W        W95640  21.239  13.838  13.523
23216W        W95641   4.361  38.859  14.792
23217W        W95642  32.959  23.055  13.391
23218W        W95643  14.635  42.016  12.984
23219W        W95644  18.060  34.936   4.263
23220W        W95645  22.110   9.721   0.419
23221W        W95646  34.613  12.628   3.191
23222W        W95647   1.902  22.087  10.632
23223W        W95648  27.669   4.724  10.485
23224W        W95649   8.229   3.819  14.989
23225W        W95650  18.605  24.220   4.293
23226W        W95651  26.701  34.978  10.946
23227W        W95652  27.655  38.994   1.398
23228W        W95653  18.140  20.742   3.243
23229W        W95654   5.344  39.884  12.990
23230W        W95655  44.892  33.531  12.083
23231W        W95656   1.913   5.360   4.605
23232W        W95657  33.002  34.939   2.700
23233W        W95658   3.714  30.644   1.413
23234W        W95659  27.183  35.974   0.481
23235W        W95660  22.047  30.599  10.484
23236W        W95661  30.142  18.215   4.315
23237W        W95662  40.930  25.646   1.857
23238W        W95663  44.296  33.469   2.213
23239W        W95664  35.956  29.138   2.818
23240W        W95665  35.563   5.349  12.985
23241W        W95666  27.476  14.198   0.355
23242W        W95667  31.615  35.520  10.580
23243W        W95668   7.331  26.631  13.308
23244W        W95669  25.663  30.566  14.922
23245W        W95670  17.061  23.610   0.339
23246W        W95671  24.536  27.956  11.545
23247W        W95672  12.317  18.737   3.159
23248W        W95673  30.929  42.292  11.910
23249W        W95674  42.795  27.125  12.899
23250W        W95675  30.420  44.863  14.969
23251W        W95676  19.178  18.781   2.365
23252W        W95677  31.006  21.691   4.669
23253W        W95678  20.233  37.955  14.798
23254W        W95679  42.983   9.184   0.930
23255W        W95680  37.484  18.577   2.189
23256W        W95681  26.485  25.543   1.407
23257W        W95682   6.251  26.692   1.430
23258W        W95683  15.274   6.796   2.355
23259W        W95684  10.732  27.572  11.872
23260W        W95685  22.606  25.642   3.273
23261W        W95686  18.672  17.567  10.592
23262W        W95687  33.473  44.850  12.346
23263W        W95688  16.294  27.515  11.470
23264W        W95689   6.846  28.503   1.377
23265W        W95690  31.014  44.997   3.317
23266W        W95691  16.117  10.667  14.499
23267W        W95692  23.571  17.617   0.911
23268W        W95693  17.557  20.163  12.843
23269W        W95694  23.233   2.256  12.897
23270W        W95695  35.460  41.004   3.829
23271W        W95696  24.110  34.972  14.414
23272W        W95697  26.980  10.290   3.745
23273W        W95698  39.923  29.058   0.389
23274W        W95699  44.961  27.991   4.781
23275W        W95700   3.310  10.173   4.260
23276W        W95701   6.317  13.302   5.083
23277W        W95702  30.583  15.627   1.923
23278W        W95703  24.487  13.807   0.925
23279W        W95704   7.665  12.843  14.831
23280W        W95705  28.585  24.620   1.405
23281W        W95706   9.273  16.614  11.609
23282W        W95707   8.274  30.944   3.782
23283W        W95708   2.807  35.407   2.302
23284W        W95709  25.618   1.376   1.434
23285W        W95710  16.142   5.889   2.807
23286W        W95711  24.993  41.431   2.242
23287W        W95712  13.180  12.633  14.478
23288W        W95713  34.536  27.029   3.232
23289W        W95714  14.192  19.706  13.888
23290W        W95715  40.498  44.820  12.999
23291W        W95716  15.119  14.739  14.348
23292W        W95717  11.267  10.226   9.997
23293W        W95718   5.235  24.516   4.131
23294W        W95719  10.354   6.845  11.563
23295W        W95720  31.416  39.939  13.494
23296W        W95721  32.029  11.146   0.403
23297W        W95722   9.650  42.004  11.923
23298W        W95723  25.008  32.436  13.998
23299W        W95724  41.419   6.862  14.814
23300W        W95725   2.405  30.583  10.978
23301W        W95726  30.484   2.465  11.065
23302W        W95727  10.173  26.513  14.480
23303W        W95728  31.564  23.057   5.618
23304W        W95729  42.969  18.243  13.373
23305W        W95730  22.076  40.535  10.645
23306W        W95731  43.827   2.304  14.275
23307W        W95732   8.163  32.054   3.771
23308W        W95733  12.188  28.661  11.022
23309W        W95734  16.684  26.510   4.819
23310W        W95735  23.514  27.090  14.835
23311W        W95736  27.467  39.487  14.899
23312W        W95737  42.365   8.671   4.172
23313W        W95738  24.204  37.547   4.716
23314W        W95739  23.710  22.074   0.257
23315W        W95740  39.047   6.320  14.341
23316W        W95741  27.490  12.683  13.818
23317W        W95742   6.330   7.715   1.721
23318W        W95743   5.403  44.980  10.633
23319W        W95744  21.717  16.252   1.281
23320W        W95745  38.435  37.519   5.128
23321W        W95746   6.191  14.764  13.366
23322W        W95747  43.482  36.393  13.061
23323W        W95748  28.513  27.006  10.575
23324W        W95749  18.733  18.771  10.526
23325W        W95750  30.945  35.884   4.683
23326W        W95751   5.849  28.064   3.376
23327W        W95752  12.810  24.648   4.260
23328W        W95753  21.543   4.329   0.392
23329W        W95754  10.677  27.174   3.317
23330W        W95755  20.129  35.107   0.854
23331W        W95756  34.959  14.769   2.745
23332W        W95757   2.385  20.671   0.883
23333W        W95758   7.322  43.894   1.733
23334W        W95759  42.365  29.595  10.965
23335W        W95760  29.149  21.225  12.352
23336W        W95761  14.134  40.366  11.089
23337W        W95762  19.080  28.943  12.895
23338W        W95763  42.818   7.345  13.429
23339W        W95764  41.962  38.023  13.885
23340W        W95765  19.579  37.060  12.901
23341W        W95766  37.456  13.213   2.404
23342W        W95767  23.652  25.114   0.274
23343W        W95768  35.099  25.474  14.971
23344W        W95769  36.922  25.575  11.499
23345W        W95770  43.457  19.112   2.254
23346W        W95771  42.486  44.782   1.333
23347W        W95772   7.862  31.647   0.831
23348W        W95773  40.396  21.202   9.442
23349W        W95774   9.340   3.420  11.866
23350W        W95775  18.115  21.647   0.436
23351W        W95776  40.441  29.498   4.175
23352W        W95777  11.226  44.290   3.271
23353W        W95778  23.104   8.182  12.954
23354W        W95779   4.360  41.876  12.425
23355W        W95780  19.592  39.558  10.622
23356W        W95781  18.657   4.734  13.057
23357W        W95782  27.076   6.830  10.889
23358W        W95783  15.297  39.833   3.170
23359W        W95784  18.769  12.753  11.470
23360W        W95785  30.420  31.538  13.438
23361W        W95786   1.754  44.887   3.157
23362W        W95787  13.792  40.515   2.799
23363W        W95788  39.929   8.231  14.491
23364W        W95789  10.142  43.946  10.525
23365W        W95790  12.234   5.230  14.873
23366W        W95791   4.410  11.215  11.384
23367W        W95792  14.827  34.107  13.309
23368W        W95793  30.651  30.464  13.872
23369W        W95794  14.601   8.676  13.516
23370W        W95795  11.799  27.655   4.648
23371W        W95796  31.529   8.237  11.556
23372W        W95797  11.850  32.558   3.722
23373W        W95798  27.940   0.938  12.450
23374W        W95799  34.474  25.200   0.764
23375W        W95800  42.479  19.280  12.989
23376W        W95801  29.058  39.398  12.457
23377W        W95802   0.339  26.139  13.796
23378W        W95803  33.381  41.514   0.437
23379W        W95804  15.160  15.110  12.979
23380W        W95805  41.346  43.956   0.370
23381W        W95806   3.273  17.279   0.433
23382W        W95807  25.595  13.158  13.977
23383W        W95808   2.361  15.176   1.885
23384W        W95809  34.455   7.361  13.358
23385W        W95810  10.362  10.633  12.453
23386W        W95811  38.401  25.058   4.827
23387W        W95812  36.422   2.794   0.375
23388W        W95813  41.451  29.532   0.445
23389W        W95814  14.722  20.140   0.767
23390W        W95815  20.662  23.187   0.903
23391W        W95816  34.562  41.001   0.829
23392W        W95817   1.347   9.241   0.250
23393W        W95818  19.556  16.155   1.839
23394W        W95819  23.229  11.355  10.067
23395W        W95820  10.739  41.892  11.432
23396W        W95821  15.653  26.113  11.931
23397W        W95822  28.986  21.680  10.897
23398W        W95823  10.251   3.865   3.834
23399W        W95824  38.928  32.479  14.855
23400W        W95825  12.737  26.468  13.433
23401W        W95826  41.462   7.190  14.779
23402W        W95827   4.713  40.370  10.084
23403W        W95828   9.856  33.484  14.015
23404W        W95829  34.896  30.027   1.333
23405W        W95830  23.208  27.520  13.311
23406W        W95831  42.919   5.425  12.064
23407W        W95832  35.863  20.585  14.413
23408W        W95833  36.382  40.458  14.481
23409W        W95834  17.231  29.610   3.208
23410W        W95835  27.578  20.133   3.704
23411W        W95836  32.617  31.034   0.463
23412W        W95837  12.842  36.476  12.040
23413W        W95838  38.354  21.147   2.844
23414W        W95839   7.341  28.561   3.171
23415W        W95840   0.857  35.552  11.561
23416W        W95841  33.114   2.886   3.378
23417W        W95842  32.027   1.920   2.662
23418W        W95843  25.548  23.549  12.378
23419W        W95844   6.850   5.719   4.807
23420W        W95845   7.303  44.451   1.213
23421W        W95846  44.320  30.063  11.378
23422W        W95847  29.965  17.697   2.853
23423W        W95848  28.493  16.646   2.807
23424W        W95849  37.987  38.481   3.309
23425W        W95850  18.635  29.107   9.971
23426W        W95851  29.425  30.924   3.695
23427W        W95852  41.977  25.640   2.710
23428W        W95853  14.756  23.103   0.870
23429W        W95854  33.877  39.510   4.815
23430W        W95855  17.270  22.202   2.419
23431W        W95856  41.372  22.531  10.547
23432W        W95857  40.009   8.304   1.259
23433W        W95858  29.633  11.699  13.453
23434W        W95859  35.583  34.614  14.367
23435W        W95860  32.896  26.976  13.363
23436W        W95861  14.613  44.954   4.211
23437W        W95862   4.379   8.403  13.861
23438W        W95863  23.123  38.921  11.553
23439W        W95864  25.005  27.617  14.008
23440W        W95865  12.132  31.045  11.455
23441W        W95866   9.889   3.926  10.422
23442W        W95867  35.882  23.116  10.932
23443W        W95868  35.398  25.655  11.399
23444W        W95869  10.250  11.165  10.893
23445W        W95870   2.759  20.656   0.859
23446W        W95871  31.496  14.622  11.957
23447W        W95872  44.809  38.855  12.483
23448W        W95873  42.453  18.139   0.926
23449W        W95874  10.864   6.310   2.262
23450W        W95875  33.082   0.918  13.003
23451W        W95876   6.372  32.021   4.669
23452W        W95877  39.871  44.956   4.768
23453W        W95878  35.966  11.201   2.705
23454W        W95879   9.317  41.367  10.104
23455W        W95880   7.267   7.410   3.193
23456W        W95881   9.722   1.760  12.377
23457W        W95882  12.745  38.415  14.801
23458W        W95883  17.557  40.425   3.168
23459W        W95884  29.051  39.411   1.404
23460W        W95885  38.073  37.509  13.390
23461W        W95886  22.726  16.210  14.019
23462W        W95887  20.590  21.037   3.194
23463W        W95888  17.618   1.466   3.334
23464W        W95889  38.914   3.281   9.964
23465W        W95890  10.295  36.853  13.409
23466W        W95891  44.910  27.532   3.702
23467W        W95892  12.842  10.184  13.508
23468W        W95893  25.983  35.586  10.520
23469W        W95894   6.890  21.567   0.460
23470W        W95895  16.647  22.194   3.292
23471W        W95896  40.492  42.806  14.947
23472W        W95897  29.502   4.699  13.419
23473W        W95898  29.019  10.823   4.665
23474W        W95899  35.863  38.468  13.004
23475W        W95900   9.171   4.904  12.376
23476W        W95901  27.591  41.448  14.481
23477W        W95902   9.164   5.719   3.680
23478W        W95903  17.559  34.578   0.928
23479W        W95904   4.352  17.597   2.765
23480W        W95905  11.697  24.173  11.015
23481W        W95906  41.016  35.491   2.737
23482W        W95907   7.307  34.950   4.684
23483W        W95908   0.258  32.488  10.597
23484W        W95909  37.552  18.255   3.704
23485W        W95910   9.858   3.429  13.013
23486W        W95911   8.382   9.221  10.419
23487W        W95912  33.919  30.132  12.474
23488W        W95913   2.339  35.604  14.488
23489W        W95914  21.519  29.983  11.411
23490W        W95915  13.715  17.098   2.414
23491W        W95916  32.054  20.270  14.934
23492W        W95917   0.449  41.345  14.914
23493W        W95918  39.328  41.946   2.899
23494W        W95919   3.811  32.502   0.815
23495W        W95920   1.890  30.032   3.703
23496W        W95921   7.746  33.936  10.623
23497W        W95922   0.955  13.348  11.944
23498W        W95923  44.857  26.109  11.505
23499W        W95924   5.218  40.341   0.280
23500W        W95925  31.026  21.022   0.946
23501W        W95926  33.030  41.529   1.848
23502W        W95927  32.555  23.730  12.932
23503W        W95928  35.017   4.804   2.361
23504W        W95929  19.212  34.507  10.619
23505W        W95930  16.263  30.934   1.719
23506W        W95931   5.423   5.834   4.236
23507W        W95932   3.266   1.396  10.430
23508W        W95933  28.037  12.200   1.918
23509W        W95934   7.267  33.959  10.583
23510W        W95935  21.205   1.477  11.922
23511W        W95936  23.036   0.960   0.762
23512W        W95937  31.913  35.486   1.789
23513W        W95938  36.995  12.650  14.302
23514W        W95939  44.444  28.497   3.360
23515W        W95940  17.691  19.178  11.953
23516W        W95941  24.530  42.483  14.305
23517W        W95942  42.506  16.785   1.267
23518W        W95943   4.239  15.809  11.372
23519W        W95944  20.082  17.205   4.637
23520W        W95945  43.493  29.576  13.803
23521W        W95946  18.771  27.114  12.464
23522W        W95947  32.503  20.186   3.318
23523W        W95948  27.627  17.599  14.974
23524W        W95949  32.035  30.140  12.389
23525W        W95950   0.453  35.882  10.469
23526W        W95951  37.027   0.284   3.150
23527W        W95952  30.624  30.151   2.283
23528W        W95953   1.779   4.430   2.193
23529W        W95954  42.838  41.865  14.010
23530W        W95955  10.197   2.887   0.939
23531W        W95956   1.916  42.794   0.809
23532W        W95957  17.785  28.499   4.702
23533W        W95958  22.519  44.501  14.370
23534W        W95959   8.328  22.707  13.907
23535W        W95960   7.357  25.131   2.866
23536W        W95961  26.470  30.490   2.700
23537W        W95962  19.577  18.286  10.494
23538W        W95963   7.369  21.076   0.872
23539W        W95964  28.483  12.770   4.809
23540W        W95965  25.965  35.082   4.742
23541W        W95966  12.693  35.542  13.515
23542W        W95967  25.694  10.826  12.522
23543W        W95968  11.176  42.426  12.996
23544W        W95969  40.432   0.259   9.980
23545W        W95970  19.591  26.974  13.366
23546W        W95971  33.115  39.004  12.376
23547W        W95972   8.855  26.084  10.145
23548W        W95973  18.585  26.503  10.615
23549W        W95974  11.662  43.785  11.488
23550W        W95975  35.569  37.854   4.303
23551W        W95976  30.077   1.383   1.369
23552W        W95977  32.497  24.081  10.602
23553W        W95978  10.153  32.429  14.984
23554W        W95979  22.505  20.593   2.202
23555W        W95980  14.134  31.053   4.165
23556W        W95981  11.358  38.865  14.771
23557W        W95982  32.536  12.850  14.848
23558W        W95983  43.462   5.874  13.386
23559W        W95984  16.809  43.462   1.385
23560W        W95985  38.021  31.940   1.837
23561W        W95986  43.016   0.768   3.714
23562W        W95987  17.119   1.915   2.812
23563W        W95988   1.870  24.057   2.741
23564W        W95989   3.375  29.553   3.274
23565W        W95990  33.124  41.009  11.893
23566W        W95991  24.100   7.263   1.255
23567W        W95992   7.209  27.091  12.878
23568W        W95993   7.773  17.255  14.950
23569W        W95994  40.363  38.850   3.637
23570W        W95995  40.440  18.114  11.529
23571W        W95996  16.780  14.212  13.979
23572W        W95997  26.480  12.237  10.571
23573W        W95998  27.470  34.500   2.835
23574W        W95999  39.844  24.218  12.979
23575W        W96000  30.152   2.382   0.446
23576W        W96001  12.329  40.508   0.331
23577W        W96002  14.132  18.288   4.704
23578W        W96003  40.368  44.814  11.481
23579W        W96004   2.883  42.984  10.474
23580W        W96005  44.295   0.790  14.897
23581W        W96006  12.784   1.266  14.342
23582W        W96007   3.947  21.651   3.323
23583W        W96008  40.425  26.569   2.280
23584W        W96009  26.654  24.179   2.351
23585W        W96010  28.063  40.897   4.331
23586W        W96011  21.546  26.610   1.801
23587W        W96012  18.618   3.766   2.677
23588W        W96013   1.446  34.962  11.507
23589W        W96014  14.663  15.182  11.031
23590W        W96015   1.907   6.770  10.559
23591W        W96016  21.192  21.577   2.739
23592W        W96017   5.734  41.978  14.942
23593W        W96018   6.794  44.308  12.892
23594W        W96019  42.031  28.025   2.396
23595W        W96020  18.577   5.315  10.565
23596W        W96021  44.809  38.345  10.584
23597W        W96022  30.637  25.061  13.006
23598W        W96023  16.276   0.484  14.415
23599W        W96024   9.177   8.379   4.628
23600W        W96025  16.283   2.857   4.701
23601W        W96026   5.299   3.799  13.901
23602W        W96027   2.394  16.155  10.945
23603W        W96028  31.460  43.503  13.806
23604W        W96029   0.844  14.604   4.169
23605W        W96030  22.012  29.511  11.388
23606W        W96031  24.087  19.158  14.455
23607W        W96032  42.420  17.570   0.379
23608W        W96033  34.058  24.568  11.082
23609W        W96034  18.771  24.192  14.412
23610W        W96035  26.642  25.177   2.876
23611W        W96036  31.981  14.735   0.857
23612W        W96037  32.139  16.591   5.166
23613W        W96038  17.132  24.649  12.502
23614W        W96039  38.073  42.999   0.350
23615W        W96040  24.189   1.470  14.927
23616W        W96041   5.419  16.705  13.979
23617W        W96042  20.062  23.175  13.057
23618W        W96043   8.721   6.914  11.936
23619W        W96044  44.922   7.202  10.899
23620W        W96045   5.393  13.122   1.808
23621W        W96046  30.917  12.774  10.460
23622W        W96047  11.647  12.247   4.658
23623W        W96048   9.340  17.721  14.965
23624W        W96049   9.331  15.728  14.806
23625W        W96050  19.549   7.843  10.967
23626W        W96051   7.671   5.786  11.031
23627W        W96052  14.610  22.142   1.217
23628W        W96053  24.002   7.835   1.750
23629W        W96054  38.455  32.629  11.372
23630W        W96055  35.405  12.145  11.440
23631W        W96056  17.298  40.316  12.031
23632W        W96057   1.343  18.269  11.921
23633W        W96058  27.643  31.014   9.573
23634W        W96059  30.568   9.224  13.059
23635W        W96060  10.369  24.591   2.356
23636W        W96061  38.987  20.647   3.152
23637W        W96062  24.148  27.021   0.731
23638W        W96063  37.384  21.040   0.732
23639W        W96064  28.589  31.108  14.460
23640W        W96065  36.412  21.663  11.935
23641W        W96066  12.752  34.442   2.749
23642W        W96067  31.618  27.565   1.396
23643W        W96068  38.046  17.700   2.666
23644W        W96069   2.381  35.521   1.776
23645W        W96070  15.776  23.676   0.958
23646W        W96071  30.435   0.368  14.417
23647W        W96072  19.194  11.634   4.155
23648W        W96073  18.080  42.932   5.140
23649W        W96074  42.002  10.298  14.326
23650W        W96075  28.167  37.023   0.250
23651W        W96076   4.251  18.654   2.879
23652W        W96077  29.661  25.502   0.265
23653W        W96078  29.174  40.971   4.810
23654W        W96079  23.680  35.595   2.674
23655W        W96080  10.789  23.534   1.295
23656W        W96081  43.824  15.775  13.006
23657W        W96082  40.944  27.191  11.080
23658W        W96083  25.468   1.775  14.841
23659W        W96084  13.718  27.488  14.418
23660W        W96085  38.455  35.968  14.027
23661W        W96086  17.754  40.344  11.591
23662W        W96087  20.716  10.708   1.370
23663W        W96088  10.712  34.381  13.922
23664W        W96089  41.372   3.438  14.293
23665W        W96090   8.722   3.378   2.871
23666W        W96091   2.249  10.207  11.864
23667W        W96092  40.318   3.304   4.116
23668W        W96093  41.921  22.556   0.775
23669W        W96094   3.403  13.744  12.962
23670W        W96095  23.204  25.494   0.891
23671W        W96096  39.393  22.178   4.285
23672W        W96097   6.695  22.221  14.426
23673W        W96098   7.277  44.489   1.902
23674W        W96099   3.746  15.222  12.835
23675W        W96100  23.522  32.607  11.456
23676W        W96101  44.340  14.755  13.822
23677W        W96102  37.895  24.537  13.517
23678W        W96103  29.941  12.670  14.890
23679W        W96104  15.609  13.769  13.516
23680W        W96105  14.099  13.667  10.972
23681W        W96106  13.800   4.918   0.843
23682W        W96107  22.637  34.928   1.223
23683W        W96108  17.092   8.406  12.844
23684W        W96109  25.203  21.526   1.403
23685W        W96110  20.051   4.900  10.069
23686W        W96111   8.747  27.079   3.380
23687W        W96112  39.379  27.075   0.266
23688W        W96113  38.485  33.998  12.009
23689W        W96114   4.734  27.668  14.979
23690W        W96115   7.356  37.556   9.994
23691W        W96116  43.387  35.047   4.218
23692W        W96117   1.926  29.581   2.726
23693W        W96118   0.782  24.682  11.604
23694W        W96119  14.747   6.194  10.597
23695W        W96120   0.376  26.168  13.363
23696W        W96121  14.750  40.406   4.286
23697W        W96122  27.945  31.144   5.123
23698W        W96123  15.657  13.143  10.482
23699W        W96124  38.355  40.052   0.473
23700W        W96125  40.499  36.520  13.392
23701W        W96126  11.777   9.224   0.275
23702W        W96127  39.896  41.310   1.772
23703W        W96128   7.708  23.996  11.021
23704W        W96129   9.717  25.069  10.634
23705W        W96130  29.989  19.208  13.476
23706W        W96131  25.211  22.528   1.320
23707W        W96132  19.170  30.154  13.002
23708W        W96133   9.243  21.585   2.284
23709W        W96134  43.831  16.751  12.495
23710W        W96135  30.925  35.439   0.374
23711W        W96136  26.589  41.301  12.081
23712W        W96137   0.948   9.713  12.533
23713W        W96138  16.110  10.206   3.753
23714W        W96139  24.197  37.831   2.806
23715W        W96140  35.045  25.027  13.345
23716W        W96141  27.487   5.369  12.856
23717W        W96142  22.569  14.290   1.797
23718W        W96143  29.029  34.393   3.735
23719W        W96144  14.641  14.127  12.444
23720W        W96145  13.168  41.372  14.516
23721W        W96146  44.286  21.697  10.479
23722W        W96147  42.929  23.190   3.247
23723W        W96148  21.539   1.861   5.170
23724W        W96149  36.895  28.529   1.256
23725W        W96150  33.471  43.912  13.905
23726W        W96151  25.588  13.312   2.740
23727W        W96152  37.578  23.206  12.512
23728W        W96153  10.673  19.169   0.921
23729W        W96154  40.312  17.222  10.111
23730W        W96155   9.789  36.546  11.522
23731W        W96156  22.242  30.491  12.883
23732W        W96157  17.789  12.682   2.879
23733W        W96158  34.065  22.644   0.776
23734W        W96159   9.216  41.487  13.817
23735W        W96160  33.416  37.880   1.921
23736W        W96161   4.343  13.750  11.480
23737W        W96162  28.080  35.005  10.431
23738W        W96163  27.098  41.329  14.840
23739W        W96164  19.236  39.506   1.725
23740W        W96165  19.119  26.623  14.887
23741W        W96166  21.094  19.653  13.863
23742W        W96167  31.016  37.398  11.573
23743W        W96168  19.716  29.486   3.264
23744W        W96169  13.135   5.294  13.911
23745W        W96170  33.528  43.856  11.969
23746W        W96171  14.756  25.636   2.181
23747W        W96172  37.436   3.884   2.880
23748W        W96173  35.935   4.318  10.438
23749W        W96174  19.724  43.486  10.536
23750W        W96175  31.485   8.793  13.808
23751W        W96176  21.022  19.623   0.451
23752W        W96177  19.161  43.926  12.922
23753W        W96178  38.496  16.580  11.549
23754W        W96179   8.328  27.102   2.300
23755W        W96180  13.670   8.252   3.667
23756W        W96181  23.210   6.786   0.882
23757W        W96182  11.184  36.534  14.485
23758W        W96183  24.156   8.812   4.221
23759W        W96184  37.988   9.342  11.402
23760W        W96185  32.569   4.907  12.979
23761W        W96186  19.743  42.361  13.813
23762W        W96187  26.084  19.762   3.270
23763W        W96188  18.666  43.468   2.902
23764W        W96189  34.467  29.424  13.408
23765W        W96190  41.451  34.533   4.712
23766W        W96191  34.045  21.584   1.718
23767W        W96192  32.629  38.051   0.323
23768W        W96193  25.184  39.372  12.973
23769W        W96194  17.758  39.985  12.852
23770W        W96195  26.495   4.750  11.089
23771W        W96196  34.894  35.061   1.333
23772W        W96197   2.877  30.536  14.415
23773W        W96198  39.971   2.946   1.296
23774W        W96199  33.114  38.507   2.679
23775W        W96200  43.422  40.468  13.007
23776W        W96201   1.735   5.281  10.621
23777W        W96202   1.236  39.538   2.410
23778W        W96203  31.072  29.035   0.424
23779W        W96204  12.655  43.512  11.048
23780W        W96205  17.574  20.058  14.486
23781W        W96206   8.771   5.291   2.876
23782W        W96207   2.428  30.474   0.789
23783W        W96208   9.187  12.614  13.528
23784W        W96209   4.212  44.952  13.807
23785W        W96210   2.271   0.829  11.980
23786W        W96211  38.001  13.306  13.793
23787W        W96212  40.045  33.987  14.858
23788W        W96213  35.470  23.035   0.779
23789W        W96214  36.046  31.594   2.372
23790W        W96215   8.786  25.703   2.239
23791W        W96216  23.189  33.964  13.034
23792W        W96217  12.124  21.264  13.545
23793W        W96218  25.124   0.812  14.937
23794W        W96219   0.781  28.173  12.990
23795W        W96220  43.274  18.264   5.265
23796W        W96221  30.083   7.847  11.526
23797W        W96222   0.807   9.743   1.837
23798W        W96223   7.719  18.675   4.193
23799W        W96224   9.709  21.062  14.769
23800W        W96225   4.258   6.286   0.895
23801W        W96226   5.744  18.270  11.379
23802W        W96227  16.566  43.773  14.504
23803W        W96228  12.717  14.249  14.282
23804W        W96229   6.362  21.593   2.802
23805W        W96230  23.127  25.529  13.008
23806W        W96231   8.160  39.901   2.826
23807W        W96232  36.412  33.889   4.291
23808W        W96233  35.553  44.303   0.474
23809W        W96234  14.156  22.566   2.747
23810W        W96235   6.823   7.269   4.839
23811W        W96236  28.054   9.691   1.742
23812W        W96237  24.669   4.945  14.944
23813W        W96238   8.758  30.996   4.706
23814W        W96239  42.489   4.445   2.686
23815W        W96240  34.933  34.582  10.918
23816W        W96241  28.000  17.129  12.087
23817W        W96242  36.004  16.760   0.398
23818W        W96243   6.333  27.632   4.750
23819W        W96244   1.328  20.627  11.067
23820W        W96245  39.884  17.256   1.811
23821W        W96246  32.457   5.394  12.361
23822W        W96247   4.851  17.721  12.527
23823W        W96248  41.894   4.420  10.637
23824W        W96249   0.348  35.038   3.229
23825W        W96250  37.482  44.963  11.548
23826W        W96251  14.753   4.316  11.898
23827W        W96252  43.296  35.422   2.795
23828W        W96253  24.488  24.032   3.720
23829W        W96254  41.460  13.184  10.597
23830W        W96255   1.424  29.518  11.969
23831W        W96256  35.081  39.508  14.405
23832W        W96257  38.967  42.781   1.886
23833W        W96258  33.457  22.028   1.705
23834W        W96259   7.727   3.806   4.137
23835W        W96260  11.234  37.409   0.818
23836W        W96261   7.415  40.947   2.685
23837W        W96262  22.165  16.128   0.466
23838W        W96263  21.636  31.147   3.658
23839W        W96264   3.915  18.057   1.307
23840W        W96265  33.537  20.170   2.899
23841W        W96266  38.541   7.240   3.639
23842W        W96267  22.580  41.928  12.556
23843W        W96268  43.500  38.904  12.419
23844W        W96269  13.141  35.989   0.907
23845W        W96270   1.858   0.928  11.577
23846W        W96271  23.131  29.973   1.268
23847W        W96272  38.860  17.573  14.449
23848W        W96273  27.127  44.839   2.391
23849W        W96274  22.625  35.474   0.845
23850W        W96275  40.431  21.051   4.743
23851W        W96276  26.139   0.752  10.568
23852W        W96277  13.347  40.315  11.080
23853W        W96278  35.009  44.263  12.052
23854W        W96279  17.101  41.854   1.696
23855W        W96280  16.794  22.731  12.398
23856W        W96281  33.118  23.004   2.873
23857W        W96282  35.426  12.235  13.343
23858W        W96283  38.978   8.756  13.341
23859W        W96284   8.688  10.318  14.387
23860W        W96285  17.245  44.405   4.782
23861W        W96286  40.973  40.520   1.716
23862W        W96287  34.433  41.013  13.435
23863W        W96288  16.109  16.119   4.718
23864W        W96289  29.598  38.892   0.905
23865W        W96290  43.472  33.524   0.940
23866W        W96291   1.955  41.461  11.433
23867W        W96292   4.814  11.854  12.036
23868W        W96293  34.991  37.488  13.388
23869W        W96294  19.236  19.113   4.677
23870W        W96295  15.584  32.895  14.420
23871W        W96296   0.266  36.996   1.245
23872W        W96297  34.098  22.171  11.517
23873W        W96298  34.989   9.152   4.670
23874W        W96299  27.126  35.025  10.425
23875W        W96300   7.408  32.976  13.830
23876W        W96301  17.644  20.578   4.248
23877W        W96302  33.560  27.655   4.654
23878W        W96303  30.645  39.357   2.226
23879W        W96304  23.168  23.575  13.539
23880W        W96305  14.228  27.143  13.027
23881W        W96306  37.446  32.608   0.872
23882W        W96307  35.944  39.970   1.277
23883W        W96308  37.481  44.413  13.458
23884W        W96309   5.856   7.772  12.397
23885W        W96310   0.860  14.275   1.321
23886W        W96311  19.279   2.243  12.895
23887W        W96312  42.843   3.347   0.802
23888W        W96313  34.380   0.369  11.446
23889W        W96314  42.448  28.011  14.846
23890W        W96315  41.893  39.397   0.382
23891W        W96316  36.366  40.873  13.881
23892W        W96317  41.468  44.808   2.752
23893W        W96318   2.928   4.284  11.004
23894W        W96319   6.274  43.806  11.082
23895W        W96320  24.705  33.513  10.554
23896W        W96321  11.193   2.452   2.694
23897W        W96322   3.866  24.070   4.632
23898W        W96323  34.016   0.802  11.058
23899W        W96324  12.159  20.117  11.923
23900W        W96325  24.482  31.152   4.244
23901W        W96326  14.664  20.175  12.075
23902W        W96327  29.479   5.874  12.859
23903W        W96328   3.260  35.539   3.263
23904W        W96329  23.634  41.404  13.062
23905W        W96330  29.505   9.714   1.230
23906W        W96331  27.158   8.329   3.689
23907W        W96332   1.380  41.882  11.097
23908W        W96333  28.151  11.266   1.246
23909W        W96334  40.476  22.234   4.213
23910W        W96335  35.889  11.144   4.713
23911W        W96336  33.996  35.363  11.102
23912W        W96337  31.129  37.885  13.355
23913W        W96338  31.620   5.860  11.545
23914W        W96339  17.218  43.461  14.840
23915W        W96340   6.781  44.413  14.446
23916W        W96341  16.604  28.596   3.771
23917W        W96342  28.987   2.769   2.209
23918W        W96343  24.593  26.975  10.581
23919W        W96344  35.400  34.578   2.874
23920W        W96345  34.012  38.542  10.409
23921W        W96346  31.548   9.369   0.933
23922W        W96347  42.850  38.826   1.276
23923W        W96348  35.895  15.671   4.597
23924W        W96349   6.267  17.092   2.896
23925W        W96350  35.061  13.305  12.365
23926W        W96351  30.976  18.688  10.579
23927W        W96352  37.841  22.574   1.242
23928W        W96353   6.193  36.920   4.120
23929W        W96354   2.354   8.861   0.965
23930W        W96355   4.907  37.577   0.321
23931W        W96356   3.889   4.845  13.051
23932W        W96357  11.842  26.619  14.496
23933W        W96358  25.616  31.995   2.729
23934W        W96359  36.512  10.298  13.038
23935W        W96360  20.599  32.480   4.302
23936W        W96361  28.046  36.870  11.917
23937W        W96362  38.534  31.095  10.412
23938W        W96363  35.551  10.701  12.078
23939W        W96364  15.270  34.380   0.480
23940W        W96365  35.518  37.533   5.097
23941W        W96366  27.636  32.580   9.474
23942W        W96367  42.806  26.702   3.250
23943W        W96368  27.635   4.764  11.477
23944W        W96369  13.123  43.011  11.128
23945W        W96370  11.759  42.854  10.150
23946W        W96371   2.458   8.777   5.150
23947W        W96372   9.265  43.764  10.579
23948W        W96373  41.447  39.971   1.841
23949W        W96374  19.773  28.117  11.481
23950W        W96375   2.321  31.525   0.920
23951W        W96376   3.741  15.746  13.326
23952W        W96377  23.134  30.415   4.669
23953W        W96378   7.230  43.434  14.835
23954W        W96379  23.504   2.284  11.467
23955W        W96380  21.168  25.977  12.823
23956W        W96381  35.586  40.520   1.263
23957W        W96382  34.935   4.306  11.875
23958W        W96383  11.637  26.565   3.342
23959W        W96384  19.724  31.924   4.774
23960W        W96385  10.288  34.864   0.857
23961W        W96386  12.322  36.096  14.789
23962W        W96387  27.107  43.345   4.288
23963W        W96388  21.522   2.336   4.772
23964W        W96389  38.543   5.753   0.352
23965W        W96390  30.155  32.929  13.065
23966W        W96391   6.203  17.070   0.842
23967W        W96392   6.341  10.324   0.918
23968W        W96393   6.311  17.220   3.245
23969W        W96394  42.830  38.446   4.163
23970W        W96395  25.132   4.356   3.211
23971W        W96396  19.199  33.093   1.423
23972W        W96397  33.450  17.165  14.947
23973W        W96398  29.071  38.988   3.796
23974W        W96399  11.284   4.726  14.467
23975W        W96400  26.626  28.629   4.790
23976W        W96401  43.809  13.350  12.363
23977W        W96402  40.384  12.649  10.537
23978W        W96403  28.436  24.717   4.751
23979W        W96404   3.833  22.533  10.040
23980W        W96405  18.584  40.031  13.794
23981W        W96406  15.627   4.285  11.373
23982W        W96407  13.734  31.534  13.527
23983W        W96408  12.731  40.327  11.447
23984W        W96409  34.947  21.676  12.083
23985W        W96410   5.351  31.982   4.816
23986W        W96411  34.040  21.561   3.696
23987W        W96412  20.050  25.496   0.460
23988W        W96413  18.678  25.014  11.382
23989W        W96414  14.155  33.493   3.832
23990W        W96415  19.235  18.191   2.766
23991W        W96416  13.758   5.912   2.181
23992W        W96417  40.803  24.581  12.570
23993W        W96418  38.346   1.810  14.980
23994W        W96419  34.548  13.767  12.443
23995W        W96420   1.953  18.677  10.931
23996W        W96421  24.704  27.519  14.300
23997W        W96422  29.565  23.562   9.647
23998W        W96423  36.432  15.734   1.432
23999W        W96424  14.303  35.480  14.910
24000W        W96425  21.263  15.268   3.215
24001W        W96426  22.621  40.977   0.874
24002W        W96427  14.294  16.144  11.876
24003W        W96428  43.908  10.740   2.409
24004W        W96429  24.688  21.597   2.296
24005W        W96430  22.546  33.618   4.805
24006W        W96431  44.936  23.097   2.833
24007W        W96432  38.023  34.069  14.009
24008W        W96433  11.812  27.118  11.117
24009W        W96434  39.009  22.194  12.867
24010W        W96435  16.688  28.162  11.483
24011W        W96436  30.501  22.188  12.556
24012W        W96437  28.582  38.505  13.312
24013W        W96438   1.866  44.453   1.872
24014W        W96439  14.619   8.748   0.315
24015W        W96440  12.852  22.087   5.089
24016W        W96441  12.663  36.880  14.856
24017W        W96442  21.686  16.142   2.685
24018W        W96443  31.064  17.797  10.574
24019W        W96444  27.173   2.856   0.375
24020W        W96445  22.033  38.525   1.276
24021W        W96446  43.953  43.890   1.904
24022W        W96447  31.011  37.061   4.149
24023W        W96448  17.796  43.304   0.812
24024W        W96449   0.445  40.510  13.350
24025W        W96450   2.824  42.367   0.282
24026W        W96451  11.836  23.620   3.370
24027W        W96452  43.270   0.492   3.846
24028W        W96453   6.243  27.604  12.984
24029W        W96454  20.160  22.602   1.323
24030W        W96455  42.978  25.169   9.924
24031W        W96456   6.359   7.705  12.000
24032W        W96457  16.695  34.460   4.629
24033W        W96458  32.536  24.568  14.009
24034W        W96459  26.052  33.567   1.869
24035W        W96460  41.835  28.662   3.723
24036W        W96461  22.227  43.511   4.271
24037W        W96462  29.993  10.372   1.781
24038W        W96463  14.102  12.130  11.064
24039W        W96464  12.765   4.272  12.962
24040W        W96465  32.421  13.825   0.823
24041W        W96466  37.518  11.630   0.373
24042W        W96467   3.902  32.894   2.856
24043W        W96468  40.045  35.550   4.660
24044W        W96469  31.018  27.072  13.490
24045W        W96470  41.022  31.144  12.978
24046W        W96471  17.165  14.159  11.373
24047W        W96472   8.901  12.264  10.461
24048W        W96473  30.083  42.874  14.324
24049W        W96474  44.269  19.176   1.772
24050W        W96475  34.414  29.926   2.709
24051W        W96476  22.609  22.686  14.444
24052W        W96477  14.649  29.626   2.230
24053W        W96478  10.219  24.124   1.290
24054W        W96479  19.650  36.451  12.481
24055W        W96480  21.551   8.755  12.389
24056W        W96481  36.374   8.660   4.796
24057W        W96482   8.863   4.810   1.749
24058W        W96483  39.052  32.954   5.248
24059W        W96484   7.820  31.909   1.751
24060W        W96485   7.759  25.049   3.821
24061W        W96486  10.188  28.628   4.637
24062W        W96487  36.483  11.692  13.858
24063W        W96488  42.882  32.537  13.316
24064W        W96489  13.171  17.793  14.884
24065W        W96490   4.235  16.289  11.892
24066W        W96491  39.013   9.378  12.418
24067W        W96492  12.175   0.940  12.958
24068W        W96493  12.351  22.142  13.403
24069W        W96494   5.252  23.115  10.520
24070W        W96495   6.357  22.023  12.451
24071W        W96496  28.026   3.783   3.236
24072W        W96497  41.041  24.158  13.886
24073W        W96498  12.841  38.905  13.048
24074W        W96499  32.029  10.158   4.787
24075W        W96500   2.273  15.740   0.246
24076W        W96501   3.914  14.144  12.579
24077W        W96502  29.535  43.474   2.881
24078W        W96503  12.149  26.153  11.017
24079W        W96504   7.728   8.779  13.458
24080W        W96505  43.382  22.130   5.093
24081W        W96506  36.908  37.082  12.398
24082W        W96507   2.262  23.502   3.303
24083W        W96508  44.827  22.628   0.484
24084W        W96509   3.459  28.130   5.271
24085W        W96510   1.297  16.719  13.969
24086W        W96511  34.931  32.028  11.036
24087W        W96512  10.286  26.964  13.028
24088W        W96513   0.336   5.265   0.291
24089W        W96514   3.403  24.641   3.183
24090W        W96515  30.469   5.388  11.463
24091W        W96516  23.513  29.119   0.392
24092W        W96517  44.769  33.036  14.774
24093W        W96518  28.473  18.265  12.448
24094W        W96519  22.012  34.864  11.120
24095W        W96520  36.996  25.138   4.707
24096W        W96521   6.782  35.078   4.800
24097W        W96522  11.642  43.826   2.408
24098W        W96523  18.645  16.652  11.454
24099W        W96524   5.777  41.460  10.533
24100W        W96525  11.726  18.123  11.460
24101W        W96526  33.389  20.769   2.279
24102W        W96527   7.695   6.204   2.749
24103W        W96528  25.026  30.536   0.380
24104W        W96529  10.661  43.826  11.902
24105W        W96530   8.880  43.819  10.975
24106W        W96531  13.293  35.429  11.895
24107W        W96532  13.258  23.715  14.805
24108W        W96533  37.848  11.148  10.996
24109W        W96534   9.278  30.071  13.484
24110W        W96535  17.105  33.604  13.010
24111W        W96536  20.088  30.013   4.248
24112W        W96537  41.814  18.268   3.170
24113W        W96538  21.603  14.300  13.826
24114W        W96539  13.204   4.898  10.558
24115W        W96540  34.093  39.503   0.938
24116W        W96541  26.136  31.493   1.856
24117W        W96542  20.275  18.693  10.627
24118W        W96543  34.884  27.630   0.839
24119W        W96544  37.550  28.652  14.980
24120W        W96545  39.318  26.680   0.462
24121W        W96546   6.385  16.307  13.534
24122W        W96547  24.480  28.641  14.798
24123W        W96548  14.184  36.892  11.032
24124W        W96549  31.533  34.430   0.249
24125W        W96550  13.603   9.365  14.030
24126W        W96551  13.247   0.326   2.393
24127W        W96552  14.229  30.117   3.762
24128W        W96553   4.897  33.402   4.622
24129W        W96554   4.313  14.738  12.569
24130W        W96555  36.970  16.262  13.509
24131W        W96556  36.085  15.743  13.959
24132W        W96557  36.995  28.483   3.324
24133W        W96558  21.595  42.820   5.261
24134W        W96559  27.968  33.532  14.934
24135W        W96560  18.785  15.129   1.922
24136W        W96561  11.245   0.926   3.749
24137W        W96562  27.585  25.598   2.684
24138W        W96563  41.297  18.260  12.527
24139W        W96564   1.792   4.792  13.322
24140W        W96565   3.815  14.156   0.404
24141W        W96566  39.916  11.211   0.284
24142W        W96567  11.806  39.332   4.712
24143W        W96568   3.341  21.116  11.961
24144W        W96569  41.399  13.113   3.243
24145W        W96570  28.479  21.683  11.034
24146W        W96571  37.437  38.383   1.818
24147W        W96572   5.383  22.246  12.471
24148W        W96573  14.240  44.291  14.863
24149W        W96574  19.643   4.820  14.914
24150W        W96575  34.963  33.448  13.978
24151W        W96576  12.346  25.101  14.788
24152W        W96577  10.306  35.423  13.489
24153W        W96578  35.014  22.098   2.770
24154W        W96579  16.297  37.059  10.443
24155W        W96580  32.054  20.658   1.742
24156W        W96581  25.585  27.122  12.903
24157W        W96582  36.995  33.623   3.176
24158W        W96583  16.671  31.136  12.378
24159W        W96584  33.495  10.383  12.914
24160W        W96585   9.235  37.563  11.104
24161W        W96586   6.784  34.589  11.944
24162W        W96587  27.941  26.664  10.931
24163W        W96588  25.087  41.519   3.360
24164W        W96589   7.743   6.412  12.531
24165W        W96590  35.363  41.003  14.414
24166W        W96591  15.125  35.959  10.920
24167W        W96592   7.839   4.267  13.905
24168W        W96593   2.830  27.572   3.344
24169W        W96594   1.870  26.658  13.379
24170W        W96595   7.318  37.045   3.722
24171W        W96596  18.656  26.462   0.758
24172W        W96597  26.960  27.667   0.256
24173W        W96598  44.407  32.396  11.417
24174W        W96599  22.056  11.835  13.939
24175W        W96600  11.666  44.427  12.030
24176W        W96601  35.483  20.052   4.135
24177W        W96602  17.696  29.526   1.712
24178W        W96603  15.139  25.625  11.385
24179W        W96604  41.340  22.540   2.202
24180W        W96605  29.581   3.292  13.006
24181W        W96606   1.466   9.258   4.180
24182W        W96607  11.810  25.200  12.393
24183W        W96608   0.899  28.079   1.817
24184W        W96609  35.440  28.621  12.979
24185W        W96610  13.294  40.998  14.005
24186W        W96611   3.295  35.907   2.873
24187W        W96612   6.245  29.508   2.665
24188W        W96613  39.033  31.025  10.623
24189W        W96614   9.292  16.618  13.535
24190W        W96615  41.787  14.723   4.340
24191W        W96616  38.031  30.659  10.982
24192W        W96617  43.781  44.414   1.822
24193W        W96618  40.356  27.945   9.966
24194W        W96619  21.578  11.858  12.548
24195W        W96620   8.368  10.287  13.424
24196W        W96621  31.930  15.679   0.466
24197W        W96622   0.325  40.862  14.763
24198W        W96623  13.196   9.668  12.067
24199W        W96624  43.396   7.833   3.669
24200W        W96625  27.167   1.900   4.644
24201W        W96626  24.082  21.211  13.357
24202W        W96627  20.600   5.428  14.989
24203W        W96628   1.751  20.128   3.709
24204W        W96629  35.029  30.104  12.928
24205W        W96630  23.213   1.315  10.544
24206W        W96631  10.807  18.238  14.398
24207W        W96632  44.799  44.363  11.408
24208W        W96633  42.975  40.381   4.824
24209W        W96634  24.633  26.531   0.818
24210W        W96635   7.361  36.090   4.314
24211W        W96636  33.005  30.462   4.220
24212W        W96637  35.571  11.169   4.675
24213W        W96638  34.524  43.348   3.284
24214W        W96639  43.378  27.168  10.934
24215W        W96640  24.205   1.325  12.350
24216W        W96641  39.978  10.683   0.874
24217W        W96642   5.291   8.164   4.693
24218W        W96643  15.139  44.390   0.922
24219W        W96644   4.246  43.299  14.909
24220W        W96645   2.815  28.027  11.123
24221W        W96646  16.644  43.799   3.836
24222W        W96647  28.994  31.613  11.495
24223W        W96648   1.850  16.598   2.754
24224W        W96649  21.156  37.067  14.384
24225W        W96650  18.766  13.761  11.890
24226W        W96651   6.905   2.258   3.297
24227W        W96652  14.282  24.077   0.914
24228W        W96653  43.427  37.477  10.089
24229W        W96654   4.226  10.268  14.866
24230W        W96655  29.084  38.512  11.493
24231W        W96656   7.315  35.462   2.345
24232W        W96657   9.192  26.554   0.959
24233W        W96658  14.244  28.551  10.450
24234W        W96659   7.183   0.892  14.415
24235W        W96660  33.959  12.191   1.719
24236W        W96661  16.594   8.854   1.834
24237W        W96662   2.231  11.658  10.976
24238W        W96663  18.735  39.951   1.713
24239W        W96664   7.227  32.627  14.368
24240W        W96665  33.015  18.622   4.174
24241W        W96666  15.612   4.715   4.206
24242W        W96667  44.396  34.475   3.209
24243W        W96668   4.434   0.914  12.881
24244W        W96669  34.381  42.969  11.883
24245W        W96670  37.340  10.789   1.288
24246W        W96671  14.304   2.465   4.302
24247W        W96672  35.526  16.739   1.908
24248W        W96673  32.636  27.481   1.354
24249W        W96674  14.683  16.112  14.884
24250W        W96675  31.470  12.787  12.943
24251W        W96676  28.036  39.828   2.184
24252W        W96677  22.735  18.606   1.390
24253W        W96678   7.740  28.660  12.071
24254W        W96679  28.055  36.539  10.604
24255W        W96680  28.933  13.665  13.329
24256W        W96681  16.202  33.524   1.865
24257W        W96682   8.694   0.750  14.282
24258W        W96683  44.002  21.649  12.044
24259W        W96684  34.505  43.452  13.424
24260W        W96685  20.588  39.473   1.222
24261W        W96686   6.715  22.025  10.604
24262W        W96687   3.779  18.133  11.552
24263W        W96688  40.508  20.039  12.020
24264W        W96689  27.163  20.225  11.942
24265W        W96690  40.935  35.043   1.780
24266W        W96691  27.606   5.850  14.927
24267W        W96692  41.879  14.756  11.060
24268W        W96693   0.385  37.963   3.841
24269W        W96694  26.548   0.893   1.794
24270W        W96695  41.954   9.241  11.455
24271W        W96696  21.128  42.395  14.937
24272W        W96697   7.812  26.020  12.930
24273W        W96698  13.610  10.302  14.811
24274W        W96699  28.108  16.765   3.866
24275W        W96700  12.730  42.897  12.415
24276W        W96701   5.391  13.814   3.194
24277W        W96702   5.742  23.219  12.443
24278W        W96703  16.165  35.877   2.303
24279W        W96704  15.775  43.457  10.458
24280W        W96705  27.596   8.386   3.683
24281W        W96706   1.917  20.070  10.509
24282W        W96707  44.859  23.705  12.385
24283W        W96708  31.059  38.983   1.903
24284W        W96709  20.255  40.441  12.396
24285W        W96710  14.824   0.891  11.563
24286W        W96711  32.392  28.981  12.918
24287W        W96712  30.425   0.825   4.654
24288W        W96713  12.334   7.900  11.039
24289W        W96714  15.118  30.037   0.328
24290W        W96715   8.257  24.193  13.867
24291W        W96716  27.158  33.407   1.450
24292W        W96717   0.403  18.639   0.851
24293W        W96718  36.440  36.034   4.755
24294W        W96719   7.680  11.780   5.150
24295W        W96720   8.263  33.057   1.830
24296W        W96721  28.041  31.550  11.030
24297W        W96722  37.397   3.455  14.489
24298W        W96723  11.721   7.285   2.696
24299W        W96724  15.754  40.996   3.305
24300W        W96725  43.862   1.258   1.222
24301W        W96726  35.925  40.883   2.792
24302W        W96727   2.765   6.193  11.424
24303W        W96728  30.433  11.757  12.345
24304W        W96729  19.272   7.668   2.705
24305W        W96730  37.054   6.801   3.248
24306W        W96731   4.345  26.519  13.356
24307W        W96732  27.023  11.804  14.420
24308W        W96733  41.959   0.250  14.357
24309W        W96734  28.552  30.087   2.793
24310W        W96735  32.478  30.994  10.572
24311W        W96736  38.820   9.188  14.785
24312W        W96737  27.148  25.131  14.957
24313W        W96738   6.257  21.084  13.360
24314W        W96739   3.409  10.748   3.214
24315W        W96740  29.609  34.392  13.001
24316W        W96741   3.826  16.118  11.032
24317W        W96742  22.142  24.182  11.376
24318W        W96743  14.244  12.664  10.058
24319W        W96744  40.377  34.456  11.989
24320W        W96745  25.577  42.883   1.735
24321W        W96746  23.511  26.064  14.987
24322W        W96747  42.419   4.754  10.552
24323W        W96748  16.731  44.490   3.701
24324W        W96749  16.271  31.406  10.600
24325W        W96750   7.215  22.515  12.561
24326W        W96751  16.267   8.320   0.270
24327W        W96752  14.792  39.987  13.348
24328W        W96753  20.075  36.873  11.966
24329W        W96754  16.202  39.502  11.018
24330W        W96755  41.489  25.094   3.632
24331W        W96756  14.660  34.112  14.890
24332W        W96757  17.225  39.811  13.793
24333W        W96758  14.241  33.006  12.516
24334W        W96759  27.612  23.692   2.250
24335W        W96760  29.010  26.010  11.115
24336W        W96761  14.164  41.978  11.862
24337W        W96762  13.283  37.494  13.510
24338W        W96763   5.777  22.135   1.234
24339W        W96764  37.038   4.392  12.552
24340W        W96765   2.414  35.388  10.893
24341W        W96766  25.034  44.875   2.729
24342W        W96767  25.987  19.750  10.584
24343W        W96768  18.166  32.591   4.823
24344W        W96769  13.647  11.651  14.337
24345W        W96770  13.137  42.919  10.424
24346W        W96771  30.549  23.719   4.725
24347W        W96772  40.454   4.213   3.867
24348W        W96773  32.577  13.107   4.260
24349W        W96774  21.571   4.336  12.831
24350W        W96775  18.609  22.240  13.382
24351W        W96776  37.554  42.468   0.288
24352W        W96777   4.912  33.881   3.649
24353W        W96778  37.949  43.816  13.996
24354W        W96779  30.915   9.179  12.555
24355W        W96780  34.104  36.553   0.413
24356W        W96781  23.509  30.515  10.408
24357W        W96782  12.642  22.222   1.384
24358W        W96783  36.892  32.426   3.321
24359W        W96784  38.001  43.781   2.242
24360W        W96785  32.471  24.979  14.416
24361W        W96786  18.619  42.867   4.300
24362W        W96787  15.230   2.869  10.557
24363W        W96788  18.210  43.869   3.862
24364W        W96789  38.561  14.114  10.454
24365W        W96790  41.534   3.740   0.937
24366W        W96791  29.588   2.897   0.966
24367W        W96792  23.186   0.823  11.951
24368W        W96793  24.167  37.842  14.779
24369W        W96794  23.721  35.075   0.389
24370W        W96795  36.393   8.268   4.167
24371W        W96796  17.249   7.703  13.480
24372W        W96797  26.981  12.778   0.419
24373W        W96798   5.318  21.122   2.383
24374W        W96799  13.224   3.250  12.552
24375W        W96800  26.032  18.611   1.217
24376W        W96801   5.371  10.253  12.559
24377W        W96802  37.581  13.301   3.736
24378W        W96803   4.916   6.299   3.776
24379W        W96804  37.077   6.753   9.925
24380W        W96805   8.169   8.369   1.419
24381W        W96806  13.136   6.365  11.553
24382W        W96807   5.277   2.758   0.326
24383W        W96808   2.916  36.456  14.351
24384W        W96809   9.806  31.614   2.710
24385W        W96810  34.552  17.289  13.823
24386W        W96811  44.261  30.136  14.950
24387W        W96812  17.133   3.947  14.875
24388W        W96813  21.638  27.119   4.203
24389W        W96814  38.858  14.603  12.911
24390W        W96815  28.025  30.964   0.334
24391W        W96816  34.459  20.237   4.306
24392W        W96817  32.889   9.189  10.941
24393W        W96818  25.469  38.962  11.381
24394W        W96819  43.799   7.216  11.385
24395W        W96820  41.811   0.895   2.769
24396W        W96821  10.785  14.159  14.919
24397W        W96822  20.623  33.556  11.042
24398W        W96823   3.718  35.886  10.147
24399W        W96824  25.084   1.857   2.195
24400W        W96825  29.052  12.715  14.353
24401W        W96826  31.636  21.633  14.343
24402W        W96827   1.301  44.357   3.842
24403W        W96828   0.424  43.834  11.865
24404W        W96829   7.377  41.469  13.891
24405W        W96830  21.106  34.893   3.757
24406W        W96831   4.323   1.961   3.343
24407W        W96832  30.592  27.009  10.630
24408W        W96833  44.800  30.481  12.915
24409W        W96834  42.461  13.193   3.193
24410W        W96835  32.126  21.664   0.965
24411W        W96836  13.796  27.550  10.553
24412W        W96837  25.143   3.822   0.426
24413W        W96838  38.049  15.231   4.340
24414W        W96839  39.412  39.037   1.700
24415W        W96840   2.302   4.858  13.327
24416W        W96841  38.334  32.061  10.997
24417W        W96842   7.275   0.798  11.597
24418W        W96843  31.475  20.127  13.319
24419W        W96844  32.125  43.323   2.200
24420W        W96845   2.319   9.395  10.572
24421W        W96846   3.389  32.569   0.922
24422W        W96847  13.122  21.553   1.236
24423W        W96848   0.283  18.720  14.014
24424W        W96849  24.619  37.887  12.516
24425W        W96850  38.374  36.862  14.307
24426W        W96851  32.021   0.305   3.792
24427W        W96852  26.996  15.720  11.451
24428W        W96853  39.820  39.368  10.589
24429W        W96854  32.892  32.465   3.175
24430W        W96855  24.501   3.745  10.941
24431W        W96856  43.433  36.878  14.782
24432W        W96857   4.931  15.739  12.522
24433W        W96858  34.112  41.787  12.455
24434W        W96859  42.429  41.862   2.297
24435W        W96860   8.371   6.394  13.927
24436W        W96861  25.176  14.167  12.876
24437W        W96862   3.404   7.737  13.528
24438W        W96863   3.802  40.472  10.102
24439W        W96864  44.374   8.322   4.340
24440W        W96865   5.413  17.567  14.465
24441W        W96866   2.822  41.927  11.930
24442W        W96867  34.511  16.278  12.933
24443W        W96868  36.409  40.945   4.755
24444W        W96869  38.835  20.070  11.919
24445W        W96870   4.375  28.449  12.984
24446W        W96871  26.071  21.645   2.859
24447W        W96872   1.741  34.933   1.919
24448W        W96873  24.576  24.104  11.985
24449W        W96874  37.581  26.640  14.366
24450W        W96875   8.801  43.454   3.334
24451W        W96876  24.134  14.730  11.909
24452W        W96877  32.422  41.357   4.327
24453W        W96878  33.923  10.375  10.143
24454W        W96879   4.316  13.778  13.036
24455W        W96880  29.558   1.733   0.756
24456W        W96881  39.061  29.997   3.733
24457W        W96882   9.279   9.846  12.571
24458W        W96883  20.101  34.461   0.294
24459W        W96884  10.676  32.626   3.233
24460W        W96885   9.199   8.254   3.319
24461W        W96886  18.226  14.707  11.574
24462W        W96887  35.360  17.091   2.870
24463W        W96888  28.016  22.636  11.478
24464W        W96889  39.544  31.021  12.503
24465W        W96890  20.242  41.007   0.413
24466W        W96891   6.796   1.830  14.430
24467W        W96892   6.325  27.011  13.448
24468W        W96893  41.450   0.971   2.282
24469W        W96894  21.669  10.646   2.359
24470W        W96895  20.710  12.158  11.040
24471W        W96896   8.381  36.585   4.349
24472W        W96897   1.922  16.582   0.859
24473W        W96898  32.577  12.828  14.359
24474W        W96899  37.988  26.192   2.847
24475W        W96900  31.898   4.326  14.821
24476W        W96901  14.606   4.706  12.348
24477W        W96902  27.141  40.375   3.804
24478W        W96903   7.243  20.757   1.320
24479W        W96904  38.987   4.905  13.898
24480W        W96905  44.764  16.777   4.768
24481W        W96906   4.409  34.568   1.214
24482W        W96907  20.213  39.559   3.674
24483W        W96908  16.258  30.071  11.928
24484W        W96909  17.648  34.988  14.446
24485W        W96910  30.651  39.962   5.317
24486W        W96911  24.188  14.779   2.823
24487W        W96912  17.075  40.477  13.844
24488W        W96913  18.189  19.695  13.810
24489W        W96914   5.204   4.293  11.124
24490W        W96915  44.952  26.521   2.667
24491W        W96916   2.875  21.117  14.023
24492W        W96917  32.939  25.472  10.488
24493W        W96918  41.373  14.267   2.858
24494W        W96919  30.451  30.645  12.382
24495W        W96920  12.282  18.558   4.681
24496W        W96921  25.077  38.824   3.781
24497W        W96922  35.486   5.382  12.356
24498W        W96923  25.546  14.100  12.082
24499W        W96924   5.747  10.146  11.069
24500W        W96925  34.572  16.617   3.710
24501W        W96926  28.607  42.839   1.913
24502W        W96927  26.102   5.764  13.314
24503W        W96928  18.667  21.215   0.829
24504W        W96929  15.147  27.132  12.958
24505W        W96930  29.443   3.456  11.510
24506W        W96931  31.937  12.613   2.219
24507W        W96932  24.616  11.260   9.987
24508W        W96933  27.545  39.027  13.983
24509W        W96934   9.683  35.061   1.832
24510W        W96935  28.030  28.151   1.876
24511W        W96936  11.865   0.424  13.386
24512W        W96937  19.039   0.343   3.340
24513W        W96938  32.446  11.222   4.636
24514W        W96939  42.516   1.885  11.068
24515W        W96940   9.228  28.549  10.506
24516W        W96941  17.096  38.421   4.798
24517W        W96942  43.900  25.038  14.295
24518W        W96943  10.829  33.943  11.488
24519W        W96944  24.629  27.178   2.285
24520W        W96945   3.233  40.451   1.367
24521W        W96946  13.150   9.332  14.361
24522W        W96947  25.026  33.097   2.272
24523W        W96948   5.707  37.886   2.220
24524W        W96949  44.883  29.637   4.838
24525W        W96950   1.366  28.023   4.723
24526W        W96951  35.980  15.749   4.156
24527W        W96952  32.032   6.316   2.293
24528W        W96953  21.598  21.676   0.478
24529W        W96954   0.964  12.174   1.703
24530W        W96955  39.865  16.160   4.830
24531W        W96956  20.091   1.831   4.715
24532W        W96957  26.132   4.851   0.388
24533W        W96958  33.468  33.907  14.331
24534W        W96959  36.971  24.568   2.319
24535W        W96960  21.549  37.926  12.570
24536W        W96961   1.856  20.600   3.643
24537W        W96962  36.477  25.047  10.486
24538W        W96963   1.390  34.564   1.395
24539W        W96964  18.221  29.599  10.943
24540W        W96965  25.650  40.907   3.723
24541W        W96966   4.310  12.832  10.481
24542W        W96967   6.874  12.689  14.975
24543W        W96968  41.944  39.436   4.332
24544W        W96969  35.440  24.603  11.519
24545W        W96970  14.780  38.362   0.945
24546W        W96971  13.674  23.994   3.148
24547W        W96972  27.619  37.035  14.850
24548W        W96973  16.797  32.575   0.786
24549W        W96974  18.082  37.441   2.857
24550W        W96975  41.504  15.232   4.825
24551W        W96976  28.120  31.956  11.075
24552W        W96977   3.457  29.450  14.436
24553W        W96978  10.263  42.009   4.653
24554W        W96979  24.185   8.793  11.377
24555W        W96980  24.072  25.211  10.088
24556W        W96981  42.395  14.244   3.171
24557W        W96982  17.269  30.474   4.823
24558W        W96983   9.888  39.045  13.043
24559W        W96984   8.720  10.693   4.284
24560W        W96985  43.815   5.223   1.724
24561W        W96986  15.264   8.340  10.437
24562W        W96987  43.463   9.175   0.246
24563W        W96988  43.392   7.357   1.211
24564W        W96989  11.251  11.631  11.007
24565W        W96990  22.703  44.830  11.081
24566W        W96991  36.589   6.412  14.910
24567W        W96992  16.659   5.838  11.063
24568W        W96993  26.589   8.867   9.956
24569W        W96994  42.453  21.678  12.441
24570W        W96995  26.527  33.519   3.780
24571W        W96996  16.219   3.857   3.289
24572W        W96997   8.726  32.919   4.772
24573W        W96998  11.701  22.676   0.779
24574W        W96999  31.534   4.274  12.010
24575W        W97000  41.326  37.564  12.502
24576W        W97001  44.492  39.883  11.566
24577W        W97002  40.968  25.197   4.674
24578W        W97003   8.265  24.657  11.876
24579W        W97004  23.098  41.464   0.778
24580W        W97005  30.026  27.664   3.217
24581W        W97006  20.110   9.164   1.447
24582W        W97007   6.393  37.931  14.311
24583W        W97008  38.852  16.287   4.669
24584W        W97009  21.098  21.726  13.040
24585W        W97010  16.745   7.672   4.337
24586W        W97011  10.296  19.601   0.834
24587W        W97012   0.870  33.093   5.587
24588W        W97013   8.290  20.749   3.280
24589W        W97014  22.997  37.379  12.357
24590W        W97015   1.332  24.614   3.749
24591W        W97016  33.540   7.339   1.786
24592W        W97017   8.312  36.565   2.417
24593W        W97018   6.194  31.110  10.597
24594W        W97019   6.352  33.381  12.391
24595W        W97020  37.077  27.576   1.869
24596W        W97021  29.563  13.736  12.033
24597W        W97022  13.836  33.940  14.906
24598W        W97023   5.719   3.762   1.239
24599W        W97024  33.029  10.861  13.794
24600W        W97025  17.246  11.860   2.357
24601W        W97026  30.915  35.962   3.329
24602W        W97027   9.741  22.113   2.266
24603W        W97028  43.009  23.546   1.789
24604W        W97029   2.405   0.892   0.925
24605W        W97030  32.887  10.713   0.313
24606W        W97031  24.621   2.810   2.368
24607W        W97032   7.263   7.404  14.502
24608W        W97033  12.697  37.543   3.155
24609W        W97034  18.682  43.486  10.917
24610W        W97035   7.396   5.816  13.441
24611W        W97036  32.044  39.426   1.294
24612W        W97037  33.025  10.163  12.017
24613W        W97038   8.387  43.465  14.387
24614W        W97039   0.750  33.394   9.607
24615W        W97040   4.323  31.643  13.057
24616W        W97041   1.956  10.716  13.428
24617W        W97042  25.125  40.986  12.088
24618W        W97043  44.423  44.315  11.518
24619W        W97044   5.823  33.553   0.864
24620W        W97045  37.537  38.927   0.297
24621W        W97046  42.016   3.221  11.966
24622W        W97047  23.589  34.115   4.772
24623W        W97048  33.484  32.624  10.604
24624W        W97049   1.898  27.590   4.837
24625W        W97050   4.229  10.725  14.387
24626W        W97051  23.072  14.589   2.322
24627W        W97052  22.668  11.754   5.579
24628W        W97053   1.824   4.840   3.327
24629W        W97054  16.316  33.491  14.486
24630W        W97055   6.414  37.858  10.405
24631W        W97056  26.105  38.841  10.448
24632W        W97057   4.881  19.177   3.752
24633W        W97058  23.031  25.700  11.604
24634W        W97059  12.166  10.247  12.827
24635W        W97060  16.088  31.574  13.465
24636W        W97061  39.495  19.760  11.969
24637W        W97062   4.247   7.829   3.254
24638W        W97063  15.637  32.979  11.501
24639W        W97064  25.681  29.954   4.612
24640W        W97065  17.180  32.584   5.240
24641W        W97066  43.926  34.442   1.254
24642W        W97067   6.212  38.515   4.280
24643W        W97068  11.803  44.822  11.016
24644W        W97069   2.911  28.978   3.204
24645W        W97070  41.431  42.439   2.374
24646W        W97071  37.514  19.671   2.221
24647W        W97072  43.922  41.955   2.197
24648W        W97073  33.509  43.398  12.912
24649W        W97074  40.462  31.474  11.543
24650W        W97075  18.158  16.636  11.899
24651W        W97076  18.103  15.202  10.416
24652W        W97077   6.746  20.766  13.017
24653W        W97078   2.371  39.531  10.454
24654W        W97079  40.881  10.216  12.831
24655W        W97080  37.533  34.614   4.827
24656W        W97081  14.260  15.243   2.880
24657W        W97082  42.878  31.131   4.182
24658W        W97083  22.550  43.411   3.349
24659W        W97084  12.655  19.685   4.612
24660W        W97085   2.470  38.388  10.941
24661W        W97086  19.544  29.107   4.120
24662W        W97087  23.213   4.389   1.334
24663W        W97088   2.364  31.441   3.769
24664W        W97089  43.954  23.653  12.521
24665W        W97090  28.557   2.813  14.884
24666W        W97091   5.817  26.981   0.829
24667W        W97092  16.108  11.233   0.407
24668W        W97093   0.921  22.035  10.887
24669W        W97094   4.300  20.701   4.335
24670W        W97095  24.130   9.661   0.456
24671W        W97096  41.025  30.629   3.378
24672W        W97097   7.694  44.375   1.296
24673W        W97098  26.965  31.126   5.128
24674W        W97099  36.429   5.415   1.744
24675W        W97100   9.391  22.227  11.456
24676W        W97101  11.363  11.245   2.195
24677W        W97102   2.938   1.466  12.909
24678W        W97103  32.924  22.584   2.368
24679W        W97104  15.689  41.032   2.720
24680W        W97105  19.279   5.399  13.028
24681W        W97106  31.943  19.136   3.244
24682W        W97107   1.402  25.153   0.819
24683W        W97108  11.731  43.891   3.190
24684W        W97109  33.061  25.486  11.383
24685W        W97110  34.876  43.823   3.861
24686W        W97111   1.245   2.420  14.972
24687W        W97112  18.604   4.321  10.594
24688W        W97113  37.994   0.350   0.422
24689W        W97114  11.341  30.642  13.973
24690W        W97115  26.474  38.526  11.869
24691W        W97116   9.685  17.234  10.623
24692W        W97117  35.995   1.756   1.308
24693W        W97118  25.521  14.800   1.350
24694W        W97119  14.713  27.674   2.788
24695W        W97120  14.609   0.312   4.700
24696W        W97121  34.510  29.098   4.238
24697W        W97122  36.050  35.910   4.622
24698W        W97123  30.544  38.461   1.391
24699W        W97124   9.228  22.593   1.732
24700W        W97125  25.560  40.306   3.207
24701W        W97126  20.719   9.880   2.198
24702W        W97127   0.458   9.269  11.391
24703W        W97128  29.616  35.597  14.456
24704W        W97129  39.458   5.781   0.393
24705W        W97130  30.591  11.127  11.972
24706W        W97131  27.953  17.664  14.442
24707W        W97132  24.499   2.726  12.846
24708W        W97133  17.739  12.656  11.582
24709W        W97134   0.476  43.344   0.804
24710W        W97135   8.712  11.289  12.042
24711W        W97136  11.186  38.991  12.862
24712W        W97137  13.120  24.700   5.177
24713W        W97138   9.270  41.322   0.304
24714W        W97139  32.458   4.905  11.504
24715W        W97140  15.285  27.970  13.918
24716W        W97141  39.378  20.721  12.838
24717W        W97142  43.510  36.495   0.863
24718W        W97143  42.328  16.109   3.675
24719W        W97144  32.903  20.600  11.079
24720W        W97145  35.423  29.959   4.191
24721W        W97146  42.388  36.503  13.485
24722W        W97147  42.282  28.129   2.795
24723W        W97148   6.736  39.351  13.371
24724W        W97149  10.296  13.728  12.945
24725W        W97150  25.100  29.582   4.295
24726W        W97151   0.492   2.435   4.170
24727W        W97152  20.655  34.074  14.416
24728W        W97153   2.964  21.665   3.682
24729W        W97154  40.356  33.102  12.370
24730W        W97155  37.939  23.620  10.424
24731W        W97156  25.639  35.063  14.341
24732W        W97157  17.563  22.665  14.415
24733W        W97158  19.051  23.611   3.751
24734W        W97159   7.725  17.725  10.507
24735W        W97160  19.191  19.735   2.838
24736W        W97161   1.820  15.681   0.429
24737W        W97162  14.806  22.173  12.926
24738W        W97163   9.251  32.582  12.923
24739W        W97164  29.080  25.135   2.852
24740W        W97165  39.909  27.647  13.386
24741W        W97166  32.562  12.649  10.968
24742W        W97167  44.941  39.426   2.729
24743W        W97168  32.933  11.358  10.633
24744W        W97169   3.746  18.283  10.963
24745W        W97170  42.447  39.531   2.839
24746W        W97171  35.947  12.668  10.548
24747W        W97172  21.019   9.323  11.410
24748W        W97173  20.229  21.175  13.885
24749W        W97174  25.632  40.882  14.890
24750W        W97175  33.492   1.797   2.718
24751W        W97176  20.028   7.385   1.354
24752W        W97177  33.512  12.852   3.752
24753W        W97178  38.842  39.516   0.769
24754W        W97179  23.657  16.667   1.392
24755W        W97180  30.129  25.691  12.500
24756W        W97181  26.170  30.049   4.748
24757W        W97182  43.304  34.369  11.952
24758W        W97183  23.057   6.285  13.490
24759W        W97184  40.528   7.772   4.163
24760W        W97185  39.873   3.839   2.828
24761W        W97186  14.598  10.722  14.955
24762W        W97187  35.082  11.728   4.793
24763W        W97188  19.673  26.056   1.267
24764W        W97189   5.835  43.996   0.737
24765W        W97190  15.123   8.314   2.680
24766W        W97191  26.002  42.003  11.476
24767W        W97192  11.714  43.352  12.523
24768W        W97193  31.611  36.587   3.185
24769W        W97194  19.544  31.402   2.687
24770W        W97195  36.963  26.659  11.986
24771W        W97196  44.489  14.149   1.299
24772W        W97197  17.150  42.905   0.255
24773W        W97198  31.644  26.050   2.409
24774W        W97199  38.326   0.422  14.941
24775W        W97200   6.848   1.808  10.905
24776W        W97201  14.271   5.768  10.098
24777W        W97202   4.854  38.832  13.922
24778W        W97203   1.434  25.549  12.919
24779W        W97204  31.130  34.435  10.492
24780W        W97205  25.041   2.252   0.954
24781W        W97206   3.324  27.093   2.864
24782W        W97207   1.866  42.525   2.270
24783W        W97208   4.870  43.949  11.018
24784W        W97209  34.529   4.704  11.983
24785W        W97210  42.359  31.092  12.841
24786W        W97211  36.986  11.248   2.222
24787W        W97212  32.095   2.855  10.922
24788W        W97213  26.651  31.530  10.140
24789W        W97214  22.196  18.229  12.849
24790W        W97215  18.214  44.949   4.126
24791W        W97216  32.550  29.600  13.827
24792W        W97217  34.958  17.180   0.368
24793W        W97218  22.117  24.590   0.870
24794W        W97219   9.700  18.271  10.415
24795W        W97220  41.336   5.298  13.013
24796W        W97221  22.056  20.555  13.837
24797W        W97222   4.218  38.521  10.922
24798W        W97223  13.808  21.626  13.993
24799W        W97224  28.645  32.520   4.802
24800W        W97225   8.164   3.711  13.345
24801W        W97226  44.295  26.696   2.346
24802W        W97227  17.791  31.951  12.480
24803W        W97228  25.052   1.294   2.361
24804W        W97229  40.995  14.197   3.385
24805W        W97230  18.634  25.030  11.993
24806W        W97231  32.140  11.694  14.409
24807W        W97232  31.965  23.551  12.839
24808W        W97233  39.815  20.131  14.415
24809W        W97234  26.165  24.615   2.717
24810W        W97235   5.705  17.131   3.342
24811W        W97236  14.214   7.312   1.306
24812W        W97237  31.966  28.572  14.949
24813W        W97238  32.561  41.922   0.922
24814W        W97239  27.168  27.600  12.887
24815W        W97240   1.270  39.953   3.664
24816W        W97241   5.861  28.101   4.752
24817W        W97242  16.701  43.780   2.722
24818W        W97243  21.626  21.018   4.820
24819W        W97244  11.290   1.906  11.905
24820W        W97245  13.679  20.042   3.211
24821W        W97246  36.841   4.305   1.833
24822W        W97247  26.066  34.060  14.827
24823W        W97248  25.098  44.935   1.293
24824W        W97249   0.855   7.407   3.382
24825W        W97250  23.044  33.451   3.688
24826W        W97251  25.082  43.468  13.891
24827W        W97252  12.285  29.631  14.962
24828W        W97253  14.248  12.185   4.271
24829W        W97254  38.907  38.053  14.477
24830W        W97255  23.019   4.260   0.304
24831W        W97256  36.917  15.185  14.363
24832W        W97257   5.197  33.600  11.586
24833W        W97258   4.769  20.083   1.895
24834W        W97259  14.617  37.349  14.296
24835W        W97260  19.097  26.520  10.414
24836W        W97261  27.555  33.487  12.531
24837W        W97262  33.497  12.292   2.205
24838W        W97263  22.654   6.230  10.465
24839W        W97264  10.677   5.242  11.103
24840W        W97265  27.181  29.504   1.751
24841W        W97266  17.066  10.221   2.801
24842W        W97267  33.044  40.964  13.535
24843W        W97268   0.353  31.012   9.496
24844W        W97269  11.752  22.042  14.031
24845W        W97270  44.389  36.569  14.029
24846W        W97271   0.254  40.400   0.782
24847W        W97272  11.295  19.693  13.338
24848W        W97273  33.433   4.324  12.566
24849W        W97274  40.919  11.161  11.448
24850W        W97275  21.066  43.978  11.039
24851W        W97276  14.117   8.170  12.373
24852W        W97277  12.354  38.431  13.499
24853W        W97278  23.610  37.542  11.879
24854W        W97279  34.901  44.396   1.390
24855W        W97280  25.560  15.183  12.049
24856W        W97281  11.780   7.376  11.418
24857W        W97282   4.316  35.912   2.703
24858W        W97283  24.982  44.314  10.429
24859W        W97284  39.974  25.550  10.568
24860W        W97285  41.840  21.042  14.437
24861W        W97286  29.100  28.629  10.545
24862W        W97287  18.668  18.274   2.767
24863W        W97288  20.592  34.437   4.609
24864W        W97289   9.294   9.208  12.360
24865W        W97290  38.525  39.479  13.792
24866W        W97291  12.332  19.126   1.935
24867W        W97292  11.828  31.595  10.463
24868W        W97293  28.511  41.453   0.338
24869W        W97294  24.978  18.154  12.414
24870W        W97295  31.467  13.828  13.458
24871W        W97296   5.886  15.580  10.421
24872W        W97297  28.044   3.905   2.818
24873W        W97298   5.437   5.813   0.952
24874W        W97299  27.539   1.973   0.264
24875W        W97300  12.772   6.411  14.771
24876W        W97301   0.359  35.361   1.443
24877W        W97302   4.850  23.993  12.355
24878W        W97303  27.529  37.438  14.800
24879W        W97304  21.516  21.584   2.902
24880W        W97305  10.229  28.517  10.577
24881W        W97306  12.359  41.854   1.408
24882W        W97307  10.869   9.341   3.246
24883W        W97308  33.882  38.838   0.751
24884W        W97309   3.461  35.971  12.854
24885W        W97310  34.106  23.194  11.569
24886W        W97311  36.513  12.300  12.458
24887W        W97312   3.251  40.006   2.352
24888W        W97313  40.807   3.367  10.456
24889W        W97314  28.104  39.963  11.084
24890W        W97315  29.631  36.477   1.292
24891W        W97316  12.805  43.460  13.816
24892W        W97317  31.058  29.923   3.316
24893W        W97318  34.477  12.297  10.420
24894W        W97319  40.373  24.675  10.424
24895W        W97320  42.497  26.203   2.350
24896W        W97321  31.438   1.933  12.071
24897W        W97322  21.088  20.558  13.368
24898W        W97323  17.293  17.655  13.457
24899W        W97324  42.497  35.965  12.892
24900W        W97325  17.274  15.103  11.406
24901W        W97326  28.608  44.004  12.052
24902W        W97327  19.046  31.965  13.881
24903W        W97328  25.597  43.355   4.119
24904W        W97329  41.483   6.306   3.164
24905W        W97330  29.918  44.337  13.511
24906W        W97331  23.524   0.336   1.861
24907W        W97332  11.144  27.065   1.233
24908W        W97333  30.588  33.448   4.607
24909W        W97334  28.150  26.976  12.504
24910W        W97335  44.792  21.697   4.166
24911W        W97336  12.846   5.409  14.773
24912W        W97337   0.463  23.675   4.719
24913W        W97338   8.761   4.446  10.516
24914W        W97339  18.096  27.181   0.821
24915W        W97340  10.758   2.938   2.337
24916W        W97341  14.752  16.173   3.735
24917W        W97342  12.315  28.500   1.695
24918W        W97343  28.028  15.599  13.877
24919W        W97344  43.395  39.454   1.255
24920W        W97345  26.496  18.129  13.862
24921W        W97346  19.627   6.893  14.024
24922W        W97347   3.327  28.526   1.385
24923W        W97348  15.758   0.922   1.748
24924W        W97349  35.392   7.184   4.258
24925W        W97350  11.320  31.640  12.557
24926W        W97351  36.989  44.444  12.522
24927W        W97352  43.922  34.878   4.143
24928W        W97353   2.918  39.950   2.804
24929W        W97354  23.557  25.011  12.947
24930W        W97355  18.733  27.060  11.527
24931W        W97356  38.935  31.991   0.250
24932W        W97357  32.988  26.121   2.848
24933W        W97358  19.756  21.146   0.828
24934W        W97359   6.186  35.946  14.932
24935W        W97360  39.454   2.784  13.017
24936W        W97361  26.199   8.750  13.504
24937W        W97362  20.195   6.883   4.777
24938W        W97363  44.317   4.817  14.341
24939W        W97364  42.431  30.430  12.965
24940W        W97365  38.830   3.858  13.864
24941W        W97366   7.900  27.043  13.817
24942W        W97367   1.935   4.450  13.402
24943W        W97368  14.700  19.141   4.312
24944W        W97369  19.745  33.122   1.912
24945W        W97370   0.964  32.513   9.933
24946W        W97371   3.945  11.279   1.231
24947W        W97372  17.206  18.157  13.988
24948W        W97373  39.438  26.568  12.024
24949W        W97374  31.554  25.605  11.935
24950W        W97375  17.786   4.772  11.993
24951W        W97376  35.963  17.285  13.420
24952W        W97377  22.629  32.977  13.923
24953W        W97378  17.097  13.319  13.950
24954W        W97379  22.741  10.250  11.454
24955W        W97380  15.192   6.424  11.104
24956W        W97381  19.127   9.242   2.193
24957W        W97382   0.845   3.375  14.306
24958W        W97383  29.135  15.089   4.820
24959W        W97384  28.546  22.697   0.861
24960W        W97385  21.576   3.353  12.029
24961W        W97386  40.322   8.401  11.007
24962W        W97387  38.017  32.054  10.434
24963W        W97388  13.716   3.338  11.418
24964W        W97389  40.011   5.225  11.013
24965W        W97390  20.223   0.469  11.067
24966W        W97391   0.257  12.141   3.770
24967W        W97392  26.621  38.547   2.415
24968W        W97393  40.333  25.058  13.462
24969W        W97394   1.444  13.180  10.522
24970W        W97395  33.569  38.830  12.915
24971W        W97396  28.058   0.800   2.846
24972W        W97397  39.854  22.729   2.828
24973W        W97398  31.581  39.399   4.166
24974W        W97399   3.763   7.858   1.916
24975W        W97400  40.462   4.880   9.947
24976W        W97401   2.332  37.427  13.832
24977W        W97402  15.812  43.901  12.364
24978W        W97403  20.607  21.101   1.860
24979W        W97404  26.542   0.483  13.451
24980W        W97405  18.648  17.766  14.509
24981W        W97406  38.885  38.879  14.785
24982W        W97407   6.384  24.186  14.026
24983W        W97408   7.246  25.684  12.041
24984W        W97409  24.610  23.664   1.432
24985W        W97410  14.322  39.906  11.596
24986W        W97411  44.364  31.405   1.845
24987W        W97412  41.963  44.278  12.538
24988W        W97413  38.376   7.235  12.373
24989W        W97414  38.983  29.136  14.326
24990W        W97415  42.311  13.838   1.736
24991W        W97416  35.585  21.712   4.703
24992W        W97417  15.257   2.860   0.955
24993W        W97418   8.234  42.889  13.818
24994W        W97419  11.186  11.167  10.615
24995W        W97420  12.670  33.569   3.296
24996W        W97421   3.859  31.618   2.682
24997W        W97422  15.215  35.450  13.929
24998W        W97423  11.682  21.067  14.007
24999W        W97424  21.196  18.785  10.526
25000W        W97425  27.474  43.345   2.903
25001W        W97426   9.220   5.897   0.840
25002W        W97427  21.664  14.746  12.090
25003W        W97428  42.977   8.693   0.300
25004W        W97429  36.859   1.744   1.804
25005W        W97430   8.386  29.095   0.335
25006W        W97431   1.454  23.515  12.028
25007W        W97432  18.252  29.585   0.857
25008W        W97433  20.754   8.290   2.698
25009W        W97434  34.114  27.577   2.351
25010W        W97435   4.730  12.810  13.514
25011W        W97436  32.417  25.996   3.327
25012W        W97437  21.256  25.147  14.812
25013W        W97438  14.749  36.448  11.069
25014W        W97439  38.980  38.437   3.334
25015W        W97440  42.935  31.017   0.325
25016W        W97441  17.691  40.887  14.814
25017W        W97442  43.929  26.636   4.295
25018W        W97443  21.030  35.950   3.758
25019W        W97444  43.444  22.683   3.149
25020W        W97445  32.972  14.712   1.343
25021W        W97446   6.902  19.543   0.475
25022W        W97447  20.594  28.994   1.846
25023W        W97448   2.444  12.157  13.542
25024W        W97449  26.661   9.378   0.819
25025W        W97450   4.712   3.784  12.080
25026W        W97451  25.070  25.631   3.796
25027W        W97452  18.218   1.752  11.453
25028W        W97453  33.044  36.897   3.197
25029W        W97454   3.339  12.848  13.792
25030W        W97455   6.310  27.494  11.121
25031W        W97456  24.081  12.846   2.760
25032W        W97457  11.150  40.925   3.266
25033W        W97458  36.559  39.042  10.130
25034W        W97459  14.249  29.129  14.868
25035W        W97460   2.332  36.439  14.842
25036W        W97461  30.134  31.992  14.287
25037W        W97462  33.592   2.472   0.317
25038W        W97463   7.716  18.094  14.855
25039W        W97464  43.352  30.090   4.259
25040W        W97465  17.592  15.295   3.756
25041W        W97466  32.492  11.660  14.370
25042W        W97467  44.947  14.217   0.778
25043W        W97468  40.383   7.413   2.861
25044W        W97469   3.903   4.823  13.397
25045W        W97470  40.511  20.702  12.976
25046W        W97471  34.012  27.060   2.832
25047W        W97472  38.419  14.162  13.981
25048W        W97473  19.758  43.359  13.952
25049W        W97474   3.283  44.921  13.508
25050W        W97475  14.161  21.223  13.970
25051W        W97476  25.200   5.857   3.155
25052W        W97477   1.932  42.902  14.354
25053W        W97478  44.396  21.172  10.092
25054W        W97479  44.755  23.668   1.836
25055W        W97480  16.214  44.763   3.663
25056W        W97481  41.509  18.696  10.971
25057W        W97482   1.351  16.292  14.999
25058W        W97483   1.333  42.370   1.700
25059W        W97484   5.209  31.589  14.853
25060W        W97485  41.494   2.343  12.025
25061W        W97486  18.652  41.919   1.933
25062W        W97487  28.667  36.959   3.850
25063W        W97488   3.379  37.341   5.246
25064W        W97489   2.363  30.066  12.074
25065W        W97490  35.554   6.402   2.783
25066W        W97491  27.666  31.007  11.555
25067W        W97492  31.583   8.198   3.387
25068W        W97493   1.743  12.309   0.804
25069W        W97494  32.983  19.213  11.021
25070W        W97495  42.994  19.533   0.929
25071W        W97496  23.120  16.220   3.278
25072W        W97497  33.554  31.121  12.965
25073W        W97498   7.826  27.479  13.437
25074W        W97499  35.429  40.345   1.877
25075W        W97500   3.400  29.044  10.614
25076W        W97501  29.542  11.793   0.775
25077W        W97502  35.552   8.209   3.743
25078W        W97503  40.810  12.652   2.863
25079W        W97504   6.353   6.777  10.423
25080W        W97505   2.338  44.326  11.863
25081W        W97506  16.155  10.706  11.856
25082W        W97507  31.556   7.790   3.372
25083W        W97508  14.340  22.664  13.416
25084W        W97509   3.389  26.509   1.922
25085W        W97510  19.590   4.328   4.761
25086W        W97511  44.968  30.135  14.481
25087W        W97512  24.042   6.864  13.795
25088W        W97513  32.115  40.920   0.788
25089W        W97514  32.056  37.487   4.124
25090W        W97515  44.868  17.263  13.307
25091W        W97516  33.508  40.354  13.934
25092W        W97517  32.472   8.861  11.474
25093W        W97518  18.149  23.652  12.363
25094W        W97519  12.664   0.447   3.161
25095W        W97520   4.292  29.040  13.044
25096W        W97521  27.180  15.162   0.248
25097W        W97522  30.987  40.447   0.276
25098W        W97523  13.612   0.354   4.646
25099W        W97524   3.722   1.414   1.892
25100W        W97525  16.683  15.201  12.572
25101W        W97526  23.093   1.863  10.535
25102W        W97527   0.473  30.511  11.085
25103W        W97528   6.355  28.610  13.378
25104W        W97529  23.583  10.343  13.842
25105W        W97530  21.701  16.258  14.893
25106W        W97531  26.136  28.446  13.900
25107W        W97532  25.519   1.748   1.404
25108W        W97533  35.423  19.619   1.430
25109W        W97534  24.071  36.582  12.458
25110W        W97535  40.913  20.557  11.902
25111W        W97536   7.803  33.549  13.825
25112W        W97537  12.739  40.376  12.947
25113W        W97538  30.608   1.738  13.942
25114W        W97539  20.718   3.785   3.787
25115W        W97540  42.516  14.108  11.589
25116W        W97541   1.967   6.850   3.246
25117W        W97542  39.415  15.799   2.242
25118W        W97543  16.227  35.604  13.882
25119W        W97544  34.050  28.612   3.333
25120W        W97545  38.983   0.320   4.300
25121W        W97546  19.740  10.781   0.909
25122W        W97547  26.205  20.538   1.868
25123W        W97548   4.761   2.458   5.138
25124W        W97549  27.150  18.606   3.730
25125W        W97550  37.478  14.803   3.869
25126W        W97551  39.493  16.698  10.981
25127W        W97552  37.338  16.240   4.689
25128W        W97553   4.811  27.994  13.799
25129W        W97554  10.189  30.964   0.347
25130W        W97555  26.598  19.651  10.068
25131W        W97556  43.767  39.339  12.567
25132W        W97557  10.350  27.990   2.690
25133W        W97558  39.875   3.406   0.252
25134W        W97559  13.125  34.540  13.390
25135W        W97560  23.030  33.402  12.371
25136W        W97561  10.755  35.858   4.729
25137W        W97562  15.754  19.127  10.969
25138W        W97563  14.831  12.266   1.230
25139W        W97564  19.172   3.457   1.933
25140W        W97565   6.879   9.230  12.878
25141W        W97566  27.608  19.219   0.933
25142W        W97567  38.534  15.164  12.930
25143W        W97568  25.048  34.096   1.765
25144W        W97569  43.778  42.516  12.874
25145W        W97570  17.775  16.588   0.807
25146W        W97571  12.299   3.430   4.259
25147W        W97572  13.745  40.546  11.496
25148W        W97573   1.348  35.531   1.420
25149W        W97574  21.038  20.210   0.966
25150W        W97575  44.259  30.968  11.127
25151W        W97576  38.035  42.370  11.438
25152W        W97577   4.234  15.620  12.416
25153W        W97578  23.502  34.036  14.324
25154W        W97579  39.366  35.520  10.580
25155W        W97580  37.383   0.970  10.991
25156W        W97581  28.102  42.331  13.833
25157W        W97582  14.659   3.344  10.953
25158W        W97583  43.496  17.765  11.402
25159W        W97584  23.533  12.273   0.906
25160W        W97585  43.890  40.469  13.328
25161W        W97586  30.152   3.282  11.048
25162W        W97587  32.510  14.298   0.933
25163W        W97588   9.779  35.933  14.838
25164W        W97589   5.858  37.370  14.813
25165W        W97590  28.579  21.046  12.990
25166W        W97591  20.564  29.432  11.592
25167W        W97592   0.758  39.371   4.761
25168W        W97593  40.030   6.420   4.610
25169W        W97594  39.494  33.059   2.877
25170W        W97595   5.403  44.329  11.915
25171W        W97596  44.856  25.029   2.212
25172W        W97597  12.147  39.811  13.967
25173W        W97598  34.601  41.860  11.071
25174W        W97599  35.914  20.199   5.262
25175W        W97600  33.414  10.832  10.606
25176W        W97601  29.144   8.392  10.410
25177W        W97602  16.255   2.900   1.327
25178W        W97603   6.860   7.785   0.790
25179W        W97604  12.821  18.568  14.406
25180W        W97605  29.053  14.240  13.326
25181W        W97606  42.870  34.442   4.820
25182W        W97607   3.862  23.550   4.721
25183W        W97608   3.953  24.609   0.948
25184W        W97609  40.380  30.535   4.663
25185W        W97610  17.737  33.055  11.590
25186W        W97611  37.509  24.081   4.753
25187W        W97612  14.696  37.374  11.113
25188W        W97613   9.346  27.109   0.400
25189W        W97614  18.723  31.436  14.458
25190W        W97615   3.821   2.801  10.610
25191W        W97616  11.268   9.219  12.435
25192W        W97617   9.353  44.976  14.480
25193W        W97618  17.685   6.246   1.904
25194W        W97619  13.759  38.425  12.492
25195W        W97620  34.402  12.641  14.887
25196W        W97621  38.421  35.900   0.325
25197W        W97622  34.897   8.772  10.616
25198W        W97623  31.104  38.956   4.164
25199W        W97624  34.572  26.670  12.890
25200W        W97625  18.113  16.681   3.265
25201W        W97626  33.603  41.813  11.081
25202W        W97627   1.875  18.562  12.511
25203W        W97628  29.504  42.925  12.459
25204W        W97629  34.966  13.655  11.480
25205W        W97630   2.866  21.151   0.785
25206W        W97631  36.975  20.149   4.313
25207W        W97632  39.886  18.146  12.537
25208W        W97633  33.059  11.661  10.934
25209W        W97634  43.766  31.496   4.662
25210W        W97635  40.003  26.701   3.309
25211W        W97636  27.006  31.441   9.502
25212W        W97637  13.176  43.931  11.598
25213W        W97638   7.286  36.891   0.421
25214W        W97639   8.185  26.583  12.883
25215W        W97640  40.947  28.602  12.388
25216W        W97641  29.948  32.531  14.413
25217W        W97642   8.792  40.801   0.729
25218W        W97643  11.742  24.188  10.426
25219W        W97644  43.331  41.981   2.264
25220W        W97645  13.258  18.704   4.345
25221W        W97646  21.052  29.962  14.476
25222W        W97647   2.832  41.299  13.456
25223W        W97648  28.655  30.465   1.721
25224W        W97649  12.324  30.054   4.199
25225W        W97650  40.017  13.221   1.864
25226W        W97651  25.987  10.673   4.805
25227W        W97652  43.420  18.059  14.958
25228W        W97653   1.957   3.787  11.409
25229W        W97654  15.258   9.690  14.292
25230W        W97655  43.344   5.734  12.893
25231W        W97656  21.207  19.699  10.964
25232W        W97657   0.807  33.063  11.384
25233W        W97658   5.884   1.464  14.423
25234W        W97659  18.130   4.938  10.084
25235W        W97660  11.806  19.576  10.453
25236W        W97661  42.394   0.791   2.387
25237W        W97662   3.354  31.547   1.429
25238W        W97663  21.725  10.246   0.760
25239W        W97664  31.401  39.039   4.302
25240W        W97665  36.522  30.422  14.985
25241W        W97666  44.273  11.251   3.244
25242W        W97667   7.667  22.571   1.786
25243W        W97668  20.093  34.002  14.969
25244W        W97669  38.918  41.307  13.018
25245W        W97670  38.851  21.645   4.813
25246W        W97671  34.609  36.379   1.412
25247W        W97672   8.737   5.408   1.256
25248W        W97673  34.413   4.837   3.215
25249W        W97674   3.921  34.492  10.471
25250W        W97675  29.141   2.367  12.418
25251W        W97676   3.769  21.188  11.925
25252W        W97677  44.304  21.604  11.441
25253W        W97678  17.684   2.846   4.121
25254W        W97679  42.512  42.285  11.090
25255W        W97680  38.966  15.672  12.923
25256W        W97681  32.070  13.246  11.581
25257W        W97682  14.779  29.106  12.880
25258W        W97683  11.127   8.825   4.828
25259W        W97684  33.052  29.092   1.818
25260W        W97685  14.664  15.749  11.921
25261W        W97686  36.050  26.006  10.526
25262W        W97687  31.114   7.670   2.834
25263W        W97688   3.853  44.827  14.948
25264W        W97689  19.254  43.390  13.384
25265W        W97690   5.262  38.402   2.377
25266W        W97691  30.485   2.294   2.740
25267W        W97692  23.670  14.150  13.847
25268W        W97693  44.764  35.060  14.319
25269W        W97694  44.996   6.276  13.394
25270W        W97695  22.152   2.856   0.804
25271W        W97696   7.350  16.289  10.637
25272W        W97697  32.561  15.601  12.360
25273W        W97698  40.038  28.000   0.377
25274W        W97699   7.817  38.892   2.328
25275W        W97700  13.616  11.253  11.517
25276W        W97701  14.641  32.995  14.375
25277W        W97702  28.570  44.465  12.380
25278W        W97703  22.607  32.626  13.529
25279W        W97704  27.002  40.951  11.460
25280W        W97705  31.572  15.594   0.788
25281W        W97706  15.167  10.275  13.055
25282W        W97707  29.003  15.281  12.515
25283W        W97708  12.819  35.547  10.916
25284W        W97709  33.398  11.320  11.064
25285W        W97710   3.719  22.664   3.263
25286W        W97711  41.009  32.448   0.351
25287W        W97712  15.095   2.883  12.964
25288W        W97713  37.040  30.925   1.404
25289W        W97714  18.243  22.128  14.900
25290W        W97715  34.097  34.940   3.858
25291W        W97716  39.546  10.726   2.218
25292W        W97717  44.377  20.751   0.391
25293W        W97718  32.131  30.967  11.917
25294W        W97719  16.251  43.470   2.673
25295W        W97720  15.155  44.852   0.393
25296W        W97721   7.871  34.969   0.916
25297W        W97722  42.857  38.020  11.005
25298W        W97723   7.900  42.330  14.805
25299W        W97724  43.277  13.159  12.990
25300W        W97725  43.315   8.697  14.850
25301W        W97726  32.105  16.242   3.863
25302W        W97727  39.373  44.260  11.046
25303W        W97728  26.996   2.253  12.934
25304W        W97729  11.182  34.040   1.348
25305W        W97730  12.804  12.176  10.573
25306W        W97731  30.056  19.634   2.300
25307W        W97732  22.042  19.566  13.528
25308W        W97733   0.916  36.499   4.139
25309W        W97734  33.891   1.270   0.761
25310W        W97735   0.314  13.764   1.770
25311W        W97736  25.053  13.131   4.679
25312W        W97737  21.655   4.432   2.772
25313W        W97738  44.402  15.640  13.363
25314W        W97739  44.972   6.234  11.046
25315W        W97740  33.560  40.375  14.804
25316W        W97741  17.213   4.736  13.793
25317W        W97742   2.358  14.163   3.778
25318W        W97743  18.166  18.763   2.761
25319W        W97744  14.819  12.331   2.249
25320W        W97745  13.769  29.985  12.872
25321W        W97746  33.548  34.569   1.852
25322W        W97747   7.350  33.556  10.600
25323W        W97748  19.560  33.434  14.299
25324W        W97749  44.865  39.398  13.852
25325W        W97750  11.842  16.288  14.954
25326W        W97751  43.007   3.448  12.525
25327W        W97752  18.116  34.047   9.491
25328W        W97753  29.553  43.368   0.837
25329W        W97754  28.020  32.445   3.851
25330W        W97755  44.814  43.778  14.001
25331W        W97756  31.568  11.821   2.719
25332W        W97757  29.006   3.722  12.028
25333W        W97758  33.062  11.792  11.391
25334W        W97759  18.213  34.934  14.866
25335W        W97760   1.309  26.071   1.784
25336W        W97761  38.869   6.885   1.399
25337W        W97762  24.067  20.764   3.676
25338W        W97763  42.441   0.253  13.796
25339W        W97764  42.346   1.449   1.752
25340W        W97765  37.448  16.745   3.285
25341W        W97766  23.046  11.859   0.277
25342W        W97767  35.085  33.913   0.405
25343W        W97768  21.556  23.219   0.411
25344W        W97769  36.492   8.681   2.379
25345W        W97770  40.891  30.063   1.363
25346W        W97771  20.719  35.941  12.957
25347W        W97772  33.073  36.935  10.479
25348W        W97773   5.879  23.209   0.253
25349W        W97774  40.935  23.624  14.320
25350W        W97775  28.010  31.582  10.588
25351W        W97776  38.917   7.303  10.453
25352W        W97777  33.397  14.800  13.034
25353W        W97778  41.347  43.768  13.434
25354W        W97779  10.822  40.534  14.473
25355W        W97780   6.837  21.670   3.302
25356W        W97781  29.026  33.984   4.763
25357W        W97782  37.447  15.822   4.269
25358W        W97783  43.309  28.630   2.294
25359W        W97784  15.739   8.754   1.916
25360W        W97785  23.515  19.715  14.345
25361W        W97786  38.422   0.905   2.206
25362W        W97787  17.178   7.797   3.316
25363W        W97788  23.622   2.839   3.234
25364W        W97789  27.083   2.316   2.382
25365W        W97790  26.654  12.610   2.320
25366W        W97791  19.198   5.232   0.781
25367W        W97792   9.674   1.973   0.909
25368W        W97793   6.919  24.613  13.849
25369W        W97794   6.358  36.448  10.913
25370W        W97795  35.600  32.975   0.412
25371W        W97796  44.986  20.060   4.281
25372W        W97797  20.109  22.030  13.862
25373W        W97798  36.388   1.316  12.930
25374W        W97799  19.230  36.578  11.065
25375W        W97800  24.998  34.870  10.478
25376W        W97801  44.970  10.700  14.760
25377W        W97802  40.863  20.164  12.547
25378W        W97803   4.853   6.220   2.675
25379W        W97804   4.294   8.322  11.017
25380W        W97805   9.261  40.389   0.469
25381W        W97806  30.532   8.227   4.639
25382W        W97807  41.496   6.826   0.743
25383W        W97808   4.715   4.316   2.290
25384W        W97809  17.684  17.705   1.305
25385W        W97810  34.391  32.610  11.493
25386W        W97811  32.977   1.732   4.205
25387W        W97812  22.554   7.191   2.751
25388W        W97813   5.245  19.086  14.819
25389W        W97814  31.526  16.741   0.828
25390W        W97815  20.638  25.997  10.914
25391W        W97816   0.849  39.935  11.033
25392W        W97817   6.420  36.973  12.854
25393W        W97818  13.250  11.315  11.902
25394W        W97819  12.168  24.020  14.303
25395W        W97820  10.181  13.207  11.879
25396W        W97821  39.554  11.305  11.475
25397W        W97822  10.837  34.062   2.200
25398W        W97823  35.577  18.050   4.708
25399W        W97824  33.496  30.052  13.991
25400W        W97825  27.561  40.490  11.591
25401W        W97826  19.216  32.444  12.907
25402W        W97827  41.930  23.518   3.232
25403W        W97828  27.060  44.482   3.756
25404W        W97829  35.092  41.802  11.039
25405W        W97830  42.294  15.128   2.729
25406W        W97831  16.198  30.042  10.632
25407W        W97832  10.182   7.225   2.778
25408W        W97833   4.791  44.489  11.950
25409W        W97834  27.484  13.321  14.825
25410W        W97835  43.980  37.483  12.407
25411W        W97836  39.874   6.749   1.332
25412W        W97837  43.926  24.030   2.728
25413W        W97838   3.785  10.349   3.638
25414W        W97839  37.420  40.978   0.940
25415W        W97840   8.677  33.879   2.221
25416W        W97841  21.187  34.400   5.246
25417W        W97842   4.343  36.935   4.781
25418W        W97843  15.607  17.671  10.959
25419W        W97844  26.992  28.654  12.922
25420W        W97845  34.912  33.945  14.495
25421W        W97846   0.782  17.187   0.425
25422W        W97847  30.480   9.846   2.678
25423W        W97848  31.449   5.327   3.196
25424W        W97849  33.437   6.233   2.271
25425W        W97850  43.326  41.799   1.243
25426W        W97851  28.997  38.997   1.447
25427W        W97852   7.276  32.422   0.287
25428W        W97853   3.379  17.616  13.532
25429W        W97854  14.654  29.951   4.307
25430W        W97855  16.697   3.813   2.291
25431W        W97856  30.069   6.910  11.095
25432W        W97857  44.335  42.412  10.504
25433W        W97858   3.416  37.877  10.548
25434W        W97859  23.034  11.211   0.849
25435W        W97860  40.530  40.823  11.930
25436W        W97861  29.106  14.127  13.018
25437W        W97862  15.307  12.252  13.946
25438W        W97863  19.635  42.490   0.795
25439W        W97864  21.612  35.006  14.903
25440W        W97865  22.637  38.955  10.452
25441W        W97866   9.857  19.231   2.741
25442W        W97867  24.144  37.998  14.422
25443W        W97868  27.105  30.565   5.688
25444W        W97869  42.030  10.139   2.804
25445W        W97870  14.248  25.133  12.931
25446W        W97871  18.274  37.894   1.932
25447W        W97872  30.656  27.582  10.416
25448W        W97873  24.049  31.002  13.499
25449W        W97874  35.465  44.373  12.510
25450W        W97875  44.773  36.893  12.563
25451W        W97876  30.426  14.246   0.481
25452W        W97877  34.014  18.558   0.477
25453W        W97878  37.017  26.038   0.950
25454W        W97879  25.509  27.498   1.296
25455W        W97880  31.531   2.963   0.430
25456W        W97881  41.977   2.310   0.267
25457W        W97882  42.341   9.684  13.862
25458W        W97883  17.207  31.007   0.288
25459W        W97884   6.213   8.731   0.847
25460W        W97885  12.179   6.199   1.215
25461W        W97886   1.423  19.565   0.898
25462W        W97887  30.076  21.164  12.981
25463W        W97888  29.516   1.962  11.457
25464W        W97889  24.515  39.992   0.447
25465W        W97890  14.293   5.291  12.382
25466W        W97891   7.261  21.632   0.891
25467W        W97892  24.041  21.686   0.945
25468W        W97893  23.550  24.979   4.809
25469W        W97894   2.260   6.877  13.811
25470W        W97895  40.943  24.685   2.684
25471W        W97896  35.535  42.787   0.425
25472W        W97897  13.228  21.256   5.176
25473W        W97898   9.787  24.667  14.781
25474W        W97899  35.046   2.395  13.407
25475W        W97900  31.979   4.276   2.895
25476W        W97901  22.149  28.104   4.646
25477W        W97902  30.471  32.612  13.056
25478W        W97903  39.504  29.564  12.927
25479W        W97904  27.470  20.765   4.683
25480W        W97905  43.907   6.810   1.284
25481W        W97906  24.547  39.826   1.328
25482W        W97907  42.515  41.485   2.372
25483W        W97908   0.249  16.167  13.489
25484W        W97909  36.912  11.169   4.242
25485W        W97910  28.035  19.049   2.848
25486W        W97911  41.939  15.246   1.829
25487W        W97912  13.668  13.747  12.033
25488W        W97913   2.906  38.919  10.489
25489W        W97914   3.735  23.545   0.481
25490W        W97915  24.110  43.271   2.325
25491W        W97916  26.613   1.348   0.887
25492W        W97917  37.582   2.457   3.221
25493W        W97918  10.876  39.011  12.844
25494W        W97919   4.348  33.945   1.450
25495W        W97920  24.066  37.338   5.143
25496W        W97921  38.953  43.462   1.841
25497W        W97922  36.503  27.467   3.246
25498W        W97923   1.742  42.972  13.039
25499W        W97924   8.828  24.091  12.927
25500W        W97925  34.018  41.502  14.934
25501W        W97926  24.538  11.674  10.540
25502W        W97927  14.785  13.344  12.403
25503W        W97928  15.099  39.046  14.804
25504W        W97929  29.633  21.139  14.430
25505W        W97930  32.599   8.253   3.274
25506W        W97931  10.878   8.380  12.963
25507W        W97932   8.226   8.365  12.986
25508W        W97933  37.535  16.282  13.411
25509W        W97934  27.193   9.686  14.482
25510W        W97935   2.951   9.165   4.807
25511W        W97936  23.236  12.702  11.960
25512W        W97937  23.708  44.783   3.301
25513W        W97938  25.076  13.664   4.653
25514W        W97939   3.451   2.245   1.847
25515W        W97940   9.776  37.870   4.616
25516W        W97941  41.378  11.179  12.489
25517W        W97942   0.470  13.351  12.909
25518W        W97943  23.109  43.817  12.565
25519W        W97944   3.880  27.127  13.045
25520W        W97945   2.894   7.285  14.452
25521W        W97946  26.610   7.901   4.251
25522W        W97947  10.363   2.327  11.514
25523W        W97948   7.901  10.661   0.754
25524W        W97949   3.355   1.967  11.587
25525W        W97950   1.478  23.515   3.743
25526W        W97951   2.286  31.467   1.236
25527W        W97952  23.061  30.429   1.739
25528W        W97953  37.378  24.014   3.798
25529W        W97954  32.047  10.673  11.521
25530W        W97955  20.214  36.011  12.518
25531W        W97956  14.599   4.799   1.280
25532W        W97957  36.525  20.212   1.410
25533W        W97958  27.524  25.519   4.598
25534W        W97959  44.467  15.577   1.440
25535W        W97960   9.323   2.237   2.263
25536W        W97961  37.003  16.298   4.673
25537W        W97962  17.243  35.898  12.036
25538W        W97963  19.614   3.755   0.881
25539W        W97964  25.475  37.528   4.310
25540W        W97965  13.119  27.537   0.347
25541W        W97966  18.052  30.045  11.510
25542W        W97967  35.533  20.219   1.225
25543W        W97968  38.378  44.478  10.991
25544W        W97969  17.280  30.582  12.547
25545W        W97970  29.971  17.736  13.845
25546W        W97971   7.726  29.124   1.720
25547W        W97972  11.169  19.701  10.619
25548W        W97973  13.768  38.890   3.805
25549W        W97974  43.765  13.657   0.395
25550W        W97975  27.631  14.782  11.045
25551W        W97976  18.721  34.006  10.590
25552W        W97977  10.641  42.864  14.915
25553W        W97978  33.023  40.991   2.310
25554W        W97979  34.455  35.009  13.404
25555W        W97980  36.469   3.405   3.280
25556W        W97981  30.058  26.562  13.864
25557W        W97982   4.857   0.329   0.884
25558W        W97983  42.890  28.484   0.476
25559W        W97984  11.174  13.318  12.969
25560W        W97985  25.518  33.507   0.322
25561W        W97986   4.831  18.626   3.673
25562W        W97987  23.018  23.495   3.646
25563W        W97988  34.025  22.583   1.217
25564W        W97989  38.562  10.353   1.904
25565W        W97990  24.066  28.013   2.817
25566W        W97991  13.736  33.578   0.461
25567W        W97992  16.189   8.891  12.868
25568W        W97993   5.376   9.229   3.310
25569W        W97994  20.678  31.956  14.942
25570W        W97995  37.853   1.862   4.193
25571W        W97996  10.348  20.648   0.905
25572W        W97997  28.167  39.884  11.908
25573W        W97998  42.375  13.237   1.309
25574W        W97999   2.369  41.887   2.265
25575W        W98000  34.603  39.010   1.282
25576W        W98001  20.186  18.660  11.998
25577W        W98002  21.536  28.499  14.432
25578W        W98003  29.023  29.131  11.901
25579W        W98004  31.063  11.839   1.876
25580W        W98005  12.648  31.098  11.993
25581W        W98006  43.773  32.579   2.336
25582W        W98007   4.322  43.968   3.798
25583W        W98008  44.836  17.744   0.399
25584W        W98009  40.839   9.369   2.284
25585W        W98010  35.442   9.815   2.893
25586W        W98011  37.865  24.512   4.149
25587W        W98012   9.281  29.567   4.334
25588W        W98013  27.108  11.308   0.808
25589W        W98014   8.874  11.701   0.800
25590W        W98015  30.072  44.307   4.835
25591W        W98016  26.535  27.491  13.328
25592W        W98017  19.697   2.836   2.868
25593W        W98018   7.253   8.706  13.374
25594W        W98019  10.364  17.223  13.500
25595W        W98020  42.855  26.575   2.834
25596W        W98021  12.707   9.693   0.333
25597W        W98022   4.291  27.657   3.806
25598W        W98023  30.161  19.051  13.869
25599W        W98024  13.223  43.334  12.482
25600W        W98025  39.369  35.414   4.680
25601W        W98026  18.768  27.119  14.376
25602W        W98027  24.623  24.096  12.418
25603W        W98028  33.012  19.104  14.291
25604W        W98029  21.592  21.682  12.573
25605W        W98030  40.543  21.691   2.365
25606W        W98031  38.038  28.666  12.973
25607W        W98032  40.884   1.405  13.540
25608W        W98033   7.243   2.921  14.849
25609W        W98034  13.231  36.442  14.495
25610W        W98035   3.284  41.856  14.792
25611W        W98036  36.480  12.640  11.374
25612W        W98037  37.538  33.881  14.348
25613W        W98038  43.976   3.401  10.501
25614W        W98039  33.492  17.594   4.664
25615W        W98040  29.036  34.377   2.332
25616W        W98041   6.181  10.732  11.109
25617W        W98042  14.718   5.395  14.973
25618W        W98043  16.686  44.479   0.375
25619W        W98044  21.723  32.978   3.825
25620W        W98045  39.471   5.744  10.525
25621W        W98046  28.674  20.711  10.408
25622W        W98047   3.773  35.439   2.251
25623W        W98048  38.401  33.986  14.879
25624W        W98049  24.675  32.418  10.482
25625W        W98050   2.418  19.560  10.460
25626W        W98051  38.076   2.392  11.387
25627W        W98052  37.849   5.864   4.714
25628W        W98053   6.269  25.673   9.937
25629W        W98054   8.792  19.642  11.958
25630W        W98055  43.382  30.164  12.431
25631W        W98056  24.630   2.391  10.496
25632W        W98057  19.215  37.084   2.895
25633W        W98058  33.922  10.673  14.285
25634W        W98059  12.321  31.474   2.671
25635W        W98060   0.913  30.916  14.946
25636W        W98061   4.739  19.768  12.393
25637W        W98062  16.591   8.338  12.959
25638W        W98063  44.326   1.266  11.996
25639W        W98064  22.058  12.786   0.483
25640W        W98065  37.454  40.537  13.350
25641W        W98066  34.110  20.603   0.861
25642W        W98067  10.306  35.898  11.538
25643W        W98068  42.408  38.047  12.426
25644W        W98069  43.765  43.868  13.891
25645W        W98070  24.982  40.543  13.340
25646W        W98071   3.734   1.338   0.859
25647W        W98072  23.011   6.383  10.476
25648W        W98073   2.796  22.090   1.266
25649W        W98074  10.238  27.497  11.896
25650W        W98075  33.885  36.045   2.739
25651W        W98076  16.162   9.772   0.431
25652W        W98077  23.503  24.204   3.681
25653W        W98078  32.110  10.277  10.634
25654W        W98079  29.502  11.749   1.268
25655W        W98080  37.503  34.097   0.771
25656W        W98081  27.536   7.244   2.720
25657W        W98082   3.763  37.372  14.775
25658W        W98083  29.576   6.310  13.315
25659W        W98084  39.884  33.091  14.939
25660W        W98085   1.785  25.561  11.371
25661W        W98086  40.546  22.170  13.437
25662W        W98087  26.066  34.489   1.749
25663W        W98088  40.919  35.033  10.617
25664W        W98089  14.671  16.801  13.889
25665W        W98090  40.990  24.229   0.341
25666W        W98091  19.045  34.538  13.548
25667W        W98092  37.864  34.549   0.385
25668W        W98093  11.163   0.800   2.320
25669W        W98094  27.093  31.432  12.834
25670W        W98095  16.745  23.590   1.225
25671W        W98096  25.205   3.273  10.577
25672W        W98097   6.278  33.618  13.046
25673W        W98098   4.757  38.331   0.913
25674W        W98099  33.980  35.556  13.401
25675W        W98100  35.977  15.689   2.880
25676W        W98101  25.052  40.469   0.845
25677W        W98102  18.642  13.632   0.743
25678W        W98103  15.320  24.637  13.427
25679W        W98104  39.535  22.013  14.796
25680W        W98105  27.001  34.452   3.755
25681W        W98106   9.282  33.012  12.484
25682W        W98107  17.243  18.549   3.830
25683W        W98108  40.451   1.337  12.524
25684W        W98109  17.193  34.383  12.911
25685W        W98110   4.289  41.505  11.508
25686W        W98111  40.356  14.200   0.358
25687W        W98112  22.243  30.099   0.276
25688W        W98113  15.791  10.280   4.288
25689W        W98114  14.214  35.911   3.372
25690W        W98115  44.504  10.843  10.570
25691W        W98116  13.740  25.022   0.445
25692W        W98117  25.996  29.624   1.922
25693W        W98118  11.360   8.272   0.890
25694W        W98119  16.655  37.449  13.431
25695W        W98120  36.439   9.279  14.295
25696W        W98121  26.531   6.310   0.263
25697W        W98122   8.789  43.513   4.621
25698W        W98123  17.104  27.081   1.379
25699W        W98124  29.099  35.553   0.293
25700W        W98125  21.682  29.151   2.802
25701W        W98126  19.541  39.014  10.922
25702W        W98127  20.069  11.727   1.870
25703W        W98128  44.796  34.573   3.631
25704W        W98129  34.430   9.734  13.927
25705W        W98130  29.655  12.817   4.139
25706W        W98131   8.331   7.818   0.749
25707W        W98132  37.852  12.191   0.331
25708W        W98133   2.751   6.743   0.734
25709W        W98134   9.276  25.692   2.354
25710W        W98135  10.196  34.109   2.810
25711W        W98136  20.214  29.172   2.755
25712W        W98137   2.933  37.062  13.313
25713W        W98138  28.648  29.561   3.813
25714W        W98139  15.247  41.533   1.757
25715W        W98140   6.250  12.259   0.809
25716W        W98141  34.540  40.854  14.892
25717W        W98142  27.499  36.861   4.167
25718W        W98143   5.745  22.201   4.317
25719W        W98144  27.624   5.737  14.333
25720W        W98145  29.127  30.502   1.713
25721W        W98146  14.326  43.004  14.796
25722W        W98147  14.155  22.141   1.816
25723W        W98148  42.344  36.581  12.928
25724W        W98149  36.452  33.517  12.896
25725W        W98150  41.814  20.622   2.396
25726W        W98151  18.600  37.000  10.578
25727W        W98152  29.618   6.894   3.789
25728W        W98153  35.413  35.580  14.320
25729W        W98154  24.174  43.770   3.825
25730W        W98155  33.082  29.021   4.785
25731W        W98156  19.177  11.282  13.974
25732W        W98157  23.084   6.717   4.320
25733W        W98158  21.686  30.062   0.281
25734W        W98159  42.337  24.597  10.606
25735W        W98160   1.286  40.337  11.504
25736W        W98161  40.379  15.306  12.451
25737W        W98162  36.500  24.556  14.867
25738W        W98163  17.221  30.450  12.916
25739W        W98164  31.501  18.171  13.029
25740W        W98165  17.078  29.017   0.424
25741W        W98166  26.537  28.992  13.437
25742W        W98167  23.231   3.278  14.833
25743W        W98168  43.439   1.479   1.930
25744W        W98169  13.810  31.622   3.203
25745W        W98170  17.789  30.517   0.958
25746W        W98171  24.986  18.640   3.654
25747W        W98172  40.985  22.615  12.501
25748W        W98173  29.977  20.231   3.647
25749W        W98174   4.752  39.501   0.899
25750W        W98175  32.913  44.774   0.807
25751W        W98176  40.962  35.583   1.704
25752W        W98177   4.723  43.878  11.531
25753W        W98178  21.620  29.110  10.522
25754W        W98179   5.819   4.349   3.334
25755W        W98180  37.388  36.860  13.356
25756W        W98181  15.144  38.948   2.877
25757W        W98182  33.947  40.859  12.512
25758W        W98183  18.208  13.791  14.000
25759W        W98184  33.121  34.094   1.835
25760W        W98185  28.976   9.889  14.441
25761W        W98186  14.298  42.471   0.409
25762W        W98187  24.587   6.813  12.565
25763W        W98188   8.373   8.345  10.497
25764W        W98189  35.460   8.381  13.986
25765W        W98190  21.690  21.263  10.155
25766W        W98191   1.408  43.485  12.525
25767W        W98192  32.045  34.866   0.747
25768W        W98193  42.930  18.576   0.939
25769W        W98194  41.884  23.196  10.027
25770W        W98195  38.414  20.741   1.831
25771W        W98196  26.005  33.542   2.345
25772W        W98197  17.095  43.477   0.365
25773W        W98198  33.401   0.842   3.212
25774W        W98199  27.525   2.410   2.781
25775W        W98200  34.585   9.206  13.056
25776W        W98201   2.451  20.700   2.880
25777W        W98202   0.454  18.765  12.997
25778W        W98203  36.897  43.331  13.977
25779W        W98204  32.562  12.809  13.926
25780W        W98205  31.473  10.381   0.332
25781W        W98206  12.273   3.238   0.314
25782W        W98207  26.183  36.865   0.868
25783W        W98208  18.644   8.290  14.316
25784W        W98209  27.980  10.827   2.418
25785W        W98210  36.068  25.667  13.876
25786W        W98211  31.418  22.189   2.352
25787W        W98212  10.732  20.743  12.847
25788W        W98213  18.682  20.604   3.327
25789W        W98214  11.152   9.202   3.720
25790W        W98215  12.812  17.562   2.839
25791W        W98216  36.537  31.033  14.768
25792W        W98217  41.313  27.616   1.312
25793W        W98218  14.229  15.090   0.853
25794W        W98219  28.070  42.020   0.438
25795W        W98220  34.093  25.712  10.487
25796W        W98221  24.036  32.986   1.757
25797W        W98222  11.801  41.826  13.055
25798W        W98223   4.756  37.029  12.966
25799W        W98224  41.336  17.299  12.069
25800W        W98225  10.678  14.784  11.096
25801W        W98226  30.020   2.882  11.061
25802W        W98227   8.327   2.724  11.374
25803W        W98228   9.811   8.693   2.203
25804W        W98229   1.448   1.325  10.607
25805W        W98230  16.634   1.451   3.682
25806W        W98231  35.038  37.949  12.951
25807W        W98232  13.183  25.070  10.053
25808W        W98233  30.942  41.877   9.927
25809W        W98234  26.999  12.739  12.993
25810W        W98235  17.258  33.969  13.002
25811W        W98236  40.359  29.429   5.318
25812W        W98237  34.982  12.237  11.077
25813W        W98238  42.892  22.739   2.707
25814W        W98239   9.695  33.123   0.477
25815W        W98240  26.688  24.519   0.798
25816W        W98241  10.721   7.848  13.493
25817W        W98242  41.405  34.545   4.149
25818W        W98243  30.486  44.890   0.902
25819W        W98244  31.646   6.683   3.841
25820W        W98245  12.688   4.826   0.797
25821W        W98246  10.772  14.657   3.165
25822W        W98247   9.757  31.935   4.653
25823W        W98248  34.614   6.761  14.459
25824W        W98249  15.306  10.348   5.108
25825W        W98250  27.150  20.259   1.357
25826W        W98251  36.460  17.643  12.466
25827W        W98252   0.770  37.362   4.196
25828W        W98253   1.461  22.250  10.988
25829W        W98254  34.115  35.388   3.269
25830W        W98255  30.140  11.667  14.856
25831W        W98256   7.385  17.291   3.703
25832W        W98257   5.242  38.016  14.956
25833W        W98258  25.113   8.390   1.386
25834W        W98259  39.876  34.430   2.312
25835W        W98260  37.963   5.745   1.344
25836W        W98261  26.143  12.823  14.827
25837W        W98262   9.389   0.272  11.541
25838W        W98263  29.604   2.892  11.425
25839W        W98264  30.569  38.067   0.465
25840W        W98265  34.567  33.026  14.829
25841W        W98266  38.543  12.646   0.258
25842W        W98267  20.632   4.252  11.923
25843W        W98268  31.018   5.276  11.476
25844W        W98269  33.882  15.779  11.395
25845W        W98270   8.741   7.361   4.608
25846W        W98271  24.115   3.271   9.982
25847W        W98272  39.460  19.561   0.735
25848W        W98273  33.127  11.363   1.801
25849W        W98274  39.950   7.336   0.900
25850W        W98275  41.801  15.653   3.695
25851W        W98276  27.185  36.962   2.859
25852W        W98277  35.097  25.969   3.680
25853W        W98278  24.516  10.309   3.265
25854W        W98279  19.651  40.874   3.705
25855W        W98280  25.495  32.998  12.009
25856W        W98281   4.358  44.768   0.867
25857W        W98282  44.789  13.768  10.899
25858W        W98283   3.383   2.258   2.752
25859W        W98284  34.073  24.147  14.452
25860W        W98285  44.472  37.854   9.981
25861W        W98286  18.159   6.283  11.513
25862W        W98287  36.097  44.319  12.850
25863W        W98288  20.261  31.028   4.287
25864W        W98289  18.606  14.144   5.215
25865W        W98290   2.823  35.471  13.519
25866W        W98291  23.086  18.092   1.237
25867W        W98292  11.697  36.369   3.194
25868W        W98293   9.764  16.073  13.960
25869W        W98294  31.469   9.295   2.860
25870W        W98295  15.767  14.789  10.964
25871W        W98296  31.589  37.510  13.464
25872W        W98297  15.813   6.894  14.454
25873W        W98298  26.501  31.001  11.495
25874W        W98299   4.838   7.755  14.787
25875W        W98300   2.453  37.834  13.398
25876W        W98301  18.179  44.395  10.457
25877W        W98302   6.902  34.470  12.835
25878W        W98303  28.578   9.861   1.425
25879W        W98304   5.805  39.838   2.312
25880W        W98305   1.758  17.166  11.425
25881W        W98306  35.498  16.768  14.302
25882W        W98307  25.120  22.061  14.447
25883W        W98308  29.968   0.321   3.777
25884W        W98309  23.681  28.959  10.583
25885W        W98310  18.785  23.557   3.238
25886W        W98311  25.527   3.302   0.793
25887W        W98312   3.410  19.545   1.886
25888W        W98313  32.547  23.989   3.176
25889W        W98314  42.330  17.256  14.420
25890W        W98315  34.599  37.938   2.294
25891W        W98316  18.092  26.085   1.301
25892W        W98317   2.754   9.848   1.411
25893W        W98318  10.148  13.821   5.299
25894W        W98319  43.788  18.226  13.018
25895W        W98320  39.496  42.387  11.085
25896W        W98321   4.920  20.150   1.305
25897W        W98322  12.120  19.082  14.408
25898W        W98323   0.384  24.533  13.541
25899W        W98324  39.418  38.541  10.574
25900W        W98325  42.990   1.237   1.759
25901W        W98326  16.712  16.738   3.745
25902W        W98327  42.322  13.169  12.010
25903W        W98328  26.698   3.807   0.379
25904W        W98329  44.450   4.707   0.776
25905W        W98330  43.441  38.496   3.364
25906W        W98331   5.902  17.137   4.724
25907W        W98332  41.400   2.860   1.342
25908W        W98333  13.317  43.785   3.193
25909W        W98334   9.169  44.497   2.863
25910W        W98335  21.596  34.905   1.404
25911W        W98336  40.531  44.497   2.824
25912W        W98337  16.777  24.047  12.973
25913W        W98338  24.622  26.177  13.812
25914W        W98339  10.258  30.014  11.101
25915W        W98340   9.825  19.261   3.730
25916W        W98341  26.067  29.003  13.438
25917W        W98342  14.204  43.470   1.434
25918W        W98343  23.724  14.321   4.189
25919W        W98344  41.325  21.696  11.392
25920W        W98345  38.883  30.929   3.183
25921W        W98346  36.377  39.852   2.311
25922W        W98347  27.035  19.097   0.801
25923W        W98348  22.516   6.271  13.462
25924W        W98349  29.013   5.738   1.829
25925W        W98350  20.640  30.974   4.608
25926W        W98351   5.697  29.032  12.932
25927W        W98352   2.902  24.692  11.956
25928W        W98353  32.126  14.221   3.663
25929W        W98354  22.530   4.254  11.980
25930W        W98355   1.784  32.519  11.909
25931W        W98356  32.626  43.393   4.325
25932W        W98357  16.606  22.686  13.040
25933W        W98358  34.904  21.251  14.318
25934W        W98359   5.731   7.804   3.187
25935W        W98360  26.095  18.126   4.599
25936W        W98361  43.359   0.466   1.359
25937W        W98362  37.989  31.608  14.429
25938W        W98363  23.716  29.072  13.534
25939W        W98364   1.758  11.372  14.314
25940W        W98365  31.916  32.899   2.391
25941W        W98366   6.369  33.598  14.385
25942W        W98367  33.581  28.530   0.858
25943W        W98368  15.816  38.998  13.543
25944W        W98369  20.235   7.695  13.964
25945W        W98370  34.609  33.383  10.523
25946W        W98371  28.435  25.022  13.019
25947W        W98372  36.952   3.916   0.442
25948W        W98373   8.868  24.037   3.735
25949W        W98374  43.484  19.605  10.135
25950W        W98375  31.460  32.984  11.070
25951W        W98376  11.131  40.531   0.339
25952W        W98377  38.820  39.452  14.833
25953W        W98378   9.300  10.373  12.492
25954W        W98379  23.637  14.319  11.373
25955W        W98380  29.154  19.274   2.232
25956W        W98381  28.592  42.455   0.415
25957W        W98382   9.691  31.625   4.639
25958W        W98383  44.288  39.814  13.064
25959W        W98384  34.601   9.188   1.277
25960W        W98385  17.202  16.691  14.385
25961W        W98386   7.367  28.486  10.920
25962W        W98387  43.808  26.533   2.402
25963W        W98388  12.322  20.615   2.667
25964W        W98389  38.946  34.478   2.316
25965W        W98390  28.445  43.973   4.346
25966W        W98391  38.474  35.501   3.642
25967W        W98392   9.700   9.320   0.880
25968W        W98393  10.290  32.588  13.839
25969W        W98394  22.246  23.497   3.346
25970W        W98395  21.647  25.661  10.477
25971W        W98396  16.238  29.132  12.539
25972W        W98397  29.536   0.886   4.839
25973W        W98398  42.026  21.141   0.377
25974W        W98399  40.991   9.675  10.484
25975W        W98400  10.854  26.594  12.999
25976W        W98401  11.766  31.976  13.056
25977W        W98402  43.512  31.639   3.763
25978W        W98403  27.597   1.772   4.638
25979W        W98404  18.716   0.408   4.779
25980W        W98405  23.120  38.849  14.386
25981W        W98406  18.164   9.250   3.147
25982W        W98407  22.679  37.366  14.870
25983W        W98408  36.409  19.734  11.026
25984W        W98409  19.061  15.234   3.664
25985W        W98410  20.092  36.462  13.395
25986W        W98411  15.317  23.568   4.189
25987W        W98412  13.207  11.286  12.834
25988W        W98413  20.170  22.076   0.861
25989W        W98414   2.858  24.667   4.661
25990W        W98415  24.163  30.154   3.667
25991W        W98416  11.793   5.251  10.457
25992W        W98417  41.036   9.756  13.518
25993W        W98418   1.405  29.572   0.841
25994W        W98419   9.855  33.042  12.474
25995W        W98420  28.579  31.083   0.797
25996W        W98421   1.355  37.928  12.976
25997W        W98422  10.849  16.770  14.945
25998W        W98423  44.406  10.763  13.390
25999W        W98424  24.692   0.794  12.094
26000W        W98425   3.881  25.602  12.932
26001W        W98426  11.737  13.150   2.846
26002W        W98427  13.657  42.806   0.296
26003W        W98428  16.574  35.578   3.307
26004W        W98429  38.415  14.830   1.392
26005W        W98430   0.955  30.049  12.056
26006W        W98431  42.990  14.699  13.448
26007W        W98432  18.786   9.722  10.474
26008W        W98433  15.810  40.826   0.439
26009W        W98434   4.220  28.133  10.555
26010W        W98435   2.309  14.147  10.588
26011W        W98436  25.051   0.451  12.559
26012W        W98437   8.257   9.879  11.447
26013W        W98438  29.156   8.874   1.379
26014W        W98439  39.333  39.969   4.173
26015W        W98440  36.070  40.418  13.949
26016W        W98441  10.876  39.424  13.930
26017W        W98442  43.852   4.774   2.194
26018W        W98443  12.209   1.321   5.119
26019W        W98444  40.395  23.594   0.903
26020W        W98445  28.082  39.842  12.545
26021W        W98446  29.442  38.888  13.838
26022W        W98447  30.091  32.117   2.216
26023W        W98448  15.180  29.054   0.444
26024W        W98449  23.204   3.434  11.933
26025W        W98450  23.018  18.648  13.831
26026W        W98451   5.818  39.017  13.871
26027W        W98452  38.430  26.461   2.862
26028W        W98453  17.193  12.709  13.846
26029W        W98454  40.813  24.105  12.346
26030W        W98455  24.041   7.810   4.806
26031W        W98456  22.607  43.290   1.756
26032W        W98457  27.680  22.524  10.510
26033W        W98458  27.681  12.312  11.528
26034W        W98459  30.016   9.876  14.476
26035W        W98460  24.643  15.314   2.747
26036W        W98461   2.316  35.450   0.311
26037W        W98462   9.196   4.398  14.006
26038W        W98463   5.783  32.006   1.767
26039W        W98464  23.161  11.153  10.543
26040W        W98465   1.895  31.484  12.519
26041W        W98466  13.695  23.523   0.244
26042W        W98467  19.653  44.949   4.804
26043W        W98468   6.803   5.330   0.378
26044W        W98469   5.733   8.883  11.868
26045W        W98470   4.440   9.148  13.385
26046W        W98471   6.855  43.892  13.812
26047W        W98472  10.234   1.301   0.350
26048W        W98473  13.801  15.096   1.818
26049W        W98474  11.712   4.383   4.650
26050W        W98475  17.287  23.234  11.396
26051W        W98476  18.658  29.074  12.940
26052W        W98477  29.434  28.476  11.006
26053W        W98478   7.170  28.605  12.047
26054W        W98479  18.204   3.913  10.406
26055W        W98480  26.102   4.875   0.940
26056W        W98481  31.418   6.221  13.839
26057W        W98482   0.832  27.117  13.929
26058W        W98483  19.079  34.088   3.211
26059W        W98484  44.407  16.168   1.702
26060W        W98485  30.144   3.775  11.483
26061W        W98486  43.800  36.077  12.095
26062W        W98487  19.213  16.265   2.191
26063W        W98488  22.032  18.689  14.457
26064W        W98489   5.282  30.028  10.894
26065W        W98490   7.353   2.362   3.860
26066W        W98491  12.707  32.925  11.412
26067W        W98492   1.967  22.560   2.266
26068W        W98493   6.734  44.902   3.638
26069W        W98494  41.923  20.060  13.394
26070W        W98495   7.668  34.442   4.301
26071W        W98496  22.735  35.482   0.286
26072W        W98497  19.257  42.520   0.882
26073W        W98498  13.601   2.843   1.225
26074W        W98499  24.578  38.973  10.636
26075W        W98500  41.506  15.665   2.665
26076W        W98501   3.289  37.984   0.314
26077W        W98502   3.269  42.395  14.768
26078W        W98503   3.747  32.003   1.712
26079W        W98504  34.393  40.803   0.323
26080W        W98505   1.406  42.839  14.483
26081W        W98506  25.074  37.839  11.083
26082W        W98507  37.349  10.222   3.196
26083W        W98508  27.945  20.635   5.173
26084W        W98509  14.100  42.030   4.659
26085W        W98510  27.550  16.304  12.407
26086W        W98511  33.078  20.568  14.494
26087W        W98512  42.809   6.793  11.126
26088W        W98513  36.995   8.747  12.018
26089W        W98514  42.379  30.163   3.353
26090W        W98515  20.120  34.940  12.049
26091W        W98516  33.586  44.294   1.879
26092W        W98517   9.845  28.646  14.465
26093W        W98518  24.989   0.285  11.601
26094W        W98519   2.288  35.037  13.405
26095W        W98520  30.604  27.088   3.835
26096W        W98521   3.439  16.083  12.954
26097W        W98522  25.206  23.647  13.003
26098W        W98523  28.653  22.097   5.107
26099W        W98524  20.692  13.169  12.867
26100W        W98525  44.485  17.183   9.927
26101W        W98526   0.411  24.094  12.003
26102W        W98527  10.826  28.619  10.607
26103W        W98528  24.664  20.089   0.436
26104W        W98529  31.948  22.044   0.902
26105W        W98530   7.909   9.878  13.840
26106W        W98531  35.492  31.942   1.789
26107W        W98532  16.596   0.797   1.278
26108W        W98533  42.465  27.582   0.779
26109W        W98534  39.839  20.726   1.836
26110W        W98535  31.130  21.677   3.713
26111W        W98536  30.064   3.222   1.426
26112W        W98537  21.564  34.891  12.477
26113W        W98538  24.488  42.371   2.869
26114W        W98539  13.153  21.071  13.011
26115W        W98540  29.049  42.937  11.572
26116W        W98541   0.292  40.391  10.579
26117W        W98542  41.788   6.853  12.876
26118W        W98543  42.320  31.942  10.965
26119W        W98544  34.960   1.358   4.208
26120W        W98545   4.387  42.460  12.411
26121W        W98546  28.558  18.257   4.169
26122W        W98547  28.986  32.097  13.968
26123W        W98548  25.490  44.903   0.956
26124W        W98549  42.390  28.519  13.956
26125W        W98550  13.654  28.052   1.855
26126W        W98551  20.209   2.304  12.457
26127W        W98552  34.394   9.271  14.816
26128W        W98553   0.383  30.092  14.812
26129W        W98554   9.783  42.808  14.334
26130W        W98555   9.388  43.467  11.517
26131W        W98556  22.526  22.639   1.319
26132W        W98557  10.350  23.719   3.786
26133W        W98558  11.827   5.770   1.311
26134W        W98559  16.705  33.874   4.119
26135W        W98560  38.970  12.629   3.849
26136W        W98561   5.371   3.421   2.207
26137W        W98562  29.666  22.034   2.198
26138W        W98563  21.749  12.214   3.271
26139W        W98564  13.235  14.150  11.880
26140W        W98565  31.562  23.698   3.751
26141W        W98566  12.306  31.005  11.095
26142W        W98567  32.493  23.586   3.829
26143W        W98568  30.045   4.787  11.554
26144W        W98569  23.059   2.381  11.425
26145W        W98570  35.390  37.873   1.741
26146W        W98571  21.209  17.573   4.743
26147W        W98572  13.666  28.131   2.184
26148W        W98573  28.627  34.550  13.803
26149W        W98574  35.902  31.613  11.100
26150W        W98575  20.184  21.575  14.465
26151W        W98576  15.611  42.924  11.426
26152W        W98577   3.932  29.107  14.998
26153W        W98578  22.148   6.252  14.485
26154W        W98579   2.362  30.035   0.344
26155W        W98580  37.379  18.586   3.157
26156W        W98581  42.437  31.424   1.841
26157W        W98582   8.865  26.545   3.205
26158W        W98583  36.948   6.686   2.871
26159W        W98584  34.385  15.703   0.455
26160W        W98585  29.599   7.902  13.801
26161W        W98586  11.641  19.140  10.644
26162W        W98587  23.105   1.777   1.424
26163W        W98588   7.356  38.507   0.479
26164W        W98589  44.975  42.330  10.527
26165W        W98590  12.710  33.031  10.938
26166W        W98591  12.641  34.574   4.219
26167W        W98592  18.645   1.253  11.480
26168W        W98593  33.954   6.406  11.487
26169W        W98594   6.350   1.968  14.906
26170W        W98595  21.604  37.371   3.330
26171W        W98596  23.524   7.328  12.893
26172W        W98597  16.262  10.306   0.470
26173W        W98598  18.251  38.882  10.159
26174W        W98599   1.809   5.266   3.759
26175W        W98600  12.296  32.934   1.268
26176W        W98601   1.332  34.544  11.532
26177W        W98602  16.694  41.537  11.454
26178W        W98603  21.257  40.972   3.639
26179W        W98604   3.272  32.608   3.191
26180W        W98605   9.725  44.906  14.791
26181W        W98606  43.962  40.471   2.791
26182W        W98607  27.557  21.199   0.777
26183W        W98608  10.317  42.831   3.322
26184W        W98609   0.866  30.549  14.495
26185W        W98610  35.894  25.147  14.467
26186W        W98611  30.034  36.056  14.847
26187W        W98612  40.800  29.978   1.729
26188W        W98613  22.585  35.956  14.299
26189W        W98614  14.313  25.694  10.436
26190W        W98615  16.634  15.149   3.775
26191W        W98616  34.497  18.663  13.985
26192W        W98617  37.390   9.176  10.643
26193W        W98618   4.292  24.634   0.830
26194W        W98619  29.042  16.752  11.106
26195W        W98620  19.710  16.259  13.411
26196W        W98621   6.196  31.511   3.184
26197W        W98622  44.975   0.328   0.349
26198W        W98623   2.307  36.079   4.691
26199W        W98624  44.344   1.239   2.771
26200W        W98625  41.908   4.338   1.784
26201W        W98626   7.848  22.050   3.818
26202W        W98627   7.335  40.542  12.508
26203W        W98628  27.104   6.922   4.269
26204W        W98629  44.434  42.854   5.183
26205W        W98630  16.697   4.268   4.818
26206W        W98631  25.467  40.417   2.349
26207W        W98632  21.026  37.502  11.887
26208W        W98633  44.499  15.311  11.559
26209W        W98634  26.188  20.606  14.349
26210W        W98635  31.570   2.792  10.906
26211W        W98636  12.355  36.467  14.412
26212W        W98637  10.730   9.209  12.090
26213W        W98638  23.626   7.180   4.786
26214W        W98639  22.563  10.258   4.129
26215W        W98640  24.058  41.328   3.636
26216W        W98641  30.434  39.406   0.925
26217W        W98642  19.732   8.811  13.884
26218W        W98643  33.129  43.399  13.998
26219W        W98644  29.452  33.132  14.893
26220W        W98645  30.505  15.105  10.455
26221W        W98646   4.300  31.479   0.829
26222W        W98647  41.865  22.227  13.454
26223W        W98648   0.910  43.300  14.020
26224W        W98649  27.176  44.430   0.289
26225W        W98650  40.422   8.712   5.095
26226W        W98651  29.626  24.567  13.984
26227W        W98652   3.262   5.846   4.831
26228W        W98653  16.628   6.776   3.180
26229W        W98654  29.160   6.875  13.436
26230W        W98655  44.982  39.534   1.414
26231W        W98656  17.228  22.576  11.049
26232W        W98657   3.238   1.352   4.312
26233W        W98658  32.502   2.346  12.494
26234W        W98659   8.896   2.821  12.859
26235W        W98660  17.146  42.818  11.444
26236W        W98661  19.108   0.409  14.899
26237W        W98662  36.997  29.546  13.315
26238W        W98663  25.579   6.421   1.762
26239W        W98664  23.234  40.447  13.937
26240W        W98665  12.624   5.424   2.405
26241W        W98666  41.870  23.110  12.046
26242W        W98667  26.635   7.789  13.386
26243W        W98668  41.842  33.056  11.372
26244W        W98669  25.508  26.491   1.256
26245W        W98670   4.373  30.939   0.420
26246W        W98671  18.114  33.109  13.866
26247W        W98672  20.592  19.582   1.762
26248W        W98673  39.501  23.542  10.533
26249W        W98674  28.075  30.930  14.498
26250W        W98675  11.280  38.054  10.947
26251W        W98676  44.327  24.604  14.843
26252W        W98677  15.668  15.597  10.934
26253W        W98678  16.674   5.288  14.987
26254W        W98679   9.181  37.983  12.890
26255W        W98680  16.764  37.516   3.349
26256W        W98681  16.191   6.240  14.341
26257W        W98682  24.516  33.603  11.929
26258W        W98683  33.451  32.602   0.465
26259W        W98684  30.960  19.746  14.772
26260W        W98685   5.904   3.232  11.899
26261W        W98686  37.337  30.002   1.241
26262W        W98687   8.290  17.150   3.764
26263W        W98688  41.868  16.745   2.722
26264W        W98689   7.190  37.407  13.924
26265W        W98690  40.452  25.605  10.926
26266W        W98691  29.527   5.252   4.211
26267W        W98692  17.276  18.704   0.344
26268W        W98693   3.880  35.002   4.345
26269W        W98694  13.241  14.111   0.959
26270W        W98695  34.551  19.707  14.993
26271W        W98696  29.542  37.406   3.812
26272W        W98697  30.576  11.646   4.208
26273W        W98698  21.667   7.809  12.487
26274W        W98699  40.355   4.890  11.028
26275W        W98700  32.012  24.193  10.531
26276W        W98701  31.030  35.413  11.947
26277W        W98702  16.226  42.308   4.137
26278W        W98703  35.530  31.648   3.314
26279W        W98704  19.251  35.387   2.868
26280W        W98705  21.029  39.891  10.635
26281W        W98706  31.550  14.261  11.583
26282W        W98707  25.576  11.133   0.869
26283W        W98708  44.902   6.354   1.908
26284W        W98709  37.948  28.946   2.364
26285W        W98710  36.873  20.542  14.486
26286W        W98711  17.161   8.802   3.845
26287W        W98712  40.915  28.532  14.380
26288W        W98713  31.085  20.613   4.142
26289W        W98714  28.585  29.456   1.698
26290W        W98715  43.976   9.685   4.689
26291W        W98716   5.774  18.203   3.668
26292W        W98717  11.636  19.110   2.285
26293W        W98718  32.075  17.240   1.363
26294W        W98719  24.510   0.865   0.801
26295W        W98720   2.911  12.743   1.289
26296W        W98721  25.488  19.219  13.386
26297W        W98722  34.459   1.405  14.475
26298W        W98723  26.624  15.092   1.860
26299W        W98724   9.309  16.652  12.487
26300W        W98725  24.000  23.091  12.027
26301W        W98726  30.575  29.478  14.435
26302W        W98727  40.402  44.418   4.622
26303W        W98728  10.645  30.098   3.200
26304W        W98729  12.791  18.200   1.433
26305W        W98730  20.657  36.456   1.279
26306W        W98731  20.757  42.858   1.805
26307W        W98732  33.609   4.250   2.232
26308W        W98733  30.002  33.010  11.077
26309W        W98734  10.259  11.866  13.332
26310W        W98735  29.609   7.328   2.857
26311W        W98736  23.996  13.291  11.495
26312W        W98737  39.330  32.399   2.711
26313W        W98738  31.063  27.591  10.499
26314W        W98739  44.957  26.035   2.798
26315W        W98740  18.115  35.053  11.497
26316W        W98741  20.634  42.805   2.197
26317W        W98742  43.834   1.876  13.406
26318W        W98743   2.392  26.084  14.277
26319W        W98744  36.418  34.569  12.849
26320W        W98745  32.097  39.528  11.474
26321W        W98746  21.619  12.744   2.368
26322W        W98747  30.544  18.163  10.997
26323W        W98748  32.963  29.015   2.834
26324W        W98749  22.060  15.185  11.558
26325W        W98750  39.538  13.182  11.104
26326W        W98751   1.905  38.877   0.762
26327W        W98752  11.322  40.915  14.960
26328W        W98753  34.614  32.078   0.833
26329W        W98754   5.788  25.038  14.484
26330W        W98755  30.633   3.866  13.893
26331W        W98756  21.550  36.010  11.932
26332W        W98757  10.658  13.340   3.869
26333W        W98758  41.914  14.185  12.360
26334W        W98759  39.827   2.426  12.942
26335W        W98760   6.401  14.143   2.705
26336W        W98761  37.345  40.326   1.726
26337W        W98762   6.324  14.159  11.387
26338W        W98763   9.196  44.486  12.943
26339W        W98764  21.238  18.558  13.792
26340W        W98765  20.054   8.326   1.434
26341W        W98766  37.049  29.122   4.624
26342W        W98767   7.244  35.897   2.896
26343W        W98768  21.691  19.174  14.775
26344W        W98769  38.874  27.449  14.300
26345W        W98770  36.387  40.396   3.773
26346W        W98771  12.157  24.706   2.682
26347W        W98772   5.883   9.348   2.704
26348W        W98773   3.458  13.622   1.444
26349W        W98774  18.556   9.170  13.373
26350W        W98775  18.557  27.591   4.149
26351W        W98776  35.575   6.382  12.365
26352W        W98777   9.276  19.613  14.774
26353W        W98778  44.368  31.590   1.439
26354W        W98779  42.434  44.971   2.398
26355W        W98780  35.972  41.910   4.169
26356W        W98781  43.431   9.859   4.124
26357W        W98782  40.465   6.387   1.229
26358W        W98783  38.947  10.247   5.085
26359W        W98784  38.357   6.900  12.851
26360W        W98785  38.952  15.273   1.735
26361W        W98786  14.818  37.082  10.607
26362W        W98787  42.300  19.640  14.888
26363W        W98788   0.743   9.833   2.284
26364W        W98789  12.849  40.466  14.307
26365W        W98790   0.387  26.698  12.925
26366W        W98791  39.365  11.298   1.728
26367W        W98792  43.414  12.209  13.510
26368W        W98793  23.735  13.709  14.401
26369W        W98794   2.244  13.784   3.311
26370W        W98795  10.693   2.820   1.796
26371W        W98796  39.483  31.435   2.721
26372W        W98797  21.171   4.848   1.880
26373W        W98798  25.495   0.868   0.257
26374W        W98799  29.425   5.316   3.319
26375W        W98800   7.757   6.350   3.209
26376W        W98801   3.921   9.190  11.988
26377W        W98802  40.375  37.357  11.121
26378W        W98803  25.469  24.041   2.408
26379W        W98804  19.204  39.501   0.901
26380W        W98805  32.026  41.940   2.739
26381W        W98806  17.187  28.579   1.704
26382W        W98807  11.163  18.644   3.337
26383W        W98808   3.445  10.637   4.789
26384W        W98809  12.145  27.996  14.985
26385W        W98810  23.647   1.479   4.681
26386W        W98811   2.824   5.751   3.738
26387W        W98812   9.765  11.772   3.677
26388W        W98813   1.343   8.324  10.895
26389W        W98814  18.779  20.160  13.803
26390W        W98815  19.067   3.732  12.443
26391W        W98816  19.683  18.718   4.198
26392W        W98817   2.435  41.493   1.701
26393W        W98818  11.789  17.152   5.135
26394W        W98819  34.415  35.008  12.842
26395W        W98820  37.562   5.385   0.410
26396W        W98821  38.847   6.881   0.280
26397W        W98822   1.440   5.436  13.986
26398W        W98823   7.806  44.862   1.407
26399W        W98824  41.022  16.240   3.734
26400W        W98825  27.568  32.941  11.059
26401W        W98826  31.530  22.029   2.730
26402W        W98827  40.884  29.009  11.496
26403W        W98828  32.025  17.159   3.224
26404W        W98829  20.727  23.055  12.889
26405W        W98830   7.399  39.979   0.935
26406W        W98831  18.192  24.088  12.904
26407W        W98832   8.300  43.439  12.341
26408W        W98833  37.953  29.464   1.802
26409W        W98834  14.290   0.272   2.789
26410W        W98835  19.056  39.955  12.340
26411W        W98836  17.177  44.828   3.783
26412W        W98837  38.412  37.870  10.581
26413W        W98838   1.978  16.699  12.539
26414W        W98839  31.615  34.864   4.809
26415W        W98840  44.261  18.069  12.408
26416W        W98841  38.959  21.084   3.205
26417W        W98842   4.780  43.393   4.340
26418W        W98843  33.945   1.953  12.379
26419W        W98844  26.001  30.018  14.474
26420W        W98845  14.323  39.876   1.210
26421W        W98846  30.084  37.464  14.421
26422W        W98847  34.974  32.566  13.965
26423W        W98848  19.651  36.897  10.433
26424W        W98849  44.969  35.897   4.266
26425W        W98850   8.288  34.531  14.484
26426W        W98851  17.256  24.134  11.413
26427W        W98852  30.584   2.238   4.245
26428W        W98853   0.789  38.434   3.157
26429W        W98854  44.298  29.488   3.684
26430W        W98855  33.897   5.277  12.927
26431W        W98856  18.278  19.071  13.462
26432W        W98857   8.383  28.512  13.870
26433W        W98858   9.396   9.726  11.493
26434W        W98859   6.737   9.675  14.446
26435W        W98860  19.627  32.542   0.381
26436W        W98861  41.998   8.773  11.953
26437W        W98862  14.643   5.875  10.462
26438W        W98863   0.273   6.682  14.758
26439W        W98864  11.853  30.162   3.155
26440W        W98865  41.802  38.046  10.942
26441W        W98866   3.718  28.093  12.346
26442W        W98867  21.560  38.984   0.945
26443W        W98868  44.923  10.274  14.998
26444W        W98869  25.989   8.691   1.254
26445W        W98870  23.722   3.460  14.500
26446W        W98871  43.317  27.167   3.759
26447W        W98872  17.705  32.547   3.843
26448W        W98873  18.220  36.986  12.890
26449W        W98874  32.964   4.811   4.150
26450W        W98875  40.460  10.214  11.944
26451W        W98876  17.707   7.790  13.913
26452W        W98877  40.367  19.547  14.516
26453W        W98878  25.629  29.158   3.731
26454W        W98879  38.034  16.760  13.355
26455W        W98880   3.443  26.986  14.426
26456W        W98881  41.941  24.198   1.297
26457W        W98882  36.505  37.886   4.241
26458W        W98883  36.845   2.261   4.180
26459W        W98884  16.685  31.117  10.628
26460W        W98885   3.284   8.202  11.565
26461W        W98886  35.927  22.159   2.350
26462W        W98887   8.735  10.154  12.470
26463W        W98888  25.642  16.121  11.862
26464W        W98889  11.353  16.658  10.450
26465W        W98890   4.774  12.221  13.870
26466W        W98891  11.343  40.482  12.066
26467W        W98892  34.446  41.847  12.534
26468W        W98893   0.414   7.366  13.890
26469W        W98894  34.974  13.750   2.190
26470W        W98895   6.785   2.796  13.389
26471W        W98896  11.829  10.337   3.170
26472W        W98897   4.414  32.900   0.410
26473W        W98898  12.649  44.920   1.846
26474W        W98899  18.623  13.281  12.566
26475W        W98900  24.018  18.154  13.013
26476W        W98901  40.982   7.367   1.878
26477W        W98902  41.532  33.416   0.254
26478W        W98903  24.975   1.850  11.499
26479W        W98904  18.565  14.136   4.309
26480W        W98905  30.084  13.105   1.355
26481W        W98906  23.610  34.544   0.298
26482W        W98907  36.865  18.694   4.218
26483W        W98908  37.993   4.859  12.577
26484W        W98909  10.311  14.129  11.955
26485W        W98910  41.519  25.633   2.287
26486W        W98911   5.198  44.775  14.502
26487W        W98912  23.656  18.775   3.196
26488W        W98913  21.178  20.768  14.448
26489W        W98914  29.508  30.645   2.293
26490W        W98915  24.173   5.217  13.940
26491W        W98916   1.749   0.812  13.021
26492W        W98917  29.575  19.587  12.903
26493W        W98918  42.852  16.208   3.354
26494W        W98919   1.839  21.203  14.510
26495W        W98920  41.321   6.772  13.983
26496W        W98921  13.164  17.743  13.464
26497W        W98922  12.163  24.486   2.245
26498W        W98923  32.952   5.820  14.879
26499W        W98924  21.238  24.186  11.410
26500W        W98925  44.419  22.725   1.718
26501W        W98926   1.480  19.180   1.241
26502W        W98927  19.654  41.017   4.224
26503W        W98928  36.975  38.501   3.827
26504W        W98929  39.365   1.913  11.073
26505W        W98930  24.702  20.054  14.779
26506W        W98931  16.086  24.185  14.845
26507W        W98932  12.327   0.379  11.941
26508W        W98933  19.199  15.189   0.954
26509W        W98934  11.710   9.294   2.705
26510W        W98935  20.565  39.399  13.933
26511W        W98936  35.930  14.635   2.381
26512W        W98937  24.621   5.930  13.046
26513W        W98938  33.420  28.971  14.901
26514W        W98939  11.132  33.892   3.817
26515W        W98940  39.035   3.379   3.739
26516W        W98941  25.106   7.207  13.952
26517W        W98942   1.971  16.286  14.788
26518W        W98943   8.677   5.812   4.639
26519W        W98944  11.257   1.387   2.733
26520W        W98945  37.359  44.803   1.765
26521W        W98946  12.268  22.242   1.426
26522W        W98947  34.421   1.957  13.934
26523W        W98948   8.235  21.172  14.394
26524W        W98949  35.997  16.673  10.433
26525W        W98950   9.781   1.323  12.580
26526W        W98951  15.797  34.413   5.715
26527W        W98952  12.157   4.328   4.704
26528W        W98953  22.047  40.925  13.995
26529W        W98954  39.937  27.614   1.707
26530W        W98955  10.833  15.654  13.986
26531W        W98956   2.353  34.923  14.444
26532W        W98957  31.470  18.125   0.859
26533W        W98958  22.030   8.774   0.374
26534W        W98959  15.785  19.063  14.504
26535W        W98960  32.048  31.427  11.950
26536W        W98961  30.504   1.371  12.557
26537W        W98962  21.031  42.022  12.877
26538W        W98963  43.999  37.964  14.812
26539W        W98964  42.308   1.453   0.344
26540W        W98965  41.827  23.006   4.200
26541W        W98966  37.852   5.872   3.272
26542W        W98967  42.295  28.091   3.332
26543W        W98968  18.771   4.383  13.436
26544W        W98969  10.184  37.834  14.372
26545W        W98970  44.345  30.507  12.347
26546W        W98971  34.431  41.320   3.221
26547W        W98972   4.845  41.997   1.363
26548W        W98973  44.462  35.088  14.406
26549W        W98974  44.395  23.203  11.451
26550W        W98975  16.689  14.734   3.332
26551W        W98976  39.385  20.179  13.325
26552W        W98977  33.064  32.069  13.867
26553W        W98978  21.129  35.388   3.311
26554W        W98979  32.000  20.651   3.164
26555W        W98980  15.141  22.674  14.464
26556W        W98981  26.680  28.616  11.877
26557W        W98982   1.322  10.221   4.753
26558W        W98983  40.906  36.473  13.456
26559W        W98984  23.590  35.457   0.859
26560W        W98985  29.961  33.432   4.649
26561W        W98986  23.677  12.211  13.993
26562W        W98987   1.414  14.677  11.424
26563W        W98988  16.214  44.934  12.377
26564W        W98989   2.764  25.501  12.448
26565W        W98990   2.327  43.960  14.514
26566W        W98991  30.031   2.433  14.359
26567W        W98992  37.434  27.616  12.441
26568W        W98993  43.396  20.147  12.075
26569W        W98994  44.872   2.391   2.811
26570W        W98995  13.148  20.537  12.466
26571W        W98996  14.163  17.140  12.449
26572W        W98997  24.539   1.778   3.837
26573W        W98998  34.912  34.909  13.033
26574W        W98999  31.149   5.841   3.790
26575W        W99000  30.118  31.055  12.954
26576W        W99001  20.609  20.139  14.341
26577W        W99002   3.727   0.875   1.362
26578W        W99003  12.117  12.807  12.491
26579W        W99004   1.241   4.321   4.170
26580W        W99005  40.460  11.702  11.128
26581W        W99006  11.656  40.032   3.255
26582W        W99007  44.891   0.849   4.773
26583W        W99008   5.926   1.456   2.732
26584W        W99009  38.528  34.976  11.053
26585W        W99010  34.985  16.176   2.852
26586W        W99011   9.378   9.859   2.780
26587W        W99012  43.274  42.463   2.817
26588W        W99013  34.096  24.101  11.098
26589W        W99014   5.369  24.664  13.026
26590W        W99015  23.708  11.190  11.468
26591W        W99016  40.332   8.692   0.339
26592W        W99017  16.590   2.807   3.823
26593W        W99018  15.578   5.199  14.330
26594W        W99019  42.470  43.452  14.455
26595W        W99020  25.104  34.373   1.816
26596W        W99021  43.821  30.121  10.581
26597W        W99022  22.701   0.393  13.996
26598W        W99023  30.649   5.863  10.569
26599W        W99024  26.590  25.144   1.346
26600W        W99025  37.850   7.812   3.163
26601W        W99026  29.060  13.672  12.062
26602W        W99027  35.565  38.020  10.899
26603W        W99028  26.043  26.183  12.026
26604W        W99029  33.493  27.097  12.945
26605W        W99030  14.616  38.499  12.024
26606W        W99031  37.912  13.843  11.541
26607W        W99032  36.523   7.229  14.397
26608W        W99033  24.567  14.682  11.009
26609W        W99034  19.666  20.090   3.719
26610W        W99035  12.623  34.421  12.447
26611W        W99036   8.735  38.337   3.707
26612W        W99037  30.990  13.219  11.431
26613W        W99038  16.650  34.866  10.572
26614W        W99039  38.830   0.248  10.630
26615W        W99040  14.139  36.978  13.313
26616W        W99041  33.558   5.376  14.786
26617W        W99042   6.699  30.056  12.888
26618W        W99043  44.916  36.491   1.261
26619W        W99044   5.738  19.565   2.851
26620W        W99045  41.301  17.637  12.080
26621W        W99046  23.118  15.276   3.218
26622W        W99047  24.554  21.162   3.207
26623W        W99048   8.350  36.554   3.755
26624W        W99049  26.206  43.902   1.317
26625W        W99050  39.364   4.399  12.927
26626W        W99051   2.300  25.553   3.222
26627W        W99052  31.048  27.145   4.610
26628W        W99053  17.220  42.377  14.468
26629W        W99054   5.734  14.735  11.482
26630W        W99055   8.264  41.454   4.751
26631W        W99056   9.775  38.074   1.758
26632W        W99057  41.419  41.023   1.721
26633W        W99058  30.981  34.427   0.943
26634W        W99059  34.568  25.179   1.270
26635W        W99060  41.866  39.976  14.929
26636W        W99061   8.812  26.683  10.921
26637W        W99062  44.446  15.622   0.734
26638W        W99063  32.466  17.233  11.123
26639W        W99064  12.118  24.185  13.388
26640W        W99065  17.771  35.413   3.301
26641W        W99066  35.408   1.381   2.764
26642W        W99067   3.858  17.206   0.348
26643W        W99068  35.016  22.160  13.517
26644W        W99069  35.027  21.609   0.473
26645W        W99070  28.987  30.633  12.448
26646W        W99071  43.766   6.377  13.426
26647W        W99072  44.496  39.419   4.246
26648W        W99073  21.565  43.846  14.450
26649W        W99074  22.086  35.398   1.253
26650W        W99075   2.854   2.750  12.451
26651W        W99076  11.186  15.251   2.186
26652W        W99077  34.560  33.119   3.376
26653W        W99078  32.402  44.481  11.475
26654W        W99079  18.089  19.098  11.490
26655W        W99080  33.479  16.705  11.423
26656W        W99081   1.888  29.424  11.967
26657W        W99082  27.985  38.850   0.752
26658W        W99083   7.897  42.857   0.382
26659W        W99084  40.436   4.311   4.204
26660W        W99085  28.053  12.768  11.086
26661W        W99086  34.059  40.538  12.966
26662W        W99087   4.779  37.068   1.708
26663W        W99088  18.644  29.447   2.768
26664W        W99089  21.109  17.127  11.481
26665W        W99090  34.581  26.458  11.109
26666W        W99091  35.432   6.778   2.309
26667W        W99092  38.492   0.435  10.516
26668W        W99093  19.241   8.235   0.359
26669W        W99094  37.512   6.348   0.425
26670W        W99095  11.203  23.629  12.461
26671W        W99096  42.784  31.131   5.179
26672W        W99097  31.972  42.373  12.487
26673W        W99098  20.576  43.776   1.299
26674W        W99099  13.602  43.808  11.487
26675W        W99100  38.900  19.121  14.291
26676W        W99101   5.281  35.476   2.289
26677W        W99102   3.867  21.611   0.440
26678W        W99103  20.755  26.469  10.597
26679W        W99104  18.120   6.771   3.680
26680W        W99105   9.267  41.459  12.925
26681W        W99106  28.627   4.239  12.917
26682W        W99107  28.552   4.297   0.922
26683W        W99108  29.470  20.150  13.909
26684W        W99109  44.403  43.424   4.147
26685W        W99110   5.719  21.090   4.184
26686W        W99111  29.657  41.354  12.921
26687W        W99112  11.792   9.373  10.540
26688W        W99113  40.330   4.369   2.233
26689W        W99114  25.525   6.212   4.266
26690W        W99115  24.996   4.281   0.782
26691W        W99116   6.377  32.406  14.892
26692W        W99117  40.906  22.024   1.786
26693W        W99118  37.441   4.880   2.896
26694W        W99119  17.153  21.229  10.083
26695W        W99120  24.681  22.252  14.425
26696W        W99121   3.732  32.916  11.517
26697W        W99122   5.402  40.367  14.475
26698W        W99123  35.494  21.537  13.038
26699W        W99124  21.643  31.961   0.313
26700W        W99125  11.723  16.639   0.318
26701W        W99126  15.757  42.819  13.882
26702W        W99127  35.885  38.344   3.174
26703W        W99128  12.325   7.884   2.716
26704W        W99129  25.481  37.414  12.493
26705W        W99130  31.486   3.771  11.079
26706W        W99131  21.590  38.907  11.379
26707W        W99132   5.362   0.881   3.198
26708W        W99133   6.303  32.483  12.527
26709W        W99134  10.750  16.566   4.244
26710W        W99135   2.302  38.394  13.842
26711W        W99136  35.865  33.995   4.800
26712W        W99137   5.735  22.592  12.429
26713W        W99138  33.122   6.900   4.177
26714W        W99139  36.962  23.646   3.731
26715W        W99140  10.876  43.771   3.174
26716W        W99141  25.568  21.034   3.216
26717W        W99142  25.046  41.899  13.047
26718W        W99143  17.694   2.831   1.379
26719W        W99144   0.440   0.336   3.802
26720W        W99145  39.009  39.404   0.254
26721W        W99146  41.442  13.647  11.413
26722W        W99147  14.617  14.128   5.200
26723W        W99148  35.976  18.295   3.781
26724W        W99149  40.428   3.336  14.379
26725W        W99150  42.903   4.340   0.949
26726W        W99151  44.912  40.931   4.143
26727W        W99152  30.437   8.181   4.151
26728W        W99153   8.764  38.074  12.065
26729W        W99154  17.600  43.860  11.578
26730W        W99155  39.513  15.643   4.161
26731W        W99156  19.708   3.376   5.136
26732W        W99157  15.145  31.536   3.853
26733W        W99158  32.594  16.077   1.870
26734W        W99159  18.618  41.950   2.190
26735W        W99160  42.520   3.830  13.059
26736W        W99161  14.699  19.759  10.998
26737W        W99162  24.152  13.722   3.640
26738W        W99163  12.271   3.810   0.286
26739W        W99164  40.831   6.734  10.506
26740W        W99165  24.649  18.283   4.632
26741W        W99166  34.010   7.725   2.888
26742W        W99167   0.744  23.634   1.780
26743W        W99168  35.530  30.613   4.728
26744W        W99169  29.583  33.472  14.400
26745W        W99170  30.582  16.200   3.738
26746W        W99171  34.403   5.333   2.293
26747W        W99172  30.149  19.169  11.437
26748W        W99173  20.155  30.103  12.500
26749W        W99174  32.446  41.893  14.488
26750W        W99175  31.434  25.172  11.961
26751W        W99176  12.631  26.602   3.323
26752W        W99177  28.483  39.879  10.973
26753W        W99178  30.081  20.656   4.712
26754W        W99179  14.668  18.638  11.904
26755W        W99180  39.018  10.746  13.504
26756W        W99181   6.774  19.607  14.446
26757W        W99182   0.755  14.798  13.388
26758W        W99183  27.062  37.865   0.849
26759W        W99184  31.482  29.027  13.538
26760W        W99185  38.979  24.517   3.725
26761W        W99186  38.522   8.736  13.520
26762W        W99187  23.641  38.994   2.887
26763W        W99188  22.011  19.675  12.835
26764W        W99189   8.346  29.620  14.448
26765W        W99190  32.122   1.812  14.782
26766W        W99191  38.560  34.606   0.421
26767W        W99192  43.960  38.075   0.448
26768W        W99193  10.716  22.049  14.463
26769W        W99194  29.116  26.634   1.857
26770W        W99195  33.543  38.920  10.598
26771W        W99196  39.858  36.540   4.113
26772W        W99197  35.053   3.831   3.773
26773W        W99198  13.197  43.296   4.174
26774W        W99199  42.917  30.139  11.959
26775W        W99200  15.162  34.469   2.754
26776W        W99201  40.017  18.748  14.502
26777W        W99202  41.821   4.776   1.924
26778W        W99203   9.201  14.157   3.381
26779W        W99204   3.809   1.918   2.789
26780W        W99205  29.056  10.873   1.709
26781W        W99206   4.901   5.198  12.461
26782W        W99207  13.165   3.930  10.572
26783W        W99208  40.818   9.183  11.890
26784W        W99209  38.008  36.958   3.785
26785W        W99210  38.941  40.502  11.503
26786W        W99211  32.963  25.059   4.694
26787W        W99212  28.450  22.741   5.254
26788W        W99213  37.063   2.421   2.862
26789W        W99214  28.183  14.153  14.961
26790W        W99215  24.596  19.191   0.838
26791W        W99216  28.035  43.296  14.492
26792W        W99217  32.597  13.250   4.709
26793W        W99218   5.299  15.154  12.982
26794W        W99219   3.295  42.004   3.321
26795W        W99220   0.349  42.381   1.854
26796W        W99221  26.178  14.334   3.776
26797W        W99222  35.577  12.203  11.095
26798W        W99223  39.038  14.705  11.508
26799W        W99224  43.969  20.194   2.320
26800W        W99225  42.356  17.763  11.530
26801W        W99226  15.297  15.736  13.437
26802W        W99227   8.334  26.493   1.253
26803W        W99228  21.090   1.739  11.525
26804W        W99229  32.078  14.283   5.232
26805W        W99230  15.774  31.435   2.320
26806W        W99231  26.468  20.118   2.885
26807W        W99232   5.787  18.649  13.958
26808W        W99233  24.120  42.855  14.766
26809W        W99234  26.657  16.242  14.360
26810W        W99235  26.618  28.155   4.309
26811W        W99236  41.393   6.380   2.679
26812W        W99237  12.159   2.762  14.888
26813W        W99238   1.739   0.404   4.150
26814W        W99239  44.868   8.403   0.433
26815W        W99240  25.023  16.641   2.840
26816W        W99241  34.556  42.426  14.996
26817W        W99242   4.890   5.871  14.796
26818W        W99243  27.463   4.892   4.252
26819W        W99244  39.989  25.489   3.328
26820W        W99245   4.883   8.836  10.593
26821W        W99246  40.450  13.793   0.817
26822W        W99247   4.900  20.169   5.151
26823W        W99248   4.421  29.155  12.389
26824W        W99249  39.844  17.152  14.399
26825W        W99250  19.051  24.183   0.377
26826W        W99251  21.637  21.066  11.464
26827W        W99252  38.965  37.870  10.158
26828W        W99253  11.835   1.360  11.866
26829W        W99254  39.341  37.382   2.697
26830W        W99255  19.646  10.248  14.495
26831W        W99256   1.779  12.740  11.486
26832W        W99257  38.342  43.850  14.831
26833W        W99258  32.887   3.808   0.431
26834W        W99259  41.921  27.690   0.872
26835W        W99260  36.502  34.071  11.606
26836W        W99261  38.024  18.287   1.925
26837W        W99262  22.131  22.627  10.962
26838W        W99263  41.330   1.952   0.949
26839W        W99264  18.098   8.705  14.930
26840W        W99265  24.224  39.006   5.191
26841W        W99266  35.557  14.754   4.789
26842W        W99267  34.586  41.861   3.268
26843W        W99268  12.336   2.385  12.883
26844W        W99269  11.372  20.168  11.071
26845W        W99270  24.147   1.733   3.338
26846W        W99271  12.817  26.564  11.515
26847W        W99272   8.392   6.687   2.245
26848W        W99273  11.823  24.184   4.764
26849W        W99274  25.123  31.073   1.752
26850W        W99275   8.893  28.999   1.223
26851W        W99276  27.692   4.305  12.025
26852W        W99277  21.653   1.921  12.512
26853W        W99278  10.150  16.691  11.440
26854W        W99279  16.079  34.930  13.494
26855W        W99280  11.660   0.753   0.921
26856W        W99281  38.550  22.074   2.183
26857W        W99282  38.826  44.367  13.843
26858W        W99283  21.525  37.463   3.849
26859W        W99284  10.866  28.532   0.949
26860W        W99285  15.296  16.717  13.320
26861W        W99286  43.925  19.776   5.281
26862W        W99287  32.468  23.138  10.616
26863W        W99288  34.507   5.389  12.925
26864W        W99289  41.946  43.949  14.978
26865W        W99290  11.365   4.375  13.369
26866W        W99291   4.904  22.639   4.265
26867W        W99292  28.676  39.495  11.925
26868W        W99293  42.783  36.892   1.817
26869W        W99294  10.172  18.060   2.770
26870W        W99295  39.516  26.051   1.744
26871W        W99296  17.652  16.299  10.622
26872W        W99297  27.554  21.587   9.564
26873W        W99298  42.032  44.847  10.932
26874W        W99299  41.941  43.966   0.371
26875W        W99300   2.882  32.541  11.013
26876W        W99301   7.414   0.465  10.584
26877W        W99302  37.997  26.592  13.532
26878W        W99303  19.173  37.876   2.280
26879W        W99304  32.565  24.196  11.490
26880W        W99305  35.007   9.888   3.305
26881W        W99306   8.286   0.972  11.989
26882W        W99307  17.213  32.403  12.836
26883W        W99308   0.271  41.937  12.979
26884W        W99309  34.491  28.450  12.954
26885W        W99310   3.297  27.050  11.008
26886W        W99311   7.391  42.981  12.501
26887W        W99312  33.911  33.921  12.475
26888W        W99313  39.387  37.026  14.280
26889W        W99314   6.811  37.551  14.761
26890W        W99315  22.179  27.459   4.677
26891W        W99316  40.854  14.690   0.407
26892W        W99317   5.883   0.977   2.353
26893W        W99318  31.475   4.938   4.160
26894W        W99319   4.799   7.202  11.600
26895W        W99320  26.697  22.638  14.368
26896W        W99321  24.677  14.188  14.515
26897W        W99322  13.712  19.601   1.267
26898W        W99323  31.972  34.909   0.449
26899W        W99324  11.318   7.798   4.291
26900W        W99325  13.796  36.090  13.971
26901W        W99326   1.898   8.230   3.720
26902W        W99327   8.371  36.040   4.734
26903W        W99328  41.365  15.645   4.247
26904W        W99329  42.812   0.902  10.957
26905W        W99330  22.710  23.602   4.117
26906W        W99331  41.991  30.435   0.354
26907W        W99332  20.146   8.830  13.833
26908W        W99333  35.405  15.147   1.830
26909W        W99334  33.129  17.773   3.773
26910W        W99335  35.054  22.189  10.625
26911W        W99336  13.197  16.179   3.767
26912W        W99337  42.907  20.197   0.730
26913W        W99338  40.449   0.471  11.543
26914W        W99339   6.246  30.917   2.828
26915W        W99340  35.023  17.277  10.608
26916W        W99341  12.642  33.947   4.191
26917W        W99342  44.982  11.222   2.803
26918W        W99343  28.009  15.710   1.788
26919W        W99344   7.353  39.463   3.207
26920W        W99345  40.368  40.472  14.488
26921W        W99346  30.099  23.558   0.728
26922W        W99347   8.240  22.085  13.480
26923W        W99348  29.500  16.612  13.395
26924W        W99349  27.113   3.267  12.972
26925W        W99350  35.034  12.305  14.280
26926W        W99351   9.184  24.697   1.449
26927W        W99352  27.655   7.815   4.837
26928W        W99353   7.849  10.141  12.430
26929W        W99354  16.228  13.327  11.861
26930W        W99355  35.041  38.560   2.195
26931W        W99356  19.261  19.718   0.778
26932W        W99357  20.741  25.572  12.975
26933W        W99358  19.662  13.794  11.013
26934W        W99359   5.296  37.347  12.857
26935W        W99360  33.586   3.854  13.397
26936W        W99361  11.779  24.486  12.957
26937W        W99362  20.149   6.219  14.392
26938W        W99363  21.681   2.347   0.883
26939W        W99364  12.816   7.185   1.728
26940W        W99365  15.270  36.524   0.864
26941W        W99366  44.365  23.640   1.261
26942W        W99367  26.600  32.120  14.342
26943W        W99368   5.383  30.140  14.873
26944W        W99369  22.091   6.419   1.352
26945W        W99370  15.252  41.788   2.711
26946W        W99371   8.315  32.559  13.795
26947W        W99372  24.711  40.928  14.799
26948W        W99373  12.283   5.744   3.236
26949W        W99374  14.631  15.235  12.367
26950W        W99375  39.994  11.761   3.823
26951W        W99376   3.228  17.562   2.269
26952W        W99377   0.945  33.515   4.775
26953W        W99378  25.009   4.932  10.921
26954W        W99379  23.233   3.228   2.261
26955W        W99380  43.787   6.326   0.929
26956W        W99381  33.129  10.643  12.848
26957W        W99382  39.455  26.688  13.408
26958W        W99383   5.282  25.583   0.828
26959W        W99384  30.050  10.379   0.400
26960W        W99385  26.105  22.235   2.685
26961W        W99386  39.377  26.023  14.883
26962W        W99387  12.805  40.920   1.436
26963W        W99388  14.130  39.857  10.434
26964W        W99389  38.484  34.881  14.350
26965W        W99390  32.551   4.822   4.160
26966W        W99391  14.796  44.410   4.189
26967W        W99392   5.813   5.256  13.894
26968W        W99393   1.927  22.012   3.830
26969W        W99394  28.483  22.202   4.122
26970W        W99395   4.257  15.594  13.346
26971W        W99396  27.063  25.670   2.288
26972W        W99397   5.827  14.217  11.459
26973W        W99398   3.283  19.198  10.591
26974W        W99399  15.236   3.443  10.475
26975W        W99400   5.330  38.980  12.489
26976W        W99401  32.587   1.924   2.698
26977W        W99402   6.726  20.220  14.884
26978W        W99403  43.306  20.722  12.560
26979W        W99404   7.249   5.211   0.354
26980W        W99405   2.412   4.225  12.418
26981W        W99406  27.159  26.610   2.762
26982W        W99407  19.159   3.718   0.468
26983W        W99408  27.657   3.423  11.466
26984W        W99409   0.780   0.799   0.283
26985W        W99410  35.400  12.130   1.785
26986W        W99411   7.274  21.683   2.405
26987W        W99412  10.352   7.727  12.394
26988W        W99413   4.717  37.877  14.762
26989W        W99414  26.509  44.293   1.922
26990W        W99415  22.531  13.690   1.262
26991W        W99416  34.926  14.796   3.815
26992W        W99417   2.296  21.702  14.964
26993W        W99418  18.694  25.623  14.935
26994W        W99419  18.071   1.471   1.252
26995W        W99420  22.132  22.252  14.759
26996W        W99421  24.718  18.785  13.929
26997W        W99422  16.317  24.993   3.374
26998W        W99423   5.423  43.333   4.220
26999W        W99424  41.421  22.187   0.910
27000W        W99425  41.041  17.092  14.514
27001W        W99426  44.962  10.227  10.634
27002W        W99427   7.838  28.122  12.862
27003W        W99428  27.514  26.153   0.809
27004W        W99429  33.049   2.921   0.344
27005W        W99430  38.500   8.233  11.905
27006W        W99431  10.238   3.888  13.952
27007W        W99432  23.699  28.665   0.321
27008W        W99433   4.372  36.436  14.915
27009W        W99434  22.024  40.883   2.829
27010W        W99435   3.233  32.064   1.836
27011W        W99436   2.347  11.856   2.407
27012W        W99437  11.816   2.748   9.978
27013W        W99438   6.765  37.026   4.798
27014W        W99439  26.982  14.340  14.411
27015W        W99440  36.004   2.811  11.040
27016W        W99441  38.343  30.089  14.386
27017W        W99442  28.456   2.242   3.256
27018W        W99443  33.407  19.251   2.688
27019W        W99444  40.430  35.890  10.599
27020W        W99445  14.117   8.720  11.465
27021W        W99446  33.456   7.216   3.374
27022W        W99447  39.892  19.623   1.336
27023W        W99448  11.194   6.890  10.606
27024W        W99449  35.019  41.991  12.033
27025W        W99450  15.153  36.500   1.369
27026W        W99451  44.756  38.830   4.718
27027W        W99452  30.129   4.259   4.280
27028W        W99453  22.236  36.410  13.050
27029W        W99454  41.406  29.636   2.680
27030W        W99455  35.907  30.038   3.833
27031W        W99456  27.991  13.625  12.441
27032W        W99457   3.954  39.406  13.947
27033W        W99458  12.706  15.266  14.276
27034W        W99459   3.896  23.618  10.602
27035W        W99460  19.138  39.382  13.393
27036W        W99461  38.866  23.594  12.499
27037W        W99462  16.083  24.503   2.815
27038W        W99463  44.958  33.613   3.683
27039W        W99464  18.717  40.829  13.940
27040W        W99465   4.872  36.957  10.611
27041W        W99466  13.331   9.648   1.807
27042W        W99467  15.267  31.002  12.998
27043W        W99468  39.553  12.210  14.983
27044W        W99469  14.642   9.273   1.426
27045W        W99470  36.488  14.142   0.253
27046W        W99471  26.682  43.916   1.898
27047W        W99472  29.158  41.530  11.497
27048W        W99473  25.555  24.992  10.416
27049W        W99474   8.328  31.458   1.717
27050W        W99475  20.644  14.680  13.007
27051W        W99476  21.223  32.933   3.640
27052W        W99477  13.792  26.206  13.511
27053W        W99478  24.108  33.886  10.416
27054W        W99479   9.796  25.476   0.741
27055W        W99480   3.868   2.431   3.363
27056W        W99481  40.327  11.754   5.253
27057W        W99482   8.169  42.316  10.984
27058W        W99483  23.985  30.509  11.420
27059W        W99484  36.971  36.917  13.900
27060W        W99485  15.715  41.902   0.370
27061W        W99486   1.783  15.710   3.710
27062W        W99487  15.100  19.717   1.343
27063W        W99488  17.150  17.128  10.448
27064W        W99489  12.780  10.379   3.801
27065W        W99490  32.137  40.530  12.500
27066W        W99491   1.293   2.250  12.091
27067W        W99492   6.793  38.463   2.323
27068W        W99493   7.342  33.958   1.895
27069W        W99494  19.665  43.948   2.282
27070W        W99495   3.848  44.817   4.206
27071W        W99496   8.162  39.338   1.812
27072W        W99497  11.825  18.052   0.284
27073W        W99498   9.735  18.059  14.935
27074W        W99499  37.415  32.891  12.069
27075W        W99500  12.131   2.416   2.862
27076W        W99501   9.769  34.882   2.901
27077W        W99502  13.315  35.058   1.425
27078W        W99503  16.272  32.530   4.333
27079W        W99504  44.876  34.058   1.412
27080W        W99505  32.409  15.758  13.908
27081W        W99506  42.836  43.958   3.700
27082W        W99507  34.461  22.220  13.907
27083W        W99508  31.055  24.621  14.876
27084W        W99509  18.622   3.879   2.302
27085W        W99510   5.883  19.667   4.724
27086W        W99511  21.027  31.501   0.800
27087W        W99512  14.174  43.445   3.714
27088W        W99513  30.975  23.632   0.952
27089W        W99514  42.805   8.335   3.168
27090W        W99515  14.175  33.612   0.348
27091W        W99516   3.719  14.173  12.086
27092W        W99517  36.378  41.448   1.877
27093W        W99518  25.544  10.649   3.321
27094W        W99519  26.489   7.418  14.318
27095W        W99520  33.101  44.941  11.011
27096W        W99521  15.612  42.986   3.630
27097W        W99522  39.052  24.583  12.536
27098W        W99523  43.860   3.415  14.995
27099W        W99524  21.619  36.387  10.944
27100W        W99525  24.632  15.733   3.170
27101W        W99526  24.200   1.841  14.876
27102W        W99527  39.405   9.843   3.286
27103W        W99528  25.050   9.367   1.700
27104W        W99529  33.599  36.380   0.855
27105W        W99530  21.710  44.419   0.832
27106W        W99531  17.718  20.697  10.579
27107W        W99532   1.936  13.230   0.278
27108W        W99533  10.746  11.777  11.499
27109W        W99534   8.286  43.296   3.638
27110W        W99535  42.315  19.108   5.728
27111W        W99536  17.188  25.212  10.644
27112W        W99537  24.577  36.588   1.728
27113W        W99538   1.286  17.137  13.906
27114W        W99539  23.984  39.407  13.373
27115W        W99540  35.480  20.088  12.937
27116W        W99541   4.855   7.355   2.679
27117W        W99542  22.679  21.261   3.262
27118W        W99543  37.041  31.945  14.485
27119W        W99544  14.129  26.553   0.479
27120W        W99545  20.679  38.462   0.422
27121W        W99546  39.373  32.588  10.998
27122W        W99547  11.815  25.571  10.569
27123W        W99548  17.216  30.055   0.284
27124W        W99549   1.830  30.559   4.352
27125W        W99550   4.231  20.105   2.718
27126W        W99551  13.816  44.009   4.235
27127W        W99552   7.770  28.479  13.839
27128W        W99553  17.667  41.495  12.439
27129W        W99554  24.132   4.765  13.057
27130W        W99555   5.707   7.843  13.439
27131W        W99556  40.857  14.208  11.381
27132W        W99557  33.541  33.962  11.007
27133W        W99558  28.596  43.361   1.711
27134W        W99559   5.916  33.902  10.941
27135W        W99560  31.475  40.385  10.449
27136W        W99561  44.816  21.580  13.997
27137W        W99562  33.119   0.475  14.362
27138W        W99563  12.798  22.658  12.989
27139W        W99564  34.093  24.221  12.481
27140W        W99565  12.808   3.780   9.516
27141W        W99566  30.011  22.723   1.849
27142W        W99567  26.978   9.293   0.778
27143W        W99568   7.326   5.294   1.924
27144W        W99569  14.145  18.270  13.868
27145W        W99570  39.030  19.577   4.274
27146W        W99571  27.613  18.623  13.442
27147W        W99572  42.805  39.836  11.922
27148W        W99573  25.578  29.941  11.476
27149W        W99574  28.549  27.685  10.999
27150W        W99575   4.738   2.425   2.664
27151W        W99576  23.607  41.905   0.368
27152W        W99577  28.443  36.942   1.273
27153W        W99578  32.997  32.635  11.877
27154W        W99579  24.527   1.442   1.427
27155W        W99580  31.094  10.336   2.810
27156W        W99581   7.284   5.735   0.932
27157W        W99582  44.871   4.879  11.402
27158W        W99583  44.949  26.017  14.848
27159W        W99584  10.854  19.208   2.896
27160W        W99585  34.934  13.222   1.273
27161W        W99586  23.638  33.416  14.776
27162W        W99587   9.312  34.433  14.295
27163W        W99588   6.397  41.017   3.788
27164W        W99589  20.041   1.332   4.835
27165W        W99590  44.476  36.936   2.855
27166W        W99591  34.920  10.806  14.314
27167W        W99592  22.659   5.298   0.866
27168W        W99593  43.300   6.706  12.864
27169W        W99594  30.024   6.200  14.375
27170W        W99595  40.302  14.711   0.329
27171W        W99596  38.528   3.285  12.384
27172W        W99597  20.209  21.735   4.349
27173W        W99598  33.128   6.184  13.507
27174W        W99599  41.965  15.135  14.984
27175W        W99600  29.593  17.182  11.899
27176W        W99601   2.730  18.066   4.184
27177W        W99602  41.497  24.485   2.677
27178W        W99603   7.229  10.245  10.458
27179W        W99604  19.564  19.057   1.380
27180W        W99605  25.120  27.447   3.656
27181W        W99606  26.541  36.425  14.505
27182W        W99607   7.206  33.490  12.083
27183W        W99608  28.534  12.842   2.666
27184W        W99609   8.835  14.094   2.357
27185W        W99610  44.782   1.968   1.330
27186W        W99611  31.928  37.979   2.377
27187W        W99612  20.255  44.327   0.789
27188W        W99613   5.714  31.135  13.524
27189W        W99614  44.998  37.899   0.931
27190W        W99615  29.150  29.558  14.832
27191W        W99616  28.056  26.463  11.426
27192W        W99617  21.658  42.850   0.907
27193W        W99618   6.413  43.957  12.857
27194W        W99619  34.876  10.221   2.837
27195W        W99620  29.052  44.409   3.677
27196W        W99621  39.987  36.006  14.972
27197W        W99622  27.085  41.985   3.672
27198W        W99623  44.973  32.011  11.444
27199W        W99624  38.842  26.997   0.758
27200W        W99625  31.408  44.892  13.506
27201W        W99626  43.913  20.604  13.851
27202W        W99627  14.259  39.472   3.753
27203W        W99628  41.350  17.151   1.310
27204W        W99629  44.910  25.537  12.387
27205W        W99630  42.901  28.675   4.268
27206W        W99631   0.971  28.533   1.732
27207W        W99632   0.885  12.830  10.423
27208W        W99633  33.477  40.826  12.573
27209W        W99634  40.878  43.291  14.995
27210W        W99635   3.432   1.897  10.904
27211W        W99636  14.213  44.485   2.881
27212W        W99637  30.080  28.677   2.685
27213W        W99638  19.052  35.398  13.455
27214W        W99639  19.613   3.438  12.370
27215W        W99640  14.655  42.407   4.612
27216W        W99641   8.229  44.999   0.768
27217W        W99642   5.379  39.418   2.192
27218W        W99643   0.468  31.126  12.363
27219W        W99644  15.691  43.902   2.262
27220W        W99645  14.757   6.750  10.537
27221W        W99646  19.270   2.906   3.750
27222W        W99647  16.610  21.725   2.687
27223W        W99648  18.076  23.559  14.424
27224W        W99649  14.237  14.293   4.294
27225W        W99650   3.793  10.801   2.309
27226W        W99651   6.679  33.101   2.225
27227W        W99652   1.877  32.114  13.009
27228W        W99653  19.537  28.578  11.490
27229W        W99654  10.180  25.203  14.464
27230W        W99655  11.358  16.711   3.705
27231W        W99656  12.788  24.207   2.402
27232W        W99657  36.954  39.827   0.907
27233W        W99658  13.202  23.081  11.957
27234W        W99659  31.954  26.648   0.784
27235W        W99660  21.563  18.770  10.962
27236W        W99661   3.721  40.980  14.829
27237W        W99662  32.048  15.277  14.485
27238W        W99663   2.342   3.406   4.663
27239W        W99664  19.164  40.460  11.427
27240W        W99665   5.272  32.572  12.823
27241W        W99666  44.378  21.715  10.160
27242W        W99667  20.589  22.041  12.939
27243W        W99668  39.355  28.084   0.475
27244W        W99669   4.889  39.477  12.392
27245W        W99670  44.349  23.665  12.549
27246W        W99671  27.601  23.598   0.373
27247W        W99672  13.154  12.697  11.938
27248W        W99673  15.693  21.041   0.965
27249W        W99674  19.591  13.124  10.965
27250W        W99675  25.684  39.378  14.381
27251W        W99676  10.645  15.311  12.947
27252W        W99677   6.367  28.549   3.305
27253W        W99678  18.653  19.687  13.315
27254W        W99679  13.204  18.072  13.510
27255W        W99680  21.532  39.061  10.501
27256W        W99681   1.367  11.727  12.460
27257W        W99682  24.614  18.109   4.304
27258W        W99683   0.362  17.705   0.938
27259W        W99684  17.674  37.897  11.400
27260W        W99685  18.052  35.448  13.835
27261W        W99686   9.844  39.560   2.752
27262W        W99687  39.540  18.082   3.317
27263W        W99688  43.998  20.632  12.515
27264W        W99689  43.316  21.695  11.062
27265W        W99690  44.395  37.511  14.840
27266W        W99691  29.602   7.297  14.347
27267W        W99692  11.197  27.944   4.688
27268W        W99693  11.223  15.752   4.154
27269W        W99694  31.505  29.566  14.892
27270W        W99695  23.679  29.082  14.857
27271W        W99696  15.282   0.434  11.560
27272W        W99697  37.477  44.935   3.185
27273W        W99698  38.443  39.028   3.689
27274W        W99699  37.359   9.690   4.124
27275W        W99700  24.024  44.809   0.435
27276W        W99701   7.188  15.677   4.795
27277W        W99702  43.332  23.190   3.279
27278W        W99703  15.623  33.071   2.185
27279W        W99704   7.751   0.309  11.905
27280W        W99705  38.053  19.104  11.094
27281W        W99706  10.746   2.737  10.976
27282W        W99707   7.301  20.533   3.773
27283W        W99708  31.616  25.612  12.430
27284W        W99709  30.159  34.040   2.343
27285W        W99710  36.030  26.107  11.013
27286W        W99711   3.378  13.180  13.978
27287W        W99712  33.063  12.731  11.002
27288W        W99713  16.154  33.611   4.824
27289W        W99714  42.294  11.131  12.427
27290W        W99715  16.123  17.617   2.664
27291W        W99716  19.613  14.776   0.268
27292W        W99717   3.830   5.915   3.713
27293W        W99718  13.223  41.513  11.944
27294W        W99719  41.502  29.656   5.081
27295W        W99720  15.599   2.460   5.293
27296W        W99721  17.645   1.768   3.702
27297W        W99722  34.441  24.646   3.648
27298W        W99723  40.010   3.711   1.396
27299W        W99724  43.477  33.943   4.614
27300W        W99725   1.294  32.584   2.842
27301W        W99726  22.638  35.929  13.031
27302W        W99727  13.208   7.351   1.310
27303W        W99728   8.374  43.965  13.949
27304W        W99729  20.736  37.858  13.475
27305W        W99730  32.940  33.023   0.291
27306W        W99731  18.255  19.651  14.494
27307W        W99732  18.564  38.989   2.249
27308W        W99733  11.326  33.387  12.940
27309W        W99734  41.025  25.641  11.065
27310W        W99735  39.914  32.986  13.916
27311W        W99736   0.367   9.336   3.715
27312W        W99737   0.473   9.158  14.864
27313W        W99738  43.824  33.397   2.885
27314W        W99739  43.866   4.407  13.900
27315W        W99740  10.648   1.907   1.925
27316W        W99741  11.693   2.237  10.604
27317W        W99742  13.216  20.725  14.341
27318W        W99743  15.811   9.389   0.946
27319W        W99744  13.158  42.402  10.582
27320W        W99745  12.847  35.028  10.976
27321W        W99746  28.999  10.359   3.175
27322W        W99747  20.196  30.416  11.485
27323W        W99748  30.513  35.109  13.530
27324W        W99749  42.967   5.792   4.709
27325W        W99750  20.560  18.147   0.896
27326W        W99751  25.666   5.829  11.442
27327W        W99752  31.915   5.722  12.826
27328W        W99753  44.812  42.404   0.382
27329W        W99754  42.464  12.239   3.231
27330W        W99755  43.773  37.336   3.235
27331W        W99756  28.616  39.342  14.007
27332W        W99757  40.472   1.362  11.385
27333W        W99758   7.776  43.775   2.762
27334W        W99759   3.354  43.428   1.218
27335W        W99760   2.395  22.718  12.499
27336W        W99761   3.298  17.123  10.585
27337W        W99762  34.942  36.415   3.283
27338W        W99763  27.597  42.446  11.536
27339W        W99764  22.056  18.079   1.274
27340W        W99765  21.548  43.978   0.791
27341W        W99766   4.303  23.620   4.722
27342W        W99767  29.100  12.270  11.874
27343W        W99768   0.259   9.721   2.250
27344W        W99769  18.113  30.029   1.790
27345W        W99770   6.854  16.802   1.310
27346W        W99771  41.293  22.115   4.630
27347W        W99772   1.463  37.379   3.305
27348W        W99773  32.084   5.317   0.773
27349W        W99774  25.509  29.517   5.665
27350W        W99775  19.202  25.033   1.240
27351W        W99776   3.829  30.949   4.756
27352W        W99777  36.070  23.524  13.012
27353W        W99778  36.054  24.046  14.816
27354W        W99779  10.184   5.926   1.809
27355W        W99780  18.705  14.706   1.448
27356W        W99781  27.647  16.652   1.740
27357W        W99782   3.226  42.789   1.365
27358W        W99783  28.050  44.837   0.280
27359W        W99784  34.488   3.845  14.912
27360W        W99785   2.291  23.715  14.928
27361W        W99786  22.589  19.622  12.013
27362W        W99787  28.104  14.817   2.818
27363W        W99788  38.412  23.004   3.321
27364W        W99789  39.944  26.642  11.420
27365W        W99790  20.258  34.880  10.975
27366W        W99791   0.439   5.783  13.399
27367W        W99792   7.700  31.090  10.923
27368W        W99793  26.591  38.330  10.596
27369W        W99794  31.625  36.854   3.216
27370W        W99795   0.437   9.344  13.404
27371W        W99796   0.752  16.156  11.862
27372W        W99797  29.523  10.194   5.234
27373W        W99798  23.520  39.501   0.477
27374W        W99799  18.295  29.990   2.683
27375W        W99800  32.540  31.522  11.469
27376W        W99801  18.740  17.591   2.182
27377W        W99802   4.829  37.573   2.350
27378W        W99803  25.596  21.626   1.900
27379W        W99804  41.001  28.064  11.401
27380W        W99805   5.426  30.136   2.725
27381W        W99806   8.789  12.268   4.613
27382W        W99807  30.458  17.592  12.489
27383W        W99808  12.800   5.756   4.752
27384W        W99809  31.043  23.665   5.659
27385W        W99810  41.534   7.725  10.477
27386W        W99811  31.419  29.477   0.908
27387W        W99812  29.624  21.134  12.091
27388W        W99813  25.540  38.480   4.748
27389W        W99814  24.226   7.348   4.784
27390W        W99815  24.694  10.704  13.053
27391W        W99816  30.624  30.513   0.263
27392W        W99817  24.622  39.874   4.645
27393W        W99818  41.871  15.204   3.272
27394W        W99819   5.297   2.965  11.973
27395W        W99820   9.740  40.409  11.551
27396W        W99821  29.557  10.321   1.777
27397W        W99822   6.241  31.478   2.775
27398W        W99823  19.766   8.688   1.325
27399W        W99824  14.791  37.558   0.872
27400W        W99825  20.113  21.017   4.610
27401W        W99826  27.986   5.207  13.996
27402W        W99827  15.242  19.230   3.305
27403W        W99828  25.550  40.387  12.873
27404W        W99829  15.151   3.949  11.864
27405W        W99830  14.598  21.524  13.520
27406W        W99831  19.183   6.257   0.257
27407W        W99832  18.562  39.334   0.340
27408W        W99833  20.572  31.067   3.344
27409W        W99834  41.362  43.401  14.410
27410W        W99835  17.565   8.740   1.698
27411W        W99836  35.061  27.169  12.973
27412W        W99837   7.807  21.700   2.836
27413W        W99838  22.608   0.923  11.566
27414W        W99839  36.920  30.446  12.478
27415W        W99840  23.096  28.158  11.573
27416W        W99841  17.068  36.400   4.597
27417W        W99842  44.759  35.914  13.458
27418W        W99843  33.462  27.519  13.794
27419W        W99844  37.547  39.953  11.912
27420W        W99845  24.667  34.029   4.240
27421W        W99846  24.205  12.138  12.405
27422W        W99847  22.679   9.787  10.062
27423W        W99848  14.276  23.530   2.297
27424W        W99849   6.729  15.702   0.473
27425W        W99850  43.802   0.335   2.837
27426W        W99851  42.958  39.321  12.508
27427W        W99852  27.189  35.049  11.541
27428W        W99853  26.180   4.389   2.395
27429W        W99854  12.654  18.557  13.050
27430W        W99855   9.167  11.764   0.952
27431W        W99856   2.948  14.204  14.782
27432W        W99857  39.475  35.926   2.253
27433W        W99858  37.899  20.218  14.922
27434W        W99859  10.353   7.763  14.784
27435W        W99860  40.927  40.042   0.774
27436W        W99861  35.006   9.259  13.831
27437W        W99862  35.013  28.474  12.975
27438W        W99863  18.157  39.339  13.050
27439W        W99864  39.873  24.542   1.771
27440W        W99865  10.278  28.519   3.152
27441W        W99866  37.940  18.562  11.600
27442W        W99867  40.864  37.482  14.958
27443W        W99868  23.718  42.831   3.374
27444W        W99869  19.694  41.790  14.925
27445W        W99870  37.415  30.521  12.535
27446W        W99871  43.279  20.148   1.259
27447W        W99872   9.272  32.949   1.444
27448W        W99873  10.377   8.234  14.495
27449W        W99874  14.255  37.569  11.516
27450W        W99875  22.125  39.319   4.604
27451W        W99876  32.527  10.648   1.262
27452W        W99877  31.056   1.290   3.811
27453W        W99878  37.998   9.853   0.334
27454W        W99879  30.130  43.322   1.776
27455W        W99880  40.352   4.902   2.747
27456W        W99881  24.665   5.253  12.538
27457W        W99882  36.889   4.423  11.048
27458W        W99883  24.179  38.849   4.265
27459W        W99884  17.669  12.182  14.458
27460W        W99885  34.993  20.574   3.279
27461W        W99886  18.272  36.073   2.341
27462W        W99887  36.563  28.548   1.353
27463W        W99888  13.741  39.416  14.970
27464W        W99889  31.112  44.950   0.732
27465W        W99890  22.723  32.055  14.489
27466W        W99891  35.077  43.889  14.286
27467W        W99892  31.405  30.932   3.798
27468W        W99893  31.899  26.684   2.309
27469W        W99894  16.767  32.976   2.340
27470W        W99895  13.294   7.797   3.300
27471W        W99896  18.092  30.989  14.821
27472W        W99897  27.515  22.057  14.763
27473W        W99898   9.860  30.496  11.984
27474W        W99899  10.295  16.667  14.962
27475W        W99900   8.217   8.266  11.972
27476W        W99901  16.295  21.038  12.416
27477W        W99902  16.229  25.106   2.354
27478W        W99903   5.325  27.450  11.405
27479W        W99904  26.078   0.897  11.533
27480W        W99905  15.195  25.005   3.376
27481W        W99906  35.971  41.811  13.504
27482W        W99907   2.867  34.526  11.503
27483W        W99908  26.192  12.302   2.893
27484W        W99909  28.567  31.082  13.852
27485W        W99910   4.830   6.749  11.860
27486W        W99911   5.345  34.011  14.399
27487W        W99912   8.363   4.813   0.958
27488W        W99913   5.295  22.689   0.371
27489W        W99914  41.416  21.560  12.425
27490W        W99915  34.076  11.843   2.865
27491W        W99916  44.990   3.251  10.504
27492W        W99917  24.583  21.096  10.086
27493W        W99918  10.380  31.994   2.372
27494W        W99919  23.544  10.178   2.740
27495W        W99920   1.814  27.054  13.954
27496W        W99921   9.659   2.840  14.369
27497W        W99922  24.598   1.455  13.888
27498W        W99923  26.582  32.005  10.117
27499W        W99924   4.724   7.324  10.448
27500W        W99925  44.957  26.026   0.792
27501W        W99926  13.845   0.452  11.965
27502W        W99927  21.140  17.272   3.838
27503W        W99928   9.840   2.831   0.775
27504W        W99929  11.363  35.055  12.909
27505W        W99930  40.872  21.589  11.120
27506W        W99931   0.807   3.790  13.548
27507W        W99932  36.502   3.317  10.051
27508W        W99933   7.249  37.841  14.396
27509W        W99934  40.377  13.117  11.948
27510W        W99935  17.270  12.840  10.640
27511W        W99936  28.628  18.646  12.043
27512W        W99937   1.907  19.075  10.972
27513W        W99938  44.273  25.125   0.732
27514W        W99939   3.922   4.347   4.241
27515W        W99940  12.675  16.162  13.910
27516W        W99941  19.134  43.423  12.075
27517W        W99942  24.638  24.520   2.366
27518W        W99943   0.942  39.443   0.793
27519W        W99944   2.452   2.324  13.870
27520W        W99945   9.221  40.914  10.967
27521W        W99946  39.054  33.109  12.831
27522W        W99947  39.020  14.764   3.665
27523W        W99948  38.048  43.822   4.670
27524W        W99949  26.602  25.653   4.724
27525W        W99950  35.529  21.713  12.495
27526W        W99951  36.385  41.325  14.856
27527W        W99952  27.451  38.894   0.395
27528W        W99953  37.066   3.378   4.142
27529W        W99954   1.773  16.568   1.218
27530W        W99955  40.942  40.885   0.852
27531W        W99956  42.931  14.318  13.902
27532W        W99957  11.815  19.274  12.011
27533W        W99958  39.887  26.130   1.395
27534W        W99959  29.451   8.687   2.329
27535W        W99960   6.764  36.041  13.829
27536W        W99961   9.784  28.573  10.471
27537W        W99962  28.049  19.222   0.365
27538W        W99963  44.775  35.400  14.795
27539W        W99964  40.981   1.242   2.811
27540W        W99965  15.266  44.999   4.662
27541W        W99966   2.806  14.736  14.826
27542W        W99967  10.211  19.619   4.263
27543W        W99968  36.933   8.404   4.674
27544W        W99969  14.772   3.446   1.844
27545W        W99970  17.283   0.321  14.453
27546W        W99971   8.177  36.033   2.772
27547W        W99972  10.771  44.289  12.083
27548W        W99973  11.801  38.013   4.717
27549W        W99974  42.307  34.576   4.188
27550W        W99975  43.858  43.946   1.409
27551W        W99976  41.899   3.927  10.915
27552W        W99977   3.901  36.415  11.492
27553W        W99978  11.252   0.920   1.754
27554W        W99979   8.702  13.686  14.944
27555W        W99980  35.949   7.757   3.650
27556W        W99981  36.961  26.137  11.075
27557W        W99982   2.950  28.520   2.359
27558W        W99983  38.549  44.839   3.679
27559W        W99984  37.582  31.141   2.237
27560W        W99985  43.955   5.396   2.835
27561W        W99986  16.254   3.771   4.212
27562W        W99987  16.302  11.794  11.436
27563W        W99988   6.328   5.355  12.509
27564W        W99989  34.973  31.109   2.411
27565W        W99990   8.673  12.855  13.422
27566W        W99991  18.711  17.555   3.672
27567W        W99992  35.019  26.163   4.782
27568W        W99993  16.572  22.139  13.999
27569W        W99994  28.448   4.812   1.803
27570W        W99995   5.329  12.767  10.563
27571W        W99996  42.354  42.410  11.552
27572W        W99997  40.016   9.153   0.788
27573W        W99998  21.082  38.018   1.935
27574W        W99999  41.418  30.931  12.070
27575W        W    0  16.205  16.768   2.237
27576W        W    1  23.180  36.990   4.736
27577W        W    2  37.024  31.503   0.323
27578W        W    3  23.207  14.316   0.912
27579W        W    4  20.538   7.241  13.385
27580W        W    5  23.159   7.283  14.444
27581W        W    6  20.692  12.611  14.816
27582W        W    7  15.769  28.080   1.298
27583W        W    8  44.994  28.073  12.379
27584W        W    9   1.306  16.646  10.521
27585W        W   10  44.318  12.334  13.423
27586W        W   11   2.328  13.157  13.880
27587W        W   12  22.026  39.998  12.861
27588W        W   13  35.022  17.081   1.363
27589W        W   14   1.778  23.524  14.444
27590W        W   15  23.517  44.829  14.990
27591W        W   16   7.196   4.753   4.227
27592W        W   17   7.351   2.810  12.578
27593W        W   18  29.977  24.484   4.703
27594W        W   19   3.795   2.929   3.860
27595W        W   20  26.203  44.953  12.857
27596W        W   21   9.177  36.063  14.949
27597W        W   22  28.185  40.345  12.422
27598W        W   23  11.685  15.116   0.873
27599W        W   24  17.651  32.979   1.344
27600W        W   25  21.525  25.003  10.497
27601W        W   26   4.341  26.015  13.480
27602W        W   27  16.741   4.885  12.835
27603W        W   28  21.150  37.971  14.333
27604W        W   29  40.372  36.369  11.061
27605W        W   30  41.827  18.201  10.983
27606W        W   31  43.326  23.031  10.620
27607W        W   32  38.443   1.435  12.371
27608W        W   33  35.554  29.131  13.967
27609W        W   34  39.913  28.543  12.384
27610W        W   35  34.055  40.400   4.616
27611W        W   36  24.632  18.069  11.980
27612W        W   37  17.705  34.022   3.328
27613W        W   38  25.155   2.951  14.807
27614W        W   39  39.534  33.617   4.266
27615W        W   40   6.769   7.311  11.379
27616W        W   41  41.846  26.567   0.309
27617W        W   42  30.161  20.620   4.125
27618W        W   43  19.161  41.360   4.612
27619W        W   44   5.311   8.661  12.035
27620W        W   45   0.397   9.661   2.778
27621W        W   46   3.445  42.971  12.943
27622W        W   47  30.089   9.753  14.758
27623W        W   48   4.771  41.960  12.849
27624W        W   49  15.172  19.075   2.326
27625W        W   50  19.660  16.182   2.406
27626W        W   51  11.153  12.170   4.224
27627W        W   52  32.994  18.290   1.764
27628W        W   53  11.300  12.162  11.520
27629W        W   54  33.896   2.721  12.401
27630W        W   55  15.168  36.875   4.339
27631W        W   56  35.057  23.552   3.148
27632W        W   57  24.152   9.387  10.899
27633W        W   58  21.103  22.113  10.941
27634W        W   59   0.272  21.018   9.951
27635W        W   60  39.900  16.113   2.791
27636W        W   61  31.946  13.253  12.955
27637W        W   62  20.186  25.051  12.096
27638W        W   63   3.800  13.640  11.515
27639W        W   64   0.284   4.870   1.367
27640W        W   65  22.736  37.375   4.301
27641W        W   66  27.988  32.541   0.829
27642W        W   67  20.703  17.650   1.706
27643W        W   68  18.173  38.066  13.930
27644W        W   69  20.173  20.637  10.519
27645W        W   70   4.837   5.747   4.168
27646W        W   71  38.903   8.341   2.293
27647W        W   72   9.882  10.306  10.946
27648W        W   73  40.942  21.537  11.371
27649W        W   74   6.395   7.880   4.252
27650W        W   75  16.799  44.428  13.901
27651W        W   76  14.651  23.090  12.509
27652W        W   77  20.199  41.817  12.862
27653W        W   78  32.602  31.406   1.384
27654W        W   79  11.713  33.439   3.242
27655W        W   80  36.400  44.870  12.378
27656W        W   81  36.524  22.138   3.159
27657W        W   82  41.297  30.530  13.905
27658W        W   83  30.918   2.939   1.436
27659W        W   84   1.273  24.005   0.273
27660W        W   85   1.761   7.200   1.421
27661W        W   86  17.633  25.201  13.925
27662W        W   87  36.940  40.993   4.798
27663W        W   88   9.249  32.113   1.914
27664W        W   89  26.199  38.886   3.842
27665W        W   90  15.615  30.446  11.404
27666W        W   91  17.780   4.230   3.300
27667W        W   92   0.320   6.857  14.340
27668W        W   93  37.356   4.434   2.743
27669W        W   94  14.107  43.962   1.764
27670W        W   95  10.235   5.923  10.039
27671W        W   96   4.217  27.532   2.293
27672W        W   97  19.267  13.331  13.383
27673W        W   98  20.579  27.159   4.265
27674W        W   99  28.670  32.886   3.376
27675W        W  100  10.150  38.978  10.572
27676W        W  101  22.563   3.290   2.891
27677W        W  102  24.684  21.697  11.115
27678W        W  103  10.700  28.542  11.104
27679W        W  104  12.257   3.232   5.730
27680W        W  105  20.051  33.407   3.729
27681W        W  106  22.083  10.726  12.944
27682W        W  107  36.386  15.776   0.785
27683W        W  108  10.173  12.653  12.868
27684W        W  109   6.748  11.335   1.415
27685W        W  110  35.885   6.349  14.474
27686W        W  111  21.027  39.003   3.363
27687W        W  112  20.579  18.162   3.871
27688W        W  113  42.415  18.626   0.293
27689W        W  114  39.961   0.928   2.416
27690W        W  115   0.315  13.627  14.293
27691W        W  116  42.897   1.406   3.377
27692W        W  117   7.850  15.747  11.408
27693W        W  118  26.690  18.726  11.417
27694W        W  119  44.867  12.648  12.483
27695W        W  120  43.353  16.728   0.437
27696W        W  121  20.738  16.601   2.282
27697W        W  122  23.050   2.439   3.854
27698W        W  123  17.588  40.486   0.814
27699W        W  124   0.333  27.657  12.899
27700W        W  125  15.677  18.551  10.944
27701W        W  126  28.613   2.960  11.058
27702W        W  127  41.349  21.684   3.664
27703W        W  128  31.637  26.637  12.522
27704W        W  129  24.621  28.489   2.835
27705W        W  130  36.014  31.979  10.608
27706W        W  131  16.569  29.923   1.861
27707W        W  132  10.692  12.654   3.283
27708W        W  133  35.582  41.881   4.835
27709W        W  134  21.124   1.897  14.974
27710W        W  135   5.927   2.946  10.446
27711W        W  136  37.073  41.396  10.535
27712W        W  137  22.645  10.695  14.918
27713W        W  138   5.251  14.122   4.232
27714W        W  139   8.288  23.680  12.863
27715W        W  140   1.452  31.451   3.180
27716W        W  141  14.701  29.502  12.484
27717W        W  142  33.891  42.981   3.230
27718W        W  143  16.232  30.101  10.912
27719W        W  144   6.770  31.908   2.768
27720W        W  145   8.869  20.195   3.148
27721W        W  146  13.839  22.647   9.932
27722W        W  147   3.854  41.014  11.469
27723W        W  148  18.062  17.794  13.850
27724W        W  149   9.821  36.900  10.599
27725W        W  150  40.415  43.303  13.338
27726W        W  151   1.300  25.180  12.348
27727W        W  152  33.600  11.293  13.547
27728W        W  153  12.162  39.556  10.496
27729W        W  154  41.489  17.579   0.342
27730W        W  155   6.734  23.574  10.482
27731W        W  156  24.130  12.749  12.391
27732W        W  157   5.890  36.049   0.452
27733W        W  158  20.532  21.055  13.052
27734W        W  159   2.352  44.295   1.241
27735W        W  160  35.575  10.720  11.389
27736W        W  161  36.517  25.567  11.993
27737W        W  162  41.465   1.846  12.536
27738W        W  163   0.314   8.397   1.421
27739W        W  164  16.301  23.690  13.356
27740W        W  165  36.929   5.849   2.293
27741W        W  166  20.728  43.931  11.575
27742W        W  167  21.527  34.917   0.400
27743W        W  168  32.935  35.507   1.233
27744W        W  169  42.497  37.422  13.329
27745W        W  170   6.755  32.423  10.935
27746W        W  171  33.468  41.819  11.878
27747W        W  172  22.182  16.702  11.858
27748W        W  173  21.092  35.037  12.071
27749W        W  174  29.651  34.057  10.454
27750W        W  175  21.540  39.336   4.140
27751W        W  176  39.023   3.248   2.345
27752W        W  177  42.992   6.840  14.353
27753W        W  178  44.431  23.139  14.964
27754W        W  179  24.133  26.201   0.333
27755W        W  180  26.151  29.107  11.555
27756W        W  181  16.714  14.752  12.086
27757W        W  182  20.577  22.708  10.494
27758W        W  183   5.259  38.565   1.386
27759W        W  184   6.369  19.206  14.976
27760W        W  185  10.862   4.266  10.418
27761W        W  186  28.142  10.326  13.014
27762W        W  187  22.047  12.635   9.453
27763W        W  188  42.794  21.604   5.757
27764W        W  189  19.628  30.998  13.527
27765W        W  190  13.843   0.356  11.602
27766W        W  191  25.678  19.091  14.914
27767W        W  192  19.656  21.547  10.535
27768W        W  193  16.109  32.467   3.749
27769W        W  194  32.620  30.041   4.814
27770W        W  195  24.584  43.006   2.746
27771W        W  196   0.849  11.251  14.509
27772W        W  197   5.836  44.837   1.233
27773W        W  198   7.883   5.880   4.288
27774W        W  199  18.183  39.015   2.404
27775W        W  200   1.946  26.563   2.811
27776W        W  201  39.317  24.574  13.455
27777W        W  202  27.173   6.250  10.520
27778W        W  203  12.777  18.204  10.950
27779W        W  204   6.864  12.612  12.063
27780W        W  205   5.717  20.100  11.526
27781W        W  206  16.108  25.627  12.463
27782W        W  207  15.733  35.008   5.798
27783W        W  208  24.486  43.491  12.952
27784W        W  209   3.371  16.794   4.727
27785W        W  210  20.199  22.062  13.512
27786W        W  211   1.839  43.281   1.353
27787W        W  212  15.243  12.254   2.231
27788W        W  213   7.225  17.565   0.849
27789W        W  214  14.281   7.853   2.252
27790W        W  215  29.487  14.236  13.053
27791W        W  216  26.573   6.902   0.319
27792W        W  217  16.223  18.678   1.844
27793W        W  218  10.730   2.314   4.681
27794W        W  219  17.151  41.820   4.159
27795W        W  220  34.960  28.454  10.596
27796W        W  221  44.353  24.125  13.003
27797W        W  222  44.757  11.365   4.326
27798W        W  223  32.031  40.490  14.386
27799W        W  224  29.092  34.103  14.817
27800W        W  225  30.454  15.676   0.774
27801W        W  226  38.339  42.483  12.048
27802W        W  227  10.276  32.451  13.476
27803W        W  228   8.232  24.695  10.495
27804W        W  229  26.069  40.435   1.784
27805W        W  230   6.391   9.331  10.141
27806W        W  231  22.149  36.504  13.935
27807W        W  232   0.492   6.814   1.328
27808W        W  233  15.261  17.065  11.938
27809W        W  234  13.750  26.626  13.322
27810W        W  235   3.404  44.011  13.025
27811W        W  236  39.936  40.390   1.881
27812W        W  237   0.819  20.214   0.823
27813W        W  238  29.007  42.915   0.284
27814W        W  239  19.124  39.444   4.597
27815W        W  240  23.705  43.795   3.785
27816W        W  241  29.505   0.759  12.455
27817W        W  242  11.306  44.896  13.023
27818W        W  243  38.422  11.231   4.190
27819W        W  244   0.962   3.287  10.573
27820W        W  245   9.792   9.383  10.932
27821W        W  246  14.626  28.591  11.989
27822W        W  247  17.173   1.820   4.677
27823W        W  248   4.212  32.896  12.963
27824W        W  249  21.130  10.788   3.806
27825W        W  250  15.578  26.952   0.360
27826W        W  251  32.428  41.861  11.598
27827W        W  252  23.065  43.436  14.808
27828W        W  253  40.016   8.884  12.978
27829W        W  254  33.015  38.905  11.452
27830W        W  255  33.077   0.268  14.018
27831W        W  256  13.656  33.960   3.326
27832W        W  257  30.027  30.056  11.104
27833W        W  258  22.176  27.565  12.536
27834W        W  259  21.202  19.077  13.946
27835W        W  260  33.618  15.664   4.641
27836W        W  261   4.927   6.393  11.004
27837W        W  262  16.213  43.362   1.754
27838W        W  263   2.367  41.819   1.833
27839W        W  264  31.983  34.497   4.714
27840W        W  265  24.630  18.293   3.343
27841W        W  266   8.787   0.478   4.684
27842W        W  267  27.493  40.887   3.706
27843W        W  268  15.744  19.173   3.711
27844W        W  269  32.893  27.461  12.978
27845W        W  270   7.818  11.295   0.305
27846W        W  271  14.174  36.557  13.011
27847W        W  272  33.394   5.338   4.278
27848W        W  273  28.632   8.750   4.659
27849W        W  274   5.824  20.592   4.305
27850W        W  275  29.524  44.822  12.578
27851W        W  276  42.941   4.219   3.742
27852W        W  277  16.626  42.319  11.031
27853W        W  278  42.974   4.332   1.897
27854W        W  279  27.943  28.582   3.272
27855W        W  280  25.191  43.397  12.501
27856W        W  281  10.213   4.842   9.963
27857W        W  282   0.811  32.510  12.476
27858W        W  283  24.592  25.113  13.498
27859W        W  284  33.053  14.784  13.463
27860W        W  285  21.193  14.173  14.853
27861W        W  286  25.667   5.911   4.332
27862W        W  287   2.352  32.041   2.390
27863W        W  288  37.995  17.199  10.034
27864W        W  289  18.668  25.014   2.662
27865W        W  290  12.135   1.435   0.879
27866W        W  291  32.129   2.760  14.970
27867W        W  292   7.868  26.985   2.888
27868W        W  293  33.012  42.354   4.785
27869W        W  294  35.090  11.351  11.102
27870W        W  295  16.596  16.600  12.402
27871W        W  296   4.419  22.575   4.265
27872W        W  297   2.924  27.149   3.171
27873W        W  298  26.196  42.981   1.928
27874W        W  299  31.078  11.285   1.324
27875W        W  300   9.777   8.373   3.757
27876W        W  301   2.346  38.026   3.708
27877W        W  302  24.722  18.119  10.929
27878W        W  303  21.082   4.317  10.485
27879W        W  304  21.137  27.131  13.943
27880W        W  305  33.598  31.925  14.438
27881W        W  306  43.281   4.321  12.503
27882W        W  307   7.873  11.860  14.317
27883W        W  308  39.435   9.355  14.914
27884W        W  309   9.680  19.727   4.720
27885W        W  310   4.272  34.578   2.789
27886W        W  311  41.311  28.628   4.264
27887W        W  312  41.416  32.919  12.990
27888W        W  313  30.548   0.971  13.849
27889W        W  314   1.756  33.063  11.574
27890W        W  315   6.847   3.872  12.425
27891W        W  316   6.323  24.025   1.239
27892W        W  317  15.244   9.867  12.376
27893W        W  318  28.624   8.206   0.944
27894W        W  319  37.040  34.500  10.431
27895W        W  320  43.795  41.440  10.583
27896W        W  321  23.733  13.613  13.426
27897W        W  322  27.532  34.013   3.833
27898W        W  323   6.403   3.424   0.754
27899W        W  324  28.952  30.050  12.576
27900W        W  325  40.408  16.604   4.695
27901W        W  326  41.366   6.194   4.729
27902W        W  327  38.414  30.072   0.962
27903W        W  328  28.551   8.288  13.424
27904W        W  329  27.510  40.959   3.177
27905W        W  330  41.866  23.672  13.327
27906W        W  331  18.203  24.192   2.758
27907W        W  332  11.826  20.621  10.951
27908W        W  333  41.375  27.512  12.499
27909W        W  334  43.279  28.959  11.474
27910W        W  335  15.231  21.139   1.811
27911W        W  336  28.138   6.679  14.939
27912W        W  337  40.371   0.949   3.293
27913W        W  338  40.994  34.900  11.499
27914W        W  339   8.363  41.453  13.054
27915W        W  340  40.902  20.059  14.875
27916W        W  341  30.582  17.188   5.149
27917W        W  342  12.739  13.191  10.543
27918W        W  343  12.665  43.407   1.832
27919W        W  344  39.853  27.075  12.833
27920W        W  345  38.997  28.611   3.239
27921W        W  346  19.208  33.963  14.282
27922W        W  347  36.069   5.282   3.172
27923W        W  348  29.143   0.284   0.281
27924W        W  349  26.146  16.702   1.880
27925W        W  350  22.642  27.463   1.707
27926W        W  351   6.427  35.001  12.537
27927W        W  352  42.905  33.508   9.943
27928W        W  353  16.764   3.710  11.038
27929W        W  354  38.851  30.430   3.641
27930W        W  355  33.568   9.669   2.193
27931W        W  356  36.058  17.751   4.690
27932W        W  357  27.682   2.936  12.032
27933W        W  358  36.492  28.031   3.187
27934W        W  359  40.495  33.542   3.343
27935W        W  360  37.373   5.824  10.632
27936W        W  361  17.723  28.589   2.351
27937W        W  362  29.089  44.805  13.929
27938W        W  363  36.000  12.680   1.903
27939W        W  364   1.977   1.262   4.158
27940W        W  365   1.815   0.439  12.965
27941W        W  366  16.315  41.456   1.763
27942W        W  367  10.309  26.207  13.985
27943W        W  368  19.612  22.677  14.511
27944W        W  369  35.994  29.014  14.927
27945W        W  370  44.977  10.320  12.016
27946W        W  371  34.893   5.394   3.829
27947W        W  372   3.343   8.240  10.980
27948W        W  373  25.702  21.140  12.417
27949W        W  374  32.507  43.816  12.544
27950W        W  375  10.291   9.364  12.094
27951W        W  376   4.915   4.382   1.853
27952W        W  377   6.422   9.662   0.907
27953W        W  378  44.955  10.327  14.408
27954W        W  379  33.406  30.572   0.890
27955W        W  380  12.123  44.982  11.121
27956W        W  381  10.710   7.745   3.810
27957W        W  382  41.921   1.933   0.462
27958W        W  383   6.248  25.113  10.499
27959W        W  384  16.279   1.421  14.389
27960W        W  385   4.329  21.578  13.334
27961W        W  386   7.675   6.766  10.911
27962W        W  387  43.819   0.820  11.415
27963W        W  388  31.578  25.589   1.722
27964W        W  389  29.564   7.826   3.697
27965W        W  390   6.747  42.998  14.352
27966W        W  391  18.656  26.674  10.129
27967W        W  392  35.028  18.587  10.504
27968W        W  393  36.563  38.561  10.890
27969W        W  394   2.280   4.735   3.251
27970W        W  395   4.362  26.520  13.064
27971W        W  396  18.583   9.882  13.352
27972W        W  397   4.421   9.163  10.938
27973W        W  398  38.031  10.648  12.065
27974W        W  399  26.994   9.799   3.192
27975W        W  400   8.708   1.310   0.841
27976W        W  401   5.829  37.022  12.517
27977W        W  402  31.024  28.073  12.425
27978W        W  403  24.128  23.593  11.114
27979W        W  404  25.531  39.987  12.027
27980W        W  405  14.230  14.267   1.297
27981W        W  406  31.541  14.322   3.261
27982W        W  407  15.586   7.799  12.006
27983W        W  408   5.332  24.124   0.894
27984W        W  409  11.216  22.720   3.785
27985W        W  410   2.953  24.511  10.642
27986W        W  411   1.373  28.520  14.422
27987W        W  412  14.708  34.587  13.337
27988W        W  413   2.818  40.931   4.796
27989W        W  414  30.983  39.490  10.978
27990W        W  415  34.458  38.531  11.023
27991W        W  416   8.734  12.733   0.874
27992W        W  417  22.584   6.403   5.213
27993W        W  418  33.420  40.948   4.777
27994W        W  419  28.591  34.078   4.599
27995W        W  420  16.750  35.528   0.917
27996W        W  421   3.891  36.005  11.405
27997W        W  422   1.455  44.481   4.209
27998W        W  423  44.312  27.631   1.233
27999W        W  424  10.867  20.764   3.283
28000W        W  425  36.967  40.406   0.338
28001W        W  426  28.614  29.463   4.666
28002W        W  427  10.375  35.376  11.564
28003W        W  428  32.591  44.851   0.950
28004W        W  429  12.680  44.771   1.368
28005W        W  430  17.560  17.725  11.959
28006W        W  431   6.244   2.234   1.399
28007W        W  432  11.625  42.933   0.391
28008W        W  433  29.019  18.558  13.996
28009W        W  434  41.920   1.927  12.431
28010W        W  435  29.139  36.984   1.223
28011W        W  436  10.157  28.463  12.541
28012W        W  437  25.087  11.748   1.874
28013W        W  438  13.677  24.208  11.964
28014W        W  439  39.438   2.402   0.368
28015W        W  440  44.327  26.966   0.354
28016W        W  441  11.242  44.832  14.337
28017W        W  442  22.112  21.201   3.835
28018W        W  443  40.799  29.926  10.473
28019W        W  444  30.529  42.844   1.749
28020W        W  445   9.870  15.244  13.521
28021W        W  446  30.656  35.976  11.496
28022W        W  447  36.416  20.762   3.827
28023W        W  448   8.219   4.763   2.767
28024W        W  449  18.620  12.857  11.100
28025W        W  450  39.843   1.921  11.607
28026W        W  451  27.197  16.179   1.303
28027W        W  452  33.886  39.505  12.403
28028W        W  453  13.222  26.515  12.920
28029W        W  454  18.659   7.754   2.251
28030W        W  455  44.795  31.402  10.462
28031W        W  456  26.636  44.268   0.432
28032W        W  457   2.376  23.167  13.315
28033W        W  458  19.188  27.151   1.836
28034W        W  459  18.131  33.397   1.743
28035W        W  460  34.964   1.271  13.791
28036W        W  461  36.911  16.771   1.831
28037W        W  462  40.419  17.647  12.877
28038W        W  463  22.578  29.616  13.830
28039W        W  464   0.370  18.094   2.304
28040W        W  465  11.242  36.096  14.799
28041W        W  466  37.072  14.240  13.967
28042W        W  467  28.056  28.139   4.288
28043W        W  468  37.874  28.001  11.106
28044W        W  469  35.415   3.269  12.937
28045W        W  470  10.350  30.127  12.045
28046W        W  471  37.425  30.548   0.758
28047W        W  472  21.601  28.049  10.125
28048W        W  473  21.663  15.198  14.356
28049W        W  474   8.370  27.156  13.519
28050W        W  475  11.742  10.766  14.969
28051W        W  476  24.722  29.487   3.819
28052W        W  477  14.323  37.901   3.783
28053W        W  478  14.251  40.923   4.285
28054W        W  479  18.208  29.507  13.033
28055W        W  480  22.193   2.359  13.547
28056W        W  481   9.371  20.724   2.891
28057W        W  482   5.913   5.697  10.599
28058W        W  483   6.214  26.972   2.325
28059W        W  484  10.303   5.252   4.615
28060W        W  485  44.352  34.043  10.088
28061W        W  486  20.062  18.664   3.305
28062W        W  487  42.438   3.774   1.303
28063W        W  488  21.718  16.313   3.716
28064W        W  489   0.814  39.009  14.913
28065W        W  490  43.305  12.685   0.451
28066W        W  491   3.848  10.273  11.044
28067W        W  492  35.987  33.496  14.881
28068W        W  493  30.609  40.471  10.091
28069W        W  494  25.147  14.332   2.900
28070W        W  495   8.211   7.375  12.974
28071W        W  496  31.590  26.570  14.912
28072W        W  497  36.569  27.047  13.859
28073W        W  498  21.553  19.560   1.267
28074W        W  499  13.743   2.895  11.879
28075W        W  500  29.621  29.952   1.309
28076W        W  501   1.324  26.022   0.867
28077W        W  502  38.564  32.449   2.376
28078W        W  503  44.950  28.076  10.159
28079W        W  504  28.505  16.594  11.577
28080W        W  505  15.235   1.810   4.321
28081W        W  506  36.504  31.488  12.875
28082W        W  507  38.363   9.317  12.857
28083W        W  508  37.876   1.254   4.147
28084W        W  509  12.735   9.309  13.352
28085W        W  510  21.166   9.259   0.741
28086W        W  511   7.848   1.428   1.364
28087W        W  512  12.854   4.300   9.936
28088W        W  513   3.942   2.866  11.453
28089W        W  514  40.544   7.405  13.455
28090W        W  515   7.260  33.928   4.145
28091W        W  516   1.357  38.003  13.950
28092W        W  517  23.129  13.108   1.275
28093W        W  518  41.381  41.001   3.362
28094W        W  519   4.926  20.189  11.463
28095W        W  520  19.741   9.839   0.441
28096W        W  521  37.012  35.020   4.640
28097W        W  522  41.330  36.006   0.416
28098W        W  523  11.341  12.737   2.778
28099W        W  524  21.579  40.925   4.289
28100W        W  525  22.044   0.906   1.347
28101W        W  526   5.317  10.225   1.324
28102W        W  527  10.675   8.245   4.698
28103W        W  528   5.846  40.893  14.490
28104W        W  529   9.173  20.192   1.744
28105W        W  530   2.297   8.747  13.384
28106W        W  531   5.710  20.108  10.966
28107W        W  532  34.929  35.017  11.471
28108W        W  533  31.613  31.457  13.861
28109W        W  534  26.479  43.007   1.741
28110W        W  535  28.160   0.808   0.928
28111W        W  536  33.114   9.194   1.281
28112W        W  537  15.209  11.778   0.920
28113W        W  538   0.978  33.576  12.008
28114W        W  539  27.021  29.656  14.467
28115W        W  540  36.467  18.580   0.835
28116W        W  541  32.395  15.295   1.345
28117W        W  542   5.811   6.417  11.001
28118W        W  543  30.922   8.821   3.746
28119W        W  544  37.840   1.311  14.372
28120W        W  545  20.649  19.706   4.671
28121W        W  546  32.991  24.066  12.083
28122W        W  547  22.508  41.011  12.372
28123W        W  548  15.793  38.901   1.857
28124W        W  549   0.861  19.672  12.499
28125W        W  550  32.942  19.670  14.025
28126W        W  551   2.453  11.623   0.934
28127W        W  552  29.969  15.599  13.316
28128W        W  553  43.399  36.487  12.570
28129W        W  554  28.131  15.677   3.301
28130W        W  555  15.291  35.524  14.791
28131W        W  556  42.459  24.011   0.914
28132W        W  557  43.400  22.042  10.460
28133W        W  558  23.603  11.216   0.260
28134W        W  559  32.041  34.445  11.490
28135W        W  560  12.334   4.731  12.522
28136W        W  561  18.745  21.533   2.191
28137W        W  562  41.984  16.600  11.023
28138W        W  563  26.515  15.620  13.881
28139W        W  564  13.316  40.482   0.482
28140W        W  565  40.001   1.307  11.405
28141W        W  566  15.598   4.737   2.284
28142W        W  567   5.200  39.494   3.174
28143W        W  568  15.253  24.178   3.663
28144W        W  569  41.793   4.250  11.487
28145W        W  570  30.966  12.666   2.831
28146W        W  571  14.191  16.593   3.184
28147W        W  572  40.990  32.030  10.415
28148W        W  573  15.122   1.335  10.953
28149W        W  574  13.316   9.656   1.450
28150W        W  575   8.192  23.722  11.878
28151W        W  576  40.439  25.611   3.340
28152W        W  577  34.044  40.438  13.319
28153W        W  578  36.536  39.435   4.784
28154W        W  579   6.385   6.417   1.321
28155W        W  580  33.006  29.612  12.991
28156W        W  581  15.644  13.703  10.406
28157W        W  582  30.976  28.494  10.631
28158W        W  583   4.445   2.250  14.849
28159W        W  584  20.081  10.282  12.365
28160W        W  585  11.633  20.059  12.991
28161W        W  586  19.143   8.804  12.356
28162W        W  587  36.482  29.643  11.926
28163W        W  588  32.127  37.482  11.090
28164W        W  589  15.672  41.320  14.808
28165W        W  590  40.465  25.531   2.321
28166W        W  591  31.429  17.748  13.799
28167W        W  592  18.088  22.212  10.964
28168W        W  593   0.746  18.172   2.212
28169W        W  594  32.406  30.050   1.385
28170W        W  595  42.022   7.294  13.473
28171W        W  596  40.330   7.676   5.110
28172W        W  597   4.222  35.096   2.267
28173W        W  598  41.417  36.853   4.118
28174W        W  599  16.314  19.260  13.852
28175W        W  600  18.737   9.252   1.272
28176W        W  601  11.305   0.751  10.489
28177W        W  602   2.281   7.834   1.773
28178W        W  603  18.782  33.446  12.007
28179W        W  604  28.055  39.887  11.519
28180W        W  605   0.421  11.173   3.844
28181W        W  606   3.819  44.470   9.977
28182W        W  607   9.676  21.526   2.292
28183W        W  608  31.046   5.761  11.090
28184W        W  609  13.731   0.940  14.438
28185W        W  610   2.947  23.531   1.850
28186W        W  611   2.368  11.745  11.609
28187W        W  612  41.930  42.807   3.844
28188W        W  613  16.591  32.505   9.638
28189W        W  614   4.335   1.790  10.917
28190W        W  615  13.716  38.861  14.758
28191W        W  616  39.378  39.369   2.767
28192W        W  617  27.136  43.389  14.410
28193W        W  618  44.423  19.621  13.800
28194W        W  619   3.418  11.273  14.992
28195W        W  620  33.075   3.452   4.293
28196W        W  621   6.318  44.423   2.690
28197W        W  622   6.220  39.345   1.887
28198W        W  623  42.297  36.099  14.800
28199W        W  624  15.816  22.130  10.991
28200W        W  625  15.295  30.073  11.030
28201W        W  626  44.321  14.626  13.017
28202W        W  627   6.285  17.598   4.227
28203W        W  628  16.303  44.258  14.911
28204W        W  629  12.171  17.800   2.396
28205W        W  630   1.933   3.338   2.728
28206W        W  631  40.052  29.989   4.764
28207W        W  632   9.292  13.659  10.483
28208W        W  633  43.902  31.096  10.444
28209W        W  634   9.836  35.871  12.987
28210W        W  635  20.711  38.401  11.974
28211W        W  636  25.190  26.562  12.432
28212W        W  637  44.944  42.286   3.252
28213W        W  638  39.451  27.596   4.642
28214W        W  639   0.880  33.889   4.714
28215W        W  640  34.990  33.986  14.827
28216W        W  641  11.767  21.252  13.331
28217W        W  642   3.402  36.398   4.351
28218W        W  643   0.320  20.682  11.121
28219W        W  644  12.685  42.905   3.380
28220W        W  645   6.407  18.738   0.409
28221W        W  646   9.394   7.700   0.746
28222W        W  647  28.441  22.136  12.003
28223W        W  648  35.106  34.409   5.268
28224W        W  649  33.054  11.277   0.818
28225W        W  650  17.693   1.877   4.758
28226W        W  651   7.200  19.605  10.896
28227W        W  652  26.494  27.471  12.439
28228W        W  653  15.739  35.579  11.116
28229W        W  654   5.238   6.271  13.420
28230W        W  655  31.586   6.879   1.859
28231W        W  656  15.812  14.222  14.333
28232W        W  657   1.804  30.478   4.698
28233W        W  658  34.921  11.279  10.529
28234W        W  659  34.915  26.616   4.672
28235W        W  660   5.727  41.969   1.880
28236W        W  661  20.069  11.755   3.263
28237W        W  662  23.111  15.618   9.921
28238W        W  663  12.638  30.624   1.781
28239W        W  664  44.465   1.817   0.332
28240W        W  665  32.118  40.953   3.856
28241W        W  666  36.008  27.148  12.910
28242W        W  667  23.154   1.860   4.207
28243W        W  668  22.224  30.476   1.262
28244W        W  669  19.604  13.218   1.908
28245W        W  670  33.393  15.315   4.121
28246W        W  671  12.814  17.221  11.917
28247W        W  672  23.231   6.888  13.353
28248W        W  673  20.528  29.955   0.823
28249W        W  674  23.604  11.338   4.195
28250W        W  675  19.737  38.382  11.932
28251W        W  676   9.688  42.821   4.348
28252W        W  677  37.544  10.277  11.030
28253W        W  678  38.534  23.044  14.798
28254W        W  679  22.524   1.240   0.872
28255W        W  680  37.399  43.287  12.886
28256W        W  681  30.075  32.914   0.328
28257W        W  682   4.359  18.701   4.657
28258W        W  683  41.474  44.864  10.419
28259W        W  684  36.498  12.115   3.260
28260W        W  685  11.200  43.286   4.681
28261W        W  686  39.424  14.242   3.814
28262W        W  687  44.955  28.934  13.979
28263W        W  688  34.403  17.596  14.291
28264W        W  689  11.163   5.870  10.427
28265W        W  690   8.799  22.163   0.475
28266W        W  691  44.002  24.499  14.321
28267W        W  692  38.041  14.598  11.012
28268W        W  693  23.049   6.276   3.323
28269W        W  694  40.380  28.015  14.304
28270W        W  695   8.661  43.419  12.830
28271W        W  696  35.402  29.025   0.462
28272W        W  697  31.517  42.458   2.759
28273W        W  698  14.290  30.993  12.345
28274W        W  699  38.013  21.611   4.276
28275W        W  700  18.693  26.650   1.365
28276W        W  701  41.022   6.328   3.233
28277W        W  702  28.178  21.555   2.688
28278W        W  703  27.516  44.342   1.422
28279W        W  704  27.027  18.221   5.193
28280W        W  705  23.550  21.700   3.232
28281W        W  706  10.346  17.079  10.934
28282W        W  707  21.620  32.998  10.919
28283W        W  708  13.679  30.107   3.231
28284W        W  709  12.334  32.567   0.732
28285W        W  710  40.026  32.618   4.262
28286W        W  711  15.655  35.428  13.798
28287W        W  712  15.217  22.998   2.289
28288W        W  713  13.783   2.951   3.632
28289W        W  714  20.765  31.633  11.560
28290W        W  715  22.695   0.357  12.431
28291W        W  716  24.099   9.729  13.471
28292W        W  717  35.594  17.116  10.987
28293W        W  718   3.305  23.597  10.990
28294W        W  719  11.273   4.364   4.214
28295W        W  720  43.409  25.631  14.812
28296W        W  721  14.189  31.142   0.442
28297W        W  722  12.275   2.724  12.994
28298W        W  723  32.893   8.885   1.366
28299W        W  724   5.293  17.787  14.822
28300W        W  725  39.550  24.529  11.559
28301W        W  726  12.152   5.743   2.362
28302W        W  727  37.372  27.981  13.352
28303W        W  728  35.549  31.039   4.149
28304W        W  729  26.562   5.224  12.353
28305W        W  730  20.208  23.114   0.325
28306W        W  731   9.339  24.696   2.224
28307W        W  732  20.736  35.031   2.316
28308W        W  733  32.039  21.680  13.897
28309W        W  734  15.189   7.795   4.211
28310W        W  735  34.426   2.883  11.491
28311W        W  736  23.524  12.165  12.021
28312W        W  737  28.437  14.817   4.788
28313W        W  738  40.939  20.742   4.708
28314W        W  739  40.834  36.914   1.756
28315W        W  740  16.779  13.640  14.784
28316W        W  741  32.970  12.659   4.703
28317W        W  742  21.226  43.488   3.713
28318W        W  743  33.905   7.794  13.880
28319W        W  744  31.547  15.315  11.114
28320W        W  745  22.577  29.472  14.466
28321W        W  746  31.582  24.511  13.817
28322W        W  747   8.782  15.242  12.435
28323W        W  748  17.257  36.490   5.215
28324W        W  749  14.150  12.733   2.773
28325W        W  750  32.952   8.878   4.310
28326W        W  751  13.633  44.359   2.830
28327W        W  752  11.741  13.703   4.330
28328W        W  753   7.345  21.069  11.581
28329W        W  754  26.566  17.163  12.952
28330W        W  755  31.932  27.941  13.937
28331W        W  756   7.406  10.210   3.758
28332W        W  757  22.654  25.123   4.749
28333W        W  758   6.773  37.919  11.885
28334W        W  759  42.424  11.632  10.554
28335W        W  760  24.085   5.719   2.671
28336W        W  761  30.974  43.350   0.870
28337W        W  762  23.540  34.940  11.006
28338W        W  763  39.925  23.240  14.939
28339W        W  764  38.837  43.877   2.673
28340W        W  765  18.142  10.720   2.255
28341W        W  766  17.081  33.074   3.187
28342W        W  767  36.841  43.919   0.872
28343W        W  768  29.625   1.322  10.604
28344W        W  769  14.194  34.450  13.002
28345W        W  770  26.562  27.524   2.328
28346W        W  771  39.856  21.238   1.429
28347W        W  772   9.753  33.988   3.359
28348W        W  773  29.059  15.082  14.928
28349W        W  774  17.584  33.547   3.281
28350W        W  775   9.161  24.194   4.352
28351W        W  776  32.132  28.500   0.402
28352W        W  777  35.067  18.568  10.971
28353W        W  778   3.360  40.849   0.751
28354W        W  779  44.849   6.330   4.320
28355W        W  780  44.442   8.214   2.261
28356W        W  781  11.340  16.673  13.059
28357W        W  782  37.400   1.249   2.359
28358W        W  783  41.333  19.158   4.242
28359W        W  784   9.795  36.071   4.625
28360W        W  785  17.794  30.091   0.336
28361W        W  786  44.301  12.780   5.123
28362W        W  787  27.455  10.857   0.382
28363W        W  788  26.573  26.184  11.872
28364W        W  789  28.991   8.718  12.042
28365W        W  790  35.373   0.435   2.800
28366W        W  791  42.841  14.170  14.819
28367W        W  792  17.159  14.196  12.575
28368W        W  793  16.645   5.383   4.820
28369W        W  794  42.833  18.221  10.461
28370W        W  795   3.717  17.089  10.001
28371W        W  796  36.981  11.299   0.912
28372W        W  797  18.580  21.598  13.486
28373W        W  798  12.830  25.084   0.424
28374W        W  799  42.827  23.684  10.555
28375W        W  800  36.503  17.221  12.419
28376W        W  801   3.901  28.516  10.625
28377W        W  802  20.563   5.278   1.311
28378W        W  803  14.323   0.448  10.618
28379W        W  804  20.714  14.601  14.832
28380W        W  805  18.571  39.428  11.388
28381W        W  806  28.499  42.875   0.899
28382W        W  807   1.809   1.956  11.044
28383W        W  808  42.479  44.833   0.901
28384W        W  809  23.519  35.515   4.659
28385W        W  810  24.655   0.481   2.802
28386W        W  811  29.534  17.167  10.899
28387W        W  812  12.299   4.765   1.271
28388W        W  813  12.805  36.584   2.288
28389W        W  814  22.527  22.670   4.642
28390W        W  815  43.781  36.054  12.905
28391W        W  816  34.904  19.052   4.196
28392W        W  817  40.389  44.776  14.348
28393W        W  818  34.045  44.873  14.443
28394W        W  819  42.895  42.876  12.834
28395W        W  820  10.785  11.327  14.285
28396W        W  821  23.517  13.105   3.181
28397W        W  822  27.504  20.651   3.348
28398W        W  823  37.968  44.928   0.321
28399W        W  824  39.054   2.291   4.232
28400W        W  825  22.207  12.303   2.211
28401W        W  826  30.571   3.240  10.134
28402W        W  827   5.247  24.592   0.404
28403W        W  828  24.480  30.474   5.656
28404W        W  829  44.785  33.390   1.809
28405W        W  830  22.506  32.531  10.893
28406W        W  831  23.629  29.593  11.512
28407W        W  832  14.149  24.017   3.215
28408W        W  833  16.110   1.831  10.512
28409W        W  834   1.750  22.112   3.325
28410W        W  835  22.708  38.831   3.674
28411W        W  836  28.516   6.839   0.276
28412W        W  837  19.124  20.260   3.636
28413W        W  838   3.767  29.031   5.221
28414W        W  839  28.672  13.621  11.378
28415W        W  840  12.292  34.567   2.263
28416W        W  841   1.909  26.186   3.323
28417W        W  842  12.254  35.025   0.738
28418W        W  843  19.764   1.293  12.895
28419W        W  844  22.689  26.204   3.825
28420W        W  845  29.531   3.762  11.547
28421W        W  846  19.593  42.843   4.722
28422W        W  847  32.633  39.430   3.791
28423W        W  848  24.691  13.172  12.511
28424W        W  849   9.719  19.538   0.274
28425W        W  850  31.588  14.153  13.386
28426W        W  851   8.790   5.226   3.780
28427W        W  852   4.906  12.830   1.292
28428W        W  853  20.651   0.929   2.310
28429W        W  854  31.415  42.435  11.938
28430W        W  855  33.434  43.948  14.353
28431W        W  856  40.850  15.806  11.582
28432W        W  857  28.671  44.434   1.339
28433W        W  858   0.421  25.585  11.501
28434W        W  859  28.533   4.359  11.428
28435W        W  860  42.525   2.286  11.608
28436W        W  861  35.961   8.384   2.836
28437W        W  862  38.386   7.242  10.408
28438W        W  863  33.095  15.786  10.996
28439W        W  864   2.961   5.739  11.971
28440W        W  865  19.683  27.511  13.971
28441W        W  866  27.940  24.660  10.989
28442W        W  867   5.921   7.894   2.732
28443W        W  868   0.808  42.973   1.796
28444W        W  869  24.995  23.708  11.428
28445W        W  870  32.611  41.357  11.377
28446W        W  871  38.463  26.630   0.406
28447W        W  872  13.601  43.318   1.898
28448W        W  873   5.734  15.102  11.489
28449W        W  874  36.410   1.870  13.953
28450W        W  875  20.627  19.127  12.951
28451W        W  876   3.908  34.015  13.838
28452W        W  877  27.178  34.102  10.592
28453W        W  878  10.149  33.477   1.402
28454W        W  879  44.495   5.931   3.825
28455W        W  880  28.574   5.219   4.183
28456W        W  881  32.009  21.227   0.774
28457W        W  882  36.873  36.517  14.421
28458W        W  883  14.799   7.404   1.287
28459W        W  884  38.499  16.189  10.511
28460W        W  885  36.070  30.470   0.342
28461W        W  886  36.938  23.006   0.879
28462W        W  887  16.780  18.718  12.941
28463W        W  888  25.050  24.625  14.981
28464W        W  889   4.439  27.672   4.139
28465W        W  890  16.111  18.050   4.643
28466W        W  891  32.452  44.866  13.459
28467W        W  892  24.603  39.486   1.324
28468W        W  893  12.146  15.156  10.556
28469W        W  894  29.988   8.841  13.802
28470W        W  895   4.420  24.055  11.447
28471W        W  896  22.089  12.732   4.204
28472W        W  897   5.908  38.547  11.022
28473W        W  898  12.846  10.758  11.589
28474W        W  899   9.676  11.771   1.294
28475W        W  900  31.112   0.828   2.842
28476W        W  901  18.066  20.267  13.495
28477W        W  902  21.708   2.787   4.330
28478W        W  903  10.679  27.690   3.689
28479W        W  904  43.316  33.562  11.873
28480W        W  905   7.703  17.154  10.500
28481W        W  906   2.905   6.257   1.752
28482W        W  907  38.432   8.167   0.249
28483W        W  908  15.697   8.661  10.517
28484W        W  909   7.186  37.570   1.233
28485W        W  910  12.265  16.162   2.760
28486W        W  911  18.197  25.152   3.814
28487W        W  912  24.150  37.928  11.092
28488W        W  913  20.107  32.449   1.436
28489W        W  914  17.567  16.748   3.804
28490W        W  915  38.432   3.335   2.245
28491W        W  916  33.059  37.532  14.443
28492W        W  917   4.283  38.821   4.291
28493W        W  918   8.844  35.497   0.481
28494W        W  919   7.372   6.921   1.742
28495W        W  920  14.753  23.652  14.798
28496W        W  921  28.959   7.677  13.963
28497W        W  922  18.143  15.125   4.717
28498W        W  923  16.573   2.949  13.968
28499W        W  924  34.002  10.276   1.778
28500W        W  925  36.523   3.258   0.413
28501W        W  926   5.236   8.895   0.246
28502W        W  927  42.827  43.832   0.456
28503W        W  928  39.904  38.488   0.918
28504W        W  929  41.939  22.714   1.760
28505W        W  930   6.343  10.746   2.191
28506W        W  931  12.254  41.313  12.492
28507W        W  932  16.264  22.183   3.278
28508W        W  933   0.861  22.540   4.792
28509W        W  934  10.227   9.387   4.612
28510W        W  935  10.187  30.007   2.271
28511W        W  936  43.335  19.130  11.079
28512W        W  937  17.559  41.494  13.800
28513W        W  938  21.684  33.531  12.035
28514W        W  939  10.354  40.531  13.355
28515W        W  940  42.789   1.318  10.426
28516W        W  941  20.090  37.041   2.222
28517W        W  942  34.121  20.563   3.677
28518W        W  943  37.451  26.053  11.565
28519W        W  944   9.759  21.238  13.944
28520W        W  945  17.594  41.372  12.096
28521W        W  946  21.580  20.070  12.541
28522W        W  947   7.289  40.513   0.905
28523W        W  948  30.063  27.097   4.757
28524W        W  949   5.759  21.095  13.414
28525W        W  950   9.302   9.868   4.288
28526W        W  951  25.148   4.383   2.324
28527W        W  952   0.777  25.525   1.308
28528W        W  953  20.746  26.136   2.242
28529W        W  954  14.335  34.118  13.969
28530W        W  955  29.027  11.715   3.822
28531W        W  956  41.018  15.247   2.787
28532W        W  957  44.501   7.353   1.861
28533W        W  958  43.416  27.147   3.374
28534W        W  959   1.782  40.412   0.469
28535W        W  960  29.545  18.557   2.843
28536W        W  961  30.455   5.897  11.465
28537W        W  962  15.312  16.726   2.340
28538W        W  963   1.842  31.048  14.354
28539W        W  964  40.343  33.030   0.867
28540W        W  965   6.771  37.849   3.220
28541W        W  966  36.563  44.988   3.825
28542W        W  967  15.237   5.757   0.366
28543W        W  968  27.038  42.801  11.017
28544W        W  969  11.679  13.312   0.838
28545W        W  970  39.327  24.014   1.876
28546W        W  971  24.536  28.505   2.217
28547W        W  972  44.311  15.292  14.515
28548W        W  973  28.165  42.513   3.369
28549W        W  974  10.666  31.038  11.007
28550W        W  975  34.068  21.114   4.220
28551W        W  976   9.709  29.614   3.669
28552W        W  977  40.522   4.308  14.020
28553W        W  978  31.551  28.597  13.027
28554W        W  979   5.800   1.345  12.488
28555W        W  980  22.727   5.881   4.753
28556W        W  981  35.075   2.922  12.958
28557W        W  982  29.041  17.211  10.922
28558W        W  983  20.043   6.341   4.224
28559W        W  984  19.667   6.812  10.976
28560W        W  985  13.283  32.438  13.829
28561W        W  986  17.563  31.441  11.896
28562W        W  987   0.282  39.439  14.474
28563W        W  988  18.668   6.375  13.960
28564W        W  989  17.621  13.649  14.812
28565W        W  990  34.486  11.132  10.421
28566W        W  991   8.334  43.454  12.014
28567W        W  992  12.351  16.211  11.539
28568W        W  993  13.243  39.324  14.308
28569W        W  994  18.084   9.765   1.387
28570W        W  995  22.611  31.574  13.533
28571W        W  996   7.820  39.481   0.437
28572W        W  997   3.853   3.914  10.425
28573W        W  998  39.000  18.579   1.301
28574W        W  999  36.392  42.402  12.549
28575W        W 1000  42.012  43.308   0.316
28576W        W 1001  14.165   9.236  13.469
28577W        W 1002  36.953  11.687  13.994
28578W        W 1003  15.754   8.749   4.745
28579W        W 1004  10.249  24.517   1.341
28580W        W 1005   6.920  21.544  11.050
28581W        W 1006  33.415  15.323   0.466
28582W        W 1007   9.847   8.704  13.526
28583W        W 1008  32.414  11.133  11.381
28584W        W 1009  41.967  13.346   3.688
28585W        W 1010  26.635  17.183  10.975
28586W        W 1011   3.251  35.545   0.469
28587W        W 1012  33.944  44.853  12.560
28588W        W 1013  18.636  24.590  14.784
28589W        W 1014   5.266  30.014   0.377
28590W        W 1015   5.921  22.030   1.854
28591W        W 1016  25.503  15.731   0.425
28592W        W 1017  35.011  21.540   4.342
28593W        W 1018  24.226   4.897  13.341
28594W        W 1019  39.948  27.633   2.264
28595W        W 1020   8.351  22.133  14.387
28596W        W 1021  18.598  11.162  12.932
28597W        W 1022   7.686  26.474   1.931
28598W        W 1023  12.667   8.835   3.712
28599W        W 1024  36.992   4.898  12.402
28600W        W 1025  30.051   9.149   0.258
28601W        W 1026  27.660  40.538  14.471
28602W        W 1027  16.125   1.436   2.862
28603W        W 1028  21.257  33.380   4.167
28604W        W 1029  31.550  14.638   0.904
28605W        W 1030  40.888  39.395   1.438
28606W        W 1031  10.860  10.794   2.772
28607W        W 1032  33.474  22.602   2.377
28608W        W 1033  11.679   1.860  14.971
28609W        W 1034  33.940  17.239  12.441
28610W        W 1035  27.943  38.933   3.672
28611W        W 1036  17.149  16.138  11.527
28612W        W 1037   9.267   6.800  10.975
28613W        W 1038  20.049   5.892   2.269
28614W        W 1039  12.118  20.198  14.937
28615W        W 1040  40.463  38.441  11.446
28616W        W 1041  12.361  31.643  14.470
28617W        W 1042   4.781  29.577  13.463
28618W        W 1043   8.865  22.640   5.203
28619W        W 1044  39.520  38.406  10.888
28620W        W 1045  25.541  43.805  11.860
28621W        W 1046  39.366   2.826  11.424
28622W        W 1047  34.011  23.108   4.316
28623W        W 1048  35.062   3.446   3.779
28624W        W 1049   4.843  26.634  10.980
28625W        W 1050   0.285  38.877  12.409
28626W        W 1051  34.057   0.458  11.534
28627W        W 1052  12.332  42.527   0.763
28628W        W 1053  10.275  23.521  10.631
28629W        W 1054  15.641  11.673   1.907
28630W        W 1055  13.104  17.630   3.763
28631W        W 1056  15.167  13.115  10.503
28632W        W 1057  33.913   8.374   1.267
28633W        W 1058   7.887  23.220  13.911
28634W        W 1059  24.203  31.054  11.035
28635W        W 1060   0.404  42.407   0.451
28636W        W 1061  11.129   1.463   4.685
28637W        W 1062  25.147  35.859  10.521
28638W        W 1063  23.189   2.350  13.423
28639W        W 1064  34.921  21.205  12.458
28640W        W 1065  34.987  34.605   0.279
28641W        W 1066  14.284   6.259  12.979
28642W        W 1067  20.274  40.478   3.216
28643W        W 1068  16.294  20.697   4.156
28644W        W 1069  41.442  44.000   4.660
28645W        W 1070  43.010  21.134   1.418
28646W        W 1071   4.413  43.331   4.325
28647W        W 1072  37.405  26.054  14.927
28648W        W 1073   2.400  39.008  13.356
28649W        W 1074  13.122  29.036   1.773
28650W        W 1075  34.592  24.526  13.325
28651W        W 1076   1.791  40.474  14.476
28652W        W 1077  20.243  37.573   1.891
28653W        W 1078  18.629  34.538   4.786
28654W        W 1079  19.684  11.835  10.494
28655W        W 1080   3.893  37.977  13.975
28656W        W 1081  43.977  24.613   0.351
28657W        W 1082  23.683   2.313  11.960
28658W        W 1083  31.083  21.137   2.376
28659W        W 1084   6.863  12.179   4.723
28660W        W 1085  32.056  17.621   0.817
28661W        W 1086  10.716  31.900  10.922
28662W        W 1087   3.325   7.206   1.707
28663W        W 1088  29.478  22.047  11.463
28664W        W 1089  12.819   7.233   2.740
28665W        W 1090  21.208  44.403  11.111
28666W        W 1091  41.034  35.896   1.415
28667W        W 1092   3.409  36.354  12.024
28668W        W 1093   6.396  10.743  13.060
28669W        W 1094  30.974  28.039   0.736
28670W        W 1095  44.754  28.538  10.632
28671W        W 1096  40.459  10.879  13.929
28672W        W 1097  23.106  39.547   2.900
28673W        W 1098  44.777   0.313   4.153
28674W        W 1099  29.951  18.770   4.163
28675W        W 1100   7.183  20.580  10.942
28676W        W 1101  19.177  44.433   3.705
28677W        W 1102  30.096   3.313   0.365
28678W        W 1103   7.378  30.550   4.802
28679W        W 1104  12.794  39.063   1.261
28680W        W 1105  11.371  17.267   2.379
28681W        W 1106  43.850  40.907   3.738
28682W        W 1107  29.621  36.059   3.660
28683W        W 1108  28.563   3.272   2.235
28684W        W 1109   6.701  23.186   0.391
28685W        W 1110  31.447  32.010   0.852
28686W        W 1111  40.852   4.874   2.419
28687W        W 1112   4.929  35.585   9.987
28688W        W 1113  21.520  43.899  14.015
28689W        W 1114   8.678  26.999   3.786
28690W        W 1115   9.886  38.432  13.885
28691W        W 1116   6.428  17.750   2.313
28692W        W 1117   8.828  12.341  11.452
28693W        W 1118  12.750  30.079  12.905
28694W        W 1119   2.755  18.124   2.735
28695W        W 1120  14.170  29.649   1.427
28696W        W 1121   6.266  37.885   1.233
28697W        W 1122   7.674  32.056  13.874
28698W        W 1123   8.380  31.531   3.664
28699W        W 1124  23.699  19.745   3.718
28700W        W 1125  34.120   2.721   4.633
28701W        W 1126  17.258  19.637   3.197
28702W        W 1127  22.083  21.691   2.324
28703W        W 1128  14.721  37.403   2.217
28704W        W 1129  42.003  14.299   3.710
28705W        W 1130   2.275  15.322   3.183
28706W        W 1131   2.936  37.903  10.603
28707W        W 1132   8.878   0.314   1.292
28708W        W 1133   2.258   2.945   3.212
28709W        W 1134   8.398  22.035   4.291
28710W        W 1135  23.177  28.614  12.555
28711W        W 1136  25.076  17.087   1.406
28712W        W 1137  35.497  11.324   2.352
28713W        W 1138   3.874  14.218   3.156
28714W        W 1139  40.522   5.351   4.836
28715W        W 1140   9.694  20.576  11.592
28716W        W 1141  44.758  23.732   0.806
28717W        W 1142  11.680  28.638  13.993
28718W        W 1143  12.224  17.761  12.562
28719W        W 1144  42.976  23.525   2.212
28720W        W 1145   6.340  29.128   0.404
28721W        W 1146  32.127  13.285  14.966
28722W        W 1147  37.475  15.136  12.063
28723W        W 1148  30.981  31.559  10.901
28724W        W 1149  44.826   2.732  13.048
28725W        W 1150  36.421  44.888  12.092
28726W        W 1151  26.022   7.813  10.607
28727W        W 1152  39.948  15.656  12.566
28728W        W 1153  21.077  25.669   3.196
28729W        W 1154   6.227  40.018  10.545
28730W        W 1155  28.633  30.936   2.733
28731W        W 1156  22.195   3.884  14.322
28732W        W 1157  18.553  34.521   0.780
28733W        W 1158  25.478  11.130  11.426
28734W        W 1159  15.328  43.453  13.923
28735W        W 1160   3.422   7.337   3.192
28736W        W 1161  33.912  31.513   1.695
28737W        W 1162  29.665  41.026   0.855
28738W        W 1163  24.517  40.930   3.188
28739W        W 1164  28.462  20.204   0.820
28740W        W 1165  25.190  16.149   2.398
28741W        W 1166  22.209  40.045   4.227
28742W        W 1167   7.410   1.252   1.419
28743W        W 1168  13.825  29.923   2.357
28744W        W 1169  41.994   1.475  10.561
28745W        W 1170  24.645  25.613   1.743
28746W        W 1171  30.074   7.411  14.285
28747W        W 1172  32.557  32.139   2.866
28748W        W 1173  32.405  23.607   2.725
28749W        W 1174  20.169  10.860  12.467
28750W        W 1175   0.863  29.053   4.787
28751W        W 1176  35.018  29.516   4.194
28752W        W 1177  23.079  32.592   3.684
28753W        W 1178  12.240  12.258   0.309
28754W        W 1179   9.733  32.930   4.674
28755W        W 1180  43.440   7.349  14.468
28756W        W 1181  35.994   2.393  10.519
28757W        W 1182  24.010   2.301  14.797
28758W        W 1183  37.049  16.780  14.298
28759W        W 1184   9.285  29.094   1.434
28760W        W 1185  35.533  13.195   4.348
28761W        W 1186   0.849  36.550  10.996
28762W        W 1187  43.891  41.844   4.676
28763W        W 1188  19.765   8.665  12.366
28764W        W 1189   6.918  39.431  12.523
28765W        W 1190   3.812  22.635   0.374
28766W        W 1191  12.806   5.760  14.024
28767W        W 1192   5.806  40.889   0.453
28768W        W 1193  41.403  22.167  13.973
28769W        W 1194   4.882  25.992   4.153
28770W        W 1195  14.628  26.638  14.274
28771W        W 1196   3.724  44.866   4.739
28772W        W 1197  23.224  10.661  14.988
28773W        W 1198  35.375  40.355  11.988
28774W        W 1199  38.363  44.348   1.387
28775W        W 1200  42.873  42.857  14.398
28776W        W 1201   5.720   2.410   4.622
28777W        W 1202  20.183  32.934  14.780
28778W        W 1203   1.916  16.229   1.827
28779W        W 1204  20.762  22.070  12.376
28780W        W 1205  23.224  37.352   3.822
28781W        W 1206  28.088  13.715   0.769
28782W        W 1207  10.343   9.168  13.823
28783W        W 1208  28.665   6.308  14.948
28784W        W 1209  30.425  16.197  13.524
28785W        W 1210   4.721  42.852  12.411
28786W        W 1211  13.797  40.884   3.153
28787W        W 1212   8.163  30.048   4.213
28788W        W 1213  30.547   8.170   3.146
28789W        W 1214  27.499  39.945   3.190
28790W        W 1215  35.588  24.111   2.879
28791W        W 1216  12.708  27.568   4.192
28792W        W 1217   7.878   0.778   0.808
28793W        W 1218   3.414   6.367  10.893
28794W        W 1219  36.471  10.759   0.418
28795W        W 1220  16.655  34.118  10.022
28796W        W 1221  18.091   6.386  14.313
28797W        W 1222  20.546  26.459   1.250
28798W        W 1223  40.797  42.999   2.797
28799W        W 1224  10.713  18.269   1.905
28800W        W 1225  21.671   5.352   1.857
28801W        W 1226  15.823  36.540  11.077
28802W        W 1227  33.937  17.226  10.480
28803W        W 1228  26.162   4.930   2.855
28804W        W 1229  31.500  39.502   2.710
28805W        W 1230  41.017  34.427   3.219
28806W        W 1231  31.448  33.587   3.244
28807W        W 1232  18.769  14.258  14.984
28808W        W 1233  44.829  13.109  14.321
28809W        W 1234  44.937  24.610   1.301
28810W        W 1235  34.371  21.209  11.903
28811W        W 1236   9.810  22.194  11.407
28812W        W 1237  28.032   1.251   1.750
28813W        W 1238  32.942  10.212  10.442
28814W        W 1239  14.826  26.123  12.035
28815W        W 1240   6.874   3.938  14.960
28816W        W 1241  34.031  11.703  13.542
28817W        W 1242  41.821   8.264   0.355
28818W        W 1243  21.183  36.552   2.794
28819W        W 1244  22.685  25.498   2.873
28820W        W 1245   4.926   2.745  10.131
28821W        W 1246  43.838  19.577  10.155
28822W        W 1247   5.308  21.220  10.134
28823W        W 1248   2.833  22.725  14.443
28824W        W 1249   9.250  34.573  13.015
28825W        W 1250  20.268  10.721   2.232
28826W        W 1251  41.425  20.560  14.009
28827W        W 1252  12.758  17.661   2.376
28828W        W 1253  35.380  11.651  14.919
28829W        W 1254  27.096   6.198  14.307
28830W        W 1255  29.432  44.489  14.951
28831W        W 1256   5.759   5.328   3.257
28832W        W 1257  20.600  13.670   1.873
28833W        W 1258   5.692  21.657  12.925
28834W        W 1259   4.788  26.562  13.524
28835W        W 1260  27.188  43.501  12.540
28836W        W 1261  42.300   4.944  11.587
28837W        W 1262  13.200  34.988   4.251
28838W        W 1263  40.381  11.718  10.625
28839W        W 1264  41.807  30.601   4.780
28840W        W 1265  24.202  40.386  10.558
28841W        W 1266  10.739  29.561   1.921
28842W        W 1267  21.053  36.922   2.233
28843W        W 1268  14.102  44.782  14.963
28844W        W 1269  19.111  12.160  10.600
28845W        W 1270  28.528  38.521   3.173
28846W        W 1271  30.048   9.394   4.685
28847W        W 1272  33.075  18.601   1.277
28848W        W 1273  17.176   2.461   4.213
28849W        W 1274  15.300   4.772   0.814
28850W        W 1275  28.166  21.619  11.569
28851W        W 1276   6.833  36.079   2.280
28852W        W 1277  14.282   4.253   4.205
28853W        W 1278  32.556   0.953  14.841
28854W        W 1279  31.924  30.587   0.269
28855W        W 1280   2.892  39.348  12.079
28856W        W 1281   6.863  24.540   4.239
28857W        W 1282  35.943  29.551  11.595
28858W        W 1283   4.368  23.658   2.723
28859W        W 1284  19.642  31.076  14.986
28860W        W 1285  29.953  21.168   0.375
28861W        W 1286  13.180  36.438  10.913
28862W        W 1287  28.063   7.691   3.788
28863W        W 1288  29.995  29.559   2.340
28864W        W 1289  31.953  41.889  11.488
28865W        W 1290   1.806  44.942   2.825
28866W        W 1291  18.176  19.280  11.977
28867W        W 1292  30.430   8.898  14.855
28868W        W 1293  12.822  20.069  14.358
28869W        W 1294   2.886  25.076  12.437
28870W        W 1295  32.085  10.295  12.372
28871W        W 1296   4.715  16.728   4.817
28872W        W 1297  40.013  44.991   2.264
28873W        W 1298  34.022  43.376  14.806
28874W        W 1299   9.155   6.757   0.937
28875W        W 1300  44.832  23.658   4.600
28876W        W 1301  22.050   9.192   9.964
28877W        W 1302  41.789   4.302   3.856
28878W        W 1303  36.487  28.098  10.996
28879W        W 1304   1.303  36.532  13.960
28880W        W 1305  15.086  23.490  13.491
28881W        W 1306  15.225  29.662   0.784
28882W        W 1307  26.058  38.910  11.943
28883W        W 1308   6.255  22.126   2.840
28884W        W 1309  34.965  41.907  13.927
28885W        W 1310  40.997  21.687  11.999
28886W        W 1311  24.647  40.045  13.355
28887W        W 1312  11.295   9.737   0.887
28888W        W 1313  14.599   9.873  10.619
28889W        W 1314  36.995   9.224  11.108
28890W        W 1315  41.004  43.936   3.693
28891W        W 1316  43.380  22.665  14.929
28892W        W 1317   0.876  36.456   0.436
28893W        W 1318   6.850  26.668   4.150
28894W        W 1319  22.669  38.326   1.841
28895W        W 1320   4.383  15.089   1.346
28896W        W 1321  13.231  42.307   4.218
28897W        W 1322   7.887  19.116  13.387
28898W        W 1323  20.710  28.070  11.512
28899W        W 1324   9.683   6.421  13.524
28900W        W 1325  36.582  25.127   1.832
28901W        W 1326  25.498  11.236  10.999
28902W        W 1327  23.181  10.166   1.278
28903W        W 1328  19.174   1.470  11.861
28904W        W 1329  37.872  16.580  14.511
28905W        W 1330  34.489   9.852   3.337
28906W        W 1331  20.148  44.320  12.025
28907W        W 1332   8.200  16.799   2.225
28908W        W 1333   9.201  14.658   3.721
28909W        W 1334  21.253  29.670   1.270
28910W        W 1335   2.725   1.341   3.382
28911W        W 1336  24.613  43.837   0.371
28912W        W 1337  40.502  31.611   4.783
28913W        W 1338  36.987   3.787  12.423
28914W        W 1339   7.251  18.731  14.815
28915W        W 1340   9.694   4.271  10.912
28916W        W 1341  24.981  23.580   0.338
28917W        W 1342   5.919   3.378   3.240
28918W        W 1343   3.915  14.598   4.203
28919W        W 1344  27.674  18.182   3.371
28920W        W 1345  25.088  23.610  13.475
28921W        W 1346  19.207  23.064   2.759
28922W        W 1347  18.193  40.436  12.033
28923W        W 1348  40.364   3.720  10.471
28924W        W 1349  36.535  33.538  13.937
28925W        W 1350  17.305  41.965  11.946
28926W        W 1351   4.368  13.154   0.941
28927W        W 1352  28.137  38.518  12.536
28928W        W 1353  37.458  20.223  10.460
28929W        W 1354  39.560   5.870  13.442
28930W        W 1355  15.775  21.676   0.883
28931W        W 1356  38.363  34.006  12.348
28932W        W 1357  13.805  15.290  14.794
28933W        W 1358  33.592  40.508  11.012
28934W        W 1359   1.968  34.880   1.274
28935W        W 1360  30.501  15.267   2.821
28936W        W 1361   4.361  42.953  11.110
28937W        W 1362  33.418   6.733  13.524
28938W        W 1363  28.679  11.824   2.779
28939W        W 1364  42.408  20.659   4.682
28940W        W 1365  23.581   8.694  10.549
28941W        W 1366  15.144   9.853  10.907
28942W        W 1367  11.202  29.487   3.655
28943W        W 1368  28.931  32.426   0.732
28944W        W 1369  34.973  33.526  14.988
28945W        W 1370  26.205  20.537  14.850
28946W        W 1371  40.319  28.463  13.965
28947W        W 1372  24.554  41.477   3.851
28948W        W 1373  12.809   9.189   1.300
28949W        W 1374   3.270  26.573  11.477
28950W        W 1375  33.087  18.737   3.219
28951W        W 1376  34.116  20.753  11.429
28952W        W 1377  11.858  35.530   1.709
28953W        W 1378  32.537  22.215   1.836
28954W        W 1379  38.038   0.347   4.338
28955W        W 1380  27.987  25.590  10.546
28956W        W 1381  36.402  23.232   3.346
28957W        W 1382  36.029  33.093   4.300
28958W        W 1383  12.854  27.053  13.999
28959W        W 1384  35.011  13.299   3.361
28960W        W 1385  41.443  35.879   4.676
28961W        W 1386  31.055  21.572   4.182
28962W        W 1387   3.289   0.389   4.697
28963W        W 1388  27.585  25.111   0.371
28964W        W 1389  23.615  12.187   1.227
28965W        W 1390  36.035  43.302   0.786
28966W        W 1391  15.648  15.283   4.316
28967W        W 1392   1.854   4.742   0.411
28968W        W 1393   7.859  31.598   3.696
28969W        W 1394  24.114  42.431   0.830
28970W        W 1395  35.917  27.551   1.858
28971W        W 1396  28.039  14.621  13.352
28972W        W 1397  31.531  16.303  10.625
28973W        W 1398  38.557  31.021  11.423
28974W        W 1399   9.260  36.434  10.910
28975W        W 1400  43.435   1.331  10.627
28976W        W 1401  15.144   8.755  11.542
28977W        W 1402  31.072  35.542   1.714
28978W        W 1403  10.249  40.867  12.933
28979W        W 1404  29.462   3.401  11.084
28980W        W 1405  34.939  27.950   3.795
28981W        W 1406  37.449  29.527   3.765
28982W        W 1407  44.953  44.286   4.183
28983W        W 1408  28.492  19.207   2.352
28984W        W 1409  24.558  16.676  10.958
28985W        W 1410  18.685  40.333  10.143
28986W        W 1411  30.627  33.880  14.357
28987W        W 1412  17.616   5.878  14.426
28988W        W 1413  35.066  17.653  13.447
28989W        W 1414  25.642  40.477   0.865
28990W        W 1415  21.186  37.369  14.327
28991W        W 1416   3.356  12.702   2.818
28992W        W 1417  17.123  11.347  13.316
28993W        W 1418   0.325  16.805   4.797
28994W        W 1419   0.409  43.022   4.346
28995W        W 1420   9.669  22.179   2.786
28996W        W 1421  15.165   7.339  14.323
28997W        W 1422  39.403   8.853  12.882
28998W        W 1423  16.159  31.617  13.047
28999W        W 1424  37.469  42.006  14.812
29000W        W 1425  35.405  26.167   3.374
29001W        W 1426   9.196  24.561   3.382
29002W        W 1427  44.925  38.996  11.856
29003W        W 1428  19.071  43.438  10.409
29004W        W 1429  31.152  33.914  11.578
29005W        W 1430   1.276  21.756  10.473
29006W        W 1431  35.031  35.979   4.267
29007W        W 1432  10.320  39.477  13.015
29008W        W 1433  36.942  37.445   2.677
29009W        W 1434   8.266  44.299  14.879
29010W        W 1435  41.514  31.490   1.317
29011W        W 1436  15.086  42.286   2.384
29012W        W 1437   5.864  19.174  11.111
29013W        W 1438   0.939  37.429  14.394
29014W        W 1439  30.649  33.567   4.294
29015W        W 1440   3.935  14.195   1.229
29016W        W 1441  15.256  29.658   0.448
29017W        W 1442  18.278  30.516   3.652
29018W        W 1443  23.622   6.190  11.512
29019W        W 1444   6.400  14.588   1.440
29020W        W 1445  21.601  17.689   4.351
29021W        W 1446  44.395  27.518  12.395
29022W        W 1447  37.963  33.506   0.261
29023W        W 1448  30.428  27.643   4.814
29024W        W 1449   2.816  38.993  12.532
29025W        W 1450  23.196  33.470  10.472
29026W        W 1451  41.890  32.962  14.906
29027W        W 1452  33.032  19.228   0.870
29028W        W 1453  30.056   1.804  11.036
29029W        W 1454  25.026  42.439  14.489
29030W        W 1455  41.533  39.893  10.487
29031W        W 1456  39.810  37.846  11.090
29032W        W 1457  12.667  13.305  11.900
29033W        W 1458   6.782  11.649   3.811
29034W        W 1459  43.350  17.286  12.493
29035W        W 1460   0.294  26.505   4.319
29036W        W 1461   4.220  40.376  13.849
29037W        W 1462  23.224   0.983  11.089
29038W        W 1463  34.075   0.367  13.356
29039W        W 1464   6.263   9.231   4.696
29040W        W 1465  33.914  27.641  10.917
29041W        W 1466   1.906   6.296   3.825
29042W        W 1467  16.580  44.465  14.859
29043W        W 1468  25.662   3.356   0.298
29044W        W 1469  25.565  31.407   0.906
29045W        W 1470  11.861   8.360   0.341
29046W        W 1471   0.369  33.541  12.480
29047W        W 1472  35.857  31.637  12.515
29048W        W 1473  29.954  39.933   2.296
29049W        W 1474   1.768  37.459  14.386
29050W        W 1475   1.456  26.691  11.378
29051W        W 1476  43.321   9.319  10.404
29052W        W 1477   2.873  15.151  13.427
29053W        W 1478  27.604  27.483  13.387
29054W        W 1479  11.843  29.924  14.781
29055W        W 1480   9.192  10.681  12.569
29056W        W 1481  38.545  31.454  12.050
29057W        W 1482   9.814  32.543  13.349
29058W        W 1483  20.722  32.962   1.239
29059W        W 1484   4.887   5.781   3.683
29060W        W 1485  32.979  35.456  11.118
29061W        W 1486  23.511  39.032  14.280
29062W        W 1487  21.574  14.651   1.276
29063W        W 1488   2.456  42.848  14.408
29064W        W 1489  23.184  31.080   4.198
29065W        W 1490  10.252   5.208   1.834
29066W        W 1491   4.413  40.442  12.914
29067W        W 1492  14.148  14.733   1.380
29068W        W 1493  28.994  40.513   1.276
29069W        W 1494  20.122   7.240   4.187
29070W        W 1495  33.542  25.072  14.406
29071W        W 1496   0.882  29.585   3.166
29072W        W 1497  25.701  22.189  14.793
29073W        W 1498   7.325  38.425  11.946
29074W        W 1499  37.342  10.185   4.719
29075W        W 1500  17.639  14.331   1.896
29076W        W 1501  35.456   6.385  12.871
29077W        W 1502   5.408  28.472  10.984
29078W        W 1503  28.165  42.031  10.904
29079W        W 1504  44.812   6.327   2.332
29080W        W 1505  38.515   0.486   3.381
29081W        W 1506  37.546  35.025   2.380
29082W        W 1507   7.686  11.684  11.963
29083W        W 1508  27.581  17.679   2.213
29084W        W 1509  12.617  33.528   4.749
29085W        W 1510  26.467  35.400  12.924
29086W        W 1511   2.377  36.915  12.443
29087W        W 1512  38.005  33.980   4.185
29088W        W 1513  39.442  42.958   1.835
29089W        W 1514  18.711  44.802   1.857
29090W        W 1515  20.272  39.362  13.927
29091W        W 1516  18.144  27.635  13.993
29092W        W 1517   8.745  34.934   0.271
29093W        W 1518   8.740  37.072  11.035
29094W        W 1519  26.080   7.249   3.809
29095W        W 1520  31.035  28.576   0.348
29096W        W 1521  21.636  26.986   4.818
29097W        W 1522   8.664  34.548   3.205
29098W        W 1523  23.623  27.680   3.693
29099W        W 1524   9.349  19.171   3.840
29100W        W 1525  23.062  34.065  12.409
29101W        W 1526  25.089  22.249   4.315
29102W        W 1527  31.995   0.776   2.230
29103W        W 1528  23.643  20.247  12.401
29104W        W 1529  13.242  14.340  13.417
29105W        W 1530  11.185   9.776   0.429
29106W        W 1531  15.258   3.268  12.950
29107W        W 1532  18.153  35.475   1.228
29108W        W 1533  13.825  25.505   4.140
29109W        W 1534  10.302  20.130  10.986
29110W        W 1535  17.156  31.532  11.544
29111W        W 1536  36.987  23.988   1.394
29112W        W 1537  34.497  43.773  12.062
29113W        W 1538   7.850  25.969   2.725
29114W        W 1539  18.221  23.493   1.816
29115W        W 1540  44.767  44.800   2.689
29116W        W 1541  39.968  36.846  12.909
29117W        W 1542  17.682  26.132  11.988
29118W        W 1543  23.029  23.661  12.974
29119W        W 1544  19.052  24.526   3.634
29120W        W 1545  30.999   9.715   3.170
29121W        W 1546   6.808  23.727   1.783
29122W        W 1547   3.857  34.407  14.434
29123W        W 1548  25.659  26.027  12.907
29124W        W 1549  25.201  30.938  13.911
29125W        W 1550  44.267  30.021   2.288
29126W        W 1551  13.243   6.829   4.295
29127W        W 1552  32.570  15.221  11.397
29128W        W 1553  31.937  40.406   1.314
29129W        W 1554  40.535   6.846  10.486
29130W        W 1555  34.887  10.373   3.274
29131W        W 1556  35.370  12.153  14.867
29132W        W 1557  21.665  13.288   0.804
29133W        W 1558  37.047   1.863   2.811
29134W        W 1559  42.971   9.277  13.850
29135W        W 1560  42.943  11.197   3.705
29136W        W 1561  23.581  14.281   1.281
29137W        W 1562  43.811   7.712   4.685
29138W        W 1563   9.277   9.710  10.469
29139W        W 1564  39.529  36.092   0.348
29140W        W 1565  23.241  24.620  12.558
29141W        W 1566  29.541  36.050  13.890
29142W        W 1567  41.987  36.374   2.747
29143W        W 1568  25.496  12.751  10.156
29144W        W 1569   8.307  40.398   2.292
29145W        W 1570  28.667   0.377   1.311
29146W        W 1571  21.251  29.586   3.834
29147W        W 1572  36.357  33.951   0.297
29148W        W 1573  33.069  38.898  11.862
29149W        W 1574  32.033  16.293  12.010
29150W        W 1575  28.638   1.262  10.476
29151W        W 1576  38.052  34.898   0.408
29152W        W 1577  31.406  37.836  14.304
29153W        W 1578  24.199  40.429  14.431
29154W        W 1579  34.989  39.526  11.027
29155W        W 1580  17.640  28.964  13.819
29156W        W 1581  22.167  34.900   2.815
29157W        W 1582  33.930  18.705  11.544
29158W        W 1583   6.907  35.097   2.854
29159W        W 1584   3.280  33.555   0.908
29160W        W 1585  15.602  42.899  10.532
29161W        W 1586  15.791  44.000  10.101
29162W        W 1587   4.228  42.888   2.200
29163W        W 1588  17.785  32.480   5.190
29164W        W 1589  37.940  21.091  12.347
29165W        W 1590  37.041  26.489   1.356
29166W        W 1591  32.981  27.160   4.304
29167W        W 1592  34.615  35.549  13.473
29168W        W 1593  44.888  34.584  14.935
29169W        W 1594  42.958  30.518   0.883
29170W        W 1595  13.610  16.310  12.573
29171W        W 1596   8.738  20.254   0.475
29172W        W 1597  24.684  16.235   4.174
29173W        W 1598  35.956   2.796  12.063
29174W        W 1599  14.597   7.688   0.912
29175W        W 1600   9.372  23.048  13.449
29176W        W 1601  23.082  37.378  11.964
29177W        W 1602  21.699   1.446   3.294
29178W        W 1603  38.491  28.961   1.818
29179W        W 1604  16.610  20.715   3.279
29180W        W 1605  26.982  27.660   3.660
29181W        W 1606  44.942   1.311  12.498
29182W        W 1607  28.126  25.117  10.504
29183W        W 1608  19.734   0.308  11.867
29184W        W 1609   5.400   9.262   4.626
29185W        W 1610   5.803  42.523   1.795
29186W        W 1611   4.209   7.809   1.352
29187W        W 1612   9.669  41.313  12.021
29188W        W 1613   2.256  28.600   2.274
29189W        W 1614  25.704  26.078   3.155
29190W        W 1615  24.554   9.878  10.571
29191W        W 1616  15.289  34.945  11.081
29192W        W 1617  36.397  18.176   4.606
29193W        W 1618  38.916  38.054  13.518
29194W        W 1619  39.350  24.725  10.562
29195W        W 1620  26.086  12.675  14.493
29196W        W 1621  43.980  30.620  13.471
29197W        W 1622  24.624  25.585   3.780
29198W        W 1623  18.573   0.494  12.970
29199W        W 1624  16.634  34.432  12.580
29200W        W 1625  16.587  21.191  14.364
29201W        W 1626  29.032  21.562   3.379
29202W        W 1627   4.795  36.907  12.005
29203W        W 1628  40.355   5.855   0.749
29204W        W 1629  43.354  37.491   4.290
29205W        W 1630  20.554  11.155  12.517
29206W        W 1631  29.078   6.761   4.819
29207W        W 1632  34.974  14.241   2.179
29208W        W 1633  35.108  30.550  12.087
29209W        W 1634  44.479  11.835  11.056
29210W        W 1635  21.674  30.941  10.425
29211W        W 1636  39.914  37.369   0.243
29212W        W 1637  12.262  11.151   2.837
29213W        W 1638  39.040  37.449   3.203
29214W        W 1639  30.455   5.701   2.203
29215W        W 1640  23.205  40.307  12.095
29216W        W 1641  36.590  19.733   3.360
29217W        W 1642  26.503  12.704  14.964
29218W        W 1643  14.123   8.360   0.743
29219W        W 1644  15.589  14.803  12.907
29220W        W 1645   5.257  10.313   0.882
29221W        W 1646   5.398  22.148   4.182
29222W        W 1647  14.710  25.473   2.662
29223W        W 1648  32.130  42.409  12.976
29224W        W 1649  11.754  39.847   1.797
29225W        W 1650   8.702  23.012  12.577
29226W        W 1651  43.435  31.926   2.399
29227W        W 1652  13.816  34.433  14.968
29228W        W 1653   2.927   7.723  12.859
29229W        W 1654  16.124  26.175  13.495
29230W        W 1655  38.978  10.683   1.247
29231W        W 1656  36.030   8.344  14.024
29232W        W 1657   9.379  10.223  13.829
29233W        W 1658  15.729  25.484  11.092
29234W        W 1659  41.498   9.841  11.377
29235W        W 1660  31.958  41.396  11.585
29236W        W 1661  31.013   4.846  10.089
29237W        W 1662  12.334  14.220  10.532
29238W        W 1663  23.017  19.763   1.299
29239W        W 1664  33.503  42.803  12.466
29240W        W 1665  34.994  31.590   4.299
29241W        W 1666   0.860  14.834  12.973
29242W        W 1667  25.710  14.135  12.457
29243W        W 1668  22.702   7.873   1.367
29244W        W 1669   9.155  43.512  14.340
29245W        W 1670  15.583  23.566   2.836
29246W        W 1671  16.595  43.863   2.283
29247W        W 1672  16.241  12.648   2.897
29248W        W 1673  41.850  15.203  10.919
29249W        W 1674  23.155  11.783   4.660
29250W        W 1675  20.210  42.418  11.016
29251W        W 1676   4.879  11.363  11.442
29252W        W 1677  37.539  31.545  11.014
29253W        W 1678  11.237  30.649   0.939
29254W        W 1679  30.022  14.680   2.228
29255W        W 1680  44.390  39.820  10.048
29256W        W 1681  11.310  44.996  12.341
29257W        W 1682  20.209  14.709   4.817
29258W        W 1683  33.466  13.232  12.552
29259W        W 1684  17.131  22.694   0.368
29260W        W 1685  43.271  15.089   0.921
29261W        W 1686  31.639  11.290   2.844
29262W        W 1687  21.036  28.465  10.445
29263W        W 1688  26.992   8.896   5.204
29264W        W 1689  14.729  22.521  14.786
29265W        W 1690  24.530  29.462   1.697
29266W        W 1691   6.886   4.405  10.520
29267W        W 1692  33.009  24.613   0.354
29268W        W 1693  13.635  30.537  13.937
29269W        W 1694  38.395  22.185  14.333
29270W        W 1695  11.300  20.667   1.913
29271W        W 1696  22.727  13.695   4.290
29272W        W 1697  16.684  26.044  10.475
29273W        W 1698  30.452  36.517   1.756
29274W        W 1699  12.146   3.831  11.572
29275W        W 1700  38.886   6.315  12.952
29276W        W 1701  41.020  39.016   4.329
29277W        W 1702  11.149  19.130  13.548
29278W        W 1703  15.324   5.233   2.847
29279W        W 1704  32.551  41.466  11.992
29280W        W 1705  18.778  14.241  12.410
29281W        W 1706  44.300  35.569  14.019
29282W        W 1707  33.045  19.759   2.276
29283W        W 1708  44.935   5.425   2.690
29284W        W 1709  11.285  35.964   1.246
29285W        W 1710  11.168  43.832  14.950
29286W        W 1711  30.022  39.412  12.931
29287W        W 1712  38.517  43.456   1.347
29288W        W 1713  17.780  18.152   2.752
29289W        W 1714  36.508  13.632  10.442
29290W        W 1715  22.606  30.086   2.695
29291W        W 1716  14.146  31.945  12.558
29292W        W 1717  19.195  41.809   3.201
29293W        W 1718   4.403   1.478  10.545
29294W        W 1719  28.014  11.721  13.895
29295W        W 1720  27.483  20.588   0.308
29296W        W 1721   1.420  40.907  11.907
29297W        W 1722   9.827   6.714  14.415
29298W        W 1723  37.900   1.274   3.315
29299W        W 1724  39.444  11.221   1.275
29300W        W 1725  20.139  26.980   2.380
29301W        W 1726  44.972   1.954   3.862
29302W        W 1727  26.957  35.436  12.939
29303W        W 1728  41.835  33.620  13.313
29304W        W 1729  12.223  28.510   2.800
29305W        W 1730  31.589  16.214  11.000
29306W        W 1731  31.496  32.561   2.867
29307W        W 1732  24.607  12.193   0.863
29308W        W 1733  27.971  21.168  10.064
29309W        W 1734  23.589   2.232  14.372
29310W        W 1735   2.401  11.630  12.053
29311W        W 1736   7.851   4.775  14.844
29312W        W 1737   9.772  22.675  10.414
29313W        W 1738  33.066  44.493   0.420
29314W        W 1739  36.095   4.220  10.967
29315W        W 1740  12.210  42.878   3.726
29316W        W 1741   5.222   1.336  14.798
29317W        W 1742  14.255  34.086  10.638
29318W        W 1743  21.038   7.307   2.264
29319W        W 1744   8.353  14.109  14.492
29320W        W 1745  39.465  37.405  11.522
29321W        W 1746  36.971  28.058   3.830
29322W        W 1747  14.833   5.422   1.294
29323W        W 1748  41.369  44.005  13.965
29324W        W 1749  43.294  16.269   0.816
29325W        W 1750   2.899  17.751  13.506
29326W        W 1751  19.717  21.116  11.491
29327W        W 1752  10.703   1.921  13.440
29328W        W 1753  30.581  26.042  11.945
29329W        W 1754   6.723  35.506   0.850
29330W        W 1755   4.887  22.224  11.573
29331W        W 1756  21.199  13.749  13.839
29332W        W 1757  39.416  41.369   3.710
29333W        W 1758  14.738  37.044   0.786
29334W        W 1759  30.494  17.784  11.855
29335W        W 1760  23.129  25.475  13.363
29336W        W 1761  13.260  35.564   4.627
29337W        W 1762   6.883  43.464  11.399
29338W        W 1763  10.670  24.088  10.132
29339W        W 1764  44.938   3.896   3.665
29340W        W 1765  21.061  41.432  11.048
29341W        W 1766  38.997  29.995   1.853
29342W        W 1767   8.279  41.512   3.189
29343W        W 1768   7.372  33.985  14.782
29344W        W 1769  41.533   1.468   0.879
29345W        W 1770  12.273  19.268   1.321
29346W        W 1771  23.541  18.220   1.791
29347W        W 1772  26.990  27.568  11.002
29348W        W 1773  24.074  34.417  10.508
29349W        W 1774   0.853  35.074  13.405
29350W        W 1775  34.411   2.418   0.735
29351W        W 1776  41.902   3.221   1.215
29352W        W 1777   6.420  14.295  14.903
29353W        W 1778  42.987  35.561   2.752
29354W        W 1779  16.635  17.225  11.421
29355W        W 1780  13.707  21.745  11.019
29356W        W 1781  38.063  37.886   4.246
29357W        W 1782  42.389  38.954   0.410
29358W        W 1783  31.096  41.473  11.063
29359W        W 1784  28.043  19.228  12.018
29360W        W 1785  12.200  24.716   3.321
29361W        W 1786  12.775   9.890   4.279
29362W        W 1787   4.710   8.267   1.269
29363W        W 1788  42.904  12.806  12.921
29364W        W 1789  44.855  34.590   1.229
29365W        W 1790  31.037  29.043   3.230
29366W        W 1791  21.518  31.473   2.865
29367W        W 1792  16.738  20.059   0.900
29368W        W 1793   3.754  36.984   1.401
29369W        W 1794  43.354   0.882   3.150
29370W        W 1795   9.871  42.366   1.853
29371W        W 1796  43.015  16.687   0.252
29372W        W 1797  16.076  29.466   3.752
29373W        W 1798  21.603   8.687   4.776
29374W        W 1799  25.080  38.533   0.364
29375W        W 1800  39.346  30.615   4.184
29376W        W 1801  40.459  19.284  12.074
29377W        W 1802  23.233   4.711   3.170
29378W        W 1803  19.113  12.656   0.732
29379W        W 1804  21.541  26.115  13.817
29380W        W 1805  16.187  32.957  10.468
29381W        W 1806  36.983   7.701  14.438
29382W        W 1807  12.325  44.456  13.911
29383W        W 1808  15.119  25.007  12.390
29384W        W 1809  32.004  44.357  11.543
29385W        W 1810   5.425  23.214   1.315
29386W        W 1811   3.323   7.270   4.690
29387W        W 1812  43.854  33.992  12.010
29388W        W 1813   2.886  30.605  10.950
29389W        W 1814  27.521  29.093   3.755
29390W        W 1815  39.545  32.492  10.626
29391W        W 1816   8.353  19.224   0.745
29392W        W 1817   1.789   0.830   2.276
29393W        W 1818  32.504  17.677   0.950
29394W        W 1819  15.666   6.252  10.492
29395W        W 1820  25.135  21.604  14.505
29396W        W 1821  39.332  33.017   3.265
29397W        W 1822  15.178  35.877   2.784
29398W        W 1823  41.354  28.083  14.869
29399W        W 1824  35.898   6.716   0.324
29400W        W 1825  31.622  41.861  13.354
29401W        W 1826  27.690  29.013   4.158
29402W        W 1827  15.782  12.661   0.304
29403W        W 1828  28.478  31.017   0.379
29404W        W 1829  16.097  36.866  10.899
29405W        W 1830  30.614  16.169  14.407
29406W        W 1831  41.379   1.247  12.054
29407W        W 1832  17.244   9.743  14.290
29408W        W 1833  17.780  20.144  14.954
29409W        W 1834   0.447  38.060  14.003
29410W        W 1835  32.067  14.318   0.923
29411W        W 1836  14.693  21.092  10.467
29412W        W 1837  29.926  25.491  11.074
29413W        W 1838  24.490   6.322   0.837
29414W        W 1839  33.588  25.194   1.772
29415W        W 1840  16.768  10.380  10.984
29416W        W 1841  44.809  35.885  12.979
29417W        W 1842  13.791   4.771   9.929
29418W        W 1843  13.127  30.121  12.084
29419W        W 1844  12.844  38.007  14.287
29420W        W 1845   0.986  17.289   5.105
29421W        W 1846  43.416  22.147   4.140
29422W        W 1847  44.403   2.935  13.839
29423W        W 1848   7.271  26.063  13.054
29424W        W 1849   4.903  23.612  10.486
29425W        W 1850  32.557  17.231  14.360
29426W        W 1851  33.110  13.178   1.373
29427W        W 1852  20.081  18.225  10.058
29428W        W 1853   9.836  42.785  13.896
29429W        W 1854  41.860  15.651  10.958
29430W        W 1855  27.554  17.107  11.611
29431W        W 1856  14.224   5.828  11.464
29432W        W 1857  21.637  11.133   1.349
29433W        W 1858  17.696   6.894   3.156
29434W        W 1859   9.701   8.243   1.302
29435W        W 1860  26.103  22.732  10.905
29436W        W 1861  31.469  43.810  13.901
29437W        W 1862  37.025  35.061  12.412
29438W        W 1863  26.662   4.745   1.369
29439W        W 1864  17.657  25.995   0.738
29440W        W 1865  23.656  15.595   3.754
29441W        W 1866   6.724  38.938  10.600
29442W        W 1867  32.468  12.740   4.600
29443W        W 1868  39.532   5.385   0.438
29444W        W 1869  28.058  36.510  12.455
29445W        W 1870  34.877   1.939  11.050
29446W        W 1871  36.512  27.061  13.385
29447W        W 1872  12.714  21.613  14.321
29448W        W 1873  38.464  23.647   3.180
29449W        W 1874   2.363  33.625   0.360
29450W        W 1875  29.020  33.919   2.301
29451W        W 1876  41.468  11.352   4.608
29452W        W 1877   2.734   5.908  11.447
29453W        W 1878  13.716  28.942   3.635
29454W        W 1879   7.729  37.457   1.698
29455W        W 1880  38.567  18.789  14.977
29456W        W 1881  18.248  13.727   3.737
29457W        W 1882   3.731  31.964   2.200
29458W        W 1883  33.058  24.170   4.192
29459W        W 1884  41.851  26.057  13.922
29460W        W 1885   4.373  28.086   4.300
29461W        W 1886   9.675  15.194   0.859
29462W        W 1887  11.798  34.525  12.999
29463W        W 1888   0.954  26.182  10.597
29464W        W 1889   0.823  31.970   4.732
29465W        W 1890   6.893  19.242  11.122
29466W        W 1891  40.302  11.729  11.595
29467W        W 1892  16.170  19.581   1.905
29468W        W 1893  35.584  29.438  12.359
29469W        W 1894  14.102  25.482   4.802
29470W        W 1895  31.939  12.118  13.970
29471W        W 1896  41.858  43.005  11.110
29472W        W 1897  26.564  25.469   2.690
29473W        W 1898  33.885   8.882   4.211
29474W        W 1899  42.973  32.962   1.246
29475W        W 1900   1.832  23.044  11.002
29476W        W 1901   3.944  41.439   0.319
29477W        W 1902   0.841  21.745   1.864
29478W        W 1903  31.938  10.816  12.009
29479W        W 1904  36.509   1.242   2.670
29480W        W 1905  22.054  44.345  14.837
29481W        W 1906  40.416   2.303   1.762
29482W        W 1907  32.989  41.427  14.989
29483W        W 1908  20.097  11.743  11.024
29484W        W 1909  17.602  40.520  11.037
29485W        W 1910  28.052  39.345   9.986
29486W        W 1911  26.602  38.019   0.832
29487W        W 1912  34.515  44.974   4.215
29488W        W 1913  43.805  11.154  10.479
29489W        W 1914  20.570  20.609   0.382
29490W        W 1915  12.825   0.945  11.595
29491W        W 1916  20.540  42.422  12.926
29492W        W 1917  33.111  24.187   4.759
29493W        W 1918  22.048  11.146   4.704
29494W        W 1919   3.274  29.937  14.846
29495W        W 1920   9.665  41.830   3.838
29496W        W 1921  38.353  24.032   4.321
29497W        W 1922  12.299   3.810   5.611
29498W        W 1923   8.182   3.822  11.426
29499W        W 1924  26.554  39.472  11.010
29500W        W 1925   3.351   6.913   3.176
29501W        W 1926  36.542  32.607   1.834
29502W        W 1927  20.134  18.703   4.254
29503W        W 1928   0.828   1.357   1.332
29504W        W 1929  43.333  27.973  10.104
29505W        W 1930   4.903  28.035  13.444
29506W        W 1931  11.150  19.680  12.090
29507W        W 1932  30.515  30.078  13.529
29508W        W 1933  13.123  23.690  14.477
29509W        W 1934  41.845  26.038   0.902
29510W        W 1935   5.731  30.634  11.107
29511W        W 1936  15.250   2.743   1.786
29512W        W 1937   2.904   5.407   4.261
29513W        W 1938  40.035  24.106   2.377
29514W        W 1939  16.668  40.473   1.240
29515W        W 1940  25.581  29.139  13.815
29516W        W 1941  19.591  16.072   2.821
29517W        W 1942  12.262  24.700  14.399
29518W        W 1943   1.942  10.733   4.251
29519W        W 1944  13.191  33.065   2.254
29520W        W 1945  35.376  28.044   1.897
29521W        W 1946  21.673  39.427  14.374
29522W        W 1947  28.140  43.272  14.017
29523W        W 1948  27.602  44.374  11.484
29524W        W 1949  27.187  25.008   5.238
29525W        W 1950  14.755  40.546  11.592
29526W        W 1951  34.945   0.396   1.787
29527W        W 1952  10.339  19.540  13.538
29528W        W 1953   4.936  10.310  12.071
29529W        W 1954  21.056  44.769  11.955
29530W        W 1955  36.913  35.360  13.433
29531W        W 1956   0.449  20.062   0.311
29532W        W 1957   2.759  33.081  12.531
29533W        W 1958   9.307  34.372   4.768
29534W        W 1959  37.390   6.910   4.606
29535W        W 1960  20.228  23.539   2.797
29536W        W 1961   6.409  15.163  14.852
29537W        W 1962  43.409  37.568  14.013
29538W        W 1963  44.447  25.501  13.963
29539W        W 1964   7.237  32.121   4.697
29540W        W 1965  38.331   2.785   3.150
29541W        W 1966   2.933  37.992   0.451
29542W        W 1967  20.614   4.837  11.984
29543W        W 1968  43.330  19.594  12.541
29544W        W 1969  23.191  12.257  11.866
29545W        W 1970  34.380  28.075   2.837
29546W        W 1971  25.708  15.281   3.146
29547W        W 1972  32.124  24.586  13.399
29548W        W 1973  24.227  17.094  12.828
29549W        W 1974   4.374   5.221   1.305
29550W        W 1975  44.311  29.480   2.278
29551W        W 1976  22.573  23.167   2.761
29552W        W 1977  28.036   7.884  14.883
29553W        W 1978   0.826   1.951  12.996
29554W        W 1979  26.656  16.605   0.336
29555W        W 1980  11.369   3.774   0.390
29556W        W 1981  15.812   4.295  11.103
29557W        W 1982   1.807   3.795   4.625
29558W        W 1983  28.612  34.376  10.534
29559W        W 1984  24.021  27.193  11.957
29560W        W 1985  33.074  33.532   4.770
29561W        W 1986  27.640  18.154  14.344
29562W        W 1987   8.217   2.912  11.114
29563W        W 1988  29.945  21.257  13.381
29564W        W 1989  12.729  11.195   1.253
29565W        W 1990   8.759  25.468   1.771
29566W        W 1991  16.222  22.678  12.009
29567W        W 1992  39.933  44.320   0.790
29568W        W 1993   4.814  19.155  13.386
29569W        W 1994   1.942  28.055   3.169
29570W        W 1995  12.240  38.384   0.754
29571W        W 1996  43.809  38.903  10.428
29572W        W 1997  11.783  37.970  10.643
29573W        W 1998  42.952  13.273   4.633
29574W        W 1999  20.166  20.750   2.389
29575W        W 2000  33.904  37.907  14.821
29576W        W 2001  18.639   8.169   4.803
29577W        W 2002   8.351  32.494  10.943
29578W        W 2003   0.336  22.088   4.322
29579W        W 2004  33.556  21.229  11.118
29580W        W 2005  22.021  13.249   4.694
29581W        W 2006   4.204  37.427   3.826
29582W        W 2007   8.404  26.480   3.331
29583W        W 2008  42.522  34.458   2.199
29584W        W 2009  39.463  35.497  13.800
29585W        W 2010   9.216  17.696  11.451
29586W        W 2011   9.843   6.811   0.312
29587W        W 2012   8.203   0.840  13.795
29588W        W 2013   3.887   1.465  11.891
29589W        W 2014  39.893  27.051  12.505
29590W        W 2015  22.521  31.436   1.266
29591W        W 2016  26.618  32.627   5.230
29592W        W 2017  20.573  39.445   3.171
29593W        W 2018  13.212  39.481   1.739
29594W        W 2019   4.217  14.754   3.863
29595W        W 2020  10.877  27.647  13.029
29596W        W 2021  28.613  16.134  13.516
29597W        W 2022   7.311  34.436  12.493
29598W        W 2023  44.311  26.664   0.435
29599W        W 2024  41.799  42.946   4.353
29600W        W 2025  15.306  34.460  11.087
29601W        W 2026  16.086  12.146   1.419
29602W        W 2027  10.693  30.051   4.721
29603W        W 2028  30.039  37.910   3.673
29604W        W 2029  16.599  26.029   0.880
29605W        W 2030   6.876  40.521  14.789
29606W        W 2031   5.416  25.996   0.285
29607W        W 2032  26.063  16.717  13.398
29608W        W 2033   9.880  16.280  11.555
29609W        W 2034  20.212  42.908   0.439
29610W        W 2035   2.853  37.578   0.754
29611W        W 2036  32.510   5.792   3.158
29612W        W 2037  27.620  40.822   9.499
29613W        W 2038  27.644  33.887   4.225
29614W        W 2039  27.563  40.370  11.863
29615W        W 2040  14.731  12.260  13.873
29616W        W 2041  21.713   2.794  14.435
29617W        W 2042  25.546  28.528   2.848
29618W        W 2043  34.381  16.265  10.616
29619W        W 2044  10.266  27.946   1.211
29620W        W 2045  23.540  16.706   4.797
29621W        W 2046  17.264  24.223   2.308
29622W        W 2047  30.575  18.186  13.521
29623W        W 2048   3.878  40.963   2.231
29624W        W 2049  22.562  32.400  11.444
29625W        W 2050   8.845   3.238  11.064
29626W        W 2051   4.730  32.928  14.950
29627W        W 2052  42.826  41.996   2.695
29628W        W 2053  14.120  21.742   4.636
29629W        W 2054  23.544  11.662   3.847
29630W        W 2055  18.156  11.138  12.362
29631W        W 2056   0.323  39.036   0.726
29632W        W 2057  33.904   7.714   2.408
29633W        W 2058  12.773  41.925   4.729
29634W        W 2059  34.099   2.750   0.964
29635W        W 2060  10.304  35.412  13.926
29636W        W 2061   1.277   6.865  11.484
29637W        W 2062  15.120  37.543   1.442
29638W        W 2063  40.367  44.954   1.449
29639W        W 2064  14.181  29.988  10.637
29640W        W 2065  16.587  14.123   1.738
29641W        W 2066  19.227  38.386   4.728
29642W        W 2067  37.011  11.242   0.423
29643W        W 2068  10.767   8.689   0.803
29644W        W 2069  31.582  36.023  14.803
29645W        W 2070  30.054  41.293  14.929
29646W        W 2071   3.366  39.833  12.958
29647W        W 2072  39.837  44.416  11.028
29648W        W 2073  24.656  33.043   0.838
29649W        W 2074  35.435  35.007  10.947
29650W        W 2075  17.149   5.279   4.694
29651W        W 2076  22.529  27.660   1.404
29652W        W 2077  36.387  34.572  12.412
29653W        W 2078  21.533  21.715  11.962
29654W        W 2079   9.340   2.290  14.455
29655W        W 2080  22.076  38.015   2.319
29656W        W 2081  16.085  35.071   5.703
29657W        W 2082  33.054  39.883   1.853
29658W        W 2083  12.686   6.423   1.370
29659W        W 2084   9.302  39.513  12.968
29660W        W 2085  36.562  35.498  13.997
29661W        W 2086  29.167  35.567  14.964
29662W        W 2087  32.394  17.698  11.963
29663W        W 2088  39.903  44.444  10.615
29664W        W 2089  22.656  32.540   4.133
29665W        W 2090  23.635  15.191   2.876
29666W        W 2091  22.131  10.646  10.559
29667W        W 2092   2.386  25.490  10.454
29668W        W 2093  42.873   2.865   3.818
29669W        W 2094  24.620  16.596  13.012
29670W        W 2095  40.896   1.950   1.877
29671W        W 2096  41.306  26.556  11.375
29672W        W 2097  39.877  13.643  14.844
29673W        W 2098  26.979  12.319  13.004
29674W        W 2099  27.045  40.359  11.402
29675W        W 2100  26.967   8.348   4.653
29676W        W 2101  13.766  17.100   3.327
29677W        W 2102  24.511   4.915   1.361
29678W        W 2103   6.352  42.008   3.311
29679W        W 2104  41.486  36.025  13.353
29680W        W 2105  42.481  44.009  11.939
29681W        W 2106  24.700  19.175   3.233
29682W        W 2107  41.918  30.942   4.228
29683W        W 2108  26.475  25.540   1.803
29684W        W 2109  17.754   3.868   0.920
29685W        W 2110  26.086  16.192   3.205
29686W        W 2111  30.097   7.753  12.573
29687W        W 2112  25.199   2.404   2.843
29688W        W 2113  26.099   5.278  12.915
29689W        W 2114  25.117  41.971   3.321
29690W        W 2115  16.596   9.784  11.387
29691W        W 2116  22.709  26.649   3.357
29692W        W 2117  31.965  26.108   0.884
29693W        W 2118  34.971  38.042  13.809
29694W        W 2119  36.020  25.534   4.204
29695W        W 2120   0.331  17.694   3.345
29696W        W 2121  19.746  17.248   3.354
29697W        W 2122  33.603  13.227   5.171
29698W        W 2123  21.580  32.024  14.474
29699W        W 2124  39.519  32.499   0.954
29700W        W 2125  33.034  37.060  12.516
29701W        W 2126  23.535  40.884   2.899
29702W        W 2127  18.203   0.877   0.292
29703W        W 2128  39.388  39.508  14.477
29704W        W 2129  27.455  26.472  13.431
29705W        W 2130  32.577  39.848  11.581
29706W        W 2131   5.758   7.235  12.414
29707W        W 2132   5.335  18.770   3.278
29708W        W 2133  26.173  35.097   3.213
29709W        W 2134   4.369  12.218   0.466
29710W        W 2135  11.621  39.856   2.321
29711W        W 2136  19.741  23.069  10.951
29712W        W 2137  21.532  16.196  10.934
29713W        W 2138  16.784  15.095  13.886
29714W        W 2139  20.656  42.356  12.415
29715W        W 2140  24.549  13.315   2.679
29716W        W 2141  33.025  41.998  10.937
29717W        W 2142  31.563  15.083  14.399
29718W        W 2143   9.852  27.538   3.245
29719W        W 2144  35.378  38.467  11.392
29720W        W 2145  34.433  16.183  14.891
29721W        W 2146  31.555  44.000   4.287
29722W        W 2147   9.807  10.267  10.159
29723W        W 2148   0.929  40.899   4.797
29724W        W 2149  11.776  12.196   2.301
29725W        W 2150  36.850   5.843   2.876
29726W        W 2151  39.494  19.038   0.457
29727W        W 2152  30.509  15.278   2.350
29728W        W 2153  38.571  30.605  12.536
29729W        W 2154  32.474  27.665  11.472
29730W        W 2155  41.448  30.433  14.303
29731W        W 2156  43.937  17.589  11.518
29732W        W 2157   4.204   8.774   3.693
29733W        W 2158   7.773  24.229   4.327
29734W        W 2159   9.874  25.188   2.764
29735W        W 2160  40.535  25.019   0.323
29736W        W 2161  20.159  42.782   4.185
29737W        W 2162  38.912  34.905   4.182
29738W        W 2163  32.087  36.880  14.839
29739W        W 2164  12.311  37.865   4.729
29740W        W 2165  38.413  20.081  14.331
29741W        W 2166  27.943  23.496   4.290
29742W        W 2167  17.271  17.750  12.353
29743W        W 2168  40.424   7.668  11.539
29744W        W 2169  23.688  13.110   3.654
29745W        W 2170  32.589  25.635   3.218
29746W        W 2171   8.722  15.286   2.178
29747W        W 2172  36.061  12.299   2.213
29748W        W 2173   2.282  13.644  11.440
29749W        W 2174  39.834  43.008   3.825
29750W        W 2175  37.348  26.990  10.943
29751W        W 2176  19.211  44.348  13.996
29752W        W 2177  24.669  19.552   3.354
29753W        W 2178   7.375  21.533   0.391
29754W        W 2179  30.088  23.164   2.227
29755W        W 2180  28.599  25.082   2.845
29756W        W 2181  32.419  38.935  11.876
29757W        W 2182  13.745   7.812   0.901
29758W        W 2183  12.321   6.424   2.812
29759W        W 2184  25.976  20.256   0.798
29760W        W 2185   9.700  19.594   3.252
29761W        W 2186   1.257  26.551   0.247
29762W        W 2187  18.775  44.484   5.180
29763W        W 2188  18.253  23.025  13.439
29764W        W 2189   5.764  25.217  13.028
29765W        W 2190  10.684  38.343  12.524
29766W        W 2191  28.956  31.626  13.462
29767W        W 2192  27.954  36.418  10.047
29768W        W 2193   3.924  44.400  13.512
29769W        W 2194  33.055  14.777  12.062
29770W        W 2195  29.541  13.751  13.909
29771W        W 2196  29.475  37.466  11.495
29772W        W 2197  12.763  34.096   2.887
29773W        W 2198  20.204  43.421  14.831
29774W        W 2199  22.117  33.617  13.830
29775W        W 2200   9.205  30.441   1.227
29776W        W 2201  30.595   4.927  13.817
29777W        W 2202  40.398   1.777  11.996
29778W        W 2203   4.426  14.102   1.390
29779W        W 2204  12.205  19.559   3.758
29780W        W 2205  41.843  21.255  12.395
29781W        W 2206   5.425  30.075  13.817
29782W        W 2207  43.777  28.455   4.139
29783W        W 2208  21.153  32.072   1.919
29784W        W 2209  42.311  17.720  12.940
29785W        W 2210  35.431  10.753  14.832
29786W        W 2211  32.937  18.663  13.982
29787W        W 2212  18.205   0.987   0.926
29788W        W 2213  27.640  29.478   2.384
29789W        W 2214  38.505  12.647  11.885
29790W        W 2215   4.724  36.483   0.442
29791W        W 2216   9.377  36.946   4.687
29792W        W 2217   2.282  18.631  12.844
29793W        W 2218  38.529  42.482  12.477
29794W        W 2219  28.975  13.317   1.867
29795W        W 2220  37.072  38.899   4.778
29796W        W 2221  20.762  32.409   4.834
29797W        W 2222   7.239  23.108  13.308
29798W        W 2223  31.594  42.386   1.712
29799W        W 2224  19.089   4.826  13.804
29800W        W 2225  27.071  25.469   0.904
29801W        W 2226  29.959  40.470   1.320
29802W        W 2227  27.109  16.580  12.006
29803W        W 2228  35.016  12.277  11.918
29804W        W 2229   3.439  30.648   0.472
29805W        W 2230  19.542  16.622   2.746
29806W        W 2231   4.849   7.327  10.990
29807W        W 2232  29.131  14.180  11.897
29808W        W 2233  23.203   8.753   1.918
29809W        W 2234  35.426  35.949  12.947
29810W        W 2235   5.368  36.874  14.827
29811W        W 2236  15.790  21.699   2.884
29812W        W 2237  11.673  31.609  11.914
29813W        W 2238   8.339   1.331   3.680
29814W        W 2239  39.877  28.518   4.615
29815W        W 2240  13.699  42.505  13.475
29816W        W 2241   2.778  20.145  11.409
29817W        W 2242   6.369  41.809   2.722
29818W        W 2243  39.890  22.658  10.490
29819W        W 2244  25.986  26.548  12.426
29820W        W 2245  21.583  36.983  11.085
29821W        W 2246  13.176  17.741  12.400
29822W        W 2247   1.252  13.747   4.244
29823W        W 2248  29.056  27.066  14.808
29824W        W 2249  26.092  40.527  12.522
29825W        W 2250  17.203  34.529   0.406
29826W        W 2251  11.826  15.101  13.940
29827W        W 2252  35.367  27.160   2.696
29828W        W 2253  14.164  40.866   0.282
29829W        W 2254   5.895  29.992   4.335
29830W        W 2255  23.203  36.398   3.319
29831W        W 2256  21.037  35.552   0.939
29832W        W 2257  15.150  25.038  11.394
29833W        W 2258  42.999   9.157   4.771
29834W        W 2259   2.416  11.317  10.907
29835W        W 2260  19.149  15.678  10.902
29836W        W 2261  19.597  21.558   4.720
29837W        W 2262  25.124  24.028  13.357
29838W        W 2263  13.628  39.063  11.004
29839W        W 2264  21.675  19.121  13.451
29840W        W 2265  31.958  14.680   2.781
29841W        W 2266  30.516  24.510  14.770
29842W        W 2267  21.556  39.451   2.689
29843W        W 2268  25.686  24.574   4.306
29844W        W 2269  41.851  29.961   4.824
29845W        W 2270  19.549  13.202   3.801
29846W        W 2271  42.326  18.616   1.324
29847W        W 2272   5.735  26.562   1.812
29848W        W 2273  22.202   3.955  12.410
29849W        W 2274  23.719  39.994  11.487
29850W        W 2275  34.967  42.428   4.703
29851W        W 2276  24.721  30.562   3.146
29852W        W 2277  42.816  22.227  12.893
29853W        W 2278  17.063  25.552  14.399
29854W        W 2279  13.137  12.766  13.392
29855W        W 2280   2.287  41.510  12.402
29856W        W 2281  39.488  23.994  14.409
29857W        W 2282  21.704  23.607   0.294
29858W        W 2283  33.400  35.392   4.634
29859W        W 2284   6.354   9.768   3.294
29860W        W 2285  32.587  31.055   1.908
29861W        W 2286  21.193  44.792   2.713
29862W        W 2287  12.837   9.172  14.983
29863W        W 2288   1.916  32.005  13.501
29864W        W 2289  20.136  15.627   1.316
29865W        W 2290  38.434  24.075  14.800
29866W        W 2291   5.204  20.563  10.896
29867W        W 2292  37.389  28.571   4.808
29868W        W 2293  30.013  16.805   3.264
29869W        W 2294  42.340  35.479   4.298
29870W        W 2295  33.559   8.191   1.791
29871W        W 2296  29.550   3.301   0.863
29872W        W 2297   3.385  21.240  12.872
29873W        W 2298  22.532  23.624  12.539
29874W        W 2299  20.192  40.875  11.408
29875W        W 2300  21.578  19.715   4.633
29876W        W 2301   6.229  25.180  13.506
29877W        W 2302  12.650   1.947   4.823
29878W        W 2303  25.075   5.872   3.682
29879W        W 2304   8.269   1.795  12.022
29880W        W 2305  10.721  14.251  14.333
29881W        W 2306  42.362  10.782   1.849
29882W        W 2307  15.746  18.214  14.827
29883W        W 2308  40.382  24.646   3.700
29884W        W 2309  33.103  32.086   2.247
29885W        W 2310  43.824   4.939   9.961
29886W        W 2311  37.025  23.217  13.319
29887W        W 2312  41.877  39.402   3.771
29888W        W 2313   8.685   8.720   2.702
29889W        W 2314  35.423   3.263   2.344
29890W        W 2315  37.876   9.226  13.386
29891W        W 2316   0.856  44.337   3.313
29892W        W 2317  32.068  24.985   4.128
29893W        W 2318  34.885  28.591  11.379
29894W        W 2319  34.380  32.063   3.869
29895W        W 2320  34.086  25.989   4.687
29896W        W 2321  28.145  30.533  12.940
29897W        W 2322  36.074  32.916  12.081
29898W        W 2323  13.134  25.150  14.975
29899W        W 2324  30.412  19.669   3.259
29900W        W 2325   8.208  13.184   1.369
29901W        W 2326  13.675  24.052   9.550
29902W        W 2327  34.996  26.551  10.935
29903W        W 2328   0.421  36.362  13.311
29904W        W 2329  23.685   4.869  11.428
29905W        W 2330  24.022  43.406   0.314
29906W        W 2331   7.777  43.465  12.392
29907W        W 2332  24.603  10.769  13.548
29908W        W 2333  22.185  17.128   1.284
29909W        W 2334  26.993   9.394  13.061
29910W        W 2335  44.819  34.600  10.149
29911W        W 2336  23.202  34.905  12.945
29912W        W 2337  12.667  12.153   4.822
29913W        W 2338  25.189  33.462   0.893
29914W        W 2339  19.704  21.707  10.968
29915W        W 2340  18.583  16.223  13.391
29916W        W 2341   6.318  18.072  11.996
29917W        W 2342  41.875  20.618  11.110
29918W        W 2343  41.936   3.856   1.925
29919W        W 2344  10.275  41.907   0.848
29920W        W 2345  26.070  19.114   4.201
29921W        W 2346  19.737  37.041   3.226
29922W        W 2347   4.837  13.242   3.835
29923W        W 2348  31.054  18.756   2.779
29924W        W 2349   0.984  20.109  14.349
29925W        W 2350  39.000  37.421  13.393
29926W        W 2351  30.446  30.988  14.790
29927W        W 2352  22.739  14.234   0.922
29928W        W 2353  11.704  17.727  10.980
29929W        W 2354  38.421  27.072  14.893
29930W        W 2355  43.894  37.545   4.635
29931W        W 2356   4.209  37.456  12.545
29932W        W 2357  26.187   7.747   4.638
29933W        W 2358   9.300  19.223   2.228
29934W        W 2359   2.901  32.624   0.291
29935W        W 2360  37.836  37.519  11.979
29936W        W 2361  33.032  41.023  14.783
29937W        W 2362   9.709  25.053  13.451
29938W        W 2363  33.609  19.044   1.235
29939W        W 2364  39.015  43.961   3.871
29940W        W 2365  44.347  10.201  12.901
29941W        W 2366  31.118   9.287   3.818
29942W        W 2367   6.346  43.890   3.826
29943W        W 2368   4.762  39.854  13.952
29944W        W 2369  35.080   1.945   0.429
29945W        W 2370  43.976   1.917  10.639
29946W        W 2371  41.350  24.035  12.546
29947W        W 2372   3.256  32.084  10.463
29948W        W 2373  11.803  29.163   4.666
29949W        W 2374  36.868  36.887   0.355
29950W        W 2375   8.820  41.835  14.373
29951W        W 2376  27.949  27.008  13.528
29952W        W 2377  37.054   8.386  14.864
29953W        W 2378  12.280  24.706   4.150
29954W        W 2379  18.265  41.032   2.220
29955W        W 2380  20.767  23.010  13.893
29956W        W 2381  26.036   2.416   2.757
29957W        W 2382   5.198   5.842  14.383
29958W        W 2383  38.911  44.779  12.089
29959W        W 2384  23.194  40.948   1.802
29960W        W 2385  21.605   0.493   3.173
29961W        W 2386  44.883  24.131  11.575
29962W        W 2387  30.656  36.553  13.962
29963W        W 2388   8.843  24.598   0.743
29964W        W 2389  36.919  43.325  12.370
29965W        W 2390  23.690  31.615   2.405
29966W        W 2391  37.878  38.392   0.958
29967W        W 2392   9.279  32.889   3.197
29968W        W 2393  23.555  25.572   0.445
29969W        W 2394  35.590  35.592   2.734
29970W        W 2395  38.545  42.981   0.318
29971W        W 2396   6.712   5.232   2.411
29972W        W 2397   9.265  14.192   2.191
29973W        W 2398  38.019  44.780  13.908
29974W        W 2399  27.072  17.793  11.543
29975W        W 2400  19.651  24.983   0.482
29976W        W 2401  31.539  31.515  14.885
29977W        W 2402   4.297  15.111  14.308
29978W        W 2403  40.392  38.961  10.113
29979W        W 2404   8.203  40.395  14.919
29980W        W 2405  21.213   3.308   4.656
29981W        W 2406  36.894   9.234   3.714
29982W        W 2407  12.622  11.214   2.401
29983W        W 2408  23.507  31.612   1.428
29984W        W 2409  32.613  20.683  10.561
29985W        W 2410  16.124  12.260  11.037
29986W        W 2411  16.714   7.204   3.831
29987W        W 2412  36.066  20.651   1.778
29988W        W 2413   1.298  38.480   4.641
29989W        W 2414  30.015  24.028  12.896
29990W        W 2415  34.513  34.873  11.581
29991W        W 2416  43.360  44.368  13.530
29992W        W 2417  37.085   4.702   1.706
29993W        W 2418   1.444  42.483  12.509
29994W        W 2419  11.169   6.731  12.932
29995W        W 2420   1.964  11.865   4.713
29996W        W 2421  24.987   8.299  13.807
29997W        W 2422   8.233  29.013  12.376
29998W        W 2423  32.053   6.922   2.792
29999W        W 2424  20.144   4.834  13.350
30000W        W 2425  17.114  21.682  10.090
30001W        W 2426  42.307   5.885  12.929
30002W        W 2427   2.397   7.245   4.245
30003W        W 2428  44.880  28.973  12.964
30004W        W 2429  40.803  28.678   2.182
30005W        W 2430  14.296   3.809  12.898
30006W        W 2431  39.425  18.226   2.345
30007W        W 2432  43.872  18.252  14.280
30008W        W 2433  43.382  39.455   4.345
30009W        W 2434  41.930  44.944  13.026
30010W        W 2435   2.345   7.908  13.956
30011W        W 2436  28.656  28.077  13.356
30012W        W 2437   2.722  25.160   2.416
30013W        W 2438  33.463  26.461  14.847
30014W        W 2439  35.451  34.889  12.871
30015W        W 2440  36.076   4.239   0.825
30016W        W 2441   4.752  29.007  12.418
30017W        W 2442  28.108  15.180   3.379
30018W        W 2443  17.610  20.736   3.664
30019W        W 2444  34.922  12.275   1.751
30020W        W 2445  29.645  20.238  13.340
30021W        W 2446  14.651  11.178   3.739
30022W        W 2447  39.030   4.820  14.771
30023W        W 2448   3.376  35.502   3.817
30024W        W 2449   4.339  12.795   0.873
30025W        W 2450  25.652  12.822  11.865
30026W        W 2451  25.517  19.041   1.249
30027W        W 2452   9.371  32.546  10.484
30028W        W 2453  43.022  27.054  14.492
30029W        W 2454  42.944  37.415   3.644
30030W        W 2455  31.959  34.949  13.538
30031W        W 2456   2.256   1.390  13.040
30032W        W 2457  13.760   2.371  11.935
30033W        W 2458  44.808  10.647  11.408
30034W        W 2459  26.461   7.216  10.094
30035W        W 2460   9.257   6.838  13.872
30036W        W 2461   8.261  24.193   2.792
30037W        W 2462   1.446   5.427   2.254
30038W        W 2463  44.459  38.034  12.571
30039W        W 2464  10.377  25.170  11.016
30040W        W 2465  31.966  30.159   2.847
30041W        W 2466  20.576  13.629   3.870
30042W        W 2467   3.765  21.192   4.140
30043W        W 2468  41.799  25.189   0.266
30044W        W 2469  22.697  15.665  10.923
30045W        W 2470  33.593  37.539  10.950
30046W        W 2471  26.685  36.849   0.880
30047W        W 2472  41.818  42.852   1.272
30048W        W 2473  39.995  29.510  10.548
30049W        W 2474   3.785  41.920   2.724
30050W        W 2475  33.068  35.503   2.234
30051W        W 2476  17.113  15.702   3.286
30052W        W 2477  39.899  33.395   0.786
30053W        W 2478  26.134  35.530  13.004
30054W        W 2479  17.101   1.418   3.781
30055W        W 2480  29.096  21.166   3.755
30056W        W 2481   3.430  29.500   1.285
30057W        W 2482  21.211  28.501  11.962
30058W        W 2483  43.924  42.329   2.378
30059W        W 2484  15.640  28.487   2.316
30060W        W 2485   5.253  18.715   3.816
30061W        W 2486  10.847  24.191   1.244
30062W        W 2487  38.056  13.199   1.735
30063W        W 2488  10.641   6.837   2.894
30064W        W 2489  32.508   4.786   1.240
30065W        W 2490  40.303   1.783  11.001
30066W        W 2491  33.475  28.954   0.844
30067W        W 2492  19.154  20.717   4.244
30068W        W 2493   0.905   4.284  14.488
30069W        W 2494  26.176  24.113  10.441
30070W        W 2495  17.759  43.505   2.245
30071W        W 2496  35.037  16.270   0.294
30072W        W 2497  30.637  39.825  13.541
30073W        W 2498  38.976  41.804  12.850
30074W        W 2499   1.455  12.659  10.940
30075W        W 2500   2.374  13.215   1.907
30076W        W 2501  30.964  13.294  14.781
30077W        W 2502  25.205  40.379   4.781
30078W        W 2503   1.891   4.432  14.959
30079W        W 2504  29.662  18.687   4.200
30080W        W 2505  28.636  28.091   2.868
30081W        W 2506  26.965  44.265  11.925
30082W        W 2507  24.532  12.247   2.786
30083W        W 2508  23.204  28.937   3.260
30084W        W 2509   2.242  17.693   2.734
30085W        W 2510  39.337  36.911  14.840
30086W        W 2511  15.170  19.706   3.365
30087W        W 2512  33.466  13.808  12.397
30088W        W 2513  33.126   8.879  13.833
30089W        W 2514  22.031   1.339  11.998
30090W        W 2515   1.367  30.512  10.922
30091W        W 2516  42.453  39.516   2.320
30092W        W 2517  40.814  27.606   3.261
30093W        W 2518  15.178  10.147  12.433
30094W        W 2519  14.693  19.740   1.743
30095W        W 2520  37.468   5.226  13.953
30096W        W 2521  44.857  29.592   1.211
30097W        W 2522  37.088  32.106  11.972
30098W        W 2523  29.578  26.085  11.382
30099W        W 2524  43.313  34.920   1.409
30100W        W 2525  16.593  20.046   1.887
30101W        W 2526  11.856  41.845   1.823
30102W        W 2527  26.040   1.301  14.342
30103W        W 2528   6.907   5.320  14.027
30104W        W 2529   9.806  41.327   2.673
30105W        W 2530  11.209   1.364   3.253
30106W        W 2531   9.189  40.853  12.418
30107W        W 2532   8.193  18.095  13.794
30108W        W 2533  30.626  14.827  14.018
30109W        W 2534  30.062  14.115  10.989
30110W        W 2535  28.131  23.573   0.920
30111W        W 2536  19.748  19.696  13.794
30112W        W 2537   6.210   4.215  12.857
30113W        W 2538   5.381   2.928  11.426
30114W        W 2539  23.073  41.450   3.815
30115W        W 2540   8.368  22.146   4.699
30116W        W 2541  20.635  34.081   0.812
30117W        W 2542  31.116  44.289  14.814
30118W        W 2543   6.788  15.773   0.910
30119W        W 2544  18.694  40.929  14.907
30120W        W 2545  15.745  24.678   4.647
30121W        W 2546  44.905  18.114  10.471
30122W        W 2547   3.759  19.231  11.391
30123W        W 2548   7.900   5.828  12.378
30124W        W 2549   7.280   2.911  11.449
30125W        W 2550   8.742  37.035   0.245
30126W        W 2551   3.921  22.571  10.497
30127W        W 2552   8.384   0.405  11.090
30128W        W 2553  29.981  27.159   4.296
30129W        W 2554  18.181  42.960  11.977
30130W        W 2555   0.902  25.210   0.806
30131W        W 2556   9.253   1.388   1.389
30132W        W 2557  35.579  28.005  11.386
30133W        W 2558  39.874  15.734  10.580
30134W        W 2559  23.031  43.022   4.766
30135W        W 2560  25.586  16.301   4.829
30136W        W 2561  40.423   3.798  11.026
30137W        W 2562  16.201  38.018   3.269
30138W        W 2563  40.953  30.066  12.520
30139W        W 2564  31.045  37.984   0.819
30140W        W 2565  36.401  19.776   0.423
30141W        W 2566  26.641   7.673   2.867
30142W        W 2567  35.911  11.194  14.762
30143W        W 2568   2.882  41.792   1.437
30144W        W 2569  40.802  38.524  14.428
30145W        W 2570  38.981   0.805   3.253
30146W        W 2571  22.217  37.427  10.519
30147W        W 2572  13.335  14.338   3.198
30148W        W 2573  22.544  28.053  13.956
30149W        W 2574  33.072   9.324   2.750
30150W        W 2575  16.673  13.825   3.207
30151W        W 2576  33.464  23.715   4.333
30152W        W 2577  14.685   3.328  10.534
30153W        W 2578  16.663  35.556   9.473
30154W        W 2579  29.432  19.762  14.446
30155W        W 2580   8.342  26.653  12.383
30156W        W 2581  19.124  42.526  14.027
30157W        W 2582  33.436  10.290   1.293
30158W        W 2583  24.559  40.799  14.337
30159W        W 2584  19.174  41.302   1.316
30160W        W 2585  31.973  25.203   1.868
30161W        W 2586  38.873  37.562   3.639
30162W        W 2587  43.793  33.098  10.529
30163W        W 2588  29.125   4.229   3.260
30164W        W 2589  19.136  11.286  12.992
30165W        W 2590   1.871  12.257   4.666
30166W        W 2591  26.702  32.896   4.744
30167W        W 2592   5.205  34.461  12.485
30168W        W 2593  16.661  42.958  14.317
30169W        W 2594  37.838  25.698  10.968
30170W        W 2595  31.980  12.278  11.037
30171W        W 2596   7.854  42.356   0.361
30172W        W 2597  27.127  38.902  11.554
30173W        W 2598  13.689  40.365   2.373
30174W        W 2599  28.117  11.753  13.499
30175W        W 2600  38.554  36.966  12.500
30176W        W 2601   1.310  37.472  12.503
30177W        W 2602   3.765   7.706   2.775
30178W        W 2603  23.601  32.530   4.694
30179W        W 2604  15.292  43.981  10.525
30180W        W 2605  32.597  12.716   1.819
30181W        W 2606  44.806  16.091   2.798
30182W        W 2607  33.126  35.905  11.537
30183W        W 2608  29.554   4.735  14.316
30184W        W 2609  42.515  42.993  13.402
30185W        W 2610  22.228  43.362   1.864
30186W        W 2611  41.858  41.928  12.546
30187W        W 2612  20.197  35.406  12.573
30188W        W 2613  21.257  29.498  11.081
30189W        W 2614   0.365  26.601  14.508
30190W        W 2615  41.843   5.768  10.623
30191W        W 2616  21.563  20.170  13.362
30192W        W 2617  38.058  32.111  14.415
30193W        W 2618  18.726   2.237   1.265
30194W        W 2619  38.883  40.822   0.951
30195W        W 2620  20.187   2.377  12.977
30196W        W 2621  11.655   1.358  14.032
30197W        W 2622   3.933   3.946   0.941
30198W        W 2623  17.661   0.746   2.817
30199W        W 2624  32.996  19.255  12.034
30200W        W 2625  25.644  26.641   5.294
30201W        W 2626  24.050  27.687  10.437
30202W        W 2627  32.610  30.577  10.414
30203W        W 2628  25.085   4.934  12.986
30204W        W 2629  27.041   0.753   0.273
30205W        W 2630  36.922  23.669  14.865
30206W        W 2631  35.019  21.248  13.993
30207W        W 2632   2.839   9.840   4.290
30208W        W 2633  24.545  34.929   2.793
30209W        W 2634  21.212   5.915   2.749
30210W        W 2635  10.318  19.231  14.978
30211W        W 2636  27.637  43.335  13.004
30212W        W 2637  14.658   4.435  14.823
30213W        W 2638  21.255  11.209  12.890
30214W        W 2639  42.783   3.333   2.684
30215W        W 2640   1.326  41.308  13.027
30216W        W 2641  19.088   4.384  12.556
30217W        W 2642  27.961   7.341  11.092
30218W        W 2643  26.019   6.878  11.867
30219W        W 2644  23.522  24.057  13.047
30220W        W 2645  36.059  11.238  10.430
30221W        W 2646   9.809  44.328  12.485
30222W        W 2647  36.513  11.347  14.369
30223W        W 2648   9.221  33.995  14.365
30224W        W 2649  37.537   9.663  13.517
30225W        W 2650   5.830   6.217   4.773
30226W        W 2651  28.524  39.845  10.598
30227W        W 2652  21.757  26.617   3.869
30228W        W 2653  13.196   9.306   3.811
30229W        W 2654  38.033  29.582  10.110
30230W        W 2655  13.131  23.618   2.287
30231W        W 2656  41.528   4.808   1.408
30232W        W 2657  32.906  10.352   5.191
30233W        W 2658  22.622  29.553  14.945
30234W        W 2659  30.031  36.872  14.994
30235W        W 2660  31.484  26.147  13.402
30236W        W 2661  36.064  16.168  13.327
30237W        W 2662  43.453   9.821   0.422
30238W        W 2663  32.097  34.058   2.793
30239W        W 2664  27.194  37.919  11.948
30240W        W 2665  32.980  26.188   2.283
30241W        W 2666  41.948  24.114  10.607
30242W        W 2667  12.292  32.111  10.593
30243W        W 2668  10.232  23.688  10.948
30244W        W 2669  44.288  25.621   2.846
30245W        W 2670   8.307   5.267  13.031
30246W        W 2671  16.796  42.360   4.732
30247W        W 2672  14.654  28.601  13.395
30248W        W 2673  29.047  44.282   2.363
30249W        W 2674  24.493   3.410   4.646
30250W        W 2675  39.825  20.111   2.407
30251W        W 2676  44.333  24.170  12.051
30252W        W 2677  27.022  16.808  14.974
30253W        W 2678  20.672  13.251  11.496
30254W        W 2679   8.195  32.068  10.480
30255W        W 2680  23.716  34.408  14.392
30256W        W 2681  12.851  31.583   3.684
30257W        W 2682  41.417   2.736  10.512
30258W        W 2683  28.574  28.114   3.786
30259W        W 2684  14.664   9.290  10.530
30260W        W 2685  28.023   2.311  11.601
30261W        W 2686   4.293  37.389   3.275
30262W        W 2687   3.273  32.537   4.279
30263W        W 2688  20.211  16.257   2.870
30264W        W 2689  25.157  18.626   4.641
30265W        W 2690  31.492  17.293   1.268
30266W        W 2691  33.926   3.931  12.019
30267W        W 2692  27.175   9.326   3.673
30268W        W 2693  24.723  34.477   4.746
30269W        W 2694  23.207  30.485  14.796
30270W        W 2695  25.672  12.619   4.133
30271W        W 2696  21.228   7.883  14.511
30272W        W 2697  32.062  17.285  14.818
30273W        W 2698  39.454   4.343   0.445
30274W        W 2699   9.670  22.169  12.041
30275W        W 2700   0.889  24.033  12.921
30276W        W 2701   4.376  41.043  14.400
30277W        W 2702   7.901  41.840   0.457
30278W        W 2703  38.358  20.083   0.746
30279W        W 2704   1.481  18.641   3.156
30280W        W 2705  20.219  41.323   1.414
30281W        W 2706  15.289   4.318   3.685
30282W        W 2707  30.019  30.566   2.877
30283W        W 2708  14.593   4.441  13.538
30284W        W 2709   8.329   9.706  11.026
30285W        W 2710  26.036   7.835  10.931
30286W        W 2711  19.219  36.095  12.380
30287W        W 2712  12.844  40.008  11.420
30288W        W 2713  40.425   8.881  14.791
30289W        W 2714  13.327  31.912   4.234
30290W        W 2715  27.962  37.553  14.356
30291W        W 2716  21.526   9.828  10.558
30292W        W 2717  20.032  12.810  12.093
30293W        W 2718   4.258   2.403   1.416
30294W        W 2719  11.655  22.708   0.467
30295W        W 2720  30.511  16.631   4.253
30296W        W 2721  35.109  25.038  14.833
30297W        W 2722  20.584   5.932  14.979
30298W        W 2723  39.446  40.407   0.447
30299W        W 2724  27.135  26.163  10.427
30300W        W 2725  30.104   1.742   3.243
30301W        W 2726  28.460  26.020  14.397
30302W        W 2727  34.891   6.257   4.116
30303W        W 2728   8.218  14.275   0.885
30304W        W 2729  34.544  40.449  11.926
30305W        W 2730  39.482   8.827   0.742
30306W        W 2731  24.096   8.889   0.376
30307W        W 2732  34.457  11.866  12.367
30308W        W 2733  22.135  12.625  14.867
30309W        W 2734  40.427   2.295   0.414
30310W        W 2735  35.576  23.585  14.463
30311W        W 2736  10.162  27.099  13.454
30312W        W 2737  19.721  38.529   1.719
30313W        W 2738  25.059  19.738   4.688
30314W        W 2739  40.031  30.434   3.215
30315W        W 2740  29.531  18.104  11.422
30316W        W 2741  37.913   4.233   2.819
30317W        W 2742  29.562  35.057  10.935
30318W        W 2743  19.747  17.156   2.401
30319W        W 2744   0.353  25.515   0.859
30320W        W 2745  39.065  39.005  11.513
30321W        W 2746  26.985  42.502   1.709
30322W        W 2747  30.098  23.201   4.727
30323W        W 2748  34.904  41.036   1.707
30324W        W 2749  27.194   6.255   4.819
30325W        W 2750   4.354  21.534  14.326
30326W        W 2751  39.916  39.458   2.332
30327W        W 2752   6.793  16.772   4.315
30328W        W 2753  22.522  28.447  12.508
30329W        W 2754  37.535  29.632  11.496
30330W        W 2755   2.770  16.187   4.627
30331W        W 2756  20.191  10.201   2.716
30332W        W 2757  22.167  11.203  14.008
30333W        W 2758  42.807  37.559  11.945
30334W        W 2759  30.122  43.896   1.394
30335W        W 2760  34.067  22.501  13.983
30336W        W 2761  10.633  42.470   4.830
30337W        W 2762   8.771  42.487  11.382
30338W        W 2763  35.461  38.987  13.853
30339W        W 2764   4.729  44.505   4.255
30340W        W 2765  33.087  15.115   4.253
30341W        W 2766  17.132  19.639   0.900
30342W        W 2767   8.386   6.805  12.004
30343W        W 2768  24.122   4.783   0.811
30344W        W 2769   3.767   5.395  12.013
30345W        W 2770  34.883   3.890  12.576
30346W        W 2771   4.228   9.164   4.838
30347W        W 2772  26.700  19.675  13.495
30348W        W 2773  14.247  22.112   4.270
30349W        W 2774   6.229   9.873  14.941
30350W        W 2775   8.336  42.346   0.750
30351W        W 2776  33.598   5.278   3.203
30352W        W 2777  41.987  16.265   0.761
30353W        W 2778  36.901  37.372   0.474
30354W        W 2779  31.001   4.788  11.534
30355W        W 2780   4.757   5.901   2.410
30356W        W 2781  43.393  39.994   1.249
30357W        W 2782  23.491   5.214   3.153
30358W        W 2783   5.338  17.178   3.313
30359W        W 2784  19.135  44.324  10.425
30360W        W 2785   2.838   2.949   0.390
30361W        W 2786  33.418  19.729   3.341
30362W        W 2787  27.957  27.520  12.487
30363W        W 2788  44.487  37.366   2.897
30364W        W 2789  35.102   7.682   5.754
30365W        W 2790  35.932   8.164   3.148
30366W        W 2791  12.665  20.044   2.899
30367W        W 2792  40.506  28.632  13.411
30368W        W 2793   5.438  38.412  13.943
30369W        W 2794  31.512   7.835  12.872
30370W        W 2795  39.916  22.570   4.816
30371W        W 2796  33.119  21.070  14.881
30372W        W 2797  40.395  30.932   3.642
30373W        W 2798  26.964  22.723   1.272
30374W        W 2799  19.093  28.630   0.245
30375W        W 2800  37.056  16.231  11.045
30376W        W 2801  18.547  31.935  10.635
30377W        W 2802  41.977  38.500  12.872
30378W        W 2803  44.892  19.086  13.888
30379W        W 2804   2.231  27.449   1.398
30380W        W 2805  10.272  35.079  12.934
30381W        W 2806  29.480  11.176  13.546
30382W        W 2807  19.606  18.661  14.032
30383W        W 2808   2.797   0.473   0.741
30384W        W 2809  35.552  12.222   0.858
30385W        W 2810   1.480  41.947  14.765
30386W        W 2811  40.404  30.508  12.074
30387W        W 2812  16.185   0.384  11.002
30388W        W 2813   4.424  25.514  12.890
30389W        W 2814  22.713  31.071   4.227
30390W        W 2815  26.649  37.030   3.665
30391W        W 2816   8.838  34.043   0.249
30392W        W 2817  11.254  37.953   1.402
30393W        W 2818  20.178  24.548   2.876
30394W        W 2819  35.084  41.329  10.576
30395W        W 2820  16.081   6.900  14.762
30396W        W 2821   0.300  21.586  10.534
30397W        W 2822   8.344   4.860  13.977
30398W        W 2823  20.168  40.954  10.467
30399W        W 2824   3.318  17.223   4.829
30400W        W 2825  29.172   6.782   2.259
30401W        W 2826  35.961   0.475   3.808
30402W        W 2827   7.907  11.149  13.532
30403W        W 2828  11.700  36.589  12.943
30404W        W 2829  11.324  18.664   4.794
30405W        W 2830  29.967  26.200   3.778
30406W        W 2831  17.196  24.057   0.938
30407W        W 2832   8.366  21.686  11.969
30408W        W 2833   9.852  10.755   4.644
30409W        W 2834  37.033  30.936   1.835
30410W        W 2835  44.360  22.533  12.377
30411W        W 2836   6.692   3.743   1.235
30412W        W 2837  19.655  12.848   1.715
30413W        W 2838  29.013  29.505   3.774
30414W        W 2839   2.898  24.011   3.246
30415W        W 2840  33.522  13.689  13.347
30416W        W 2841  29.146   6.878  13.947
30417W        W 2842  28.014  10.821  14.767
30418W        W 2843   8.346  28.949   3.280
30419W        W 2844  26.119  11.724   0.282
30420W        W 2845  20.615   2.238   3.202
30421W        W 2846  15.234   2.743   5.718
30422W        W 2847  41.499  38.857  14.328
30423W        W 2848   7.672  17.173  13.429
30424W        W 2849   1.939  28.103  10.899
30425W        W 2850  13.161  43.995  13.825
30426W        W 2851  34.873   5.931   3.651
30427W        W 2852  27.629  41.536  11.568
30428W        W 2853  37.517   9.745  12.545
30429W        W 2854  24.585  11.660   2.850
30430W        W 2855   5.757  24.621   3.859
30431W        W 2856  34.006  35.088  14.015
30432W        W 2857   0.853  32.604   3.161
30433W        W 2858   4.338   3.928  14.917
30434W        W 2859  42.519  40.937   3.163
30435W        W 2860  43.389  41.517   3.241
30436W        W 2861   2.901  21.183  12.461
30437W        W 2862  28.457  36.450   4.315
30438W        W 2863  18.080  37.008   0.479
30439W        W 2864  31.552  40.443   2.213
30440W        W 2865   8.313   7.820  13.049
30441W        W 2866  16.105  23.149   3.708
30442W        W 2867  42.527  28.171  12.348
30443W        W 2868  38.352  28.939  10.540
30444W        W 2869   5.297  27.625   2.838
30445W        W 2870  34.572  23.090  13.005
30446W        W 2871  34.485   2.402  11.444
30447W        W 2872  19.776   7.362   2.354
30448W        W 2873  36.404   9.241  12.072
30449W        W 2874   4.810   3.411  10.478
30450W        W 2875  38.903  44.924   4.779
30451W        W 2876  14.803  31.978   3.806
30452W        W 2877  27.511  36.539  12.476
30453W        W 2878  31.414  10.695  10.572
30454W        W 2879   1.743  31.551  14.031
30455W        W 2880  14.802  41.978  11.957
30456W        W 2881  42.995   7.795  11.481
30457W        W 2882   7.371  31.412   3.781
30458W        W 2883  20.059  35.027   1.330
30459W        W 2884   7.748  44.879  12.433
30460W        W 2885  11.365  34.077  14.416
30461W        W 2886  34.600  21.693  12.002
30462W        W 2887  42.300  32.009  13.062
30463W        W 2888  18.745   9.368  14.904
30464W        W 2889   3.774  29.644  14.477
30465W        W 2890  38.991   6.821  14.981
30466W        W 2891  15.164  20.761  12.095
30467W        W 2892  25.972  11.637  13.061
30468W        W 2893  25.650  24.709  11.018
30469W        W 2894  42.994  26.646   1.763
30470W        W 2895  27.616  19.628   5.188
30471W        W 2896  26.632  17.263  14.429
30472W        W 2897  20.550  10.786  11.994
30473W        W 2898  31.543  43.873   3.810
30474W        W 2899  16.073  13.132   3.298
30475W        W 2900   3.833  12.737  13.329
30476W        W 2901   6.840   9.796  11.856
30477W        W 2902   7.801   4.911  10.042
30478W        W 2903   3.442  26.496  10.607
30479W        W 2904  20.080  19.146  14.021
30480W        W 2905  33.477  25.482   0.753
30481W        W 2906   8.872   2.356  11.026
30482W        W 2907  33.127  34.468  14.408
30483W        W 2908  43.387  36.010  10.603
30484W        W 2909  32.426  37.556   3.169
30485W        W 2910  25.469  22.218   1.902
30486W        W 2911  18.053  39.057  14.501
30487W        W 2912  31.471  21.161  11.053
30488W        W 2913  10.203  18.709   4.198
30489W        W 2914  20.585  16.791  10.526
30490W        W 2915  19.263   8.756   3.721
30491W        W 2916  30.018  29.477  14.299
30492W        W 2917   9.722   2.921   2.265
30493W        W 2918  15.759   6.754  14.900
30494W        W 2919  44.353  34.043  10.582
30495W        W 2920   2.387  35.095  10.523
30496W        W 2921  13.825  30.968  11.057
30497W        W 2922  19.202  43.872  10.407
30498W        W 2923  24.007   2.398   3.164
30499W        W 2924  34.095  29.985   2.891
30500W        W 2925  38.021   9.285   1.416
30501W        W 2926   4.851  28.120   0.841
30502W        W 2927  14.691  20.594   2.698
30503W        W 2928   1.793  18.219  14.828
30504W        W 2929  34.484  34.574  12.356
30505W        W 2930  33.929  30.583   0.794
30506W        W 2931  33.382  41.787   1.213
30507W        W 2932  10.671  38.505  12.984
30508W        W 2933   7.273  41.411   3.734
30509W        W 2934  14.801  41.468  14.777
30510W        W 2935  29.089  10.819   0.749
30511W        W 2936  28.616  43.895  11.560
30512W        W 2937  23.560  18.725  11.502
30513W        W 2938  20.201   6.766  14.759
30514W        W 2939  11.196   2.875  13.922
30515W        W 2940   2.852  25.629  10.504
30516W        W 2941  39.423   8.682   3.263
30517W        W 2942   2.417  44.461   3.864
30518W        W 2943   9.337  15.225  14.899
30519W        W 2944  25.990  34.958  11.402
30520W        W 2945  34.934  21.020  12.893
30521W        W 2946   4.798   2.893  12.536
30522W        W 2947  39.923  11.709  13.884
30523W        W 2948  42.010  21.235  11.001
30524W        W 2949  29.147  11.780  14.304
30525W        W 2950  31.648   7.177   3.360
30526W        W 2951  25.499  34.496   3.252
30527W        W 2952   3.336  29.526  12.430
30528W        W 2953  35.521   3.451  11.024
30529W        W 2954  15.589  16.222  14.843
30530W        W 2955  19.587   2.368  10.929
30531W        W 2956  17.238  28.504  12.971
30532W        W 2957  37.512  19.182   1.716
30533W        W 2958   7.315  33.419   1.299
30534W        W 2959  34.441   1.477   1.385
30535W        W 2960  19.719  30.594   2.844
30536W        W 2961  43.453  37.457   4.698
30537W        W 2962  37.439  42.881   4.810
30538W        W 2963  30.603  26.566  11.500
30539W        W 2964  42.436  25.009  12.071
30540W        W 2965  13.224   2.846  10.613
30541W        W 2966   4.713  22.500  11.517
30542W        W 2967  41.793  26.619  13.021
30543W        W 2968  15.297   1.369  12.544
30544W        W 2969  41.840  11.772   3.843
30545W        W 2970  43.918  23.064  10.422
30546W        W 2971  25.026  35.519  10.893
30547W        W 2972  43.515  15.667   3.683
30548W        W 2973  11.859  20.274  14.988
30549W        W 2974  13.199   8.814  14.954
30550W        W 2975  32.045   7.751   4.823
30551W        W 2976  43.288  18.223   2.324
30552W        W 2977  24.659  17.172   4.147
30553W        W 2978  19.220   3.381  11.611
30554W        W 2979  35.594  32.497  12.884
30555W        W 2980  33.079   9.854  10.614
30556W        W 2981  19.082  35.419  13.011
30557W        W 2982   8.220  33.026  10.892
30558W        W 2983  13.759  41.515   2.288
30559W        W 2984  21.242  39.040  11.485
30560W        W 2985   4.747  21.713   2.805
30561W        W 2986  18.651  25.114   2.268
30562W        W 2987  42.957  35.979  14.029
30563W        W 2988  34.384   6.272   0.474
30564W        W 2989  25.046  15.811  14.421
30565W        W 2990  38.510  39.949   4.724
30566W        W 2991  39.059  27.486  12.524
30567W        W 2992  27.058  41.497   1.892
30568W        W 2993  43.985  34.003  12.853
30569W        W 2994  14.792  41.953   0.943
30570W        W 2995  37.471  36.065  13.364
30571W        W 2996  37.490  10.340  12.960
30572W        W 2997  32.976  27.942   1.887
30573W        W 2998  31.567  29.008  11.498
30574W        W 2999  32.942  13.798  11.581
30575W        W 3000  14.318  39.465   2.335
30576W        W 3001  28.001  34.006   0.392
30577W        W 3002  15.111   1.393  14.029
30578W        W 3003   2.960  38.058  12.870
30579W        W 3004  23.038  21.643  13.929
30580W        W 3005  43.385  37.490  13.487
30581W        W 3006   5.278  22.729   0.893
30582W        W 3007   3.774  23.045  14.888
30583W        W 3008  23.164  11.291   5.667
30584W        W 3009  22.248  38.923   1.749
30585W        W 3010  10.750  23.699  13.035
30586W        W 3011  35.990   5.214  10.902
30587W        W 3012  24.567  28.935   2.792
30588W        W 3013  30.075  44.278   0.962
30589W        W 3014   1.734  20.109   1.865
30590W        W 3015  21.151  10.690   5.288
30591W        W 3016   6.764  43.442  10.415
30592W        W 3017  44.318   8.712   0.772
30593W        W 3018  14.817  38.527   3.790
30594W        W 3019  30.581  39.542  14.808
30595W        W 3020   4.862  30.959   2.257
30596W        W 3021  36.093  44.270  12.016
30597W        W 3022   0.817   9.283  12.873
30598W        W 3023  35.854  24.570   1.724
30599W        W 3024  20.199  43.884   2.816
30600W        W 3025  24.204  28.625  10.928
30601W        W 3026   6.735   5.408   4.130
30602W        W 3027  22.529  29.983  13.057
30603W        W 3028   1.256  31.015   0.252
30604W        W 3029  27.673  19.087  13.964
30605W        W 3030  39.060  41.990   4.597
30606W        W 3031   2.802  31.990  11.914
30607W        W 3032  29.945  44.799  11.067
30608W        W 3033   9.327   6.411   2.232
30609W        W 3034  37.984  27.078  13.970
30610W        W 3035  24.637  37.048  14.298
30611W        W 3036  36.066  17.610   2.230
30612W        W 3037  28.039  43.977   0.290
30613W        W 3038  42.498  39.556   3.265
30614W        W 3039  36.845  42.799   0.934
30615W        W 3040  28.618  28.545   2.900
30616W        W 3041  10.153  41.906   1.927
30617W        W 3042   7.173  22.180   0.872
30618W        W 3043   6.900  29.581  11.593
30619W        W 3044  27.497  24.009   4.800
30620W        W 3045  39.046  22.540   2.684
30621W        W 3046   6.737  15.592  11.127
30622W        W 3047  34.896  35.007   4.317
30623W        W 3048  16.273  33.111  11.066
30624W        W 3049  27.062  12.833  14.326
30625W        W 3050  34.865   4.745  14.399
30626W        W 3051   9.257  16.302  13.395
30627W        W 3052  43.966  10.810  10.514
30628W        W 3053  35.553  40.936   1.317
30629W        W 3054  42.511  11.321  11.573
30630W        W 3055   3.230   8.843  11.441
30631W        W 3056  26.067  18.123   4.307
30632W        W 3057  43.928  18.256   1.434
30633W        W 3058   2.246  32.439  12.491
30634W        W 3059  24.511  40.415   2.212
30635W        W 3060  44.397  25.508   1.829
30636W        W 3061  32.974  27.656  14.326
30637W        W 3062  24.031   9.364  13.946
30638W        W 3063   6.698  22.038  11.548
30639W        W 3064   1.469  21.224   4.328
30640W        W 3065  41.952  13.705   1.416
30641W        W 3066  24.622   6.782  14.860
30642W        W 3067  40.394  11.351  11.495
30643W        W 3068   2.286   6.391  12.431
30644W        W 3069  18.135  30.576   4.810
30645W        W 3070  33.946   4.719  11.962
30646W        W 3071  12.754   0.814   3.788
30647W        W 3072   3.767  13.162   4.779
30648W        W 3073  36.980  13.744   0.794
30649W        W 3074   0.358  23.039  11.380
30650W        W 3075  35.014   1.943   2.667
30651W        W 3076   4.927  28.966  14.988
30652W        W 3077  20.550  32.951  12.875
30653W        W 3078  39.484   6.766  12.575
30654W        W 3079  32.453  30.072  14.765
30655W        W 3080  26.044  29.666   2.413
30656W        W 3081  28.948  25.650   0.372
30657W        W 3082  36.002  31.980  14.421
30658W        W 3083  14.113  14.094  12.066
30659W        W 3084   7.730  36.925   4.688
30660W        W 3085   1.280  25.571  12.353
30661W        W 3086  36.369  41.980   2.880
30662W        W 3087  23.151  36.350   4.146
30663W        W 3088  16.195  36.385   0.296
30664W        W 3089  41.401   5.268   2.313
30665W        W 3090  21.165  18.082  13.974
30666W        W 3091   9.812  35.870  10.416
30667W        W 3092  29.463  38.534   3.811
30668W        W 3093  32.966   5.207   0.794
30669W        W 3094   2.325   3.913  10.540
30670W        W 3095  42.811  29.582   1.257
30671W        W 3096  21.623  31.988  12.527
30672W        W 3097  29.052  26.959   1.906
30673W        W 3098  17.231  13.273  11.857
30674W        W 3099  44.475  44.385  10.516
30675W        W 3100  37.551  22.512  12.044
30676W        W 3101  14.784  24.660  11.880
30677W        W 3102   7.384   4.256   4.302
30678W        W 3103  28.972  33.911  10.432
30679W        W 3104  29.648  30.428   0.740
30680W        W 3105   3.311  33.426   3.651
30681W        W 3106   0.368  34.566   5.113
30682W        W 3107  10.274  36.051   1.834
30683W        W 3108  40.357  33.110   3.258
30684W        W 3109  22.518   7.736  14.330
30685W        W 3110   2.469  25.672  11.991
30686W        W 3111  15.577  17.063   5.163
30687W        W 3112  23.010  19.559  13.058
30688W        W 3113  30.038   1.476  11.449
30689W        W 3114  35.421   5.791   0.243
30690W        W 3115  43.282  38.830  13.956
30691W        W 3116   0.936  16.202  11.019
30692W        W 3117  31.126   5.847   4.334
30693W        W 3118  12.757  42.335   1.933
30694W        W 3119  28.092   1.849  11.600
30695W        W 3120   6.677  28.946   2.875
30696W        W 3121  39.930  31.448   3.850
30697W        W 3122  17.150  20.541   1.323
30698W        W 3123  35.921   6.688   3.646
30699W        W 3124  30.033  26.457   3.667
30700W        W 3125  25.156  26.525  10.421
30701W        W 3126   6.205  28.930   4.644
30702W        W 3127  44.983   8.387  14.490
30703W        W 3128  30.547  40.332   3.692
30704W        W 3129  10.819   4.714  13.358
30705W        W 3130   8.803  43.918  14.783
30706W        W 3131  26.521   0.293  11.411
30707W        W 3132   4.939  35.073  12.034
30708W        W 3133  39.000  36.044   3.731
30709W        W 3134   0.460  24.712   1.830
30710W        W 3135  21.133  33.439   4.670
30711W        W 3136  39.381  16.082   3.682
30712W        W 3137  14.786  11.222  12.364
30713W        W 3138  26.598  23.217   2.337
30714W        W 3139   7.694  19.712  13.917
30715W        W 3140  35.542  33.423   4.155
30716W        W 3141  18.559  18.152   1.413
30717W        W 3142  24.492  11.696  12.942
30718W        W 3143   2.457  23.643  12.437
30719W        W 3144  37.509  14.314  11.970
30720W        W 3145  28.948  22.523  12.017
30721W        W 3146  19.624  23.505   4.667
30722W        W 3147  36.858  19.095   0.872
30723W        W 3148  34.905  33.045   0.305
30724W        W 3149  29.631  21.023  14.029
30725W        W 3150  33.957  36.893   0.454
30726W        W 3151  33.603   0.874   1.292
30727W        W 3152   8.326  18.582   3.177
30728W        W 3153  43.800  23.205   4.341
30729W        W 3154  19.111  36.895  13.460
30730W        W 3155  22.129   3.923  13.494
30731W        W 3156  13.234  26.999  11.884
30732W        W 3157  27.048  37.831   4.819
30733W        W 3158  11.202  10.176  14.959
30734W        W 3159  42.401   0.361  10.587
30735W        W 3160  31.897  26.130  12.557
30736W        W 3161  34.566  23.007  12.081
30737W        W 3162  23.599   3.317   0.350
30738W        W 3163  41.441  40.368   3.791
30739W        W 3164   3.870  35.437   4.673
30740W        W 3165  41.458  32.599  14.981
30741W        W 3166  39.519  10.644   2.787
30742W        W 3167   1.818  42.524   2.867
30743W        W 3168   9.678  12.327  10.469
30744W        W 3169  36.467  44.436  13.061
30745W        W 3170   5.732  13.339  14.372
30746W        W 3171  39.958   3.791  14.416
30747W        W 3172  16.797   8.896  11.874
30748W        W 3173  26.078   6.867  13.504
30749W        W 3174  32.498   2.759  10.552
30750W        W 3175  15.690   4.880   0.328
30751W        W 3176  38.541   4.780  13.968
30752W        W 3177   5.390  27.491  14.382
30753W        W 3178   1.794  44.982   1.807
30754W        W 3179  11.349   3.767   3.189
30755W        W 3180   6.234  35.946   3.756
30756W        W 3181   5.410  33.946   2.278
30757W        W 3182  15.298  44.282  10.509
30758W        W 3183  37.989   6.205   2.879
30759W        W 3184   0.252   9.847   4.339
30760W        W 3185  16.640  19.109   1.314
30761W        W 3186  38.869   5.736  12.852
30762W        W 3187  34.511  36.373   0.777
30763W        W 3188  41.528  14.141  11.033
30764W        W 3189  24.627  28.055   3.334
30765W        W 3190  36.065   0.759   0.418
30766W        W 3191  22.553  17.141  11.092
30767W        W 3192  21.537   3.380  10.517
30768W        W 3193   4.357   4.814   1.219
30769W        W 3194  24.568   7.819   1.815
30770W        W 3195  22.011  42.014  12.471
30771W        W 3196  35.012  36.073  12.070
30772W        W 3197  20.608   8.658  13.025
30773W        W 3198  35.038  32.968   1.235
30774W        W 3199  25.489  44.345   1.260
30775W        W 3200  41.798  43.276   2.827
30776W        W 3201  38.955  39.469  13.423
30777W        W 3202   4.436   8.173  13.480
30778W        W 3203   9.724  22.203  13.455
30779W        W 3204  29.128  39.468  13.043
30780W        W 3205  35.968   0.768  11.047
30781W        W 3206  16.679  19.129  13.509
30782W        W 3207  25.132  23.193   1.408
30783W        W 3208  11.303  35.502  10.913
30784W        W 3209  29.483   7.862   2.668
30785W        W 3210   3.424  32.498  11.968
30786W        W 3211  18.700  39.430   2.391
30787W        W 3212  35.069  41.831   1.229
30788W        W 3213   4.923  16.721  11.436
30789W        W 3214  17.587  10.830   0.914
30790W        W 3215  36.886  23.011   2.845
30791W        W 3216   4.205  27.070  13.414
30792W        W 3217  34.439  28.488  10.632
30793W        W 3218  20.114  30.450  10.964
30794W        W 3219  26.550  24.715   2.863
30795W        W 3220  13.627  43.335  13.473
30796W        W 3221  10.374  10.790  14.837
30797W        W 3222  25.527   4.783   9.934
30798W        W 3223   6.851  10.750  11.968
30799W        W 3224  32.542  33.085  11.501
30800W        W 3225  39.318   8.328  13.015
30801W        W 3226   1.807   9.846   3.711
30802W        W 3227  41.479   0.755   2.888
30803W        W 3228  21.649   2.915  11.006
30804W        W 3229  14.268   0.920  10.924
30805W        W 3230  40.315  36.075   4.347
30806W        W 3231  28.515  19.744   3.182
30807W        W 3232  17.728  15.662   4.605
30808W        W 3233  40.036  12.266   0.904
30809W        W 3234  11.281  16.162  12.833
30810W        W 3235   6.780  29.659   4.135
30811W        W 3236  24.705  11.703   1.798
30812W        W 3237   9.336  11.742   4.253
30813W        W 3238  18.235   8.901   4.251
30814W        W 3239   9.318  11.731  12.871
30815W        W 3240  11.170  17.566   3.826
30816W        W 3241  41.956   7.390   4.766
30817W        W 3242  32.097  13.734  13.366
30818W        W 3243  28.584  23.130   1.847
30819W        W 3244   8.687   1.423  11.889
30820W        W 3245  29.016  21.157   9.510
30821W        W 3246  31.522  40.511   4.658
30822W        W 3247  40.877  30.537  12.917
30823W        W 3248  43.948  20.713   2.299
30824W        W 3249  24.524  32.622  14.295
30825W        W 3250  36.036  13.129  13.368
30826W        W 3251  13.276  41.866   0.244
30827W        W 3252  29.575  31.151   3.195
30828W        W 3253  11.829  23.212  11.561
30829W        W 3254   2.870  26.675   4.267
30830W        W 3255  13.766  43.399   3.150
30831W        W 3256   9.839  28.612   4.718
30832W        W 3257  37.461   3.886  11.597
30833W        W 3258  23.192  41.867   4.679
30834W        W 3259  32.418  19.597  13.526
30835W        W 3260  13.788   8.704   3.149
30836W        W 3261   6.332   3.887   2.873
30837W        W 3262   2.229  22.171   2.870
30838W        W 3263  40.937  42.804   3.255
30839W        W 3264   6.392  12.709   0.774
30840W        W 3265  30.934  43.490  12.996
30841W        W 3266   7.912  19.639  10.455
30842W        W 3267  13.741  21.019  14.857
30843W        W 3268  21.104  28.126  11.543
30844W        W 3269  32.596  14.679   3.360
30845W        W 3270  37.067  43.796   1.278
30846W        W 3271  23.086  27.017  11.508
30847W        W 3272   4.843  11.767  12.915
30848W        W 3273  28.616   0.984  10.999
30849W        W 3274  11.812   1.736   0.455
30850W        W 3275  10.222   7.202  12.420
30851W        W 3276  25.682  18.611   3.292
30852W        W 3277   6.915  28.119  13.395
30853W        W 3278  15.700   5.715  11.950
30854W        W 3279   7.212  42.368   1.316
30855W        W 3280   0.843  43.288   1.897
30856W        W 3281  20.577  38.022   4.701
30857W        W 3282  35.416   6.421   1.841
30858W        W 3283  21.741  34.935   4.157
30859W        W 3284  21.571  41.521   3.755
30860W        W 3285  19.774   5.277   2.881
30861W        W 3286  17.083  16.707   4.787
30862W        W 3287  24.704   6.355  11.605
30863W        W 3288  23.687  20.707   2.670
30864W        W 3289  32.031  22.523  14.325
30865W        W 3290  39.374  11.753   2.229
30866W        W 3291  20.652  30.097   0.434
30867W        W 3292  11.339   7.394   1.442
30868W        W 3293  27.626   8.748   0.801
30869W        W 3294  33.456  35.370  14.917
30870W        W 3295   9.350  42.361   1.920
30871W        W 3296  26.974  44.453   0.765
30872W        W 3297   0.448  25.636   3.845
30873W        W 3298   2.935  36.497   4.284
30874W        W 3299  15.763  31.538   3.647
30875W        W 3300  24.546  29.655  13.058
30876W        W 3301   8.193  11.778   0.864
30877W        W 3302  35.010   6.225   0.822
30878W        W 3303   9.366  25.991  11.404
30879W        W 3304  32.397  14.811   1.862
30880W        W 3305  43.398  32.963  14.507
30881W        W 3306  29.471  29.636  10.482
30882W        W 3307   0.414  27.161  13.909
30883W        W 3308  21.623  41.346  12.830
30884W        W 3309   9.153  17.660  12.490
30885W        W 3310  10.228   7.679  11.080
30886W        W 3311  15.694  34.052   0.749
30887W        W 3312  37.912   6.807  10.942
30888W        W 3313  43.434   0.434  11.429
30889W        W 3314  35.439  18.185  11.503
30890W        W 3315  26.558  13.810   3.768
30891W        W 3316  31.476   4.439  11.539
30892W        W 3317  13.652   0.330   0.263
30893W        W 3318   9.789  37.501  14.464
30894W        W 3319  34.954  16.087  10.914
30895W        W 3320  16.692  30.970   1.297
30896W        W 3321  39.462  10.869  11.904
30897W        W 3322   7.866  43.389  10.587
30898W        W 3323  40.387   6.325  14.308
30899W        W 3324   8.333   6.224  14.968
30900W        W 3325  39.815  22.134  12.421
30901W        W 3326  27.127  28.606  11.032
30902W        W 3327  39.347   5.376  14.003
30903W        W 3328   0.485  11.255  10.636
30904W        W 3329  21.609  30.035  11.119
30905W        W 3330  31.552   8.839   3.260
30906W        W 3331  18.089  24.223  11.978
30907W        W 3332  23.703  41.495   4.741
30908W        W 3333  40.442  41.393  14.412
30909W        W 3334  22.031  14.636   2.353
30910W        W 3335  35.552   4.303  14.895
30911W        W 3336   4.783  43.478   3.244
30912W        W 3337  32.517   7.336  11.548
30913W        W 3338  36.532  28.649   3.653
30914W        W 3339  13.614  42.375   3.824
30915W        W 3340  20.565  13.149  10.637
30916W        W 3341  21.672   3.232   0.789
30917W        W 3342  27.941  10.714  10.938
30918W        W 3343  43.849  21.607   3.801
30919W        W 3344  17.180   6.241   1.760
30920W        W 3345   1.905  36.534   1.245
30921W        W 3346  23.677  24.051   0.843
30922W        W 3347  41.996  24.202   1.884
30923W        W 3348   0.771   4.748  11.895
30924W        W 3349  27.996  34.103   1.750
30925W        W 3350  19.098  10.357  12.065
30926W        W 3351  13.131   1.874  11.933
30927W        W 3352   4.777   8.202   0.481
30928W        W 3353   4.771  41.889  13.434
30929W        W 3354  29.980  34.101   4.655
30930W        W 3355  43.368  40.039   4.173
30931W        W 3356   5.214  44.293  11.611
30932W        W 3357  26.179  26.676  13.879
30933W        W 3358  25.976  16.177  12.016
30934W        W 3359  30.565  12.231   0.949
30935W        W 3360  34.002  29.940   2.367
30936W        W 3361  14.232  36.916  12.836
30937W        W 3362  20.119  14.605   4.353
30938W        W 3363  26.546   6.397  10.639
30939W        W 3364  18.675   1.351   3.669
30940W        W 3365  29.116   3.216  13.440
30941W        W 3366  14.779  11.360  12.082
30942W        W 3367  23.991  39.331   3.317
30943W        W 3368  44.883   2.764  13.496
30944W        W 3369  13.740  24.143  13.950
30945W        W 3370   3.956  44.937  12.395
30946W        W 3371  36.963   3.724   4.803
30947W        W 3372  31.449   5.377   0.755
30948W        W 3373  30.967  36.417  12.823
30949W        W 3374  37.994  37.073  14.366
30950W        W 3375  28.463  42.973  11.500
30951W        W 3376  24.642  30.909   3.757
30952W        W 3377  33.456  32.529   3.153
30953W        W 3378  43.007  39.459  11.095
30954W        W 3379  44.333   7.205  12.507
30955W        W 3380   8.251   0.467   1.392
30956W        W 3381   3.788  20.667   3.178
30957W        W 3382  14.166  38.003  13.060
30958W        W 3383   2.340  33.514   2.730
30959W        W 3384   1.425  32.616   5.254
30960W        W 3385  19.691  30.553   4.158
30961W        W 3386  30.498   7.290   4.189
30962W        W 3387   7.283  41.429   3.385
30963W        W 3388  28.594  44.937   4.804
30964W        W 3389  41.039  42.404  12.901
30965W        W 3390  18.181  40.463  10.605
30966W        W 3391   9.779  20.201  14.835
30967W        W 3392  41.977  32.966  12.910
30968W        W 3393  34.529  30.533   0.436
30969W        W 3394  42.827  20.193  10.933
30970W        W 3395  15.224  32.949  13.491
30971W        W 3396   5.239  13.742   0.434
30972W        W 3397   7.396  43.294  10.409
30973W        W 3398  42.517  33.965   3.758
30974W        W 3399  33.441  16.162   2.816
30975W        W 3400  11.343   4.840  11.100
30976W        W 3401   1.905  27.138   2.395
30977W        W 3402  26.071  18.745  13.415
30978W        W 3403  25.496   3.830  11.025
30979W        W 3404   3.825  27.580   3.301
30980W        W 3405   7.303  38.915   0.808
30981W        W 3406  23.197  14.598  11.985
30982W        W 3407  17.282  42.793   1.293
30983W        W 3408  31.134  40.497  14.783
30984W        W 3409   2.907   9.164  10.443
30985W        W 3410  40.443  40.356   1.818
30986W        W 3411  13.222  15.600  10.043
30987W        W 3412  33.497  35.918   1.452
30988W        W 3413  37.431   6.731  13.818
30989W        W 3414  20.532  10.871  12.577
30990W        W 3415  43.515  36.539  11.055
30991W        W 3416  13.247  27.484  13.498
30992W        W 3417   1.867  12.333   1.847
30993W        W 3418  14.275  10.640   2.751
30994W        W 3419  44.398  19.061   2.407
30995W        W 3420  22.650  33.560  12.847
30996W        W 3421  25.513  16.722   2.185
30997W        W 3422  23.712  20.669   3.296
30998W        W 3423  20.590  25.063   4.232
30999W        W 3424  11.844  39.343  10.412
31000W        W 3425   7.679   1.403   3.287
31001W        W 3426  18.232  39.048   1.335
31002W        W 3427  41.477  16.665  11.900
31003W        W 3428  13.195  29.606   3.363
31004W        W 3429  16.269   6.892  10.425
31005W        W 3430  40.961  31.583   1.228
31006W        W 3431  36.356   7.190   4.702
31007W        W 3432  26.958  43.980   2.767
31008W        W 3433   0.476  23.996   2.709
31009W        W 3434  29.073  42.398   0.730
31010W        W 3435  14.185  13.110   2.282
31011W        W 3436   6.408   9.742  11.062
31012W        W 3437   3.413  37.074  11.004
31013W        W 3438   5.352  19.706  10.469
31014W        W 3439  21.631   0.399   2.822
31015W        W 3440   6.882   8.313   0.244
31016W        W 3441   9.876  28.480   0.385
31017W        W 3442  11.747   1.356  11.009
31018W        W 3443  33.943  10.165  11.400
31019W        W 3444   1.271   0.786  12.859
31020W        W 3445  33.978  27.097  14.786
31021W        W 3446   5.825  15.241   4.152
31022W        W 3447   3.402  10.815   1.284
31023W        W 3448  12.701  30.147  12.356
31024W        W 3449  27.452   1.963   3.770
31025W        W 3450   5.301   2.778   1.859
31026W        W 3451   0.866  18.265  13.365
31027W        W 3452  37.993   5.196  14.818
31028W        W 3453  42.338  40.847  13.901
31029W        W 3454  30.974   6.397   1.716
31030W        W 3455  26.550  15.121   5.084
31031W        W 3456   6.279  18.737   2.781
31032W        W 3457  15.162  22.685  13.524
31033W        W 3458  12.837  34.531   1.214
31034W        W 3459   5.257   4.368  11.389
31035W        W 3460  43.869  18.178  12.467
31036W        W 3461  24.487   0.258  13.798
31037W        W 3462  37.867  24.531   2.852
31038W        W 3463  38.462  18.147  14.925
31039W        W 3464  41.536  44.434  12.088
31040W        W 3465  41.003   3.372   3.228
31041W        W 3466   9.347   6.760   1.908
31042W        W 3467  37.382  17.183   2.879
31043W        W 3468  43.786  18.663  13.865
31044W        W 3469  18.740  29.563  13.362
31045W        W 3470   5.200  42.433   2.843
31046W        W 3471  22.702  44.946   3.214
31047W        W 3472  44.453   4.418  12.858
31048W        W 3473  41.958  23.193  14.882
31049W        W 3474  32.612  36.923   3.160
31050W        W 3475  42.921  22.118   3.716
31051W        W 3476  31.971  28.593   3.167
31052W        W 3477  26.139  26.607  11.453
31053W        W 3478  36.882   6.846  12.829
31054W        W 3479   6.681  33.971   3.242
31055W        W 3480  36.915  43.436  13.060
31056W        W 3481   6.773  31.474  12.935
31057W        W 3482  38.879  44.952  10.908
31058W        W 3483   8.250   8.325  11.077
31059W        W 3484   0.273   9.261   3.312
31060W        W 3485  32.426  40.915   3.366
31061W        W 3486  30.962   4.815  14.402
31062W        W 3487  29.007  34.411   4.605
31063W        W 3488  27.669  25.690  12.395
31064W        W 3489  13.752  11.274  14.373
31065W        W 3490  44.484  16.706   1.774
31066W        W 3491  18.596  38.965  14.368
31067W        W 3492   2.422  38.458   3.647
31068W        W 3493  19.735  38.457  11.034
31069W        W 3494   7.391  39.036   3.724
31070W        W 3495  38.332  23.181   3.736
31071W        W 3496   6.780  24.182   0.915
31072W        W 3497  23.995   0.767   1.326
31073W        W 3498  25.708   5.422   0.816
31074W        W 3499  43.806  32.463  12.349
31075W        W 3500  34.409  18.719  14.373
31076W        W 3501  20.248  41.411  10.535
31077W        W 3502  23.526  35.931  11.983
31078W        W 3503   9.211  44.006   0.343
31079W        W 3504  17.770  44.303  10.014
31080W        W 3505  18.245  30.083   3.850
31081W        W 3506  36.370  30.094   4.825
31082W        W 3507  21.210  23.107   5.225
31083W        W 3508  16.667  34.395   2.839
31084W        W 3509   0.976   1.832   3.251
31085W        W 3510  32.583  10.780  12.467
31086W        W 3511  44.830  41.877   0.397
31087W        W 3512  31.509  17.658  11.927
31088W        W 3513   6.379  12.723  14.316
31089W        W 3514  13.253   5.863  13.373
31090W        W 3515  25.049  33.928   0.814
31091W        W 3516   9.360  12.830   0.872
31092W        W 3517  25.644  44.427   2.672
31093W        W 3518  12.728  42.800  12.930
31094W        W 3519  23.208  14.720  13.548
31095W        W 3520  38.841  25.196  10.034
31096W        W 3521  43.320   6.402  13.321
31097W        W 3522   3.880   1.265   0.280
31098W        W 3523  22.159  43.805   1.241
31099W        W 3524  19.048   0.403   2.672
31100W        W 3525   8.349  23.679  14.810
31101W        W 3526   7.764  19.276  10.477
31102W        W 3527  24.550  24.495  10.490
31103W        W 3528  44.479  24.530  13.819
31104W        W 3529   8.889  38.951  10.429
31105W        W 3530  26.045   0.908  12.096
31106W        W 3531  29.522  35.006  13.970
31107W        W 3532   6.332  22.063  14.808
31108W        W 3533  12.790   1.807   0.893
31109W        W 3534  30.659   6.307  11.535
31110W        W 3535  14.306  14.108   2.738
31111W        W 3536   9.678  44.761  14.339
31112W        W 3537  19.712  30.545   1.248
31113W        W 3538  44.865  25.045   0.427
31114W        W 3539   3.864   3.303   0.305
31115W        W 3540  41.972  17.199  11.415
31116W        W 3541  19.697   2.226   3.201
31117W        W 3542  21.735  17.105  11.435
31118W        W 3543  39.912   4.787   4.735
31119W        W 3544  34.507   1.946   1.278
31120W        W 3545  43.512  32.956   4.213
31121W        W 3546  37.440  19.729  12.411
31122W        W 3547   7.354  11.712   3.198
31123W        W 3548  42.452  32.542  14.971
31124W        W 3549  30.011   8.161   2.719
31125W        W 3550  31.041  35.508   3.737
31126W        W 3551  42.811  35.065  14.772
31127W        W 3552  24.563  33.415   3.854
31128W        W 3553  44.434  12.260  10.527
31129W        W 3554  37.939  23.674   5.154
31130W        W 3555  43.330  12.256   3.861
31131W        W 3556  44.942  34.893   9.994
31132W        W 3557  40.914   9.355   0.245
31133W        W 3558  37.023  16.791  14.959
31134W        W 3559  22.152  16.753   3.761
31135W        W 3560  19.567   0.343   3.805
31136W        W 3561  30.625   9.300  14.361
31137W        W 3562  23.671  10.857   0.771
31138W        W 3563  14.779  30.658  14.492
31139W        W 3564  15.261  25.506   4.633
31140W        W 3565  12.689  32.451   4.826
31141W        W 3566  35.939  33.446   2.250
31142W        W 3567   4.916  42.295   2.254
31143W        W 3568  22.671   8.659   1.864
31144W        W 3569  34.898  11.835   2.792
31145W        W 3570  31.587  40.426  13.942
31146W        W 3571   6.365  24.227  12.899
31147W        W 3572  22.231  31.636   2.287
31148W        W 3573  10.820  17.281  12.096
31149W        W 3574  37.527  33.892   3.854
31150W        W 3575  15.300   0.323  12.414
31151W        W 3576  24.517   3.812   0.299
31152W        W 3577  10.260  10.295   1.381
31153W        W 3578   2.869   7.248   4.340
31154W        W 3579  17.211  23.164   1.754
31155W        W 3580   4.320  17.273   1.880
31156W        W 3581  20.211   4.227  11.988
31157W        W 3582  13.747  23.199   0.385
31158W        W 3583  39.912  42.868   1.367
31159W        W 3584  21.064  26.556   2.704
31160W        W 3585   5.334  30.413   0.932
31161W        W 3586  16.099  13.309  10.596
31162W        W 3587   6.414  19.581   3.329
31163W        W 3588   1.859  12.733  12.399
31164W        W 3589  13.110   8.816   1.356
31165W        W 3590  31.938   8.710  13.386
31166W        W 3591   4.828  16.669  13.906
31167W        W 3592  20.200   6.279  13.064
31168W        W 3593  26.009  42.899   0.896
31169W        W 3594   2.866   8.393  10.902
31170W        W 3595  13.254  39.954   4.610
31171W        W 3596  19.623  28.105   1.287
31172W        W 3597  33.056   9.688  13.369
31173W        W 3598  30.981  13.262   1.424
31174W        W 3599   3.764  44.946   3.629
31175W        W 3600  29.612   2.734  10.423
31176W        W 3601   9.798   7.324  13.797
31177W        W 3602  23.233  24.160  10.590
31178W        W 3603  12.207  42.933   1.384
31179W        W 3604  18.642  29.515  10.465
31180W        W 3605  15.654  35.447  12.361
31181W        W 3606  14.707  14.258   3.239
31182W        W 3607  18.547  36.422  14.392
31183W        W 3608  37.371   7.409  12.447
31184W        W 3609  35.028   2.731  14.760
31185W        W 3610  21.262  22.722   2.740
31186W        W 3611   5.805   9.817   1.888
31187W        W 3612  13.696  34.895  14.320
31188W        W 3613   0.801  35.443   0.753
31189W        W 3614  21.254  17.299  12.835
31190W        W 3615   8.785  21.106  14.492
31191W        W 3616  30.062   3.762   2.201
31192W        W 3617  23.178  26.174   1.215
31193W        W 3618   1.917  12.729  11.097
31194W        W 3619  33.574   8.248   4.274
31195W        W 3620  29.561   4.344   1.429
31196W        W 3621  39.471   1.839   1.829
31197W        W 3622  28.184   2.927   3.728
31198W        W 3623  39.846  12.209   3.160
31199W        W 3624   1.882  41.325   2.857
31200W        W 3625  26.491  26.991  11.418
31201W        W 3626   2.414  37.394   4.761
31202W        W 3627  31.585  16.789  13.482
31203W        W 3628  43.314  34.478  12.524
31204W        W 3629  20.205  22.635  10.139
31205W        W 3630  41.983  43.369   0.926
31206W        W 3631   4.430  11.222  10.460
31207W        W 3632  23.532  38.851  13.378
31208W        W 3633  13.348  39.418  10.526
31209W        W 3634  43.350  19.690   9.567
31210W        W 3635  20.679  39.437  14.830
31211W        W 3636  35.866   3.257  11.054
31212W        W 3637  37.392   4.426   1.817
31213W        W 3638   7.847  43.816   4.769
31214W        W 3639  33.030  21.107   4.149
31215W        W 3640   0.747  39.501  10.902
31216W        W 3641  33.572   1.739   1.269
31217W        W 3642  44.332   1.424   3.697
31218W        W 3643   4.807  32.065  14.376
31219W        W 3644   5.337   8.899  13.520
31220W        W 3645  21.537  17.714   0.778
31221W        W 3646   5.323  33.066  13.808
31222W        W 3647  43.513  25.179   1.211
31223W        W 3648  28.560  23.570   0.429
31224W        W 3649  34.921  13.186   2.203
31225W        W 3650  17.722  37.414   2.191
31226W        W 3651  43.858  15.658   1.728
31227W        W 3652  18.242  19.049   4.758
31228W        W 3653  20.576  36.567  13.028
31229W        W 3654   8.262   7.390  11.581
31230W        W 3655   4.387   1.294  12.866
31231W        W 3656   2.300  43.275   4.703
31232W        W 3657  23.536  36.078  13.961
31233W        W 3658  31.064   4.921  11.966
31234W        W 3659   0.363  42.293   3.701
31235W        W 3660  22.655  33.050   0.382
31236W        W 3661  17.743  32.460   0.415
31237W        W 3662  12.357  26.174   3.752
31238W        W 3663  31.493  13.655  10.638
31239W        W 3664   5.269  21.745  10.435
31240W        W 3665  26.480  21.725   2.804
31241W        W 3666  10.156  12.828   4.339
31242W        W 3667  21.631  34.959  11.437
31243W        W 3668  42.881  25.055  12.911
31244W        W 3669  13.274  18.083  12.533
31245W        W 3670  14.722  31.441  11.113
31246W        W 3671   6.826   7.377   3.326
31247W        W 3672  40.799  18.613  11.862
31248W        W 3673  40.514  39.852   3.324
31249W        W 3674  35.542  14.821  11.479
31250W        W 3675   2.268   6.741   1.231
31251W        W 3676  10.789  20.703   4.683
31252W        W 3677  15.311   7.377  13.936
31253W        W 3678   7.354   1.446  10.495
31254W        W 3679  35.562  31.475  11.889
31255W        W 3680  18.170  32.994   9.570
31256W        W 3681  34.077  44.336   4.704
31257W        W 3682   6.353  39.367  12.560
31258W        W 3683  34.375  23.492  14.348
31259W        W 3684  44.827   2.950   2.902
31260W        W 3685  21.079  35.469   2.299
31261W        W 3686  39.927  37.522  14.016
31262W        W 3687  17.128  20.236   1.243
31263W        W 3688   5.390  37.552  10.404
31264W        W 3689  16.783  12.324   1.897
31265W        W 3690  25.190  20.055  13.004
31266W        W 3691  20.245   8.893  12.532
31267W        W 3692  17.228   7.838   4.711
31268W        W 3693   7.323  26.502  12.553
31269W        W 3694  38.989  27.004  11.499
31270W        W 3695  14.331  34.983  11.397
31271W        W 3696  13.187  20.272   1.326
31272W        W 3697  18.274   2.722   2.739
31273W        W 3698   4.814  14.644   2.207
31274W        W 3699  30.492  43.826   4.177
31275W        W 3700   3.299  37.866   2.363
31276W        W 3701  22.995  27.571  11.436
31277W        W 3702  29.534  12.214   1.369
31278W        W 3703  11.220  22.677   9.973
31279W        W 3704  37.414  33.442  11.578
31280W        W 3705  23.540  44.934   4.622
31281W        W 3706  44.450   9.255   0.813
31282W        W 3707   8.377  35.092   2.870
31283W        W 3708  33.513  33.423   2.308
31284W        W 3709  41.478  27.691   2.379
31285W        W 3710  10.204  42.994  13.972
31286W        W 3711  11.325  36.428  12.933
31287W        W 3712  28.931  23.178   0.869
31288W        W 3713   2.330  14.247  11.405
31289W        W 3714  11.280   9.285  11.941
31290W        W 3715  23.612  37.381  12.516
31291W        W 3716  13.631  42.472  13.882
31292W        W 3717  24.973  44.289   2.825
31293W        W 3718  27.155   7.873   4.162
31294W        W 3719   0.860  18.659   3.264
31295W        W 3720   0.336  42.931  11.595
31296W        W 3721  28.569   3.390  10.501
31297W        W 3722  20.076  17.113  11.523
31298W        W 3723  13.152  39.004  12.386
31299W        W 3724   9.877  25.678  10.544
31300W        W 3725  33.440  19.710  14.847
31301W        W 3726  39.948   9.879  12.848
31302W        W 3727  31.456  13.766  11.493
31303W        W 3728  18.051   7.759   4.807
31304W        W 3729  31.450  40.002  12.034
31305W        W 3730  36.493  43.843  13.498
31306W        W 3731  13.818   8.169  13.382
31307W        W 3732   9.287  36.910  10.511
31308W        W 3733  28.052  42.508   1.913
31309W        W 3734  27.621   4.351  12.956
31310W        W 3735   6.337   2.946  12.442
31311W        W 3736  34.468  24.206  10.406
31312W        W 3737  25.532  25.539  10.980
31313W        W 3738  21.733   9.386  11.998
31314W        W 3739  36.027  30.555   2.758
31315W        W 3740  30.530  29.583  13.344
31316W        W 3741  13.233  42.871  14.493
31317W        W 3742  28.076  44.770   2.317
31318W        W 3743   5.803  24.082   3.836
31319W        W 3744  38.534  10.784   4.833
31320W        W 3745  35.369  33.085  11.091
31321W        W 3746   2.386  11.762  14.278
31322W        W 3747  37.926  39.506  10.925
31323W        W 3748  42.897  34.946   4.630
31324W        W 3749  17.604   9.692   0.360
31325W        W 3750  40.394  13.746  13.426
31326W        W 3751  24.105   5.205  12.439
31327W        W 3752  22.592  14.831  13.353
31328W        W 3753  25.181  12.142   2.366
31329W        W 3754   9.707  35.395   4.771
31330W        W 3755  39.533  24.023   1.287
31331W        W 3756  38.830   1.294  13.808
31332W        W 3757  22.250  43.310   2.384
31333W        W 3758  17.704  14.125   1.218
31334W        W 3759  21.174  35.447  11.555
31335W        W 3760  40.050  17.667  12.368
31336W        W 3761  16.188  11.233  13.965
31337W        W 3762   0.456  14.318  11.995
31338W        W 3763  22.549  17.621  10.412
31339W        W 3764  14.187  10.759  11.477
31340W        W 3765  42.027  19.627   3.296
31341W        W 3766  14.611  42.800  14.794
31342W        W 3767  42.831   9.754   2.183
31343W        W 3768  41.504  15.324   3.356
31344W        W 3769  17.567  17.247  14.461
31345W        W 3770  24.035   4.739   3.324
31346W        W 3771  12.826  21.254  11.427
31347W        W 3772   3.228  19.569  13.859
31348W        W 3773  18.289  42.793  14.353
31349W        W 3774   4.300  16.577   1.722
31350W        W 3775   9.718  36.041   4.297
31351W        W 3776  15.283  17.211  12.450
31352W        W 3777   0.820  21.610   4.839
31353W        W 3778  43.382   9.783  14.305
31354W        W 3779  21.614  28.471  13.847
31355W        W 3780  17.152  20.129   2.268
31356W        W 3781  41.421  13.233  14.383
31357W        W 3782  32.062  31.057  13.309
31358W        W 3783  11.346  38.408   2.898
31359W        W 3784   4.239  24.026   4.647
31360W        W 3785  44.879  30.467  12.074
31361W        W 3786  41.421  15.308  12.403
31362W        W 3787  10.152  21.742   1.883
31363W        W 3788  33.576   8.819   3.759
31364W        W 3789   3.265   0.786   2.362
31365W        W 3790  18.272  33.995   1.740
31366W        W 3791  22.670   6.873  12.027
31367W        W 3792  19.268  42.435  14.897
31368W        W 3793  30.617  17.068  14.826
31369W        W 3794  16.297  40.805  11.041
31370W        W 3795  39.358  20.670   4.118
31371W        W 3796   3.301  12.204   3.794
31372W        W 3797  24.666  44.406  11.484
31373W        W 3798   2.937  42.949  13.053
31374W        W 3799  33.908  13.625   2.302
31375W        W 3800  41.348  42.506  12.995
31376W        W 3801  17.305  38.922   3.218
31377W        W 3802   4.893  32.622   1.705
31378W        W 3803   4.820   3.941   4.644
31379W        W 3804  18.772  33.407   2.859
31380W        W 3805  15.630  30.119   2.835
31381W        W 3806  16.078  22.710  11.568
31382W        W 3807  28.127  12.703  13.960
31383W        W 3808  19.048  38.984   1.222
31384W        W 3809  35.603  39.896   4.619
31385W        W 3810   3.306  34.016   2.832
31386W        W 3811  20.738  24.669  10.580
31387W        W 3812   7.730  15.730  10.614
31388W        W 3813   4.705   7.279  10.140
31389W        W 3814  12.679  19.207  12.909
31390W        W 3815  22.197   0.295  11.537
31391W        W 3816   2.774  11.327  12.853
31392W        W 3817   7.322  14.336  11.992
31393W        W 3818   8.384   0.344  13.841
31394W        W 3819  39.364  36.581  14.384
31395W        W 3820   6.777  21.031  14.349
31396W        W 3821   0.871   6.803   1.345
31397W        W 3822  22.599  22.225   2.782
31398W        W 3823  24.714   4.429   2.220
31399W        W 3824  16.263   7.270  13.492
31400W        W 3825  44.983  12.773  14.459
31401W        W 3826   6.742  29.032   0.877
31402W        W 3827  26.163  29.591   0.828
31403W        W 3828   2.861  30.059  12.893
31404W        W 3829  24.519   9.652  12.938
31405W        W 3830  41.524  17.162   3.216
31406W        W 3831  32.077   2.824   2.776
31407W        W 3832  18.282  25.001  13.395
31408W        W 3833  28.615   7.834  11.608
31409W        W 3834  14.130  15.716   2.197
31410W        W 3835   7.293  36.355  14.992
31411W        W 3836  40.398   8.732   4.202
31412W        W 3837  38.944   8.811  14.948
31413W        W 3838  18.065  17.195   3.649
31414W        W 3839   4.833  42.823  11.463
31415W        W 3840  21.516   4.892   0.958
31416W        W 3841  12.170   1.306  10.936
31417W        W 3842  39.480  30.465  14.785
31418W        W 3843  15.263  14.802  14.863
31419W        W 3844  19.632  15.683  13.017
31420W        W 3845   9.206  20.200   0.451
31421W        W 3846  31.499  15.230   4.250
31422W        W 3847  22.142  13.272   5.287
31423W        W 3848  41.953  22.152   4.799
31424W        W 3849  23.076   7.868   4.231
31425W        W 3850   7.213  44.308  11.444
31426W        W 3851  20.165  18.130  13.453
31427W        W 3852  28.590  38.531  12.515
31428W        W 3853   2.270  16.716   3.686
31429W        W 3854  10.842  21.552  13.875
31430W        W 3855   6.264  30.546  14.003
31431W        W 3856  17.104  25.980  14.417
31432W        W 3857  30.622  41.335  11.925
31433W        W 3858  27.095   3.235  10.479
31434W        W 3859  21.620  27.089  10.910
31435W        W 3860  24.646  18.249   1.384
31436W        W 3861  31.953   3.457   1.763
31437W        W 3862  22.060  24.704   3.201
31438W        W 3863  11.637  26.195  11.570
31439W        W 3864  21.590  12.279   0.895
31440W        W 3865  23.593  19.204  14.423
31441W        W 3866  42.519  11.127  13.990
31442W        W 3867  34.083   8.255  11.436
31443W        W 3868   6.354   1.245  11.984
31444W        W 3869  31.030   2.920   4.228
31445W        W 3870  13.125   3.228   2.384
31446W        W 3871  43.417  43.304  13.517
31447W        W 3872  41.985   2.297  12.096
31448W        W 3873  32.443  20.158  12.042
31449W        W 3874   2.892  40.355  11.542
31450W        W 3875  31.967  14.713  10.620
31451W        W 3876  24.525  20.272   2.775
31452W        W 3877  28.952  22.641  14.029
31453W        W 3878  42.363  38.072  11.540
31454W        W 3879  42.940   2.450  12.852
31455W        W 3880  12.660  34.576   0.467
31456W        W 3881   1.262  20.031  14.515
31457W        W 3882  30.061   6.847  13.361
31458W        W 3883  13.699  18.073   4.121
31459W        W 3884  37.510  20.251  12.554
31460W        W 3885  13.677  33.414  13.548
31461W        W 3886  39.811  36.448  10.446
31462W        W 3887  11.847  38.852  13.877
31463W        W 3888  14.685  21.213  11.967
31464W        W 3889  13.828  30.015  11.045
31465W        W 3890   6.855  13.156   4.182
31466W        W 3891  36.466   8.199   4.685
31467W        W 3892  38.918   0.343   4.776
31468W        W 3893  27.672  28.086  12.417
31469W        W 3894   9.213  12.229  14.495
31470W        W 3895  32.446  16.258  12.408
31471W        W 3896  26.488   7.887  12.452
31472W        W 3897   4.900  11.363  14.948
31473W        W 3898  26.056   4.822  11.535
31474W        W 3899  17.629   0.796  11.078
31475W        W 3900  15.122  13.295   1.816
31476W        W 3901   9.207   5.861  14.800
31477W        W 3902  35.419  14.595  12.361
31478W        W 3903  32.435   8.244  14.494
31479W        W 3904  12.626  26.599   1.324
31480W        W 3905  16.293   8.284   0.953
31481W        W 3906   8.236  38.428  14.886
31482W        W 3907  23.186  22.647   3.635
31483W        W 3908  30.519  21.030  14.817
31484W        W 3909  43.887  25.012   2.880
31485W        W 3910  16.262   6.241   1.928
31486W        W 3911  18.155  43.767  12.383
31487W        W 3912  28.505   2.387   3.660
31488W        W 3913  19.142  15.312   1.280
31489W        W 3914  21.049  31.009   2.834
31490W        W 3915  26.562   7.890  11.893
31491W        W 3916  23.116  16.286   1.354
31492W        W 3917  42.517  42.811   4.671
31493W        W 3918  14.209  37.911  14.449
31494W        W 3919   0.432  27.015  10.893
31495W        W 3920  26.004  20.692   1.335
31496W        W 3921   3.952  38.022  11.530
31497W        W 3922  31.008  31.405   3.817
31498W        W 3923  32.449  27.018   3.683
31499W        W 3924  29.606  25.585  12.011
31500W        W 3925  22.592   7.762  14.901
31501W        W 3926  21.172  12.759   4.157
31502W        W 3927   8.840  22.251   2.672
31503W        W 3928   6.310  36.938  12.018
31504W        W 3929  11.654   8.162  12.360
31505W        W 3930   1.877  40.797   3.712
31506W        W 3931  12.202  35.064   4.621
31507W        W 3932  29.133   5.318  11.024
31508W        W 3933  32.423  12.171   2.379
31509W        W 3934  38.904   2.389  10.592
31510W        W 3935  39.824  25.701  12.084
31511W        W 3936  21.719  40.456   4.670
31512W        W 3937  38.415  12.278  11.551
31513W        W 3938  41.413  24.147  10.968
31514W        W 3939   3.808   9.824   0.778
31515W        W 3940  27.104  32.966  10.994
31516W        W 3941  16.720  40.024   0.943
31517W        W 3942  37.848  39.397  11.568
31518W        W 3943  23.724   7.911   0.476
31519W        W 3944  25.978  18.137  13.350
31520W        W 3945  31.120  16.175  11.988
31521W        W 3946  39.902   8.343  13.814
31522W        W 3947   7.358  30.164  12.826
31523W        W 3948  30.464  26.149   2.895
31524W        W 3949  20.136  21.236  12.481
31525W        W 3950   3.371  16.685  14.790
31526W        W 3951  25.086  26.638   1.312
31527W        W 3952  10.263  34.902  13.872
31528W        W 3953  20.686  27.476   1.739
31529W        W 3954  18.770  35.584   0.859
31530W        W 3955   3.926   5.779  13.943
31531W        W 3956  17.095  33.077   2.665
31532W        W 3957  32.399   2.890  11.519
31533W        W 3958  38.521   6.395  11.587
31534W        W 3959  19.725  43.790   4.714
31535W        W 3960  12.326  37.447   3.843
31536W        W 3961  30.164  13.796  13.820
31537W        W 3962  20.208  33.987   4.819
31538W        W 3963  29.534  28.944   0.896
31539W        W 3964  42.527  31.563   3.770
31540W        W 3965   6.404   5.697  14.508
31541W        W 3966  11.637  41.330   0.963
31542W        W 3967  43.817  15.790   0.395
31543W        W 3968  41.960  20.568   1.856
31544W        W 3969  15.163  31.428  11.379
31545W        W 3970  32.611  25.130   3.719
31546W        W 3971  17.568  15.776  13.048
31547W        W 3972  44.287  15.222  14.895
31548W        W 3973  35.418  25.165  13.835
31549W        W 3974  25.682  20.561   2.238
31550W        W 3975  37.045   6.296   1.784
31551W        W 3976   1.245  19.218   4.126
31552W        W 3977  10.290  12.700  12.510
31553W        W 3978  30.082  27.020  11.997
31554W        W 3979  21.146   6.279   2.365
31555W        W 3980  11.277  33.937  11.922
31556W        W 3981  13.148   7.264   4.181
31557W        W 3982  22.103  12.725  12.980
31558W        W 3983  39.896  28.961   2.729
31559W        W 3984  11.697  11.734   3.806
31560W        W 3985  42.979  39.464  13.821
31561W        W 3986  42.013  24.014  11.409
31562W        W 3987  42.445  20.038  12.831
31563W        W 3988  28.449   9.207  14.441
31564W        W 3989  10.777  22.679  12.856
31565W        W 3990  32.964   1.819   0.342
31566W        W 3991  18.242   8.260  12.854
31567W        W 3992  10.865  12.809  11.061
31568W        W 3993  43.926  25.215  12.507
31569W        W 3994   1.879  43.349  12.026
31570W        W 3995  31.565  28.589  11.419
31571W        W 3996  31.960   4.374   4.222
31572W        W 3997   1.396   2.734   2.854
31573W        W 3998   2.226  24.679  11.531
31574W        W 3999  44.321  41.404  14.786
31575W        W 4000   9.659  12.258  14.461
31576W        W 4001  35.521  35.490  11.892
31577W        W 4002  25.708  25.568   4.315
31578W        W 4003  41.863  16.706  11.878
31579W        W 4004  34.004  10.870   2.731
31580W        W 4005  29.645  42.799  13.040
31581W        W 4006  16.803   5.687   0.747
31582W        W 4007  26.075  15.239   2.310
31583W        W 4008   4.926  35.933  13.849
31584W        W 4009  17.624  12.208   1.232
31585W        W 4010  31.405  12.268  13.311
31586W        W 4011  44.432  18.706  13.327
31587W        W 4012  20.267  39.815   4.679
31588W        W 4013  35.008  29.153  10.624
31589W        W 4014  23.568  43.387   0.375
31590W        W 4015   1.747   3.740  14.899
31591W        W 4016  38.980   0.344  14.921
31592W        W 4017  19.560  44.286   5.159
31593W        W 4018  28.481  29.963   3.659
31594W        W 4019   7.370  38.840  13.909
31595W        W 4020  36.539  24.599  11.102
31596W        W 4021  34.439   2.766  13.805
31597W        W 4022  11.184  23.169   4.829
31598W        W 4023  39.921  37.536  11.987
31599W        W 4024  28.595  33.969   0.960
31600W        W 4025  16.130  17.776  10.530
31601W        W 4026  40.866  15.801  13.851
31602W        W 4027  28.548  29.038  13.934
31603W        W 4028   9.292   2.859  10.571
31604W        W 4029  36.996  21.731  14.344
31605W        W 4030  18.555  12.620  13.016
31606W        W 4031  26.665   7.730  14.788
31607W        W 4032  38.502  38.552   1.305
31608W        W 4033  31.023  38.837  12.091
31609W        W 4034  23.033  12.305   5.604
31610W        W 4035  43.769  35.035   0.370
31611W        W 4036  29.058  23.579   0.395
31612W        W 4037   2.265   7.265   1.867
31613W        W 4038  17.085  44.463   1.742
31614W        W 4039  39.879   4.303  14.903
31615W        W 4040  23.519  40.951  14.784
31616W        W 4041  19.208   9.698  13.880
31617W        W 4042  41.043  23.711  11.923
31618W        W 4043  33.040  13.243  10.583
31619W        W 4044   8.838  30.933  11.927
31620W        W 4045  19.043  25.635   0.367
31621W        W 4046  17.559  44.780  12.445
31622W        W 4047  11.138  18.069  12.872
31623W        W 4048  30.653  31.071   3.636
31624W        W 4049  34.910  11.755   4.160
31625W        W 4050  35.936   9.184   3.662
31626W        W 4051  22.602  32.508   0.261
31627W        W 4052   8.229  16.613  12.428
31628W        W 4053  40.823  24.137  12.093
31629W        W 4054  25.212   0.442  12.964
31630W        W 4055  10.180  43.787   3.828
31631W        W 4056  39.512  43.949  13.367
31632W        W 4057  29.932  24.142   9.567
31633W        W 4058   0.898  21.606  14.795
31634W        W 4059  16.104  10.872  13.945
31635W        W 4060  32.965   8.748  11.125
31636W        W 4061  11.374  35.918  12.857
31637W        W 4062   8.291  14.321  11.114
31638W        W 4063  25.641  35.857  11.545
31639W        W 4064  38.408  35.579  12.912
31640W        W 4065  38.335   3.250  13.982
31641W        W 4066  22.091   5.861   0.406
31642W        W 4067  25.598  32.978  14.467
31643W        W 4068  43.357  17.159   4.309
31644W        W 4069   4.850  10.371  14.948
31645W        W 4070  44.953  31.007   5.802
31646W        W 4071   5.919   1.799   3.723
31647W        W 4072  44.295   8.243  14.424
31648W        W 4073  44.315  34.984   0.868
31649W        W 4074  32.117  27.128  12.433
31650W        W 4075   8.169   6.380  12.889
31651W        W 4076  22.128  29.550   2.895
31652W        W 4077  39.323  31.911  11.016
31653W        W 4078   9.186   7.391  14.024
31654W        W 4079  27.197  44.776  14.921
31655W        W 4080  40.532  20.071  11.521
31656W        W 4081  44.922  19.202  10.985
31657W        W 4082  24.013  41.788  12.491
31658W        W 4083  30.986  28.012  11.970
31659W        W 4084  18.769  21.048   9.930
31660W        W 4085  11.658  14.246  13.462
31661W        W 4086   0.450  23.731  10.477
31662W        W 4087   2.405   9.798   0.951
31663W        W 4088  21.121  20.584  10.565
31664W        W 4089  27.992  23.068  14.274
31665W        W 4090  22.088  10.824  14.833
31666W        W 4091  42.003  25.479   1.393
31667W        W 4092  37.072   9.764   9.516
31668W        W 4093   6.204  40.348   0.812
31669W        W 4094  34.977   3.843   2.663
31670W        W 4095  25.623   0.475  11.390
31671W        W 4096   5.918  25.180   2.235
31672W        W 4097  27.507  34.497   1.749
31673W        W 4098  34.928  43.793   0.935
31674W        W 4099  40.956   0.896   1.898
31675W        W 4100  22.225  29.470  12.849
31676W        W 4101  20.532  10.760   2.766
31677W        W 4102  21.572  11.783  10.499
31678W        W 4103  12.298  21.620   9.518
31679W        W 4104   3.424  24.585  11.961
31680W        W 4105  28.589   2.321   1.788
31681W        W 4106  11.810  14.800   0.729
31682W        W 4107   3.785  30.643  11.027
31683W        W 4108  21.131  32.451   3.302
31684W        W 4109  15.277  32.031   0.424
31685W        W 4110  19.552  13.725  14.946
31686W        W 4111  41.473  39.996   3.295
31687W        W 4112   9.756  11.317  13.526
31688W        W 4113   0.307  20.669  14.006
31689W        W 4114   2.375   9.746   1.723
31690W        W 4115  14.300  12.290   0.778
31691W        W 4116  25.006  22.110   2.805
31692W        W 4117  33.935  21.040   4.657
31693W        W 4118   4.449   3.313   4.614
31694W        W 4119  27.529  13.230  13.340
31695W        W 4120   6.413   9.223   4.306
31696W        W 4121  42.973  21.017  12.952
31697W        W 4122  22.551  35.523   1.236
31698W        W 4123  34.538  25.691   1.322
31699W        W 4124   3.823  10.834   1.736
31700W        W 4125  18.682   1.431   0.759
31701W        W 4126   8.262   0.306  14.868
31702W        W 4127   0.494  14.832   2.295
31703W        W 4128  34.901   7.346  10.446
31704W        W 4129  43.374   2.870  14.513
31705W        W 4130  37.422  35.962   1.344
31706W        W 4131  34.595  29.636  11.410
31707W        W 4132   0.881  26.104   1.718
31708W        W 4133  39.485  26.101   2.831
31709W        W 4134   1.467  21.584   0.905
31710W        W 4135  22.676   1.928  11.564
31711W        W 4136  21.535   1.835   1.269
31712W        W 4137  22.156  21.522   1.803
31713W        W 4138  26.028  40.353   3.188
31714W        W 4139  22.629  15.324   3.651
31715W        W 4140  33.053  28.053  14.515
31716W        W 4141  19.266   7.234  11.497
31717W        W 4142   9.854  22.113  14.866
31718W        W 4143  26.486  44.394  10.407
31719W        W 4144   0.880  44.336  14.889
31720W        W 4145  23.211   0.944   4.159
31721W        W 4146  10.705  38.984   1.281
31722W        W 4147   1.887  43.972  11.427
31723W        W 4148  14.735  35.019   1.319
31724W        W 4149  14.149   7.245  10.928
31725W        W 4150  39.045   2.381  13.329
31726W        W 4151  16.114   8.814   3.260
31727W        W 4152  31.090  39.413   4.611
31728W        W 4153  13.746  15.198  14.013
31729W        W 4154  28.048  38.522   1.927
31730W        W 4155  41.305  18.744   4.771
31731W        W 4156  12.667  28.999   2.354
31732W        W 4157  43.462  28.614  10.975
31733W        W 4158  13.718  38.403   1.381
31734W        W 4159  27.066   0.898   4.143
31735W        W 4160  17.795  33.427  10.928
31736W        W 4161   3.372  42.817  11.959
31737W        W 4162   9.885  15.703   1.425
31738W        W 4163   7.849  35.957  13.361
31739W        W 4164  11.739  38.548   0.378
31740W        W 4165   9.707  41.469   0.927
31741W        W 4166  27.113  36.927  14.283
31742W        W 4167  33.381  11.173  10.582
31743W        W 4168  30.514   3.741   0.739
31744W        W 4169   4.914  20.135   3.307
31745W        W 4170   8.856  30.503  14.828
31746W        W 4171  36.006   9.359  14.342
31747W        W 4172  41.828  28.561   3.330
31748W        W 4173   3.416  34.495  14.778
31749W        W 4174  23.013  39.877  13.902
31750W        W 4175  43.478  27.122  13.965
31751W        W 4176  22.563  24.226   3.714
31752W        W 4177  10.773   8.361  14.025
31753W        W 4178  44.847  15.260  12.485
31754W        W 4179  24.629   5.276  12.074
31755W        W 4180  27.522  25.981  13.485
31756W        W 4181  11.791  13.146   3.289
31757W        W 4182  12.273  23.197  14.283
31758W        W 4183  12.202  22.524  12.884
31759W        W 4184  15.603  13.319   3.788
31760W        W 4185  11.258  20.547  13.365
31761W        W 4186  25.101  42.903  10.988
31762W        W 4187  30.978  23.045  11.554
31763W        W 4188  41.986  12.241   1.766
31764W        W 4189  18.552  10.731   4.817
31765W        W 4190  24.040   0.452   0.870
31766W        W 4191  37.520   0.790   0.367
31767W        W 4192   8.345  11.316  12.011
31768W        W 4193  15.658  19.193  14.005
31769W        W 4194   0.785  34.055   1.271
31770W        W 4195  34.868  44.997  14.385
31771W        W 4196   0.326  11.684  12.075
31772W        W 4197   0.343  13.793  10.508
31773W        W 4198  23.615  31.561   9.450
31774W        W 4199   8.773  31.130  14.346
31775W        W 4200  38.829  27.586   3.166
31776W        W 4201   8.673   7.391  14.823
31777W        W 4202   8.320   7.205  10.944
31778W        W 4203  24.164  40.412   2.383
31779W        W 4204  12.729  14.731  14.494
31780W        W 4205  39.332  31.580  10.574
31781W        W 4206   5.727   6.872   1.337
31782W        W 4207  24.210  34.408   4.249
31783W        W 4208   4.929   5.744  11.983
31784W        W 4209   1.771  44.439  10.559
31785W        W 4210  31.988  25.994   4.301
31786W        W 4211  42.429  39.440  13.023
31787W        W 4212   7.891  27.614  11.015
31788W        W 4213  10.246  44.437  10.967
31789W        W 4214  29.039  16.186  13.322
31790W        W 4215  13.124  43.918  10.461
31791W        W 4216  13.115  36.417  11.925
31792W        W 4217  36.381  41.916   0.826
31793W        W 4218  26.474  40.943  11.581
31794W        W 4219  36.485   1.351   4.784
31795W        W 4220  29.109   0.824   4.190
31796W        W 4221   8.304  33.439   1.906
31797W        W 4222  25.577   0.415  13.331
31798W        W 4223  15.308  43.269   2.180
31799W        W 4224  40.915  20.632  14.307
31800W        W 4225  38.896  13.629  11.493
31801W        W 4226   5.931  10.717   2.319
31802W        W 4227  43.315  34.872  10.497
31803W        W 4228  29.439  40.872   1.712
31804W        W 4229  15.293  38.940  12.453
31805W        W 4230  33.514   8.201   3.221
31806W        W 4231  33.574   8.869   0.394
31807W        W 4232  14.831  31.000  11.426
31808W        W 4233  25.629  29.480   0.880
31809W        W 4234   6.321  14.124  10.138
31810W        W 4235  31.122  13.722  14.284
31811W        W 4236  43.510  42.302   0.324
31812W        W 4237  10.689  30.571   0.327
31813W        W 4238  18.106  25.097   0.951
31814W        W 4239  23.174   3.873   0.759
31815W        W 4240   5.288  39.053   4.627
31816W        W 4241  14.769  26.600   2.191
31817W        W 4242  33.458  25.679  13.883
31818W        W 4243  19.538  16.630  11.878
31819W        W 4244  42.348  14.115  10.548
31820W        W 4245  23.634  11.686   2.381
31821W        W 4246  24.501   3.926  14.910
31822W        W 4247  41.331  26.181   4.338
31823W        W 4248  22.147  31.984   3.352
31824W        W 4249   7.717  22.633   4.198
31825W        W 4250  41.529   4.352  11.533
31826W        W 4251   0.964  18.072  11.398
31827W        W 4252  23.995  38.553   0.946
31828W        W 4253  12.711  29.465   0.382
31829W        W 4254   5.266  11.861   3.848
31830W        W 4255  16.705  21.149  13.512
31831W        W 4256  39.895  24.616   1.435
31832W        W 4257  40.501  29.522  14.978
31833W        W 4258  22.027   9.238   2.767
31834W        W 4259   3.444  29.485   4.275
31835W        W 4260  27.061  30.573   0.741
31836W        W 4261  29.948   4.702  10.462
31837W        W 4262  10.647  30.974  14.980
31838W        W 4263  34.515  25.673  12.538
31839W        W 4264  28.977  25.553  12.560
31840W        W 4265  28.567  41.397   2.275
31841W        W 4266  38.567  38.918  12.084
31842W        W 4267  24.034  21.189   2.264
31843W        W 4268   0.482  22.622   4.151
31844W        W 4269  12.184  34.388   4.692
31845W        W 4270  43.839   9.329  13.928
31846W        W 4271  43.430  22.614   2.705
31847W        W 4272  11.348   0.257   4.773
31848W        W 4273  44.009  28.616   0.877
31849W        W 4274  18.671   1.796  12.916
31850W        W 4275   3.273  36.516   0.868
31851W        W 4276  23.613  41.833   2.683
31852W        W 4277  42.967  30.094  12.498
31853W        W 4278  25.678   7.820   2.233
31854W        W 4279  11.781   7.824   1.826
31855W        W 4280   3.898  10.714  11.979
31856W        W 4281  32.472  25.673  10.415
31857W        W 4282  35.574   9.742   4.779
31858W        W 4283   3.905  43.367  12.555
31859W        W 4284  37.996  18.265  10.464
31860W        W 4285  22.118  42.333  11.536
31861W        W 4286   3.317   6.217  12.995
31862W        W 4287  31.420  35.418   1.725
31863W        W 4288  13.829   3.306  11.087
31864W        W 4289  36.475  28.511  11.967
31865W        W 4290  29.986  39.510  13.446
31866W        W 4291  42.475  29.628   1.256
31867W        W 4292   8.306  24.660  14.897
31868W        W 4293  14.807  38.484  11.579
31869W        W 4294  19.132  30.573   3.185
31870W        W 4295  41.525   9.657  12.558
31871W        W 4296  31.415   9.289   1.916
31872W        W 4297  10.800  20.053   3.238
31873W        W 4298  33.010  11.665   1.255
31874W        W 4299  36.855   2.758   1.364
31875W        W 4300  44.484  14.816  11.503
31876W        W 4301  39.334  16.110  12.571
31877W        W 4302  33.066  16.583  11.002
31878W        W 4303  15.625  11.147   0.935
31879W        W 4304   5.852   1.974  10.529
31880W        W 4305  42.909  35.493   0.795
31881W        W 4306  41.964  13.290  13.880
31882W        W 4307  29.508  23.583   2.878
31883W        W 4308   8.667  10.698  12.947
31884W        W 4309   2.832  17.618  10.989
31885W        W 4310  16.787  11.287   0.826
31886W        W 4311  18.621  21.186   2.381
31887W        W 4312   8.716  36.092   0.325
31888W        W 4313  17.792  39.033   4.772
31889W        W 4314  44.836   5.826   4.251
31890W        W 4315  24.100   0.342   3.371
31891W        W 4316   1.912  21.654  13.048
31892W        W 4317   9.354   8.664  14.031
31893W        W 4318  26.629   8.388   1.900
31894W        W 4319  35.478   6.428   4.321
31895W        W 4320  34.865  27.981   0.728
31896W        W 4321  26.142  41.342   3.251
31897W        W 4322   7.684  32.448  12.520
31898W        W 4323  27.973   9.309   1.842
31899W        W 4324  31.918  38.063  13.409
31900W        W 4325  16.229   0.904  11.939
31901W        W 4326  16.168  12.122   0.730
31902W        W 4327  41.529  27.192  13.989
31903W        W 4328  42.420  26.073  11.882
31904W        W 4329   9.235  21.130  11.937
31905W        W 4330  12.344   7.738  14.397
31906W        W 4331  31.132  30.512  13.874
31907W        W 4332  34.866  19.091   4.698
31908W        W 4333   3.445   0.460   1.912
31909W        W 4334  31.456  39.981  12.465
31910W        W 4335  42.373   8.204   4.121
31911W        W 4336  23.115  31.481  13.055
31912W        W 4337   1.301  42.511  12.960
31913W        W 4338  41.396  38.962   2.675
31914W        W 4339   1.976  26.013   0.860
31915W        W 4340  35.463  31.964  13.461
31916W        W 4341   4.277   4.772   4.286
31917W        W 4342  28.047   7.211   0.754
31918W        W 4343   2.929  24.502   2.195
31919W        W 4344  41.459   7.221  13.805
31920W        W 4345   4.238  24.977   1.917
31921W        W 4346  39.349  17.198   3.821
31922W        W 4347  37.495  11.174   0.278
31923W        W 4348  24.099  28.041   1.887
31924W        W 4349   0.293  23.684  14.819
31925W        W 4350  21.218  43.466  12.011
31926W        W 4351   2.459  40.868   3.695
31927W        W 4352   0.390  18.098  12.845
31928W        W 4353   5.822  15.117  12.547
31929W        W 4354   8.656  44.772   2.876
31930W        W 4355  23.736   1.835  10.944
31931W        W 4356  10.370  11.840  13.939
31932W        W 4357  19.591  34.591  12.055
31933W        W 4358  24.112  29.454  14.311
31934W        W 4359  21.604  21.188   0.956
31935W        W 4360  43.391  21.690   4.716
31936W        W 4361  34.077  41.500  11.122
31937W        W 4362  43.441  20.582   5.223
31938W        W 4363  29.980  21.723  12.384
31939W        W 4364  12.346  41.454  14.990
31940W        W 4365  31.150  14.151   0.303
31941W        W 4366  31.479  25.190   2.700
31942W        W 4367  29.666   5.883  10.985
31943W        W 4368   8.201  32.039  12.552
31944W        W 4369  32.543  43.019   2.855
31945W        W 4370   8.786  40.403  10.513
31946W        W 4371  36.928   8.351  12.433
31947W        W 4372  10.331  17.254   3.802
31948W        W 4373  25.550  21.203   2.840
31949W        W 4374  12.173  14.293   0.264
31950W        W 4375  22.045  35.477  12.341
31951W        W 4376  40.353  22.686   2.764
31952W        W 4377  36.501  21.573   4.650
31953W        W 4378  32.580   2.450  10.621
31954W        W 4379  35.501  23.138  14.763
31955W        W 4380  31.642   2.247  11.084
31956W        W 4381  33.058  42.018  12.370
31957W        W 4382  14.290  43.306  14.404
31958W        W 4383  26.012  33.126   2.193
31959W        W 4384  24.724  33.115   1.426
31960W        W 4385  28.142  25.179   2.330
31961W        W 4386  38.848  25.573   1.835
31962W        W 4387  39.544  10.744  14.416
31963W        W 4388   0.290  11.652   2.295
31964W        W 4389  18.756  30.491  10.932
31965W        W 4390  40.540  30.129  13.518
31966W        W 4391  43.850  27.586  14.503
31967W        W 4392  15.150  15.123  14.836
31968W        W 4393   1.372   3.368   3.698
31969W        W 4394  36.437  37.427   0.310
31970W        W 4395  37.008  13.701  12.955
31971W        W 4396  18.788  33.624  14.996
31972W        W 4397  22.539  38.953   1.908
31973W        W 4398  22.508  40.476   2.740
31974W        W 4399  26.541  23.697  12.950
31975W        W 4400  29.491   1.299   0.388
31976W        W 4401  44.854  44.376   0.339
31977W        W 4402  15.650  18.282   2.835
31978W        W 4403  28.551  14.315   3.692
31979W        W 4404  34.600   1.395   3.288
31980W        W 4405  12.164  38.458  14.970
31981W        W 4406  15.227  21.560  11.988
31982W        W 4407  35.468  25.544   1.874
31983W        W 4408  31.410  44.442   3.835
31984W        W 4409  22.157  17.610  12.048
31985W        W 4410  12.758  20.643  13.377
31986W        W 4411  34.464   1.320  13.516
31987W        W 4412  12.792   4.943  13.469
31988W        W 4413   3.790  17.164  14.815
31989W        W 4414  25.073  17.155  14.997
31990W        W 4415  20.228   4.881  14.465
31991W        W 4416  40.900  25.637   1.389
31992W        W 4417  38.521   0.348   3.663
31993W        W 4418  32.943  12.162   1.741
31994W        W 4419   2.730  14.692   3.377
31995W        W 4420  19.180  18.730  14.339
31996W        W 4421   8.230   5.204  11.957
31997W        W 4422  39.910  23.498   4.654
31998W        W 4423  39.354  13.215  13.454
31999W        W 4424  10.695  26.001   0.920
32000W        W 4425  11.664  21.148  12.370
32001W        W 4426  41.983  35.507  11.041
32002W        W 4427   0.467  16.125  12.969
32003W        W 4428  27.622  18.121   1.769
32004W        W 4429   0.860  18.172   3.792
32005W        W 4430  16.569   3.890  11.918
32006W        W 4431  34.032  19.258  14.399
32007W        W 4432  14.669   8.405   3.641
32008W        W 4433   1.756  20.567  12.896
32009W        W 4434  16.199  19.183  12.974
32010W        W 4435  22.044  25.644  12.968
32011W        W 4436  24.990  24.535  12.977
32012W        W 4437  18.244  44.830  12.873
32013W        W 4438   2.937  10.247  12.834
32014W        W 4439  18.217   8.773   0.457
32015W        W 4440  31.012  40.395  12.390
32016W        W 4441  21.122  16.170  11.927
32017W        W 4442  18.281   7.799   2.220
32018W        W 4443  15.595  31.096  10.940
32019W        W 4444  22.082   6.406   4.795
32020W        W 4445   1.469  34.006  10.438
32021W        W 4446  39.846   1.804   4.339
32022W        W 4447   9.809  15.721   3.647
32023W        W 4448   2.288  34.483  10.631
32024W        W 4449  25.660  29.637   5.174
32025W        W 4450  12.261  21.637   1.416
32026W        W 4451  26.680   8.712  12.899
32027W        W 4452  13.631  14.788  13.842
32028W        W 4453  36.077  20.213  12.007
32029W        W 4454   8.200  31.526  10.484
32030W        W 4455  36.888  30.136   1.811
32031W        W 4456  10.753   2.264   2.338
32032W        W 4457  31.928  30.415   4.337
32033W        W 4458  42.991  20.630   4.334
32034W        W 4459  15.647  12.232   3.274
32035W        W 4460  37.521  39.524   2.261
32036W        W 4461  27.606   7.201  11.028
32037W        W 4462  10.338  32.437   3.337
32038W        W 4463  27.147  15.256  14.973
32039W        W 4464  39.935  10.800   1.320
32040W        W 4465  17.764   4.424   0.309
32041W        W 4466  34.016  20.260  10.412
32042W        W 4467  21.235  32.484   3.688
32043W        W 4468  11.776  37.498  13.537
32044W        W 4469  17.712  11.280  14.506
32045W        W 4470  35.495   6.760   5.597
32046W        W 4471   0.273  23.513  10.891
32047W        W 4472  25.215   3.722   1.875
32048W        W 4473   2.822   7.682  13.318
32049W        W 4474   6.253  30.915  13.026
32050W        W 4475  43.924  18.190   3.723
32051W        W 4476  39.946  29.167   3.804
32052W        W 4477   3.375  11.364  12.435
32053W        W 4478  17.303  31.938   3.164
32054W        W 4479  16.202  19.058   1.393
32055W        W 4480   4.880   0.917  11.584
32056W        W 4481   9.802  24.013  13.926
32057W        W 4482   1.760  43.297  12.882
32058W        W 4483  33.877   9.680  12.857
32059W        W 4484  29.161  12.201   3.662
32060W        W 4485   1.733  27.590   0.385
32061W        W 4486   1.865  30.641  13.533
32062W        W 4487   9.851  42.942  10.616
32063W        W 4488  29.500  21.157   5.589
32064W        W 4489   5.897  14.805  11.986
32065W        W 4490  27.117  44.883   4.282
32066W        W 4491  35.400  19.143   1.248
32067W        W 4492   5.260  26.553   2.188
32068W        W 4493  19.633  20.071   0.455
32069W        W 4494  32.908  24.036  14.480
32070W        W 4495  29.161  43.513  11.555
32071W        W 4496  13.648   2.814   3.336
32072W        W 4497   6.914  32.611   4.354
32073W        W 4498  27.946  16.239  14.868
32074W        W 4499  34.977   0.759   0.790
32075W        W 4500  21.127  32.105  10.931
32076W        W 4501  19.267  37.907   1.813
32077W        W 4502  37.886  28.052   3.838
32078W        W 4503  39.417  19.694   4.643
32079W        W 4504  38.007  38.931   4.653
32080W        W 4505  18.258  18.215  13.950
32081W        W 4506  33.090  41.368   4.203
32082W        W 4507  13.628  17.218   0.384
32083W        W 4508  39.550   5.284   3.343
32084W        W 4509  27.142  31.041   1.896
32085W        W 4510  32.531   4.886   4.672
32086W        W 4511  20.177  12.842  14.401
32087W        W 4512   4.885  28.947  11.039
32088W        W 4513  35.042  33.619  14.480
32089W        W 4514  43.499  22.571  12.925
32090W        W 4515   0.756   4.389   1.267
32091W        W 4516  33.056  17.079  12.442
32092W        W 4517  19.652  35.592  14.426
32093W        W 4518   8.819  23.240   4.147
32094W        W 4519   0.262  24.092  13.480
32095W        W 4520  16.795  17.784   2.735
32096W        W 4521  32.988  44.305  10.587
32097W        W 4522  42.330  32.527   3.840
32098W        W 4523   9.650  20.547  10.509
32099W        W 4524  34.387  31.092   4.269
32100W        W 4525  34.107   4.271   4.769
32101W        W 4526  31.630  25.983   3.719
32102W        W 4527   3.226   5.389  12.879
32103W        W 4528   7.237  39.941  14.441
32104W        W 4529  11.171   3.372  12.923
32105W        W 4530  18.156  19.766   1.414
32106W        W 4531  42.002   5.370   0.420
32107W        W 4532  41.012   1.830   4.298
32108W        W 4533  11.177  24.617   4.729
32109W        W 4534  33.048  31.939  11.100
32110W        W 4535  32.063  13.138   2.312
32111W        W 4536   7.274  40.021   1.410
32112W        W 4537  34.974  29.930  13.478
32113W        W 4538  40.989  14.131  12.959
32114W        W 4539  11.344   7.309  13.959
32115W        W 4540  19.715  30.104  12.384
32116W        W 4541  11.255  28.130   1.929
32117W        W 4542  10.158  14.264  14.324
32118W        W 4543  20.123  17.262   0.737
32119W        W 4544  42.908  34.484   1.238
32120W        W 4545   5.247  19.635   0.769
32121W        W 4546  27.476  24.713   4.706
32122W        W 4547  27.170  39.847  13.310
32123W        W 4548  38.982  32.515   3.374
32124W        W 4549  15.816  20.644  14.435
32125W        W 4550  34.010  43.842   0.249
32126W        W 4551  37.936   1.378  12.837
32127W        W 4552  22.025  30.029   4.228
32128W        W 4553  16.213  12.760   1.739
32129W        W 4554  21.597   7.881   4.628
32130W        W 4555  40.517  24.697  13.822
32131W        W 4556  44.476  37.415  13.027
32132W        W 4557   9.206  34.472   3.643
32133W        W 4558   8.746   6.742  11.442
32134W        W 4559  25.687  23.679   3.203
32135W        W 4560  32.595  22.522  11.459
32136W        W 4561  10.736  39.394   4.750
32137W        W 4562   4.742  42.513  11.010
32138W        W 4563  17.657  34.048   4.346
32139W        W 4564   8.771  43.930   0.404
32140W        W 4565   8.802   7.726  10.425
32141W        W 4566  30.078  25.527   2.833
32142W        W 4567  37.509  20.685   3.746
32143W        W 4568  19.223   6.184   3.160
32144W        W 4569   6.393  10.272  11.901
32145W        W 4570  20.597   1.896   4.708
32146W        W 4571  38.055  27.558  11.600
32147W        W 4572  44.936  43.777   1.701
32148W        W 4573  25.477   8.189  11.005
32149W        W 4574  20.194  37.524  12.348
32150W        W 4575  43.408  44.396   3.266
32151W        W 4576  33.474  41.311  12.576
32152W        W 4577  26.180  10.217   0.475
32153W        W 4578  40.452  15.120  11.078
32154W        W 4579  30.423  31.431   2.225
32155W        W 4580   0.917  26.609  10.056
32156W        W 4581  13.738  39.468   2.332
32157W        W 4582  26.970  33.384  13.869
32158W        W 4583  43.964   6.848  11.962
32159W        W 4584  14.305   9.234   2.873
32160W        W 4585  18.719   0.248  12.087
32161W        W 4586  39.915  23.533   2.805
32162W        W 4587  10.763   7.301   1.777
32163W        W 4588  44.450  42.775  13.453
32164W        W 4589   6.205   0.742  12.491
32165W        W 4590  18.606   9.299   3.269
32166W        W 4591  18.292  21.617   1.884
32167W        W 4592  21.600   0.250  13.062
32168W        W 4593   0.853  43.482   0.353
32169W        W 4594  43.493   9.791   3.672
32170W        W 4595  14.304  19.056  11.932
32171W        W 4596  24.603  42.024  12.834
32172W        W 4597  35.923  15.628  13.024
32173W        W 4598  15.187   6.841  11.572
32174W        W 4599   0.776   4.790  13.432
32175W        W 4600  16.649   1.803   3.848
32176W        W 4601  15.789  10.676  13.987
32177W        W 4602  13.628  29.439   1.919
32178W        W 4603  26.992  27.029  12.537
32179W        W 4604  16.111  11.272  14.843
32180W        W 4605  11.726  10.815  14.512
32181W        W 4606  21.588  34.420  11.527
32182W        W 4607  32.139  27.963   2.861
32183W        W 4608   7.828  27.582  10.507
32184W        W 4609  24.598  12.769  14.779
32185W        W 4610  31.123  31.430  14.301
32186W        W 4611  14.260   5.818  14.385
32187W        W 4612  37.388  30.128  10.450
32188W        W 4613  12.681   0.307  10.471
32189W        W 4614   5.884  15.741   4.735
32190W        W 4615  23.510   2.932   0.847
32191W        W 4616  27.979  43.505  10.898
32192W        W 4617   3.712  33.454  11.595
32193W        W 4618  19.598  33.582   4.749
32194W        W 4619   7.748  29.572   2.857
32195W        W 4620  10.183  43.396  12.534
32196W        W 4621  13.815   7.234  14.934
32197W        W 4622  13.343  22.233  12.896
32198W        W 4623  13.681  33.880   0.352
32199W        W 4624  35.971   0.876  12.852
32200W        W 4625  27.487  23.161   3.666
32201W        W 4626   8.806  21.606   4.315
32202W        W 4627  22.064  27.628   0.366
32203W        W 4628   8.180  28.031  13.521
32204W        W 4629  23.554  11.304   1.328
32205W        W 4630  43.465  27.657  12.435
32206W        W 4631   7.900  13.343   4.203
32207W        W 4632   5.876   3.924  13.991
32208W        W 4633  24.595  31.633  14.493
32209W        W 4634  44.942   2.318   0.475
32210W        W 4635  21.230   8.222   3.840
32211W        W 4636   4.378  17.094   2.724
32212W        W 4637  37.532  33.908  13.326
32213W        W 4638  21.206  36.504   0.458
32214W        W 4639  26.132  43.295  13.944
32215W        W 4640   8.772  22.668  14.499
32216W        W 4641  24.231  39.338   2.891
32217W        W 4642   2.253  27.041  14.791
32218W        W 4643  26.118  26.526  12.004
32219W        W 4644  18.553  32.596  12.975
32220W        W 4645  23.070   4.811  11.592
32221W        W 4646  27.468  44.340  11.053
32222W        W 4647  26.502  43.968  11.416
32223W        W 4648  22.718  34.552  14.959
32224W        W 4649  24.097  24.993   2.330
32225W        W 4650  31.601  40.514  13.406
32226W        W 4651  10.756  34.408  12.441
32227W        W 4652  12.346   5.347   3.281
32228W        W 4653  32.890  20.270  13.325
32229W        W 4654  25.507  23.071   3.220
32230W        W 4655  28.488   3.444   3.382
32231W        W 4656  22.136  44.915  14.957
32232W        W 4657   5.690  26.197   2.772
32233W        W 4658   7.192  20.553  10.485
32234W        W 4659  12.229  33.067   1.776
32235W        W 4660  29.485  43.290   3.864
32236W        W 4661  35.980  14.734  13.052
32237W        W 4662  15.621  32.914  10.510
32238W        W 4663  14.340  18.551   3.228
32239W        W 4664  25.040  38.476   3.362
32240W        W 4665   5.798  23.132   0.941
32241W        W 4666  15.249  14.252  13.436
32242W        W 4667  22.731  10.264  13.986
32243W        W 4668  43.480  39.960  12.968
32244W        W 4669  22.152  37.897  11.471
32245W        W 4670  22.180  11.712   2.291
32246W        W 4671   3.231  11.641   0.881
32247W        W 4672  18.189  14.659  13.319
32248W        W 4673  44.474   9.322  13.834
32249W        W 4674  30.573  39.892  14.777
32250W        W 4675  30.002  17.129   0.864
32251W        W 4676  36.520  19.603  13.405
32252W        W 4677  23.510  31.009   9.591
32253W        W 4678  35.974  10.152   2.708
32254W        W 4679  40.536  41.374  12.844
32255W        W 4680   8.389   8.405   3.742
32256W        W 4681   4.751  26.995  10.067
32257W        W 4682   1.351   5.884   0.429
32258W        W 4683  29.655  17.096   5.177
32259W        W 4684   8.350   1.765  13.034
32260W        W 4685  14.705  11.703   3.153
32261W        W 4686   4.876   3.406   2.799
32262W        W 4687  36.015   3.227   3.207
32263W        W 4688   2.319  38.026  13.811
32264W        W 4689   4.943  21.019   0.384
32265W        W 4690   2.394  19.167  12.037
32266W        W 4691  40.459  37.531  14.911
32267W        W 4692  40.940  26.107  11.603
32268W        W 4693  23.589  40.044   0.859
32269W        W 4694  21.244  33.080   4.748
32270W        W 4695  17.280  38.857  12.503
32271W        W 4696  34.431   5.716   1.400
32272W        W 4697  31.482  19.107  10.519
32273W        W 4698  20.130  22.549  13.458
32274W        W 4699  24.547  16.146   2.894
32275W        W 4700  11.150   4.343  13.834
32276W        W 4701  41.907  26.998   4.764
32277W        W 4702  29.029  43.316   2.340
32278W        W 4703   6.233  35.076  11.121
32279W        W 4704  16.594  36.844  13.500
32280W        W 4705  17.723  28.676  14.806
32281W        W 4706  38.934  42.324  14.940
32282W        W 4707  15.794   7.242   0.899
32283W        W 4708  38.378  36.850  10.965
32284W        W 4709   7.812  20.106   0.471
32285W        W 4710  33.616  24.005   0.407
32286W        W 4711  14.293  24.034   0.391
32287W        W 4712  26.107  18.183  13.940
32288W        W 4713   6.795  31.983  14.813
32289W        W 4714  23.069   4.217  13.875
32290W        W 4715  43.814   3.730  11.538
32291W        W 4716  22.512  37.960  12.877
32292W        W 4717  18.624   8.800  10.991
32293W        W 4718  24.606  41.355   1.229
32294W        W 4719   1.273   9.864  11.599
32295W        W 4720  26.990  10.703   0.828
32296W        W 4721  22.538  44.857   4.620
32297W        W 4722  28.942  18.106   4.820
32298W        W 4723  14.616  18.172   3.846
32299W        W 4724   2.354  35.072   3.243
32300W        W 4725  20.055   6.748  12.916
32301W        W 4726   1.976  24.048   1.334
32302W        W 4727   3.713  22.235   2.178
32303W        W 4728   7.303  19.631   0.737
32304W        W 4729  34.928  27.153  12.557
32305W        W 4730  38.333  17.764  13.544
32306W        W 4731  13.175  37.353   3.160
32307W        W 4732  27.549  41.321  10.945
32308W        W 4733  11.266   7.415  11.104
32309W        W 4734   1.854  31.444   1.912
32310W        W 4735  15.719  28.456   3.147
32311W        W 4736  18.673  10.153   4.246
32312W        W 4737  31.619  43.904  13.010
32313W        W 4738   1.751  32.056  10.590
32314W        W 4739   1.424  39.376  12.911
32315W        W 4740  30.494  19.561   0.946
32316W        W 4741  30.549  41.822   5.096
32317W        W 4742  38.076  10.633   0.740
32318W        W 4743  44.823   1.351  11.095
32319W        W 4744   8.765  30.090  11.507
32320W        W 4745  10.715  43.298  13.797
32321W        W 4746  43.784  17.630  10.926
32322W        W 4747   3.838  23.104   3.634
32323W        W 4748   6.848  12.169  11.933
32324W        W 4749  16.654  31.611   4.268
32325W        W 4750  10.234  11.645  11.912
32326W        W 4751   7.218   0.971  13.035
32327W        W 4752  15.128  27.040  11.874
32328W        W 4753  38.466   8.238  14.425
32329W        W 4754  15.238  10.168  10.623
32330W        W 4755  19.631  30.086  10.500
32331W        W 4756  11.737  27.095  14.332
32332W        W 4757  19.189  36.954  11.403
32333W        W 4758  39.903  42.864  13.948
32334W        W 4759  32.485  43.483  10.474
32335W        W 4760  37.579   0.808  12.913
32336W        W 4761  42.310  39.874   0.967
32337W        W 4762  13.827   6.185   0.962
32338W        W 4763  36.073   1.881  11.081
32339W        W 4764  33.413  10.225  10.923
32340W        W 4765  29.556  34.575  11.457
32341W        W 4766   7.760  17.113   1.795
32342W        W 4767   4.261  17.701   4.207
32343W        W 4768  13.654   9.388   3.365
32344W        W 4769   1.829  10.143   1.378
32345W        W 4770   3.777  16.116  14.015
32346W        W 4771   9.651   1.885  10.595
32347W        W 4772  32.491  21.593   4.625
32348W        W 4773   4.700   2.729  13.405
32349W        W 4774  27.455   0.373  14.880
32350W        W 4775  44.964  16.224  10.509
32351W        W 4776  34.067  26.987   3.179
32352W        W 4777  22.682   0.826  12.571
32353W        W 4778  31.920  37.389  12.390
32354W        W 4779  26.566   8.816  11.931
32355W        W 4780  11.734   4.905  12.009
32356W        W 4781   7.326  32.095   4.256
32357W        W 4782   0.396  12.823   1.379
32358W        W 4783   1.773  35.033  14.787
32359W        W 4784  23.585   2.398   0.829
32360W        W 4785  35.054   0.286   3.356
32361W        W 4786   7.374  33.014   1.435
32362W        W 4787  19.771  18.692   0.896
32363W        W 4788  16.179  36.929   3.650
32364W        W 4789  35.589  40.922   1.861
32365W        W 4790  16.288   1.734  12.053
32366W        W 4791  30.488   6.411   3.175
32367W        W 4792   8.316   3.433   3.248
32368W        W 4793  22.041  26.465  12.844
32369W        W 4794  20.078  11.233   3.151
32370W        W 4795  24.097  36.899  13.336
32371W        W 4796   9.656  18.610   2.712
32372W        W 4797  35.077  35.580   4.294
32373W        W 4798  26.680  39.929  13.049
32374W        W 4799  32.400  12.267   2.889
32375W        W 4800  43.867  23.510   2.886
32376W        W 4801  19.774  32.610  14.400
32377W        W 4802  26.954  40.918   3.807
32378W        W 4803   2.963  32.416   0.899
32379W        W 4804  41.538  36.417   1.768
32380W        W 4805  22.666  36.021   1.255
32381W        W 4806  18.202   5.326  12.498
32382W        W 4807  27.042  27.082   4.660
32383W        W 4808   2.802   9.878   0.348
32384W        W 4809   4.410  44.007   2.708
32385W        W 4810  41.316  31.074   2.773
32386W        W 4811   3.834  20.078  13.488
32387W        W 4812   2.419   5.863   2.350
32388W        W 4813   7.779  22.523   1.224
32389W        W 4814  16.292  38.516   0.851
32390W        W 4815  19.100  18.099  13.933
32391W        W 4816  32.406   8.860  12.341
32392W        W 4817  13.224  17.088  13.948
32393W        W 4818   6.838  18.670  14.462
32394W        W 4819  32.500   3.307  13.343
32395W        W 4820  29.618  39.831   0.479
32396W        W 4821  36.399  39.919  14.771
32397W        W 4822  44.265  18.214  13.053
32398W        W 4823  44.287  16.238   3.853
32399W        W 4824  23.598  29.595  10.979
32400W        W 4825  19.658  40.405  13.394
32401W        W 4826  41.935  39.031  12.940
32402W        W 4827   8.279  17.061  11.991
32403W        W 4828  27.585  23.717   4.838
32404W        W 4829  29.943  33.512   1.332
32405W        W 4830  15.302  17.566   1.860
32406W        W 4831  44.806  10.710   0.274
32407W        W 4832  15.786  17.304  10.954
32408W        W 4833  27.629   0.817  11.946
32409W        W 4834  30.656   3.768   4.776
32410W        W 4835  22.662  18.685   3.854
32411W        W 4836  35.947  35.081   3.267
32412W        W 4837  31.908  22.715   0.808
32413W        W 4838   7.205  28.536   4.146
32414W        W 4839  12.161  32.507   2.792
32415W        W 4840  10.701  30.482  12.461
32416W        W 4841  10.148  26.495   4.162
32417W        W 4842  12.805  11.804   0.872
32418W        W 4843  42.936  26.461   5.210
32419W        W 4844  28.555  21.188   2.896
32420W        W 4845  22.115  34.469  13.035
32421W        W 4846   4.276  29.058  13.335
32422W        W 4847   0.280  25.054   1.401
32423W        W 4848  37.987  25.552   0.764
32424W        W 4849  38.846  32.029  10.127
32425W        W 4850   4.748  24.617  10.513
32426W        W 4851  41.890  17.283  14.930
32427W        W 4852  34.093  24.082   2.841
32428W        W 4853  14.788  39.031   3.219
32429W        W 4854  37.999  17.079  11.009
32430W        W 4855  24.550  38.015   4.348
32431W        W 4856  30.613   9.866  11.031
32432W        W 4857  34.021   1.972   4.648
32433W        W 4858  16.318   3.902   5.631
32434W        W 4859  30.008  18.606   1.737
32435W        W 4860  19.756  17.213  14.973
32436W        W 4861   6.827  35.896   3.800
32437W        W 4862  26.177  30.442  11.081
32438W        W 4863  14.275  16.097   1.384
32439W        W 4864  41.401  35.464  14.808
32440W        W 4865  24.535   3.883   1.821
32441W        W 4866   3.821  42.841  14.288
32442W        W 4867  29.077  11.289  14.763
32443W        W 4868  39.812  41.844  12.980
32444W        W 4869  40.883  27.642  13.037
32445W        W 4870  26.006   0.459   1.730
32446W        W 4871  22.653  35.452  11.522
32447W        W 4872   4.914  43.394  10.462
32448W        W 4873   7.274  44.485   3.328
32449W        W 4874  44.481  40.002  14.962
32450W        W 4875   2.334  43.014   0.808
32451W        W 4876   6.356  39.976  11.023
32452W        W 4877   1.901   3.709  10.569
32453W        W 4878   4.382  16.216   4.821
32454W        W 4879  29.932  18.719  11.498
32455W        W 4880  14.110  17.758  14.920
32456W        W 4881   7.240  25.694   0.320
32457W        W 4882  44.491  33.006   2.773
32458W        W 4883  29.158  26.684  10.410
32459W        W 4884  40.837  42.390  10.465
32460W        W 4885  16.621  31.562   5.618
32461W        W 4886  40.026  16.727  12.062
32462W        W 4887   7.192   5.932  12.860
32463W        W 4888  15.735  12.705   4.602
32464W        W 4889  42.436  14.832  12.857
32465W        W 4890  20.212  26.997  13.464
32466W        W 4891  42.411   9.284  10.444
32467W        W 4892  26.154  39.064   4.640
32468W        W 4893  28.568  41.528   3.689
32469W        W 4894  44.492  28.562  10.603
32470W        W 4895  29.084  37.939   3.693
32471W        W 4896  23.696   5.249  13.472
32472W        W 4897   3.254  31.609   2.308
32473W        W 4898  36.467  17.688  13.058
32474W        W 4899  32.401  29.522   1.406
32475W        W 4900  22.634  36.351   4.805
32476W        W 4901  38.523  44.499  13.004
32477W        W 4902  21.067  16.143  12.546
32478W        W 4903  22.608  34.575  11.889
32479W        W 4904  24.055  23.105   4.158
32480W        W 4905   2.760  11.241   4.307
32481W        W 4906  24.014   9.669   2.863
32482W        W 4907   6.222  43.443  10.427
32483W        W 4908  39.050  17.658   9.940
32484W        W 4909  28.965  24.182  14.909
32485W        W 4910  23.503   0.747  12.875
32486W        W 4911  43.476  15.103   0.372
32487W        W 4912  27.452  34.087   2.180
32488W        W 4913  18.131  13.782   3.271
32489W        W 4914  33.021   9.366  12.463
32490W        W 4915   0.868  10.306  14.358
32491W        W 4916  11.787   8.314   4.623
32492W        W 4917  21.146  42.812  10.919
32493W        W 4918   2.234  39.054   2.859
32494W        W 4919  30.610  27.549   3.684
32495W        W 4920  37.074   4.319   1.246
32496W        W 4921  35.928  20.093  12.573
32497W        W 4922  40.854  30.928   3.817
32498W        W 4923  22.133   9.225   4.233
32499W        W 4924  25.121  20.535   0.957
32500W        W 4925  21.098  36.530  14.873
32501W        W 4926  33.996  13.123  13.499
32502W        W 4927  43.295  14.319   5.178
32503W        W 4928  10.758  44.876  14.441
32504W        W 4929   5.890  14.129   4.739
32505W        W 4930  27.002  30.499  14.017
32506W        W 4931   4.287  27.088  13.824
32507W        W 4932  41.958   5.875   3.710
32508W        W 4933   2.461  14.287  10.021
32509W        W 4934  12.311  10.877   4.602
32510W        W 4935  10.637  42.951   2.788
32511W        W 4936  27.103   3.946   0.885
32512W        W 4937   6.869  42.870   4.114
32513W        W 4938  12.321   3.923  15.000
32514W        W 4939  23.527  28.180  12.451
32515W        W 4940  24.117   7.358  13.890
32516W        W 4941  35.041  20.048  10.966
32517W        W 4942  20.554  20.190   3.857
32518W        W 4943  42.973  20.661  14.493
32519W        W 4944  18.284  13.222  12.857
32520W        W 4945  32.584  22.539   1.872
32521W        W 4946  26.473  33.072  11.492
32522W        W 4947  44.422  25.615   1.281
32523W        W 4948  15.680  11.803   5.292
32524W        W 4949  21.121   0.935   0.258
32525W        W 4950  10.350  39.827  11.953
32526W        W 4951  15.103  12.693   0.838
32527W        W 4952  12.825  40.528  12.439
32528W        W 4953  34.097  20.537  14.779
32529W        W 4954   9.321  37.446  10.546
32530W        W 4955  31.593  13.777   2.821
32531W        W 4956  32.069  37.473  13.923
32532W        W 4957  20.094  39.858   4.191
32533W        W 4958  23.196   3.326   4.162
32534W        W 4959  27.494   0.837  12.491
32535W        W 4960   7.315   6.760  12.922
32536W        W 4961  27.090  44.830   2.705
32537W        W 4962   4.937  44.496  10.543
32538W        W 4963  37.976  27.512  12.848
32539W        W 4964  20.051   9.835  12.832
32540W        W 4965  22.014  25.704  14.881
32541W        W 4966  23.504  17.064  13.479
32542W        W 4967  23.647  39.348   3.226
32543W        W 4968  19.545  17.723   4.669
32544W        W 4969  42.018  27.159   4.122
32545W        W 4970  10.347  21.160   4.235
32546W        W 4971  10.139  20.105   4.254
32547W        W 4972   9.252   7.719   3.647
32548W        W 4973  41.952  31.960  10.030
32549W        W 4974  11.733  41.990  10.987
32550W        W 4975  17.303  35.018  12.573
32551W        W 4976  17.708   3.287   3.735
32552W        W 4977   9.303  13.293   2.201
32553W        W 4978  37.043  24.641  12.005
32554W        W 4979  29.108  16.645  11.961
32555W        W 4980   5.921  28.567   3.169
32556W        W 4981   4.883   0.392   3.748
32557W        W 4982   5.809  15.770  14.416
32558W        W 4983  31.632   5.724  14.286
32559W        W 4984   8.665   2.333  11.520
32560W        W 4985  37.878  14.748  12.919
32561W        W 4986  35.022  40.497  10.043
32562W        W 4987   5.430   1.344  11.442
32563W        W 4988  23.153  24.588   1.347
32564W        W 4989  42.374   2.802  13.842
32565W        W 4990  17.266  24.490  11.393
32566W        W 4991  33.408  38.908   2.758
32567W        W 4992  26.607  35.893  11.982
32568W        W 4993  15.642  25.555  13.996
32569W        W 4994  18.712  26.506  11.869
32570W        W 4995  19.654   6.729  13.003
32571W        W 4996  37.377   2.840   2.751
32572W        W 4997  30.914  38.434   4.761
32573W        W 4998  22.121  11.802  12.837
32574W        W 4999  25.045  27.555   0.329
32575W        W 5000  12.186  39.974   4.781
32576W        W 5001  31.432  22.136   3.829
32577W        W 5002  35.028  35.380  11.992
32578W        W 5003  11.369  14.703   0.256
32579W        W 5004   3.881  37.564  10.451
32580W        W 5005  23.174   4.740   3.850
32581W        W 5006   5.883  11.272  12.946
32582W        W 5007  21.598  27.656   1.832
32583W        W 5008  14.746  26.649   4.753
32584W        W 5009   7.409  15.727   1.239
32585W        W 5010  33.421  20.652  13.345
32586W        W 5011  28.672   4.860   2.710
32587W        W 5012  12.291  40.892   4.273
32588W        W 5013  41.500   9.294  12.455
32589W        W 5014   1.241  38.044  14.433
32590W        W 5015  24.611  38.548  11.457
32591W        W 5016  12.672   8.311  12.478
32592W        W 5017  38.888  29.651   1.922
32593W        W 5018  40.469  37.520  12.455
32594W        W 5019  20.573  38.853  14.893
32595W        W 5020  27.683  32.085   0.427
32596W        W 5021  20.159  37.919   3.790
32597W        W 5022  40.475  44.910   3.355
32598W        W 5023  17.706  39.054  12.369
32599W        W 5024  10.168  44.440   2.293
32600W        W 5025   7.348  15.101   1.786
32601W        W 5026  20.721  11.820  14.432
32602W        W 5027  27.686  26.163  12.025
32603W        W 5028  33.019  21.706   1.249
32604W        W 5029  14.158  32.391   4.133
32605W        W 5030  29.961  11.186   3.702
32606W        W 5031  31.081  25.200  13.460
32607W        W 5032  38.555  30.413   1.251
32608W        W 5033  13.171  10.717  14.435
32609W        W 5034  23.671  29.125   2.666
32610W        W 5035   7.670  19.249  13.885
32611W        W 5036  36.037  40.417  11.579
32612W        W 5037  14.289  29.551  10.413
32613W        W 5038  17.749   2.922  14.443
32614W        W 5039  44.329  44.809   0.812
32615W        W 5040  26.196  24.180   1.784
32616W        W 5041  16.213  44.967  10.446
32617W        W 5042  33.436  29.007   2.767
32618W        W 5043   0.468   9.324   0.317
32619W        W 5044  29.126  27.547  13.540
32620W        W 5045  42.869   0.767   0.745
32621W        W 5046  28.131  11.827  14.928
32622W        W 5047  43.975  26.082   4.168
32623W        W 5048  17.653   2.303  12.457
32624W        W 5049  33.573  16.237  12.875
32625W        W 5050  21.664  11.338  14.341
32626W        W 5051   5.757  21.513   0.967
32627W        W 5052  39.554  29.987  14.396
32628W        W 5053  41.983  26.527   0.786
32629W        W 5054  25.044  39.409   0.871
32630W        W 5055  14.199  21.722  14.933
32631W        W 5056  22.044  14.108   3.834
32632W        W 5057  24.593  21.187  13.391
32633W        W 5058  36.983   7.784   1.422
32634W        W 5059  36.590  17.141   2.221
32635W        W 5060  32.055   0.249   2.838
32636W        W 5061  39.408  18.220  13.443
32637W        W 5062  29.117  18.629   0.822
32638W        W 5063  17.213   7.217  10.460
32639W        W 5064  13.830  17.665  10.494
32640W        W 5065  43.815  33.610  13.529
32641W        W 5066  37.025  21.753   1.329
32642W        W 5067  38.908  14.820   0.413
32643W        W 5068  44.808  29.464  14.328
32644W        W 5069  30.132  24.990   2.901
32645W        W 5070  39.352  16.313   2.377
32646W        W 5071  32.910  28.670   2.378
32647W        W 5072  23.692  43.396  13.821
32648W        W 5073  40.957  36.386  14.025
32649W        W 5074  16.674   7.809   3.642
32650W        W 5075   0.894  32.536   4.736
32651W        W 5076  14.777   2.229   1.432
32652W        W 5077  14.250  35.449   4.284
32653W        W 5078  11.728   9.868   0.834
32654W        W 5079   7.245  29.066   3.236
32655W        W 5080  24.681   8.781   2.787
32656W        W 5081  21.182  40.306  12.519
32657W        W 5082  27.583  15.618  14.405
32658W        W 5083  42.964  41.884  11.873
32659W        W 5084  39.899  32.973  10.975
32660W        W 5085  37.479  36.972   0.302
32661W        W 5086  41.295  32.420  14.513
32662W        W 5087  12.164   9.820  14.809
32663W        W 5088   8.307  26.129  13.437
32664W        W 5089  28.073   8.300   1.322
32665W        W 5090  15.759  40.416  13.982
32666W        W 5091  43.932  23.025   3.185
32667W        W 5092  35.885  21.046   0.326
32668W        W 5093  15.755   0.966   3.704
32669W        W 5094  38.038   6.224   3.365
32670W        W 5095   8.397  42.324   2.693
32671W        W 5096  36.966  13.150   3.204
32672W        W 5097  41.518   4.426  12.352
32673W        W 5098  20.548  35.556  10.969
32674W        W 5099  17.229  38.919  10.949
32675W        W 5100  20.634   6.206  10.951
32676W        W 5101  14.110  44.428   0.399
32677W        W 5102  24.602   7.394   2.739
32678W        W 5103  39.353   7.304  10.501
32679W        W 5104  38.907  38.911  13.479
32680W        W 5105  19.656  25.173   3.721
32681W        W 5106  40.948   9.703  12.953
32682W        W 5107  42.960  28.101   2.284
32683W        W 5108  38.366  29.472  14.351
32684W        W 5109  13.188  41.447  12.827
32685W        W 5110  41.466  15.288  13.960
32686W        W 5111  25.115  29.628  12.990
32687W        W 5112   6.224  29.473   4.227
32688W        W 5113  27.480  27.053   0.378
32689W        W 5114  43.446  44.913   4.286
32690W        W 5115   8.884  41.404   2.243
32691W        W 5116   1.775  39.393  13.517
32692W        W 5117  28.054  25.038   5.170
32693W        W 5118  24.648  32.549  12.922
32694W        W 5119   9.280  28.117  12.346
32695W        W 5120  21.055  24.686   3.743
32696W        W 5121  26.044  30.620  14.341
32697W        W 5122  18.190  35.526  12.830
32698W        W 5123  33.596  19.223   4.133
32699W        W 5124  38.991  36.879  14.791
32700W        W 5125  26.517   3.382   4.675
32701W        W 5126   8.745   9.281  14.866
32702W        W 5127  37.841  17.626   1.295
32703W        W 5128  29.520  20.540  10.586
32704W        W 5129   4.833  17.134   0.870
32705W        W 5130  32.637  11.851  11.976
32706W        W 5131   9.226   6.329   1.755
32707W        W 5132  12.772  35.066   1.287
32708W        W 5133  19.251  42.392  12.012
32709W        W 5134  39.984  40.477   3.722
32710W        W 5135   7.825  18.074   0.252
32711W        W 5136   1.282  34.049   9.979
32712W        W 5137  43.399  31.518  11.399
32713W        W 5138  25.616   3.369  14.981
32714W        W 5139  14.265  17.224   3.783
32715W        W 5140  38.889  43.911   2.228
32716W        W 5141  15.645  42.453  13.043
32717W        W 5142  40.055  35.977   4.208
32718W        W 5143   3.758  42.406   3.198
32719W        W 5144  37.990   2.404   4.776
32720W        W 5145   8.239  38.963   3.633
32721W        W 5146   5.702  15.764  11.468
32722W        W 5147  13.224  15.722   2.779
32723W        W 5148  24.559  18.596  14.488
32724W        W 5149  12.795  18.140   2.236
32725W        W 5150  10.196  10.172  10.949
32726W        W 5151   2.904   5.754   2.837
32727W        W 5152  24.527  24.125  14.960
32728W        W 5153  23.537  33.113  12.354
32729W        W 5154  32.995   2.731  10.892
32730W        W 5155  33.116  36.909   3.723
32731W        W 5156   4.447  19.263   0.949
32732W        W 5157  23.205  26.495   3.211
32733W        W 5158  42.419   7.815   0.390
32734W        W 5159  41.409   6.791   4.344
32735W        W 5160   4.888  27.065   4.817
32736W        W 5161  25.078  23.034  13.338
32737W        W 5162  37.985  10.361   3.211
32738W        W 5163  12.818  18.697  11.453
32739W        W 5164  10.792  19.092   1.905
32740W        W 5165  18.775   3.921   3.801
32741W        W 5166  15.118  27.641   3.291
32742W        W 5167  31.486  11.777   1.734
32743W        W 5168  28.010   5.345   0.809
32744W        W 5169  40.886   0.878   0.303
32745W        W 5170  30.444  36.064   1.895
32746W        W 5171  38.513   8.359  13.006
32747W        W 5172   6.805   0.811  12.352
32748W        W 5173  28.091  30.416   0.244
32749W        W 5174   2.407   1.260  11.564
32750W        W 5175  10.288  42.973  12.521
32751W        W 5176  34.037  40.326   3.380
32752W        W 5177  24.540  39.978   4.158
32753W        W 5178  11.287  40.349  12.405
32754W        W 5179  29.925  35.087   2.231
32755W        W 5180  12.626  27.094  11.897
32756W        W 5181  13.622  16.803   2.751
32757W        W 5182   4.716  37.042  13.888
32758W        W 5183  20.626  33.473  13.514
32759W        W 5184  34.086   2.725   2.255
32760W        W 5185  24.574  31.426  12.432
32761W        W 5186  11.721  42.392  11.959
32762W        W 5187   6.909  40.460  13.415
32763W        W 5188  29.493  18.255  14.784
32764W        W 5189   1.834  30.434   2.377
32765W        W 5190   2.796  40.998  10.594
32766W        W 5191  26.165   4.224   1.237
32767W        W 5192  10.243  28.158   1.762
32768W        W 5193   9.825  15.237  11.987
32769W        W 5194  28.024  17.158  11.096
32770W        W 5195   1.921   5.201   0.821
32771W        W 5196  16.798   7.692   1.274
32772W        W 5197  29.521  22.563  11.984
32773W        W 5198   5.206  43.438   3.794
32774W        W 5199  39.498  24.009  12.936
32775W        W 5200  12.183  34.893  12.482
32776W        W 5201  31.110  34.933   2.885
32777W        W 5202  29.449  41.962  13.440
32778W        W 5203  42.028  37.985  14.513
32779W        W 5204   4.265  14.225  13.818
32780W        W 5205  34.583  36.438   1.705
32781W        W 5206  17.129  23.984   4.121
32782W        W 5207  23.721  29.438   3.253
32783W        W 5208  34.560  36.353   2.894
32784W        W 5209  20.078  24.182   4.130
32785W        W 5210   8.791  43.272  13.952
32786W        W 5211   5.695   6.682  14.029
32787W        W 5212  12.829  10.854   4.660
32788W        W 5213  41.472  13.153   4.327
32789W        W 5214   0.762  39.348   1.875
32790W        W 5215  12.660  30.593  10.892
32791W        W 5216  42.386  40.418   0.342
32792W        W 5217  38.874  32.944   4.297
32793W        W 5218  12.839  30.150  14.426
32794W        W 5219   5.288  16.233  11.922
32795W        W 5220  36.385  36.079   3.386
32796W        W 5221  14.756  27.124  13.832
32797W        W 5222  10.857  11.223   3.649
32798W        W 5223  43.330  22.606  13.502
32799W        W 5224  31.967  32.140  10.566
32800W        W 5225  28.439  32.964  13.379
32801W        W 5226  15.814  11.265   4.123
32802W        W 5227  32.635  32.390  12.478
32803W        W 5228  36.900  24.120   1.785
32804W        W 5229  15.742  22.065  13.523
32805W        W 5230  37.544  22.101   4.770
32806W        W 5231  13.245  10.264   1.408
32807W        W 5232  44.475  10.667  14.013
32808W        W 5233  39.492   0.905  10.930
32809W        W 5234  42.470  37.388   2.307
32810W        W 5235  17.244  13.731  13.893
32811W        W 5236   5.265  43.899  10.508
32812W        W 5237  28.157   2.885  10.609
32813W        W 5238  33.515  22.695  10.464
32814W        W 5239  32.117   5.725  14.930
32815W        W 5240  41.965  32.889  14.468
32816W        W 5241  13.826  12.849   4.172
32817W        W 5242  11.689  31.927   1.294
32818W        W 5243   5.231  42.436  12.037
32819W        W 5244  27.497  28.449  13.848
32820W        W 5245  16.632  21.172   3.772
32821W        W 5246   3.389  28.499   3.312
32822W        W 5247  44.326  12.624   0.334
32823W        W 5248  39.461  33.541  10.419
32824W        W 5249  31.572  25.640   0.830
32825W        W 5250  42.327  11.192   3.783
32826W        W 5251  27.509  42.423   2.745
32827W        W 5252  29.111   5.333   0.360
32828W        W 5253  19.228   7.331  13.029
32829W        W 5254   3.363   7.799   5.245
32830W        W 5255   7.713  13.169   1.285
32831W        W 5256  14.221  11.851  12.935
32832W        W 5257  43.953  18.651   2.818
32833W        W 5258  38.569  18.130   0.768
32834W        W 5259  36.904  36.098  13.488
32835W        W 5260  24.209  41.930  13.047
32836W        W 5261  22.510  37.442  11.950
32837W        W 5262  37.922  37.415  14.028
32838W        W 5263   9.837  10.334   3.764
32839W        W 5264  24.027  12.272   0.392
32840W        W 5265  37.395  10.772   2.859
32841W        W 5266  14.311  27.011   0.453
32842W        W 5267   2.319  19.703   0.759
32843W        W 5268  21.600  31.979  13.992
32844W        W 5269   5.346  21.094  14.411
32845W        W 5270  36.990  34.550   0.433
32846W        W 5271  14.618  39.432   3.265
32847W        W 5272  18.211  37.085   1.874
32848W        W 5273   1.907   2.730   2.259
32849W        W 5274  36.021  24.722  11.540
32850W        W 5275  34.074  13.696  13.882
32851W        W 5276  15.806  15.753   4.137
32852W        W 5277  20.620  26.522   1.928
32853W        W 5278   6.769   3.408  12.953
32854W        W 5279  28.542   6.259  10.157
32855W        W 5280  41.888  38.394   3.721
32856W        W 5281   1.336  12.212  12.857
32857W        W 5282  27.522  22.141   1.390
32858W        W 5283   4.299  35.904   1.403
32859W        W 5284  20.235  29.466  12.088
32860W        W 5285  18.158  44.853  10.637
32861W        W 5286   7.264  25.673  14.930
32862W        W 5287  41.377  14.293   1.746
32863W        W 5288  32.421   5.320  10.926
32864W        W 5289  27.115   8.723   3.802
32865W        W 5290   7.768  32.910   1.787
32866W        W 5291  38.334  17.206   3.803
32867W        W 5292  36.017   5.373  10.625
32868W        W 5293  38.864  15.769   9.951
32869W        W 5294   5.889   1.406   2.363
32870W        W 5295  44.346  20.673   3.171
32871W        W 5296  20.029   1.940  13.536
32872W        W 5297  39.012  14.208   4.219
32873W        W 5298  37.927  23.221  13.994
32874W        W 5299  35.450  36.898  12.384
32875W        W 5300  26.958  40.533   4.659
32876W        W 5301  36.082  40.380  14.931
32877W        W 5302  15.238  44.866  11.863
32878W        W 5303  14.804  29.088  13.416
32879W        W 5304   7.884  23.004  14.807
32880W        W 5305   8.852  10.877   3.819
32881W        W 5306   7.406  26.123  13.496
32882W        W 5307  34.554  26.169  12.865
32883W        W 5308  25.515  29.449  13.494
32884W        W 5309   2.826  26.962   2.827
32885W        W 5310  28.959   7.359   4.618
32886W        W 5311  36.086  17.216  11.987
32887W        W 5312  44.272  33.537  11.572
32888W        W 5313   9.228  14.170  14.468
32889W        W 5314  23.174  44.793   1.700
32890W        W 5315   5.256  41.320  11.900
32891W        W 5316   1.755  31.614  12.993
32892W        W 5317  13.640  34.064   2.843
32893W        W 5318   2.832  38.971   2.347
32894W        W 5319   6.714  24.690   2.683
32895W        W 5320  10.218   0.975  13.991
32896W        W 5321  24.073  39.915   3.791
32897W        W 5322  36.350   9.711   3.851
32898W        W 5323  30.007  41.878   3.843
32899W        W 5324   1.907  32.507   0.468
32900W        W 5325  37.048  42.522  11.372
32901W        W 5326  34.611  15.305   1.355
32902W        W 5327  41.963  28.942   5.282
32903W        W 5328   0.843  20.149   2.680
32904W        W 5329  18.713  18.766   3.669
32905W        W 5330  22.623  13.619   4.675
32906W        W 5331  11.741  27.125  13.516
32907W        W 5332   9.774  34.026  13.540
32908W        W 5333  17.641  32.994   9.630
32909W        W 5334  25.994  18.628  12.833
32910W        W 5335  26.027  25.584   3.655
32911W        W 5336  30.153  30.544   4.228
32912W        W 5337  10.302  26.126   3.342
32913W        W 5338  14.197  25.983  11.454
32914W        W 5339  31.083  39.927  12.975
32915W        W 5340   1.879   8.758  13.515
32916W        W 5341  10.230  28.523  14.978
32917W        W 5342  35.459  26.635   3.225
32918W        W 5343  38.557  34.502  12.020
32919W        W 5344  40.825   2.768  11.078
32920W        W 5345   2.369   3.295   0.789
32921W        W 5346  25.481  14.281   4.811
32922W        W 5347  34.925   0.489  10.055
32923W        W 5348  14.665   0.798   9.927
32924W        W 5349   3.337   9.799   2.398
32925W        W 5350   7.778   1.374  14.768
32926W        W 5351   9.341  16.793   1.229
32927W        W 5352   7.269   4.758  10.085
32928W        W 5353  18.089  17.150  10.478
32929W        W 5354  26.685  44.387   3.371
32930W        W 5355   1.806  38.453   0.323
32931W        W 5356  23.565  22.624   1.296
32932W        W 5357   6.694  33.876  13.356
32933W        W 5358   8.789  44.806  11.380
32934W        W 5359   0.986  37.892   2.323
32935W        W 5360  19.724   5.897  11.452
32936W        W 5361  33.101   2.276  14.309
32937W        W 5362  31.092  30.576   2.283
32938W        W 5363  39.429  39.831   4.714
32939W        W 5364  35.519  41.941  14.979
32940W        W 5365   3.235   5.825   3.680
32941W        W 5366  35.379   9.326  11.574
32942W        W 5367  36.038   8.673   4.127
32943W        W 5368   8.884  26.023  10.544
32944W        W 5369   0.329  37.480  14.934
32945W        W 5370  12.628  26.022  14.829
32946W        W 5371  42.801  39.402  14.993
32947W        W 5372  30.566  26.973  13.906
32948W        W 5373  17.292  18.196   2.785
32949W        W 5374  18.579  40.042   4.129
32950W        W 5375  30.639  22.505  12.840
32951W        W 5376   2.357  27.038  12.829
32952W        W 5377  16.728   9.226  10.640
32953W        W 5378  29.113  20.751   1.248
32954W        W 5379  28.651   1.783  12.960
32955W        W 5380  12.198  12.115   3.230
32956W        W 5381   4.896   7.788  13.997
32957W        W 5382  15.746  36.585  12.473
32958W        W 5383  10.311   5.363   1.439
32959W        W 5384  13.777  40.445  14.317
32960W        W 5385  28.543   0.395  11.976
32961W        W 5386  41.368   2.454  14.906
32962W        W 5387  11.262  19.735  14.008
32963W        W 5388  33.581  32.573  12.953
32964W        W 5389  35.410  10.280  11.456
32965W        W 5390  31.103  18.295   1.439
32966W        W 5391  28.567  16.712  12.846
32967W        W 5392  35.508  25.995   2.352
32968W        W 5393  36.506  12.706  14.894
32969W        W 5394  14.683   5.807   0.761
32970W        W 5395  25.613   3.217  11.077
32971W        W 5396  26.553  14.149   1.376
32972W        W 5397  35.101  17.664  11.009
32973W        W 5398  27.585  33.620   2.701
32974W        W 5399  10.692   1.310   3.634
32975W        W 5400  40.425  40.956   2.382
32976W        W 5401   3.235   1.381   0.331
32977W        W 5402   5.436  38.917  12.844
32978W        W 5403   3.380  44.759   2.226
32979W        W 5404  31.102  15.140  10.575
32980W        W 5405  36.367  32.939  13.446
32981W        W 5406  18.649  43.495  10.573
32982W        W 5407  10.804   7.684  12.491
32983W        W 5408  20.098  17.601  11.552
32984W        W 5409  39.499  35.924  14.881
32985W        W 5410   5.923  16.160   3.302
32986W        W 5411  13.704  32.537   4.639
32987W        W 5412  24.224   1.450  10.540
32988W        W 5413  12.319  32.473  14.803
32989W        W 5414  30.073  19.205   2.283
32990W        W 5415  11.815   6.407   1.283
32991W        W 5416  34.925  44.308   5.300
32992W        W 5417  24.013   2.402  14.345
32993W        W 5418  38.050  12.352  11.892
32994W        W 5419  34.614  34.588  13.061
32995W        W 5420  15.705  43.493  12.427
32996W        W 5421  38.468  35.026   3.738
32997W        W 5422  32.404  28.017   0.459
32998W        W 5423   5.242  34.407   2.340
32999W        W 5424   2.306  33.906   1.439
33000W        W 5425  13.814  43.346   3.798
33001W        W 5426  16.105   9.299  12.087
33002W        W 5427   6.721   7.209  14.916
33003W        W 5428  37.037  32.561  10.567
33004W        W 5429  33.908   8.799  10.978
33005W        W 5430  33.969  18.788   2.811
33006W        W 5431  41.001  10.302  12.541
33007W        W 5432  38.872  13.273   5.268
33008W        W 5433  14.764  32.420  11.499
33009W        W 5434  10.693  35.449   1.244
33010W        W 5435  12.311   2.844   4.302
33011W        W 5436  37.351  24.705   4.324
33012W        W 5437  25.127  12.767   1.711
33013W        W 5438  30.965  18.116   2.902
33014W        W 5439  41.894  11.840   1.330
33015W        W 5440  10.787  11.794   1.716
33016W        W 5441  25.130  34.015   0.255
33017W        W 5442  31.960  12.626   1.409
33018W        W 5443  19.081  16.283  10.987
33019W        W 5444  13.621  44.292   3.864
33020W        W 5445  31.451   1.429   4.751
33021W        W 5446  23.220   2.230   0.475
33022W        W 5447  15.247   5.336  14.481
33023W        W 5448   3.943  26.103   3.772
33024W        W 5449  29.492  44.787  12.907
33025W        W 5450  30.101  44.874  10.442
33026W        W 5451  30.534  32.069  12.347
33027W        W 5452  19.574  28.601   0.750
33028W        W 5453  25.192  28.109   2.210
33029W        W 5454   1.376  38.032   3.777
33030W        W 5455  26.050  42.887  11.524
33031W        W 5456  13.829   5.253   1.254
33032W        W 5457  40.997  40.822   1.217
33033W        W 5458  21.206  36.526   0.921
33034W        W 5459  26.022  18.167   2.243
33035W        W 5460   4.404  43.806  13.454
33036W        W 5461  20.699   2.361  13.885
33037W        W 5462  27.626  25.113   1.326
33038W        W 5463  37.368  14.807  14.800
33039W        W 5464  40.954   9.322   1.298
33040W        W 5465  25.653   9.678  10.514
33041W        W 5466  15.091  12.195   3.860
33042W        W 5467  29.478  27.144  13.796
33043W        W 5468  14.257  35.004   9.972
33044W        W 5469  22.096  23.097  11.982
33045W        W 5470   9.796   6.892  12.500
33046W        W 5471   0.375  16.723   2.730
33047W        W 5472  19.555   4.871   2.356
33048W        W 5473   4.724   0.412   0.303
33049W        W 5474  23.069  16.213   1.853
33050W        W 5475  34.466  12.246  13.504
33051W        W 5476  17.075  31.638  11.886
33052W        W 5477   1.319  32.633   0.839
33053W        W 5478   2.726  32.599   1.898
33054W        W 5479   0.762  32.118  12.892
33055W        W 5480  40.545  34.873  14.847
33056W        W 5481  38.542  14.755  10.570
33057W        W 5482  13.836  18.203  10.898
33058W        W 5483  41.840  16.170   0.337
33059W        W 5484  40.450  18.134   1.897
33060W        W 5485   3.715  40.540  11.869
33061W        W 5486  19.070   8.342  10.440
33062W        W 5487  14.807  28.452   2.867
33063W        W 5488   0.971  36.950   1.239
33064W        W 5489  27.474  41.969  14.024
33065W        W 5490  42.300  31.499  10.556
33066W        W 5491   3.846  28.674  13.944
33067W        W 5492  11.323  29.134   4.613
33068W        W 5493  35.062   9.196  12.951
33069W        W 5494  32.921  31.618   1.438
33070W        W 5495  15.146   0.870  14.494
33071W        W 5496   7.394  35.952  14.961
33072W        W 5497  31.417  31.456   2.816
33073W        W 5498   4.333  25.674   0.339
33074W        W 5499  40.500  23.034  12.511
33075W        W 5500  25.218  17.163   0.339
33076W        W 5501  42.367  12.345   2.866
33077W        W 5502  23.723  33.025  10.956
33078W        W 5503   8.669  37.009   2.688
33079W        W 5504   1.457  31.918   0.806
33080W        W 5505  21.238  10.170   0.968
33081W        W 5506   6.347  26.141  13.915
33082W        W 5507  12.121  42.026  11.403
33083W        W 5508  38.989  18.636  11.561
33084W        W 5509  30.145  11.182  10.497
33085W        W 5510  20.749  10.740  11.461
33086W        W 5511  17.790  21.202  10.596
33087W        W 5512   7.695  41.919   2.747
33088W        W 5513  13.209  39.898  13.381
33089W        W 5514  10.653  26.996  11.006
33090W        W 5515   0.880  40.993   0.792
33091W        W 5516  35.980  16.601  13.816
33092W        W 5517  32.889  28.623   1.309
33093W        W 5518   0.905  26.694  11.595
33094W        W 5519   6.887  36.915  11.602
33095W        W 5520   1.423  38.975   4.815
33096W        W 5521  43.900  35.898   0.930
33097W        W 5522  37.934   5.732   3.791
33098W        W 5523   6.408   4.716   2.341
33099W        W 5524  11.247  18.213   0.955
33100W        W 5525   6.874  32.078  11.871
33101W        W 5526  31.419  19.558  13.809
33102W        W 5527  37.513  28.040  12.339
33103W        W 5528  23.157  28.586  13.497
33104W        W 5529  36.880  29.100  12.853
33105W        W 5530   9.277   8.198  14.492
33106W        W 5531  42.408  44.340  14.487
33107W        W 5532  30.414   7.398  12.977
33108W        W 5533  40.938  43.371   4.243
33109W        W 5534  29.076  21.614  12.918
33110W        W 5535  30.488   2.467   1.239
33111W        W 5536   3.344  30.998  12.983
33112W        W 5537  32.616  17.158   1.856
33113W        W 5538  35.942  16.254  13.990
33114W        W 5539   1.401  12.257   3.232
33115W        W 5540  39.838  29.923  10.602
33116W        W 5541   9.829  35.078   0.789
33117W        W 5542  39.338   9.714   4.605
33118W        W 5543  21.116  13.167   3.764
33119W        W 5544  16.280  11.309  13.518
33120W        W 5545  33.514   5.859   0.891
33121W        W 5546  31.028  22.199  10.617
33122W        W 5547  17.574  37.935   4.218
33123W        W 5548  14.292  33.949  11.408
33124W        W 5549  35.401  40.982   4.755
33125W        W 5550  12.847   3.439   4.194
33126W        W 5551  12.659  18.212   4.213
33127W        W 5552   1.737  33.060   2.299
33128W        W 5553  17.225  42.915  12.846
33129W        W 5554   6.765  18.051   2.768
33130W        W 5555  39.442  32.926  12.054
33131W        W 5556  31.534  30.031  11.539
33132W        W 5557  34.504  19.605   1.381
33133W        W 5558   4.250  31.953  13.307
33134W        W 5559  39.016  19.581   3.232
33135W        W 5560   0.844  44.805  12.447
33136W        W 5561   9.690  17.160   3.321
33137W        W 5562  13.831  13.207  13.357
33138W        W 5563  32.130  36.062   3.801
33139W        W 5564  23.631  41.433   1.790
33140W        W 5565  16.619  34.403  13.972
33141W        W 5566  29.122   6.676  12.484
33142W        W 5567  32.045  15.148  13.886
33143W        W 5568  21.238  24.643   0.349
33144W        W 5569  35.070  13.656   0.737
33145W        W 5570  21.567  36.415   1.303
33146W        W 5571  21.163   8.367  13.447
33147W        W 5572  31.422  35.557  14.808
33148W        W 5573  30.087  24.170   3.298
33149W        W 5574  17.091   9.665  12.847
33150W        W 5575  12.125  26.649  13.948
33151W        W 5576  12.631  16.657  13.544
33152W        W 5577  33.907  28.440   3.743
33153W        W 5578  28.096  42.852   4.116
33154W        W 5579  27.669  44.469  14.483
33155W        W 5580   0.818  21.145   2.888
33156W        W 5581   6.910  34.873   0.737
33157W        W 5582  23.557  29.581  11.927
33158W        W 5583  29.970  33.512  14.308
33159W        W 5584  29.652  40.393  10.505
33160W        W 5585  14.190  21.114  14.956
33161W        W 5586  10.371  11.662   2.275
33162W        W 5587   2.439  21.637   0.465
33163W        W 5588  20.618   8.323  10.502
33164W        W 5589  22.152  28.156  12.346
33165W        W 5590   5.748  41.381  11.557
33166W        W 5591  35.510  44.317  13.458
33167W        W 5592  32.914  29.928  14.787
33168W        W 5593   2.374  16.082  11.961
33169W        W 5594  10.677   5.764  13.366
33170W        W 5595  41.806  14.288  11.938
33171W        W 5596  44.420  29.472   4.819
33172W        W 5597  18.658  15.117   4.658
33173W        W 5598  15.261  25.151  11.958
33174W        W 5599  32.512  23.627   1.400
33175W        W 5600  14.807   4.726  13.430
33176W        W 5601  41.374  38.023  14.417
33177W        W 5602  13.623   1.977  11.536
33178W        W 5603  44.786  27.158  11.432
33179W        W 5604  40.402  12.190  13.388
33180W        W 5605  20.725  33.600   1.792
33181W        W 5606  38.534  15.125   4.736
33182W        W 5607  16.726  26.068   3.803
33183W        W 5608  22.092   6.771  10.959
33184W        W 5609   0.764   5.841  14.963
33185W        W 5610  42.342  26.017   0.945
33186W        W 5611   8.749   2.354   1.223
33187W        W 5612  41.393  41.787   0.859
33188W        W 5613  15.705  36.010   2.281
33189W        W 5614   6.731  39.316   3.301
33190W        W 5615  15.306  15.248   2.273
33191W        W 5616  28.053  36.463   1.308
33192W        W 5617  11.324   8.267   3.164
33193W        W 5618  39.034  34.027  13.864
33194W        W 5619  22.113  19.065   2.786
33195W        W 5620  22.722  21.642  10.569
33196W        W 5621  37.573  16.645  10.943
33197W        W 5622  22.175  44.978  12.895
33198W        W 5623   8.739  27.989  12.550
33199W        W 5624  22.219  22.222  14.512
33200W        W 5625  14.604  29.633  10.453
33201W        W 5626  24.536  35.004   4.303
33202W        W 5627   5.852  23.496  10.638
33203W        W 5628   2.427   7.685  14.972
33204W        W 5629  13.329  21.206   4.131
33205W        W 5630   5.802  26.067  10.931
33206W        W 5631   1.773   9.874   2.363
33207W        W 5632  35.920   6.420   3.832
33208W        W 5633  32.089   5.889   1.932
33209W        W 5634  28.618  19.715  12.456
33210W        W 5635  11.708  14.321  14.422
33211W        W 5636  15.613   6.869   3.301
33212W        W 5637  18.277   2.359   2.712
33213W        W 5638   1.409  30.008   0.253
33214W        W 5639   0.390  20.104   4.232
33215W        W 5640  44.759  22.214  10.960
33216W        W 5641  41.452  28.518  14.943
33217W        W 5642  25.047   7.827   4.125
33218W        W 5643   6.342   5.410   2.274
33219W        W 5644  11.321   1.428  13.917
33220W        W 5645   0.475  27.993  14.958
33221W        W 5646  43.284  32.586   0.839
33222W        W 5647  26.054  11.126   2.342
33223W        W 5648  27.627  37.532  12.537
33224W        W 5649   4.364  43.378  13.956
33225W        W 5650  21.228  28.013   3.676
33226W        W 5651  14.771  17.687   4.704
33227W        W 5652  27.107   7.826  13.419
33228W        W 5653   3.816  43.877   1.781
33229W        W 5654  36.059  24.107   1.353
33230W        W 5655  12.345   3.783   5.260
33231W        W 5656  37.510  18.654   1.216
33232W        W 5657  38.507  21.021   4.326
33233W        W 5658  18.203  34.098  11.961
33234W        W 5659  16.186  30.509  12.063
33235W        W 5660  39.386  11.357  13.811
33236W        W 5661  10.290  14.614   1.227
33237W        W 5662   2.385   0.920   3.185
33238W        W 5663  20.057   5.321   1.790
33239W        W 5664  18.710  31.587   2.830
33240W        W 5665   7.394  12.847   2.706
33241W        W 5666  13.704  37.879   2.895
33242W        W 5667  22.205  25.130  10.968
33243W        W 5668  17.132  33.399  14.892
33244W        W 5669   9.859  16.745  14.975
33245W        W 5670   0.445  26.666  14.954
33246W        W 5671  25.077  35.549  10.455
33247W        W 5672   6.769  18.689  14.789
33248W        W 5673  17.229   0.484  13.326
33249W        W 5674  10.294   0.940   0.837
33250W        W 5675  32.523  21.581  11.956
33251W        W 5676   8.848   3.720   0.912
33252W        W 5677  24.683  15.735   0.282
33253W        W 5678  18.590  35.484   2.253
33254W        W 5679   6.266  44.288  13.881
33255W        W 5680  31.632  16.181   1.286
33256W        W 5681   8.392   6.888   4.779
33257W        W 5682  40.046  18.205  11.865
33258W        W 5683  24.552  29.655   3.279
33259W        W 5684  21.122  38.997   2.807
33260W        W 5685  40.523   9.861  14.331
33261W        W 5686  12.738  40.992   0.783
33262W        W 5687   1.917  41.875   3.369
33263W        W 5688  28.490  27.965  12.917
33264W        W 5689  27.482   2.751   1.799
33265W        W 5690   7.900  11.335  12.008
33266W        W 5691  38.516   4.379  13.812
33267W        W 5692   6.399   2.876   1.748
33268W        W 5693  33.890  27.494  13.844
33269W        W 5694  32.621  43.314   4.791
33270W        W 5695  42.945  17.062  11.574
33271W        W 5696  13.261  24.228  14.854
33272W        W 5697  21.145   5.753  13.796
33273W        W 5698  37.524  12.663  11.079
33274W        W 5699  23.169  39.413   0.351
33275W        W 5700  32.141   2.280   4.144
33276W        W 5701  16.139  30.011   0.784
33277W        W 5702  14.325   1.409   5.296
33278W        W 5703   7.253   0.431   1.340
33279W        W 5704  10.664  22.230   3.208
33280W        W 5705  17.682  21.619  11.008
33281W        W 5706   8.835  22.208  11.906
33282W        W 5707  23.695  27.048  12.850
33283W        W 5708  12.682   1.407   0.320
33284W        W 5709  16.763  17.258  10.434
33285W        W 5710  24.212  30.085   2.252
33286W        W 5711  41.936  10.688   3.658
33287W        W 5712  38.377  39.321  12.865
33288W        W 5713   7.857   4.355  11.957
33289W        W 5714  34.109  28.154   2.416
33290W        W 5715  10.671  37.489   1.707
33291W        W 5716  13.165  31.415  14.477
33292W        W 5717   7.246  41.481  13.542
33293W        W 5718  29.521  38.427  11.012
33294W        W 5719  16.578  41.313   0.754
33295W        W 5720  28.945  42.864  14.379
33296W        W 5721  29.144  23.715   1.857
33297W        W 5722  26.068   9.237   2.769
33298W        W 5723  14.692  17.172   0.303
33299W        W 5724  43.999  24.699  13.018
33300W        W 5725   1.297  15.101  13.903
33301W        W 5726   0.358  11.856   2.673
33302W        W 5727  27.149  22.583  12.455
33303W        W 5728  16.812   1.425   3.255
33304W        W 5729  25.037  27.517   0.898
33305W        W 5730  28.651  36.064  13.381
33306W        W 5731  10.347  40.517   0.362
33307W        W 5732   2.425  42.796  13.338
33308W        W 5733  43.947  42.520   2.746
33309W        W 5734  27.658  14.289   1.324
33310W        W 5735  40.002   5.790   4.347
33311W        W 5736  42.970  41.482   1.925
33312W        W 5737  44.832   7.747  14.901
33313W        W 5738  16.105  29.564   2.308
33314W        W 5739  18.177  12.736  11.951
33315W        W 5740   1.740  40.924  14.860
33316W        W 5741  30.422   8.869   0.364
33317W        W 5742   5.424  23.613  13.956
33318W        W 5743   2.758  19.655  13.827
33319W        W 5744   3.447  28.445  13.881
33320W        W 5745  22.180  25.173   3.781
33321W        W 5746  10.835  18.741  13.348
33322W        W 5747  17.585  10.231   4.669
33323W        W 5748  14.098  44.337   3.280
33324W        W 5749   7.197  38.388  11.077
33325W        W 5750   3.324   8.194   2.394
33326W        W 5751  17.227   1.845   1.372
33327W        W 5752  41.408  33.543  13.808
33328W        W 5753  21.549  38.903  12.553
33329W        W 5754  35.401  41.007  11.488
33330W        W 5755  44.407  38.067  14.801
33331W        W 5756  30.614  17.219  13.524
33332W        W 5757  23.734  30.590   2.402
33333W        W 5758   1.395  36.499  11.419
33334W        W 5759  38.852   4.301   3.335
33335W        W 5760  24.198  36.364  13.040
33336W        W 5761  30.455  24.157   0.843
33337W        W 5762   0.494   2.819   4.761
33338W        W 5763  18.620  23.532  12.969
33339W        W 5764  32.406  12.276  14.384
33340W        W 5765  26.629   1.807   2.814
33341W        W 5766  35.503  37.565  14.924
33342W        W 5767  32.622  16.731   1.264
33343W        W 5768   3.290  14.713  12.091
33344W        W 5769  13.843   2.887  12.972
33345W        W 5770  35.583  10.638  11.053
33346W        W 5771  44.296  28.505  13.852
33347W        W 5772   3.861  24.644   4.712
33348W        W 5773  17.676  35.869  13.450
33349W        W 5774  19.255  14.741  12.089
33350W        W 5775  12.705   1.891   1.363
33351W        W 5776  35.583  15.114  11.974
33352W        W 5777  38.440   0.888   4.253
33353W        W 5778  30.630  13.273  13.310
33354W        W 5779  25.499  35.560   0.374
33355W        W 5780  31.426  30.480   3.697
33356W        W 5781  20.076  36.579  11.603
33357W        W 5782  25.522  43.815  12.967
33358W        W 5783  13.194  12.344  12.039
33359W        W 5784  31.121  17.116  14.487
33360W        W 5785  31.594  10.738  11.448
33361W        W 5786   2.951   3.791   4.615
33362W        W 5787   7.361  42.430  12.832
33363W        W 5788  25.621  23.542  13.841
33364W        W 5789  30.084  40.395   0.368
33365W        W 5790   4.875   9.653  13.528
33366W        W 5791  29.101  44.869  11.087
33367W        W 5792  43.787   7.852   3.866
33368W        W 5793  26.145  16.127   1.857
33369W        W 5794  41.376  38.499   4.194
33370W        W 5795  33.933  37.409  13.973
33371W        W 5796  37.357  14.327  10.451
33372W        W 5797  25.517  44.458  11.506
33373W        W 5798  31.507  29.110  11.112
33374W        W 5799   5.427   5.350  14.460
33375W        W 5800   4.837   7.357  11.873
33376W        W 5801   5.821  39.395   4.678
33377W        W 5802  13.730  32.442  14.784
33378W        W 5803  18.782  40.882  12.484
33379W        W 5804  38.502  12.611  10.987
33380W        W 5805  21.150  39.825   4.316
33381W        W 5806   6.227  29.999  13.811
33382W        W 5807  26.986  11.797  12.397
33383W        W 5808  23.608  20.606  14.441
33384W        W 5809  40.381  11.248   0.339
33385W        W 5810  38.428  39.496   4.206
33386W        W 5811  20.094  19.621  12.094
33387W        W 5812  36.995  36.062   3.635
33388W        W 5813   0.915   0.952   1.893
33389W        W 5814  31.128   2.332  12.357
33390W        W 5815  24.000  10.235  11.034
33391W        W 5816  34.381   8.308  11.029
33392W        W 5817  30.101   8.868  10.956
33393W        W 5818  28.662   2.740  12.071
33394W        W 5819  12.309   5.207  11.040
33395W        W 5820  17.655   0.483  11.545
33396W        W 5821  24.718  25.108   2.312
33397W        W 5822  39.890  42.013   4.304
33398W        W 5823  21.547   2.410  11.381
33399W        W 5824  18.133  36.937   2.730
33400W        W 5825  36.962  28.589  12.971
33401W        W 5826  41.910  43.840   1.416
33402W        W 5827  20.563  41.513  12.951
33403W        W 5828  37.994   3.354  11.896
33404W        W 5829  11.239  27.497   2.811
33405W        W 5830  27.560  12.615   3.202
33406W        W 5831  14.159   4.706  11.876
33407W        W 5832   8.841   3.285  13.907
33408W        W 5833  26.170  43.819  14.469
33409W        W 5834   5.827  44.323  11.074
33410W        W 5835  38.954  19.650  10.918
33411W        W 5836   7.768  38.495  13.474
33412W        W 5837  30.647  25.592  10.552
33413W        W 5838   8.167   5.271   2.854
33414W        W 5839  12.710  12.799  11.571
33415W        W 5840  30.462  22.084   4.745
33416W        W 5841  32.140  26.491   1.704
33417W        W 5842  28.540  25.033   3.259
33418W        W 5843  12.638  42.282  12.396
33419W        W 5844  23.230   1.333  12.373
33420W        W 5845   7.382   5.334   1.402
33421W        W 5846   9.647  20.711   4.687
33422W        W 5847  37.377  24.096   3.249
33423W        W 5848  11.187  28.018  12.981
33424W        W 5849  13.199  15.083   2.704
33425W        W 5850  14.651  37.460   2.662
33426W        W 5851  44.785   5.346  10.900
33427W        W 5852   0.817  32.136   3.210
33428W        W 5853  33.525  34.016  12.903
33429W        W 5854  22.217  37.579  14.910
33430W        W 5855  38.518   0.900  13.791
33431W        W 5856  39.545   1.347   3.213
33432W        W 5857  21.263  39.879   3.847
33433W        W 5858   4.768  31.451   0.858
33434W        W 5859  33.099  10.254   2.852
33435W        W 5860  23.215  26.161   0.467
33436W        W 5861  34.415  14.278   2.405
33437W        W 5862  33.925  26.976   3.865
33438W        W 5863  15.303  25.526   2.315
33439W        W 5864  16.295  35.017  12.363
33440W        W 5865  10.801  13.262  12.074
33441W        W 5866   4.764   6.398   4.352
33442W        W 5867   3.954  22.611  13.527
33443W        W 5868  43.312   4.804   2.379
33444W        W 5869   3.954   0.825   0.795
33445W        W 5870  44.853  42.800  13.337
33446W        W 5871  12.711  27.531   1.330
33447W        W 5872  19.759  28.004   3.674
33448W        W 5873  38.933  13.147  12.850
33449W        W 5874  13.157  23.518   0.949
33450W        W 5875  17.089  12.255  10.967
33451W        W 5876  30.422  32.534  14.491
33452W        W 5877  27.522  42.486  12.889
33453W        W 5878  21.058  36.918   4.193
33454W        W 5879   7.834  38.965   1.777
33455W        W 5880  26.030  16.229   4.139
33456W        W 5881  39.329  20.762   2.787
33457W        W 5882  15.770  11.630   3.728
33458W        W 5883  27.562  23.228   2.230
33459W        W 5884   2.813  30.636  13.496
33460W        W 5885  39.451  18.546   0.404
33461W        W 5886  16.122  39.547  14.950
33462W        W 5887  34.448   4.331  11.557
33463W        W 5888  37.393  11.225  13.910
33464W        W 5889  23.562  37.561   4.734
33465W        W 5890  24.003  29.145   0.350
33466W        W 5891  23.143  36.919   0.919
33467W        W 5892   5.717   6.808  14.283
33468W        W 5893  27.625   9.814  13.464
33469W        W 5894  33.047   5.328  11.520
33470W        W 5895  41.345  41.528  11.434
33471W        W 5896  30.586  18.094   1.416
33472W        W 5897  22.522  21.746   0.791
33473W        W 5898  12.217   6.862  13.985
33474W        W 5899  26.469  19.729   1.234
33475W        W 5900   3.734  13.615  14.364
33476W        W 5901  15.691   1.816  11.550
33477W        W 5902  16.739   4.267   2.730
33478W        W 5903  23.610  30.476  12.898
33479W        W 5904   5.923   4.354   2.203
33480W        W 5905  35.988  41.445  13.423
33481W        W 5906   2.267  10.693   1.283
33482W        W 5907  43.991  30.929  11.089
33483W        W 5908  12.268  25.992  13.454
33484W        W 5909  31.513  18.765   4.623
33485W        W 5910  29.613  36.028   4.288
33486W        W 5911   8.386  44.439  13.504
33487W        W 5912   2.431  25.137  14.864
33488W        W 5913  12.123  42.408  11.878
33489W        W 5914  28.527  22.580  12.909
33490W        W 5915  11.139  22.110  13.472
33491W        W 5916  41.800  35.064  14.995
33492W        W 5917  19.215  36.514   1.229
33493W        W 5918  30.619  32.038   1.254
33494W        W 5919  26.196   7.729  14.789
33495W        W 5920   8.298  17.071  11.013
33496W        W 5921  14.214  31.010  11.071
33497W        W 5922   9.329  26.026  12.979
33498W        W 5923  23.236  34.434  10.407
33499W        W 5924  28.096  23.536   1.451
33500W        W 5925  17.646  26.538   1.835
33501W        W 5926  14.241  10.273   2.401
33502W        W 5927   4.868  24.191  14.798
33503W        W 5928  32.096  24.595   2.298
33504W        W 5929   7.791   7.713   3.761
33505W        W 5930  26.058  43.981   4.771
33506W        W 5931  36.067  31.503  11.373
33507W        W 5932  15.255  38.940  11.461
33508W        W 5933  33.989  31.921   0.430
33509W        W 5934   6.346   7.866   0.304
33510W        W 5935  16.743  37.427   1.238
33511W        W 5936  23.723  27.179  11.129
33512W        W 5937   4.393  34.073   3.660
33513W        W 5938  33.424   2.770  14.361
33514W        W 5939   1.868  37.954  11.059
33515W        W 5940  32.961  34.560   4.634
33516W        W 5941  42.400  17.714   3.224
33517W        W 5942  33.058  27.671  11.541
33518W        W 5943  41.340   9.218   0.889
33519W        W 5944  16.104  34.496   0.478
33520W        W 5945  37.432  10.721   3.385
33521W        W 5946  10.815  24.176   0.844
33522W        W 5947  19.713  15.822   3.169
33523W        W 5948  43.288  21.199  12.932
33524W        W 5949  23.134  19.211   2.686
33525W        W 5950  31.564  12.717  13.348
33526W        W 5951  25.069   8.385  13.060
33527W        W 5952  13.728  20.199  14.794
33528W        W 5953  15.645  12.754  14.964
33529W        W 5954   5.234  33.042  12.526
33530W        W 5955  36.370  43.987   4.765
33531W        W 5956  25.609  25.177   2.772
33532W        W 5957  41.914  22.683  14.921
33533W        W 5958   2.794  30.644  11.860
33534W        W 5959  35.531  24.071  10.523
33535W        W 5960   0.327   0.769  12.389
33536W        W 5961  15.152   7.910  14.328
33537W        W 5962  43.831   2.811  11.541
33538W        W 5963  11.297  39.431  11.002
33539W        W 5964  26.084   2.791  12.852
33540W        W 5965  14.302   3.840  14.470
33541W        W 5966  43.014   5.739  13.034
33542W        W 5967  12.332  28.099   1.382
33543W        W 5968  42.841  16.633  14.479
33544W        W 5969  32.130  19.648   2.409
33545W        W 5970   7.294   3.377   0.265
33546W        W 5971  10.348  38.539  14.881
33547W        W 5972   5.828  10.248   4.833
33548W        W 5973   0.923  43.986  11.085
33549W        W 5974  30.115  13.624   2.898
33550W        W 5975  14.259  38.412   3.864
33551W        W 5976  28.057  42.856  14.015
33552W        W 5977  20.652  16.668  12.855
33553W        W 5978   1.374  36.456  11.101
33554W        W 5979  31.591  24.675  11.448
33555W        W 5980   0.325  37.890   1.257
33556W        W 5981  44.367  36.579  13.345
33557W        W 5982  10.357   6.190  14.000
33558W        W 5983  24.557  37.029   0.739
33559W        W 5984  14.832  43.004  11.122
33560W        W 5985  19.615  40.466   0.929
33561W        W 5986  24.128  21.555  12.569
33562W        W 5987   2.458  22.557   2.685
33563W        W 5988  36.408   0.310   2.366
33564W        W 5989   6.218  36.425   4.825
33565W        W 5990  32.551   8.765  12.878
33566W        W 5991   8.369  38.358  12.039
33567W        W 5992   0.798   6.187  12.424
33568W        W 5993  16.596   3.271   0.870
33569W        W 5994  24.631  31.430  13.454
33570W        W 5995  40.357  21.679  12.463
33571W        W 5996   5.708  28.974  10.895
33572W        W 5997  37.486  25.587  11.925
33573W        W 5998  19.740  17.590  10.897
33574W        W 5999  12.204  41.394   1.853
33575W        W 6000  22.241  34.043  14.918
33576W        W 6001  34.996  40.537   3.647
33577W        W 6002  44.756  27.595   0.454
33578W        W 6003  37.536   7.674   1.226
33579W        W 6004  40.821   3.793  13.397
33580W        W 6005  31.506  30.058  14.333
33581W        W 6006  33.440  41.406  13.325
33582W        W 6007  13.794  30.147  11.597
33583W        W 6008   1.371   5.282  12.419
33584W        W 6009  26.694  20.110   5.101
33585W        W 6010  18.692  15.798  10.083
33586W        W 6011  19.553  30.418  11.471
33587W        W 6012  19.048   1.811  13.939
33588W        W 6013  41.880  44.427   1.754
33589W        W 6014  19.105   4.416   1.228
33590W        W 6015  29.562   0.426   1.720
33591W        W 6016  26.092  16.235  12.568
33592W        W 6017  22.019  41.789  10.932
33593W        W 6018  36.031  27.640  14.322
33594W        W 6019   8.886  31.530  14.368
33595W        W 6020  37.971  15.313  14.840
33596W        W 6021  34.511   3.850   1.222
33597W        W 6022  23.227  27.081  10.938
33598W        W 6023  27.525   7.376  10.498
33599W        W 6024  33.951  37.069  14.278
33600W        W 6025  32.537  44.346  12.093
33601W        W 6026  36.889  33.578   0.317
33602W        W 6027   7.721  32.447  13.433
33603W        W 6028  18.203  41.305  10.428
33604W        W 6029  29.426  29.668  10.923
33605W        W 6030  40.500   0.365   3.831
33606W        W 6031  43.419  11.643  14.955
33607W        W 6032  31.066   5.816  14.491
33608W        W 6033   4.320  11.324   1.370
33609W        W 6034  43.769  19.712   4.229
33610W        W 6035   1.877  37.422  13.967
33611W        W 6036  22.083  19.100   1.745
33612W        W 6037  17.171  31.971   5.164
33613W        W 6038  25.123  19.720  13.832
33614W        W 6039  43.346  40.539  14.459
33615W        W 6040  40.437   2.848   4.335
33616W        W 6041  43.394   8.789   3.290
33617W        W 6042  26.544   0.251  12.985
33618W        W 6043   9.358  30.988   1.377
33619W        W 6044  44.461   2.243  11.489
33620W        W 6045   0.762  31.017   1.365
33621W        W 6046  28.950   1.909  14.985
33622W        W 6047  25.468  40.518  13.346
33623W        W 6048  30.004   6.742   2.832
33624W        W 6049  38.019  33.425   0.918
33625W        W 6050  31.603  20.643   4.635
33626W        W 6051  43.371  39.820   4.751
33627W        W 6052  28.992  42.845  13.910
33628W        W 6053  20.645  27.525   4.833
33629W        W 6054  25.186  30.553  13.809
33630W        W 6055   3.215  27.647   3.328
33631W        W 6056  33.010  22.603  12.373
33632W        W 6057  26.674  13.689   1.716
33633W        W 6058  22.671  24.581   3.754
33634W        W 6059  34.502  23.077   0.951
33635W        W 6060  13.662  22.628   4.124
33636W        W 6061  15.129  26.124   4.642
33637W        W 6062   1.847  21.221  12.867
33638W        W 6063  34.904  26.510  12.366
33639W        W 6064  11.361  26.970  11.574
33640W        W 6065  43.459  39.013   4.113
33641W        W 6066   8.665   2.390  13.410
33642W        W 6067  42.903  13.299  11.122
33643W        W 6068   7.700  19.779   4.636
33644W        W 6069  28.464  22.231  12.528
33645W        W 6070  44.263  11.724   3.228
33646W        W 6071  17.085  32.494  13.928
33647W        W 6072  23.598  14.254  14.993
33648W        W 6073   0.963  18.138  11.033
33649W        W 6074  28.113  14.246  14.002
33650W        W 6075  18.741  39.935   3.858
33651W        W 6076  43.391  25.123   4.168
33652W        W 6077  15.610  34.057   4.836
33653W        W 6078  42.368  29.963   0.963
33654W        W 6079  31.034  22.025  14.880
33655W        W 6080  22.109  42.301   2.882
33656W        W 6081  37.994  32.483  12.922
33657W        W 6082   5.297   3.336   0.248
33658W        W 6083  26.200  40.932  11.401
33659W        W 6084   8.714  31.971   0.261
33660W        W 6085   4.817   1.446  13.802
33661W        W 6086  18.736  19.558   0.254
33662W        W 6087  29.562  23.699   2.265
33663W        W 6088  15.221  14.338  11.479
33664W        W 6089   3.872   6.383   3.758
33665W        W 6090  10.767  29.944   2.663
33666W        W 6091  21.037  25.489   2.414
33667W        W 6092  40.798  35.913  13.308
33668W        W 6093   1.475  26.027  12.428
33669W        W 6094  24.165  44.305   1.407
33670W        W 6095  35.969   8.199  12.876
33671W        W 6096  29.959  26.201  12.060
33672W        W 6097  31.426  19.736   4.286
33673W        W 6098   9.795  16.231  11.929
33674W        W 6099   0.474  14.741  11.891
33675W        W 6100  30.080  32.926  14.829
33676W        W 6101  19.557  13.648  13.021
33677W        W 6102   7.769  28.509  10.485
33678W        W 6103  39.417  42.779  14.889
33679W        W 6104   8.759  36.571   3.730
33680W        W 6105  31.509  38.443   3.368
33681W        W 6106  27.116   4.908   1.370
33682W        W 6107  33.440  42.817   3.225
33683W        W 6108  25.154   1.805  10.541
33684W        W 6109   4.316  33.087  11.015
33685W        W 6110   0.443  25.048  12.390
33686W        W 6111  19.662   4.766   3.189
33687W        W 6112  36.522  43.805   2.727
33688W        W 6113   1.870  42.409   1.405
33689W        W 6114  30.422  15.138  14.331
33690W        W 6115  30.951  40.872  12.548
33691W        W 6116  19.588  10.858   4.309
33692W        W 6117   9.219  39.891   1.928
33693W        W 6118  17.758   4.710   4.730
33694W        W 6119  26.515  31.629  11.049
33695W        W 6120  40.508  41.971   1.911
33696W        W 6121  39.848  26.047  10.645
33697W        W 6122   6.820  28.036   1.233
33698W        W 6123  21.069  26.617   1.282
33699W        W 6124  40.039   7.815   2.758
33700W        W 6125  15.593  25.032   0.249
33701W        W 6126  23.985  17.767   0.727
33702W        W 6127   0.782  31.955  14.987
33703W        W 6128   3.382  24.500   0.458
33704W        W 6129   6.812  24.555   0.937
33705W        W 6130   4.768  36.584   1.883
33706W        W 6131  24.060  20.527   1.901
33707W        W 6132  42.520   9.320   4.815
33708W        W 6133  21.602  20.749  10.637
33709W        W 6134  25.479   0.358   4.614
33710W        W 6135  30.153  43.481   1.264
33711W        W 6136  39.899  32.100   1.904
33712W        W 6137  12.287  28.996   2.307
33713W        W 6138   7.373   1.335  12.379
33714W        W 6139  31.978  42.841   3.186
33715W        W 6140   1.304   3.276  12.848
33716W        W 6141   9.880  28.980  14.393
33717W        W 6142  15.197  20.045   3.794
33718W        W 6143  23.538  43.514  13.422
33719W        W 6144   8.231  26.513   2.785
33720W        W 6145  13.230  33.475  14.385
33721W        W 6146  34.375  24.684  12.883
33722W        W 6147  11.278  18.209   1.443
33723W        W 6148   0.829  18.789   0.948
33724W        W 6149  14.119   8.856  14.765
33725W        W 6150  35.974   9.679   5.317
33726W        W 6151  31.138  27.977   3.260
33727W        W 6152   3.438   6.196   2.306
33728W        W 6153   0.440  25.499  13.315
33729W        W 6154  11.813   7.189   1.294
33730W        W 6155   5.861  20.201  13.866
33731W        W 6156  37.990  40.013   0.951
33732W        W 6157  16.753  31.018  14.864
33733W        W 6158  16.303  23.613  11.408
33734W        W 6159  27.478  13.640   4.642
33735W        W 6160  13.619  24.717  11.397
33736W        W 6161  21.688   9.652   3.281
33737W        W 6162  24.573   8.334  14.995
33738W        W 6163  39.447  23.582   4.724
33739W        W 6164  37.852  24.538  14.942
33740W        W 6165   5.200  34.952   0.812
33741W        W 6166  13.309   1.776   1.846
33742W        W 6167  22.153   7.776  11.383
33743W        W 6168  40.039  25.174  14.817
33744W        W 6169  38.055   9.766  13.397
33745W        W 6170   1.970  13.240  14.356
33746W        W 6171   6.808  12.359   1.931
33747W        W 6172  27.514  23.545   3.167
33748W        W 6173   5.216  41.382   1.773
33749W        W 6174  25.474  20.640  13.529
33750W        W 6175  14.320  11.313  10.626
33751W        W 6176  21.741   7.181   3.747
33752W        W 6177  16.116  35.555   0.876
33753W        W 6178   2.786  10.252   4.226
33754W        W 6179  25.037  39.506  11.439
33755W        W 6180   9.736   5.437   2.299
33756W        W 6181  35.489  44.322  13.974
33757W        W 6182  39.910  30.109   4.195
33758W        W 6183  43.801   2.765   0.309
33759W        W 6184  36.505  39.056  13.895
33760W        W 6185  40.039  31.570   2.254
33761W        W 6186  28.079  17.791   0.928
33762W        W 6187  24.657  15.638  12.363
33763W        W 6188   4.723  41.313  14.336
33764W        W 6189  25.649  43.953   3.640
33765W        W 6190   3.860  30.975  10.545
33766W        W 6191  15.232  39.453  11.010
33767W        W 6192  39.043  44.849  12.579
33768W        W 6193   5.920  27.503   3.653
33769W        W 6194  36.552  31.033   0.296
33770W        W 6195   9.249   9.708  13.923
33771W        W 6196  39.509  17.249  13.363
33772W        W 6197  13.289  34.875   0.357
33773W        W 6198   5.262  19.062  10.997
33774W        W 6199  27.064  15.244   1.698
33775W        W 6200  34.399  27.056  11.056
33776W        W 6201  24.611  11.159  13.856
33777W        W 6202  12.829  23.700  11.095
33778W        W 6203  21.733  32.524  11.449
33779W        W 6204  21.057   3.339  11.001
33780W        W 6205   2.293  18.756   4.688
33781W        W 6206  10.141  30.004  12.854
33782W        W 6207  19.267  27.690  14.441
33783W        W 6208  44.898   9.648  12.083
33784W        W 6209  42.453  21.550   2.690
33785W        W 6210  13.782  26.012  14.992
33786W        W 6211  30.056  38.830   2.251
33787W        W 6212  29.946  12.130   0.463
33788W        W 6213  20.113   5.327  10.640
33789W        W 6214  24.657   1.750   1.905
33790W        W 6215  11.296   4.721   3.683
33791W        W 6216  39.441  24.993  13.380
33792W        W 6217  20.131  13.776   0.878
33793W        W 6218   2.426   6.918   0.251
33794W        W 6219   9.716  40.358   1.218
33795W        W 6220  19.623  13.210   3.185
33796W        W 6221   7.329   8.826   3.152
33797W        W 6222  15.703  17.621   1.375
33798W        W 6223  24.600  13.211   4.159
33799W        W 6224  29.470  32.134   3.233
33800W        W 6225  43.323  18.763  13.370
33801W        W 6226  17.637  16.651  14.774
33802W        W 6227   4.834  14.293   1.295
33803W        W 6228  32.092  10.228   1.913
33804W        W 6229  32.430   2.775  12.433
33805W        W 6230   6.376   3.391  13.511
33806W        W 6231  36.530  30.568  10.973
33807W        W 6232   5.325  36.512   4.611
33808W        W 6233  42.507  43.489   1.429
33809W        W 6234  16.756  41.507   2.258
33810W        W 6235  19.085  24.583  12.403
33811W        W 6236   3.360   3.774  14.505
33812W        W 6237  14.279   2.956  14.792
33813W        W 6238  26.569  12.683   2.773
33814W        W 6239  43.797  23.703  14.843
33815W        W 6240  33.412  25.567   1.913
33816W        W 6241   6.820  26.593   2.747
33817W        W 6242  19.599  40.835  10.468
33818W        W 6243  44.759  30.912  11.083
33819W        W 6244  11.131   9.251  10.512
33820W        W 6245   3.457  15.590   4.254
33821W        W 6246  39.327  12.714   2.279
33822W        W 6247   5.302  42.992  12.880
33823W        W 6248   9.208  27.997   4.321
33824W        W 6249   0.920  34.401   4.599
33825W        W 6250   0.835  11.144  12.833
33826W        W 6251  43.006  38.880  14.311
33827W        W 6252   0.286  20.578   1.722
33828W        W 6253   3.351  10.766  12.547
33829W        W 6254  15.652   2.341  13.483
33830W        W 6255  16.600  40.007  14.868
33831W        W 6256  38.925  18.233   1.294
33832W        W 6257  41.421   6.838   1.290
33833W        W 6258   7.359  31.524   0.355
33834W        W 6259  39.483   8.324   3.824
33835W        W 6260  15.741  32.569   0.727
33836W        W 6261  14.229   2.372   3.743
33837W        W 6262  21.547   0.338  14.995
33838W        W 6263  44.937  12.334   3.810
33839W        W 6264  38.013  44.404  13.840
33840W        W 6265  33.457  34.553  11.958
33841W        W 6266  33.515  15.692  12.363
33842W        W 6267  28.485  29.644  13.451
33843W        W 6268   0.932   4.310  11.051
33844W        W 6269   7.893  29.934   2.307
33845W        W 6270  10.700  34.430   2.252
33846W        W 6271  43.381  16.214  11.397
33847W        W 6272  13.720  25.689   2.377
33848W        W 6273  17.563  34.498   3.281
33849W        W 6274  11.260  36.874  11.052
33850W        W 6275  16.685  16.188   2.194
33851W        W 6276  42.405  25.589  10.472
33852W        W 6277  34.452  25.988  10.534
33853W        W 6278  15.710  30.624   2.369
33854W        W 6279  13.809  42.951   3.218
33855W        W 6280  16.274  44.270   9.946
33856W        W 6281  40.011  34.412  13.850
33857W        W 6282   6.763  20.631   1.885
33858W        W 6283  34.055  32.472   4.782
33859W        W 6284  12.689  43.450   3.787
33860W        W 6285  43.497  34.607   2.413
33861W        W 6286  41.845  25.048  14.959
33862W        W 6287  34.466  33.516  10.912
33863W        W 6288  15.603   3.287   3.784
33864W        W 6289  41.399  21.234  10.592
33865W        W 6290  20.216  11.634  11.597
33866W        W 6291   0.838  23.640  10.531
33867W        W 6292  27.602  13.767   1.285
33868W        W 6293  17.092  13.213   4.836
33869W        W 6294  37.857  40.379  12.532
33870W        W 6295  21.169   0.786   2.778
33871W        W 6296  14.334  32.622  13.357
33872W        W 6297  28.933  41.873  12.536
33873W        W 6298   6.334  10.244   3.652
33874W        W 6299  20.633  22.592  11.402
33875W        W 6300   1.434  43.864  14.452
33876W        W 6301  25.474  40.494  14.986
33877W        W 6302  38.014  20.106   3.636
33878W        W 6303  34.547  25.092  11.911
33879W        W 6304  11.764  28.126  14.867
33880W        W 6305  30.962  15.728   2.245
33881W        W 6306  28.611   8.848   2.283
33882W        W 6307  42.442  26.601   2.192
33883W        W 6308  27.043  39.839  13.936
33884W        W 6309  27.515  23.137  10.515
33885W        W 6310   5.847  41.936   3.641
33886W        W 6311  44.352   4.719   1.911
33887W        W 6312  43.982  41.445   1.310
33888W        W 6313   1.855  36.962   3.749
33889W        W 6314  19.127  41.535   3.739
33890W        W 6315   1.807  17.786  14.029
33891W        W 6316  27.635  37.516   4.666
33892W        W 6317  21.207  22.023   3.197
33893W        W 6318   9.219   9.207   4.192
33894W        W 6319  32.053  24.714  10.990
33895W        W 6320  39.880  27.942  11.040
33896W        W 6321   6.212  27.021  13.928
33897W        W 6322   7.788  15.215   2.376
33898W        W 6323  17.667  14.248   3.632
33899W        W 6324  30.045  26.650  14.431
33900W        W 6325  24.688  20.219  11.887
33901W        W 6326  11.712  13.760  14.823
33902W        W 6327  36.055  17.264   2.674
33903W        W 6328  12.247  32.920  13.414
33904W        W 6329  18.584   4.824  11.372
33905W        W 6330   4.826  21.613  11.888
33906W        W 6331  36.882  41.327   2.196
33907W        W 6332  21.060  35.970  11.961
33908W        W 6333   1.829   8.784   1.803
33909W        W 6334  41.929  15.162  12.453
33910W        W 6335  35.970  18.664  12.359
33911W        W 6336  36.090  24.986  12.558
33912W        W 6337  28.064  35.965  12.561
33913W        W 6338  41.944  38.414  11.587
33914W        W 6339  36.033  31.561  12.033
33915W        W 6340  22.223  18.163   2.724
33916W        W 6341  38.330  13.133  13.375
33917W        W 6342  35.440  16.699  13.947
33918W        W 6343  32.128  25.571  12.529
33919W        W 6344   7.184  34.561   3.802
33920W        W 6345  35.392  20.075   2.383
33921W        W 6346  11.866  23.653  11.436
33922W        W 6347   8.237  29.162  10.532
33923W        W 6348  32.504  29.929   0.931
33924W        W 6349  38.908  33.938  10.940
33925W        W 6350  17.241   6.244   1.314
33926W        W 6351  22.553  27.672   3.857
33927W        W 6352  28.994   4.876   2.372
33928W        W 6353  27.119  30.044   5.317
33929W        W 6354   6.720  26.975  11.384
33930W        W 6355  31.542  28.139  12.505
33931W        W 6356  15.326  18.556  13.314
33932W        W 6357   4.211  40.819   1.319
33933W        W 6358  43.385   8.237   0.346
33934W        W 6359   2.868  18.071  11.427
33935W        W 6360  30.124  11.255  12.956
33936W        W 6361  17.134  40.472  11.119
33937W        W 6362  35.521   1.788  13.461
33938W        W 6363  35.019   9.383   9.508
33939W        W 6364  28.080   7.250   4.273
33940W        W 6365  33.437  27.027   4.719
33941W        W 6366  23.192  22.052  14.950
33942W        W 6367  15.174   3.773  10.034
33943W        W 6368  19.268  12.309   0.469
33944W        W 6369  36.880   3.801   3.385
33945W        W 6370   0.416  38.523  11.071
33946W        W 6371   3.930  33.613   0.348
33947W        W 6372  28.177  41.517  12.506
33948W        W 6373  13.744  34.083  13.850
33949W        W 6374  41.025  11.815  13.498
33950W        W 6375  29.138  22.060   1.737
33951W        W 6376  22.078  25.473  11.506
33952W        W 6377  38.003  17.627  12.429
33953W        W 6378   1.408  34.059   0.824
33954W        W 6379  15.817  29.579  11.993
33955W        W 6380  18.591  16.288   2.751
33956W        W 6381  22.126  43.967   3.791
33957W        W 6382  28.031  29.933  12.978
33958W        W 6383  22.673  28.144  14.467
33959W        W 6384   6.392  27.548  11.974
33960W        W 6385  19.277   4.713  11.894
33961W        W 6386  37.932  36.510   1.901
33962W        W 6387  25.200   4.394  11.513
33963W        W 6388  30.547  22.674  10.955
33964W        W 6389  28.116  14.774   0.728
33965W        W 6390  44.942  43.924   0.480
33966W        W 6391  43.491  33.993  11.079
33967W        W 6392   6.787  43.844  13.011
33968W        W 6393   5.330  39.885  11.969
33969W        W 6394  23.561  37.840  10.522
33970W        W 6395  44.757   8.748  12.373
33971W        W 6396   9.868  20.757  14.029
33972W        W 6397   9.167  44.333  12.468
33973W        W 6398   4.773  28.019   3.273
33974W        W 6399   1.976  31.012   2.402
33975W        W 6400  31.622  18.073   4.814
33976W        W 6401  41.985  43.837  14.384
33977W        W 6402   2.765   0.835  10.485
33978W        W 6403   0.788  30.414   4.187
33979W        W 6404   4.395   7.190   3.699
33980W        W 6405  37.434  21.056   2.211
33981W        W 6406   7.416   7.402  14.903
33982W        W 6407  30.032  38.975   0.844
33983W        W 6408  16.155  25.676   3.379
33984W        W 6409  27.970  16.602  10.636
33985W        W 6410  29.662  22.173  14.356
33986W        W 6411  15.677  25.604   0.927
33987W        W 6412   6.828  38.844  14.026
33988W        W 6413  34.069   4.740  12.349
33989W        W 6414   2.750   3.451   2.737
33990W        W 6415   8.850  12.795  12.402
33991W        W 6416  24.665  17.563   2.778
33992W        W 6417   2.846  24.104  12.931
33993W        W 6418  34.479  27.962   1.276
33994W        W 6419  43.416   5.432  14.358
33995W        W 6420   4.812  43.847  13.321
33996W        W 6421  18.738  11.242   2.762
33997W        W 6422   6.337  20.089  12.090
33998W        W 6423  15.187  38.545   1.837
33999W        W 6424  36.974  14.336  12.087
34000W        W 6425  40.877  10.303   4.783
34001W        W 6426   5.196  14.201  14.462
34002W        W 6427  13.225  17.621   0.878
34003W        W 6428  34.994  12.219  11.548
34004W        W 6429  14.620  30.419   1.868
34005W        W 6430  25.665  38.029   1.769
34006W        W 6431  26.663  27.585  14.318
34007W        W 6432  29.174  26.061  14.856
34008W        W 6433   3.232  38.990  10.988
34009W        W 6434  26.523  14.188  12.881
34010W        W 6435  24.625  42.384  11.392
34011W        W 6436   2.856  15.203  12.573
34012W        W 6437  42.783  21.244   5.317
34013W        W 6438   5.238  11.203   1.847
34014W        W 6439  40.376  39.560   4.232
34015W        W 6440  31.064  25.516   4.737
34016W        W 6441  27.653   2.334   0.928
34017W        W 6442  38.391  35.980  12.872
34018W        W 6443   2.906   7.369  12.035
34019W        W 6444  16.220  44.782  13.846
34020W        W 6445  14.238  40.319   3.720
34021W        W 6446   9.769   3.412  14.776
34022W        W 6447  28.615  22.017  10.049
34023W        W 6448  30.452  37.344  11.969
34024W        W 6449  29.025  26.497  14.815
34025W        W 6450   6.288  28.619   9.971
34026W        W 6451  12.697  16.576  11.385
34027W        W 6452  35.900   0.925   2.288
34028W        W 6453  28.165  31.100   2.745
34029W        W 6454   8.789  33.011   0.798
34030W        W 6455  15.725  26.194  11.550
34031W        W 6456  33.050  42.798   3.322
34032W        W 6457  40.013  25.978  11.901
34033W        W 6458  11.282  21.520  13.941
34034W        W 6459   9.224  37.979  13.930
34035W        W 6460  44.455  18.689   3.756
34036W        W 6461  42.837  20.716   0.455
34037W        W 6462  33.107  33.397   1.720
34038W        W 6463  43.969  34.080   4.816
34039W        W 6464  17.150  30.584  14.778
34040W        W 6465  38.344  33.019  11.971
34041W        W 6466   4.894  42.300   3.315
34042W        W 6467  11.247  35.035  13.348
34043W        W 6468  14.741  22.601   4.658
34044W        W 6469  32.516  21.164  12.861
34045W        W 6470  34.370  28.129   1.785
34046W        W 6471  19.179   7.252   0.471
34047W        W 6472  30.421  28.561   4.341
34048W        W 6473   3.763  42.382   4.307
34049W        W 6474  28.082  23.587  13.546
34050W        W 6475   0.863  31.476  14.315
34051W        W 6476  18.562  43.002  10.941
34052W        W 6477  32.398   3.793  14.938
34053W        W 6478  44.772   8.798   1.266
34054W        W 6479  34.021  19.709  14.396
34055W        W 6480  24.676  35.568  10.920
34056W        W 6481  20.635  13.301   0.339
34057W        W 6482  22.554  30.593   1.840
34058W        W 6483  13.703   9.252   1.301
34059W        W 6484  28.140  27.659   3.369
34060W        W 6485  32.908  39.502  13.890
34061W        W 6486   7.878   4.826   5.097
34062W        W 6487  38.029  12.837  10.948
34063W        W 6488  10.304  15.679  14.404
34064W        W 6489  11.176  13.275  12.565
34065W        W 6490   3.339  15.195  14.339
34066W        W 6491  16.295  34.003   0.412
34067W        W 6492  13.785  17.760   3.339
34068W        W 6493  17.290  13.716   1.762
34069W        W 6494  39.513  18.142  13.863
34070W        W 6495  28.115  21.646  11.089
34071W        W 6496  41.995  34.444   3.630
34072W        W 6497  21.165  31.134  13.029
34073W        W 6498  29.025   2.936  14.910
34074W        W 6499   6.429  13.253  11.104
34075W        W 6500  17.131  10.850  12.460
34076W        W 6501  34.583  22.640  14.833
34077W        W 6502  17.699  37.484  12.342
34078W        W 6503  15.764   8.298  12.037
34079W        W 6504  23.567   3.221  14.953
34080W        W 6505  12.283  13.274   1.291
34081W        W 6506  10.739  16.156   4.312
34082W        W 6507  30.654  21.104   0.940
34083W        W 6508  29.560  38.893   9.555
34084W        W 6509  21.713  24.590  14.967
34085W        W 6510   3.909  13.201   1.827
34086W        W 6511  14.233   2.952   1.368
34087W        W 6512  34.023  13.110  11.909
34088W        W 6513  43.449  35.045  11.938
34089W        W 6514  26.660  21.728  12.349
34090W        W 6515   2.228  26.612   4.307
34091W        W 6516  16.088  42.350  10.475
34092W        W 6517   9.651  19.758  11.988
34093W        W 6518  15.693  13.253   3.203
34094W        W 6519  13.156  22.578   4.818
34095W        W 6520  20.247  34.868  14.470
34096W        W 6521  34.415  10.369  13.518
34097W        W 6522  12.815  36.864   3.261
34098W        W 6523  41.940   8.285   2.181
34099W        W 6524  19.774  20.587   3.675
34100W        W 6525  26.680  30.084   0.921
34101W        W 6526  11.638   9.307   4.148
34102W        W 6527  20.668  11.308   0.931
34103W        W 6528  34.441  41.838   2.737
34104W        W 6529  33.111  35.031  12.060
34105W        W 6530  42.383  44.444   3.853
34106W        W 6531  41.384  10.835  11.409
34107W        W 6532  21.110   9.672   5.784
34108W        W 6533   6.766  10.255   1.408
34109W        W 6534  29.157  43.292   3.332
34110W        W 6535  19.139   6.362   4.730
34111W        W 6536   7.231  15.142  12.060
34112W        W 6537  20.566  34.489   4.148
34113W        W 6538  40.953  38.517  14.889
34114W        W 6539  26.636  43.349   4.229
34115W        W 6540  38.985  40.977   1.393
34116W        W 6541  26.162  24.638   0.408
34117W        W 6542  28.627  24.013   3.352
34118W        W 6543  40.836   7.775   2.415
34119W        W 6544   4.878  42.366   1.787
34120W        W 6545  20.239  26.111  13.053
34121W        W 6546   5.727   5.322  11.997
34122W        W 6547   9.229  15.286   0.828
34123W        W 6548  15.783  32.890  11.078
34124W        W 6549  16.650  11.830   2.316
34125W        W 6550  16.737   2.462  14.993
34126W        W 6551  41.899  41.799   1.312
34127W        W 6552   4.881  23.097  14.421
34128W        W 6553  18.277   7.891  12.351
34129W        W 6554  34.544   2.909   4.718
34130W        W 6555  41.949   0.955  12.904
34131W        W 6556  19.234  21.591  14.336
34132W        W 6557  39.932   3.412  12.435
34133W        W 6558  36.973   9.846  12.924
34134W        W 6559  30.600  24.517  13.308
34135W        W 6560  21.517  17.225   1.347
34136W        W 6561  14.646  25.213   1.771
34137W        W 6562   4.871  44.353   3.744
34138W        W 6563  42.932  20.248   1.933
34139W        W 6564  12.730  25.519  10.063
34140W        W 6565   1.382  31.425  10.914
34141W        W 6566  25.661  17.760  11.456
34142W        W 6567   7.738  20.571   3.203
34143W        W 6568  33.972  38.517   3.675
34144W        W 6569  23.236  20.698   2.259
34145W        W 6570  11.748   1.888   9.974
34146W        W 6571   0.805  10.329   2.367
34147W        W 6572  28.976  40.455  12.066
34148W        W 6573  28.986  28.933  12.836
34149W        W 6574  40.934  16.597  14.830
34150W        W 6575  24.630  28.183   2.674
34151W        W 6576   6.912  27.485   2.832
34152W        W 6577  26.599  17.121  13.493
34153W        W 6578  31.497  20.556   1.215
34154W        W 6579  41.428  25.106  11.605
34155W        W 6580  11.867  41.515  12.507
34156W        W 6581  25.484  12.348   4.132
34157W        W 6582  27.983   9.260   2.779
34158W        W 6583  44.449  38.050  11.531
34159W        W 6584  17.745  34.889   3.355
34160W        W 6585  13.841   6.362   1.734
34161W        W 6586  34.451  28.485  12.352
34162W        W 6587  43.914   6.877  13.854
34163W        W 6588  26.530  44.937  12.429
34164W        W 6589   6.292  36.941  13.376
34165W        W 6590   3.259  24.701  14.398
34166W        W 6591  32.405  11.225  13.351
34167W        W 6592   1.462  40.513   3.790
34168W        W 6593   2.940  16.654   3.666
34169W        W 6594  27.520  16.225  14.841
34170W        W 6595   8.284  27.677  11.972
34171W        W 6596   6.331  18.180   2.738
34172W        W 6597  23.234  43.291  14.369
34173W        W 6598   2.888  10.305   0.911
34174W        W 6599  42.968  10.373   3.272
34175W        W 6600  22.561  23.516   0.745
34176W        W 6601  17.260   4.856  11.564
34177W        W 6602   5.877   0.911   0.273
34178W        W 6603  12.271  13.352   0.864
34179W        W 6604   7.269  41.476   4.265
34180W        W 6605  21.207  20.615  13.008
34181W        W 6606  37.349   7.365   1.372
34182W        W 6607  27.133  28.179   3.380
34183W        W 6608   3.855  28.089   3.232
34184W        W 6609   4.931  10.719  12.416
34185W        W 6610   5.374  30.983   3.798
34186W        W 6611  43.502  10.355  10.980
34187W        W 6612   6.678  29.134   0.428
34188W        W 6613  15.277  33.021  10.949
34189W        W 6614  26.673  23.556   4.228
34190W        W 6615  21.752  26.073  14.807
34191W        W 6616  18.624  11.294   3.376
34192W        W 6617  24.708  36.999  11.087
34193W        W 6618  14.748  44.900   2.393
34194W        W 6619  41.398  12.146   0.434
34195W        W 6620  11.212  19.726   5.255
34196W        W 6621   2.922   3.874   3.253
34197W        W 6622  36.909  35.021  13.367
34198W        W 6623  11.731  33.121   0.841
34199W        W 6624  31.145  36.969   4.677
34200W        W 6625  41.876  40.351   0.472
34201W        W 6626   5.375  28.569  10.603
34202W        W 6627   9.205  36.532   2.866
34203W        W 6628  31.489  34.478  13.420
34204W        W 6629  25.684  30.617  11.575
34205W        W 6630  14.152  22.698  14.857
34206W        W 6631  36.435   2.852  12.997
34207W        W 6632  25.616   8.857   1.395
34208W        W 6633  38.471  22.123  13.327
34209W        W 6634  37.359  12.617  14.487
34210W        W 6635  39.489  13.187   3.357
34211W        W 6636   6.287  36.028  11.509
34212W        W 6637   1.279   7.341   4.301
34213W        W 6638   1.749  41.925   3.855
34214W        W 6639   0.489  39.533  14.951
34215W        W 6640  41.439   2.909   2.262
34216W        W 6641  42.882  31.619  13.970
34217W        W 6642  33.890  14.173  10.926
34218W        W 6643   6.413  19.125   4.307
34219W        W 6644  23.991  22.581   3.827
34220W        W 6645  38.949  19.750  12.503
34221W        W 6646  40.038  25.517  12.510
34222W        W 6647  44.400  25.968   9.990
34223W        W 6648   7.350  36.557   4.676
34224W        W 6649  11.866  16.130   2.669
34225W        W 6650  32.430  21.586  13.517
34226W        W 6651  35.063  27.169  14.852
34227W        W 6652  33.086  19.545  12.355
34228W        W 6653  29.483  31.441   0.296
34229W        W 6654  36.960  44.999   2.221
34230W        W 6655  14.821  33.936  12.516
34231W        W 6656  43.996  38.415  11.897
34232W        W 6657  43.272  21.063   0.764
34233W        W 6658  19.624  36.025   2.787
34234W        W 6659  16.295   8.829  13.388
34235W        W 6660  43.804  27.477  11.523
34236W        W 6661  27.190  44.855  11.414
34237W        W 6662  35.087  25.560   0.484
34238W        W 6663   7.866  16.665   1.267
34239W        W 6664   3.761  31.451  13.997
34240W        W 6665  29.075  36.357  14.842
34241W        W 6666  17.659   4.419   0.851
34242W        W 6667  38.431  35.098  11.576
34243W        W 6668   6.366   6.384   3.826
34244W        W 6669  29.649  31.041   0.917
34245W        W 6670  31.585   9.817   2.191
34246W        W 6671  24.213  21.693  10.628
34247W        W 6672   8.316   2.936  12.394
34248W        W 6673   5.392  42.998  14.877
34249W        W 6674  23.158  18.653   0.472
34250W        W 6675  42.438  20.558  13.318
34251W        W 6676  24.123  19.278   2.822
34252W        W 6677  13.213  34.410  13.948
34253W        W 6678   1.948  22.579   0.755
34254W        W 6679   7.748  40.994  13.353
34255W        W 6680  35.477  12.768  12.510
34256W        W 6681  38.544   7.800  14.338
34257W        W 6682  11.724  38.937   2.178
34258W        W 6683  25.212  44.414  11.981
34259W        W 6684  17.269   5.888   2.186
34260W        W 6685  40.332  39.960   0.729
34261W        W 6686  29.445  11.728  14.447
34262W        W 6687  26.956  11.781  11.472
34263W        W 6688  17.135  39.976  14.507
34264W        W 6689  15.212  38.352  11.023
34265W        W 6690   7.183  38.019  12.391
34266W        W 6691  15.123  26.141   1.878
34267W        W 6692  17.189  23.638   1.868
34268W        W 6693  10.841  31.931   4.148
34269W        W 6694  42.874  28.506   4.791
34270W        W 6695   5.704  43.976  10.597
34271W        W 6696  14.725  42.472  13.003
34272W        W 6697  36.873  33.072  10.428
34273W        W 6698  19.063  11.373   1.261
34274W        W 6699  43.853  43.330  11.108
34275W        W 6700  44.297   7.834   3.204
34276W        W 6701  10.223  24.029  10.031
34277W        W 6702  40.988  36.065   2.357
34278W        W 6703  41.295   5.407  13.846
34279W        W 6704   4.746  36.871  14.916
34280W        W 6705  38.421  26.015   3.328
34281W        W 6706   4.864   1.889  12.089
34282W        W 6707  34.019  44.429   1.913
34283W        W 6708  18.175  36.576  13.061
34284W        W 6709  31.132  16.643   4.313
34285W        W 6710  15.239  20.644  12.358
34286W        W 6711   7.724   1.817  12.914
34287W        W 6712  21.721  33.401   0.967
34288W        W 6713  24.067  10.869   0.856
34289W        W 6714   5.201  27.572   3.689
34290W        W 6715  34.924  31.435   3.696
34291W        W 6716  28.486  38.379  12.001
34292W        W 6717  28.458   6.889  12.461
34293W        W 6718  22.643  31.049   1.266
34294W        W 6719  41.898   4.327   4.292
34295W        W 6720   9.830  33.564   4.320
34296W        W 6721  38.538   1.456  11.910
34297W        W 6722   5.378   6.864  13.464
34298W        W 6723  18.185  28.645   1.230
34299W        W 6724  34.415  13.699  11.401
34300W        W 6725   2.270  16.574  14.946
34301W        W 6726  16.310  14.641   4.693
34302W        W 6727  19.559  15.228   2.735
34303W        W 6728  42.387   7.249  12.442
34304W        W 6729  27.068  23.491  11.043
34305W        W 6730  19.764  10.838  12.075
34306W        W 6731  20.251   7.905   0.323
34307W        W 6732  32.605  27.106   2.389
34308W        W 6733  25.530  25.021  14.772
34309W        W 6734  42.382  39.491  13.526
34310W        W 6735  41.924  10.175   0.457
34311W        W 6736   7.726  27.114  14.422
34312W        W 6737  16.152  34.475   9.486
34313W        W 6738   2.385   4.843   4.599
34314W        W 6739  38.461  26.175   4.689
34315W        W 6740   8.879  30.419  13.869
34316W        W 6741  29.062   0.789   1.347
34317W        W 6742  24.056  41.310   9.986
34318W        W 6743  33.950  19.088   3.294
34319W        W 6744  42.484   7.218   4.606
34320W        W 6745   2.428   4.313  14.764
34321W        W 6746  43.827  32.443   4.605
34322W        W 6747  11.672  35.916  14.341
34323W        W 6748  19.553  27.084  11.865
34324W        W 6749   1.388  16.589  11.855
34325W        W 6750   5.328  17.206   2.216
34326W        W 6751  15.696   3.792  14.842
34327W        W 6752  33.615  25.614   0.388
34328W        W 6753   5.247  17.623  13.808
34329W        W 6754  21.743   1.858  12.875
34330W        W 6755  38.831   0.402  12.971
34331W        W 6756  30.992   7.286   0.751
34332W        W 6757  32.636  28.528  11.967
34333W        W 6758  11.224  43.425   3.183
34334W        W 6759  43.941   7.734   2.307
34335W        W 6760  42.350  22.524  10.911
34336W        W 6761  26.045   1.434   1.267
34337W        W 6762  13.292  16.214  11.979
34338W        W 6763  32.545  16.631   3.821
34339W        W 6764  11.171  36.396  11.948
34340W        W 6765   3.425  13.639   0.483
34341W        W 6766  31.476  24.033  12.880
34342W        W 6767  22.697  31.470   3.803
34343W        W 6768  18.278  21.121  12.948
34344W        W 6769   4.794  36.843   4.336
34345W        W 6770  41.796  30.485  13.820
34346W        W 6771  11.825  10.168  13.448
34347W        W 6772  39.938  33.992  11.543
34348W        W 6773  28.998  20.094  11.413
34349W        W 6774  40.849  33.931   3.223
34350W        W 6775   1.869  29.461   0.881
34351W        W 6776  38.060  43.913   3.339
34352W        W 6777   7.715  22.225   3.317
34353W        W 6778   6.758  21.670  12.504
34354W        W 6779   5.257   4.297   2.374
34355W        W 6780  32.454  31.536   3.280
34356W        W 6781  34.388  26.180   3.652
34357W        W 6782  38.015  17.729   0.958
34358W        W 6783  32.036  37.927  12.510
34359W        W 6784  29.076   5.388  10.506
34360W        W 6785  34.529  20.266  12.962
34361W        W 6786  38.488  38.401  14.920
34362W        W 6787  37.407  27.135   3.267
34363W        W 6788  30.448  32.480  11.922
34364W        W 6789  37.465  21.608  12.486
34365W        W 6790   8.681  34.077  11.409
34366W        W 6791  11.818  21.528   1.236
34367W        W 6792  24.513  15.181   0.278
34368W        W 6793  18.762  25.567  10.444
34369W        W 6794  26.484  38.838   1.926
34370W        W 6795   4.263   3.727   4.313
34371W        W 6796   4.787   9.680   2.205
34372W        W 6797  11.808  44.946  12.350
34373W        W 6798  29.493  32.052   1.237
34374W        W 6799  29.570  17.781   1.241
34375W        W 6800  22.201   7.711   4.651
34376W        W 6801  19.073   3.388  11.060
34377W        W 6802  42.953   2.226  10.558
34378W        W 6803  19.565  33.404  11.409
34379W        W 6804   4.404  18.112   0.779
34380W        W 6805  20.176   6.205   3.778
34381W        W 6806  42.482   1.793  14.900
34382W        W 6807  13.146  39.928   2.736
34383W        W 6808  22.571  10.702   1.785
34384W        W 6809  33.025  12.718   1.765
34385W        W 6810  10.756   6.815  14.514
34386W        W 6811   1.464  18.219   3.172
34387W        W 6812  11.686  24.099  14.889
34388W        W 6813   0.432  27.197  11.429
34389W        W 6814  26.028  32.095   3.225
34390W        W 6815   1.357   0.962  11.498
34391W        W 6816  26.169  40.458  12.095
34392W        W 6817  25.678  30.635   0.885
34393W        W 6818  41.830   7.249   1.695
34394W        W 6819  31.062  33.098  12.511
34395W        W 6820  19.546  25.480   1.696
34396W        W 6821   5.417   6.258   2.850
34397W        W 6822  14.649  33.432   1.851
34398W        W 6823  20.522   1.450   2.697
34399W        W 6824  19.183  25.547   2.815
34400W        W 6825   8.792  18.558   1.785
34401W        W 6826  26.655  21.021   3.319
34402W        W 6827  15.587   7.785  11.530
34403W        W 6828  35.942  15.816  14.885
34404W        W 6829  19.602   2.370  11.432
34405W        W 6830  34.396  16.610  13.828
34406W        W 6831  33.433  37.535   0.356
34407W        W 6832  22.660   1.401   3.234
34408W        W 6833   9.785  29.526  13.426
34409W        W 6834   7.817  29.591   2.343
34410W        W 6835  17.063  23.608  14.412
34411W        W 6836  24.178  20.682  10.524
34412W        W 6837  36.529  24.017   4.658
34413W        W 6838  10.832  23.009   1.817
34414W        W 6839  43.816   0.468   0.353
34415W        W 6840  20.769   3.373   2.295
34416W        W 6841  33.494   6.735  12.055
34417W        W 6842  17.648  44.410   0.322
34418W        W 6843  14.735  43.888  13.482
34419W        W 6844  15.778   5.395   2.189
34420W        W 6845  25.618  25.469  12.898
34421W        W 6846   6.839  15.214  14.903
34422W        W 6847  17.207   6.890  11.604
34423W        W 6848  31.132  41.332   2.685
34424W        W 6849  18.741  20.269  11.125
34425W        W 6850  15.691  14.793   4.705
34426W        W 6851  19.718  15.775   2.788
34427W        W 6852   7.814  37.057   1.892
34428W        W 6853  13.655  16.722   3.635
34429W        W 6854  12.808   3.902  12.998
34430W        W 6855  33.064  17.774  14.962
34431W        W 6856  29.603  40.480  13.988
34432W        W 6857  44.925  42.372   2.827
34433W        W 6858  33.982  44.484  13.979
34434W        W 6859  20.764   1.237  11.086
34435W        W 6860  39.471  19.264   2.779
34436W        W 6861  39.941  19.213   1.214
34437W        W 6862  43.820   6.898   2.356
34438W        W 6863   7.732  40.477  10.120
34439W        W 6864   7.666  38.558  13.960
34440W        W 6865  30.133   4.372   1.278
34441W        W 6866  13.166  34.381  10.974
34442W        W 6867  19.625  32.503   3.372
34443W        W 6868   2.938  43.766  13.820
34444W        W 6869  16.809  29.959  14.007
34445W        W 6870   7.391  29.479   0.735
34446W        W 6871  19.751  42.938   3.224
34447W        W 6872  25.986  28.481   2.361
34448W        W 6873  13.298   0.897   4.175
34449W        W 6874  35.025   9.688  13.857
34450W        W 6875   3.338  31.991   0.363
34451W        W 6876   1.452  11.355  11.047
34452W        W 6877  17.141  40.513  11.557
34453W        W 6878  24.062  37.560   4.299
34454W        W 6879  16.120   0.932  10.514
34455W        W 6880  28.610  11.662   0.838
34456W        W 6881  10.378  18.258  11.110
34457W        W 6882  20.597  22.534   0.752
34458W        W 6883  32.072  24.009  12.551
34459W        W 6884   1.766  17.305  13.461
34460W        W 6885   5.926   1.851   2.726
34461W        W 6886  27.195  39.484   1.715
34462W        W 6887  25.553  30.456  12.350
34463W        W 6888  13.691  25.490   2.725
34464W        W 6889  30.907   6.250  13.536
34465W        W 6890  27.625   3.309   4.321
34466W        W 6891  18.652  15.809  11.557
34467W        W 6892  28.562  44.995  12.485
34468W        W 6893  34.989  31.598   0.454
34469W        W 6894  36.414  24.527   2.698
34470W        W 6895  44.932   7.785   4.278
34471W        W 6896  33.490  37.993   3.204
34472W        W 6897  38.930  43.271  12.893
34473W        W 6898  43.486  36.554  14.469
34474W        W 6899   1.940  35.014   2.755
34475W        W 6900  35.022  16.746  11.046
34476W        W 6901  23.044  31.528   4.823
34477W        W 6902  33.503  40.366  11.397
34478W        W 6903  23.048   4.858   4.803
34479W        W 6904   7.333  33.884   3.840
34480W        W 6905  11.187  10.662  11.096
34481W        W 6906  39.513  34.485  14.486
34482W        W 6907  44.388   5.245   2.205
34483W        W 6908  24.693  23.558  13.914
34484W        W 6909  24.112   0.841   2.870
34485W        W 6910   3.726  32.058  14.002
34486W        W 6911  24.130  29.465   1.279
34487W        W 6912  44.500  41.037  11.523
34488W        W 6913  27.168   3.397  14.495
34489W        W 6914  28.996  41.900  11.924
34490W        W 6915  19.684   7.788   0.267
34491W        W 6916  16.119  39.888   3.810
34492W        W 6917  23.220   8.184  10.504
34493W        W 6918  17.223   9.660  13.909
34494W        W 6919  14.593  42.863   4.277
34495W        W 6920   0.286   6.416   1.435
34496W        W 6921  42.011  31.014   2.702
34497W        W 6922  29.505  25.652   0.750
34498W        W 6923  29.634  35.464   4.695
34499W        W 6924  28.552  15.737  11.567
34500W        W 6925  20.557   3.828   4.342
34501W        W 6926   5.744  32.590   0.848
34502W        W 6927  43.773  44.774   4.324
34503W        W 6928  28.539  24.512  13.361
34504W        W 6929  32.394   2.899   4.187
34505W        W 6930  27.045   6.846  14.486
34506W        W 6931   9.243   5.219   0.859
34507W        W 6932  19.107   6.282  12.981
34508W        W 6933  13.333  29.437  12.404
34509W        W 6934  29.002  17.681   1.219
34510W        W 6935   7.711   7.788   4.600
34511W        W 6936  12.191  23.735  14.381
34512W        W 6937  34.407   7.836   1.339
34513W        W 6938  32.116  38.909   9.930
34514W        W 6939  38.496   2.831  13.473
34515W        W 6940   7.260  19.647  14.914
34516W        W 6941   4.378  38.882   0.443
34517W        W 6942  23.121  17.208   1.696
34518W        W 6943  10.813  14.186  12.038
34519W        W 6944  38.010  22.626   2.261
34520W        W 6945   1.279  16.692   3.296
34521W        W 6946   0.986  27.163  11.379
34522W        W 6947  33.031   3.421  12.534
34523W        W 6948  29.057   8.819  13.051
34524W        W 6949  19.229  10.704  11.448
34525W        W 6950  12.232  32.923   3.741
34526W        W 6951  37.932  19.095  10.419
34527W        W 6952   6.807  13.804  12.034
34528W        W 6953  37.911  29.634  10.565
34529W        W 6954  30.107  22.595  12.877
34530W        W 6955  36.969  38.951  12.045
34531W        W 6956  35.381  30.487  12.011
34532W        W 6957   7.771   3.416  13.849
34533W        W 6958   1.870  11.134  13.328
34534W        W 6959  24.483  19.684  11.987
34535W        W 6960   0.864   6.680  13.448
34536W        W 6961  13.276  39.385   4.353
34537W        W 6962  25.611   0.282   2.193
34538W        W 6963  28.171  35.034  11.030
34539W        W 6964  24.704  11.253   2.294
34540W        W 6965  44.357  43.870  14.959
34541W        W 6966  38.405   9.330  13.893
34542W        W 6967  25.639  23.552  11.007
34543W        W 6968  21.590  32.095   0.813
34544W        W 6969  14.254   6.883   0.315
34545W        W 6970  10.794  19.573   1.779
34546W        W 6971  23.514  25.513   3.249
34547W        W 6972  21.124  42.918   3.353
34548W        W 6973  15.614  27.677  13.545
34549W        W 6974   3.256  44.468   0.361
34550W        W 6975  25.210  24.541  12.575
34551W        W 6976  24.580  42.505   3.182
34552W        W 6977  10.300  19.534   3.827
34553W        W 6978  43.779   1.841  14.780
34554W        W 6979  40.412  37.998  13.053
34555W        W 6980  14.780  16.127   1.795
34556W        W 6981  32.967  21.031   2.271
34557W        W 6982  28.561  42.354   1.733
34558W        W 6983  34.897  33.899   1.284
34559W        W 6984  30.042  33.092  12.574
34560W        W 6985  38.983   5.727  10.597
34561W        W 6986   3.838  19.545   0.386
34562W        W 6987  29.111  37.424  10.440
34563W        W 6988  25.017  17.585   1.778
34564W        W 6989  43.512  33.099  12.835
34565W        W 6990  21.529   7.882   4.329
34566W        W 6991  36.464  31.635  13.358
34567W        W 6992  34.080  32.121   1.902
34568W        W 6993  31.571  22.597   3.367
34569W        W 6994  16.808   9.655   1.784
34570W        W 6995  10.846  28.122  13.821
34571W        W 6996  33.444  17.279   3.174
34572W        W 6997  40.044  12.801  14.011
34573W        W 6998   4.285  34.863   0.372
34574W        W 6999  14.720  12.665   3.317
34575W        W 7000   3.791  30.447  10.493
34576W        W 7001  43.274  26.644   3.188
34577W        W 7002  40.891   1.910  10.636
34578W        W 7003  21.679   8.739  11.108
34579W        W 7004  26.182  21.717  12.014
34580W        W 7005  21.100  16.589  11.921
34581W        W 7006  34.517   6.754   3.669
34582W        W 7007  36.897  22.698   1.867
34583W        W 7008   0.771   3.226  12.401
34584W        W 7009   6.754   9.310   1.725
34585W        W 7010  40.513  27.566   1.404
34586W        W 7011  33.056   1.255  14.024
34587W        W 7012  30.137   8.173  14.846
34588W        W 7013   7.791  42.011   2.178
34589W        W 7014   5.403  36.959  12.036
34590W        W 7015  37.545  19.073  12.055
34591W        W 7016  20.203   5.219  13.921
34592W        W 7017   6.782  26.459   1.759
34593W        W 7018  18.154  30.138   2.355
34594W        W 7019  21.712   6.313   3.369
34595W        W 7020  16.640  11.815   0.397
34596W        W 7021  21.225  29.480   2.733
34597W        W 7022  43.906  40.852   0.939
34598W        W 7023  22.558  31.537  14.351
34599W        W 7024  31.073  26.964  11.426
34600W        W 7025  29.099  30.947  12.478
34601W        W 7026   5.815   8.353   2.350
34602W        W 7027  38.879   2.831  13.899
34603W        W 7028  41.839  18.680  13.053
34604W        W 7029   6.369   0.428   3.658
34605W        W 7030  12.129  23.147   2.872
34606W        W 7031  11.665   2.855  13.922
34607W        W 7032  40.484  29.084  13.395
34608W        W 7033  32.117   3.406  10.154
34609W        W 7034  35.599  29.150  13.063
34610W        W 7035  26.094  38.475   2.837
34611W        W 7036  32.944   9.255   4.654
34612W        W 7037  23.569  18.098  14.767
34613W        W 7038   0.837  28.067  12.486
34614W        W 7039  30.637  29.938   3.631
34615W        W 7040  24.085  44.816   3.820
34616W        W 7041   9.813  34.061  11.479
34617W        W 7042  29.970  21.745   4.274
34618W        W 7043  30.514  28.028   3.688
34619W        W 7044  11.298  13.168  14.012
34620W        W 7045  25.661  41.488  14.894
34621W        W 7046  40.462  37.916  12.385
34622W        W 7047  28.441  17.626   3.639
34623W        W 7048  29.434   0.253  12.407
34624W        W 7049  38.874  43.408  13.320
34625W        W 7050  42.441  43.956  10.504
34626W        W 7051  35.506  38.351   4.752
34627W        W 7052  11.194  35.574  11.975
34628W        W 7053   1.341   7.871  11.915
34629W        W 7054  20.633  36.011   2.385
34630W        W 7055  18.220  29.528  13.948
34631W        W 7056  21.223  34.372  10.029
34632W        W 7057  25.049   9.321   4.117
34633W        W 7058   0.418  32.086   3.222
34634W        W 7059   1.346  23.984  13.911
34635W        W 7060  32.618  43.510  13.910
34636W        W 7061  10.764  39.986   2.766
34637W        W 7062  20.671  11.849  12.933
34638W        W 7063   8.828  36.479  11.427
34639W        W 7064  10.329   9.793   2.400
34640W        W 7065  33.522  35.371  11.453
34641W        W 7066  31.102   1.928   1.247
34642W        W 7067  17.728  38.437   2.204
34643W        W 7068  40.023   2.964   4.655
34644W        W 7069  27.070  10.789   2.352
34645W        W 7070  16.318  14.340   5.193
34646W        W 7071  12.245  31.521   3.853
34647W        W 7072  41.827  19.557   5.252
34648W        W 7073  21.215  37.478   0.937
34649W        W 7074  11.242  43.866   3.165
34650W        W 7075   7.804  25.705   4.335
34651W        W 7076  26.701  20.668  11.477
34652W        W 7077  25.007  20.587  11.958
34653W        W 7078  28.186  27.151  12.937
34654W        W 7079  28.944   2.464  13.337
34655W        W 7080   7.791   9.238  13.459
34656W        W 7081  35.884  10.242  12.539
34657W        W 7082  38.557  16.657   2.696
34658W        W 7083   7.253  17.213  11.500
34659W        W 7084  31.135  20.111  12.339
34660W        W 7085  26.127   9.253   3.867
34661W        W 7086  37.392  17.128   3.289
34662W        W 7087   8.891   1.921   4.323
34663W        W 7088  10.646   1.976  10.957
34664W        W 7089  13.197  29.488  13.877
34665W        W 7090  36.517   5.768  11.885
34666W        W 7091   9.738  38.914   3.717
34667W        W 7092  26.548  30.435   2.372
34668W        W 7093   3.781  39.331   4.634
34669W        W 7094  21.646  39.995  12.572
34670W        W 7095   2.458   1.284  14.924
34671W        W 7096   3.839  32.023  14.868
34672W        W 7097  40.001  15.701   3.225
34673W        W 7098  24.646  18.787  11.056
34674W        W 7099  20.229   0.289   1.812
34675W        W 7100  31.916  32.125   4.673
34676W        W 7101  26.036  29.974  13.022
34677W        W 7102  36.429  30.986  14.496
34678W        W 7103  19.261   8.685  11.859
34679W        W 7104  27.003   1.338   3.186
34680W        W 7105  13.121  23.995   3.168
34681W        W 7106  26.055  15.813   4.184
34682W        W 7107  28.132  17.265   5.130
34683W        W 7108   3.870  42.898   0.856
34684W        W 7109  16.247  37.541   0.814
34685W        W 7110  26.574  24.088  11.584
34686W        W 7111   2.261   8.210   4.231
34687W        W 7112  25.032  40.470   0.402
34688W        W 7113  31.979   6.202  12.937
34689W        W 7114  10.172   0.798  12.570
34690W        W 7115  28.045  44.842   4.639
34691W        W 7116  13.286  16.309   3.270
34692W        W 7117  25.112  11.168  14.002
34693W        W 7118  30.520  30.413   3.260
34694W        W 7119  44.780   6.402  13.035
34695W        W 7120  32.629   8.247  11.872
34696W        W 7121  26.021  17.691  11.562
34697W        W 7122  30.512  41.534   1.374
34698W        W 7123  32.617  27.529  12.400
34699W        W 7124   5.722  34.571  10.428
34700W        W 7125  37.082  32.582  14.023
34701W        W 7126  24.981  42.379   1.381
34702W        W 7127  19.121  41.533   0.929
34703W        W 7128  23.558  10.208   1.918
34704W        W 7129  17.193   3.916  13.445
34705W        W 7130   5.729  21.098  10.603
34706W        W 7131  35.996  11.768   2.754
34707W        W 7132  13.799  25.534  14.471
34708W        W 7133  39.054  14.779  14.842
34709W        W 7134  23.209   8.662   1.266
34710W        W 7135  27.475  22.710   0.783
34711W        W 7136  40.842  19.225   1.226
34712W        W 7137  25.065   3.843  13.312
34713W        W 7138   7.312  34.567   4.822
34714W        W 7139   3.788  43.822   3.341
34715W        W 7140  27.007  28.452  12.095
34716W        W 7141  14.726  28.496  14.352
34717W        W 7142  44.904  38.972   2.819
34718W        W 7143   0.744  11.804  13.823
34719W        W 7144   4.293  37.381   1.451
34720W        W 7145  41.894   8.880  13.381
34721W        W 7146   1.321  37.930   0.853
34722W        W 7147   5.413  38.527   2.758
34723W        W 7148   6.734   4.204   1.395
34724W        W 7149   9.346  11.279   4.273
34725W        W 7150  15.199  31.053   4.225
34726W        W 7151  16.197  40.997   0.315
34727W        W 7152   6.195  12.627   4.813
34728W        W 7153  16.720  12.840  14.848
34729W        W 7154  42.517  29.425  13.478
34730W        W 7155  26.618   7.736   0.865
34731W        W 7156   6.795  41.506   4.686
34732W        W 7157  30.086   6.886   2.290
34733W        W 7158   1.964  24.994  11.602
34734W        W 7159  12.653  36.957  12.497
34735W        W 7160  12.822  31.500  10.410
34736W        W 7161  31.945  41.963  13.476
34737W        W 7162  28.157  31.535  14.854
34738W        W 7163  18.717  28.653  12.891
34739W        W 7164  10.233  12.175   4.315
34740W        W 7165  26.015  23.565   1.215
34741W        W 7166  13.177   0.986  14.975
34742W        W 7167  34.980  43.995  13.908
34743W        W 7168   2.921  34.404  14.025
34744W        W 7169  36.922  40.366  10.991
34745W        W 7170   1.266  14.152   4.317
34746W        W 7171  44.400  36.985  10.535
34747W        W 7172  21.143  38.524  13.370
34748W        W 7173  34.009  42.523  12.902
34749W        W 7174  19.729  41.010   2.386
34750W        W 7175  23.616  15.799  11.567
34751W        W 7176  39.023   8.877   3.797
34752W        W 7177  28.042  44.437   0.926
34753W        W 7178  16.652  18.552   4.297
34754W        W 7179  17.138  43.286   0.744
34755W        W 7180  34.933  44.312  12.559
34756W        W 7181  23.592  14.121   1.888
34757W        W 7182  22.250  20.661   3.235
34758W        W 7183  31.148  24.166   0.751
34759W        W 7184  31.983  17.145   0.750
34760W        W 7185  23.014  30.564   2.835
34761W        W 7186   0.839  22.034  13.484
34762W        W 7187  19.615  24.068   4.830
34763W        W 7188  26.986  23.156  14.894
34764W        W 7189  14.259   7.323  14.815
34765W        W 7190  17.572  25.059  13.506
34766W        W 7191  38.024  33.404  13.329
34767W        W 7192  27.042  14.693   1.336
34768W        W 7193   1.765   8.807  14.848
34769W        W 7194  35.558  21.598  11.121
34770W        W 7195   4.863  17.764  10.439
34771W        W 7196  20.672  20.227   0.404
34772W        W 7197  23.689  18.146  12.906
34773W        W 7198   6.828  39.498   2.761
34774W        W 7199  30.002  13.141  13.451
34775W        W 7200   7.303  27.182  11.015
34776W        W 7201  37.455   2.437  10.463
34777W        W 7202   9.315  32.025  13.311
34778W        W 7203  28.648  25.993   3.385
34779W        W 7204  14.832   3.712   0.849
34780W        W 7205  26.026   5.365   3.825
34781W        W 7206  22.144   5.849  12.860
34782W        W 7207  30.653  23.121   3.768
34783W        W 7208  44.352  30.953   3.786
34784W        W 7209   2.355   3.285   1.425
34785W        W 7210   7.847   9.278  11.465
34786W        W 7211  10.788  28.127  12.879
34787W        W 7212   6.417   0.987  14.842
34788W        W 7213   2.462  19.651  13.434
34789W        W 7214  40.359  42.391  11.983
34790W        W 7215   0.825  22.166   2.740
34791W        W 7216  31.141  14.340  12.969
34792W        W 7217  42.794  41.010  14.361
34793W        W 7218  10.177  38.981   0.959
34794W        W 7219  42.349  24.547   4.158
34795W        W 7220  28.569  26.518   0.286
34796W        W 7221   7.816  18.084   4.131
34797W        W 7222  26.031  23.552  12.867
34798W        W 7223  13.836   0.457   3.229
34799W        W 7224   0.408  30.055   0.733
34800W        W 7225  23.629  30.544  13.840
34801W        W 7226  23.988  43.865   0.348
34802W        W 7227   3.760  28.616   3.692
34803W        W 7228  31.541  23.661   2.880
34804W        W 7229  19.196  31.102   2.818
34805W        W 7230  14.215  16.601   4.627
34806W        W 7231  32.026  31.984   1.247
34807W        W 7232   3.866   8.378   0.338
34808W        W 7233  32.903   7.841   4.629
34809W        W 7234  27.014  28.016  11.409
34810W        W 7235  17.218  41.032  11.423
34811W        W 7236  40.862   1.328  12.041
34812W        W 7237  16.218  40.400   4.311
34813W        W 7238  39.492  23.156  11.922
34814W        W 7239  23.645   2.955  12.444
34815W        W 7240  28.966  23.053   1.770
34816W        W 7241  37.581  36.456   0.735
34817W        W 7242  12.820  15.224  11.934
34818W        W 7243  10.215  25.199  11.590
34819W        W 7244  16.595  11.328   1.433
34820W        W 7245  27.508  13.681  13.432
34821W        W 7246   9.263  35.486   2.275
34822W        W 7247   3.834   1.251   3.292
34823W        W 7248  24.108  11.320   1.254
34824W        W 7249  32.421  11.860  10.626
34825W        W 7250  11.293   7.679  10.431
34826W        W 7251   6.847   9.205  11.481
34827W        W 7252   9.871   5.361   4.340
34828W        W 7253  24.182  17.734  11.596
34829W        W 7254  12.199  20.692  10.425
34830W        W 7255  23.218  36.571   2.258
34831W        W 7256  11.761  30.476  13.811
34832W        W 7257   5.419   8.354  11.982
34833W        W 7258  21.081  10.366  10.997
34834W        W 7259  32.925   5.244   4.327
34835W        W 7260   7.729   5.209   1.810
34836W        W 7261  41.826  40.012  13.900
34837W        W 7262  14.104  16.692  13.434
34838W        W 7263   9.861  37.039   0.286
34839W        W 7264   4.227   4.294  11.990
34840W        W 7265  35.513  17.659   1.814
34841W        W 7266  39.944   8.395  10.502
34842W        W 7267  12.301  27.586  14.453
34843W        W 7268  40.452   7.881   3.253
34844W        W 7269  31.046  43.022  12.082
34845W        W 7270  41.920  30.547   5.112
34846W        W 7271   7.689  12.685  13.862
34847W        W 7272  21.111  21.085  12.849
34848W        W 7273  30.029   5.805   1.306
34849W        W 7274  19.647  12.841   3.240
34850W        W 7275  33.996  31.429   2.798
34851W        W 7276  14.139  42.376  12.540
34852W        W 7277  17.121  15.679  14.359
34853W        W 7278  44.958  36.526  12.383
34854W        W 7279  13.182   0.375   0.810
34855W        W 7280  25.526  43.802   1.417
34856W        W 7281  30.485  13.819  12.895
34857W        W 7282  27.139  12.167  11.970
34858W        W 7283  32.920  32.106  13.393
34859W        W 7284  21.551  18.615   3.723
34860W        W 7285  21.656  36.496  13.938
34861W        W 7286   7.190  19.569   4.797
34862W        W 7287  29.604   6.377  10.546
34863W        W 7288   8.263  30.650   2.198
34864W        W 7289  28.184   1.783   2.181
34865W        W 7290   6.678  41.500   2.852
34866W        W 7291  17.591  14.801   0.428
34867W        W 7292  35.512  21.737  14.342
34868W        W 7293  12.176   5.798  13.482
34869W        W 7294  16.744  43.304  13.929
34870W        W 7295  30.110  34.469  12.342
34871W        W 7296  29.945  29.934   4.343
34872W        W 7297   2.801  19.753  14.825
34873W        W 7298  14.628   4.449   2.379
34874W        W 7299  43.992  18.757   2.230
34875W        W 7300  13.213  29.547   4.275
34876W        W 7301   6.686  30.436   3.681
34877W        W 7302  15.761  38.047   2.742
34878W        W 7303  35.581  38.854   0.326
34879W        W 7304  34.457  21.023   0.854
34880W        W 7305  38.031  22.637  13.373
34881W        W 7306  40.012  31.956  13.352
34882W        W 7307  41.966   8.210  14.832
34883W        W 7308  40.465  38.375   3.210
34884W        W 7309  44.386  34.418   5.783
34885W        W 7310   0.823   6.270   4.751
34886W        W 7311  13.297   9.777  14.972
34887W        W 7312  30.561  41.407  13.850
34888W        W 7313  16.674  43.403  10.442
34889W        W 7314  41.392   5.249  14.990
34890W        W 7315  14.779  18.569  14.925
34891W        W 7316  44.487  18.645  10.980
34892W        W 7317  11.672  19.688  11.947
34893W        W 7318  31.596  19.756   1.247
34894W        W 7319  23.139  12.187  14.889
34895W        W 7320  44.490  31.951   3.844
34896W        W 7321   1.750  12.840   4.338
34897W        W 7322  12.124  40.848  14.029
34898W        W 7323  33.922  37.444  10.926
34899W        W 7324   1.451  36.867   1.804
34900W        W 7325   8.394  12.801  12.949
34901W        W 7326  23.168  23.071  13.949
34902W        W 7327  26.109  36.553  13.370
34903W        W 7328  23.663   5.200   4.329
34904W        W 7329   9.188  12.263  11.408
34905W        W 7330  43.442  35.073  14.852
34906W        W 7331   3.739  41.367  10.930
34907W        W 7332  16.762  18.276  13.333
34908W        W 7333  12.217  40.903   2.223
34909W        W 7334  24.183  30.535   9.656
34910W        W 7335  32.940  22.213  12.552
34911W        W 7336  18.666  22.703   0.243
34912W        W 7337   6.715  40.543   1.799
34913W        W 7338  28.076   5.823   3.341
34914W        W 7339   5.255  15.581  11.524
34915W        W 7340  21.148  35.941  12.906
34916W        W 7341  18.640  28.648   1.388
34917W        W 7342  41.038  43.766   0.799
34918W        W 7343   2.374  34.009  11.967
34919W        W 7344  18.718  26.696  14.893
34920W        W 7345  20.672  38.830  11.976
34921W        W 7346   9.306  24.099   4.828
34922W        W 7347  29.668   9.338  12.952
34923W        W 7348  42.293   8.781   0.730
34924W        W 7349  37.886  36.469  11.928
34925W        W 7350  30.120  37.345   4.799
34926W        W 7351  30.107  35.900  10.634
34927W        W 7352  25.077   9.326  12.576
34928W        W 7353   1.433  18.663  12.083
34929W        W 7354   3.456  15.096   3.859
34930W        W 7355  29.947  20.731  13.881
34931W        W 7356  14.733   5.767  14.375
34932W        W 7357   8.234  43.315   2.678
34933W        W 7358  43.972  39.426  11.909
34934W        W 7359  39.428  19.194   4.757
34935W        W 7360  25.650  14.625  12.420
34936W        W 7361   2.896  41.441  12.861
34937W        W 7362  41.505  38.945   1.783
34938W        W 7363  37.881   8.889   9.530
34939W        W 7364  21.027  24.553  10.518
34940W        W 7365  19.559  37.398   0.827
34941W        W 7366  21.714  37.042   1.795
34942W        W 7367   3.354  33.383   2.335
34943W        W 7368  15.733  23.090   2.282
34944W        W 7369  23.518  34.089   3.799
34945W        W 7370  37.535  39.878   4.138
34946W        W 7371   4.278  20.660   0.951
34947W        W 7372  20.032  16.712  11.537
34948W        W 7373  44.758  19.265   4.129
34949W        W 7374  37.461  18.169  12.343
34950W        W 7375  37.940  15.736   2.237
34951W        W 7376  42.352  28.610  11.928
34952W        W 7377   1.861  30.441   2.832
34953W        W 7378  10.766  29.053   0.853
34954W        W 7379   1.894   6.293  11.469
34955W        W 7380  11.712  36.024   5.259
34956W        W 7381  42.946  32.630  12.971
34957W        W 7382  31.080  14.738   2.667
34958W        W 7383  19.729  34.913  13.477
34959W        W 7384  27.037  14.600  10.459
34960W        W 7385  13.329  25.668   4.180
34961W        W 7386  41.379  23.154  11.090
34962W        W 7387  12.325  24.724  12.399
34963W        W 7388  15.696  10.679   3.342
34964W        W 7389  17.139  41.028  12.539
34965W        W 7390  24.625  43.419   1.350
34966W        W 7391  30.585  42.020   4.196
34967W        W 7392  37.850  44.940   1.358
34968W        W 7393  33.025  14.270  11.527
34969W        W 7394  38.366  43.459  11.886
34970W        W 7395  24.699   5.304   3.714
34971W        W 7396  43.271  34.587  10.608
34972W        W 7397   8.811  15.595  11.379
34973W        W 7398  23.078  21.056  13.464
34974W        W 7399   5.276  39.350  11.539
34975W        W 7400   8.240  20.193  11.521
34976W        W 7401  19.732  44.951  13.938
34977W        W 7402  35.086  32.466   4.762
34978W        W 7403  28.564  40.309   0.749
34979W        W 7404  12.308  22.172  12.934
34980W        W 7405  21.545   2.965  11.576
34981W        W 7406   9.197   2.915  13.327
34982W        W 7407  21.573  21.036   0.369
34983W        W 7408  17.619   4.847  10.565
34984W        W 7409  43.426  25.121   0.297
34985W        W 7410  13.132  15.256  14.468
34986W        W 7411   1.295   2.443   1.886
34987W        W 7412  10.761  35.996  12.357
34988W        W 7413  38.892  32.117   2.665
34989W        W 7414   2.456  35.600  14.959
34990W        W 7415   3.250  27.688   2.236
34991W        W 7416  21.147  23.688  13.899
34992W        W 7417  17.624   3.838  12.385
34993W        W 7418  21.675  19.668  13.499
34994W        W 7419   2.375  17.132  13.807
34995W        W 7420   5.226  10.637  11.920
34996W        W 7421  19.232  35.051  10.944
34997W        W 7422  14.825   9.337  13.360
34998W        W 7423  27.025  15.307  12.403
34999W        W 7424  27.606   8.817  14.473
35000W        W 7425  41.923  16.186   2.754
35001W        W 7426  38.998  35.927   1.417
35002W        W 7427  33.941   0.885   0.782
35003W        W 7428   3.243  27.541  14.448
35004W        W 7429  29.515  36.098  13.493
35005W        W 7430  17.652  19.215   3.704
35006W        W 7431  32.903   9.767  10.953
35007W        W 7432  40.951   2.806  13.877
35008W        W 7433   8.683  41.445  12.360
35009W        W 7434  18.644  14.186  13.810
35010W        W 7435   7.775  21.603  13.394
35011W        W 7436   7.684   2.430   1.408
35012W        W 7437  12.283  16.573  14.301
35013W        W 7438  39.857  33.034   0.760
35014W        W 7439  27.145  14.116   2.193
35015W        W 7440  40.434  27.183  13.347
35016W        W 7441   6.411  11.367   4.718
35017W        W 7442  26.132  31.954   0.886
35018W        W 7443  29.536   7.402   4.349
35019W        W 7444  16.781  38.055   1.843
35020W        W 7445  20.633   0.960  10.540
35021W        W 7446   8.723  36.551   5.191
35022W        W 7447   6.342  18.219  14.826
35023W        W 7448  40.367  18.165   2.847
35024W        W 7449   8.170  27.056   0.363
35025W        W 7450   6.287  27.581  14.396
35026W        W 7451  33.910  41.433   2.398
35027W        W 7452  35.604   6.393  14.932
35028W        W 7453  32.098  20.532  14.846
35029W        W 7454  13.668   1.865  14.783
35030W        W 7455  21.588  39.820   1.813
35031W        W 7456   3.721   9.749  13.872
35032W        W 7457   7.893  35.908   4.649
35033W        W 7458  21.126  28.466  12.873
35034W        W 7459  13.678  27.030   0.828
35035W        W 7460  17.575  12.829  14.834
35036W        W 7461  10.701   2.903  14.447
35037W        W 7462  34.020   0.319   3.158
35038W        W 7463  24.481   2.857  11.497
35039W        W 7464   6.798  11.211   3.282
35040W        W 7465   4.786   1.261   4.789
35041W        W 7466  44.486  27.589   3.244
35042W        W 7467  25.609  22.588  14.465
35043W        W 7468   8.257  22.168   0.814
35044W        W 7469   5.778   3.245  13.404
35045W        W 7470  42.383   6.789  11.999
35046W        W 7471   9.883  17.665   2.293
35047W        W 7472  32.452  34.384   1.288
35048W        W 7473   2.321  41.926  14.797
35049W        W 7474  18.130  26.181   3.811
35050W        W 7475  23.646  24.583  13.007
35051W        W 7476  43.475  25.059   3.300
35052W        W 7477   7.363  20.186  13.935
35053W        W 7478  21.046  11.270   3.864
35054W        W 7479  28.597   9.345  10.435
35055W        W 7480   1.402  19.621   3.826
35056W        W 7481   8.269   6.206   4.610
35057W        W 7482   6.781  41.337  10.629
35058W        W 7483  33.950  26.148  10.957
35059W        W 7484  28.550  27.042  14.461
35060W        W 7485  35.875  31.432   3.723
35061W        W 7486  19.683  13.627   3.195
35062W        W 7487  18.665  18.075  11.559
35063W        W 7488  11.836  18.091  12.495
35064W        W 7489   2.868  16.124   0.794
35065W        W 7490  22.120  11.816   2.745
35066W        W 7491  16.128  38.424  13.427
35067W        W 7492  32.483   8.898  10.912
35068W        W 7493   9.659   9.767   0.947
35069W        W 7494  29.653  32.636   3.186
35070W        W 7495  11.308  10.147  11.539
35071W        W 7496  26.563  15.096  12.461
35072W        W 7497  41.970  12.819   4.825
35073W        W 7498  23.051  12.294  12.461
35074W        W 7499  44.785  21.551   0.249
35075W        W 7500  44.884  35.462   0.814
35076W        W 7501   1.927   6.207  14.319
35077W        W 7502  24.156  30.489  12.443
35078W        W 7503  37.362  33.525   1.289
35079W        W 7504  35.467  38.407  10.416
35080W        W 7505   1.325  43.472   4.225
35081W        W 7506  26.106   2.932  13.804
35082W        W 7507  31.502  24.720   2.900
35083W        W 7508  40.804  38.895   3.207
35084W        W 7509  32.941  10.745  13.356
35085W        W 7510  24.109  21.710  13.992
35086W        W 7511  44.438  40.915   3.188
35087W        W 7512  31.936   5.263   3.200
35088W        W 7513  10.310  35.939   0.740
35089W        W 7514  23.997  32.501   9.981
35090W        W 7515   0.796  15.124  11.484
35091W        W 7516  40.811  30.610  11.593
35092W        W 7517  36.462   6.345  14.285
35093W        W 7518  21.757  37.468  13.522
35094W        W 7519  36.855  21.185   2.302
35095W        W 7520  13.195  26.031  13.861
35096W        W 7521  19.749  43.320   4.793
35097W        W 7522  36.580  37.336   3.318
35098W        W 7523  21.184  19.084  13.436
35099W        W 7524  41.987   4.390   2.180
35100W        W 7525  25.514   6.725  13.840
35101W        W 7526  41.531  30.137   2.897
35102W        W 7527  13.150   3.333   0.846
35103W        W 7528   0.456  11.643  11.414
35104W        W 7529  41.952  30.484  11.480
35105W        W 7530  15.225  20.128  11.993
35106W        W 7531  27.061  11.165   1.843
35107W        W 7532  23.517  38.520  12.381
35108W        W 7533  39.432  19.751   3.817
35109W        W 7534  35.549  33.616   4.630
35110W        W 7535   1.867  28.535   2.670
35111W        W 7536  20.110  30.640   2.789
35112W        W 7537  18.657  34.445   2.209
35113W        W 7538  29.024  28.509  10.951
35114W        W 7539  21.017   4.350  13.468
35115W        W 7540   6.210  43.900  12.052
35116W        W 7541  15.659  23.567  14.009
35117W        W 7542   8.340  29.542  14.802
35118W        W 7543  27.997  36.952  12.424
35119W        W 7544   5.421  21.227  13.940
35120W        W 7545   3.916  12.681  12.039
35121W        W 7546   0.816  35.034  14.492
35122W        W 7547  28.467  26.479  13.883
35123W        W 7548  12.704   0.804   4.613
35124W        W 7549  36.396  39.386   4.309
35125W        W 7550  21.222  36.866   3.146
35126W        W 7551   2.957   6.821   2.730
35127W        W 7552  43.304  42.788   4.725
35128W        W 7553  16.590   4.862   4.618
35129W        W 7554  13.829  20.531  14.992
35130W        W 7555  20.712  15.275   2.301
35131W        W 7556  44.902  27.076  10.488
35132W        W 7557  39.521  14.244  12.426
35133W        W 7558  26.676   2.443   4.261
35134W        W 7559  24.171  19.591  10.143
35135W        W 7560  19.280  21.244   2.387
35136W        W 7561  41.792  19.268  10.937
35137W        W 7562   6.867  34.043  14.407
35138W        W 7563  24.572   9.867   2.902
35139W        W 7564  16.240  18.201  12.523
35140W        W 7565  23.003   5.342  14.403
35141W        W 7566  32.396  14.687   0.455
35142W        W 7567   0.892  40.368  12.480
35143W        W 7568   1.429  16.305   0.307
35144W        W 7569  32.398  20.662   2.287
35145W        W 7570  21.511  41.515   0.772
35146W        W 7571   2.295  23.056   1.862
35147W        W 7572   0.419  41.386  14.016
35148W        W 7573  18.640  16.649  14.925
35149W        W 7574  31.060  11.686   4.776
35150W        W 7575   8.349  43.395  10.976
35151W        W 7576  30.157  21.729  12.944
35152W        W 7577  32.447   0.981   2.196
35153W        W 7578  29.163  35.090  12.936
35154W        W 7579  19.613  24.978  13.008
35155W        W 7580  20.592  12.127  12.559
35156W        W 7581  12.158  23.725   1.330
35157W        W 7582  16.198  19.725   3.841
35158W        W 7583  16.807   4.786  10.470
35159W        W 7584   6.892  25.578   3.733
35160W        W 7585  38.017  39.818  14.002
35161W        W 7586  41.426  42.904  13.821
35162W        W 7587  42.515  13.604   3.357
35163W        W 7588  35.582  10.716   2.285
35164W        W 7589  11.828  44.394   1.256
35165W        W 7590  28.071   9.269  14.300
35166W        W 7591  28.545  34.953  13.422
35167W        W 7592  34.929  36.499  13.938
35168W        W 7593  38.025   7.745   9.992
35169W        W 7594  28.035  29.059   1.720
35170W        W 7595  43.896   2.868  11.878
35171W        W 7596   6.250  30.044  12.563
35172W        W 7597  20.751  43.812  13.843
35173W        W 7598  25.697   6.818  12.009
35174W        W 7599   0.478  24.586  12.919
35175W        W 7600  25.996  24.484  11.957
35176W        W 7601  25.662  26.522   9.974
35177W        W 7602  12.330  13.258  11.483
35178W        W 7603  31.107  30.060   4.265
35179W        W 7604  13.730  44.421  12.372
35180W        W 7605   9.811  30.595   3.317
35181W        W 7606  40.848   6.785  14.937
35182W        W 7607  29.944   4.236   0.808
35183W        W 7608   0.417  11.196  12.522
35184W        W 7609  18.176   2.308   2.203
35185W        W 7610   9.834  40.416  13.012
35186W        W 7611  34.606  37.382  13.017
35187W        W 7612  22.731   6.778  13.829
35188W        W 7613   0.881  11.812  14.871
35189W        W 7614  34.904   1.868  14.790
35190W        W 7615  11.749  39.000  14.441
35191W        W 7616  11.738   3.336   1.697
35192W        W 7617  20.206  30.519  12.443
35193W        W 7618  37.833  12.810   4.759
35194W        W 7619  28.018   0.410  13.537
35195W        W 7620   8.871  22.641  13.831
35196W        W 7621  43.361  41.341  13.812
35197W        W 7622  37.444  39.871  12.832
35198W        W 7623  36.035  37.367  13.419
35199W        W 7624   7.857  13.306  10.470
35200W        W 7625  10.642   6.905   3.746
35201W        W 7626  27.464  30.540  13.993
35202W        W 7627  37.571  30.455   2.373
35203W        W 7628   6.233  24.658   3.709
35204W        W 7629  35.870  29.169   1.282
35205W        W 7630  13.350  41.469  11.581
35206W        W 7631   2.905  33.415   2.727
35207W        W 7632   1.271  13.700  12.352
35208W        W 7633  41.787  38.849   2.212
35209W        W 7634  18.215   0.766  14.873
35210W        W 7635  13.282  18.217   3.301
35211W        W 7636  19.124  30.467   4.299
35212W        W 7637  40.872   2.375   4.635
35213W        W 7638  31.406  21.580   1.291
35214W        W 7639  43.493  40.401   0.954
35215W        W 7640  37.908  29.048  14.516
35216W        W 7641  32.587  38.843   0.448
35217W        W 7642  11.700  26.181  11.909
35218W        W 7643  43.367  43.278  10.965
35219W        W 7644   0.297  22.008   3.337
35220W        W 7645   4.323  28.543   4.284
35221W        W 7646  44.944  17.625  12.051
35222W        W 7647  27.118  40.994   1.737
35223W        W 7648   6.298   8.889   4.211
35224W        W 7649  23.564  13.654   3.868
35225W        W 7650  23.620   5.900   2.835
35226W        W 7651   8.800  17.591   2.328
35227W        W 7652   2.270  36.984   0.429
35228W        W 7653  29.070   7.670  12.890
35229W        W 7654  31.570  22.097   1.261
35230W        W 7655  16.163  43.004   1.808
35231W        W 7656  44.414  39.046  11.422
35232W        W 7657  38.460  10.284   2.234
35233W        W 7658  30.489   4.922   0.949
35234W        W 7659  11.689   1.900   0.870
35235W        W 7660  30.036  13.272  11.927
35236W        W 7661  19.041  38.488  14.351
35237W        W 7662  22.086  24.037  12.514
35238W        W 7663  27.973  25.103  11.099
35239W        W 7664  16.119  17.658   2.354
35240W        W 7665  23.554  29.039   3.666
35241W        W 7666   7.265  40.401  14.512
35242W        W 7667   0.476   9.359  12.018
35243W        W 7668  26.029  15.584   4.633
35244W        W 7669  39.962  19.757  10.891
35245W        W 7670  21.599  31.007   2.235
35246W        W 7671  21.201   2.914  12.471
35247W        W 7672   5.827  37.577   3.260
35248W        W 7673   3.805  38.965  10.912
35249W        W 7674   5.826  34.890   0.372
35250W        W 7675  30.972  43.906  11.996
35251W        W 7676  28.159  11.623  10.447
35252W        W 7677  32.599  40.028   2.672
35253W        W 7678  22.154  23.696  13.960
35254W        W 7679  44.933  24.224   1.289
35255W        W 7680  18.650  24.074  11.041
35256W        W 7681  44.359  33.560   1.380
35257W        W 7682  35.369   0.862  12.360
35258W        W 7683   1.945  43.489  11.503
35259W        W 7684   7.878  19.534   3.358
35260W        W 7685   8.172  38.076  12.447
35261W        W 7686   2.935  44.312   4.314
35262W        W 7687  28.943   8.184   2.225
35263W        W 7688  24.973  14.299  14.326
35264W        W 7689  14.302  43.362  12.451
35265W        W 7690  22.640  39.944  12.568
35266W        W 7691  23.671  16.570   4.133
35267W        W 7692  22.516   9.305   1.852
35268W        W 7693  35.988  23.521  14.441
35269W        W 7694  28.573  10.778   4.732
35270W        W 7695  26.990  11.838  13.959
35271W        W 7696   4.759  38.922   4.339
35272W        W 7697  41.382  41.404  13.371
35273W        W 7698  28.115  39.469  13.435
35274W        W 7699  26.158  40.492  14.917
35275W        W 7700  44.334   2.290  10.448
35276W        W 7701   7.389  38.926   4.144
35277W        W 7702  37.982  30.419   5.150
35278W        W 7703  14.109  25.535   3.253
35279W        W 7704  40.965   1.971   0.367
35280W        W 7705  11.827  36.866   2.864
35281W        W 7706  27.104  14.281   2.799
35282W        W 7707  20.034  36.886   0.786
35283W        W 7708  27.508  17.097   1.419
35284W        W 7709  12.348  33.996   3.805
35285W        W 7710   8.209  41.969   4.657
35286W        W 7711  31.537  18.751   0.860
35287W        W 7712  35.360   4.228  12.831
35288W        W 7713  26.970  30.642  10.024
35289W        W 7714   2.905  43.384  13.836
35290W        W 7715   7.677  41.506  11.459
35291W        W 7716  24.991   3.936   3.650
35292W        W 7717  43.016  26.650   0.956
35293W        W 7718   4.748  34.465  10.128
35294W        W 7719  29.591  37.342  11.975
35295W        W 7720  21.551  15.727   4.225
35296W        W 7721  41.996  34.031   1.804
35297W        W 7722  36.429  11.829  14.988
35298W        W 7723  20.052   9.682   3.852
35299W        W 7724  16.776  26.527  12.539
35300W        W 7725  13.226   4.430   0.437
35301W        W 7726  12.828  14.721  10.923
35302W        W 7727  27.078  25.611  14.411
35303W        W 7728  21.052   3.714  12.023
35304W        W 7729  36.904  11.343  11.958
35305W        W 7730  34.507   1.848  11.613
35306W        W 7731  36.492   8.679  13.917
35307W        W 7732   4.271  35.874   1.924
35308W        W 7733  41.503  35.437   1.223
35309W        W 7734  28.937  40.513  12.911
35310W        W 7735  28.974  40.041   3.167
35311W        W 7736  42.778  29.068  14.433
35312W        W 7737   4.219  11.625   0.962
35313W        W 7738  23.171  25.658  10.487
35314W        W 7739  30.116  25.561   0.736
35315W        W 7740  33.051  29.089   1.230
35316W        W 7741   0.766  32.103   0.964
35317W        W 7742  34.012   4.219   0.927
35318W        W 7743  32.634   6.407  11.409
35319W        W 7744  34.410  10.240   3.330
35320W        W 7745  13.305  10.188  14.973
35321W        W 7746  39.443   9.383   2.807
35322W        W 7747   0.764  28.602  13.837
35323W        W 7748  38.034   1.284   3.679
35324W        W 7749  34.057  41.827   4.259
35325W        W 7750  20.207  18.624   3.714
35326W        W 7751  24.205  42.473   2.193
35327W        W 7752   9.276  31.958   2.299
35328W        W 7753   7.808  20.677   2.272
35329W        W 7754  37.389   5.404  12.883
35330W        W 7755  20.116  13.351  11.120
35331W        W 7756  20.095  36.411  12.065
35332W        W 7757  21.040  30.138  12.027
35333W        W 7758   3.899  38.941   4.276
35334W        W 7759  38.950  19.152   5.302
35335W        W 7760  40.902  22.072  10.921
35336W        W 7761  43.443  33.004   1.792
35337W        W 7762   3.311   8.365   2.675
35338W        W 7763  28.626  18.704  13.471
35339W        W 7764  41.303  19.272   3.207
35340W        W 7765  29.111  24.025   1.798
35341W        W 7766  41.378  40.907  12.847
35342W        W 7767  33.395  31.117   3.724
35343W        W 7768  12.734  21.094   3.865
35344W        W 7769   7.760  29.598  14.972
35345W        W 7770  38.911  38.446   2.690
35346W        W 7771  29.082  39.494   2.833
35347W        W 7772  13.229   3.288   5.116
35348W        W 7773  44.919   6.364   4.793
35349W        W 7774  15.250  42.026   1.705
35350W        W 7775   6.357   8.293   1.727
35351W        W 7776   6.820  21.598  11.888
35352W        W 7777  35.543  40.479  10.580
35353W        W 7778  20.751  39.995   0.479
35354W        W 7779  38.560   5.890   2.363
35355W        W 7780  44.504  13.632  12.403
35356W        W 7781  44.910  23.033   4.652
35357W        W 7782  26.660  28.657   2.863
35358W        W 7783  11.346  39.826  12.989
35359W        W 7784   2.452  19.274   2.266
35360W        W 7785  13.144  29.942   3.333
35361W        W 7786  36.542  15.092  11.539
35362W        W 7787  21.194  38.861   0.270
35363W        W 7788  38.971  13.300  10.919
35364W        W 7789   0.763  10.699   3.667
35365W        W 7790  31.575  16.804   4.801
35366W        W 7791  12.713  31.447   3.357
35367W        W 7792  32.142   6.225   4.293
35368W        W 7793  41.513  32.581   0.856
35369W        W 7794  40.388  39.405  10.417
35370W        W 7795  15.664  16.203  14.368
35371W        W 7796  25.567  29.654   2.229
35372W        W 7797   3.418  27.486  14.826
35373W        W 7798  16.805  41.799  14.350
35374W        W 7799  19.553  18.085   1.768
35375W        W 7800  17.566  34.550  10.551
35376W        W 7801  10.371   1.792  12.029
35377W        W 7802   1.468  33.081   1.913
35378W        W 7803  43.989  26.601   4.771
35379W        W 7804  35.010  31.589   1.293
35380W        W 7805  32.465  32.593  12.011
35381W        W 7806  34.422  42.464   4.782
35382W        W 7807   6.215  27.041  12.006
35383W        W 7808   3.301  17.169   5.300
35384W        W 7809   9.824  37.523  13.433
35385W        W 7810  33.384  33.016   2.366
35386W        W 7811  31.906  26.679  12.953
35387W        W 7812  28.642  27.638   0.852
35388W        W 7813  33.484  16.214   3.353
35389W        W 7814   2.720   0.980  13.820
35390W        W 7815   9.799  44.290  14.387
35391W        W 7816  17.592  11.695  12.547
35392W        W 7817  41.869  40.473  11.865
35393W        W 7818  32.953   4.311  13.053
35394W        W 7819  44.953  14.233   4.733
35395W        W 7820   0.454  28.996  10.422
35396W        W 7821  43.411   4.757   1.843
35397W        W 7822  21.569  30.939   2.835
35398W        W 7823  17.224  37.016   4.140
35399W        W 7824   8.885   7.734  11.901
35400W        W 7825  42.951  11.146  10.950
35401W        W 7826  21.170  13.801  12.474
35402W        W 7827   7.175  39.968   4.275
35403W        W 7828  16.588  42.982   4.700
35404W        W 7829  21.563  11.241  13.319
35405W        W 7830  22.177  12.777   5.144
35406W        W 7831  13.289   1.770  14.877
35407W        W 7832  39.008  27.049   1.234
35408W        W 7833  22.220  30.437  13.992
35409W        W 7834   5.359  33.059  11.565
35410W        W 7835  32.016  44.428  14.950
35411W        W 7836  18.264  44.775   3.336
35412W        W 7837  31.631  28.595   2.805
35413W        W 7838  13.764  36.889  12.378
35414W        W 7839  35.582  32.001  13.948
35415W        W 7840  36.456  26.108  12.402
35416W        W 7841  12.688  44.352  12.444
35417W        W 7842  26.667  26.075   1.820
35418W        W 7843  32.431   8.198  12.573
35419W        W 7844   5.288  37.965  11.934
35420W        W 7845  27.128  44.943   1.805
35421W        W 7846  29.631  12.177  10.924
35422W        W 7847  15.793  27.947  14.004
35423W        W 7848  44.332  42.447  12.508
35424W        W 7849  35.878   4.744  14.995
35425W        W 7850  16.316  32.410   2.360
35426W        W 7851   9.395   0.950   0.355
35427W        W 7852  39.442  30.486  13.803
35428W        W 7853  26.566  44.865  11.396
35429W        W 7854   2.429  40.521   2.276
35430W        W 7855   5.227  15.708  13.814
35431W        W 7856  19.583  42.779  12.360
35432W        W 7857   9.657   5.258   3.712
35433W        W 7858  10.157  14.325  11.125
35434W        W 7859  35.064  27.139  14.282
35435W        W 7860  10.340   5.792   2.797
35436W        W 7861  44.988  24.576  14.479
35437W        W 7862  41.807  27.025  10.896
35438W        W 7863  24.496  35.100  13.308
35439W        W 7864   9.670  17.065   2.878
35440W        W 7865  43.467   4.703   3.185
35441W        W 7866  26.573  24.127  11.087
35442W        W 7867   5.930   1.794  10.899
35443W        W 7868   0.766   0.252   2.245
35444W        W 7869  16.113   7.201  10.480
35445W        W 7870  24.154   9.283  14.397
35446W        W 7871  13.722  37.901   3.228
35447W        W 7872  42.888  43.476   2.663
35448W        W 7873   6.769   6.406  14.444
35449W        W 7874  38.961   6.297  12.368
35450W        W 7875   8.843  21.261   2.332
35451W        W 7876  24.707  29.483  13.547
35452W        W 7877  10.830  27.092  12.551
35453W        W 7878  28.534   9.306   2.861
35454W        W 7879  30.031   8.382  11.492
35455W        W 7880  26.651  17.181   2.840
35456W        W 7881  15.083   0.391  14.491
35457W        W 7882   7.895  10.834  12.385
35458W        W 7883  27.462  39.330  12.045
35459W        W 7884  12.285   0.290   2.331
35460W        W 7885  13.759  32.044   4.146
35461W        W 7886  20.172  34.447  10.502
35462W        W 7887  44.265  36.364   4.276
35463W        W 7888   8.776  41.905   0.283
35464W        W 7889  34.581  26.963  12.549
35465W        W 7890  43.797  36.033  14.788
35466W        W 7891  36.463  22.156   4.700
35467W        W 7892  24.148   7.173  10.405
35468W        W 7893  23.165  14.778  14.880
35469W        W 7894  31.017   5.923   4.621
35470W        W 7895  23.114   1.307   4.200
35471W        W 7896   1.374  36.974  14.326
35472W        W 7897   2.424  17.106   2.264
35473W        W 7898  28.681  33.889   2.248
35474W        W 7899  41.886   2.235  13.889
35475W        W 7900  30.599  42.485  13.004
35476W        W 7901  35.600  24.691  12.454
35477W        W 7902  21.139  10.148  11.579
35478W        W 7903  18.279  32.551   4.290
35479W        W 7904   0.942   1.840   1.383
35480W        W 7905  41.362  26.177  13.022
35481W        W 7906  26.656  29.984   3.713
35482W        W 7907  14.214  11.817  14.298
35483W        W 7908   8.816  17.675  12.833
35484W        W 7909  26.461  33.976   0.751
35485W        W 7910  33.433  19.073   2.308
35486W        W 7911   1.354  13.308   2.705
35487W        W 7912  16.737  24.154   3.712
35488W        W 7913  13.717  36.466  13.012
35489W        W 7914  19.066  17.122  11.404
35490W        W 7915   2.302   0.782  13.012
35491W        W 7916   5.392  10.863  14.760
35492W        W 7917  28.109  40.403   0.300
35493W        W 7918  41.507  30.125   1.788
35494W        W 7919  15.724  34.431   3.723
35495W        W 7920   8.381   5.773   0.421
35496W        W 7921  30.088   7.241  12.837
35497W        W 7922  12.820  16.219  14.280
35498W        W 7923  42.499  14.701  13.530
35499W        W 7924   1.920  39.811   3.672
35500W        W 7925  20.102  18.056  12.430
35501W        W 7926  10.158  43.323   4.825
35502W        W 7927   2.809  11.710   4.605
35503W        W 7928  28.106  13.335   9.923
35504W        W 7929  31.428  21.181  10.551
35505W        W 7930  16.318  36.011   0.294
35506W        W 7931  44.505  20.717   1.727
35507W        W 7932   0.753  32.495   5.154
35508W        W 7933  30.069  29.030  12.347
35509W        W 7934  17.708  31.997   4.772
35510W        W 7935  16.197   8.167   3.378
35511W        W 7936  19.210  23.658  12.925
35512W        W 7937  10.375  44.772   0.309
35513W        W 7938  30.500  32.082  13.388
35514W        W 7939  18.257   7.380  13.007
35515W        W 7940  12.856   8.174  14.020
35516W        W 7941  21.253  18.140  12.375
35517W        W 7942  19.114  12.316  13.832
35518W        W 7943  19.547  11.823  11.093
35519W        W 7944  10.318  25.214   4.333
35520W        W 7945  25.083  12.251   3.345
35521W        W 7946  20.598   8.718  14.030
35522W        W 7947  40.804   0.488   1.913
35523W        W 7948  23.044  17.738   3.646
35524W        W 7949  24.202  25.154  12.500
35525W        W 7950  28.671  12.252   2.719
35526W        W 7951  22.158   4.819   2.824
35527W        W 7952  35.879   7.769  12.849
35528W        W 7953   5.265  25.202   2.191
35529W        W 7954  30.451  36.490   3.290
35530W        W 7955  34.095  10.305   0.460
35531W        W 7956  24.516  10.752   3.147
35532W        W 7957  25.190  33.440   0.339
35533W        W 7958  33.886   2.296   4.249
35534W        W 7959  29.163  18.280  13.432
35535W        W 7960  40.847  21.696  14.793
35536W        W 7961  40.451  20.160  14.795
35537W        W 7962  27.684  17.800  13.413
35538W        W 7963  43.380   0.252   1.753
35539W        W 7964  30.935  36.034   4.161
35540W        W 7965  32.400  21.700  12.957
35541W        W 7966  31.636  43.977  11.466
35542W        W 7967  43.502  11.297  12.063
35543W        W 7968  34.588  39.873   4.127
35544W        W 7969  32.917  21.515  11.428
35545W        W 7970  38.383  24.704   3.224
35546W        W 7971  17.694  12.275   1.723
35547W        W 7972  21.629  38.494  11.951
35548W        W 7973  10.270   9.715   0.885
35549W        W 7974  21.143   7.906   3.635
35550W        W 7975  28.435  12.851  12.846
35551W        W 7976  39.493  10.690  13.430
35552W        W 7977   2.341   0.294   2.410
35553W        W 7978  41.446  14.826  12.347
35554W        W 7979  12.761  20.664   1.701
35555W        W 7980  32.985  39.328  11.510
35556W        W 7981   7.685   7.335  12.552
35557W        W 7982  13.707  44.834  14.514
35558W        W 7983  11.182  20.197   3.206
35559W        W 7984  27.960  26.116  11.860
35560W        W 7985  38.948  21.660   3.293
35561W        W 7986  20.734  32.103   0.465
35562W        W 7987  27.013   0.282  10.993
35563W        W 7988  39.530  12.716  14.304
35564W        W 7989  18.691  16.289   0.740
35565W        W 7990   9.723   4.287  10.529
35566W        W 7991  40.302  11.159  10.092
35567W        W 7992   2.343   5.297  13.811
35568W        W 7993  19.062  27.068  13.531
35569W        W 7994  26.532   9.669  10.545
35570W        W 7995  37.047  15.768   2.360
35571W        W 7996   8.402   8.719   1.711
35572W        W 7997  26.092  32.474  13.463
35573W        W 7998   3.799  18.232   4.694
35574W        W 7999   3.840  41.040  12.876
35575W        W 8000   8.391  25.010  11.921
35576W        W 8001  31.972  15.700  13.472
35577W        W 8002   8.834  28.552   3.691
35578W        W 8003  42.022  25.002   4.806
35579W        W 8004  42.873  20.239  14.892
35580W        W 8005  28.965  14.286   4.783
35581W        W 8006   4.804   3.234  13.807
35582W        W 8007  44.262  27.024  13.864
35583W        W 8008  36.953  11.240  14.818
35584W        W 8009   3.277  31.444   0.407
35585W        W 8010  25.627  19.276  11.387
35586W        W 8011  36.069   9.808   0.336
35587W        W 8012   3.819  30.419  13.978
35588W        W 8013  17.785   2.450  12.969
35589W        W 8014  31.593  27.110   3.291
35590W        W 8015   8.275   0.824  10.961
35591W        W 8016  40.423  25.599   1.899
35592W        W 8017  42.830   2.805   4.318
35593W        W 8018   4.239   2.728  13.456
35594W        W 8019  29.059  27.672   3.681
35595W        W 8020  44.787   0.881  12.915
35596W        W 8021  22.720  23.616  10.905
35597W        W 8022  30.161  28.647   3.244
35598W        W 8023   0.363  29.973   2.290
35599W        W 8024  21.226   7.212   3.746
35600W        W 8025   0.774  18.747   4.116
35601W        W 8026  34.573  22.551  12.970
35602W        W 8027  37.359   0.919   1.883
35603W        W 8028  43.411  25.553  11.607
35604W        W 8029  35.362  39.365   2.276
35605W        W 8030  25.710   8.222   2.266
35606W        W 8031  24.070  28.127  11.101
35607W        W 8032  38.967  13.715  12.966
35608W        W 8033  40.813  38.983  13.890
35609W        W 8034  18.561  44.887   4.830
35610W        W 8035  42.466  36.499   1.782
35611W        W 8036  20.616  43.351   2.215
35612W        W 8037  44.464  24.627   2.676
35613W        W 8038  26.177   8.277  12.826
35614W        W 8039   6.716  40.469  11.436
35615W        W 8040  39.503  36.093   1.865
35616W        W 8041  43.311  14.631  10.972
35617W        W 8042  31.059   2.742  14.959
35618W        W 8043  25.644  32.119   1.850
35619W        W 8044   3.391  35.464  13.392
35620W        W 8045  43.988   1.935   1.362
35621W        W 8046  43.997  41.316   0.825
35622W        W 8047  10.308  10.854   3.722
35623W        W 8048  40.923  39.881  13.853
35624W        W 8049   3.761  27.132  14.474
35625W        W 8050  31.928  22.527  11.108
35626W        W 8051   1.962  30.420   3.682
35627W        W 8052  44.397  24.720  12.053
35628W        W 8053  32.031  34.568   1.405
35629W        W 8054  41.872  26.532  12.364
35630W        W 8055  20.031  28.469   2.752
35631W        W 8056  41.465  24.150   1.760
35632W        W 8057  26.608  18.163  11.512
35633W        W 8058  11.134  16.240  11.479
35634W        W 8059  25.701  26.502   3.735
35635W        W 8060   4.793   8.188   0.850
35636W        W 8061  35.577  41.453   4.626
35637W        W 8062  19.692  40.875  13.805
35638W        W 8063  44.828  23.072   3.233
35639W        W 8064   9.270  22.049   2.185
35640W        W 8065  20.270  10.742   5.298
35641W        W 8066  30.505  31.948   4.712
35642W        W 8067  32.140  34.927  12.863
35643W        W 8068  11.673  31.561  13.516
35644W        W 8069  13.613  26.972   1.284
35645W        W 8070  40.366  42.466   4.613
35646W        W 8071  44.487  31.904   0.357
35647W        W 8072   3.863  13.294   3.228
35648W        W 8073  16.243  42.992  12.496
35649W        W 8074  43.005  38.820  11.121
35650W        W 8075  13.332  26.182  13.482
35651W        W 8076  14.751  21.262   2.820
35652W        W 8077   7.711   3.838  14.911
35653W        W 8078  38.330  27.122   3.709
35654W        W 8079  22.205  26.477  13.996
35655W        W 8080  22.051   9.257  11.483
35656W        W 8081  23.609  10.692  11.530
35657W        W 8082  22.720  14.605   4.798
35658W        W 8083  17.238   5.194  10.585
35659W        W 8084  37.574  38.925  13.871
35660W        W 8085  32.611   3.713   4.661
35661W        W 8086  20.730  19.747  13.058
35662W        W 8087  21.191  19.779   1.240
35663W        W 8088  34.091  39.321  11.962
35664W        W 8089  14.161  17.246   2.260
35665W        W 8090  19.600   2.228   0.871
35666W        W 8091   2.772  40.940   0.954
35667W        W 8092  18.121  12.259   0.862
35668W        W 8093  21.258  26.478  12.366
35669W        W 8094  36.589   2.937   3.787
35670W        W 8095  12.280  34.868  13.038
35671W        W 8096  40.813  41.327   3.798
35672W        W 8097  43.854  17.275  11.408
35673W        W 8098  11.762  19.547   0.397
35674W        W 8099  24.229  18.697  12.448
35675W        W 8100   1.430  21.626   3.330
35676W        W 8101  23.209  41.512   2.763
35677W        W 8102  13.626  33.925   4.605
35678W        W 8103  15.665   7.808   0.252
35679W        W 8104  31.145  41.910  12.436
35680W        W 8105  22.149  25.524   4.206
35681W        W 8106  13.275  21.586  12.868
35682W        W 8107  28.941  15.197   2.206
35683W        W 8108  39.826  18.742   2.210
35684W        W 8109  37.398  34.895   0.421
35685W        W 8110   0.761  19.653  10.627
35686W        W 8111  40.490  22.182   0.919
35687W        W 8112  14.111   2.229   0.900
35688W        W 8113   1.271   2.917  13.410
35689W        W 8114  29.149  19.725   3.708
35690W        W 8115  44.421  19.717   1.934
35691W        W 8116  44.361  21.082   4.209
35692W        W 8117  16.622  35.519   2.827
35693W        W 8118  18.722  31.031   3.647
35694W        W 8119  18.771  35.007  12.431
35695W        W 8120   7.311  17.131   0.292
35696W        W 8121  11.788  36.008   3.147
35697W        W 8122  19.617   1.820  11.965
35698W        W 8123  22.620  29.581   4.736
35699W        W 8124  42.323  18.249   3.147
35700W        W 8125  31.454  23.645   0.255
35701W        W 8126  12.214   8.322   4.149
35702W        W 8127  40.994   5.225   1.747
35703W        W 8128  22.129  20.247   3.666
35704W        W 8129  43.977   9.707  11.465
35705W        W 8130  15.588  38.473   4.745
35706W        W 8131  10.809  23.123   3.303
35707W        W 8132  42.377  13.267  12.436
35708W        W 8133  30.091  27.109  11.570
35709W        W 8134  36.870   2.839  10.629
35710W        W 8135  16.317  33.599   3.282
35711W        W 8136  30.557  31.918  14.472
35712W        W 8137  44.854  14.743   0.459
35713W        W 8138   2.290  24.696  14.926
35714W        W 8139   6.903   2.239  13.510
35715W        W 8140  22.572  19.736   1.885
35716W        W 8141  18.117   1.438  12.557
35717W        W 8142  38.413   1.735  13.377
35718W        W 8143  37.421  19.609  10.908
35719W        W 8144  15.212   8.863  14.339
35720W        W 8145  19.683  37.919   1.219
35721W        W 8146  14.282  19.266   2.387
35722W        W 8147  12.246  23.496  12.453
35723W        W 8148  29.549  36.861   2.765
35724W        W 8149  12.154  28.991  14.287
35725W        W 8150  34.446  43.474   4.283
35726W        W 8151  29.001  22.649   1.235
35727W        W 8152  41.391   1.241  10.594
35728W        W 8153  44.499  23.514  12.975
35729W        W 8154  20.632  44.916   1.893
35730W        W 8155  15.309  31.448  11.964
35731W        W 8156  36.543  15.679  13.515
35732W        W 8157  23.662  10.171  13.438
35733W        W 8158   8.366  43.512  13.321
35734W        W 8159  33.554  40.931  14.031
35735W        W 8160  31.065  27.020   0.430
35736W        W 8161   7.292  28.963  12.090
35737W        W 8162  22.218   1.480  14.822
35738W        W 8163  12.768  18.204  12.825
35739W        W 8164  20.090  43.306  13.893
35740W        W 8165   5.349  42.916   3.369
35741W        W 8166   4.910   9.149   3.334
35742W        W 8167  12.278  36.033  12.942
35743W        W 8168  37.954  26.549  12.031
35744W        W 8169  25.187  12.233  13.375
35745W        W 8170  29.938  28.469  10.414
35746W        W 8171  34.479  27.537   1.357
35747W        W 8172  13.808  13.717  11.546
35748W        W 8173  28.514   1.880   2.329
35749W        W 8174  16.089  40.530   3.726
35750W        W 8175  15.762  38.012   0.819
35751W        W 8176  29.539  44.499   3.756
35752W        W 8177  27.052  41.904   2.768
35753W        W 8178  10.183  14.776  12.094
35754W        W 8179  42.787  41.826  11.446
35755W        W 8180  11.820  11.316   0.787
35756W        W 8181   7.725  24.024   0.889
35757W        W 8182   5.302  33.113   0.862
35758W        W 8183  38.514   4.302  11.864
35759W        W 8184  17.687   4.826   0.839
35760W        W 8185  19.582   4.732  12.026
35761W        W 8186  18.201  42.997   3.268
35762W        W 8187  39.939  19.642  13.796
35763W        W 8188  29.094  33.088  12.985
35764W        W 8189   1.859   2.779  13.975
35765W        W 8190  24.068  16.600   3.354
35766W        W 8191  27.995  20.225   0.936
35767W        W 8192  13.656   6.346  10.536
35768W        W 8193   5.824  18.680  13.340
35769W        W 8194   2.893  34.608   2.818
35770W        W 8195  12.186  12.693  11.053
35771W        W 8196   7.849  19.556   0.740
35772W        W 8197  20.065  15.254   2.301
35773W        W 8198  37.021  28.994  11.482
35774W        W 8199  39.388  17.240  11.489
35775W        W 8200  27.535  18.260   2.184
35776W        W 8201  41.356  33.422  12.852
35777W        W 8202  15.184  42.776   3.845
35778W        W 8203  17.195  24.593   4.837
35779W        W 8204   0.484   4.205   3.331
35780W        W 8205  25.498  18.724  11.380
35781W        W 8206  21.707  36.559   1.861
35782W        W 8207   2.935  44.371  11.497
35783W        W 8208   7.213  11.286   0.820
35784W        W 8209  34.606  31.047  11.121
35785W        W 8210  12.301  23.643   3.292
35786W        W 8211  43.328  27.086   0.374
35787W        W 8212  23.195  22.589   0.793
35788W        W 8213  17.592   0.442  13.472
35789W        W 8214  10.662  30.135   4.199
35790W        W 8215  32.496  10.665   0.449
35791W        W 8216  36.560  38.388   1.377
35792W        W 8217  20.703   7.296   2.178
35793W        W 8218  38.561  33.391   3.319
35794W        W 8219  29.941   0.919  12.066
35795W        W 8220  44.375  19.259  14.478
35796W        W 8221  16.573  36.872  12.430
35797W        W 8222  34.540  21.101  13.956
35798W        W 8223  44.427  43.443   0.742
35799W        W 8224  41.349  21.037  14.870
35800W        W 8225  35.069  30.964  13.325
35801W        W 8226  39.468  31.480   3.299
35802W        W 8227  23.651  28.069  11.942
35803W        W 8228  18.768   1.420  12.874
35804W        W 8229  23.134   2.309  10.919
35805W        W 8230  14.217  20.187  14.974
35806W        W 8231  29.125   7.834  12.439
35807W        W 8232  16.174   8.319  11.421
35808W        W 8233  40.905  43.476   0.820
35809W        W 8234  34.890   0.430   4.316
35810W        W 8235  24.686  36.055   0.918
35811W        W 8236  19.641  25.690  13.993
35812W        W 8237  21.065  12.824   5.188
35813W        W 8238  27.025  33.396   4.298
35814W        W 8239  33.466  25.634   4.180
35815W        W 8240  30.552  10.719   3.716
35816W        W 8241  16.700   8.774  11.607
35817W        W 8242  22.690  33.537  14.444
35818W        W 8243  12.770  14.308   2.398
35819W        W 8244  44.910  25.180  14.420
35820W        W 8245  38.482  18.777  13.899
35821W        W 8246  19.581  30.494   9.947
35822W        W 8247   2.334  33.474   2.198
35823W        W 8248   3.753   1.389   2.841
35824W        W 8249  10.231   5.192  14.841
35825W        W 8250  33.058  35.513   1.739
35826W        W 8251  41.351  10.790   3.856
35827W        W 8252  23.088  17.637   0.817
35828W        W 8253   5.918  31.404  13.481
35829W        W 8254   0.424  18.062   2.849
35830W        W 8255   4.901  43.879   1.442
35831W        W 8256  15.090   0.843   2.248
35832W        W 8257  32.479  27.655   2.244
35833W        W 8258  44.844  43.930  13.534
35834W        W 8259  17.230  21.557  14.278
35835W        W 8260  14.749  42.811  12.002
35836W        W 8261  38.350  12.339  14.016
35837W        W 8262  20.765  32.622   0.436
35838W        W 8263  17.085  32.942  13.391
35839W        W 8264   4.891  32.557  13.907
35840W        W 8265  34.563  43.902   0.357
35841W        W 8266  25.619  17.276  10.434
35842W        W 8267  20.717   4.217  13.854
35843W        W 8268  22.703   9.840   0.375
35844W        W 8269  31.528  24.665   4.675
35845W        W 8270  23.008  38.069   4.295
35846W        W 8271  18.107   6.741  10.561
35847W        W 8272  25.599  34.064   3.346
35848W        W 8273  12.176  40.801  14.277
35849W        W 8274   3.755  15.291  13.813
35850W        W 8275  16.097  37.521  14.830
35851W        W 8276  36.496  25.713   3.796
35852W        W 8277  34.530  32.629  12.971
35853W        W 8278  21.132   1.283  13.060
35854W        W 8279   3.269  20.769  10.559
35855W        W 8280  19.656  43.803  11.947
35856W        W 8281   3.290  33.876  14.814
35857W        W 8282  34.110   1.480  14.768
35858W        W 8283  26.997  27.035   1.420
35859W        W 8284  39.924  26.083   0.937
35860W        W 8285  33.586  26.481   2.251
35861W        W 8286  44.768  18.055  11.504
35862W        W 8287  33.477   6.218   5.118
35863W        W 8288  32.415  21.689  12.540
35864W        W 8289  38.859   7.242   2.214
35865W        W 8290  20.594   0.327  11.516
35866W        W 8291  18.647   7.876   0.750
35867W        W 8292  22.103  10.845  13.823
35868W        W 8293   2.958   0.260  13.044
35869W        W 8294  28.472   5.328  12.406
35870W        W 8295  33.037  13.762   2.323
35871W        W 8296  13.350  32.505  11.536
35872W        W 8297   0.776  43.480   4.698
35873W        W 8298   1.911  31.604  13.336
35874W        W 8299  37.034  24.641   0.482
35875W        W 8300  11.138  12.328   0.450
35876W        W 8301  42.441  32.618   0.835
35877W        W 8302   1.429  29.598   3.255
35878W        W 8303  26.995  19.276  12.996
35879W        W 8304  28.030  27.079   0.457
35880W        W 8305   5.323   0.372   0.811
35881W        W 8306   2.282   7.190   3.758
35882W        W 8307   0.816  42.806   0.887
35883W        W 8308   5.930   1.432  13.015
35884W        W 8309   0.386  10.678   4.832
35885W        W 8310  34.516  35.033   0.905
35886W        W 8311  17.663  17.589  10.935
35887W        W 8312  33.072  16.730   2.395
35888W        W 8313   8.280  31.522  12.068
35889W        W 8314  29.446  26.527   3.151
35890W        W 8315  33.116  34.068  10.585
35891W        W 8316  33.981   9.202  14.484
35892W        W 8317  27.019  42.307  13.488
35893W        W 8318  20.704  43.983   3.327
35894W        W 8319  41.891  42.500  14.457
35895W        W 8320  16.232  14.242  12.929
35896W        W 8321  24.537  13.665   1.341
35897W        W 8322  40.881   3.791   2.390
35898W        W 8323  14.725  44.928  13.997
35899W        W 8324  10.188  39.897   1.281
35900W        W 8325  15.258   2.862   2.717
35901W        W 8326  26.655   8.764  14.853
35902W        W 8327  34.903  36.077  13.831
35903W        W 8328  12.679  27.499   3.224
35904W        W 8329  27.622   8.718  13.000
35905W        W 8330  40.898  22.552   0.918
35906W        W 8331  13.278  22.693  11.892
35907W        W 8332  37.517  12.732  11.560
35908W        W 8333  43.020  30.558  13.409
35909W        W 8334   6.702  20.275   1.733
35910W        W 8335  20.091  29.640  10.940
35911W        W 8336  22.539  37.510  10.452
35912W        W 8337  41.929  37.408   4.766
35913W        W 8338   0.454  32.010   1.311
35914W        W 8339  28.098  32.618  14.966
35915W        W 8340  41.010  24.057  12.936
35916W        W 8341  29.557  15.124   1.391
35917W        W 8342  25.163  27.495   4.174
35918W        W 8343  39.949  17.203  11.572
35919W        W 8344  13.350  11.630  12.468
35920W        W 8345  42.895  26.543  14.022
35921W        W 8346  36.445   7.248   0.835
35922W        W 8347  30.656  40.471   3.374
35923W        W 8348   8.276   5.354  14.450
35924W        W 8349  40.979  37.046  14.430
35925W        W 8350  25.002  33.119  11.892
35926W        W 8351   5.903  11.368  10.626
35927W        W 8352  39.013  17.628   1.289
35928W        W 8353  11.234   1.832  11.423
35929W        W 8354  41.798  29.148   4.602
35930W        W 8355  30.004  12.618   1.226
35931W        W 8356  14.653  39.809  14.382
35932W        W 8357  24.112  38.958  11.889
35933W        W 8358  27.508  20.244  11.984
35934W        W 8359   3.893  41.415   2.242
35935W        W 8360  25.098  42.321  12.462
35936W        W 8361  29.092  39.874  13.508
35937W        W 8362   7.710  13.166  13.976
35938W        W 8363  24.060   3.870   2.406
35939W        W 8364  15.253  20.245  13.031
35940W        W 8365  36.498  21.532   1.837
35941W        W 8366  24.039  42.776   0.279
35942W        W 8367  41.485   4.382   2.266
35943W        W 8368  17.627   8.750  11.124
35944W        W 8369   6.250  42.426  11.594
35945W        W 8370  30.056  43.376  12.894
35946W        W 8371   7.387  37.546  11.400
35947W        W 8372  17.573  13.844  11.374
35948W        W 8373  24.070   0.904   3.728
35949W        W 8374  35.486  26.176   3.755
35950W        W 8375  24.984  19.045  13.537
35951W        W 8376  11.827   1.971   5.246
35952W        W 8377  39.903  38.961   2.755
35953W        W 8378  43.313  39.560   1.702
35954W        W 8379   1.972  14.613  10.938
35955W        W 8380   7.817  21.565   3.764
35956W        W 8381  24.040   1.976   4.169
35957W        W 8382  27.038   8.761  13.515
35958W        W 8383   3.888  30.656  13.009
35959W        W 8384  26.573  12.174   1.369
35960W        W 8385  37.840  35.383   2.712
35961W        W 8386  35.081   4.865   1.838
35962W        W 8387  32.975  31.918   0.729
35963W        W 8388  44.410  17.166   3.269
35964W        W 8389  37.056  33.952   0.330
35965W        W 8390  12.209  39.419  14.854
35966W        W 8391  16.241  15.196   4.184
35967W        W 8392  26.196  44.928   4.653
35968W        W 8393  40.487  24.982   5.184
35969W        W 8394  25.477   2.272   1.843
35970W        W 8395  42.882  25.638  12.957
35971W        W 8396  28.530  16.688   2.290
35972W        W 8397   1.849  26.665  12.888
35973W        W 8398  24.148  20.699  13.389
35974W        W 8399  25.043  11.283   2.799
35975W        W 8400  11.210  17.681   4.711
35976W        W 8401  37.384  11.215   4.612
35977W        W 8402   7.365   2.752   0.308
35978W        W 8403  41.526  12.137  12.495
35979W        W 8404  22.142  34.410  11.390
35980W        W 8405  11.801  30.147   0.459
35981W        W 8406   3.717  36.894   1.769
35982W        W 8407  24.649  21.203   0.366
35983W        W 8408   4.843  32.600  14.766
35984W        W 8409  18.245  18.551   4.752
35985W        W 8410  40.428  15.582   3.849
35986W        W 8411  31.023  17.138  13.336
35987W        W 8412  22.013  43.356  11.578
35988W        W 8413  25.140  40.851   0.417
35989W        W 8414   8.875  44.443  10.071
35990W        W 8415   1.839   7.713  13.496
35991W        W 8416  30.452   2.932  11.578
35992W        W 8417  23.019   1.756  11.863
35993W        W 8418  29.532  15.140  13.339
35994W        W 8419  44.442  30.435   2.220
35995W        W 8420  37.418   9.188   0.366
35996W        W 8421  27.531  23.548  11.075
35997W        W 8422  33.099  15.682  12.525
35998W        W 8423  20.216  32.440  13.861
35999W        W 8424  35.367  10.201   1.446
36000W        W 8425  44.374  33.919   4.243
36001W        W 8426  37.920  36.923   1.769
36002W        W 8427  44.828  31.521  12.982
36003W        W 8428  22.191  42.785  13.841
36004W        W 8429   3.773   3.899   2.737
36005W        W 8430  35.582   8.364  12.448
36006W        W 8431  28.003  21.115  14.858
36007W        W 8432  41.529   0.417   2.779
36008W        W 8433  43.873  39.341  14.842
36009W        W 8434  19.576  28.974   0.430
36010W        W 8435  30.909  14.710   4.119
36011W        W 8436  16.143  22.127  11.122
36012W        W 8437  14.714  37.952   4.654
36013W        W 8438  31.609  34.002  14.457
36014W        W 8439  13.754  33.115  14.987
36015W        W 8440   2.293  41.790   0.375
36016W        W 8441   5.700   3.254   3.813
36017W        W 8442   7.678  30.592  13.312
36018W        W 8443  16.789  44.903   4.276
36019W        W 8444   6.720   8.728  14.439
36020W        W 8445  30.003  22.508   0.817
36021W        W 8446   7.862  23.993   0.350
36022W        W 8447  25.553  24.149  13.938
36023W        W 8448  10.240  33.908  11.447
36024W        W 8449   7.194  14.165   1.281
36025W        W 8450  29.145  37.012  12.962
36026W        W 8451  21.076   4.243   2.777
36027W        W 8452  24.519  30.131   2.406
36028W        W 8453  17.730   5.426   4.173
36029W        W 8454  25.502  26.546  11.881
36030W        W 8455   4.826  40.547   2.225
36031W        W 8456  28.434  35.036  14.766
36032W        W 8457  37.893  31.013   1.301
36033W        W 8458  16.595  22.657  11.397
36034W        W 8459  33.462  11.836   0.436
36035W        W 8460  39.895   3.849   2.190
36036W        W 8461  40.800   0.264  10.544
36037W        W 8462  31.120  35.990  10.122
36038W        W 8463  44.294  12.658  10.011
36039W        W 8464  28.521   1.361   0.467
36040W        W 8465  23.016   0.256  10.415
36041W        W 8466  20.544  33.407   4.709
36042W        W 8467  19.164   8.350   1.765
36043W        W 8468  40.463   0.878  13.387
36044W        W 8469  35.010  21.651  12.998
36045W        W 8470  12.303   4.393   9.587
36046W        W 8471   3.305  18.707  12.086
36047W        W 8472   5.749  17.291  11.923
36048W        W 8473  37.877   2.960  13.851
36049W        W 8474   7.766  36.495  13.500
36050W        W 8475  44.959  11.339   0.787
36051W        W 8476  21.122  35.973  10.022
36052W        W 8477  44.476  26.599  10.962
36053W        W 8478  44.903   3.391  13.311
36054W        W 8479   2.860  40.545  13.324
36055W        W 8480  16.776   4.894   3.656
36056W        W 8481  16.781  16.126  14.375
36057W        W 8482  28.615  19.239  11.081
36058W        W 8483   5.903   0.476  11.964
36059W        W 8484  36.539  29.067   1.851
36060W        W 8485   5.920   9.776  10.933
36061W        W 8486  13.605  22.723   1.355
36062W        W 8487   4.771   7.380   4.767
36063W        W 8488   2.322  10.377   2.278
36064W        W 8489   2.449  13.670  12.825
36065W        W 8490   5.816   9.266   4.280
36066W        W 8491  12.732  42.426  11.539
36067W        W 8492  20.124  27.563  10.614
36068W        W 8493  28.120  21.606   1.222
36069W        W 8494  37.853  10.363   2.187
36070W        W 8495  39.924  10.339  13.532
36071W        W 8496  16.243  18.579  11.003
36072W        W 8497  15.152  42.794  14.507
36073W        W 8498   8.257   2.784  14.844
36074W        W 8499  19.623   9.267   1.222
36075W        W 8500  22.557  43.912  10.071
36076W        W 8501  29.036   1.268   2.368
36077W        W 8502  18.762   3.861  14.993
36078W        W 8503   9.323  32.591   4.661
36079W        W 8504  15.258  39.538   2.392
36080W        W 8505  34.011  30.621  13.867
36081W        W 8506  12.849   6.401  13.049
36082W        W 8507  11.664  27.620  11.881
36083W        W 8508  44.931  18.077   0.272
36084W        W 8509  32.885   9.755   4.705
36085W        W 8510  32.998   8.339  10.600
36086W        W 8511  15.709  44.490   0.242
36087W        W 8512   6.844  42.453  12.867
36088W        W 8513  36.073  31.530   1.736
36089W        W 8514  19.719   4.332   0.286
36090W        W 8515  28.064  10.640   0.466
36091W        W 8516  37.552  42.874  10.930
36092W        W 8517  40.432  13.240  11.127
36093W        W 8518  15.674   9.876  14.013
36094W        W 8519  24.592  27.608  14.905
36095W        W 8520  44.903  21.163  10.643
36096W        W 8521  30.116  42.396  11.901
36097W        W 8522  28.586  35.492  10.906
36098W        W 8523  14.778  38.559  13.356
36099W        W 8524  44.828   7.706   1.413
36100W        W 8525  39.320   2.392   2.371
36101W        W 8526  35.557  15.324  13.516
36102W        W 8527  32.068  19.132  13.039
36103W        W 8528  17.142   2.471   2.300
36104W        W 8529   5.377  44.762  13.990
36105W        W 8530  23.228  18.277   2.731
36106W        W 8531   6.770  35.866  12.401
36107W        W 8532  38.034  41.787  12.356
36108W        W 8533  21.077  40.423   2.755
36109W        W 8534  29.541  16.086   3.725
36110W        W 8535  34.548  37.567   2.211
36111W        W 8536  42.434   1.353  13.835
36112W        W 8537   8.834  17.775   4.605
36113W        W 8538  25.972   3.371  11.416
36114W        W 8539   6.823  12.840  13.994
36115W        W 8540   7.887  28.483   3.155
36116W        W 8541  36.588  10.865   4.129
36117W        W 8542  35.457   4.408   4.703
36118W        W 8543  43.347  15.720  10.038
36119W        W 8544  34.942   8.809   2.369
36120W        W 8545  39.822  33.957   4.622
36121W        W 8546  29.120  29.607   1.373
36122W        W 8547  29.033  35.572  14.501
36123W        W 8548  42.856  42.786   3.732
36124W        W 8549  44.920  21.612  13.437
36125W        W 8550  11.689  37.071   3.370
36126W        W 8551   2.925  41.480   0.310
36127W        W 8552  11.232  31.466   4.234
36128W        W 8553  22.121   6.762   4.606
36129W        W 8554  29.951  22.133   4.169
36130W        W 8555  18.575  26.607  13.416
36131W        W 8556   7.713   8.191   0.424
36132W        W 8557   5.750  21.175   4.673
36133W        W 8558  21.229  12.156   5.172
36134W        W 8559  43.814  23.133   3.706
36135W        W 8560  28.067  27.501   2.681
36136W        W 8561   8.726   4.775  11.863
36137W        W 8562  37.024  44.975  14.348
36138W        W 8563  30.501   2.381   4.775
36139W        W 8564  12.215  33.923  12.407
36140W        W 8565  17.736  42.453   1.790
36141W        W 8566  14.274  36.963   3.291
36142W        W 8567  44.759  26.612   2.292
36143W        W 8568   5.405  16.797   3.381
36144W        W 8569  39.471   1.257  14.467
36145W        W 8570  30.978  33.590  11.966
36146W        W 8571   9.761   2.908   1.333
36147W        W 8572   8.696   4.944  13.855
36148W        W 8573  10.371  19.583  10.092
36149W        W 8574   6.424  18.759  14.876
36150W        W 8575  37.982   2.814  10.898
36151W        W 8576   1.931  41.334  13.059
36152W        W 8577  44.456  29.921  11.898
36153W        W 8578   4.943  30.418  12.421
36154W        W 8579  26.531  15.814   9.939
36155W        W 8580  16.732  42.802  10.056
36156W        W 8581   6.193   0.424   2.317
36157W        W 8582  15.782  31.990   1.436
36158W        W 8583  27.456  36.571   2.738
36159W        W 8584  25.193  18.080   1.730
36160W        W 8585  16.567   5.428   4.237
36161W        W 8586  36.431   3.280   1.324
36162W        W 8587  41.440   0.856  12.052
36163W        W 8588  15.609  18.287  10.896
36164W        W 8589  41.510  17.077   0.383
36165W        W 8590   9.365   0.793  12.854
36166W        W 8591  11.804  41.432   1.800
36167W        W 8592   5.330  30.482  11.876
36168W        W 8593  37.397  31.409   3.211
36169W        W 8594  18.766  13.145   0.428
36170W        W 8595   8.755  23.064   1.745
36171W        W 8596  40.545  12.788   0.310
36172W        W 8597   6.839   9.734   0.318
36173W        W 8598  36.880  26.965   3.837
36174W        W 8599  32.068  38.546  12.348
36175W        W 8600  25.984  41.914   1.892
36176W        W 8601  18.083  11.624   0.849
36177W        W 8602  26.662  11.866   0.427
36178W        W 8603   6.839  25.566  13.025
36179W        W 8604  43.429   7.751  12.526
36180W        W 8605  30.617  24.479   3.285
36181W        W 8606  13.145  30.479  11.867
36182W        W 8607   2.838  10.185   4.811
36183W        W 8608  35.561  21.584   0.410
36184W        W 8609   3.222  16.587   4.192
36185W        W 8610  28.506  42.317  14.921
36186W        W 8611  44.284   4.386   2.246
36187W        W 8612  18.208   1.880  12.404
36188W        W 8613  27.065  44.424   2.703
36189W        W 8614   8.719  41.845  11.539
36190W        W 8615  25.174  12.822  13.467
36191W        W 8616  17.712  44.871   3.795
36192W        W 8617  22.515  21.747  12.909
36193W        W 8618   0.320   1.850   0.846
36194W        W 8619   6.298  35.442  13.050
36195W        W 8620   2.722   1.285   1.913
36196W        W 8621  38.834  13.234   0.332
36197W        W 8622  17.194  20.696   2.709
36198W        W 8623  33.938  28.126   3.341
36199W        W 8624  10.157  23.657  12.930
36200W        W 8625  32.108  36.983  10.977
36201W        W 8626  30.599  37.058  12.470
36202W        W 8627  29.440  43.998  10.530
36203W        W 8628  14.644  35.449  14.860
36204W        W 8629   1.243  24.717  10.459
36205W        W 8630  35.508   3.450  14.426
36206W        W 8631   5.247   4.276   3.746
36207W        W 8632   0.939   1.912  11.973
36208W        W 8633   8.323  11.646  10.948
36209W        W 8634   1.929  29.633   3.196
36210W        W 8635   4.413  27.031   2.807
36211W        W 8636  10.851  31.965  14.028
36212W        W 8637  37.344  29.960  11.868
36213W        W 8638  10.142  38.479  11.502
36214W        W 8639  29.164  33.528  10.518
36215W        W 8640  17.722  23.643   1.865
36216W        W 8641  34.421  26.547   2.316
36217W        W 8642   5.899  27.605  14.851
36218W        W 8643  37.470  31.053  11.102
36219W        W 8644  10.770   2.816  10.611
36220W        W 8645  39.354  17.117  12.008
36221W        W 8646  21.203  40.929   1.438
36222W        W 8647  32.555  25.136   3.235
36223W        W 8648  42.426  32.996  13.916
36224W        W 8649  20.143  41.900  14.867
36225W        W 8650   5.732  16.689   1.365
36226W        W 8651   9.379  13.149  13.932
36227W        W 8652  27.640  40.846   5.777
36228W        W 8653   5.410  17.673   2.225
36229W        W 8654  34.587  10.786   2.901
36230W        W 8655  16.303   6.693   4.717
36231W        W 8656  12.841  38.371  12.417
36232W        W 8657  44.488  36.351   0.396
36233W        W 8658   2.268  28.647   0.467
36234W        W 8659  18.243  25.142  14.855
36235W        W 8660   3.794  28.100   4.139
36236W        W 8661  24.225   8.265   1.238
36237W        W 8662  34.947  40.992  11.477
36238W        W 8663  24.035   5.885   0.445
36239W        W 8664  14.682  13.717  11.042
36240W        W 8665   0.976  33.589  14.876
36241W        W 8666  31.039   0.329   4.828
36242W        W 8667  10.368  18.598   2.207
36243W        W 8668  25.513  34.474   4.120
36244W        W 8669  19.251  28.092  11.873
36245W        W 8670  29.048  28.028  14.829
36246W        W 8671  11.214   8.261  12.559
36247W        W 8672  33.398  15.657  14.413
36248W        W 8673  37.883  12.754  13.339
36249W        W 8674   5.857  27.160  14.819
36250W        W 8675   0.356  14.162   4.345
36251W        W 8676   8.196  22.240   3.210
36252W        W 8677  28.630   2.293   4.826
36253W        W 8678  24.193   2.278   2.713
36254W        W 8679  33.387  38.929   1.756
36255W        W 8680  13.256  29.973   4.153
36256W        W 8681  31.997   2.320   3.859
36257W        W 8682  41.832  23.050   0.448
36258W        W 8683   5.890   9.825   0.805
36259W        W 8684  39.877  39.864   3.719
36260W        W 8685   5.388  38.445  12.399
36261W        W 8686   3.442  40.902   3.867
36262W        W 8687   2.797  19.172  12.825
36263W        W 8688  17.155  19.108  14.283
36264W        W 8689  25.218  29.505  12.575
36265W        W 8690   1.452  38.413  14.360
36266W        W 8691  28.938   0.356  11.505
36267W        W 8692  19.708  44.936  11.521
36268W        W 8693   8.665  41.439   0.810
36269W        W 8694  30.934  44.447   2.841
36270W        W 8695  20.101  44.280  10.155
36271W        W 8696  32.596  36.873   2.404
36272W        W 8697   8.832  32.989   2.819
36273W        W 8698  29.167  34.506   1.291
36274W        W 8699  23.219  19.089   1.774
36275W        W 8700  43.861  16.803   1.219
36276W        W 8701  43.417  15.743   0.382
36277W        W 8702  40.495  32.510  11.608
36278W        W 8703  42.410   5.814   3.259
36279W        W 8704   0.248   4.930  11.422
36280W        W 8705  33.527   4.777  10.535
36281W        W 8706   0.956   7.371  11.401
36282W        W 8707  17.292  31.634   1.900
36283W        W 8708  36.560  27.083   3.700
36284W        W 8709  10.657  19.043   2.312
36285W        W 8710  16.576  37.013   1.217
36286W        W 8711   0.857  28.164   0.866
36287W        W 8712  10.182  18.199   3.767
36288W        W 8713  22.131  26.076  11.957
36289W        W 8714  36.565  10.256   0.349
36290W        W 8715  34.437   8.364  10.458
36291W        W 8716  15.183   2.366   1.738
36292W        W 8717  18.615  29.542   4.211
36293W        W 8718   5.875  10.682   3.676
36294W        W 8719  23.163  27.574   2.405
36295W        W 8720   6.875   4.833  12.844
36296W        W 8721   9.764  27.605   0.755
36297W        W 8722  19.765  16.083  11.002
36298W        W 8723  41.482  35.873   0.740
36299W        W 8724  43.820  11.300   0.342
36300W        W 8725  20.246   4.769  11.534
36301W        W 8726  14.741   8.678   1.242
36302W        W 8727  18.189  26.652   4.690
36303W        W 8728   6.409  11.791  10.451
36304W        W 8729   6.381  25.094  14.453
36305W        W 8730  43.009  11.867  11.461
36306W        W 8731   9.713  26.522   4.803
36307W        W 8732   1.253   6.779   0.459
36308W        W 8733  35.550   7.689   1.844
36309W        W 8734  38.465  26.503  12.577
36310W        W 8735   2.818   1.865  12.847
36311W        W 8736  35.917  10.154   2.386
36312W        W 8737  34.560  35.030   4.321
36313W        W 8738  17.225  23.004   4.676
36314W        W 8739  40.945   2.804   2.800
36315W        W 8740   5.921  37.564   3.846
36316W        W 8741  31.495  10.657  14.787
36317W        W 8742   7.684   9.380  14.857
36318W        W 8743  25.211  10.681   2.828
36319W        W 8744  31.569   4.918   0.340
36320W        W 8745  22.715  42.406   4.179
36321W        W 8746  17.647   8.305  12.575
36322W        W 8747  29.054  41.811   0.268
36323W        W 8748   1.378  43.827  13.421
36324W        W 8749  25.660  44.947   1.418
36325W        W 8750   0.256  43.824  13.969
36326W        W 8751  36.873   0.861   4.729
36327W        W 8752  42.951  41.297   3.679
36328W        W 8753   7.862  23.584   3.258
36329W        W 8754   7.733   9.723   4.625
36330W        W 8755  33.403  20.523   4.354
36331W        W 8756  17.779  21.673  14.882
36332W        W 8757  44.297  39.033   2.773
36333W        W 8758  13.206  22.659  11.376
36334W        W 8759  42.831  14.645  12.530
36335W        W 8760  19.267  27.468   3.793
36336W        W 8761  41.336  11.671  11.073
36337W        W 8762  26.064   5.296   3.372
36338W        W 8763  13.259  44.864  12.860
36339W        W 8764  36.886  25.015  14.459
36340W        W 8765  31.624   8.835   3.858
36341W        W 8766   1.274  32.554  10.127
36342W        W 8767  42.394  41.989   4.239
36343W        W 8768  40.445   7.845   2.335
36344W        W 8769   7.258   0.760   0.450
36345W        W 8770  12.116  12.807   0.413
36346W        W 8771  28.136  16.317   3.838
36347W        W 8772  42.401  15.214   2.303
36348W        W 8773  44.923  30.637  10.422
36349W        W 8774  21.202  43.362  10.973
36350W        W 8775  21.629  11.824   0.811
36351W        W 8776  10.157  34.987  12.065
36352W        W 8777   5.875  25.553  10.517
36353W        W 8778  23.985  12.691   3.654
36354W        W 8779  34.029  16.655  13.373
36355W        W 8780  44.415   2.908  13.021
36356W        W 8781   6.777  19.653  12.831
36357W        W 8782   3.226  44.429  12.875
36358W        W 8783  21.540  19.772   5.169
36359W        W 8784   5.385   9.849  13.401
36360W        W 8785  11.708  30.609   3.743
36361W        W 8786  33.121  17.214  11.377
36362W        W 8787   1.315  21.159  10.983
36363W        W 8788  40.379  19.692  13.857
36364W        W 8789  14.698  39.018   4.330
36365W        W 8790   2.754  32.080   2.774
36366W        W 8791   5.254  40.520   2.375
36367W        W 8792   0.746  36.591  11.451
36368W        W 8793  43.999   1.470   3.870
36369W        W 8794   2.427   1.440   0.835
36370W        W 8795   5.803   7.203   4.677
36371W        W 8796  42.524  10.843  14.911
36372W        W 8797  29.430  27.629   3.770
36373W        W 8798  24.542  16.651  12.507
36374W        W 8799  13.636  10.693  10.910
36375W        W 8800  35.105  18.293  10.527
36376W        W 8801  32.020  26.978  10.907
36377W        W 8802  40.840  22.504  14.773
36378W        W 8803  16.697  32.912  13.492
36379W        W 8804   2.440  41.997   3.263
36380W        W 8805  43.780  35.932   1.315
36381W        W 8806  21.067  44.859  13.309
36382W        W 8807  14.289  24.720   3.765
36383W        W 8808  20.602  12.255   9.508
36384W        W 8809   1.290  18.153  14.339
36385W        W 8810  18.667  26.645  14.008
36386W        W 8811  29.614  14.287   4.263
36387W        W 8812  31.445  27.514  13.005
36388W        W 8813  15.692  43.379   0.835
36389W        W 8814   1.466  26.488   1.862
36390W        W 8815  28.558  21.097  12.517
36391W        W 8816  18.622  12.693  10.560
36392W        W 8817  33.879   1.759  14.972
36393W        W 8818   2.740  42.878   4.211
36394W        W 8819  20.176  42.004  10.911
36395W        W 8820  18.777  29.613  11.442
36396W        W 8821  39.971   3.710   3.843
36397W        W 8822  43.870   1.868   4.295
36398W        W 8823  20.085  22.209   1.934
36399W        W 8824  13.734  36.562   4.165
36400W        W 8825   2.827   2.345  10.576
36401W        W 8826  35.511  11.865   0.890
36402W        W 8827  43.285  33.883  12.400
36403W        W 8828   9.758  23.703  12.436
36404W        W 8829  19.276  12.134  14.953
36405W        W 8830   6.259  12.323  11.057
36406W        W 8831  23.154   8.331  11.442
36407W        W 8832  31.969  44.841  14.418
36408W        W 8833  12.776  41.900   0.855
36409W        W 8834  35.864  15.644  10.971
36410W        W 8835  23.699  15.296   2.181
36411W        W 8836   2.938  27.977  13.496
36412W        W 8837  28.944  22.692  14.508
36413W        W 8838  20.089  41.910   1.431
36414W        W 8839  29.973  41.354  13.341
36415W        W 8840  28.168  34.906   3.740
36416W        W 8841   7.368  35.463   3.185
36417W        W 8842   2.419   9.177  12.934
36418W        W 8843   0.393  15.249  14.381
36419W        W 8844  19.097   7.185   1.429
36420W        W 8845  18.182  37.841   2.688
36421W        W 8846   8.378  17.564   3.282
36422W        W 8847  17.075  20.540   4.215
36423W        W 8848  15.199   7.748  12.411
36424W        W 8849  36.074   2.797  14.917
36425W        W 8850  13.801   3.927   0.821
36426W        W 8851  41.352  23.736  13.536
36427W        W 8852   5.396  28.594  11.474
36428W        W 8853  28.535   1.300  13.860
36429W        W 8854   5.857  32.990   1.261
36430W        W 8855  38.944  24.487   4.650
36431W        W 8856  13.176  44.357   4.143
36432W        W 8857  13.127   7.687   0.930
36433W        W 8858  32.047  32.992   1.429
36434W        W 8859  14.777   4.710   2.213
36435W        W 8860  15.151  12.311   1.352
36436W        W 8861  29.605   9.834   0.254
36437W        W 8862  24.093  32.091  13.848
36438W        W 8863  39.362  29.601   3.254
36439W        W 8864  37.040  15.227   2.365
36440W        W 8865  17.210   3.730   4.150
36441W        W 8866  10.708  24.215   4.295
36442W        W 8867  35.916  19.173   4.140
36443W        W 8868  14.781  12.223  11.067
36444W        W 8869  14.609  32.100  10.958
36445W        W 8870  11.808  29.459  13.831
36446W        W 8871  38.058  24.498  11.070
36447W        W 8872  36.456  22.598  12.432
36448W        W 8873  39.053   1.387   0.961
36449W        W 8874   7.317   1.318  14.292
36450W        W 8875  44.802  18.571  13.408
36451W        W 8876  35.980  20.609  11.523
36452W        W 8877  14.823  22.610  10.976
36453W        W 8878  11.838   4.287  11.421
36454W        W 8879  22.511   0.488   2.387
36455W        W 8880  31.476   1.830  10.559
36456W        W 8881  11.129  32.026  13.373
36457W        W 8882  12.174   1.975  11.899
36458W        W 8883  11.827  40.844  13.973
36459W        W 8884  34.911   4.242  14.456
36460W        W 8885   6.684  28.036   4.217
36461W        W 8886  34.913  16.752  10.540
36462W        W 8887   8.806   1.245  13.806
36463W        W 8888  11.329  37.472   0.448
36464W        W 8889  20.042   8.319   4.242
36465W        W 8890  34.916   0.283   4.600
36466W        W 8891  26.498  24.701   3.823
36467W        W 8892  27.081  20.036  13.410
36468W        W 8893   3.935  24.537  14.452
36469W        W 8894  13.844   2.353  13.486
36470W        W 8895  40.504  13.805   2.861
36471W        W 8896  19.101  28.077   2.179
36472W        W 8897  11.700  20.208  13.829
36473W        W 8898  41.466  43.797   3.763
36474W        W 8899  37.424  43.328  12.035
36475W        W 8900  23.593  29.649   3.839
36476W        W 8901  35.983  27.633  12.835
36477W        W 8902  10.688  28.953   2.693
36478W        W 8903  11.846  30.462   2.805
36479W        W 8904  30.487  16.799  12.465
36480W        W 8905  41.942  16.148   3.758
36481W        W 8906  17.253  34.602   1.813
36482W        W 8907  21.690  32.933  12.964
36483W        W 8908  34.105  21.097  12.374
36484W        W 8909  30.140   4.278  11.373
36485W        W 8910  22.060  37.936   2.839
36486W        W 8911  15.634  31.997  14.003
36487W        W 8912  15.156  40.977   0.462
36488W        W 8913   2.720  32.444   2.750
36489W        W 8914   4.768  33.428  11.869
36490W        W 8915  16.655   2.310   2.392
36491W        W 8916   3.712  13.319  10.545
36492W        W 8917   7.365  34.086  14.385
36493W        W 8918  27.182  17.795   1.854
36494W        W 8919  33.585  17.084  13.421
36495W        W 8920  43.365   6.841  13.806
36496W        W 8921  17.082  21.130   1.379
36497W        W 8922   9.680  16.780  12.052
36498W        W 8923  11.307  19.164  14.782
36499W        W 8924  11.254  14.156   3.355
36500W        W 8925  29.131  24.562   0.951
36501W        W 8926  10.652   1.399  13.953
36502W        W 8927  29.918  30.465  12.539
36503W        W 8928  44.974  19.105   0.950
36504W        W 8929  40.406  12.757  10.158
36505W        W 8930  35.060  25.968   0.957
36506W        W 8931  27.455  42.968  14.973
36507W        W 8932  29.142  42.921   2.820
36508W        W 8933   6.358   8.863   2.738
36509W        W 8934  15.133  35.390  11.098
36510W        W 8935  20.651  40.897  14.828
36511W        W 8936  11.732  28.581   2.406
36512W        W 8937  11.240  38.839  13.957
36513W        W 8938  14.657  38.886   0.250
36514W        W 8939  11.150  23.150  10.486
36515W        W 8940  37.363  16.158  11.488
36516W        W 8941  34.043  26.538  11.527
36517W        W 8942   0.425   1.429  11.914
36518W        W 8943  10.747  30.109  13.517
36519W        W 8944  28.040  16.218  13.019
36520W        W 8945   9.679  13.341  10.974
36521W        W 8946  34.422  30.651  10.587
36522W        W 8947  17.241  44.283  12.467
36523W        W 8948  14.104  32.040  12.843
36524W        W 8949  11.740   4.232  11.867
36525W        W 8950  14.286   8.349   2.778
36526W        W 8951  40.323  11.761   4.682
36527W        W 8952  23.088  11.252   0.311
36528W        W 8953  43.784  12.314  13.950
36529W        W 8954  43.014   6.302  12.964
36530W        W 8955  15.302  29.989   2.363
36531W        W 8956  35.362  44.361  14.361
36532W        W 8957  34.030  32.000  11.472
36533W        W 8958  41.347  35.594  13.813
36534W        W 8959  18.052   1.846   4.345
36535W        W 8960  20.067  43.909   1.754
36536W        W 8961  32.503  29.639   2.259
36537W        W 8962  30.420  18.686  11.884
36538W        W 8963  37.928  23.220   4.817
36539W        W 8964  14.753  34.016  11.981
36540W        W 8965  39.349  27.661   1.882
36541W        W 8966  16.679  14.178  14.396
36542W        W 8967   1.841   4.756  13.812
36543W        W 8968   3.431  35.966   3.861
36544W        W 8969   6.402  15.654   1.214
36545W        W 8970  10.805  23.714  10.908
36546W        W 8971  18.243  42.374  14.361
36547W        W 8972   1.387  15.667   3.658
36548W        W 8973  24.111  44.427  13.970
36549W        W 8974  11.261   6.698  11.608
36550W        W 8975  29.154  16.312   1.742
36551W        W 8976   9.172   8.862  10.535
36552W        W 8977  17.156  41.900  10.626
36553W        W 8978   7.777  33.013   3.632
36554W        W 8979  23.559  18.214   4.218
36555W        W 8980  37.970  12.157  11.507
36556W        W 8981  38.990   2.927  11.022
36557W        W 8982   8.172  40.991  11.507
36558W        W 8983   4.310  10.632  12.842
36559W        W 8984  31.553  11.199   0.902
36560W        W 8985  22.674  31.638   1.741
36561W        W 8986  12.818   3.769  14.959
36562W        W 8987   9.861   4.719   3.847
36563W        W 8988   2.300   1.336   2.239
36564W        W 8989   8.325  15.191  11.118
36565W        W 8990  29.019  30.645  12.855
36566W        W 8991  28.003  44.329  13.542
36567W        W 8992  17.242  18.133  10.412
36568W        W 8993  16.225   8.329  14.453
36569W        W 8994  22.743  28.539   2.745
36570W        W 8995  30.481   2.899  13.964
36571W        W 8996  29.137  23.995   0.784
36572W        W 8997   9.665  19.663  14.388
36573W        W 8998  14.119  31.930   0.937
36574W        W 8999   9.798   4.893   0.320
36575W        W 9000  11.791  39.330   1.923
36576W        W 9001   9.773   3.281   3.157
36577W        W 9002   4.244  44.439   4.215
36578W        W 9003  11.814  33.444  14.893
36579W        W 9004  39.381  16.777   2.813
36580W        W 9005  34.984  38.515  13.873
36581W        W 9006  41.947  42.315   0.795
36582W        W 9007   0.297  28.058   2.692
36583W        W 9008  35.094  37.952   3.230
36584W        W 9009   5.388  14.144   1.393
36585W        W 9010  36.582  14.313   0.922
36586W        W 9011  12.144  33.049  13.898
36587W        W 9012  32.903   0.256   3.355
36588W        W 9013  43.893  13.206   0.903
36589W        W 9014  18.558  18.593  12.547
36590W        W 9015  38.840  29.925   2.853
36591W        W 9016  21.039  39.047  12.881
36592W        W 9017  38.375  22.215   3.644
36593W        W 9018  33.430  20.157  14.311
36594W        W 9019  29.497   9.766  12.014
36595W        W 9020  36.404  25.005   9.986
36596W        W 9021  37.874  23.092  11.862
36597W        W 9022   9.294  38.931  11.984
36598W        W 9023  32.093  25.703   4.801
36599W        W 9024  17.172   4.246   9.971
36600W        W 9025  29.607  11.341   0.754
36601W        W 9026  41.525   2.272   2.378
36602W        W 9027   5.215  26.002  12.495
36603W        W 9028   9.201   3.905   3.867
36604W        W 9029   3.375  32.040   2.261
36605W        W 9030  16.225   2.330   4.300
36606W        W 9031  19.238  24.640  10.492
36607W        W 9032  28.637   5.316  10.614
36608W        W 9033   9.316   1.299   2.754
36609W        W 9034   6.305  17.632  12.917
36610W        W 9035   9.812  28.640  12.515
36611W        W 9036   8.772  43.853  13.034
36612W        W 9037  36.492   5.806  14.307
36613W        W 9038  29.995   0.802   2.388
36614W        W 9039   1.242  28.183   1.395
36615W        W 9040  33.107  11.267   2.397
36616W        W 9041  44.330   3.232  14.497
36617W        W 9042   6.826   2.378   4.194
36618W        W 9043  12.841  35.104   2.901
36619W        W 9044   5.746  28.601  14.806
36620W        W 9045   4.330  14.186   0.288
36621W        W 9046  24.608   7.270   3.164
36622W        W 9047  39.523  43.493   4.828
36623W        W 9048  34.593  17.200   1.237
36624W        W 9049  37.876   1.966  12.922
36625W        W 9050  36.392  30.017   0.481
36626W        W 9051  41.907  34.414  10.160
36627W        W 9052  18.286  22.234  10.503
36628W        W 9053   6.766  30.612   3.191
36629W        W 9054  13.653   2.768   2.810
36630W        W 9055  15.293  23.181  11.866
36631W        W 9056  21.605  44.857  12.534
36632W        W 9057  18.194  43.289   3.703
36633W        W 9058  33.624  11.665  12.341
36634W        W 9059  16.155  27.005  13.930
36635W        W 9060  31.012  18.615   3.669
36636W        W 9061  25.681  10.657  10.642
36637W        W 9062  28.653   0.906   4.231
36638W        W 9063  42.006  10.256  13.949
36639W        W 9064  35.421  17.113  14.896
36640W        W 9065  25.118  24.536  14.277
36641W        W 9066  44.754   4.837  10.059
36642W        W 9067  13.734   0.254   9.952
36643W        W 9068  38.051  25.201  11.886
36644W        W 9069  25.997  33.069   1.286
36645W        W 9070  15.581  44.776  10.604
36646W        W 9071  32.392   5.309  12.000
36647W        W 9072  38.498  30.549   2.848
36648W        W 9073  37.873   0.814  10.980
36649W        W 9074  26.075  17.130  10.443
36650W        W 9075   0.464  12.636  11.082
36651W        W 9076  40.915  24.979  11.926
36652W        W 9077   4.315  34.957  11.949
36653W        W 9078  20.605  32.462  13.027
36654W        W 9079  44.297  14.258   5.161
36655W        W 9080  32.930  43.402   4.183
36656W        W 9081   4.911  37.357   1.913
36657W        W 9082  23.097  41.038   2.726
36658W        W 9083  40.423   9.755  11.547
36659W        W 9084  26.195   5.727  10.902
36660W        W 9085   1.299  37.560  10.517
36661W        W 9086  18.294  10.283  12.443
36662W        W 9087   0.490   0.760   3.853
36663W        W 9088  18.553   5.900  11.520
36664W        W 9089  30.908  44.854  11.399
36665W        W 9090   7.365  26.457   4.179
36666W        W 9091  18.761  39.337  14.405
36667W        W 9092  21.112  13.278   0.426
36668W        W 9093  11.235  33.945   0.774
36669W        W 9094  16.620  41.406   4.821
36670W        W 9095  31.126  41.867   2.370
36671W        W 9096   1.751  14.590   1.285
36672W        W 9097  37.347  37.406   3.192
36673W        W 9098  31.462   4.206   4.204
36674W        W 9099  11.233   6.868   0.815
36675W        W 9100   5.856  26.519   0.888
36676W        W 9101  41.962  44.868   3.146
36677W        W 9102  28.661  19.072   1.224
36678W        W 9103  31.472   2.227  14.871
36679W        W 9104   5.921   3.265  10.591
36680W        W 9105   5.903  10.349  12.871
36681W        W 9106   1.277   6.823  12.081
36682W        W 9107  39.059  24.007  13.543
36683W        W 9108   7.866  39.342   2.290
36684W        W 9109  31.465  12.652   2.191
36685W        W 9110  27.037  16.199  14.864
36686W        W 9111   9.753  17.700   2.883
36687W        W 9112  26.507  18.780   2.328
36688W        W 9113   7.229   4.325   3.208
36689W        W 9114  13.616  20.719  14.514
36690W        W 9115  35.494  39.323  13.360
36691W        W 9116  28.028  18.076   9.921
36692W        W 9117  42.511   1.322  12.504
36693W        W 9118  20.126  32.535   2.391
36694W        W 9119  24.180   6.362   3.842
36695W        W 9120  35.559  22.084   0.731
36696W        W 9121  40.457  13.107   0.739
36697W        W 9122  25.670  27.057   3.655
36698W        W 9123  13.183  39.054  11.022
36699W        W 9124  20.136   9.237  11.501
36700W        W 9125  18.072  31.476  10.464
36701W        W 9126  36.871  20.091  12.962
36702W        W 9127   5.204  18.174  12.557
36703W        W 9128   0.977  27.511  11.579
36704W        W 9129   9.234  25.026  12.842
36705W        W 9130  35.546   8.789  11.092
36706W        W 9131  13.315  43.768  12.523
36707W        W 9132   4.933  26.078  13.975
36708W        W 9133  19.676  26.991   0.392
36709W        W 9134  40.935  27.022   0.293
36710W        W 9135  34.920   4.730  13.906
36711W        W 9136  24.005   8.713  11.857
36712W        W 9137   4.805  33.532   1.439
36713W        W 9138  25.556  41.011  11.459
36714W        W 9139  38.378  43.904  13.404
36715W        W 9140  42.451  20.204  12.476
36716W        W 9141   7.717  36.566   4.178
36717W        W 9142  31.904   5.690  12.519
36718W        W 9143  22.032  36.566  14.849
36719W        W 9144   3.854  23.209  11.888
36720W        W 9145  19.134  32.406   2.333
36721W        W 9146  43.020  19.556   1.417
36722W        W 9147  22.248   2.294   2.215
36723W        W 9148  30.919  33.405   1.280
36724W        W 9149   5.891  13.764  10.518
36725W        W 9150  44.985  39.448  12.419
36726W        W 9151  10.174   3.222   1.833
36727W        W 9152  19.687  35.064  11.025
36728W        W 9153  18.104   7.354   1.807
36729W        W 9154  33.044  37.579   4.218
36730W        W 9155  34.975  44.861   4.352
36731W        W 9156   2.939   0.492  12.340
36732W        W 9157  21.565   8.878   1.225
36733W        W 9158  28.674   6.377   1.785
36734W        W 9159  19.122  23.112   1.387
36735W        W 9160  11.628  37.426   5.231
36736W        W 9161  24.160   6.885   3.255
36737W        W 9162  33.527   9.224   0.943
36738W        W 9163  11.254  25.638  13.326
36739W        W 9164   3.219  18.701  12.953
36740W        W 9165  20.734  19.200   0.760
36741W        W 9166  22.214  40.362   1.284
36742W        W 9167   5.785  34.089   1.442
36743W        W 9168  41.842  14.316   1.748
36744W        W 9169  27.459  32.961   3.220
36745W        W 9170  29.170   9.359   1.338
36746W        W 9171  12.623  39.314   4.285
36747W        W 9172  11.167  37.575  12.508
36748W        W 9173  44.441  44.428  12.097
36749W        W 9174  40.421  15.777  13.918
36750W        W 9175  25.970  28.186   4.297
36751W        W 9176  36.872  12.320   4.261
36752W        W 9177  18.136   3.454   2.377
36753W        W 9178  22.650  33.581  13.420
36754W        W 9179  22.198  21.084   4.195
36755W        W 9180   0.908  34.062   5.193
36756W        W 9181  28.127  17.250  14.446
36757W        W 9182  23.723  20.560   0.351
36758W        W 9183   6.688  43.859  12.399
36759W        W 9184  34.392  25.479  13.325
36760W        W 9185  33.030  41.429   3.316
36761W        W 9186  38.061  12.183  14.893
36762W        W 9187  16.158  17.642  11.042
36763W        W 9188   8.717  25.014  10.531
36764W        W 9189  14.265   2.310  11.015
36765W        W 9190  26.618   2.313  13.034
36766W        W 9191  22.556  15.727  12.033
36767W        W 9192  27.477  35.572   1.833
36768W        W 9193   2.918  27.524   2.705
36769W        W 9194  36.057  29.987   4.272
36770W        W 9195  20.608  16.660   1.255
36771W        W 9196  28.156   6.252   0.954
36772W        W 9197  26.002  36.055  11.493
36773W        W 9198   0.840  28.057   2.330
36774W        W 9199  34.605  17.660   4.769
36775W        W 9200  35.459  31.967   3.759
36776W        W 9201   9.165  43.889  13.898
36777W        W 9202  29.030   0.411  10.588
36778W        W 9203  32.519  39.042   4.266
36779W        W 9204  25.580  36.026  10.455
36780W        W 9205  23.542   8.194   0.896
36781W        W 9206  25.016   6.420  10.554
36782W        W 9207  37.948   2.293   4.272
36783W        W 9208  41.998  11.733  13.385
36784W        W 9209  24.177  22.126   0.274
36785W        W 9210  15.169  32.570   0.800
36786W        W 9211  33.569  44.817  11.514
36787W        W 9212   5.716  30.498   3.667
36788W        W 9213  42.919  17.566  10.935
36789W        W 9214  26.512  18.164  12.877
36790W        W 9215  35.384  10.717   1.248
36791W        W 9216  31.097  42.467  12.484
36792W        W 9217  21.106  21.119  10.995
36793W        W 9218   9.340  23.005   4.258
36794W        W 9219  23.687  37.880  11.959
36795W        W 9220  41.840  32.619  10.944
36796W        W 9221  17.086  13.126  12.888
36797W        W 9222   2.813  26.672   0.735
36798W        W 9223  29.175  26.604  12.503
36799W        W 9224  35.972  24.205   2.325
36800W        W 9225  29.445  25.162   2.228
36801W        W 9226  10.304   9.872  14.487
36802W        W 9227   2.913   1.941   0.814
36803W        W 9228  31.127  43.940   1.448
36804W        W 9229  41.469   9.761   4.643
36805W        W 9230  43.946  10.745   0.334
36806W        W 9231   2.259  19.760   9.960
36807W        W 9232  44.282   8.751   4.218
36808W        W 9233  18.741  22.178   0.474
36809W        W 9234  35.979   4.713   3.739
36810W        W 9235  33.478  33.435   2.722
36811W        W 9236  30.476   8.847  10.418
36812W        W 9237   8.822  31.971  12.498
36813W        W 9238  36.437   0.892   9.923
36814W        W 9239  20.155  42.444   4.817
36815W        W 9240  21.582  30.469  13.823
36816W        W 9241  43.325  13.347   0.930
36817W        W 9242  23.634  44.468  12.342
36818W        W 9243  32.488  41.462   4.773
36819W        W 9244  39.353  42.328   2.899
36820W        W 9245  30.025   5.705  10.565
36821W        W 9246   2.932  44.369   2.834
36822W        W 9247  40.832  23.025   0.903
36823W        W 9248  44.774   0.850   1.788
36824W        W 9249  32.138  24.555  11.926
36825W        W 9250  15.738  38.459  11.927
36826W        W 9251  38.062  22.168   4.670
36827W        W 9252   4.789   4.885  13.026
36828W        W 9253  19.777   2.886   4.680
36829W        W 9254  12.212  40.380  10.476
36830W        W 9255  32.410  38.058   4.677
36831W        W 9256  44.409  29.497   2.670
36832W        W 9257  21.520  21.056   1.279
36833W        W 9258  34.074  29.582   1.350
36834W        W 9259  35.526  39.976  11.383
36835W        W 9260   8.665  31.096   1.930
36836W        W 9261  40.992   5.738  13.967
36837W        W 9262  23.552  15.274  14.831
36838W        W 9263  16.799  27.089  14.769
36839W        W 9264   4.912   2.264  12.865
36840W        W 9265  44.813  18.189   3.738
36841W        W 9266   7.894  32.892   1.308
36842W        W 9267  17.758   5.882   2.322
36843W        W 9268   0.743  32.130  13.815
36844W        W 9269  43.425  23.570  12.944
36845W        W 9270  39.998  26.527   3.696
36846W        W 9271  30.545   0.412  12.977
36847W        W 9272  19.564  31.493   3.830
36848W        W 9273  12.740   7.757   3.719
36849W        W 9274   0.752  17.674   4.760
36850W        W 9275  32.953  13.843  12.065
36851W        W 9276   8.395  43.004  14.444
36852W        W 9277  29.137   5.735  12.510
36853W        W 9278  31.617  35.052  13.965
36854W        W 9279  39.997  22.545  13.459
36855W        W 9280  22.138  31.595   4.337
36856W        W 9281  36.938   2.908   2.351
36857W        W 9282  36.435   4.908   3.192
36858W        W 9283   7.328  26.157   1.414
36859W        W 9284  37.997  30.038  11.993
36860W        W 9285  34.523  23.529   2.900
36861W        W 9286  10.692  32.632   2.333
36862W        W 9287  41.019  38.538   4.258
36863W        W 9288   6.726  37.851  13.314
36864W        W 9289  34.481   2.326   4.313
36865W        W 9290  13.752  42.372  12.842
36866W        W 9291  33.586  16.256  11.382
36867W        W 9292   7.836  22.209  12.087
36868W        W 9293   3.855  19.700   4.174
36869W        W 9294  43.873  18.547   1.315
36870W        W 9295  33.025   3.785   2.261
36871W        W 9296  39.821  18.050   4.258
36872W        W 9297  12.248   1.341  13.967
36873W        W 9298  19.203   3.320  14.326
36874W        W 9299  23.205  21.181   0.778
36875W        W 9300  22.645  12.252   3.173
36876W        W 9301  33.501   8.665   1.433
36877W        W 9302  36.948  36.410  14.858
36878W        W 9303  31.017  31.916   4.672
36879W        W 9304  44.398  13.341  12.883
36880W        W 9305  13.618  29.536  13.911
36881W        W 9306  42.866   3.903   1.237
36882W        W 9307  27.630  18.268  13.020
36883W        W 9308  18.166  29.037   1.432
36884W        W 9309   0.971  33.549   5.775
36885W        W 9310  14.137  29.461  12.077
36886W        W 9311  23.525  33.608  11.068
36887W        W 9312  20.101  36.054   3.792
36888W        W 9313  38.379  11.741  14.316
36889W        W 9314  43.847  26.065  11.538
36890W        W 9315  27.516  20.746  11.613
36891W        W 9316  44.757  35.017  10.512
36892W        W 9317   2.871  16.632   4.809
36893W        W 9318  37.362   8.756  11.091
36894W        W 9319   5.203  33.064   1.818
36895W        W 9320  40.428  34.576   2.225
36896W        W 9321  43.864  20.176   3.310
36897W        W 9322  27.471  10.330   3.631
36898W        W 9323   7.705  25.017  12.545
36899W        W 9324  16.806   0.343   4.658
36900W        W 9325   7.260  44.393  12.526
36901W        W 9326  44.880   6.878   2.856
36902W        W 9327   5.382  36.458   1.757
36903W        W 9328  10.655   4.927  14.856
36904W        W 9329   7.187  34.406   1.414
36905W        W 9330  27.503   8.737  11.025
36906W        W 9331   8.853  29.597  12.082
36907W        W 9332  11.714  20.728   4.700
36908W        W 9333  38.912  24.229  11.986
36909W        W 9334  11.154  11.250  12.014
36910W        W 9335  32.012  40.323   3.845
36911W        W 9336  32.909  34.112  11.474
36912W        W 9337  29.597  17.699   1.856
36913W        W 9338   6.250   0.370   1.886
36914W        W 9339  14.753   6.369   4.254
36915W        W 9340  13.667   7.324  12.011
36916W        W 9341  22.101  32.941   0.361
36917W        W 9342  25.682  29.945  13.919
36918W        W 9343   5.751  15.722  10.931
36919W        W 9344  36.023  32.925  10.600
36920W        W 9345  27.027   7.241   2.306
36921W        W 9346  38.832  18.678  14.377
36922W        W 9347   5.920  30.980  10.593
36923W        W 9348  34.472  33.971   0.802
36924W        W 9349  31.601  10.793  11.041
36925W        W 9350  25.681  28.070  13.490
36926W        W 9351  24.670   4.744   2.733
36927W        W 9352  11.693  25.563   0.335
36928W        W 9353  21.225  27.641  11.543
36929W        W 9354  30.613  31.457   4.723
36930W        W 9355  16.166  10.168  14.303
36931W        W 9356   1.455  35.470   3.373
36932W        W 9357  12.259   2.407   4.748
36933W        W 9358  20.160  12.330   3.842
36934W        W 9359   8.845  13.825  12.457
36935W        W 9360  29.511  39.454  14.280
36936W        W 9361  28.087  30.453   4.718
36937W        W 9362  30.038  30.008   3.741
36938W        W 9363  17.201  26.086   2.417
36939W        W 9364  28.133  44.889   2.730
36940W        W 9365  23.692   6.892  14.338
36941W        W 9366  17.673   7.747   0.793
36942W        W 9367  13.637   3.865   1.380
36943W        W 9368  29.152   0.901   3.177
36944W        W 9369  42.871  35.526   3.713
36945W        W 9370  17.798  18.195  12.416
36946W        W 9371   8.669  35.379  13.990
36947W        W 9372  16.645  37.352  13.951
36948W        W 9373  32.039  28.977  14.993
36949W        W 9374  16.243  28.463   4.330
36950W        W 9375  12.832  13.154  13.525
36951W        W 9376  14.306  17.654  12.006
36952W        W 9377   0.329  30.098  14.476
36953W        W 9378  42.837  28.462   3.363
36954W        W 9379   9.742  36.416   1.772
36955W        W 9380   4.321  30.451  13.471
36956W        W 9381  21.020  21.666  13.942
36957W        W 9382  27.611  31.998   9.958
36958W        W 9383  35.090   6.734  13.461
36959W        W 9384  18.699  20.750  14.494
36960W        W 9385  33.522  27.562  12.483
36961W        W 9386  29.154  16.182  13.993
36962W        W 9387   9.349   2.249  11.080
36963W        W 9388  22.575  12.810   0.739
36964W        W 9389  32.604  23.121  10.902
36965W        W 9390  33.420  39.022   3.822
36966W        W 9391  41.306  17.263   2.306
36967W        W 9392  42.913  22.131  10.042
36968W        W 9393  20.133  11.741   0.886
36969W        W 9394  34.106  16.592   3.315
36970W        W 9395   2.375  15.591   1.213
36971W        W 9396  20.706  34.395   2.890
36972W        W 9397  41.001  14.824  11.042
36973W        W 9398  29.432  22.628   4.679
36974W        W 9399  27.074  18.692   4.815
36975W        W 9400  32.554  31.583   4.824
36976W        W 9401  17.295  15.661   0.384
36977W        W 9402  39.432  17.595  13.001
36978W        W 9403  34.411  32.585   4.808
36979W        W 9404   2.800  32.432   3.677
36980W        W 9405  17.650   2.721  13.892
36981W        W 9406  40.504  19.051  11.031
36982W        W 9407  21.524   9.363  13.029
36983W        W 9408   1.252  23.693  14.339
36984W        W 9409  13.177  12.202  11.458
36985W        W 9410  32.462  35.920  11.062
36986W        W 9411  31.501  23.615  11.051
36987W        W 9412  42.861  13.320  14.994
36988W        W 9413  20.046  22.642  11.079
36989W        W 9414  25.200  22.704  10.471
36990W        W 9415  14.170  30.993   3.305
36991W        W 9416  33.580   6.745   3.643
36992W        W 9417   6.358  38.858  13.447
36993W        W 9418  10.322  36.935  14.336
36994W        W 9419  17.140  44.468  13.484
36995W        W 9420  18.063  28.511  14.351
36996W        W 9421  36.844  31.123  12.879
36997W        W 9422  34.467  11.648   3.821
36998W        W 9423  32.630  27.515  10.597
36999W        W 9424  33.964  24.053  14.869
37000W        W 9425  29.449  22.731   2.273
37001W        W 9426  17.795  39.877   4.308
37002W        W 9427   2.880   2.420   4.178
37003W        W 9428   4.218   2.721  14.476
37004W        W 9429  13.145  12.706  10.136
37005W        W 9430  43.299  11.253  14.899
37006W        W 9431   0.883  37.053   2.314
37007W        W 9432  14.795  32.597   0.297
37008W        W 9433   2.315  21.043   9.992
37009W        W 9434  17.105  17.772   3.231
37010W        W 9435  44.262  33.442  12.436
37011W        W 9436  43.417   2.914   2.873
37012W        W 9437  15.648  28.128  10.416
37013W        W 9438  43.329  10.659  12.445
37014W        W 9439  22.010  28.091  12.869
37015W        W 9440  25.985  39.822  14.769
37016W        W 9441   9.346   2.953  14.969
37017W        W 9442  38.418  33.500   4.684
37018W        W 9443   9.737  32.936  11.085
37019W        W 9444  42.338  38.347   4.723
37020W        W 9445  28.987  15.768   3.355
37021W        W 9446  31.135  18.255   1.798
37022W        W 9447  40.044  19.088   2.247
37023W        W 9448   4.311  28.986   4.728
37024W        W 9449  28.654  34.537  14.475
37025W        W 9450  39.365   7.388  12.375
37026W        W 9451  20.060   9.747  11.574
37027W        W 9452  22.071  12.199  10.088
37028W        W 9453  23.208  32.007  12.886
37029W        W 9454  39.507  40.938   1.769
37030W        W 9455  21.068   7.679   0.289
37031W        W 9456  10.329  17.604  13.821
37032W        W 9457  18.581  12.634   1.854
37033W        W 9458  40.968  13.745   0.780
37034W        W 9459  16.665  42.984  10.466
37035W        W 9460  25.097  35.543  14.487
37036W        W 9461  12.271   7.681   2.380
37037W        W 9462  12.813  17.136  12.509
37038W        W 9463  15.265   9.342   4.833
37039W        W 9464  29.071  14.141  14.472
37040W        W 9465  22.251   8.345  12.942
37041W        W 9466  41.330  13.193   2.291
37042W        W 9467  23.150  15.664   2.377
37043W        W 9468  36.428  17.613   3.692
37044W        W 9469  21.731  10.242   1.431
37045W        W 9470  20.053  12.813  11.604
37046W        W 9471   0.885   1.312   4.212
37047W        W 9472  16.211  25.563   4.684
37048W        W 9473  37.848  22.218   1.265
37049W        W 9474  23.072  22.191  11.542
37050W        W 9475   2.886  15.304   1.240
37051W        W 9476  16.606  25.680  12.452
37052W        W 9477  44.302  22.582  14.878
37053W        W 9478  12.311  32.494   4.638
37054W        W 9479  20.209  24.571   3.327
37055W        W 9480  32.609  15.300  14.964
37056W        W 9481  35.532  22.223  13.341
37057W        W 9482   0.881  14.293   4.287
37058W        W 9483  29.627   4.292   4.629
37059W        W 9484  30.138  11.139   3.150
37060W        W 9485  34.939  25.541   1.274
37061W        W 9486  43.935  27.535   1.878
37062W        W 9487   6.762  13.774  13.050
37063W        W 9488   4.915  44.991   2.746
37064W        W 9489  26.044  36.431   0.475
37065W        W 9490  37.465  18.752  13.528
37066W        W 9491   5.699   5.429   4.814
37067W        W 9492   9.683   8.755   3.311
37068W        W 9493  23.599  14.833  11.990
37069W        W 9494  11.823  14.122   2.404
37070W        W 9495  17.792  26.176  13.886
37071W        W 9496  23.506  43.941   4.157
37072W        W 9497  35.019  18.771   1.723
37073W        W 9498  10.632   7.822   2.727
37074W        W 9499  23.734  44.971  10.578
37075W        W 9500  42.309  26.200  13.996
37076W        W 9501  16.722  15.163   3.172
37077W        W 9502  19.719  27.120   2.687
37078W        W 9503  31.123  26.161  10.889
37079W        W 9504  19.711  36.921   4.676
37080W        W 9505  36.508  31.505  10.426
37081W        W 9506  17.112   1.291   0.731
37082W        W 9507  13.704   4.828   9.531
37083W        W 9508  36.446  16.659   1.222
37084W        W 9509  36.472  31.082   4.300
37085W        W 9510   6.845  24.605   2.253
37086W        W 9511   2.366   4.386  11.431
37087W        W 9512  22.641  11.324   3.644
37088W        W 9513  15.681  34.992   2.857
37089W        W 9514  14.325   4.851  10.422
37090W        W 9515  14.805  44.869   3.675
37091W        W 9516  21.758  43.293  14.282
37092W        W 9517  25.650  12.630  14.917
37093W        W 9518  35.014  24.058   0.777
37094W        W 9519  12.255  40.039  14.961
37095W        W 9520  39.321  34.996   4.308
37096W        W 9521  15.596  40.505   2.770
37097W        W 9522  15.676  26.480   4.212
37098W        W 9523   8.308  36.926   4.784
37099W        W 9524  42.428  31.982  13.395
37100W        W 9525  24.104  11.233  14.800
37101W        W 9526   4.797  41.412   2.902
37102W        W 9527  44.463   1.933  10.476
37103W        W 9528   9.710  29.969   3.687
37104W        W 9529   5.721   2.258   0.943
37105W        W 9530  38.962  27.602   4.828
37106W        W 9531  43.501   8.210  14.377
37107W        W 9532  31.964   3.745   4.166
37108W        W 9533  41.005  39.978  11.538
37109W        W 9534  31.914   1.406  13.001
37110W        W 9535  42.503   5.886   0.397
37111W        W 9536  14.724  12.675   1.737
37112W        W 9537  43.379  43.490   4.643
37113W        W 9538   3.423   3.378  10.584
37114W        W 9539   6.242  24.530  11.862
37115W        W 9540  37.451  28.670   3.191
37116W        W 9541  29.006  13.683  10.547
37117W        W 9542  40.408  28.500  11.108
37118W        W 9543  12.636  15.678   3.831
37119W        W 9544   5.808  10.319   1.881
37120W        W 9545   1.835  16.763   3.738
37121W        W 9546  33.045  42.324  10.966
37122W        W 9547   4.441  33.617   3.169
37123W        W 9548  25.004  26.059  13.464
37124W        W 9549  34.413  15.247  11.594
37125W        W 9550  13.621   8.292   2.673
37126W        W 9551  12.229  12.766   3.790
37127W        W 9552   3.259  32.937  11.009
37128W        W 9553  36.867  19.082   2.179
37129W        W 9554  12.350  24.087   9.939
37130W        W 9555  24.666  16.113  15.000
37131W        W 9556  39.026  13.667  14.389
37132W        W 9557  14.742  44.929  12.926
37133W        W 9558  42.815  26.997  12.434
37134W        W 9559  15.824  43.873   2.763
37135W        W 9560  42.885  33.441  10.964
37136W        W 9561  29.462   1.336   2.899
37137W        W 9562  30.628  18.240  12.908
37138W        W 9563  12.167  19.540  14.352
37139W        W 9564  12.248  41.927   3.368
37140W        W 9565  10.730   2.342   1.309
37141W        W 9566   0.347  14.261   3.217
37142W        W 9567  18.747  28.510   3.356
37143W        W 9568  44.454   4.379   4.794
37144W        W 9569  33.985  35.986   3.870
37145W        W 9570   9.679  11.647  13.027
37146W        W 9571  11.663  12.747  13.816
37147W        W 9572  29.670  29.612   2.404
37148W        W 9573  17.225  37.365  13.036
37149W        W 9574  29.985  38.411  13.041
37150W        W 9575   8.849  41.912  13.818
37151W        W 9576   9.333   3.238   0.905
37152W        W 9577  38.890  17.767   4.725
37153W        W 9578  37.925   2.931  13.496
37154W        W 9579  15.808  21.126   2.376
37155W        W 9580  32.572   5.786   4.739
37156W        W 9581  31.629  15.603   4.765
37157W        W 9582  19.551  25.695  12.021
37158W        W 9583  36.438   2.278  14.411
37159W        W 9584  40.343   3.267  12.414
37160W        W 9585  36.069  42.795  13.521
37161W        W 9586  13.240  38.991   2.191
37162W        W 9587   4.728  10.266  13.468
37163W        W 9588   6.775   8.777  14.822
37164W        W 9589  22.564   4.234   3.641
37165W        W 9590  26.643  20.069   0.333
37166W        W 9591  36.957   9.177   1.314
37167W        W 9592  14.296  42.978   1.770
37168W        W 9593   0.814  34.413  14.331
37169W        W 9594  21.544   9.245  13.921
37170W        W 9595  42.309  41.521  11.993
37171W        W 9596  36.960  32.098  10.912
37172W        W 9597  40.439  33.437   0.353
37173W        W 9598  39.435   0.465   0.799
37174W        W 9599  41.505   7.219   1.291
37175W        W 9600  17.662  14.647  10.502
37176W        W 9601   2.953  25.089  14.452
37177W        W 9602  23.077   5.770   1.838
37178W        W 9603  37.968  39.859   0.292
37179W        W 9604  17.759  27.079   1.874
37180W        W 9605  39.933   8.882   4.125
37181W        W 9606  19.613  34.970  11.934
37182W        W 9607  28.615   9.699  10.549
37183W        W 9608  28.966  28.023  10.482
37184W        W 9609  16.255   9.745  11.446
37185W        W 9610  11.682  33.383   0.832
37186W        W 9611   7.687  33.881   4.350
37187W        W 9612   4.868  35.084   5.172
37188W        W 9613  20.211  24.095   3.241
37189W        W 9614   5.434   9.721   0.383
37190W        W 9615  28.492  32.104   2.312
37191W        W 9616  40.518  12.219   2.397
37192W        W 9617  25.160  39.989   2.206
37193W        W 9618  23.577  38.359  11.453
37194W        W 9619  37.023  33.533  12.832
37195W        W 9620   9.305  41.450   1.433
37196W        W 9621  16.677  38.525  10.490
37197W        W 9622  13.844  42.313  10.925
37198W        W 9623  25.171  10.302   4.295
37199W        W 9624  23.660  15.644  14.449
37200W        W 9625  33.619  30.534  11.940
37201W        W 9626   1.854  39.550  11.010
37202W        W 9627  24.030  35.913   1.716
37203W        W 9628  27.127  37.500   9.976
37204W        W 9629  16.698  39.320  10.560
37205W        W 9630  14.323  25.129   3.698
37206W        W 9631  34.553  31.110  10.615
37207W        W 9632  17.679  39.556   0.899
37208W        W 9633  29.626  27.673   1.304
37209W        W 9634  13.194   2.244   3.805
37210W        W 9635  16.226  13.204  12.452
37211W        W 9636  12.333  19.182   2.369
37212W        W 9637  40.407  39.323  13.392
37213W        W 9638  32.907  33.098   2.716
37214W        W 9639  19.767  17.097   2.833
37215W        W 9640  43.896  24.059   1.374
37216W        W 9641  10.348  40.322   3.862
37217W        W 9642  24.097  35.492  14.853
37218W        W 9643  22.512  34.004   1.822
37219W        W 9644  38.416   6.869   0.951
37220W        W 9645   8.757  32.612  13.459
37221W        W 9646  39.445   8.383  14.973
37222W        W 9647  23.137  13.775  12.938
37223W        W 9648  33.984   3.416   1.224
37224W        W 9649   1.454  26.980   3.185
37225W        W 9650  18.604  15.271   2.794
37226W        W 9651  37.532   8.367  12.025
37227W        W 9652  29.603  14.233   4.686
37228W        W 9653  24.017   6.835  14.885
37229W        W 9654  16.121  44.783   0.374
37230W        W 9655  14.684  40.393  10.586
37231W        W 9656   8.852  35.939  13.343
37232W        W 9657   7.684  31.524   1.831
37233W        W 9658  31.089   2.848   2.242
37234W        W 9659   1.862  16.584   3.340
37235W        W 9660  11.187   9.170  11.608
37236W        W 9661  11.779  24.685  11.558
37237W        W 9662  12.756  22.079  12.414
37238W        W 9663  30.155   1.358   2.838
37239W        W 9664  32.106   3.411  11.952
37240W        W 9665  28.487  44.010  13.809
37241W        W 9666  22.028  38.463   4.259
37242W        W 9667  37.500   3.888  13.319
37243W        W 9668  32.592  37.028   3.646
37244W        W 9669  12.680  34.032   3.162
37245W        W 9670   3.956  35.027  13.448
37246W        W 9671  32.405  28.056   3.318
37247W        W 9672  35.944   9.750  10.406
37248W        W 9673   8.161  36.912   1.210
37249W        W 9674  21.094   0.365   3.382
37250W        W 9675  18.115  24.156  12.487
37251W        W 9676  39.352  36.422   4.723
37252W        W 9677   1.902  14.335   2.897
37253W        W 9678  37.550  16.112   3.326
37254W        W 9679  23.613  21.517   2.262
37255W        W 9680  39.333   6.227  13.379
37256W        W 9681  28.181  35.523   0.833
37257W        W 9682  23.711  19.725  12.978
37258W        W 9683  19.086  26.689  12.508
37259W        W 9684  37.976  28.062   2.704
37260W        W 9685  28.641  43.928   0.917
37261W        W 9686  42.775  26.657  14.839
37262W        W 9687  35.409   2.760   3.832
37263W        W 9688  31.905  44.949  11.871
37264W        W 9689  35.427  11.140  14.770
37265W        W 9690  28.097  28.499   1.350
37266W        W 9691  35.082  41.814   0.455
37267W        W 9692  35.049  32.616  14.993
37268W        W 9693  14.716   8.667  14.986
37269W        W 9694   6.706  25.665  13.981
37270W        W 9695  30.044  20.646  13.447
37271W        W 9696  40.307  24.181  11.946
37272W        W 9697  40.970  21.647   2.285
37273W        W 9698  12.777  15.134  13.396
37274W        W 9699  29.970  28.034  11.988
37275W        W 9700   1.872  23.539   1.210
37276W        W 9701  29.026  23.652  11.915
37277W        W 9702  11.862  11.198   1.877
37278W        W 9703  37.085  42.458   1.301
37279W        W 9704  30.160  41.937   0.432
37280W        W 9705  38.839  25.980   3.211
37281W        W 9706  27.544  30.426  13.425
37282W        W 9707  42.777   1.961  11.476
37283W        W 9708  16.584  18.621  11.857
37284W        W 9709  12.807   1.944  12.428
37285W        W 9710  22.551   7.732   1.755
37286W        W 9711  35.906  39.518  10.597
37287W        W 9712  40.924   5.337  14.461
37288W        W 9713  17.286  26.166  10.968
37289W        W 9714  19.622  22.699  10.908
37290W        W 9715  31.435  15.224   0.918
37291W        W 9716  17.656  28.458   3.709
37292W        W 9717  41.321  23.027  12.514
37293W        W 9718   9.247   1.890  11.547
37294W        W 9719   4.758  32.498   4.725
37295W        W 9720  28.124  23.530   5.190
37296W        W 9721  13.282  35.987   1.322
37297W        W 9722  25.543   1.319  12.977
37298W        W 9723  16.762  39.857  10.594
37299W        W 9724  31.480  17.231   2.693
37300W        W 9725  30.015  30.083  14.848
37301W        W 9726  24.215  42.429   3.319
37302W        W 9727  15.157  34.062   1.345
37303W        W 9728  11.230  37.507   3.823
37304W        W 9729  22.181  42.973  12.431
37305W        W 9730  15.093  34.937   3.214
37306W        W 9731  33.467  15.600   9.997
37307W        W 9732  30.094   6.683  14.926
37308W        W 9733  19.701   5.376   2.220
37309W        W 9734  42.352  26.969   1.736
37310W        W 9735  19.552  10.660  11.478
37311W        W 9736  28.050   5.710   1.300
37312W        W 9737  34.481  22.061  11.035
37313W        W 9738   1.855  23.566   1.914
37314W        W 9739   2.385  31.559  13.950
37315W        W 9740  28.159  20.262   2.189
37316W        W 9741  41.892  39.338  13.352
37317W        W 9742   4.900  32.895  12.379
37318W        W 9743  22.589  41.860   4.650
37319W        W 9744  37.366  24.583   2.204
37320W        W 9745  18.153  28.555  13.024
37321W        W 9746  25.061   2.367  13.469
37322W        W 9747  14.189  14.754  12.342
37323W        W 9748  10.849  38.046   1.896
37324W        W 9749  25.053  16.811  10.589
37325W        W 9750  24.032  18.163   1.855
37326W        W 9751  31.647   2.348  12.457
37327W        W 9752  24.555  36.467   4.650
37328W        W 9753   4.335  21.080   1.306
37329W        W 9754  27.173  27.470  14.920
37330W        W 9755  27.097  33.417   3.317
37331W        W 9756  20.071  33.382   4.227
37332W        W 9757  30.075   1.427  14.494
37333W        W 9758  11.329  15.820  12.555
37334W        W 9759  12.824  33.516  13.313
37335W        W 9760  39.024   7.248   2.810
37336W        W 9761  28.947  26.969  13.974
37337W        W 9762  31.112   6.248  13.890
37338W        W 9763  14.685  21.720  14.967
37339W        W 9764  12.302  27.147  13.337
37340W        W 9765  15.705  23.212  10.982
37341W        W 9766   4.721  18.603  12.032
37342W        W 9767   5.433  25.599  11.078
37343W        W 9768  33.519   5.899  14.790
37344W        W 9769  37.491  25.656   1.292
37345W        W 9770  27.501  30.105   4.222
37346W        W 9771  26.592  41.494   1.425
37347W        W 9772  31.507  36.931   0.960
37348W        W 9773  27.091  17.137  13.480
37349W        W 9774   1.751  16.650  10.488
37350W        W 9775  18.681  12.764   3.327
37351W        W 9776  14.701  14.769  10.505
37352W        W 9777   5.245  39.942   1.375
37353W        W 9778  39.029  21.649   0.449
37354W        W 9779  34.071  18.577  12.068
37355W        W 9780  13.630   3.369  14.465
37356W        W 9781  38.027  30.053  14.331
37357W        W 9782  34.031  13.840   2.764
37358W        W 9783  36.031   3.845  14.464
37359W        W 9784  33.513  21.660   1.893
37360W        W 9785   4.227  24.076  12.462
37361W        W 9786   0.373   3.793  10.639
37362W        W 9787  43.922  27.474   2.785
37363W        W 9788  12.253  13.626  14.913
37364W        W 9789   9.781  44.780   2.864
37365W        W 9790  19.648  18.050  14.891
37366W        W 9791  18.612  10.827   0.442
37367W        W 9792   3.366  39.550  12.483
37368W        W 9793   5.209  30.540   1.822
37369W        W 9794   4.257  28.512   0.795
37370W        W 9795   5.239   0.255  11.093
37371W        W 9796  22.083  30.473   1.817
37372W        W 9797  13.272  19.223   0.749
37373W        W 9798  36.958  11.181  11.419
37374W        W 9799  42.794  31.412   2.866
37375W        W 9800  32.952  20.250   4.809
37376W        W 9801   5.213  34.556   4.324
37377W        W 9802  26.683  34.407   3.851
37378W        W 9803   9.752  15.762  12.895
37379W        W 9804  17.733  39.373   4.151
37380W        W 9805  35.559  20.174  11.928
37381W        W 9806  40.025  33.537  14.504
37382W        W 9807   9.673   8.166  14.405
37383W        W 9808  42.347  36.018   0.870
37384W        W 9809  12.322  33.897   2.273
37385W        W 9810  28.456  31.994   9.932
37386W        W 9811  31.489  31.026  13.946
37387W        W 9812  17.599  31.041   3.377
37388W        W 9813  29.955  17.647   3.869
37389W        W 9814  22.635  18.736  11.508
37390W        W 9815   7.866   0.879  10.944
37391W        W 9816  41.872  37.404   0.801
37392W        W 9817  22.625  28.605   1.342
37393W        W 9818   3.387   9.387   5.263
37394W        W 9819  23.154  14.327  12.479
37395W        W 9820  37.947  39.429  14.897
37396W        W 9821   9.726  17.198  12.451
37397W        W 9822  43.953  22.022  12.996
37398W        W 9823  14.835  40.874   2.738
37399W        W 9824  38.026   0.286  10.533
37400W        W 9825  37.871  39.048   1.708
37401W        W 9826   1.242  30.420  10.596
37402W        W 9827  24.196  30.657  10.054
37403W        W 9828  16.309  28.961   3.815
37404W        W 9829   7.688  13.248   3.378
37405W        W 9830  28.079  38.444   0.449
37406W        W 9831  27.051   6.892  11.466
37407W        W 9832  19.061  40.392   0.248
37408W        W 9833   1.820   4.220   0.384
37409W        W 9834  30.956  29.495   0.260
37410W        W 9835  26.575  24.645  13.435
37411W        W 9836  30.419  19.277   1.210
37412W        W 9837   7.728  10.776   0.425
37413W        W 9838  24.205  23.034   1.777
37414W        W 9839  23.198  10.382   1.817
37415W        W 9840  30.098  26.951  10.925
37416W        W 9841   2.383  37.877   1.848
37417W        W 9842  17.790  35.861   2.395
37418W        W 9843  36.002   4.210  13.323
37419W        W 9844  36.415  43.944  12.942
37420W        W 9845   7.695   4.933  10.433
37421W        W 9846   7.340  39.428   0.851
37422W        W 9847  32.447  10.207  11.447
37423W        W 9848  14.291  15.146  12.940
37424W        W 9849  44.005   3.367  12.057
37425W        W 9850  24.127  43.801  14.450
37426W        W 9851  15.085   2.878  14.012
37427W        W 9852  18.652  13.164  11.925
37428W        W 9853  31.573  27.940   4.168
37429W        W 9854   1.360  37.344  14.376
37430W        W 9855   4.860  41.310   4.354
37431W        W 9856  32.038   6.360   0.357
37432W        W 9857  42.979  29.053   1.775
37433W        W 9858  36.860  24.713   3.187
37434W        W 9859   7.698   8.262   4.827
37435W        W 9860   9.213  44.767   4.731
37436W        W 9861  14.602  41.388   0.742
37437W        W 9862  14.622  41.475  11.088
37438W        W 9863   3.781  17.743   3.785
37439W        W 9864   4.918  16.593  13.344
37440W        W 9865  26.125  10.370   1.749
37441W        W 9866  31.912  20.533   3.821
37442W        W 9867  39.879  10.876  14.509
37443W        W 9868  20.677  24.619   4.177
37444W        W 9869   5.924  40.896   0.888
37445W        W 9870  33.914  12.166  13.386
37446W        W 9871  25.018   0.471  10.584
37447W        W 9872  14.163  37.879  10.543
37448W        W 9873  16.239  19.721   4.314
37449W        W 9874  39.838  30.520   2.355
37450W        W 9875   8.802   1.800   1.297
37451W        W 9876  38.383   5.351   3.636
37452W        W 9877  20.072   8.785  10.515
37453W        W 9878  38.988  32.493   1.427
37454W        W 9879  38.403  16.707   3.715
37455W        W 9880  38.489  39.953  10.536
37456W        W 9881   6.701  34.978  12.978
37457W        W 9882   2.358  40.860   1.399
37458W        W 9883  30.992  10.829  11.486
37459W        W 9884  42.321  21.723  11.975
37460W        W 9885  28.476  38.539  14.290
37461W        W 9886  22.232  44.813  13.837
37462W        W 9887  20.700  41.418   4.651
37463W        W 9888  16.810  41.941  11.895
37464W        W 9889  14.697  41.989   3.838
37465W        W 9890  42.005  38.911   4.742
37466W        W 9891   7.836   0.479   1.880
37467W        W 9892   7.194  17.628  11.028
37468W        W 9893  19.642  15.626  11.127
37469W        W 9894  20.556  15.202   4.771
37470W        W 9895  43.954  22.628   0.464
37471W        W 9896  10.176  17.229  14.929
37472W        W 9897  12.830   4.438   5.784
37473W        W 9898  22.060  27.137   0.423
37474W        W 9899  28.486   6.308  10.637
37475W        W 9900  42.445  29.627   4.721
37476W        W 9901   3.833  33.522   3.297
37477W        W 9902  12.699  10.715   2.668
37478W        W 9903  30.047  13.663   4.644
37479W        W 9904  18.087  26.964   3.361
37480W        W 9905  42.015  40.958   0.393
37481W        W 9906  25.654  29.142  12.536
37482W        W 9907   3.371   0.867   2.781
37483W        W 9908  19.677  35.600  11.984
37484W        W 9909  33.601  34.510   1.367
37485W        W 9910  11.762   2.392  11.581
37486W        W 9911  34.957  33.927   1.724
37487W        W 9912   2.887  43.300  11.983
37488W        W 9913  39.029  10.809   0.901
37489W        W 9914  36.555  26.479   0.449
37490W        W 9915  20.123   1.331  12.400
37491W        W 9916  24.184  38.419   2.707
37492W        W 9917  37.032  25.699   0.475
37493W        W 9918  25.069   7.728  11.500
37494W        W 9919  41.966  40.316   0.743
37495W        W 9920  44.784   0.946   0.862
37496W        W 9921  22.579  40.447   9.987
37497W        W 9922  10.241  44.805  13.533
37498W        W 9923  39.965   5.727  12.401
37499W        W 9924  25.051  38.352   3.744
37500W        W 9925  37.048  16.678   2.373
37501W        W 9926  22.728  16.101   2.860
37502W        W 9927  43.903   5.738  10.563
37503W        W 9928  23.001   4.397   2.304
37504W        W 9929  27.539  39.419   0.841
37505W        W 9930  20.646  12.687  14.380
37506W        W 9931  22.232  12.687  10.958
37507W        W 9932  19.678  42.477  12.531
37508W        W 9933  27.449   9.379  13.914
37509W        W 9934  32.448  25.981   1.865
37510W        W 9935  33.439  39.903  10.033
37511W        W 9936  32.002  30.960   4.837
37512W        W 9937  24.620  32.014   5.170
37513W        W 9938  35.957  29.643  11.946
37514W        W 9939  31.922  33.910  13.839
37515W        W 9940  18.160   0.434  11.949
37516W        W 9941   5.789   0.749   4.801
37517W        W 9942   7.260   8.230  13.404
37518W        W 9943  28.528   0.295   2.679
37519W        W 9944  28.109   1.404  12.523
37520W        W 9945  36.517  28.510   4.166
37521W        W 9946  23.519  15.139   4.798
37522W        W 9947  18.752  30.077  13.446
37523W        W 9948   8.900  25.975  12.415
37524W        W 9949  22.675   8.207  12.356
37525W        W 9950   6.722  38.464   3.195
37526W        W 9951  31.458  26.506  11.965
37527W        W 9952  14.753  12.836   4.777
37528W        W 9953  26.636   7.354  14.973
37529W        W 9954  30.134  33.937   3.726
37530W        W 9955  27.679   8.262  14.327
37531W        W 9956  30.093   9.748  11.107
37532W        W 9957  20.621  22.167  14.891
37533W        W 9958  34.013   7.827   3.646
37534W        W 9959  24.565   9.693   3.843
37535W        W 9960  28.576   6.190  11.946
37536W        W 9961  34.990  27.479  10.529
37537W        W 9962  25.992  27.514  11.457
37538W        W 9963  14.247   2.826  13.486
37539W        W 9964  25.575   7.716   0.950
37540W        W 9965  33.607  36.488  10.473
37541W        W 9966   6.365  19.677   2.813
37542W        W 9967  16.691   7.374  14.372
37543W        W 9968  30.499  38.999  12.483
37544W        W 9969   2.365   6.397  14.829
37545W        W 9970  18.637  28.481  13.990
37546W        W 9971  16.214   7.710   3.323
37547W        W 9972  35.872  25.605  11.607
37548W        W 9973  18.733  20.125   4.259
37549W        W 9974  23.013  37.070  14.807
37550W        W 9975   7.186  32.094   0.321
37551W        W 9976   1.276  24.541  12.930
37552W        W 9977  42.994  40.826  11.092
37553W        W 9978  38.531  29.668   3.378
37554W        W 9979  36.526  31.644   4.183
37555W        W 9980   9.300  22.125   2.724
37556W        W 9981  18.096  37.495   1.294
37557W        W 9982  39.001  41.448  12.437
37558W        W 9983  28.094  18.771  12.994
37559W        W 9984  31.575  21.027   2.678
37560W        W 9985   0.775  14.705  14.469
37561W        W 9986  11.248   5.412  10.621
37562W        W 9987  42.897  42.914  12.444
37563W        W 9988   5.278  12.635   2.701
37564W        W 9989  41.805  11.247   4.353
37565W        W 9990  35.886  36.931   4.608
37566W        W 9991  37.046  17.081   4.624
37567W        W 9992  22.578   0.950  14.352
37568W        W 9993   3.917  32.899  12.887
37569W        W 9994  20.654  33.001   0.914
37570W        W 9995   1.380  30.014   3.363
37571W        W 9996  14.774   2.355   3.248
37572W        W 9997  20.094  36.971  14.363
37573W        W 9998  40.965  14.757  11.962
37574W        W 9999   5.910   5.806  14.844
37575W        W10000  26.162  21.669  11.586
37576W        W10001  29.641   2.918  14.355
37577W        W10002   3.406  37.948   2.704
37578W        W10003  10.291  34.480   4.753
37579W        W10004   5.711  26.659  13.317
37580W        W10005   5.906  33.613  11.976
37581W        W10006  33.025  24.642   0.878
37582W        W10007  19.654  36.547  11.598
37583W        W10008  42.926  29.138  11.559
37584W        W10009  28.532  16.086  14.471
37585W        W10010  40.349  12.789   3.203
37586W        W10011  30.547  34.380  13.030
37587W        W10012  28.118  23.112   1.249
37588W        W10013  43.963  21.192   0.251
37589W        W10014  23.642  28.591   3.265
37590W        W10015  28.171  39.823   4.734
37591W        W10016  21.041  25.015  14.496
37592W        W10017   2.913   6.908   1.354
37593W        W10018  38.359  19.761  14.436
37594W        W10019  38.943  40.038   3.851
37595W        W10020  16.246  41.929   1.377
37596W        W10021   3.330  24.145   2.194
37597W        W10022  23.682  38.359  10.962
37598W        W10023  18.134  14.322  11.964
37599W        W10024  19.715  19.604  14.817
37600W        W10025  11.266  37.084  12.523
37601W        W10026  37.548  38.933  12.476
37602W        W10027  15.314  25.101   5.216
37603W        W10028   4.311  28.130  11.520
37604W        W10029  40.810  17.145   3.158
37605W        W10030  11.812  27.609   1.418
37606W        W10031   2.377  41.386   2.688
37607W        W10032   1.762  43.370  13.868
37608W        W10033  33.876  22.089  13.328
37609W        W10034  41.393  21.668   1.275
37610W        W10035  35.098  33.515   3.722
37611W        W10036  42.838  38.016  14.310
37612W        W10037  21.064   3.829   4.191
37613W        W10038  20.637  36.091  12.067
37614W        W10039  22.700  18.073  13.435
37615W        W10040  42.950  32.443  12.348
37616W        W10041  23.058   7.398  14.006
37617W        W10042   2.905  20.530   2.726
37618W        W10043   8.199  39.899   0.926
37619W        W10044  30.112   2.734  11.530
37620W        W10045  38.980   5.776   4.813
37621W        W10046  19.120  35.063   1.349
37622W        W10047  24.143  20.567   0.932
37623W        W10048  24.611  29.110  11.936
37624W        W10049  22.580  35.916  14.905
37625W        W10050   1.467  34.369   3.203
37626W        W10051   6.341  34.380   1.780
37627W        W10052  43.477   7.381  12.968
37628W        W10053  11.654  20.260  12.553
37629W        W10054  27.603  43.018   3.772
37630W        W10055  44.393  17.148  10.543
37631W        W10056  29.034  34.478  12.923
37632W        W10057   7.236  16.748  14.296
37633W        W10058  26.159   1.349  14.776
37634W        W10059  31.569   5.724   2.179
37635W        W10060  36.975  23.105   0.299
37636W        W10061   2.830  36.571  13.841
37637W        W10062  29.986  11.636  13.028
37638W        W10063  13.689   5.793  12.508
37639W        W10064  31.642  11.311  14.930
37640W        W10065  42.001  29.930  13.344
37641W        W10066  32.428  18.776  11.582
37642W        W10067  43.314  14.667  10.417
37643W        W10068  19.614  28.610  12.981
37644W        W10069   5.732  19.272  11.957
37645W        W10070  42.445  42.876   1.765
37646W        W10071   2.949  15.814  11.413
37647W        W10072   1.838  29.026  11.387
37648W        W10073  42.029  30.005   2.882
37649W        W10074   8.786  31.051  13.322
37650W        W10075  10.173   0.838   4.139
37651W        W10076  30.508  20.036   4.713
37652W        W10077  39.420  43.410  13.856
37653W        W10078   2.331  27.665   3.697
37654W        W10079  28.461  22.515   4.255
37655W        W10080  41.293  36.536   3.277
37656W        W10081  11.367   0.808   1.344
37657W        W10082   7.391  36.377   2.301
37658W        W10083   4.267  14.226  11.561
37659W        W10084  12.268   8.210   0.463
37660W        W10085  22.200  22.602  12.873
37661W        W10086  12.213  33.568   4.140
37662W        W10087  31.511  10.726   2.405
37663W        W10088  42.876  11.746   4.206
37664W        W10089  19.166  27.959   4.820
37665W        W10090   6.372  20.240   1.393
37666W        W10091  14.590  33.552   1.354
37667W        W10092  10.678  30.483  10.940
37668W        W10093  38.997  35.105   3.340
37669W        W10094  24.225  10.670  11.374
37670W        W10095  22.152   6.420   3.720
37671W        W10096   7.339  40.366  12.939
37672W        W10097  27.489   6.703  11.585
37673W        W10098  20.618  39.932  13.954
37674W        W10099   7.285  39.457   1.349
37675W        W10100  14.687  38.060  11.549
37676W        W10101  21.526  25.635  12.385
37677W        W10102  39.034   2.276  11.441
37678W        W10103   8.773   8.316  12.934
37679W        W10104  18.782  32.104   1.252
37680W        W10105   6.214  20.054  12.350
37681W        W10106  22.650   6.292   0.271
37682W        W10107  13.268   4.420  13.918
37683W        W10108  33.049  20.061   3.715
37684W        W10109  28.100  40.467  12.071
37685W        W10110  20.122  23.628   4.731
37686W        W10111   0.252  17.786  12.429
37687W        W10112   4.899  19.698  11.909
37688W        W10113  42.002  20.141   1.876
37689W        W10114  11.280  39.961  11.922
37690W        W10115  44.974  37.363   4.186
37691W        W10116  36.523  10.210   1.836
37692W        W10117   3.907  35.557  11.874
37693W        W10118  25.575  29.642  12.437
37694W        W10119  31.929  16.186   2.195
37695W        W10120   6.853  13.693   2.318
37696W        W10121  13.837  13.257  14.353
37697W        W10122  10.657  18.096   3.326
37698W        W10123  41.827  37.554  14.373
37699W        W10124  19.603  35.877   3.241
37700W        W10125  39.541  13.111  13.802
37701W        W10126  34.385   5.220   1.793
37702W        W10127   7.284  35.872  11.606
37703W        W10128  21.187  11.680   9.442
37704W        W10129  39.536   2.383  10.432
37705W        W10130  26.066  44.390  13.884
37706W        W10131  18.201  33.936   2.882
37707W        W10132  25.195   7.344   2.799
37708W        W10133  40.039   1.239  14.479
37709W        W10134  20.613  37.954   0.257
37710W        W10135   2.897  36.050  12.088
37711W        W10136  24.020  17.712   2.733
37712W        W10137  32.119   4.251   0.748
37713W        W10138  22.206  28.628  11.401
37714W        W10139  15.231  21.668   3.811
37715W        W10140  22.241   0.851   2.205
37716W        W10141  44.936   0.392   4.808
37717W        W10142   7.233  11.150  13.847
37718W        W10143   2.403  21.244   0.304
37719W        W10144  38.329  33.427   4.173
37720W        W10145  27.105   5.854   2.391
37721W        W10146  21.627   0.850  14.402
37722W        W10147   9.749  28.488  12.001
37723W        W10148  35.039  21.074  11.543
37724W        W10149  43.491  24.608  11.530
37725W        W10150  42.999  34.444   4.264
37726W        W10151   1.826  12.185   4.160
37727W        W10152  28.180  36.410  12.863
37728W        W10153  38.327   7.401  14.765
37729W        W10154   6.298  29.560   1.411
37730W        W10155   6.346  11.675   1.352
37731W        W10156   4.781  28.154  13.047
37732W        W10157  28.583  35.955  13.027
37733W        W10158  28.504  33.400  13.006
37734W        W10159  29.623   7.377   2.217
37735W        W10160   3.807  14.299  14.395
37736W        W10161   9.392  12.770   2.876
37737W        W10162   2.315  37.569  13.473
37738W        W10163   5.336  30.445   2.725
37739W        W10164  38.968  33.972   3.193
37740W        W10165  17.170  20.766  10.448
37741W        W10166  31.109  15.629  13.957
37742W        W10167  31.555   9.776  11.984
37743W        W10168  38.050  27.150   3.359
37744W        W10169  16.160  30.928  10.546
37745W        W10170  40.935  41.996  10.418
37746W        W10171  13.608  21.250  12.536
37747W        W10172  26.076  32.917   5.265
37748W        W10173  19.041  36.960  13.909
37749W        W10174  19.153   9.200   3.766
37750W        W10175  24.627   3.267   1.763
37751W        W10176  31.950  34.530   2.222
37752W        W10177  32.925   6.912   3.316
37753W        W10178  14.736  33.096  12.845
37754W        W10179  34.976  18.775   4.791
37755W        W10180   5.695  24.505  14.954
37756W        W10181  30.109   7.687   3.775
37757W        W10182   4.698   1.920  13.039
37758W        W10183  14.818  30.545   0.376
37759W        W10184  43.984  20.191  10.029
37760W        W10185  19.613  19.111   4.801
37761W        W10186  13.717  39.460   1.379
37762W        W10187  43.418   1.835  14.808
37763W        W10188  11.203  23.572   5.132
37764W        W10189  17.568  41.964   3.717
37765W        W10190  37.560  27.666   4.598
37766W        W10191   2.258  19.546   3.662
37767W        W10192   5.829  33.971  13.894
37768W        W10193  27.677  18.237  13.414
37769W        W10194  17.189  30.462   1.757
37770W        W10195  24.214  15.327  12.023
37771W        W10196  39.471  38.962  11.557
37772W        W10197  18.562  37.486  10.613
37773W        W10198   4.286  39.860  14.419
37774W        W10199  42.894  40.538   1.760
37775W        W10200   6.743  19.772  10.640
37776W        W10201   8.887  38.945  13.031
37777W        W10202   6.830  42.965  12.360
37778W        W10203  28.039  36.096  14.291
37779W        W10204  33.613  18.731  13.979
37780W        W10205  28.573   5.207  12.088
37781W        W10206  14.827  28.592  14.855
37782W        W10207   5.224   6.424  13.053
37783W        W10208  28.037  32.073   0.964
37784W        W10209  11.809  20.706  11.424
37785W        W10210  27.110  20.536  14.795
37786W        W10211  10.204   6.834  13.838
37787W        W10212  18.050   3.406  14.980
37788W        W10213  27.999  17.593   4.832
37789W        W10214  31.421   0.927   4.140
37790W        W10215  29.569  38.368   4.765
37791W        W10216  39.483  18.766  12.882
37792W        W10217  18.135  23.622   4.259
37793W        W10218  19.283  23.195   1.849
37794W        W10219  34.962  17.114  12.874
37795W        W10220  23.991   7.325  10.928
37796W        W10221  30.547  43.789  13.972
37797W        W10222   0.390  30.086   0.422
37798W        W10223  29.482  13.640   4.597
37799W        W10224   1.789   7.350   4.769
37800W        W10225  12.703  22.127   4.811
37801W        W10226  44.929  24.679   3.779
37802W        W10227  27.641  13.231   4.348
37803W        W10228  41.983  35.426  14.959
37804W        W10229   0.836   0.800   2.388
37805W        W10230  14.202  39.449  13.439
37806W        W10231  39.019  29.455   3.808
37807W        W10232  30.639  27.621  11.941
37808W        W10233  16.634   2.919   4.121
37809W        W10234  33.084  12.302   4.262
37810W        W10235  29.555   0.922  14.469
37811W        W10236   8.392  25.123   4.171
37812W        W10237   1.380  24.677  13.823
37813W        W10238  17.249   4.437  12.435
37814W        W10239  31.448  38.866  11.984
37815W        W10240  36.013  43.426  13.436
37816W        W10241  35.396  43.874  14.472
37817W        W10242  35.483  23.611  10.971
37818W        W10243  39.889   4.804   0.444
37819W        W10244  27.461  16.204   0.426
37820W        W10245   7.177  11.257  10.578
37821W        W10246  22.114  24.695  12.493
37822W        W10247  10.692  42.020  14.398
37823W        W10248  23.523  16.236  11.588
37824W        W10249  31.631  31.509  12.533
37825W        W10250   8.402  27.131   0.849
37826W        W10251  11.336  18.560  13.967
37827W        W10252   6.854   2.779  11.602
37828W        W10253   2.256  29.572  13.415
37829W        W10254  37.074   2.445  13.901
37830W        W10255  19.549   1.266   1.335
37831W        W10256  29.628  27.119   4.674
37832W        W10257  35.893  10.353  13.391
37833W        W10258  44.994   3.333  11.537
37834W        W10259  38.037   6.780   5.568
37835W        W10260  36.878   2.936   4.806
37836W        W10261  38.558   2.372  11.020
37837W        W10262  31.544  25.218  10.454
37838W        W10263  13.176  41.416  11.034
37839W        W10264  32.119  13.821  14.834
37840W        W10265  23.523  40.441  14.492
37841W        W10266  13.110  41.477   4.742
37842W        W10267  24.513  43.379  10.894
37843W        W10268  18.752  28.603   2.346
37844W        W10269  13.214   8.791   0.762
37845W        W10270  34.978  34.512   4.287
37846W        W10271  34.449  27.055   2.225
37847W        W10272   1.391  29.998  14.896
37848W        W10273  31.016   3.783   0.403
37849W        W10274  11.192  27.607  10.952
37850W        W10275  35.074  10.168   3.692
37851W        W10276  32.973  40.450  10.447
37852W        W10277  44.851  44.865   0.744
37853W        W10278  25.525  32.909   4.638
37854W        W10279  10.638  30.094   1.804
37855W        W10280  30.059  25.004   2.349
37856W        W10281  20.083   7.341   2.231
37857W        W10282   7.170   4.798  13.802
37858W        W10283  17.132  39.016   5.269
37859W        W10284  36.373  10.818  13.044
37860W        W10285  12.749  41.449   1.312
37861W        W10286  24.631  25.211  11.121
37862W        W10287  43.313  24.160   2.256
37863W        W10288  40.369   8.244  14.822
37864W        W10289  31.120  13.156  11.040
37865W        W10290   0.248   4.262   2.864
37866W        W10291  32.601   1.888  14.792
37867W        W10292   5.751  26.584   3.156
37868W        W10293  28.443  25.581   0.878
37869W        W10294  40.438   3.814   0.771
37870W        W10295  32.459  16.660   4.120
37871W        W10296   2.930  38.903  14.014
37872W        W10297  41.996  27.170  12.846
37873W        W10298   8.659  22.087   4.719
37874W        W10299  29.951  24.178   4.329
37875W        W10300   3.408   3.240  14.307
37876W        W10301  43.926  21.103  13.530
37877W        W10302  39.520  34.969  12.495
37878W        W10303  41.394  40.317  12.570
37879W        W10304  34.941   5.745   3.258
37880W        W10305  17.067  20.106  14.816
37881W        W10306   6.428  14.632   2.888
37882W        W10307  29.501  26.143  13.379
37883W        W10308  24.495  17.603  12.489
37884W        W10309   1.814  15.176   4.703
37885W        W10310  44.365  42.389   2.716
37886W        W10311  33.556  19.080   4.707
37887W        W10312   2.780  34.523  13.049
37888W        W10313  13.826   6.808  12.418
37889W        W10314  39.489  20.710   3.693
37890W        W10315  19.166  40.363   1.271
37891W        W10316  29.043  13.166   0.264
37892W        W10317  27.034  36.523   3.223
37893W        W10318  13.737  35.095  13.347
37894W        W10319   4.324  38.901  13.377
37895W        W10320  42.371  22.704   0.333
37896W        W10321   1.809  22.511   2.747
37897W        W10322  37.084  42.970   2.382
37898W        W10323  20.555  21.644   4.139
37899W        W10324  35.057   0.796   0.279
37900W        W10325   3.223  31.644  11.057
37901W        W10326  21.151  32.972  13.530
37902W        W10327  23.124   2.725  11.552
37903W        W10328  29.617  29.490  12.053
37904W        W10329  17.600  30.094   4.734
37905W        W10330  25.502  31.468  11.583
37906W        W10331  22.639  34.945   2.781
37907W        W10332  20.145   8.895   4.355
37908W        W10333  22.516  30.011  11.859
37909W        W10334  15.096   4.282   1.221
37910W        W10335   2.468  17.783   4.161
37911W        W10336   1.858  33.499  13.905
37912W        W10337   5.789  14.697   2.182
37913W        W10338  28.633  24.988  12.467
37914W        W10339  33.479   3.945  14.335
37915W        W10340   7.893  24.195  10.636
37916W        W10341  30.482   0.467   4.167
37917W        W10342  28.129   7.387   2.811
37918W        W10343  14.228   6.764  10.968
37919W        W10344  31.570  16.197   0.384
37920W        W10345  31.012  39.337  14.916
37921W        W10346  12.148  25.556   0.322
37922W        W10347  40.513  14.759   4.831
37923W        W10348  43.961  22.045   4.335
37924W        W10349  13.156  13.142   0.457
37925W        W10350  11.744  31.494  12.855
37926W        W10351  43.009  37.387   3.162
37927W        W10352  19.602  41.425  11.039
37928W        W10353  31.593  40.460   3.659
37929W        W10354   9.731  16.169   1.419
37930W        W10355   7.744  23.995  14.404
37931W        W10356  26.085  37.854   3.758
37932W        W10357  13.686  14.303   2.243
37933W        W10358  14.749  33.550  13.001
37934W        W10359  24.708  38.845   1.729
37935W        W10360  37.867  39.831  10.500
37936W        W10361  36.477  38.833   3.835
37937W        W10362  30.027   2.737  12.356
37938W        W10363  42.993  29.566   4.170
37939W        W10364   0.409  24.976  10.523
37940W        W10365  33.424   5.877  13.008
37941W        W10366  21.046  10.753   2.370
37942W        W10367  36.412  20.028   2.386
37943W        W10368  10.227  17.771   4.644
37944W        W10369  13.231  42.949   3.797
37945W        W10370   2.744  25.544   2.218
37946W        W10371  26.693  16.778  12.006
37947W        W10372  18.092  39.387  14.817
37948W        W10373   4.425  11.299  14.018
37949W        W10374  35.976   9.231   0.263
37950W        W10375  34.924  32.615  10.537
37951W        W10376  31.068  34.067  13.866
37952W        W10377  12.334  29.502   2.285
37953W        W10378  20.690  21.104   4.669
37954W        W10379  12.297  11.857   2.208
37955W        W10380  12.166  40.949   0.828
37956W        W10381  23.022  44.855   0.333
37957W        W10382  40.391  39.380   1.225
37958W        W10383  19.664  31.036   2.307
37959W        W10384  13.645  22.703   3.285
37960W        W10385  31.913  13.293  12.044
37961W        W10386  22.739  18.182   2.834
37962W        W10387   5.691  31.062  11.517
37963W        W10388  18.603   6.424   3.266
37964W        W10389   9.227  43.952   4.668
37965W        W10390  11.839  11.369   2.698
37966W        W10391  42.833  31.469  14.998
37967W        W10392   1.799  11.363   0.429
37968W        W10393   2.366  32.907   1.860
37969W        W10394  34.994   2.818   0.805
37970W        W10395  38.537   7.911   2.746
37971W        W10396  12.175  12.701  10.568
37972W        W10397   5.360  16.225   4.345
37973W        W10398   0.934   2.933   1.391
37974W        W10399  12.129  20.561  14.867
37975W        W10400  21.059  12.648   1.775
37976W        W10401  29.591  26.995  13.051
37977W        W10402  27.960   2.753   2.223
37978W        W10403  28.651  44.288  13.887
37979W        W10404   2.751  43.489   4.183
37980W        W10405  16.655   7.726  14.337
37981W        W10406  20.668   0.846   1.917
37982W        W10407   4.756   0.861  10.407
37983W        W10408  38.988  38.888   4.621
37984W        W10409   3.432   3.307   4.648
37985W        W10410  44.364  10.156   3.330
37986W        W10411   1.294  27.668   4.329
37987W        W10412  13.283   5.797  10.438
37988W        W10413  37.012  20.723  13.882
37989W        W10414   9.180  28.467   1.929
37990W        W10415   2.358  11.758   3.710
37991W        W10416   1.830   1.948   0.303
37992W        W10417  29.555  22.995  10.583
37993W        W10418  20.591  36.974  11.390
37994W        W10419  25.047  17.144  12.347
37995W        W10420   6.370  20.742   3.849
37996W        W10421  36.503  37.548  12.547
37997W        W10422  24.160  14.720   3.647
37998W        W10423  38.037  36.017   4.124
37999W        W10424  36.023  35.574   1.289
38000W        W10425  10.368  30.596   4.342
38001W        W10426  44.415  39.342  10.457
38002W        W10427  24.524  30.159  11.471
38003W        W10428  24.527  20.621  14.965
38004W        W10429  35.872  36.472   0.872
38005W        W10430  44.317  31.634  12.948
38006W        W10431  20.572  39.854  12.432
38007W        W10432  31.523  22.611  10.022
38008W        W10433  39.048  17.240  11.079
38009W        W10434  23.489  40.453   2.220
38010W        W10435  22.691  41.491   2.742
38011W        W10436  24.077  30.436   0.473
38012W        W10437   2.400  15.090   0.242
38013W        W10438  34.395  24.025   4.606
38014W        W10439  14.643  24.976   5.304
38015W        W10440  14.719   1.880   5.106
38016W        W10441  19.609  37.891  13.405
38017W        W10442   5.844   9.873  14.878
38018W        W10443  13.779  14.141   3.276
38019W        W10444   5.829  37.364  10.571
38020W        W10445  14.647  40.531  14.777
38021W        W10446  40.376   8.265   4.649
38022W        W10447  31.008  15.746  14.512
38023W        W10448  15.201  44.822  14.508
38024W        W10449  37.925  22.687  13.835
38025W        W10450  40.340  41.973   0.897
38026W        W10451  25.189  17.572  10.914
38027W        W10452  28.112  14.737   3.800
38028W        W10453  33.033  25.056  13.931
38029W        W10454  40.848  42.016   0.248
38030W        W10455   9.284  20.649   3.307
38031W        W10456  25.538   3.827   0.411
38032W        W10457  31.063  41.534  14.827
38033W        W10458  22.164  21.033  12.377
38034W        W10459  21.251  13.248  11.953
38035W        W10460  17.288  27.167   3.222
38036W        W10461   5.712  25.649  13.521
38037W        W10462  28.132   3.931   1.379
38038W        W10463   8.828   7.371   1.857
38039W        W10464  37.857  24.079   0.393
38040W        W10465   5.379  21.085  12.847
38041W        W10466  34.516  18.610   2.291
38042W        W10467  38.570  34.607  12.489
38043W        W10468  18.621  20.570   4.124
38044W        W10469   5.206  33.932   0.275
38045W        W10470  41.453  13.338  11.929
38046W        W10471  25.106  34.412  10.417
38047W        W10472  40.957  35.507   1.374
38048W        W10473  20.709  21.645   3.799
38049W        W10474  41.410  27.664   0.863
38050W        W10475  32.128  24.188   0.913
38051W        W10476  34.463  22.145   0.929
38052W        W10477  14.673  43.887   4.154
38053W        W10478  36.977  13.315   2.392
38054W        W10479  27.646  15.261   2.789
38055W        W10480   6.417  21.690   0.733
38056W        W10481  35.380  30.442  11.440
38057W        W10482   1.916  17.114  11.108
38058W        W10483  35.038  18.126  14.854
38059W        W10484  23.673   8.183  13.998
38060W        W10485  25.124  25.102   2.272
38061W        W10486  30.925  36.430   1.386
38062W        W10487   0.390  43.418  14.433
38063W        W10488  44.816   7.777   0.465
38064W        W10489  41.357  16.100  11.446
38065W        W10490  29.628  38.361  13.852
38066W        W10491  13.630  13.174  14.916
38067W        W10492   8.290  36.914  11.968
38068W        W10493  24.563   8.745  10.637
38069W        W10494  43.278  34.960  10.951
38070W        W10495   8.187  34.600  10.429
38071W        W10496  31.626  41.944  11.899
38072W        W10497  27.047  23.648   3.823
38073W        W10498   9.754   6.752   1.739
38074W        W10499  23.001  22.670   2.204
38075W        W10500  28.937  23.137  11.010
38076W        W10501  37.349  35.601   0.436
38077W        W10502  26.693  16.295   4.771
38078W        W10503  28.677  26.153  13.312
38079W        W10504  40.897   2.226  11.078
38080W        W10505  14.596  42.294   3.678
38081W        W10506   9.821  37.082  13.541
38082W        W10507  42.832  42.456   3.321
38083W        W10508  40.037  20.541  12.834
38084W        W10509   7.852  35.529  10.967
38085W        W10510  26.641  29.557  12.511
38086W        W10511  35.481  27.672   4.268
38087W        W10512  21.586   6.309  10.906
38088W        W10513  44.761  15.594  10.514
38089W        W10514  27.006  30.146   1.867
38090W        W10515  26.091   5.796   4.735
38091W        W10516  33.476  38.336   3.742
38092W        W10517  17.704  10.268  14.511
38093W        W10518  31.108  14.225  14.502
38094W        W10519   2.964  11.638   0.763
38095W        W10520  10.167  13.826   4.768
38096W        W10521  10.358   8.784  10.001
38097W        W10522  17.083   5.214   1.386
38098W        W10523  10.159  21.098  10.947
38099W        W10524  18.657  36.528   3.281
38100W        W10525  14.707   5.264   3.374
38101W        W10526  14.761  34.055  13.808
38102W        W10527  11.754  38.449  11.414
38103W        W10528  21.031  14.646  13.003
38104W        W10529  28.469  43.417  11.491
38105W        W10530   5.384   0.896   4.718
38106W        W10531   4.870  17.155  11.859
38107W        W10532  28.484   6.329   3.272
38108W        W10533  22.618  42.959  11.107
38109W        W10534  34.440  33.060  10.974
38110W        W10535   1.914   9.834  14.775
38111W        W10536  37.367  21.260   0.480
38112W        W10537   3.850  32.630   4.306
38113W        W10538  37.506  20.559  14.759
38114W        W10539  22.078  10.242   1.827
38115W        W10540  33.411  26.612  10.581
38116W        W10541  27.149  18.548  11.952
38117W        W10542  20.048  25.058   2.699
38118W        W10543  25.510  21.722  11.872
38119W        W10544  20.163  29.099   0.799
38120W        W10545  36.932   7.681  13.382
38121W        W10546  35.395  22.040  12.944
38122W        W10547  36.407  25.202  10.906
38123W        W10548  33.127  34.056  14.892
38124W        W10549   6.906  39.911  13.833
38125W        W10550  10.814  36.847  12.068
38126W        W10551  30.136  27.013   3.807
38127W        W10552  36.521  34.580   3.338
38128W        W10553  43.984  24.117   3.856
38129W        W10554  38.537  18.155   4.128
38130W        W10555   3.458  39.978  14.332
38131W        W10556   1.467  42.916   0.266
38132W        W10557  17.622  36.428   4.735
38133W        W10558  37.067   7.869  12.425
38134W        W10559  29.985  39.871   0.880
38135W        W10560  29.955  10.814  11.009
38136W        W10561  39.359  44.898  14.994
38137W        W10562   1.245  42.384   1.271
38138W        W10563  41.830   9.661  13.315
38139W        W10564  24.223  11.839  14.318
38140W        W10565  15.644   5.749   2.328
38141W        W10566   5.345  29.466   4.228
38142W        W10567  27.005  15.171   4.680
38143W        W10568  19.590  12.165  12.880
38144W        W10569  18.575  23.212  12.570
38145W        W10570  13.130  30.432  11.088
38146W        W10571  26.592  25.035   4.180
38147W        W10572  32.109   6.331  13.923
38148W        W10573  21.726  34.019   4.186
38149W        W10574  31.910   9.390   3.842
38150W        W10575  33.983   1.459  13.526
38151W        W10576   7.776  25.492   0.336
38152W        W10577  19.726   2.807  12.960
38153W        W10578  27.648   0.810  13.467
38154W        W10579  11.852  11.725   5.138
38155W        W10580  28.006  33.412   3.264
38156W        W10581   7.368   3.327  11.897
38157W        W10582  18.191   2.385  12.074
38158W        W10583  34.471   9.258  14.346
38159W        W10584  25.208  26.177   0.838
38160W        W10585  41.847  32.028   2.343
38161W        W10586   5.307  35.591   1.398
38162W        W10587  15.595  15.240  13.368
38163W        W10588  27.172  36.576   4.198
38164W        W10589  12.291  24.990  11.428
38165W        W10590  15.180  17.208  12.954
38166W        W10591  31.114  37.487   2.736
38167W        W10592   6.709  28.962   3.667
38168W        W10593  23.169  17.602   2.206
38169W        W10594  32.996  26.072  10.618
38170W        W10595   3.770  23.546  14.902
38171W        W10596  14.336  24.081   2.385
38172W        W10597   1.309  10.846  12.041
38173W        W10598   6.374  38.027   2.730
38174W        W10599  38.548  22.634   0.449
38175W        W10600  22.505  32.552  12.984
38176W        W10601  22.137   7.258  13.400
38177W        W10602  18.709   3.919  14.309
38178W        W10603  39.881  16.732   4.642
38179W        W10604  31.937  41.797  14.958
38180W        W10605  15.745   9.354  13.965
38181W        W10606  28.580  21.628  12.867
38182W        W10607  42.380   6.258   2.781
38183W        W10608  18.697  27.507   1.916
38184W        W10609  27.642   7.396   0.272
38185W        W10610  20.117  14.262  13.923
38186W        W10611  36.518  42.982  12.824
38187W        W10612  41.450  34.066  11.959
38188W        W10613  25.094  32.451   1.719
38189W        W10614  26.133   4.908   3.702
38190W        W10615  18.696  42.406  13.046
38191W        W10616  32.024  29.636  12.529
38192W        W10617  16.289  14.650  13.462
38193W        W10618   3.931   8.847  12.860
38194W        W10619  14.283  44.005  13.926
38195W        W10620  12.740  38.009  13.502
38196W        W10621  44.390   8.690  14.790
38197W        W10622   4.703  37.447  11.119
38198W        W10623  13.653  44.432  13.064
38199W        W10624   7.223  22.225   4.704
38200W        W10625   0.958  12.689   4.241
38201W        W10626  32.608  33.991   4.798
38202W        W10627  32.026   5.238   2.278
38203W        W10628  27.490  15.257   4.640
38204W        W10629   8.799  17.148   4.775
38205W        W10630  37.899  10.681  12.996
38206W        W10631  25.195  10.213  14.454
38207W        W10632  29.666  22.208   0.953
38208W        W10633  30.626  16.170   2.390
38209W        W10634  32.972   6.755  14.850
38210W        W10635   8.354  31.079   0.745
38211W        W10636   4.720  14.640  14.510
38212W        W10637  38.325  18.112   0.295
38213W        W10638  35.950  44.929   3.845
38214W        W10639  30.949   8.301  12.365
38215W        W10640  44.382  30.934   4.344
38216W        W10641   6.258  23.670   4.347
38217W        W10642  29.990  22.549  14.777
38218W        W10643  35.475  35.491   4.609
38219W        W10644  20.068  15.622  10.627
38220W        W10645  34.492  19.642   4.644
38221W        W10646  43.497  11.195   4.641
38222W        W10647   8.819  15.745  14.341
38223W        W10648  12.854  41.961  10.974
38224W        W10649  33.494  18.092   0.767
38225W        W10650  17.183  22.711   1.442
38226W        W10651   8.776  11.790   4.772
38227W        W10652  42.788  29.923  14.966
38228W        W10653  36.488  42.797  14.461
38229W        W10654  32.459   5.282   3.741
38230W        W10655  24.136  43.499   3.380
38231W        W10656  14.601  12.733   1.404
38232W        W10657  28.580  15.593   1.443
38233W        W10658   9.301  32.091  12.069
38234W        W10659  33.068  28.586   4.658
38235W        W10660   0.393  39.551  10.413
38236W        W10661  13.175  21.256  12.349
38237W        W10662  43.365  17.067   2.675
38238W        W10663  21.210   7.384  11.533
38239W        W10664  13.807  28.952  10.505
38240W        W10665  39.967  12.810   2.814
38241W        W10666  22.008  37.967   1.892
38242W        W10667  32.956   1.748   2.246
38243W        W10668  44.494   0.988  13.932
38244W        W10669  19.644  10.187   2.246
38245W        W10670  22.159   7.239  11.440
38246W        W10671  27.600  13.733  14.949
38247W        W10672  36.505   4.270   3.656
38248W        W10673  25.019  39.341  13.957
38249W        W10674  31.984   2.843   1.417
38250W        W10675  14.325  24.496  12.853
38251W        W10676  19.596  31.108   5.218
38252W        W10677   9.675  44.469   2.863
38253W        W10678  22.741  37.533   1.218
38254W        W10679  32.447  19.283   4.608
38255W        W10680   0.954  15.220  13.876
38256W        W10681  42.475  14.290   0.764
38257W        W10682  16.183   4.845  10.003
38258W        W10683  35.882  18.162  14.463
38259W        W10684  19.207   4.717  10.107
38260W        W10685  19.170   4.284   3.712
38261W        W10686  26.183  39.887  13.794
38262W        W10687  20.196   4.851   2.371
38263W        W10688  39.351  22.534  11.591
38264W        W10689  24.996  40.364  10.637
38265W        W10690   1.833  35.914   2.285
38266W        W10691  42.801  20.211   3.835
38267W        W10692  21.065  25.134   4.812
38268W        W10693  33.875  26.087  10.641
38269W        W10694   5.202  37.500  14.938
38270W        W10695  11.852  26.491  10.953
38271W        W10696  28.091   9.867  14.371
38272W        W10697   2.272  17.128  14.465
38273W        W10698  28.941  15.255  14.380
38274W        W10699  34.450  12.203   0.773
38275W        W10700   8.683  13.185  12.950
38276W        W10701  44.490  29.158   0.283
38277W        W10702   2.310   4.297  10.898
38278W        W10703  39.835  11.745   2.764
38279W        W10704  17.222  30.441  14.324
38280W        W10705  14.819   3.754   5.566
38281W        W10706  43.003  13.807  11.398
38282W        W10707  16.287  28.617   4.619
38283W        W10708  41.536  26.085  14.864
38284W        W10709  18.229   2.870   0.402
38285W        W10710  42.008  19.039  10.645
38286W        W10711  33.561  16.281   2.390
38287W        W10712  36.462  13.188  13.461
38288W        W10713  38.553  14.183  14.442
38289W        W10714  40.043  25.110  10.581
38290W        W10715   0.799  35.892  14.881
38291W        W10716  18.698   8.167   1.888
38292W        W10717   6.255   8.192  10.451
38293W        W10718  31.476   7.758   1.226
38294W        W10719   1.851  29.428   0.286
38295W        W10720  24.624  20.604   1.884
38296W        W10721  34.558  35.423   1.255
38297W        W10722  29.970  39.350   2.282
38298W        W10723  21.220  36.428   3.217
38299W        W10724  36.473  17.300  13.521
38300W        W10725   3.434   2.736   1.439
38301W        W10726   5.844  37.049  11.886
38302W        W10727  13.719  32.411  14.486
38303W        W10728  30.570  38.383  13.835
38304W        W10729  25.995  31.910  12.570
38305W        W10730  11.701  35.497   1.211
38306W        W10731  20.183  24.621  12.841
38307W        W10732   9.324   9.673   2.295
38308W        W10733  37.938   1.796  11.981
38309W        W10734  43.491   4.838  14.808
38310W        W10735  31.976  11.823  12.974
38311W        W10736  35.109  11.767  11.461
38312W        W10737  17.762  38.382   4.249
38313W        W10738  41.452   3.448  13.408
38314W        W10739  29.933  42.518   3.656
38315W        W10740   4.428   2.264  13.936
38316W        W10741  17.225  25.068   3.831
38317W        W10742  41.337  35.995   4.259
38318W        W10743  22.173   5.760  12.007
38319W        W10744   5.432  38.344  12.984
38320W        W10745  27.978   2.299  13.329
38321W        W10746  10.349  27.012   4.281
38322W        W10747  42.991  36.091  14.829
38323W        W10748  22.560  28.579  13.962
38324W        W10749   5.378  33.936   3.671
38325W        W10750   9.653  43.436   1.886
38326W        W10751  16.574  12.726  11.602
38327W        W10752  13.233  25.005   5.266
38328W        W10753   4.416  34.552  13.056
38329W        W10754  17.624  38.015   3.283
38330W        W10755  39.406  26.680   3.268
38331W        W10756  10.357   6.755   1.781
38332W        W10757  42.474  19.722  10.047
38333W        W10758   6.781  31.041   1.719
38334W        W10759  16.812  42.282  12.004
38335W        W10760  25.077   3.358  13.894
38336W        W10761   2.304   0.481  14.383
38337W        W10762  31.570  31.120  13.507
38338W        W10763  20.563  41.987   4.318
38339W        W10764   3.852   0.974  12.519
38340W        W10765  36.992  12.157  14.320
38341W        W10766   2.360   2.844   4.147
38342W        W10767   4.781   7.666   3.636
38343W        W10768  26.008  41.306  12.392
38344W        W10769  36.537  16.231  12.466
38345W        W10770  37.541  41.942   5.184
38346W        W10771  29.530  19.218   2.327
38347W        W10772   8.387  33.575  11.506
38348W        W10773  32.452  39.919   2.191
38349W        W10774  37.077  38.468  11.536
38350W        W10775   7.891  33.514  12.503
38351W        W10776  31.502  35.953   3.299
38352W        W10777  16.750  36.582   3.375
38353W        W10778  40.313  14.108   2.736
38354W        W10779  41.384  26.609  12.066
38355W        W10780  31.489  40.501   0.788
38356W        W10781  15.715  34.588   4.207
38357W        W10782  25.081  38.854  13.944
38358W        W10783  41.794  43.320   4.230
38359W        W10784  41.796  16.238  13.354
38360W        W10785  40.444   5.930  14.911
38361W        W10786  29.514  17.577  14.327
38362W        W10787  17.183  42.808   2.317
38363W        W10788  34.043  43.496   2.406
38364W        W10789   8.829   3.847  10.428
38365W        W10790  20.769   4.889  14.962
38366W        W10791  11.781  11.708   3.193
38367W        W10792  37.991   3.823   1.253
38368W        W10793  15.233   7.245   3.750
38369W        W10794  22.601  36.542  14.512
38370W        W10795  31.039   6.245   0.791
38371W        W10796  16.281  43.337  11.564
38372W        W10797   5.879   7.292  14.026
38373W        W10798  29.511   4.719  13.920
38374W        W10799  29.563  37.476  10.566
38375W        W10800   8.276   6.691   0.726
38376W        W10801   1.793  42.406   4.207
38377W        W10802  27.684  42.923  12.474
38378W        W10803  21.719  10.254  13.954
38379W        W10804  42.433  38.460  14.770
38380W        W10805  36.511  17.261  10.418
38381W        W10806   9.804   7.721   2.686
38382W        W10807  11.636  34.416  13.370
38383W        W10808  39.559   9.675  13.522
38384W        W10809   0.433   1.314  11.582
38385W        W10810  39.993  42.031  10.595
38386W        W10811  25.496  15.773  11.524
38387W        W10812   0.479   7.274   2.780
38388W        W10813  14.726  19.719   2.849
38389W        W10814  18.776   0.753  11.856
38390W        W10815  21.621  13.162   3.297
38391W        W10816  29.987  22.202   1.412
38392W        W10817  10.338  35.433   3.681
38393W        W10818  32.626   7.332   2.801
38394W        W10819  10.187  29.938  12.453
38395W        W10820   1.354  18.684   0.296
38396W        W10821  42.493  29.087  13.333
38397W        W10822   7.356  34.947  14.314
38398W        W10823  41.928  42.967  11.532
38399W        W10824  37.404  40.433   5.233
38400W        W10825  22.701  10.138   2.786
38401W        W10826  17.220  31.409   0.850
38402W        W10827  24.141  31.014   3.316
38403W        W10828  10.642  21.651   1.729
38404W        W10829  22.674   5.844  13.918
38405W        W10830   4.864  28.612   0.791
38406W        W10831  22.554  14.830   4.229
38407W        W10832   1.828  36.073  13.494
38408W        W10833  14.185  29.092   0.863
38409W        W10834  36.084  15.129  11.529
38410W        W10835  30.935  26.671  13.982
38411W        W10836  16.095  21.166  14.941
38412W        W10837  20.088  30.527  13.022
38413W        W10838   4.307   1.818  12.905
38414W        W10839  18.057  21.720  13.946
38415W        W10840  26.132  23.677   2.237
38416W        W10841  34.417  13.845  13.877
38417W        W10842  10.811  26.559   2.665
38418W        W10843  38.872   2.892   1.447
38419W        W10844   1.759  22.138  14.302
38420W        W10845  44.263  38.015  10.559
38421W        W10846  38.076   6.181  14.824
38422W        W10847  24.707  31.908  14.357
38423W        W10848   4.853  34.556   2.244
38424W        W10849  22.739  17.582   4.694
38425W        W10850  33.895  33.026  10.642
38426W        W10851  17.208   3.438  13.495
38427W        W10852  19.658  37.997  10.946
38428W        W10853   6.838  18.251   0.347
38429W        W10854  13.662  31.099   0.776
38430W        W10855   4.265  16.286  11.483
38431W        W10856  24.510  23.008   3.343
38432W        W10857  37.469   7.199  13.334
38433W        W10858  42.415   7.775   3.684
38434W        W10859   7.840  16.085  12.443
38435W        W10860  18.630   6.269   2.701
38436W        W10861  41.295  39.870   1.298
38437W        W10862  14.131  10.771   0.954
38438W        W10863  14.745   1.974   3.383
38439W        W10864   5.374   3.371  12.415
38440W        W10865  27.003  16.636  14.459
38441W        W10866  30.161  40.475   2.414
38442W        W10867   7.341   4.376  12.965
38443W        W10868  22.589  17.242   3.660
38444W        W10869  10.281  10.731  13.973
38445W        W10870  23.500   7.328   3.333
38446W        W10871  27.495   1.244  10.541
38447W        W10872  43.891  23.568   0.475
38448W        W10873  35.438  41.416  11.424
38449W        W10874   6.356  26.532   3.206
38450W        W10875  41.853  16.297  14.806
38451W        W10876  42.939  16.676   3.749
38452W        W10877  30.594  43.318   2.350
38453W        W10878  27.130   3.350  13.453
38454W        W10879   7.674  32.102  14.352
38455W        W10880  41.865  30.517   0.897
38456W        W10881   0.391  24.114   1.264
38457W        W10882  14.619  38.465   1.349
38458W        W10883  18.081  22.198   2.198
38459W        W10884  20.645  31.061  11.383
38460W        W10885  14.174  36.421  14.443
38461W        W10886  11.622   4.332  12.451
38462W        W10887  21.530  16.731   4.232
38463W        W10888  22.069  22.747  12.019
38464W        W10889   2.904  43.360   2.286
38465W        W10890  40.393  33.413  11.049
38466W        W10891   8.838  15.655  13.334
38467W        W10892  18.634  14.146   4.686
38468W        W10893  35.092  35.901   3.677
38469W        W10894  13.622   0.785  12.942
38470W        W10895   4.317  18.224  11.527
38471W        W10896  33.464  26.487   1.340
38472W        W10897  23.185  25.088   0.772
38473W        W10898  11.720   4.718   2.798
38474W        W10899  32.140   6.842  11.055
38475W        W10900  38.458   0.834   3.675
38476W        W10901  41.919  14.214  13.025
38477W        W10902  11.259  12.195  13.542
38478W        W10903  40.455  42.957   1.874
38479W        W10904  31.007  33.988   2.778
38480W        W10905  39.908  13.717  13.834
38481W        W10906  43.990   4.776   4.832
38482W        W10907   6.708  44.985   1.738
38483W        W10908  21.706  19.251  12.509
38484W        W10909  32.886  33.581   2.702
38485W        W10910  10.854  44.784   3.657
38486W        W10911   2.357  44.951  13.364
38487W        W10912  42.972  43.515  13.806
38488W        W10913   5.702  42.803  13.874
38489W        W10914   9.327   3.738  14.832
38490W        W10915  42.319   4.217   0.336
38491W        W10916  33.042   8.251  13.484
38492W        W10917  17.731  30.040  10.935
38493W        W10918   6.878  16.671  14.332
38494W        W10919  24.007   6.799  13.059
38495W        W10920  26.043  39.846   3.643
38496W        W10921   8.873  15.244   1.847
38497W        W10922  16.582  43.965  10.921
38498W        W10923   1.891  26.077   1.810
38499W        W10924   0.944  32.035  12.378
38500W        W10925  11.862   6.409  14.916
38501W        W10926  16.275  31.629   1.428
38502W        W10927   1.306  15.208  14.307
38503W        W10928  25.546  19.623  14.366
38504W        W10929   9.862   9.341  11.868
38505W        W10930  17.212  34.072  10.156
38506W        W10931   9.235   3.760   1.850
38507W        W10932  16.093  22.550   1.906
38508W        W10933  40.371  26.511  10.411
38509W        W10934  11.647  36.444  14.502
38510W        W10935  28.932  36.458  13.512
38511W        W10936  24.549  44.969   1.722
38512W        W10937   4.375  33.130  12.062
38513W        W10938  38.879  42.858   5.232
38514W        W10939   7.907  25.044  14.832
38515W        W10940  28.159  23.229   4.750
38516W        W10941  38.331   5.764  13.033
38517W        W10942   3.953  26.594   3.173
38518W        W10943  18.269  35.968   1.753
38519W        W10944  21.573  17.224   4.823
38520W        W10945  12.799  29.645   3.231
38521W        W10946  11.855  18.269   1.336
38522W        W10947  19.671  23.176   3.846
38523W        W10948  39.365  38.526   4.293
38524W        W10949  27.019  35.436  11.398
38525W        W10950  41.528  14.746  11.022
38526W        W10951   6.326  28.449  12.034
38527W        W10952  33.440  42.987   1.737
38528W        W10953  36.494  35.984  12.974
38529W        W10954  21.034  41.451   2.791
38530W        W10955  15.144   2.899  10.089
38531W        W10956   5.377  19.253  13.016
38532W        W10957   2.389  28.521   1.445
38533W        W10958  13.837  10.243   1.904
38534W        W10959  12.354  44.353  14.298
38535W        W10960  17.604  35.446  11.929
38536W        W10961  13.809  36.842   1.907
38537W        W10962  26.081  32.902   3.193
38538W        W10963  43.815  10.339  12.577
38539W        W10964  36.536   6.400   1.446
38540W        W10965  43.381  43.339   1.809
38541W        W10966   8.673   0.490  11.098
38542W        W10967   9.730   8.779   0.362
38543W        W10968  16.764  23.679  11.939
38544W        W10969  21.029  29.977   4.780
38545W        W10970  17.185  28.004   4.829
38546W        W10971   5.357  39.357  12.504
38547W        W10972  40.394   6.735   1.921
38548W        W10973  35.960   5.772  12.459
38549W        W10974   0.781  32.558  13.515
38550W        W10975   9.155  44.259   1.795
38551W        W10976  33.932  30.511  10.640
38552W        W10977  23.685  33.116   0.829
38553W        W10978   2.812  44.463   2.229
38554W        W10979  40.798  42.315   3.332
38555W        W10980  13.193   4.896   1.369
38556W        W10981   9.743  21.716  12.968
38557W        W10982   6.397  32.570   4.711
38558W        W10983  43.871  14.339  12.553
38559W        W10984   4.325  16.227   1.914
38560W        W10985  25.048  18.055  13.384
38561W        W10986  30.989  17.223  11.385
38562W        W10987   4.943  20.085  12.533
38563W        W10988   2.435  25.047  14.494
38564W        W10989  25.520  29.125   4.611
38565W        W10990   4.717  23.019   3.192
38566W        W10991  19.733  25.040   0.908
38567W        W10992  37.956   8.295  14.277
38568W        W10993  22.059   3.936  14.858
38569W        W10994  15.815  33.132   0.269
38570W        W10995  21.660  37.086   2.303
38571W        W10996  28.595  34.042  12.082
38572W        W10997   0.321  36.487   3.700
38573W        W10998  12.617   7.242  13.983
38574W        W10999  28.067   4.741  10.479
38575W        W11000  32.628  19.210   2.826
38576W        W11001  24.064  22.249  10.498
38577W        W11002   8.762   9.258   4.654
38578W        W11003  41.358  15.688   3.235
38579W        W11004  17.129  33.899   4.208
38580W        W11005  26.512  14.792  13.979
38581W        W11006   4.304  23.534   4.219
38582W        W11007  16.581  30.048   0.741
38583W        W11008   7.355   1.856  12.568
38584W        W11009  23.620  16.207  10.963
38585W        W11010  22.648  31.988  13.458
38586W        W11011  15.622   5.896   9.991
38587W        W11012  19.196  18.269  11.590
38588W        W11013   4.319  21.114  13.514
38589W        W11014   3.328  25.002  11.100
38590W        W11015  24.202  25.693  12.932
38591W        W11016  25.175  20.550  12.554
38592W        W11017  38.370  30.142  12.373
38593W        W11018  15.199  20.107   2.831
38594W        W11019  34.012  15.254   1.848
38595W        W11020  17.290   6.407  11.086
38596W        W11021  24.620   3.264   1.337
38597W        W11022  33.381  29.918   4.829
38598W        W11023  21.208   2.781  11.411
38599W        W11024  26.134  41.812  13.955
38600W        W11025   0.849  42.362   4.731
38601W        W11026  27.067  41.964   0.754
38602W        W11027  10.369  10.231  14.310
38603W        W11028  33.900   0.795  12.447
38604W        W11029  22.522  22.238   4.601
38605W        W11030  23.709  17.081  14.359
38606W        W11031  24.538  10.359  14.302
38607W        W11032  21.019  44.992   4.236
38608W        W11033   5.362  28.972  11.887
38609W        W11034   7.702  37.972   1.251
38610W        W11035  30.591  10.229  14.939
38611W        W11036  32.028  25.565   4.302
38612W        W11037   5.746  19.742   1.912
38613W        W11038   0.342   7.209   3.252
38614W        W11039  44.404  30.565  13.917
38615W        W11040  22.995  25.151   3.236
38616W        W11041  29.591  17.064   2.879
38617W        W11042  10.363  11.756   2.682
38618W        W11043  42.295  12.781   1.883
38619W        W11044  24.697  11.259   3.355
38620W        W11045  24.557  19.747   2.680
38621W        W11046   7.301  17.771   3.381
38622W        W11047  21.189  39.556  14.438
38623W        W11048   5.720   7.310   1.366
38624W        W11049  41.993   7.768  14.973
38625W        W11050  26.159  26.617   3.370
38626W        W11051   7.710   0.827   2.832
38627W        W11052  12.681   9.344  12.466
38628W        W11053  15.775   1.447   4.311
38629W        W11054  29.025  44.394   4.337
38630W        W11055  44.491  25.006   2.214
38631W        W11056  39.495  12.621  10.417
38632W        W11057  23.567  23.030  14.994
38633W        W11058  36.856   2.227  11.380
38634W        W11059  38.899  40.387   0.742
38635W        W11060  34.376  41.452  12.019
38636W        W11061  19.577  10.807   2.840
38637W        W11062   1.809  12.150   0.413
38638W        W11063  12.628  32.592  11.079
38639W        W11064  30.125  43.356   0.945
38640W        W11065  14.773  40.490   2.353
38641W        W11066  19.774  13.191  13.414
38642W        W11067   7.753  35.564   1.841
38643W        W11068   3.769   4.423  12.013
38644W        W11069   8.775  44.851   2.209
38645W        W11070  18.652  27.687   2.402
38646W        W11071  15.781   5.839   0.842
38647W        W11072  34.592  11.215   4.235
38648W        W11073  21.072  37.076  10.427
38649W        W11074  11.171  14.311  13.891
38650W        W11075  12.645  17.564  11.960
38651W        W11076  37.581   3.744   0.272
38652W        W11077  28.120  35.578  14.008
38653W        W11078  28.955  40.027  14.293
38654W        W11079  12.124  42.011   0.924
38655W        W11080  24.721  10.737   1.753
38656W        W11081  27.191  29.085  11.400
38657W        W11082  43.006  23.541   3.358
38658W        W11083  43.829   9.743   2.186
38659W        W11084  21.591  30.643   0.851
38660W        W11085   4.382   8.300  10.413
38661W        W11086   2.842  39.426  14.965
38662W        W11087  17.613  15.261  14.364
38663W        W11088  39.006   1.425  11.896
38664W        W11089  20.108  11.653  11.904
38665W        W11090  18.748  10.746  14.298
38666W        W11091  10.361  33.027   4.118
38667W        W11092  26.671  29.541   5.129
38668W        W11093  37.524  40.445   0.347
38669W        W11094  30.976   7.878  11.935
38670W        W11095  24.065  18.101  14.830
38671W        W11096   5.791  24.023   4.305
38672W        W11097  23.507   7.189   3.769
38673W        W11098  13.617  31.988   0.850
38674W        W11099  42.413  27.013   4.134
38675W        W11100  12.231  44.496   2.688
38676W        W11101  14.331  32.458   4.637
38677W        W11102  40.016   1.387  13.871
38678W        W11103  26.568  17.602  14.310
38679W        W11104  43.310  24.083  12.487
38680W        W11105  20.036  24.680   0.754
38681W        W11106  44.294  27.557   3.854
38682W        W11107  11.248  31.947   2.893
38683W        W11108  40.828  13.822   1.341
38684W        W11109  11.318  14.307  14.350
38685W        W11110   7.271  30.090   0.357
38686W        W11111   2.752  14.332   4.163
38687W        W11112  29.506  29.571   0.348
38688W        W11113   6.393  23.696   1.287
38689W        W11114  14.676  34.473   4.159
38690W        W11115  29.011   4.358   4.670
38691W        W11116  19.134  12.326   0.869
38692W        W11117  36.526  18.608  12.037
38693W        W11118  15.248  25.524   3.276
38694W        W11119  28.012   4.422  13.474
38695W        W11120  32.015  40.544   2.221
38696W        W11121  15.719  37.483  11.886
38697W        W11122  44.492   2.374   2.264
38698W        W11123  15.671  20.059  11.883
38699W        W11124  22.034  11.368  11.386
38700W        W11125  41.796  37.918  11.516
38701W        W11126  36.360   8.288   5.242
38702W        W11127  16.163  13.160  14.873
38703W        W11128   5.741  15.226  13.397
38704W        W11129  30.471  12.351   4.224
38705W        W11130  29.621  20.735  13.462
38706W        W11131  25.710  23.711   2.342
38707W        W11132  30.625   2.788  11.933
38708W        W11133  24.612  18.568   4.320
38709W        W11134   7.215   2.372  11.007
38710W        W11135  22.219  35.025  13.897
38711W        W11136  22.668   0.923  10.571
38712W        W11137  19.728  12.268   0.365
38713W        W11138  12.723  35.483   2.694
38714W        W11139  36.852  24.502  12.501
38715W        W11140  38.334  16.221   3.323
38716W        W11141  23.159  24.494  10.565
38717W        W11142  41.360   9.319  13.052
38718W        W11143  21.646  10.803   0.482
38719W        W11144  40.827  20.220   1.718
38720W        W11145  41.834  18.198   1.763
38721W        W11146   5.693  35.002   1.380
38722W        W11147  35.969   7.806   2.708
38723W        W11148  14.222  27.010  11.028
38724W        W11149  20.218  13.785   2.661
38725W        W11150  12.803  42.900  14.389
38726W        W11151  38.935   7.688   5.286
38727W        W11152  22.727  25.174  10.584
38728W        W11153  37.963   0.342  11.536
38729W        W11154  27.945  15.580   4.708
38730W        W11155  16.272  15.238   2.830
38731W        W11156   5.725   4.287  13.956
38732W        W11157  28.502  16.102   3.778
38733W        W11158  12.118   9.336  13.497
38734W        W11159  23.091  40.850   4.742
38735W        W11160   9.729  12.174   3.645
38736W        W11161  32.519  38.562   1.925
38737W        W11162   3.790  36.975   2.787
38738W        W11163  37.993  30.991  11.529
38739W        W11164  36.975   6.740  14.418
38740W        W11165   5.918  33.392   2.751
38741W        W11166   9.666  43.926  14.409
38742W        W11167  34.533  28.535   4.119
38743W        W11168  36.489   9.653   3.230
38744W        W11169  44.273  15.614  14.404
38745W        W11170  13.303  13.230  10.924
38746W        W11171  10.794  35.921  11.541
38747W        W11172  42.949   0.256   1.825
38748W        W11173  43.939  44.390  13.890
38749W        W11174  41.486  22.503   2.901
38750W        W11175   7.344   9.277   3.182
38751W        W11176  11.808  30.125  13.525
38752W        W11177  11.726  40.948   4.700
38753W        W11178   4.779   9.826  11.028
38754W        W11179  19.057  19.769   2.230
38755W        W11180  14.640  12.192   3.280
38756W        W11181  40.018  43.953  11.402
38757W        W11182  28.988   4.307  13.397
38758W        W11183  36.038  36.525   2.771
38759W        W11184  29.632  28.030   0.741
38760W        W11185   9.251   0.372   1.795
38761W        W11186  39.836  16.311  13.328
38762W        W11187  37.488  42.519   1.925
38763W        W11188  26.105  43.434  10.989
38764W        W11189  19.111  24.711   2.378
38765W        W11190  30.618  29.008  14.372
38766W        W11191  14.794  42.405  12.464
38767W        W11192  29.575  33.580  11.539
38768W        W11193  26.127   7.890   0.819
38769W        W11194  14.199  38.443  11.102
38770W        W11195   7.282   1.363  12.827
38771W        W11196  22.692   7.774   0.755
38772W        W11197  23.632  26.967  14.344
38773W        W11198  10.848   8.162   0.423
38774W        W11199  20.260   6.733  13.379
38775W        W11200  31.986  33.562   1.760
38776W        W11201  13.158  25.186  10.948
38777W        W11202  17.796   8.763  12.007
38778W        W11203  36.534  17.633  14.016
38779W        W11204  13.176  16.787  13.464
38780W        W11205  15.645  38.845   0.400
38781W        W11206  22.728   6.316  10.036
38782W        W11207  38.004  16.614   3.365
38783W        W11208  31.479  43.463   3.648
38784W        W11209  18.587  20.751   0.799
38785W        W11210  15.107   0.417  10.507
38786W        W11211  28.662  15.577  10.940
38787W        W11212  18.175   1.733  13.344
38788W        W11213  32.116  13.821   4.288
38789W        W11214   9.861  30.577  14.863
38790W        W11215  20.593   5.199   4.271
38791W        W11216  28.605  38.993  13.987
38792W        W11217  38.530  39.994   4.146
38793W        W11218  11.789  18.555  14.420
38794W        W11219  14.173   1.833   0.807
38795W        W11220   8.881  27.051   0.920
38796W        W11221   5.436  24.980   4.835
38797W        W11222   8.761   5.818  11.030
38798W        W11223  15.128  21.254   0.272
38799W        W11224  35.380  14.646   2.663
38800W        W11225  41.924  44.906  10.610
38801W        W11226   0.278  31.047  14.404
38802W        W11227   6.315  36.368  10.445
38803W        W11228   1.951  42.351  13.505
38804W        W11229   3.241  15.815   3.656
38805W        W11230  29.669  35.033  13.544
38806W        W11231  20.064  39.861   1.743
38807W        W11232  10.206  24.167  12.490
38808W        W11233  43.952  24.131   0.334
38809W        W11234   6.351  21.721  10.527
38810W        W11235  24.113  17.172   5.157
38811W        W11236   3.360  10.828  13.846
38812W        W11237   9.283  32.473   3.745
38813W        W11238  25.193  23.694   3.783
38814W        W11239   2.295  22.516   9.960
38815W        W11240  11.371  26.002   1.386
38816W        W11241  28.980  23.603  10.628
38817W        W11242  25.994  34.430   3.205
38818W        W11243  26.578  35.908   3.692
38819W        W11244  34.992   3.315  11.507
38820W        W11245   4.794  22.039   2.393
38821W        W11246  29.518  29.959  10.425
38822W        W11247  13.634  37.009  11.983
38823W        W11248  29.599  34.410   3.337
38824W        W11249  10.658  15.709  14.362
38825W        W11250  33.080  43.357   1.340
38826W        W11251  27.656   4.907   2.385
38827W        W11252   5.342   4.391  12.876
38828W        W11253  18.283  33.966   0.332
38829W        W11254  27.494   9.297   0.766
38830W        W11255  44.399  34.118  13.894
38831W        W11256  33.407  24.102  13.906
38832W        W11257  19.171  17.783   4.326
38833W        W11258  39.013  42.436   4.303
38834W        W11259  23.193  32.940   2.239
38835W        W11260  34.419  12.648  12.025
38836W        W11261  43.426  23.984   3.755
38837W        W11262  30.030  10.270   1.257
38838W        W11263  11.740  19.651   4.316
38839W        W11264  32.503  16.801  10.519
38840W        W11265  33.903  34.463  13.979
38841W        W11266  23.219   8.319  12.488
38842W        W11267  40.928   8.749  13.021
38843W        W11268   4.907   8.405  10.149
38844W        W11269  42.006  36.974   1.802
38845W        W11270  11.173  22.657  11.858
38846W        W11271  30.452  27.130  13.028
38847W        W11272   8.660   6.403  12.434
38848W        W11273  16.609  31.487   3.269
38849W        W11274  23.101  19.277   0.894
38850W        W11275   8.269  23.222   3.317
38851W        W11276  40.549   9.171  12.456
38852W        W11277   5.388  21.710   3.300
38853W        W11278   3.917  23.490  11.116
38854W        W11279   8.338   8.835   0.749
38855W        W11280   6.896   0.397   4.281
38856W        W11281  32.392   7.308   1.434
38857W        W11282  38.488  13.128   3.203
38858W        W11283  15.761  18.756   3.366
38859W        W11284  27.660  15.630   2.210
38860W        W11285  36.025  40.516   2.188
38861W        W11286  16.669  26.115  12.403
38862W        W11287  19.626  38.979  14.358
38863W        W11288  44.479  22.716  14.468
38864W        W11289   9.367  38.515  14.852
38865W        W11290  39.868  25.575   1.230
38866W        W11291  23.194  32.013  14.794
38867W        W11292  18.081  41.443  12.089
38868W        W11293   9.659  42.861  11.441
38869W        W11294  37.083   1.737  14.839
38870W        W11295   7.869  25.548   1.380
38871W        W11296  44.331  35.040   1.754
38872W        W11297  32.095  26.084  11.590
38873W        W11298  38.935   9.387  10.106
38874W        W11299  36.405   6.379  11.420
38875W        W11300  42.452   0.769   1.866
38876W        W11301  10.815  29.176   1.813
38877W        W11302  38.432   5.843  14.846
38878W        W11303  16.275  40.904   1.279
38879W        W11304  31.433  22.130   4.181
38880W        W11305  39.382  28.634  12.823
38881W        W11306   4.247  33.606  13.941
38882W        W11307  37.042  24.104  13.512
38883W        W11308  23.715  35.010  11.881
38884W        W11309  17.153  41.934  13.052
38885W        W11310  17.162  28.116   9.969
38886W        W11311  34.091  20.615  12.946
38887W        W11312  42.796  11.761  13.439
38888W        W11313  21.022  39.519  11.040
38889W        W11314   2.892  35.573   0.727
38890W        W11315  18.700   5.818   9.939
38891W        W11316  13.685  32.401  12.371
38892W        W11317   3.895   3.883  10.921
38893W        W11318  36.028   0.942  13.882
38894W        W11319  15.120  29.946  14.819
38895W        W11320  17.695  38.562  11.473
38896W        W11321  41.984  33.875   4.128
38897W        W11322   8.290  17.756   4.609
38898W        W11323  16.742  35.487   3.639
38899W        W11324  18.103  29.585   4.803
38900W        W11325  11.790   0.288  12.464
38901W        W11326  38.935   8.177   1.351
38902W        W11327  40.024  40.907   0.245
38903W        W11328  41.445  12.175   2.845
38904W        W11329  27.581   5.742  12.854
38905W        W11330  18.610  41.452  13.465
38906W        W11331  24.137  18.096   1.251
38907W        W11332  22.659  20.557  13.390
38908W        W11333   0.861  13.820   4.834
38909W        W11334  15.180   2.230  10.139
38910W        W11335  28.507  14.637   3.279
38911W        W11336   1.391  16.129   1.725
38912W        W11337  39.032  26.553  10.955
38913W        W11338   5.813   0.456   0.343
38914W        W11339  37.861  31.972  13.532
38915W        W11340  10.182  16.738   0.409
38916W        W11341  16.657   2.937  14.420
38917W        W11342  40.452  34.911   1.864
38918W        W11343  42.937  14.241   9.959
38919W        W11344   2.261  14.279  14.410
38920W        W11345  18.144  40.988   1.247
38921W        W11346  29.531  40.898   2.182
38922W        W11347   0.962  18.264  14.432
38923W        W11348  17.593   1.375   1.262
38924W        W11349  19.728  16.146  12.361
38925W        W11350  32.430  20.650  12.351
38926W        W11351  19.671  38.831  14.836
38927W        W11352  23.581   0.375   1.450
38928W        W11353  15.735  44.983  13.862
38929W        W11354  16.690  36.025   2.257
38930W        W11355   5.801  28.097   0.439
38931W        W11356  25.489  31.023   4.832
38932W        W11357  42.846   5.285  13.040
38933W        W11358   8.742  28.471   4.127
38934W        W11359   6.692  27.083  13.970
38935W        W11360  30.514  10.688   2.363
38936W        W11361  32.610  28.616   3.638
38937W        W11362  22.528  28.929   2.839
38938W        W11363  40.879  28.455  13.854
38939W        W11364   7.835   6.824  12.542
38940W        W11365  30.154  27.587   4.756
38941W        W11366  20.604  12.276   3.698
38942W        W11367  18.616  29.627   5.311
38943W        W11368   8.698  37.962   4.300
38944W        W11369  43.773  21.659   0.857
38945W        W11370  31.953  24.709   2.684
38946W        W11371  34.948   9.643   2.902
38947W        W11372  33.072   6.685  10.431
38948W        W11373  42.305  12.251  11.856
38949W        W11374  28.526  43.385  10.906
38950W        W11375  22.181  43.292  13.893
38951W        W11376  20.711  30.958  12.008
38952W        W11377  36.943  10.294   3.725
38953W        W11378  22.012  23.162   1.228
38954W        W11379  21.182  18.672  12.970
38955W        W11380  34.043   9.209   4.285
38956W        W11381  40.309   1.435  10.425
38957W        W11382  22.155  12.273   4.787
38958W        W11383  36.974  26.466  12.506
38959W        W11384  23.658  38.960  12.490
38960W        W11385   4.275  15.600  12.996
38961W        W11386   8.388  38.924   4.628
38962W        W11387   7.229  40.049  10.609
38963W        W11388  17.097  23.719   0.943
38964W        W11389  25.520  35.990   0.284
38965W        W11390  22.048  22.203  10.941
38966W        W11391  41.971   3.753  13.948
38967W        W11392  43.947   8.211   0.947
38968W        W11393  32.023  36.517   3.210
38969W        W11394  20.092   4.258  14.276
38970W        W11395  24.616  35.543  14.329
38971W        W11396   7.733  37.030   3.192
38972W        W11397  12.834  18.054   0.379
38973W        W11398  44.309  41.432  11.528
38974W        W11399   9.149  22.747   0.890
38975W        W11400  25.656  10.822  10.950
38976W        W11401  13.610  33.512   4.181
38977W        W11402   5.738  19.254  12.483
38978W        W11403  12.243  26.066  13.916
38979W        W11404  37.059  32.083   3.357
38980W        W11405  16.165   7.752  12.840
38981W        W11406  27.475  12.735   4.141
38982W        W11407  25.534  10.150   9.969
38983W        W11408  30.062   8.682   0.343
38984W        W11409  33.118  44.948   2.711
38985W        W11410  30.572  18.118  12.406
38986W        W11411  12.194  14.695   3.269
38987W        W11412  10.188   6.796   4.788
38988W        W11413   7.280  41.797   2.382
38989W        W11414  44.422   2.825  11.566
38990W        W11415   3.456   3.776  13.061
38991W        W11416  27.064   6.921  12.984
38992W        W11417  44.346  34.481   4.651
38993W        W11418  40.002  12.613   4.269
38994W        W11419  40.311  24.111  11.527
38995W        W11420  35.087   4.867  10.464
38996W        W11421  44.439  44.759  12.040
38997W        W11422   0.407  43.923   3.698
38998W        W11423   6.374   1.394   2.181
38999W        W11424  35.580  15.266   4.135
39000W        W11425  23.564  42.413   1.296
39001W        W11426  21.236  39.381  11.944
39002W        W11427   0.750  15.624  11.476
39003W        W11428   3.373  20.683  11.482
39004W        W11429   5.227  15.211  10.923
39005W        W11430  15.218  30.427  12.555
39006W        W11431  19.188  27.575  12.429
39007W        W11432   0.910  37.907  11.393
39008W        W11433   6.325  37.514  14.005
39009W        W11434   3.436  34.957   0.441
39010W        W11435  17.764  16.756   3.336
39011W        W11436  21.564   9.676  13.399
39012W        W11437  15.304  10.228  10.920
39013W        W11438  18.566  34.452   1.839
39014W        W11439  22.247  31.536  14.329
39015W        W11440  26.207   5.229  13.962
39016W        W11441  11.287   7.817  13.054
39017W        W11442  43.912  26.979  13.059
39018W        W11443   6.782  12.299   4.280
39019W        W11444  40.333   0.250  14.797
39020W        W11445  39.462   5.430  13.547
39021W        W11446  19.172   6.821  13.000
39022W        W11447  33.384  38.043   4.308
39023W        W11448   3.229   3.808  13.831
39024W        W11449  34.985  25.213   4.601
39025W        W11450  36.943  41.845   2.352
39026W        W11451  23.514  21.751   4.304
39027W        W11452  19.073   4.717   4.785
39028W        W11453  43.016   9.215   3.343
39029W        W11454  28.015   6.240   1.914
39030W        W11455  40.428  10.266   0.324
39031W        W11456   3.222  14.295  13.375
39032W        W11457  12.334  40.932  11.903
39033W        W11458  26.525   6.911  13.528
39034W        W11459   1.965   3.232  14.929
39035W        W11460  39.394   7.691   3.740
39036W        W11461  32.568  13.695   2.225
39037W        W11462  30.019  14.246   1.402
39038W        W11463  11.690   5.402  13.519
39039W        W11464  27.977  29.117  10.974
39040W        W11465  35.909  12.194   0.409
39041W        W11466  12.215  28.175   2.665
39042W        W11467  33.457  28.030  11.380
39043W        W11468   0.952  12.330   1.354
39044W        W11469   3.746  35.073   0.242
39045W        W11470  32.987  41.788   0.283
39046W        W11471  29.649  33.919  14.457
39047W        W11472  43.998  37.004   3.370
39048W        W11473   2.330   3.833   3.305
39049W        W11474  39.009  27.610  13.512
39050W        W11475   7.334  41.951   4.808
39051W        W11476  35.097  30.980   4.646
39052W        W11477  30.909  19.716   3.291
39053W        W11478  30.463  38.371   1.704
39054W        W11479  28.434   5.264   4.753
39055W        W11480  34.881  23.195   1.216
39056W        W11481  25.524  41.921  11.580
39057W        W11482   2.772  25.097  10.428
39058W        W11483  31.111   9.335  14.765
39059W        W11484  18.077  15.306   0.832
39060W        W11485  19.186   0.317  10.629
39061W        W11486  36.961   0.453   2.237
39062W        W11487  29.634  38.456   2.260
39063W        W11488  38.968   1.965   0.867
39064W        W11489  40.350   3.825   3.249
39065W        W11490  34.058   5.307   2.889
39066W        W11491  31.968  22.034  11.123
39067W        W11492  36.442  28.965  10.423
39068W        W11493  44.784  34.058   0.361
39069W        W11494  28.120   9.878  14.763
39070W        W11495  44.824   6.408   2.836
39071W        W11496  22.157  18.720   3.819
39072W        W11497  23.055  22.197   0.382
39073W        W11498  32.411  14.600  13.324
39074W        W11499  37.517  14.703   3.290
39075W        W11500  41.788  10.702   0.873
39076W        W11501   1.397   1.854  14.451
39077W        W11502  40.483   0.248   0.437
39078W        W11503  16.691   9.259   4.639
39079W        W11504   0.380  28.606   3.251
39080W        W11505  15.589  27.158  12.501
39081W        W11506  36.096  29.080  13.357
39082W        W11507  32.108  30.913   0.841
39083W        W11508  42.987  24.028   4.130
39084W        W11509  39.374  34.991  14.796
39085W        W11510   3.849  33.454  12.973
39086W        W11511  13.798  17.098  10.519
39087W        W11512   8.682   0.311   2.688
39088W        W11513   1.754  12.347   3.245
39089W        W11514  30.540   9.750  14.367
39090W        W11515   4.774  11.195  12.872
39091W        W11516   7.756   7.698   2.393
39092W        W11517  14.646  13.176  12.868
39093W        W11518  32.897   7.872   0.780
39094W        W11519   2.419  27.993  14.817
39095W        W11520  25.575  39.493  10.588
39096W        W11521  30.544   1.324   2.237
39097W        W11522   3.732  20.596   0.432
39098W        W11523   5.839  33.954  11.468
39099W        W11524  27.683  12.692  10.637
39100W        W11525   8.228  43.869   1.817
39101W        W11526  10.687   1.274  14.929
39102W        W11527   1.966  17.298   1.434
39103W        W11528  38.869  14.267  14.398
39104W        W11529  16.658  19.041  12.358
39105W        W11530  29.105  41.431  14.340
39106W        W11531   6.788  38.571  13.373
39107W        W11532  26.657  22.683   3.385
39108W        W11533  36.357  21.575   3.658
39109W        W11534  37.447  32.084  11.118
39110W        W11535  44.993  12.153   0.911
39111W        W11536  17.797  24.633   1.814
39112W        W11537  36.389  30.431   9.948
39113W        W11538   4.410  17.154   2.292
39114W        W11539  27.692   7.911  13.040
39115W        W11540  10.672  36.066   4.215
39116W        W11541  25.140   3.801  12.051
39117W        W11542   7.912  43.387  11.554
39118W        W11543  34.453  10.635   1.414
39119W        W11544   3.364   5.328  11.881
39120W        W11545   9.245  24.721  11.410
39121W        W11546  28.473  25.076   0.290
39122W        W11547   9.790  38.345   3.232
39123W        W11548  35.015  20.554  13.425
39124W        W11549  21.738  14.235   2.711
39125W        W11550   9.393  39.556   4.121
39126W        W11551  21.057  42.819   5.228
39127W        W11552   0.885   6.243   0.302
39128W        W11553  31.463  35.394   3.674
39129W        W11554  25.511  10.148  10.429
39130W        W11555  33.130  13.643  12.968
39131W        W11556  28.587  33.007  12.421
39132W        W11557  17.087  29.933   4.289
39133W        W11558  27.158  26.007  14.996
39134W        W11559  15.740  43.878   0.259
39135W        W11560  18.052  43.478  13.811
39136W        W11561  35.393  21.733   2.394
39137W        W11562   5.889  11.655   1.251
39138W        W11563  30.557   3.819   1.892
39139W        W11564  33.045  19.188  10.509
39140W        W11565  20.105  42.965   3.218
39141W        W11566  10.280  32.402   0.910
39142W        W11567  28.478  26.147   0.782
39143W        W11568  23.688  24.653   0.374
39144W        W11569  41.870  34.919   0.951
39145W        W11570   5.841  40.988  11.964
39146W        W11571  17.616   1.966  10.925
39147W        W11572  29.128  42.899  14.773
39148W        W11573  10.222  29.919   4.335
39149W        W11574   7.868  22.062  11.080
39150W        W11575  43.869  23.623  14.433
39151W        W11576   8.173  33.453  10.982
39152W        W11577   1.817  12.789   0.483
39153W        W11578  39.862  11.757  14.344
39154W        W11579  29.473  24.049   2.198
39155W        W11580  35.900  24.647   4.145
39156W        W11581  21.151   0.880  13.063
39157W        W11582  44.363   5.731   0.756
39158W        W11583  35.901   5.703  11.378
39159W        W11584  14.127  17.571  12.442
39160W        W11585   7.317  31.474   2.731
39161W        W11586  26.463  23.712   1.428
39162W        W11587  24.122  17.763  13.515
39163W        W11588  19.646  41.319  13.467
39164W        W11589  44.894  20.167  10.505
39165W        W11590  18.676  38.565   4.132
39166W        W11591  13.309  24.104   4.142
39167W        W11592  25.966  21.600   4.223
39168W        W11593  22.591  15.616   4.743
39169W        W11594  18.582  28.079  11.871
39170W        W11595   5.381   4.357  12.349
39171W        W11596  22.202   2.770   1.817
39172W        W11597  16.672   4.875  13.852
39173W        W11598  31.521  32.475   2.408
39174W        W11599  30.147   7.311  13.888
39175W        W11600  20.088  40.926   2.211
39176W        W11601  39.508  26.192   2.311
39177W        W11602  24.521   5.904  14.297
39178W        W11603  17.123  39.819   1.395
39179W        W11604  23.058  31.566   4.258
39180W        W11605  42.802  32.043   3.275
39181W        W11606  38.038  14.759  13.904
39182W        W11607  15.741  27.029   1.877
39183W        W11608  15.740   5.400  14.846
39184W        W11609  35.505  27.453   1.361
39185W        W11610  29.668   1.451   3.238
39186W        W11611  43.868  39.985   3.642
39187W        W11612  21.612   2.281   4.247
39188W        W11613  19.222   7.410   0.900
39189W        W11614   2.946  16.695  11.526
39190W        W11615  30.160  19.091   0.300
39191W        W11616   5.404  31.149   2.269
39192W        W11617  32.567  20.114   4.253
39193W        W11618  38.402   6.319  13.487
39194W        W11619   6.799  24.088  13.966
39195W        W11620  10.784  22.125   2.300
39196W        W11621  24.529  20.048   1.377
39197W        W11622  40.975  12.289   1.773
39198W        W11623  16.251  43.347   1.350
39199W        W11624  39.877  20.161   3.798
39200W        W11625  41.887   7.790  13.858
39201W        W11626  37.031  34.038   2.751
39202W        W11627   0.955  44.373  11.582
39203W        W11628  17.133  20.687   3.786
39204W        W11629  28.182  18.276   2.749
39205W        W11630   2.281  22.152  12.952
39206W        W11631  25.203  12.656   2.782
39207W        W11632  22.218  42.322   0.943
39208W        W11633  11.366  34.605   1.251
39209W        W11634  34.522  29.647  10.560
39210W        W11635  20.192  37.455   1.286
39211W        W11636  17.147  28.679   1.305
39212W        W11637  14.329  24.040   4.338
39213W        W11638  13.760  18.296   0.413
39214W        W11639  44.356   0.475  14.878
39215W        W11640   3.298  39.495  11.901
39216W        W11641  17.626  18.618  14.761
39217W        W11642   4.744   6.297  11.954
39218W        W11643  37.973  31.088  10.562
39219W        W11644  34.474  37.521  13.451
39220W        W11645  41.985   7.686   1.840
39221W        W11646  37.465  29.932   0.355
39222W        W11647  23.187   7.200   4.783
39223W        W11648   5.415  24.211   2.179
39224W        W11649  13.274  40.893  12.953
39225W        W11650  36.559   5.868   9.454
39226W        W11651  18.588  43.368   0.279
39227W        W11652  37.982  28.127  12.926
39228W        W11653  36.867   5.775   1.239
39229W        W11654  23.229  42.292   1.276
39230W        W11655  20.258  40.896  12.372
39231W        W11656   9.191  32.440  14.425
39232W        W11657  40.924  29.510  14.299
39233W        W11658   8.699   2.767   4.311
39234W        W11659  19.549  42.395  14.504
39235W        W11660  44.859  43.776  14.330
39236W        W11661  24.070  17.186   2.896
39237W        W11662  37.454  36.002   4.738
39238W        W11663  16.090   0.854  10.943
39239W        W11664   4.432   4.427   2.298
39240W        W11665  42.961   1.382  12.561
39241W        W11666  30.061  31.025   4.304
39242W        W11667  10.744   3.341  11.541
39243W        W11668   6.204   4.279  13.946
39244W        W11669   2.288   0.839  10.627
39245W        W11670  40.501  44.349   0.778
39246W        W11671  12.774   7.739   4.729
39247W        W11672  13.806  41.862  11.044
39248W        W11673   5.355  24.202  13.845
39249W        W11674  29.929  21.249   5.702
39250W        W11675  31.508  44.462  12.993
39251W        W11676  27.655  10.368   0.303
39252W        W11677  42.478   7.697  13.312
39253W        W11678  41.842  44.409   0.877
39254W        W11679  34.464  42.475  10.527
39255W        W11680   0.343   4.813   1.857
39256W        W11681  34.989   2.834   0.341
39257W        W11682  32.964  34.575   3.176
39258W        W11683  36.094  19.208  12.520
39259W        W11684  41.884  13.766  11.050
39260W        W11685   3.293  17.145  13.897
39261W        W11686   4.821  33.936  12.343
39262W        W11687  42.028  12.644   1.282
39263W        W11688  38.932  41.884  11.078
39264W        W11689  24.646  10.679   2.868
39265W        W11690  35.531  12.691   1.333
39266W        W11691  20.701  32.508  14.360
39267W        W11692  31.955   6.719   1.843
39268W        W11693  16.281   2.232   2.836
39269W        W11694  19.102  31.906   0.782
39270W        W11695  16.664   7.351  12.431
39271W        W11696  37.502   5.312  10.529
39272W        W11697  42.887  38.451  12.902
39273W        W11698  24.217  23.644  13.053
39274W        W11699  14.236  41.414  14.494
39275W        W11700  20.553  23.515  13.866
39276W        W11701  18.228  18.784   2.329
39277W        W11702  16.180  31.945   0.298
39278W        W11703  13.772  12.650   4.722
39279W        W11704  11.760  42.895   4.221
39280W        W11705  16.106  34.613   3.290
39281W        W11706   1.948  27.941  12.955
39282W        W11707  26.611  15.111   2.408
39283W        W11708  19.766  17.673   3.847
39284W        W11709   7.849  29.612   1.222
39285W        W11710  35.576  41.340  12.044
39286W        W11711  43.457  41.499  12.923
39287W        W11712   1.355  43.007   2.894
39288W        W11713  27.674  23.628  12.078
39289W        W11714  41.017   8.857  12.362
39290W        W11715   6.338  43.798   2.805
39291W        W11716  32.074  31.491  14.330
39292W        W11717   2.789  19.575  10.924
39293W        W11718   8.175  26.590   0.786
39294W        W11719  41.417  16.180   0.929
39295W        W11720   8.760  33.553   0.400
39296W        W11721  26.543  11.279   3.840
39297W        W11722  44.491  30.466  10.491
39298W        W11723  29.952  43.370   3.861
39299W        W11724  21.192  37.527   9.950
39300W        W11725  44.334  39.350  13.390
39301W        W11726  41.453   0.788  12.520
39302W        W11727  17.129   1.332   1.822
39303W        W11728   7.360  31.068   2.210
39304W        W11729  33.957  30.116   4.179
39305W        W11730  33.943  24.591   4.724
39306W        W11731  20.731  16.807  14.289
39307W        W11732  35.589  28.458   2.361
39308W        W11733  24.701  18.224   0.303
39309W        W11734   7.670  37.994  12.041
39310W        W11735  36.503  10.142  10.964
39311W        W11736  13.177  32.067  10.635
39312W        W11737  27.978  35.890  10.898
39313W        W11738  10.302  28.482   1.830
39314W        W11739  32.463  18.631   4.270
39315W        W11740  27.586   9.882   1.360
39316W        W11741  15.695  23.595  10.029
39317W        W11742   9.650  23.647   3.344
39318W        W11743  44.953  25.034  12.055
39319W        W11744  36.866   6.820  13.891
39320W        W11745  35.370  11.205  12.381
39321W        W11746  28.646  12.362  14.828
39322W        W11747  37.051  29.528   3.328
39323W        W11748  23.609  19.647   4.172
39324W        W11749  28.675   4.812  14.479
39325W        W11750  34.086  36.532  12.375
39326W        W11751  34.008   2.943   0.313
39327W        W11752   1.445  41.292  13.396
39328W        W11753  20.221  33.539   3.249
39329W        W11754   2.304  27.676  14.977
39330W        W11755   1.852  23.624  11.931
39331W        W11756  28.150  18.062  11.587
39332W        W11757  29.167  33.442   2.270
39333W        W11758  25.051   2.449   2.392
39334W        W11759   3.869  15.582  14.349
39335W        W11760   5.365  31.069   0.895
39336W        W11761   7.302   7.214   1.885
39337W        W11762  26.203  32.554   0.349
39338W        W11763  14.150   2.409   2.284
39339W        W11764  10.640  10.658  14.429
39340W        W11765  39.916  24.065   3.295
39341W        W11766  33.550   9.203   1.409
39342W        W11767  33.946  21.193  13.455
39343W        W11768  18.190  23.225   2.349
39344W        W11769  28.652  21.600  13.521
39345W        W11770  32.120   9.190  12.350
39346W        W11771  32.588  28.618   0.466
39347W        W11772  14.289  18.714   3.732
39348W        W11773  28.676   4.259   2.308
39349W        W11774  21.152  36.851   1.356
39350W        W11775  19.061  13.708  10.597
39351W        W11776  28.138  30.604  14.764
39352W        W11777  25.556  39.414  11.582
39353W        W11778   3.860  12.248  14.904
39354W        W11779  28.142  25.189  14.776
39355W        W11780  39.828  37.941   3.699
39356W        W11781  42.392  41.921   0.473
39357W        W11782   7.717   3.266  11.123
39358W        W11783  18.230  17.085   0.892
39359W        W11784  36.971  19.677   0.337
39360W        W11785   1.970   6.305   1.297
39361W        W11786  14.824  17.269   3.795
39362W        W11787  27.074  23.219   1.343
39363W        W11788  15.699  24.226  10.019
39364W        W11789   8.753  25.503   0.333
39365W        W11790  23.689  34.956   4.597
39366W        W11791  41.870  43.939   3.153
39367W        W11792  11.189   4.344  14.359
39368W        W11793  16.761  37.545  12.885
39369W        W11794   1.869  36.379   0.786
39370W        W11795  24.596  38.493  12.424
39371W        W11796   5.806  20.548  14.471
39372W        W11797  41.963  29.071   3.770
39373W        W11798  36.894   1.373   0.808
39374W        W11799  11.759  28.562   4.154
39375W        W11800  24.497  15.325   2.282
39376W        W11801   5.806  30.483   2.700
39377W        W11802  33.877  16.138   0.268
39378W        W11803  19.544  33.067   4.213
39379W        W11804  20.603  36.947   0.387
39380W        W11805  29.523  43.398  13.954
39381W        W11806  14.245  40.526  14.963
39382W        W11807  30.145  12.703   1.782
39383W        W11808  40.427  24.225   4.761
39384W        W11809  29.988  42.943  10.989
39385W        W11810   1.379  39.407  12.068
39386W        W11811  20.230   7.889  14.461
39387W        W11812  10.651  41.004  12.949
39388W        W11813  38.364   2.243   0.889
39389W        W11814   2.799  40.988   2.827
39390W        W11815  38.450  16.722   4.243
39391W        W11816  15.217  39.482   4.129
39392W        W11817  42.514  28.151   3.845
39393W        W11818  15.597  11.145   0.392
39394W        W11819   5.417  21.711  12.519
39395W        W11820  10.320   1.946  13.969
39396W        W11821  43.287  27.581   1.407
39397W        W11822  15.122  39.544  12.918
39398W        W11823  38.922  27.535   2.333
39399W        W11824   4.932   6.760  10.544
39400W        W11825  39.834  42.872   3.166
39401W        W11826  18.145   0.826   3.231
39402W        W11827  26.105  37.544  10.474
39403W        W11828  38.455   0.368   2.414
39404W        W11829  43.415  37.394  11.901
39405W        W11830  23.214  28.086  10.608
39406W        W11831  35.538  32.563   4.625
39407W        W11832   0.404  13.808   0.243
39408W        W11833  14.808  36.043  13.376
39409W        W11834  35.470  14.799   0.393
39410W        W11835  24.176  13.815   2.713
39411W        W11836  19.706   6.909   0.766
39412W        W11837  17.577  26.973  12.026
39413W        W11838  30.544   3.862   2.412
39414W        W11839  34.569  11.793   2.343
39415W        W11840  30.425  24.612  11.511
39416W        W11841   9.759  37.897  13.441
39417W        W11842  36.535  31.908   1.845
39418W        W11843  43.860  38.425   2.831
39419W        W11844  35.588  39.533   3.223
39420W        W11845   4.871  16.148  10.944
39421W        W11846   9.263  24.988  13.458
39422W        W11847  30.642  32.427   0.786
39423W        W11848  14.270   9.383   4.199
39424W        W11849  19.165  27.606  11.885
39425W        W11850   9.341  10.770  11.047
39426W        W11851   8.753   6.727   1.318
39427W        W11852   0.975  11.695   5.322
39428W        W11853  44.929  23.154  14.424
39429W        W11854  31.521  40.898   4.810
39430W        W11855  28.152  19.041  11.454
39431W        W11856   2.729  31.518  10.601
39432W        W11857  17.228  11.323   1.450
39433W        W11858   3.339  39.029  13.056
39434W        W11859  37.867   8.267  11.411
39435W        W11860  43.948  18.210   4.606
39436W        W11861  20.556  42.779  10.572
39437W        W11862   8.816  40.034  10.441
39438W        W11863  43.482  39.034   0.951
39439W        W11864  18.668  29.171   4.286
39440W        W11865  31.647  28.501  12.451
39441W        W11866  38.916  38.505   4.218
39442W        W11867  27.198  12.848   2.355
39443W        W11868  29.050  25.189   4.335
39444W        W11869  17.623  11.370  10.934
39445W        W11870  16.632  26.573   3.703
39446W        W11871  42.862   5.420   3.718
39447W        W11872  25.572  33.112  10.579
39448W        W11873  44.347   0.952   1.803
39449W        W11874  10.848  16.603   0.858
39450W        W11875  24.210  42.344  12.982
39451W        W11876  21.551  41.537  14.778
39452W        W11877   2.783   5.697  12.475
39453W        W11878  10.860  11.837  14.876
39454W        W11879  40.041  13.165   3.761
39455W        W11880   6.214  42.843  11.494
39456W        W11881  37.437  35.508  13.897
39457W        W11882  42.431  40.890   0.801
39458W        W11883  26.542  11.175   2.183
39459W        W11884  32.617   0.821  10.581
39460W        W11885  37.048   9.743   4.687
39461W        W11886  26.031  27.490   4.294
39462W        W11887  13.229  36.085  11.008
39463W        W11888   7.392  13.258   3.272
39464W        W11889  17.143  11.838   5.276
39465W        W11890  13.648   5.196  10.901
39466W        W11891   8.679  23.107  14.934
39467W        W11892   1.974  20.667  10.895
39468W        W11893  19.123  41.354   3.362
39469W        W11894  37.397  43.320   0.781
39470W        W11895  30.518  28.037   5.097
39471W        W11896   4.773  29.033   2.746
39472W        W11897  41.448  44.261  12.463
39473W        W11898  28.108  10.709   3.210
39474W        W11899  15.603   0.398  11.034
39475W        W11900  26.025  19.155  13.538
39476W        W11901   3.333  12.348   1.877
39477W        W11902  26.033   1.404   3.374
39478W        W11903  42.982  24.567  14.412
39479W        W11904  24.491  37.341   0.274
39480W        W11905  29.045  19.746   4.813
39481W        W11906  18.727  40.540   0.944
39482W        W11907  27.188  13.290  14.443
39483W        W11908  10.299  12.233   2.416
39484W        W11909  43.012  39.437   2.380
39485W        W11910  36.437  13.325  14.363
39486W        W11911  42.887  34.604  14.981
39487W        W11912  35.387  25.635   0.383
39488W        W11913  26.504   3.255   3.301
39489W        W11914  12.307  11.155  11.034
39490W        W11915  40.970  24.026  14.342
39491W        W11916  23.136  23.024  12.853
39492W        W11917  16.655  20.649   2.405
39493W        W11918  15.664  12.808   3.813
39494W        W11919   9.646  22.671   0.801
39495W        W11920  40.019  12.620  12.937
39496W        W11921  29.976  31.043  14.364
39497W        W11922  26.110  43.006   1.266
39498W        W11923   3.281   7.368   0.463
39499W        W11924   2.242   3.802  10.910
39500W        W11925  23.717  34.494  11.001
39501W        W11926  24.585  38.490  12.855
39502W        W11927  34.864   0.812   1.320
39503W        W11928  34.957  38.944  10.479
39504W        W11929  31.142  35.960  14.299
39505W        W11930  32.958  22.079   4.618
39506W        W11931   4.399  32.426   1.919
39507W        W11932   2.440  20.094  12.832
39508W        W11933  36.516   3.284  12.483
39509W        W11934  28.639   8.743   3.760
39510W        W11935   6.845  33.028  11.407
39511W        W11936   5.211  23.504  14.484
39512W        W11937  22.010   4.391  13.859
39513W        W11938  41.359  34.033  13.500
39514W        W11939  37.437  24.694  11.105
39515W        W11940   4.352  42.324   0.358
39516W        W11941   6.826  41.393  13.436
39517W        W11942  10.702  17.800   2.724
39518W        W11943  39.351   6.266  11.093
39519W        W11944   3.780  18.691  12.958
39520W        W11945  26.116   5.418   1.880
39521W        W11946  10.366  11.738   4.622
39522W        W11947  36.870  25.649  12.500
39523W        W11948  37.914  18.150  14.814
39524W        W11949   0.389   0.383  11.516
39525W        W11950  41.852  38.822   4.136
39526W        W11951   0.341  17.564   1.747
39527W        W11952  18.158   6.239  13.410
39528W        W11953   8.405  25.686  10.573
39529W        W11954  25.205  44.448  14.919
39530W        W11955  14.334  29.057   3.757
39531W        W11956  42.443  34.932  12.380
39532W        W11957  15.814   5.770  13.516
39533W        W11958  31.409  25.467   3.369
39534W        W11959  26.976  41.432  14.348
39535W        W11960  13.324  30.492  11.597
39536W        W11961  18.107   8.873  13.888
39537W        W11962  14.223   7.775   4.763
39538W        W11963  28.498   5.204   0.343
39539W        W11964  20.058  18.152  14.014
39540W        W11965  42.460  30.005  12.552
39541W        W11966  16.127  28.159  14.970
39542W        W11967   5.749  22.701   4.133
39543W        W11968   6.882  35.403   0.360
39544W        W11969  14.669   6.733  13.961
39545W        W11970  23.227  30.512   0.814
39546W        W11971  27.945  21.053  14.502
39547W        W11972  11.751  37.879  12.945
39548W        W11973  33.527  11.310   1.814
39549W        W11974   0.321  34.524  11.042
39550W        W11975  27.569   8.861   0.456
39551W        W11976  42.851  33.463  13.544
39552W        W11977   1.957  22.642   3.259
39553W        W11978  25.705  20.573  14.495
39554W        W11979  36.434   0.899   0.410
39555W        W11980  42.458   8.779  14.873
39556W        W11981  37.427  14.659  11.098
39557W        W11982  41.329  20.594  13.535
39558W        W11983  19.766   4.221  10.944
39559W        W11984   8.246  19.594   3.757
39560W        W11985  28.524   6.322   2.275
39561W        W11986  32.423  12.645  11.992
39562W        W11987  32.563  44.419  10.940
39563W        W11988  11.286  35.467   1.775
39564W        W11989  15.278  22.085  10.889
39565W        W11990  37.538  41.436  14.501
39566W        W11991  17.788  31.599  11.506
39567W        W11992  32.916  44.990  13.548
39568W        W11993   6.182  37.876  12.487
39569W        W11994  22.583  42.028  10.580
39570W        W11995  24.582   0.797   2.371
39571W        W11996  43.974  11.638   0.898
39572W        W11997  33.068  11.262   0.251
39573W        W11998  14.142  12.261  13.822
39574W        W11999  11.357  18.212   2.323
39575W        W12000  36.898  32.889   4.818
39576W        W12001  21.066   4.895   3.209
39577W        W12002  33.929  33.434  14.413
39578W        W12003  27.193  37.049  11.430
39579W        W12004   9.876   1.269   4.168
39580W        W12005  27.498  36.064  11.506
39581W        W12006  24.975  29.605  12.079
39582W        W12007  42.399  35.064   1.275
39583W        W12008  18.121  25.202  13.883
39584W        W12009   9.221  21.733  10.987
39585W        W12010  38.895  44.328  10.124
39586W        W12011  18.188  44.753  12.056
39587W        W12012  15.721   5.381  10.063
39588W        W12013  31.555   0.251   4.790
39589W        W12014  25.094  26.041  12.558
39590W        W12015  33.098  35.863   1.270
39591W        W12016  37.455   5.697  13.937
39592W        W12017  27.580  27.195  12.909
39593W        W12018  43.799  22.608   3.327
39594W        W12019  39.442  11.797   0.273
39595W        W12020  36.562  25.496   4.833
39596W        W12021  35.546  26.572  14.837
39597W        W12022  32.001   1.471   3.652
39598W        W12023  28.491  13.343   0.894
39599W        W12024   8.792  30.622  14.383
39600W        W12025  17.107  27.585  11.526
39601W        W12026  43.941  14.171   3.633
39602W        W12027  41.456  25.661  14.915
39603W        W12028  32.412  36.399  13.821
39604W        W12029   4.919  40.358   0.951
39605W        W12030  36.967   4.769   4.662
39606W        W12031  26.148  15.683   2.354
39607W        W12032  36.043  25.144  12.093
39608W        W12033  10.169   7.181   0.773
39609W        W12034  15.777  26.050   3.639
39610W        W12035  22.517  37.081   3.180
39611W        W12036   8.164  14.197   4.635
39612W        W12037  31.066  39.065   0.433
39613W        W12038  40.905   3.806   3.846
39614W        W12039  15.702  13.686  13.950
39615W        W12040  42.366  43.383   3.247
39616W        W12041  20.028  38.826   2.289
39617W        W12042   8.388  28.159   4.191
39618W        W12043  27.101  13.316   4.233
39619W        W12044  42.427  19.141   2.867
39620W        W12045  39.046   5.234  10.510
39621W        W12046  13.316  32.438  14.481
39622W        W12047  44.414   3.921  11.582
39623W        W12048  20.076  17.652   2.182
39624W        W12049  34.382  28.175  11.391
39625W        W12050  38.960  28.032   1.278
39626W        W12051  26.564   1.863   3.694
39627W        W12052  16.670   5.692   3.350
39628W        W12053  33.518  18.158   3.257
39629W        W12054  20.084  36.051   5.306
39630W        W12055  36.593  16.156  14.998
39631W        W12056  26.586   1.369  14.829
39632W        W12057  43.406  26.120  10.439
39633W        W12058  15.270  24.594  12.565
39634W        W12059  19.537  20.655  13.888
39635W        W12060  33.384  32.069  11.374
39636W        W12061  14.173   2.237   3.291
39637W        W12062   3.719  42.453   3.705
39638W        W12063   8.230  11.282   1.926
39639W        W12064  30.483  41.371   5.591
39640W        W12065   4.310   3.898  12.531
39641W        W12066  27.515  25.179   2.874
39642W        W12067  27.153  21.206   3.799
39643W        W12068  23.036   0.763  10.610
39644W        W12069  13.273   6.889  13.906
39645W        W12070   5.426  13.660   3.736
39646W        W12071  27.079  12.157   2.702
39647W        W12072   6.821  35.590   4.600
39648W        W12073   7.831   5.211   4.712
39649W        W12074  27.461  27.593   3.353
39650W        W12075  13.662   4.712   1.243
39651W        W12076  12.313   8.668  12.578
39652W        W12077  44.917  32.566   3.234
39653W        W12078  15.158  40.514   2.750
39654W        W12079  25.198   9.711  11.091
39655W        W12080  18.195  44.399   1.850
39656W        W12081   0.784  38.076   4.732
39657W        W12082  37.374   3.894   1.227
39658W        W12083  17.686  23.053   2.716
39659W        W12084   9.325  33.553   1.278
39660W        W12085  34.887   5.726   2.723
39661W        W12086   7.666  39.012  12.439
39662W        W12087  13.735   8.815  14.020
39663W        W12088  26.201  37.896  12.005
39664W        W12089  24.614  12.775  13.837
39665W        W12090  22.602  17.193   4.760
39666W        W12091   0.765  16.128   3.644
39667W        W12092  13.346  22.179   0.895
39668W        W12093   8.669  16.663  14.018
39669W        W12094  41.462  28.165   0.392
39670W        W12095  25.482  29.459   1.698
39671W        W12096   4.859  44.799   0.261
39672W        W12097  24.582  36.999  13.894
39673W        W12098  29.936  28.626  13.462
39674W        W12099  32.490   6.857   0.866
39675W        W12100  42.864  28.664   1.296
39676W        W12101  35.373  39.455   2.780
39677W        W12102  39.837  24.616   2.214
39678W        W12103  12.761  34.483   3.328
39679W        W12104  11.733  23.061   4.328
39680W        W12105  19.775  16.116   3.296
39681W        W12106  14.654  21.219  12.492
39682W        W12107  28.645  25.605  13.852
39683W        W12108  24.706   1.478  12.537
39684W        W12109  33.596  40.302   2.410
39685W        W12110  43.988  20.722  10.563
39686W        W12111  38.055   3.309  14.425
39687W        W12112  14.114  12.849  12.876
39688W        W12113  23.131   4.902   2.224
39689W        W12114  33.923  27.541   0.780
39690W        W12115   0.882  39.487  13.984
39691W        W12116  20.150  43.310   2.359
39692W        W12117   0.333  26.152  11.970
39693W        W12118  32.075  40.343  10.577
39694W        W12119   5.293  31.101   1.928
39695W        W12120  35.033  18.088  13.798
39696W        W12121  21.091   1.455   0.414
39697W        W12122  43.454  39.559   3.803
39698W        W12123   1.876  16.154   3.834
39699W        W12124  28.461  40.049  12.959
39700W        W12125  42.854  39.870   1.353
39701W        W12126  21.600  13.148   1.794
39702W        W12127  29.664  28.670   1.239
39703W        W12128  26.015  42.285  11.383
39704W        W12129  36.004  15.715  13.399
39705W        W12130   7.912  30.646  10.543
39706W        W12131  21.126  12.616  10.487
39707W        W12132   1.399  33.497   0.337
39708W        W12133  23.505  29.632  10.604
39709W        W12134   6.895  38.924   2.879
39710W        W12135  21.180  33.009   3.338
39711W        W12136   0.482  16.652  14.916
39712W        W12137   4.245  10.238   1.850
39713W        W12138  29.586  28.505   0.849
39714W        W12139  17.185  13.338  10.571
39715W        W12140  25.651  31.476   3.656
39716W        W12141  19.772   9.822  14.494
39717W        W12142  15.765  31.104  13.836
39718W        W12143   7.702  23.552   0.477
39719W        W12144  18.707  14.262   2.788
39720W        W12145  21.557  41.317  12.080
39721W        W12146  16.748  41.010   2.230
39722W        W12147  36.497  16.732  13.435
39723W        W12148  17.229  26.059   3.631
39724W        W12149  34.512  14.808  11.552
39725W        W12150  38.819  35.854   4.196
39726W        W12151  18.548   3.431  14.487
39727W        W12152  20.536  12.753   1.766
39728W        W12153  38.483   6.247  14.439
39729W        W12154   1.870   8.732  14.511
39730W        W12155  28.436  42.008  14.337
39731W        W12156  35.069  20.120   0.403
39732W        W12157  15.311   4.707  14.907
39733W        W12158  41.476  10.723  11.091
39734W        W12159  23.210  10.252   4.349
39735W        W12160  26.664   5.891  12.088
39736W        W12161  16.109  39.006   3.777
39737W        W12162  17.065  11.251  11.895
39738W        W12163  36.383   7.286  11.412
39739W        W12164  28.042  17.756  12.491
39740W        W12165   5.827   7.204   1.820
39741W        W12166  17.586  24.599   2.260
39742W        W12167  38.532   6.353   1.715
39743W        W12168  22.677  12.788   0.466
39744W        W12169  28.185  32.442  11.535
39745W        W12170  10.695  22.712   1.889
39746W        W12171  18.730  20.551  10.529
39747W        W12172   1.479  44.412   4.766
39748W        W12173   3.857   9.683  12.390
39749W        W12174  16.269   4.320   3.734
39750W        W12175  32.895  24.165  10.595
39751W        W12176  28.487   9.225  11.448
39752W        W12177  33.503  32.062   2.668
39753W        W12178   1.955  35.970  10.493
39754W        W12179  39.046  41.379   4.337
39755W        W12180  43.980  21.249  11.981
39756W        W12181   5.707   9.236  14.883
39757W        W12182   0.793  23.108  10.993
39758W        W12183  16.586  22.222   1.891
39759W        W12184  27.678  36.849   0.944
39760W        W12185  21.693  43.501   2.778
39761W        W12186  12.348   4.838   1.699
39762W        W12187   7.399  25.640  10.973
39763W        W12188  20.565   8.403   4.257
39764W        W12189  15.683  23.984  10.898
39765W        W12190   9.223  44.444  13.357
39766W        W12191   2.755  12.146  11.900
39767W        W12192  26.958  22.078  12.986
39768W        W12193  25.650  43.830   0.356
39769W        W12194   2.263   1.957   3.318
39770W        W12195  42.415  29.060   2.328
39771W        W12196  13.636   2.953  12.525
39772W        W12197  17.302   7.341  12.433
39773W        W12198  33.410  18.762   5.311
39774W        W12199   7.904   6.403  12.874
39775W        W12200   6.850  11.248  14.480
39776W        W12201  41.510  10.801   0.345
39777W        W12202  26.645  28.102  11.862
39778W        W12203   5.840  20.638   3.846
39779W        W12204  32.500   4.220  13.497
39780W        W12205  19.713  33.612   2.872
39781W        W12206  16.719  20.265   1.370
39782W        W12207  38.823  25.549   3.643
39783W        W12208  21.254  18.650   1.376
39784W        W12209  34.083  23.683  13.007
39785W        W12210  19.125  38.467  10.935
39786W        W12211   9.832  20.742   0.964
39787W        W12212   1.866   4.838   1.297
39788W        W12213  20.236   0.478   1.319
39789W        W12214  23.093  32.946  10.488
39790W        W12215  36.950  26.015   0.401
39791W        W12216   0.293  43.952  11.570
39792W        W12217  17.261  42.474   1.427
39793W        W12218   5.351  32.557  14.902
39794W        W12219  16.580  35.538   1.881
39795W        W12220   6.713   4.826   4.142
39796W        W12221  18.756  26.579  12.457
39797W        W12222  35.568  18.606  12.981
39798W        W12223  20.574  25.668   4.673
39799W        W12224  34.423  12.713  11.385
39800W        W12225  21.627  17.802  14.965
39801W        W12226   8.756  40.415  11.518
39802W        W12227  29.454  12.837  13.851
39803W        W12228  43.437  33.619  11.087
39804W        W12229  35.894   3.856  13.051
39805W        W12230  31.976  16.704  11.089
39806W        W12231  20.255   1.926  10.895
39807W        W12232  11.806   1.746   9.587
39808W        W12233  31.587  39.517  12.033
39809W        W12234  25.560  41.365  12.057
39810W        W12235   6.263  14.257  10.955
39811W        W12236  39.054  34.895   0.252
39812W        W12237  38.414  21.261   1.349
39813W        W12238  39.034  19.620  12.064
39814W        W12239  22.655   6.408   3.270
39815W        W12240  17.684  34.515  14.357
39816W        W12241   2.303  40.039  14.998
39817W        W12242  19.144  28.540   4.168
39818W        W12243   6.695  43.417   1.212
39819W        W12244  22.196  39.395   0.768
39820W        W12245  33.554  31.913   3.725
39821W        W12246  39.417  17.169  13.810
39822W        W12247  33.576   3.726  10.457
39823W        W12248  13.803   7.325  13.384
39824W        W12249  44.829   0.849  11.953
39825W        W12250  19.684  36.359  11.946
39826W        W12251   9.848  25.597  12.905
39827W        W12252  11.180  36.427   1.880
39828W        W12253   1.379  23.644   2.381
39829W        W12254  33.942  43.483  13.053
39830W        W12255  20.637  23.221  14.937
39831W        W12256  29.438   7.745  12.039
39832W        W12257  20.637  11.302  12.996
39833W        W12258   8.181   1.385  13.479
39834W        W12259  34.466  13.236  14.434
39835W        W12260  35.856  12.837   2.191
39836W        W12261   0.298  33.985   0.320
39837W        W12262  39.836   3.364  12.051
39838W        W12263  33.932  24.521   0.298
39839W        W12264  18.263  31.491  11.075
39840W        W12265  33.038  35.023  13.799
39841W        W12266  20.670  20.115   4.255
39842W        W12267   9.656   0.305  13.366
39843W        W12268  19.583  34.032   2.879
39844W        W12269  44.321  44.441  11.038
39845W        W12270   9.787   2.806  11.928
39846W        W12271  22.690   3.275  10.150
39847W        W12272  23.096  21.241  13.016
39848W        W12273  11.757  18.595   4.751
39849W        W12274  40.378  32.965  14.345
39850W        W12275  20.107  31.968   2.885
39851W        W12276  26.616  29.169  12.463
39852W        W12277   6.275   9.861  11.467
39853W        W12278   2.772  41.362   2.725
39854W        W12279  41.384  12.742  10.414
39855W        W12280  23.084  17.751  11.418
39856W        W12281   0.360   2.449  13.519
39857W        W12282  22.178   2.941  12.459
39858W        W12283  25.475  21.671  10.582
39859W        W12284  26.197  24.219   2.680
39860W        W12285  11.209  18.651   2.346
39861W        W12286   6.391  44.807  12.945
39862W        W12287  16.207  19.561   3.179
39863W        W12288  30.985  22.524   3.667
39864W        W12289  23.189   7.847  13.940
39865W        W12290  13.225  40.047  12.030
39866W        W12291  40.324  34.434   0.435
39867W        W12292  11.648   3.728   1.391
39868W        W12293  41.017  23.636   2.348
39869W        W12294  22.168   9.728  10.506
39870W        W12295  25.123  32.524   1.343
39871W        W12296  36.544  24.209  13.399
39872W        W12297   3.280  41.511  12.827
39873W        W12298  39.384  31.038  13.794
39874W        W12299  36.369  37.835   1.440
39875W        W12300   3.920  24.065  14.022
39876W        W12301  34.114  25.058  13.444
39877W        W12302   8.384  21.180  13.923
39878W        W12303  25.074  29.475   0.960
39879W        W12304  16.124  31.075  12.489
39880W        W12305   5.748  43.996   3.173
39881W        W12306  27.985   4.287  14.775
39882W        W12307  30.468  12.623   4.797
39883W        W12308  21.628  16.217   0.277
39884W        W12309  29.998  39.379   0.788
39885W        W12310  36.392  25.095  11.894
39886W        W12311  39.033  10.273  14.898
39887W        W12312   2.781  12.352  14.971
39888W        W12313   0.329  41.352  11.861
39889W        W12314  42.920  31.973  10.596
39890W        W12315  15.601  11.343  13.867
39891W        W12316  24.103   2.782  13.846
39892W        W12317  39.488  29.939   2.891
39893W        W12318   9.858  33.922   1.341
39894W        W12319  34.946  42.315   3.784
39895W        W12320  20.590  11.232  10.419
39896W        W12321  13.683  18.250  11.404
39897W        W12322  25.113  15.134  14.900
39898W        W12323  15.098  31.097   2.314
39899W        W12324   3.934  24.148   3.731
39900W        W12325  31.114  21.220   4.309
39901W        W12326  19.120  19.578  14.468
39902W        W12327  39.997  28.153   3.753
39903W        W12328  34.937   0.357  14.339
39904W        W12329  21.130  31.406  10.632
39905W        W12330  36.356  40.974  14.315
39906W        W12331  32.964  23.515  11.528
39907W        W12332  36.364  22.643   4.720
39908W        W12333  26.990  17.590  11.126
39909W        W12334  23.490   2.801   1.358
39910W        W12335  11.777  13.613   3.671
39911W        W12336  38.974  32.537   0.852
39912W        W12337   7.311  26.625   0.784
39913W        W12338  29.490  41.897  11.059
39914W        W12339  10.669  15.252   1.235
39915W        W12340   2.866  23.623   2.387
39916W        W12341  28.647  32.628  13.404
39917W        W12342  40.822  26.113  11.102
39918W        W12343  35.101  27.059   2.217
39919W        W12344  34.894  38.368  11.375
39920W        W12345   8.782  28.960  11.491
39921W        W12346  33.119   0.764   2.225
39922W        W12347  31.609  34.079  10.533
39923W        W12348  36.850  12.762  11.522
39924W        W12349   9.349  17.786  12.049
39925W        W12350  35.370  27.004   3.285
39926W        W12351  24.610  13.306   3.732
39927W        W12352   7.717  29.981  14.425
39928W        W12353  32.095   0.340   2.374
39929W        W12354   9.242  29.670   0.818
39930W        W12355   1.949  35.547  10.897
39931W        W12356  12.304  33.924  10.972
39932W        W12357  42.474   7.383  12.046
39933W        W12358  30.969  18.626   1.338
39934W        W12359  11.769  32.444  14.001
39935W        W12360   0.824  37.362  12.915
39936W        W12361   0.376  15.597  13.030
39937W        W12362  30.527   0.287   1.236
39938W        W12363  44.762  18.174   0.941
39939W        W12364   8.672  39.347   3.867
39940W        W12365  34.910   5.784  11.571
39941W        W12366  26.957  29.971  11.067
39942W        W12367  11.363  18.109   0.334
39943W        W12368  24.686  30.416  11.579
39944W        W12369   1.463  35.944  10.986
39945W        W12370  30.456  39.354   5.110
39946W        W12371   4.446  30.024   2.746
39947W        W12372  31.150  28.498   0.924
39948W        W12373  23.505  23.644  14.883
39949W        W12374   4.399  34.568  10.467
39950W        W12375   0.364  36.397   2.757
39951W        W12376  18.087  37.845   2.228
39952W        W12377   4.370  19.151  11.912
39953W        W12378  22.153  33.892  11.898
39954W        W12379  39.318  40.930  14.976
39955W        W12380  36.088  35.521   2.740
39956W        W12381  17.227  12.729   2.279
39957W        W12382   2.381  16.234  10.476
39958W        W12383  29.607   9.876  10.497
39959W        W12384  32.038  10.743  12.447
39960W        W12385   6.736  44.426  11.411
39961W        W12386  36.993  12.193  11.413
39962W        W12387   5.709  30.119   1.854
39963W        W12388   5.868  13.633  14.972
39964W        W12389  21.618  32.563   3.846
39965W        W12390  27.544  30.416   2.862
39966W        W12391  29.966  10.842  12.347
39967W        W12392  33.932  37.846   0.914
39968W        W12393  41.524  42.390  10.484
39969W        W12394  37.357  34.594   1.392
39970W        W12395  26.624  41.860  14.509
39971W        W12396  42.850   7.808   1.746
39972W        W12397  23.660  40.377   0.751
39973W        W12398  37.002  23.700  13.432
39974W        W12399  13.276  19.754  13.328
39975W        W12400  42.903  42.325   4.729
39976W        W12401  23.165  15.687   1.770
39977W        W12402  44.373  40.337   3.724
39978W        W12403  44.773  22.600   1.317
39979W        W12404  39.024   6.190   2.727
39980W        W12405  25.560  17.609   3.727
39981W        W12406  38.984  20.566  12.918
39982W        W12407  38.468  23.178   4.259
39983W        W12408   1.932  33.619  10.613
39984W        W12409  20.645   3.749  12.917
39985W        W12410  29.617  30.538  13.802
39986W        W12411  28.945  43.846  13.408
39987W        W12412  41.926   6.732  14.910
39988W        W12413  15.221  11.143  13.420
39989W        W12414  27.099  32.546   2.360
39990W        W12415  20.246   3.226   2.852
39991W        W12416  13.787  11.825  10.606
39992W        W12417  25.667  14.801   2.820
39993W        W12418   2.310  12.306  12.061
39994W        W12419  32.432   5.210  12.970
39995W        W12420  22.570  14.260  10.492
39996W        W12421  17.611  28.096  11.054
39997W        W12422  31.028  20.067  10.616
39998W        W12423  15.720  23.233  14.294
39999W        W12424   5.932  17.749  13.318
40000W        W12425  16.607   0.359   2.357
40001W        W12426  25.703  14.255   2.875
40002W        W12427  42.308  19.140  12.483
40003W        W12428  44.478   2.297   0.912
40004W        W12429  15.767  19.048  11.947
40005W        W12430  17.593  33.962  14.993
40006W        W12431   1.463   4.353  13.416
40007W        W12432  44.926  36.845  14.336
40008W        W12433  43.446   1.342  11.996
40009W        W12434  21.107  19.766   3.214
40010W        W12435  40.491  24.684   2.349
40011W        W12436  18.281  28.523  11.077
40012W        W12437  24.207  35.365  12.451
40013W        W12438  30.585  32.446  14.902
40014W        W12439  29.080   7.694  11.598
40015W        W12440  28.452   6.715   0.765
40016W        W12441  28.640  19.232   3.317
40017W        W12442  10.763   9.262  13.027
40018W        W12443  12.731  18.714   2.298
40019W        W12444   1.861  24.527   3.184
40020W        W12445   3.217  25.580   4.746
40021W        W12446  21.143  16.195   1.794
40022W        W12447  15.702  26.067  10.941
40023W        W12448  30.603  30.907   4.190
40024W        W12449  27.959  30.068  12.023
40025W        W12450  11.163  15.091   2.805
40026W        W12451  24.136   4.778   9.949
40027W        W12452  30.127  15.254  13.453
40028W        W12453  14.774  35.984   3.720
40029W        W12454  39.026  41.032  12.034
40030W        W12455   3.441  10.286  10.557
40031W        W12456  34.036   5.427  10.623
40032W        W12457  41.483  39.442  13.357
40033W        W12458  43.847  13.203  14.986
40034W        W12459   1.447   2.874   4.186
40035W        W12460  28.965  41.987   5.278
40036W        W12461   4.856   1.248   1.771
40037W        W12462  30.001  16.239   3.630
40038W        W12463  15.119  24.496  10.959
40039W        W12464   3.433  13.207   4.753
40040W        W12465  40.358  23.555  10.001
40041W        W12466  14.708  19.700   3.363
40042W        W12467  40.535  31.425   4.274
40043W        W12468  25.625  28.937  11.091
40044W        W12469  30.532  38.371  14.859
40045W        W12470  43.357   8.760   2.329
40046W        W12471  26.700  35.382   0.298
40047W        W12472   2.375  33.545  10.896
40048W        W12473   5.834  27.194  13.847
40049W        W12474  24.703  33.099   3.361
40050W        W12475   8.274  29.923   1.443
40051W        W12476  16.308  19.103   0.852
40052W        W12477  18.288  42.028   1.717
40053W        W12478  28.477   8.279  14.339
40054W        W12479  14.184  13.232  11.453
40055W        W12480  15.811  20.244  10.957
40056W        W12481  42.945   9.751   4.682
40057W        W12482   1.931  28.464  14.382
40058W        W12483  30.452  26.973  14.839
40059W        W12484  33.979   6.761  11.022
40060W        W12485  16.233  36.865  11.561
40061W        W12486  41.856  38.506   2.364
40062W        W12487  31.628  41.794  10.890
40063W        W12488  43.444   7.224   3.164
40064W        W12489  11.264  24.526   3.241
40065W        W12490  42.780  19.749   3.220
40066W        W12491  40.012  25.149  12.055
40067W        W12492  22.026  11.176  11.099
40068W        W12493  27.088  13.614  13.830
40069W        W12494  43.997  43.405  11.890
40070W        W12495   8.387  18.601  10.612
40071W        W12496  28.014   5.428  12.482
40072W        W12497  42.481   0.369  14.392
40073W        W12498  38.506  30.456   0.320
40074W        W12499  31.014   3.907  11.881
40075W        W12500  42.958  13.332  10.469
40076W        W12501  20.165  10.823   0.940
40077W        W12502   8.852   2.961  14.998
40078W        W12503  21.553  16.262   4.190
40079W        W12504  19.761  22.536   2.808
40080W        W12505  29.571   3.796   0.383
40081W        W12506  26.525  15.789   5.190
40082W        W12507  33.427  27.987   1.835
40083W        W12508  21.058  15.268   0.399
40084W        W12509  11.158  20.599  11.952
40085W        W12510  13.766  20.716  12.445
40086W        W12511   3.752   1.734   3.338
40087W        W12512  25.059  33.591   2.805
40088W        W12513   6.270  12.678  13.423
40089W        W12514  40.908  17.602  11.435
40090W        W12515  42.434  30.521  13.833
40091W        W12516  36.982   8.753   1.854
40092W        W12517  25.579  39.393   4.604
40093W        W12518  32.547   3.882   0.855
40094W        W12519  41.843  11.767   4.281
40095W        W12520  18.073  39.831  11.900
40096W        W12521  44.334  11.370   2.691
40097W        W12522   4.351  31.946   2.400
40098W        W12523  25.971  36.897   3.717
40099W        W12524  42.866  33.905   2.864
40100W        W12525  16.651   3.461  11.945
40101W        W12526   1.897  25.523   2.757
40102W        W12527   1.770  35.406   2.672
40103W        W12528   3.796  15.625  11.420
40104W        W12529  34.932   6.841  13.886
40105W        W12530  42.300  40.977  12.440
40106W        W12531  44.480  40.054  10.415
40107W        W12532  25.675   0.249   4.229
40108W        W12533  14.753   0.883  13.823
40109W        W12534  19.586  21.043  14.788
40110W        W12535   0.816  26.182   2.892
40111W        W12536  14.621  34.597  14.357
40112W        W12537  23.646  21.204  14.860
40113W        W12538  10.851   1.298   2.180
40114W        W12539  26.508  39.830   4.728
40115W        W12540  34.084  17.295  11.456
40116W        W12541  11.363   8.349  14.450
40117W        W12542   7.347  20.758  12.502
40118W        W12543  32.103   4.731   0.273
40119W        W12544  30.050  40.463  11.978
40120W        W12545  17.774  32.542   3.286
40121W        W12546  36.523  12.776   1.858
40122W        W12547  28.650  24.148   2.737
40123W        W12548   0.250  32.398   2.353
40124W        W12549  14.750  29.032  11.480
40125W        W12550  27.627  24.483  11.407
40126W        W12551   9.246   4.913   3.863
40127W        W12552  39.957  32.526   3.209
40128W        W12553  37.490  19.210   3.267
40129W        W12554  40.439  12.771   2.361
40130W        W12555  15.234   1.956   3.696
40131W        W12556  37.466  27.613  13.825
40132W        W12557  10.175  20.069  13.010
40133W        W12558  10.637  43.969  13.309
40134W        W12559  16.789  28.676  11.595
40135W        W12560   5.344  34.439  11.861
40136W        W12561  44.763  42.959  13.895
40137W        W12562  21.523  43.395   0.921
40138W        W12563  13.769  34.924   3.675
40139W        W12564  22.117   4.289   4.819
40140W        W12565  24.989  11.370   2.321
40141W        W12566  19.668  25.513  13.049
40142W        W12567  36.410  21.107   4.686
40143W        W12568  19.624   1.417   1.706
40144W        W12569  33.512  35.899   2.199
40145W        W12570  13.841   2.858  11.015
40146W        W12571  19.159  34.957   3.158
40147W        W12572  34.591  38.363   1.767
40148W        W12573  22.126   3.310  10.975
40149W        W12574  33.424  31.451   0.407
40150W        W12575   7.765  41.336   3.645
40151W        W12576  43.352  39.905  10.517
40152W        W12577  17.109  26.587   4.793
40153W        W12578  11.695  19.051  12.897
40154W        W12579  43.943  36.858  10.899
40155W        W12580  43.334  30.477  10.502
40156W        W12581   3.403  27.649  13.001
40157W        W12582  30.074  17.075  11.968
40158W        W12583   0.435   5.822  11.004
40159W        W12584  33.974  34.096   3.191
40160W        W12585  20.618  33.999   4.653
40161W        W12586  15.098  17.606   3.705
40162W        W12587   8.189  10.199   3.307
40163W        W12588  34.018  17.715  12.851
40164W        W12589   2.792  23.654   0.415
40165W        W12590  20.683  19.769   2.417
40166W        W12591   7.284   0.386   2.705
40167W        W12592  27.540  32.114  11.980
40168W        W12593  17.621  41.314   2.357
40169W        W12594  15.790  21.628  13.454
40170W        W12595  26.642  32.924   1.357
40171W        W12596  38.895  19.066  13.960
40172W        W12597  14.830  23.683   2.750
40173W        W12598  43.017  37.404   1.934
40174W        W12599  43.425  43.409   3.788
40175W        W12600  33.582   6.736   1.845
40176W        W12601   3.370  32.446  14.999
40177W        W12602  42.484  33.127   3.380
40178W        W12603   2.356   0.803   4.745
40179W        W12604  26.558  40.348   4.681
40180W        W12605  10.800  32.952   0.283
40181W        W12606  14.252  24.194  13.428
40182W        W12607  15.156  30.633  10.611
40183W        W12608  17.096  43.329   2.757
40184W        W12609  12.281  36.362  14.985
40185W        W12610  32.519  22.192  14.942
40186W        W12611  41.888  32.948  10.544
40187W        W12612  36.474  36.421   3.636
40188W        W12613   7.296  35.435  14.824
40189W        W12614  32.984   1.375  12.543
40190W        W12615   6.411  15.103   4.610
40191W        W12616  36.540  26.084   4.703
40192W        W12617  38.468  28.959   4.712
40193W        W12618  29.615  22.067  10.416
40194W        W12619  30.986  21.200  11.543
40195W        W12620  42.974  17.114   2.898
40196W        W12621  10.786   8.683   3.769
40197W        W12622   2.939  36.002   3.177
40198W        W12623   1.742  44.398   3.343
40199W        W12624  39.523   2.285  10.959
40200W        W12625  15.696  29.538  10.420
40201W        W12626  38.856  36.095   0.320
40202W        W12627  29.595  26.194  12.462
40203W        W12628  35.415  17.630   3.214
40204W        W12629  31.442   3.860  14.390
40205W        W12630  11.155  10.664  14.801
40206W        W12631  11.229  41.999  14.475
40207W        W12632  40.308   8.816   3.636
40208W        W12633  14.673  34.462   3.265
40209W        W12634  20.252  13.671  11.867
40210W        W12635  37.856  23.557   1.412
40211W        W12636  31.976  15.138  13.033
40212W        W12637  25.048  35.577   3.758
40213W        W12638  11.222  10.365  13.806
40214W        W12639  10.254  43.020  11.937
40215W        W12640  18.570  28.983   0.768
40216W        W12641  21.611  20.637  11.887
40217W        W12642  41.481   3.442  10.140
40218W        W12643  12.720  37.508   4.291
40219W        W12644   7.262  33.439  14.293
40220W        W12645  41.493  36.853  13.869
40221W        W12646  41.003  19.065  10.941
40222W        W12647  34.003  38.343   4.131
40223W        W12648   8.207  39.904  11.020
40224W        W12649  31.907  44.889   4.230
40225W        W12650  22.057  29.461  14.857
40226W        W12651  17.617  22.718   2.666
40227W        W12652  36.925  13.223  10.446
40228W        W12653  32.046  20.636  12.942
40229W        W12654  44.889  17.272   1.310
40230W        W12655   9.187  41.004   4.830
40231W        W12656  32.889  21.516   3.368
40232W        W12657  38.033   5.324  13.526
40233W        W12658  43.807  29.647  11.544
40234W        W12659  38.342  43.926  12.054
40235W        W12660  28.932  31.415  12.823
40236W        W12661  39.006  34.424   1.702
40237W        W12662  20.599  25.556  11.598
40238W        W12663   8.728  17.775  10.956
40239W        W12664  35.075  25.005  10.486
40240W        W12665   5.234  31.521  13.057
40241W        W12666  17.218  14.132   2.400
40242W        W12667   0.348  14.823   0.781
40243W        W12668   8.852  37.839   0.411
40244W        W12669  37.058  16.218  12.974
40245W        W12670   1.297   1.352  13.032
40246W        W12671  39.558  12.291   4.708
40247W        W12672   8.779   2.766  14.457
40248W        W12673  28.938  25.478   3.738
40249W        W12674  12.774  39.008  14.819
40250W        W12675  38.868  10.844  10.585
40251W        W12676  33.937  42.423   2.239
40252W        W12677  14.164   5.335   2.738
40253W        W12678  14.109  14.626  11.954
40254W        W12679   4.293  24.704   1.904
40255W        W12680  42.982  43.510   4.289
40256W        W12681  21.621  13.834   1.932
40257W        W12682  10.259   0.985  13.516
40258W        W12683  19.684  35.999   0.877
40259W        W12684  41.320  35.005   1.428
40260W        W12685  44.451  43.497  11.586
40261W        W12686  37.970  31.568  14.784
40262W        W12687  43.856  29.084   3.754
40263W        W12688   2.875  19.151   3.160
40264W        W12689  17.289   0.890   1.313
40265W        W12690  39.035  32.056  11.883
40266W        W12691  24.718  11.192   0.896
40267W        W12692  36.075  11.727  10.900
40268W        W12693  42.425  12.209   0.367
40269W        W12694  38.007  13.652   0.820
40270W        W12695  25.971  12.843   4.234
40271W        W12696   6.237  27.119   1.769
40272W        W12697  32.471   0.255   0.797
40273W        W12698  43.327  12.827   2.668
40274W        W12699  39.957  31.049   3.717
40275W        W12700  40.476  33.466  14.935
40276W        W12701  30.560  37.021   0.277
40277W        W12702   2.823  12.763   3.633
40278W        W12703  10.226   1.329  14.865
40279W        W12704   9.780   4.237  12.521
40280W        W12705  20.207   5.276   2.803
40281W        W12706  40.500  21.058  12.895
40282W        W12707   1.341  41.034   4.733
40283W        W12708   8.202  26.002  12.971
40284W        W12709  24.692  22.028   2.253
40285W        W12710  13.735  22.211  13.825
40286W        W12711  15.180  19.657  12.093
40287W        W12712  43.813  33.478   5.148
40288W        W12713  12.125  19.668  11.484
40289W        W12714  26.974  27.152   2.412
40290W        W12715  20.733  21.190  11.092
40291W        W12716  37.973   1.876  11.476
40292W        W12717  30.035  26.135  13.386
40293W        W12718   6.408  35.453  14.283
40294W        W12719  20.543   5.335   2.678
40295W        W12720   2.833  16.157  11.996
40296W        W12721   0.903  39.814   1.359
40297W        W12722  18.293  43.375   1.880
40298W        W12723  32.603  44.429   4.628
40299W        W12724  13.179  28.052  14.377
40300W        W12725  25.161  43.819  13.317
40301W        W12726   3.781   8.892   3.308
40302W        W12727  15.732  41.312  12.357
40303W        W12728  23.672  22.723  12.373
40304W        W12729  37.519  41.007  12.423
40305W        W12730   5.809  38.848  14.998
40306W        W12731  39.423  26.699   4.206
40307W        W12732  33.606   5.344  10.109
40308W        W12733  30.480   7.368  11.959
40309W        W12734  21.563  23.650  11.474
40310W        W12735  29.977  38.920  12.539
40311W        W12736  26.565  30.476  13.336
40312W        W12737  29.921  32.494  11.040
40313W        W12738  19.146  33.132  14.290
40314W        W12739  30.496  21.701  14.011
40315W        W12740  43.950  14.121   2.211
40316W        W12741  29.135   7.210   4.342
40317W        W12742   8.399  30.636  13.049
40318W        W12743  32.944  16.276  10.925
40319W        W12744  36.948  18.788  10.507
40320W        W12745  39.429  24.202  10.944
40321W        W12746  33.094  42.962   1.389
40322W        W12747   3.277  21.204  13.881
40323W        W12748   6.417  21.746  10.159
40324W        W12749  17.199  13.296  14.339
40325W        W12750  37.077  13.729  11.490
40326W        W12751  22.531   4.792  11.480
40327W        W12752  27.109  26.474  13.912
40328W        W12753  31.553  21.139   1.739
40329W        W12754  16.209  19.181   2.267
40330W        W12755  25.089  42.820   5.299
40331W        W12756  34.384   5.280   4.826
40332W        W12757  28.981  44.907   3.805
40333W        W12758  18.681   1.282   1.776
40334W        W12759  37.372  24.219  11.531
40335W        W12760  16.767  17.699   0.757
40336W        W12761  31.136  36.398   2.338
40337W        W12762   9.728  18.686  14.971
40338W        W12763  35.947  20.627   3.290
40339W        W12764   3.879  36.538   2.753
40340W        W12765  34.442  41.987   1.803
40341W        W12766  38.939   4.866   1.321
40342W        W12767   9.766  31.114  14.457
40343W        W12768  15.311  25.514  13.910
40344W        W12769  31.995   8.654  14.397
40345W        W12770  12.291  18.545  13.957
40346W        W12771  19.104  41.524  13.829
40347W        W12772  42.384   1.368  11.552
40348W        W12773  33.451   9.364   5.090
40349W        W12774  18.102  31.107   2.203
40350W        W12775  12.735  29.027   1.796
40351W        W12776  25.043  43.883  14.338
40352W        W12777   5.861  23.207   1.332
40353W        W12778  10.657   3.297   2.865
40354W        W12779  43.373  14.154  10.935
40355W        W12780   7.359  14.832  10.994
40356W        W12781  40.342  18.759   3.852
40357W        W12782  12.699  19.691   3.313
40358W        W12783  30.947  11.159   4.203
40359W        W12784   1.755  38.334   0.739
40360W        W12785  35.450  31.982   1.328
40361W        W12786  24.146  42.454   4.775
40362W        W12787  14.312  43.389  12.015
40363W        W12788  26.102   3.215   1.210
40364W        W12789  34.483  31.137   1.897
40365W        W12790  13.634   8.887   4.772
40366W        W12791  36.376  28.164   5.305
40367W        W12792  18.638   7.412   0.790
40368W        W12793  39.035  30.031  13.855
40369W        W12794  11.779  34.593   2.677
40370W        W12795  16.798  41.534  14.355
40371W        W12796   1.431   0.256   4.169
40372W        W12797  42.956  31.153   2.754
40373W        W12798  23.099  21.571   1.927
40374W        W12799  11.845  36.433  12.503
40375W        W12800   9.811  13.291  14.379
40376W        W12801   2.332   3.290   4.126
40377W        W12802   5.841  41.953  10.991
40378W        W12803  35.446  34.525   3.351
40379W        W12804  44.391   5.248  13.465
40380W        W12805  10.805  25.006   2.416
40381W        W12806   6.842  17.765  10.978
40382W        W12807  15.640  12.669   2.734
40383W        W12808  36.569  20.176  12.994
40384W        W12809  20.243   9.837   0.936
40385W        W12810  25.700   8.711   0.350
40386W        W12811   1.928   2.264   1.772
40387W        W12812   4.379  27.544  13.376
40388W        W12813   5.237  23.050   2.383
40389W        W12814  36.898  43.915   1.899
40390W        W12815  14.167  33.598  12.456
40391W        W12816  29.474   3.796   0.784
40392W        W12817  21.566  23.597   4.741
40393W        W12818  15.760  13.339   2.741
40394W        W12819   9.788  33.508   3.821
40395W        W12820   8.368  17.651  13.910
40396W        W12821  37.060  42.494  11.049
40397W        W12822  41.882  41.809   3.343
40398W        W12823  43.331  18.601   2.742
40399W        W12824  14.748  24.113  10.073
40400W        W12825  31.132  26.535  11.111
40401W        W12826  32.033  16.640  14.002
40402W        W12827   8.188  23.007   3.775
40403W        W12828  19.563  35.419  14.922
40404W        W12829  15.777  27.082  11.607
40405W        W12830  42.455  15.164   4.605
40406W        W12831  27.017   3.918  14.403
40407W        W12832   3.377  25.048  12.526
40408W        W12833   2.930   1.940   2.364
40409W        W12834  25.523  20.130   1.210
40410W        W12835  36.537  24.548  12.082
40411W        W12836  26.569  26.465  11.442
40412W        W12837  19.237   4.776  13.388
40413W        W12838  28.002  38.440  10.630
40414W        W12839  11.242   8.324   1.402
40415W        W12840   6.237  29.001  11.999
40416W        W12841   4.908  14.774  11.603
40417W        W12842  33.080  38.916   1.862
40418W        W12843  44.318  15.581   3.308
40419W        W12844  39.362  40.996   0.737
40420W        W12845  32.070  42.324  11.009
40421W        W12846  26.607   0.756   1.283
40422W        W12847  41.851  26.689  13.840
40423W        W12848  43.764  36.485  11.503
40424W        W12849  22.735  31.614  10.419
40425W        W12850   2.448  35.378  11.490
40426W        W12851   3.781  38.061   1.417
40427W        W12852  19.759  35.483  12.575
40428W        W12853  37.831   9.198  10.416
40429W        W12854   1.303  39.535  13.859
40430W        W12855  12.649  32.006  14.776
40431W        W12856   6.379  41.997  12.473
40432W        W12857  24.681  42.384   2.402
40433W        W12858   3.392  43.476   0.772
40434W        W12859  43.296  29.147  14.420
40435W        W12860  13.761  28.528   0.345
40436W        W12861  44.260  40.402   4.749
40437W        W12862  42.488  21.201  13.355
40438W        W12863   8.301   2.415   0.349
40439W        W12864   4.794  27.476  14.434
40440W        W12865   3.329  26.045  11.857
40441W        W12866  12.143   5.826   1.213
40442W        W12867  40.878   3.821  10.440
40443W        W12868  42.964   0.849  12.393
40444W        W12869  26.164  42.378  12.997
40445W        W12870   1.794   8.221   2.241
40446W        W12871  26.163   5.695   1.292
40447W        W12872  16.808  18.290  14.333
40448W        W12873  15.203  43.313  10.486
40449W        W12874   9.799   1.328   0.453
40450W        W12875  23.534  14.825  14.959
40451W        W12876  25.658  28.101   1.814
40452W        W12877  41.925  16.110   2.359
40453W        W12878   1.780  39.533   2.181
40454W        W12879  35.081   0.799   2.833
40455W        W12880   8.874   9.886   2.815
40456W        W12881  25.528  39.832   4.627
40457W        W12882   3.244  28.946  14.923
40458W        W12883  41.034  34.568   4.674
40459W        W12884  19.776  16.236  14.367
40460W        W12885  12.256   5.886   0.924
40461W        W12886  40.369  15.104   0.372
40462W        W12887  21.236  14.694   2.260
40463W        W12888  32.404  33.446  13.026
40464W        W12889  28.455   7.769  13.390
40465W        W12890  33.401   9.336   1.849
40466W        W12891   2.470  14.605  11.528
40467W        W12892  17.273   9.200  14.302
40468W        W12893   4.403  27.074   0.919
40469W        W12894  44.307  12.689  11.943
40470W        W12895  32.135  14.711   3.291
40471W        W12896   4.844  15.127   4.197
40472W        W12897  29.438  17.773  14.868
40473W        W12898   5.371  13.716  13.423
40474W        W12899  16.209  43.957   4.331
40475W        W12900  42.023   3.257  12.424
40476W        W12901  18.148   0.476  10.539
40477W        W12902  17.137  26.470  11.062
40478W        W12903   4.708  10.195   1.905
40479W        W12904  23.101  27.944  13.867
40480W        W12905  31.007  16.693   3.332
40481W        W12906   8.728  39.483   0.296
40482W        W12907  31.930  10.768  10.935
40483W        W12908  35.566  43.335  13.339
40484W        W12909   9.197  24.715  12.403
40485W        W12910  39.437  30.522  11.524
40486W        W12911   5.818   4.345   1.793
40487W        W12912  42.986  17.184  11.942
40488W        W12913  41.445  15.749   3.693
40489W        W12914   9.795  34.053   1.933
40490W        W12915   7.869   3.758  12.938
40491W        W12916  11.680  18.601  13.858
40492W        W12917  40.021  40.861   1.363
40493W        W12918  36.841   6.365  13.462
40494W        W12919  34.103  11.180   4.150
40495W        W12920  42.297  31.981  14.401
40496W        W12921  41.839   3.880  14.825
40497W        W12922   5.843  16.650  10.997
40498W        W12923  40.975   6.883   0.870
40499W        W12924  21.524   9.733   9.981
40500W        W12925  39.030  33.423   1.356
40501W        W12926   4.875   9.846  14.450
40502W        W12927  36.499  23.087   1.264
40503W        W12928  13.822  38.946   0.254
40504W        W12929  41.870  20.686  11.971
40505W        W12930   5.922   9.259   1.824
40506W        W12931  39.534  35.510   3.745
40507W        W12932  21.563  10.769  14.290
40508W        W12933  14.607  31.973   3.242
40509W        W12934  43.337  29.174   4.838
40510W        W12935  17.611  36.919   1.703
40511W        W12936  34.517  23.158  14.385
40512W        W12937  29.974  37.339   0.466
40513W        W12938  38.565  31.533  14.982
40514W        W12939   5.376  32.924  10.921
40515W        W12940  23.542  24.117   1.318
40516W        W12941   8.721  25.033   2.318
40517W        W12942  26.539   9.254   4.743
40518W        W12943  42.360  42.898   2.821
40519W        W12944  17.296  35.882  10.508
40520W        W12945  31.467   2.812  14.854
40521W        W12946  12.204  21.117   0.466
40522W        W12947  13.692  33.964  10.582
40523W        W12948  11.311   2.389   0.776
40524W        W12949   8.174  32.062  13.420
40525W        W12950   1.781  27.080  12.094
40526W        W12951  33.552  15.690  13.469
40527W        W12952  36.564  40.426   2.837
40528W        W12953  21.584  31.444   4.714
40529W        W12954  17.692  29.476  14.313
40530W        W12955  31.147  13.312  13.375
40531W        W12956  17.092  36.074  12.529
40532W        W12957  27.680  15.625   3.719
40533W        W12958  42.491  19.555   4.686
40534W        W12959  21.095   9.699  10.047
40535W        W12960  39.963  25.098  12.823
40536W        W12961  24.552  26.055   3.355
40537W        W12962  40.980  17.152  10.604
40538W        W12963  14.793  23.588  10.916
40539W        W12964  10.181  38.485  10.892
40540W        W12965  30.470  40.044  11.554
40541W        W12966   5.410  21.091   4.122
40542W        W12967  33.387  42.438   4.824
40543W        W12968  42.344  22.668  12.479
40544W        W12969  18.757  27.118  11.970
40545W        W12970  37.996  24.589  10.600
40546W        W12971  16.096  28.967  11.058
40547W        W12972   2.724  41.477  14.885
40548W        W12973   5.928  39.471   1.266
40549W        W12974  42.835  33.997  12.462
40550W        W12975  18.620  33.989   0.909
40551W        W12976   7.733  38.030   0.967
40552W        W12977  38.540  24.179  12.883
40553W        W12978   6.855  15.599   3.715
40554W        W12979  11.859  34.052   1.826
40555W        W12980  43.864  41.848   3.316
40556W        W12981  40.506  18.256   0.388
40557W        W12982  12.277   9.391  11.077
40558W        W12983  22.625  13.292   0.800
40559W        W12984  32.945  26.108   1.705
40560W        W12985  24.710  22.174  13.944
40561W        W12986  43.472  38.439   2.388
40562W        W12987  25.685  19.052   3.723
40563W        W12988  13.313  34.526   3.268
40564W        W12989   6.747  13.213  14.448
40565W        W12990  41.347  13.253   0.437
40566W        W12991   1.388  42.321  14.498
40567W        W12992  25.000   8.185  11.411
40568W        W12993  21.158  29.027  10.515
40569W        W12994  31.960  17.743  14.348
40570W        W12995   9.307  44.485  11.379
40571W        W12996  16.118  41.945   3.275
40572W        W12997  43.914  12.309   3.702
40573W        W12998  17.273  38.378   1.315
40574W        W12999   2.314   0.354   0.268
40575W        W13000  33.604  44.262  11.580
40576W        W13001  21.028   2.306  11.103
40577W        W13002  11.281  18.273   3.862
40578W        W13003  39.829   0.956  11.046
40579W        W13004  13.139  18.252   5.284
40580W        W13005  14.598  42.483   0.461
40581W        W13006   1.849  35.953  11.118
40582W        W13007  14.759  41.038  11.410
40583W        W13008   2.931  37.045  12.977
40584W        W13009  26.990  17.633   4.768
40585W        W13010  29.954  29.104   1.436
40586W        W13011  11.688   9.371  13.914
40587W        W13012   4.919  10.139  10.046
40588W        W13013  15.211  35.388  13.441
40589W        W13014  30.595  15.263   4.720
40590W        W13015  40.000   6.870   4.774
40591W        W13016  38.938  44.282   0.962
40592W        W13017  26.671  36.415  12.908
40593W        W13018   2.842   8.809   0.474
40594W        W13019  38.900  12.304  13.346
40595W        W13020   5.753  16.200   1.343
40596W        W13021  18.685  17.621   1.305
40597W        W13022  14.217  37.438  11.098
40598W        W13023  42.476  17.066  12.563
40599W        W13024   6.701  27.106  11.041
40600W        W13025   3.878  21.046  14.409
40601W        W13026   8.716  30.581   2.385
40602W        W13027  38.928  28.044   3.869
40603W        W13028  36.094  25.659  13.483
40604W        W13029   7.870  30.938   3.280
40605W        W13030  28.494  33.048  12.915
40606W        W13031  23.171  32.947  14.001
40607W        W13032  23.689  24.657  11.109
40608W        W13033  39.010   1.844   0.360
40609W        W13034  22.127   3.880   0.769
40610W        W13035  31.579  12.855  12.058
40611W        W13036  17.174  35.060  13.945
40612W        W13037  30.914  12.215  14.799
40613W        W13038  12.672  38.341  10.969
40614W        W13039  23.028  24.568   3.732
40615W        W13040  27.107  38.858  10.917
40616W        W13041  25.074   4.870  13.356
40617W        W13042  17.581  43.469   3.279
40618W        W13043  20.712  12.353   1.773
40619W        W13044  10.224  32.050   1.715
40620W        W13045  10.320  30.928  12.580
40621W        W13046  32.391  14.670   4.277
40622W        W13047   6.900  36.386  11.929
40623W        W13048  32.433  39.418  14.361
40624W        W13049  41.822  21.256  12.984
40625W        W13050  10.775  13.806  13.831
40626W        W13051  13.340   5.350  12.471
40627W        W13052   2.964  25.002  15.000
40628W        W13053  11.278  31.598   2.342
40629W        W13054  39.483   1.417  12.480
40630W        W13055   4.782  21.652   4.228
40631W        W13056  30.920  19.271   1.363
40632W        W13057  42.901  16.713   2.884
40633W        W13058   6.259  26.007   0.806
40634W        W13059  30.910  17.792  14.017
40635W        W13060  22.565  10.275  13.504
40636W        W13061  17.644  43.474   1.755
40637W        W13062  42.872  22.607  13.838
40638W        W13063   3.956  30.431  12.534
40639W        W13064   3.418  28.156  13.309
40640W        W13065   0.256  32.584   5.138
40641W        W13066  27.121  18.219   3.863
40642W        W13067  11.779  34.512   0.943
40643W        W13068  23.702  15.741   4.649
40644W        W13069   8.185  20.684  10.453
40645W        W13070  11.757  22.644   4.153
40646W        W13071  39.049  27.996  11.437
40647W        W13072  23.206  44.471  12.460
40648W        W13073   2.862   2.783   1.751
40649W        W13074  35.005  24.713   0.302
40650W        W13075  40.322   6.772  13.871
40651W        W13076  33.083   2.282   2.832
40652W        W13077  12.640  13.701   1.746
40653W        W13078  25.191  44.811  11.432
40654W        W13079   7.766  42.955   2.326
40655W        W13080  43.468  23.198   0.934
40656W        W13081  29.925  20.064  12.013
40657W        W13082   4.768  37.929  14.025
40658W        W13083  38.832  37.396   4.347
40659W        W13084   6.377  36.064  13.414
40660W        W13085  19.766  40.323   1.877
40661W        W13086   1.874  14.319   4.597
40662W        W13087  33.456   8.774  14.305
40663W        W13088  23.102  33.413   2.727
40664W        W13089  32.049  12.832   4.320
40665W        W13090  29.620   7.215   3.319
40666W        W13091  41.016   8.842   4.315
40667W        W13092  12.817   9.660   4.607
40668W        W13093   4.766  27.073  12.452
40669W        W13094  39.859  18.674   0.358
40670W        W13095  14.655  43.474   1.411
40671W        W13096  12.771  20.270  13.525
40672W        W13097   8.233  30.563  10.587
40673W        W13098  16.247   5.236   4.124
40674W        W13099  35.508  17.646   4.304
40675W        W13100  17.599  30.497   1.864
40676W        W13101   1.758   7.342  10.957
40677W        W13102  23.721   2.286  10.987
40678W        W13103  20.725  24.070   3.849
40679W        W13104  39.936  10.646  11.104
40680W        W13105  17.610  40.345   4.342
40681W        W13106   0.479   4.363   2.196
40682W        W13107  40.917  38.067   3.744
40683W        W13108  42.861  13.153  11.481
40684W        W13109  14.809  22.590   2.812
40685W        W13110  33.453  25.513   3.699
40686W        W13111  18.684   4.784  13.457
40687W        W13112  19.182  18.589   1.276
40688W        W13113  27.011  19.629  13.884
40689W        W13114  16.304   7.386   3.240
40690W        W13115  31.903  25.047   0.899
40691W        W13116  43.381  25.082  13.415
40692W        W13117  30.992   3.747   3.238
40693W        W13118  41.929  33.413  11.041
40694W        W13119  32.142   0.449   1.399
40695W        W13120  42.505  23.201   2.304
40696W        W13121   6.202  24.989  10.927
40697W        W13122  37.472  26.680   0.783
40698W        W13123   9.655  35.379  10.920
40699W        W13124  44.764   6.845  12.461
40700W        W13125  18.734  11.683   4.153
40701W        W13126  21.545  10.703  10.543
40702W        W13127  12.680  10.371  10.034
40703W        W13128  17.587  25.687  11.085
40704W        W13129  11.642  23.657  10.465
40705W        W13130  29.975  34.090   1.749
40706W        W13131  36.555  32.073   3.288
40707W        W13132  12.179  44.927  12.011
40708W        W13133   6.832  27.083  13.430
40709W        W13134  44.319  12.829   0.884
40710W        W13135  18.256  12.721  14.408
40711W        W13136  18.233  29.151  14.976
40712W        W13137   7.290  24.548   4.162
40713W        W13138  37.466  32.059   2.849
40714W        W13139   4.785  31.979  12.421
40715W        W13140  38.020   3.863   0.896
40716W        W13141  36.020  24.214  10.994
40717W        W13142  26.570  31.631   2.739
40718W        W13143  11.756  20.700  12.350
40719W        W13144  18.577  41.413  11.566
40720W        W13145  27.974  11.149   4.707
40721W        W13146  35.997  32.550  12.441
40722W        W13147   0.847  21.600   2.332
40723W        W13148  13.178  38.991   1.696
40724W        W13149  34.445  26.170   3.181
40725W        W13150   3.770  22.730   4.186
40726W        W13151  11.217  17.794  10.890
40727W        W13152  18.722   7.780  14.779
40728W        W13153   6.293  28.479  12.470
40729W        W13154  28.035   0.493  13.016
40730W        W13155  34.888  26.131  14.462
40731W        W13156  23.172  40.518  13.512
40732W        W13157  31.534  30.148  12.989
40733W        W13158   4.356  38.871  12.419
40734W        W13159  42.365  23.131  13.542
40735W        W13160  39.507  24.633   4.131
40736W        W13161  17.102  10.676   9.981
40737W        W13162  20.076   9.287   0.388
40738W        W13163  26.587  21.035   1.832
40739W        W13164  23.530  28.036  10.583
40740W        W13165  22.137  19.574   2.259
40741W        W13166  16.614   5.712   2.707
40742W        W13167  41.831  34.018   1.251
40743W        W13168  28.545  41.333   1.768
40744W        W13169   2.296  42.347   3.859
40745W        W13170  42.884  13.732   4.818
40746W        W13171  11.763   5.841   1.826
40747W        W13172  36.426   7.885   0.251
40748W        W13173  23.041  32.606   4.194
40749W        W13174  29.113  16.701  13.951
40750W        W13175   7.903  17.184  12.483
40751W        W13176  44.828  44.916   3.357
40752W        W13177  11.280  32.942   1.848
40753W        W13178  38.006  32.961  10.434
40754W        W13179  12.794  30.932  14.782
40755W        W13180  23.058  30.574  12.452
40756W        W13181  22.056  16.246   1.386
40757W        W13182  17.165  38.025   1.843
40758W        W13183  35.022  17.703   0.265
40759W        W13184  16.736  14.725   2.689
40760W        W13185   7.171   1.367   0.858
40761W        W13186  19.090  41.976   1.865
40762W        W13187  32.019   2.832   0.942
40763W        W13188   1.331   3.298   0.414
40764W        W13189  25.982   3.772  10.423
40765W        W13190   5.308  35.459   2.822
40766W        W13191  24.544  17.085  11.502
40767W        W13192   5.870  24.511  13.505
40768W        W13193  30.531   3.345  13.063
40769W        W13194   9.328   7.787  12.046
40770W        W13195  26.606  35.103  10.417
40771W        W13196   7.244  38.021   0.283
40772W        W13197  29.530  33.427   2.357
40773W        W13198  44.862  22.066  11.928
40774W        W13199  18.578  29.655  14.353
40775W        W13200  28.975   3.441  11.955
40776W        W13201  40.924  13.226  11.372
40777W        W13202  42.863  31.046  12.425
40778W        W13203  28.531  33.120   1.261
40779W        W13204  34.426  10.792  14.868
40780W        W13205  23.133  28.650   1.741
40781W        W13206  27.511  40.041  12.013
40782W        W13207  40.521  24.648  14.961
40783W        W13208  43.367  33.045  10.452
40784W        W13209   3.276  22.074  13.998
40785W        W13210   1.479  33.524  13.947
40786W        W13211   7.667  10.828   3.713
40787W        W13212  18.263  31.897   4.307
40788W        W13213   8.326  38.870  12.878
40789W        W13214   9.866  27.023   2.812
40790W        W13215  11.684  35.972   4.121
40791W        W13216  24.219  36.476   2.358
40792W        W13217   9.275   8.234   1.774
40793W        W13218  32.408  17.117   0.470
40794W        W13219   7.834  13.812   3.369
40795W        W13220  27.601  10.328  12.974
40796W        W13221  41.804  18.684   3.867
40797W        W13222  14.154   5.342   3.806
40798W        W13223  42.302  37.387  13.791
40799W        W13224   6.870  33.020  13.923
40800W        W13225  24.116  38.558  12.038
40801W        W13226   8.888  35.481   2.207
40802W        W13227  43.008  23.538   4.147
40803W        W13228  44.972   7.322  13.529
40804W        W13229  38.045  15.252  11.992
40805W        W13230   3.918  14.622  13.309
40806W        W13231  13.149  41.018  13.313
40807W        W13232  29.648  40.489   1.763
40808W        W13233  38.976  16.777   0.414
40809W        W13234  36.088  43.001  14.328
40810W        W13235  25.614   7.332  14.902
40811W        W13236  31.063   0.263  11.054
40812W        W13237  22.014  16.311  11.073
40813W        W13238  27.481   6.712  10.954
40814W        W13239  19.777  19.135  11.569
40815W        W13240  31.550   0.798   1.782
40816W        W13241  26.585  38.328  13.356
40817W        W13242  33.518  14.275  12.411
40818W        W13243  39.860  31.414   0.951
40819W        W13244  43.320  38.938  14.285
40820W        W13245  26.626  36.863  12.484
40821W        W13246  44.398  30.590   3.316
40822W        W13247  43.507  22.218   2.721
40823W        W13248  42.297  21.634   1.823
40824W        W13249  21.092  40.549  13.394
40825W        W13250  26.063  30.045   1.257
40826W        W13251   9.875  22.703   2.673
40827W        W13252  37.992  41.831  13.818
40828W        W13253   2.426  40.868  12.423
40829W        W13254   7.685  32.628   3.756
40830W        W13255  31.529   2.744  10.539
40831W        W13256  23.190  17.272  11.888
40832W        W13257   4.422   0.465  13.983
40833W        W13258  10.374  27.046   1.843
40834W        W13259  18.150  34.599   1.293
40835W        W13260   1.958  37.088   0.378
40836W        W13261  16.241  35.030   4.643
40837W        W13262  14.199  15.708   4.717
40838W        W13263  12.181   7.253   0.331
40839W        W13264  10.158  24.010   4.771
40840W        W13265   0.349   1.941  10.920
40841W        W13266  31.010  21.541   0.789
40842W        W13267  22.103  27.114  13.910
40843W        W13268  31.029  22.147   9.663
40844W        W13269  18.699   3.838   4.166
40845W        W13270  10.273   1.396  13.990
40846W        W13271  38.473  39.483   2.793
40847W        W13272  28.568  15.240   2.824
40848W        W13273   1.247   0.424   1.917
40849W        W13274  14.249  26.998  13.406
40850W        W13275  30.024  40.805   3.172
40851W        W13276  12.661  41.032  14.322
40852W        W13277  36.932  21.051   0.890
40853W        W13278  42.873  42.291  13.522
40854W        W13279  18.776  25.472  10.937
40855W        W13280  34.612  25.179   2.680
40856W        W13281   0.822  41.040   0.315
40857W        W13282   7.381   5.372   2.842
40858W        W13283  15.633   2.249  14.511
40859W        W13284  12.126  43.809  13.793
40860W        W13285   0.296   0.362  14.798
40861W        W13286  44.467  13.210   2.221
40862W        W13287   0.866  28.976  13.902
40863W        W13288  37.568  10.640  11.895
40864W        W13289  43.891  34.577  11.913
40865W        W13290  24.575  36.975  10.601
40866W        W13291  32.004  19.181   1.329
40867W        W13292  29.923  28.579  13.015
40868W        W13293  33.082  21.102   1.234
40869W        W13294  30.474   7.821   0.748
40870W        W13295  35.529  39.421  11.967
40871W        W13296  36.351  31.527  14.901
40872W        W13297  37.360  28.456   4.233
40873W        W13298  40.508  14.772   3.385
40874W        W13299  14.811  23.662  12.414
40875W        W13300  19.678  26.016   2.851
40876W        W13301  25.104   3.285   2.229
40877W        W13302  17.275   1.301   4.750
40878W        W13303  27.681  36.442   0.926
40879W        W13304   9.334  34.008  13.038
40880W        W13305  11.798  26.647   0.773
40881W        W13306  10.670  43.003   4.738
40882W        W13307  24.014  43.279  12.356
40883W        W13308  40.519  12.699   2.826
40884W        W13309  21.696  16.723   1.247
40885W        W13310  11.667  28.630  11.462
40886W        W13311  41.009   9.285   2.823
40887W        W13312  14.726   2.252  10.584
40888W        W13313   9.172  38.380   4.193
40889W        W13314  36.985  38.003  14.027
40890W        W13315   1.747  35.382   0.794
40891W        W13316   0.914   7.403   4.742
40892W        W13317  34.455  33.475   2.260
40893W        W13318  32.925  19.040   4.826
40894W        W13319  32.565  42.460   3.745
40895W        W13320   4.753  10.638   9.978
40896W        W13321  22.567  10.857  10.053
40897W        W13322  37.942  29.526  14.878
40898W        W13323  14.778  38.522  14.014
40899W        W13324  42.384   5.899  12.538
40900W        W13325  19.577  27.522   2.345
40901W        W13326   0.792  16.734  10.046
40902W        W13327   9.222   6.921  13.307
40903W        W13328   3.719  16.585   0.913
40904W        W13329  24.979  22.629  13.853
40905W        W13330  14.334  16.203  11.063
40906W        W13331  30.602  18.060  14.332
40907W        W13332  37.029  29.931   4.290
40908W        W13333  40.049   5.349   4.310
40909W        W13334   7.296  32.085   2.863
40910W        W13335  40.988  43.823   1.890
40911W        W13336  34.571  28.435  13.964
40912W        W13337  39.036  29.096   2.720
40913W        W13338  36.578  16.088   4.821
40914W        W13339  26.095  36.045   1.438
40915W        W13340  11.822   5.287   2.850
40916W        W13341   0.860  39.904   4.666
40917W        W13342  27.956  13.737   2.772
40918W        W13343   5.838  32.959  10.595
40919W        W13344  36.493  39.810   3.367
40920W        W13345  26.471   0.491  12.042
40921W        W13346  29.537   1.342  14.838
40922W        W13347  31.982  11.689   5.255
40923W        W13348   6.246  38.346   2.810
40924W        W13349  28.972  32.950   2.291
40925W        W13350   7.838  12.844  10.064
40926W        W13351  19.735  31.482  14.325
40927W        W13352  15.607  14.292   3.182
40928W        W13353  17.579   9.802   2.851
40929W        W13354  32.531  27.990  10.407
40930W        W13355  17.623  18.747   1.398
40931W        W13356  22.216   5.371  12.005
40932W        W13357  25.592   3.240   2.202
40933W        W13358  20.110  23.494  10.492
40934W        W13359  14.819   9.867   2.690
40935W        W13360  31.004   1.860  14.510
40936W        W13361  19.612   9.707   2.373
40937W        W13362   1.883  42.359   0.321
40938W        W13363  26.626   9.802  14.498
40939W        W13364  10.708  15.804  10.559
40940W        W13365  24.142  12.689  11.960
40941W        W13366  18.136  31.031   3.347
40942W        W13367  41.915  12.253   0.881
40943W        W13368  19.698  25.607   5.158
40944W        W13369  33.505  36.006  11.440
40945W        W13370  26.700   4.425   3.679
40946W        W13371  34.887  11.310  10.040
40947W        W13372  17.699  38.464  14.806
40948W        W13373   7.803  26.680  12.066
40949W        W13374   5.245  32.470   3.317
40950W        W13375  26.530  28.558  10.984
40951W        W13376  14.198   2.269  14.821
40952W        W13377  38.389  36.014  14.987
40953W        W13378  34.412  24.108   2.305
40954W        W13379  28.523   0.794  13.510
40955W        W13380  13.737  21.652   2.249
40956W        W13381  42.020   6.871   0.814
40957W        W13382  19.663  18.687  11.498
40958W        W13383  38.452  13.734   4.812
40959W        W13384  11.625  19.776   4.739
40960W        W13385  33.414  22.504   1.769
40961W        W13386  39.479  36.468  13.468
40962W        W13387  34.094  18.589  13.940
40963W        W13388  21.656  14.282   0.943
40964W        W13389  14.607   0.370   0.451
40965W        W13390  32.129  36.592  12.899
40966W        W13391   4.370  42.467   2.243
40967W        W13392   3.788   7.691  14.506
40968W        W13393   8.660  31.944   3.267
40969W        W13394  34.980  28.582   1.694
40970W        W13395  37.081  13.616  11.882
40971W        W13396  42.032  35.895  12.859
40972W        W13397  28.580  43.286   1.339
40973W        W13398  38.920  11.711   9.990
40974W        W13399   9.803  11.187  12.841
40975W        W13400  29.963   3.899  10.479
40976W        W13401   9.189   0.283   1.411
40977W        W13402  15.285  36.411  13.491
40978W        W13403  16.213   6.740  12.381
40979W        W13404  22.051  26.136  14.953
40980W        W13405  32.406  30.073  11.042
40981W        W13406  16.166   0.984   4.351
40982W        W13407  14.609   0.397   3.256
40983W        W13408  31.090   6.185   1.330
40984W        W13409  29.517  33.433   3.337
40985W        W13410  30.117  11.271   0.250
40986W        W13411  44.271   4.437  12.041
40987W        W13412  10.877  36.475   0.267
40988W        W13413  38.493  17.126   4.677
40989W        W13414  20.247  31.417  11.082
40990W        W13415  38.872   3.903  11.573
40991W        W13416  10.308  29.670   0.461
40992W        W13417  31.061  21.261  13.417
40993W        W13418  17.244  27.178   2.833
40994W        W13419  28.057  22.190   1.223
40995W        W13420  39.530  24.501   0.896
40996W        W13421  18.209  37.525  13.440
40997W        W13422  11.332   0.335   2.186
40998W        W13423  16.185  44.827   3.162
40999W        W13424  13.149  37.452  13.873
41000W        W13425  27.499  29.535  11.939
41001W        W13426   6.240  27.647  10.583
41002W        W13427  36.854  30.417  14.392
41003W        W13428  21.020  42.388   1.859
41004W        W13429   9.371   9.285  14.980
41005W        W13430   6.868   5.732   4.335
41006W        W13431  22.072  32.034   2.749
41007W        W13432   8.738  20.122  12.383
41008W        W13433   4.758  38.015   3.770
41009W        W13434   4.942  29.438   1.235
41010W        W13435  36.511  42.032   4.243
41011W        W13436  28.582  17.686  14.867
41012W        W13437  26.970  10.160   0.403
41013W        W13438  18.156  13.345   2.879
41014W        W13439  37.936  42.327   1.287
41015W        W13440  42.015   5.804   4.707
41016W        W13441  37.340   5.218   2.892
41017W        W13442   1.836  42.466  14.283
41018W        W13443  31.584  19.047  14.783
41019W        W13444  23.529  41.478  11.956
41020W        W13445   6.754   6.269   0.473
41021W        W13446  26.030  26.070  14.505
41022W        W13447   2.388  11.264  13.531
41023W        W13448  11.713  35.415  14.305
41024W        W13449  28.146  37.342   1.703
41025W        W13450   8.674   3.438   2.409
41026W        W13451  35.914   2.401   0.410
41027W        W13452  23.160   9.243   1.377
41028W        W13453   0.820  20.111  11.918
41029W        W13454  25.703  40.036   4.349
41030W        W13455  12.345  40.971   4.608
41031W        W13456  23.635  22.194  11.488
41032W        W13457  29.990  10.775  11.483
41033W        W13458  21.587  15.592   3.205
41034W        W13459  42.793  23.643  10.888
41035W        W13460  36.381   4.226  12.569
41036W        W13461  19.677  17.115  10.988
41037W        W13462  13.666  35.929   2.410
41038W        W13463  30.532  29.017   2.726
41039W        W13464  41.528  28.074  10.998
41040W        W13465  39.348   8.363  11.109
41041W        W13466  26.470  28.038  10.938
41042W        W13467  17.156  30.912   0.748
41043W        W13468   6.715  13.156   0.481
41044W        W13469   3.461  32.002  13.502
41045W        W13470   1.743  39.541  11.564
41046W        W13471  43.788  34.476   0.891
41047W        W13472  27.949  44.999   3.273
41048W        W13473   1.947  26.132  13.403
41049W        W13474  35.892  16.756  14.866
41050W        W13475  17.621  37.899  12.026
41051W        W13476  36.482  34.955   4.825
41052W        W13477  26.590  37.416  13.418
41053W        W13478  21.196  15.202  13.056
41054W        W13479  18.563  44.455   1.880
41055W        W13480   4.249  42.972  14.917
41056W        W13481  11.863  24.537  10.567
41057W        W13482  40.993  39.469  12.498
41058W        W13483  40.353  40.019   1.811
41059W        W13484  22.663  43.299   2.831
41060W        W13485  22.085  23.563  11.385
41061W        W13486  36.408  44.775  14.904
41062W        W13487  24.228  27.149  14.456
41063W        W13488   1.954  16.216  14.417
41064W        W13489   5.712   6.232   0.895
41065W        W13490  21.149  31.127  10.556
41066W        W13491  21.733  30.074   3.690
41067W        W13492  31.603   8.328   4.221
41068W        W13493   5.834  38.525   3.694
41069W        W13494   3.805  43.970  10.577
41070W        W13495   5.275  38.830   0.465
41071W        W13496  16.116  42.027   0.328
41072W        W13497  14.222  38.935   0.953
41073W        W13498  39.020  36.419  13.012
41074W        W13499  39.925  16.634   0.856
41075W        W13500  20.136  38.342  11.537
41076W        W13501  24.015   5.391   4.242
41077W        W13502  25.107  24.538   1.757
41078W        W13503  37.050  15.596   0.459
41079W        W13504  19.204  12.719   3.793
41080W        W13505   6.355  22.230   1.911
41081W        W13506  37.002  38.470   2.226
41082W        W13507   5.227  43.938  12.970
41083W        W13508  17.787  38.347  12.580
41084W        W13509  31.074   2.232  12.945
41085W        W13510  16.753  37.568   0.864
41086W        W13511  32.403  30.605  14.368
41087W        W13512  13.729  25.212   3.849
41088W        W13513  12.130   9.786  12.381
41089W        W13514  18.223  31.540   2.811
41090W        W13515  44.876  38.880   3.801
41091W        W13516  37.463  38.896   1.745
41092W        W13517   0.344  24.063  10.433
41093W        W13518  15.259  30.937  13.949
41094W        W13519  42.373  35.968   4.647
41095W        W13520  15.265  33.965   0.265
41096W        W13521  33.457  23.023   4.164
41097W        W13522  15.737  15.651  14.958
41098W        W13523  32.078  36.376  14.380
41099W        W13524   5.706  22.152   2.830
41100W        W13525  29.547  26.166   0.276
41101W        W13526   5.297  26.007  13.026
41102W        W13527   7.706   2.769   4.693
41103W        W13528  19.686  10.155   4.251
41104W        W13529  11.777  11.785   0.923
41105W        W13530  36.365   1.392  12.487
41106W        W13531  44.010  34.022  11.483
41107W        W13532  23.203  37.490   4.218
41108W        W13533  13.257  19.668  14.509
41109W        W13534   3.294  24.624  12.534
41110W        W13535  19.141  20.590  11.117
41111W        W13536  38.355   0.305  12.009
41112W        W13537  20.742  11.784   3.754
41113W        W13538  29.976   6.289   3.361
41114W        W13539  42.954  30.132  13.817
41115W        W13540  29.543  39.977   3.636
41116W        W13541  16.689  40.470  14.009
41117W        W13542  13.148  12.726   1.219
41118W        W13543  29.572  31.632  13.837
41119W        W13544  13.614  17.793  11.017
41120W        W13545  27.953  22.999  13.398
41121W        W13546  11.801  40.457   0.867
41122W        W13547  37.447  28.446   0.854
41123W        W13548  12.680  21.166  13.809
41124W        W13549  13.836  11.275  14.023
41125W        W13550  40.430  30.466   0.895
41126W        W13551  42.946  20.123   1.414
41127W        W13552  23.736  32.527  10.108
41128W        W13553  31.954  21.101   4.326
41129W        W13554  25.642  11.373   0.290
41130W        W13555   2.754  14.255  10.501
41131W        W13556  24.549   9.840   1.788
41132W        W13557   8.869  42.381   1.694
41133W        W13558  26.010   0.751   0.407
41134W        W13559  26.510  28.139   0.450
41135W        W13560  11.146  43.478  13.811
41136W        W13561  18.575  44.824   3.740
41137W        W13562  31.600  13.326  11.511
41138W        W13563  27.016  40.981   2.879
41139W        W13564  33.564   7.760  12.515
41140W        W13565  18.587  17.793  14.982
41141W        W13566  23.052   3.758   4.255
41142W        W13567  34.599   0.436  10.952
41143W        W13568   3.215  34.515   4.643
41144W        W13569  25.113  27.100   4.779
41145W        W13570  26.050  23.082   0.916
41146W        W13571   8.779   8.850  14.935
41147W        W13572  29.978  42.884  12.962
41148W        W13573   6.694  26.999  14.514
41149W        W13574  40.386  37.914   3.652
41150W        W13575  44.868  44.474  11.982
41151W        W13576  11.256   2.733   4.274
41152W        W13577  16.099  43.932  13.539
41153W        W13578   1.343  16.202  12.064
41154W        W13579   9.754  37.491   0.821
41155W        W13580  12.324  30.092  11.080
41156W        W13581  42.353  14.103  11.053
41157W        W13582  33.460   7.879   5.116
41158W        W13583  26.206   7.331   3.354
41159W        W13584  19.279  19.601   0.467
41160W        W13585  12.660  35.460  11.384
41161W        W13586  11.768  10.805   1.399
41162W        W13587   7.833  22.209  13.811
41163W        W13588   8.659   2.272  12.373
41164W        W13589   6.308  27.011  10.460
41165W        W13590  16.292  13.120   3.669
41166W        W13591  27.452  15.248   3.863
41167W        W13592  27.455   7.248   3.630
41168W        W13593  24.121  34.939   0.409
41169W        W13594   3.294  30.521  13.427
41170W        W13595  15.739  27.625  14.936
41171W        W13596  13.224  32.119   0.482
41172W        W13597  43.391  32.894  10.949
41173W        W13598  20.079   8.885  13.426
41174W        W13599  25.048  17.189  14.352
41175W        W13600  23.683   3.272  11.932
41176W        W13601  11.849  21.069   3.276
41177W        W13602  25.570  42.938  11.424
41178W        W13603  10.845  34.039  12.072
41179W        W13604   2.932  39.819  13.442
41180W        W13605  28.183  14.677   3.268
41181W        W13606  30.424   7.771   3.177
41182W        W13607  27.634  24.002   1.923
41183W        W13608   1.361   7.787  13.895
41184W        W13609  22.529  25.962  11.423
41185W        W13610  11.695  12.274   2.800
41186W        W13611   8.793  23.557   1.846
41187W        W13612   1.468   2.465  13.949
41188W        W13613  12.835   8.757   4.793
41189W        W13614  28.021   1.775   5.227
41190W        W13615  10.766  29.175   0.359
41191W        W13616   1.262  18.120  10.625
41192W        W13617  25.555   9.649  11.003
41193W        W13618  27.626  14.290   3.660
41194W        W13619  20.742  28.960   0.372
41195W        W13620  31.026  12.650  13.533
41196W        W13621  10.820  12.238  12.502
41197W        W13622  27.165  24.019  11.061
41198W        W13623   5.386  24.704   3.220
41199W        W13624  35.436  40.446  11.046
41200W        W13625  39.444  15.580   2.855
41201W        W13626  23.498  10.818   4.615
41202W        W13627   2.886  17.734  14.959
41203W        W13628  19.228  15.758  13.421
41204W        W13629  42.834  16.576  11.909
41205W        W13630  44.307  16.810  13.891
41206W        W13631  30.927  41.906   3.204
41207W        W13632  31.431  20.552   4.260
41208W        W13633  39.978  10.344   0.726
41209W        W13634   1.309  36.411   1.277
41210W        W13635  44.931  43.478   4.649
41211W        W13636  28.469  34.106  13.043
41212W        W13637  10.265  20.108  10.425
41213W        W13638   9.853  21.527  11.500
41214W        W13639  37.439  37.991   1.821
41215W        W13640  15.819   5.921  11.504
41216W        W13641  14.634  43.798  10.930
41217W        W13642  38.538  33.976  10.454
41218W        W13643  30.577  23.063  12.052
41219W        W13644  37.364   1.894   3.756
41220W        W13645  17.717  44.348   1.708
41221W        W13646  16.740   9.388   2.724
41222W        W13647   3.421  37.478   0.769
41223W        W13648  16.740  28.930   0.927
41224W        W13649  42.516  41.035  14.400
41225W        W13650   3.423  24.019   0.871
41226W        W13651  36.510  27.579   4.119
41227W        W13652  34.526  17.074   2.748
41228W        W13653  32.991  19.128   3.852
41229W        W13654  32.105   8.398   3.310
41230W        W13655  43.440  26.562   4.315
41231W        W13656   7.328  34.523  14.974
41232W        W13657   5.783  12.238  10.926
41233W        W13658  30.044  39.487  11.985
41234W        W13659  36.381  10.788  14.814
41235W        W13660   4.432  39.459  14.453
41236W        W13661  29.168  27.624   1.305
41237W        W13662  18.198  30.460  12.363
41238W        W13663  22.167   0.822  12.852
41239W        W13664  36.005  15.258   1.914
41240W        W13665  42.829  35.955   2.191
41241W        W13666  42.837  30.001  13.478
41242W        W13667   8.395  39.523  14.307
41243W        W13668  36.055  38.356  11.453
41244W        W13669  29.110   2.729  11.454
41245W        W13670   4.210  31.061   2.805
41246W        W13671  21.176  44.976  13.828
41247W        W13672   6.904  38.376   2.756
41248W        W13673   0.330  10.171  13.326
41249W        W13674  12.267  17.234   0.898
41250W        W13675  15.692  43.967  11.055
41251W        W13676  13.193  32.973   3.354
41252W        W13677  43.907   2.776   3.333
41253W        W13678  22.654   5.905   1.292
41254W        W13679  44.479  10.235   3.678
41255W        W13680  10.815  22.693  13.350
41256W        W13681  40.948  43.971  10.970
41257W        W13682   3.837  39.931  12.501
41258W        W13683  31.933  42.842  11.563
41259W        W13684  18.229  27.161  10.493
41260W        W13685   3.253   3.461  10.059
41261W        W13686  26.578  25.209  12.993
41262W        W13687  16.104   7.796  14.953
41263W        W13688  29.632  39.529   4.827
41264W        W13689  21.697  44.401   2.878
41265W        W13690  11.314  26.513  12.535
41266W        W13691   9.384  35.422   2.817
41267W        W13692  14.749  39.926   0.895
41268W        W13693   3.292  41.854  14.429
41269W        W13694  39.967  11.633  13.032
41270W        W13695  14.691  25.137  11.025
41271W        W13696  14.643  25.039   2.337
41272W        W13697   0.429  42.466   4.661
41273W        W13698  20.270   8.703   2.732
41274W        W13699  28.483  19.717   0.464
41275W        W13700  36.426  33.505  10.615
41276W        W13701   1.282  12.833   4.659
41277W        W13702  35.999  35.874   3.335
41278W        W13703   8.708  12.332   0.952
41279W        W13704  29.999  33.513   0.924
41280W        W13705  28.063  18.549   3.765
41281W        W13706  26.551  17.674   0.811
41282W        W13707  18.249  25.055  11.547
41283W        W13708  43.825  24.221  10.435
41284W        W13709  21.111  28.586  11.531
41285W        W13710  17.651  40.887  13.005
41286W        W13711  33.064  21.680  11.890
41287W        W13712  30.644  15.242   1.844
41288W        W13713  27.496  37.350  13.402
41289W        W13714  24.128   5.906  14.959
41290W        W13715   7.299  42.972   3.360
41291W        W13716  19.622  16.794  13.404
41292W        W13717   9.205  31.623   3.248
41293W        W13718  31.413   3.372  12.976
41294W        W13719  28.516  16.298  11.371
41295W        W13720  12.298  35.474   4.203
41296W        W13721  29.938  25.617   4.789
41297W        W13722  19.753  11.663   1.804
41298W        W13723  16.137  23.174   0.875
41299W        W13724   8.773  40.365   4.196
41300W        W13725  35.364  39.929  12.526
41301W        W13726  19.059  34.584   0.346
41302W        W13727   3.856  24.702  10.995
41303W        W13728  25.210  29.475  11.528
41304W        W13729  28.620  37.538  14.468
41305W        W13730  39.449  22.732   2.883
41306W        W13731  30.592  26.546  10.532
41307W        W13732  40.539  22.093  10.499
41308W        W13733  40.012  18.728   1.905
41309W        W13734  36.549   3.402   0.861
41310W        W13735   7.324  37.400   4.172
41311W        W13736  41.859  12.756   2.284
41312W        W13737  22.052  31.577   3.870
41313W        W13738   5.927  23.598   0.369
41314W        W13739   8.168  10.300   1.703
41315W        W13740  39.917  32.598  12.553
41316W        W13741   3.305  23.705   2.743
41317W        W13742  40.890  21.679  10.058
41318W        W13743  10.349  28.158  11.873
41319W        W13744  41.900  12.656  10.610
41320W        W13745  36.450   8.726  13.360
41321W        W13746  22.629  26.576   0.788
41322W        W13747   9.860   2.858  13.976
41323W        W13748  17.118  38.892  14.778
41324W        W13749   7.207  23.002  11.397
41325W        W13750  24.074  37.052   0.356
41326W        W13751   8.772  33.124   4.238
41327W        W13752  43.820   5.868   3.273
41328W        W13753  17.144  38.839  10.571
41329W        W13754  13.833  39.015   1.393
41330W        W13755  31.896  44.432  12.897
41331W        W13756  26.167  32.961  12.091
41332W        W13757  39.884  13.665   3.346
41333W        W13758  38.543  25.493   1.748
41334W        W13759   9.258  30.458  14.826
41335W        W13760  40.923  31.059  13.518
41336W        W13761  14.600  13.747   0.872
41337W        W13762  41.353  27.184   1.906
41338W        W13763   4.402  29.064   3.244
41339W        W13764  30.543  12.228   1.434
41340W        W13765  10.230   0.876  10.894
41341W        W13766   8.745   9.700   4.806
41342W        W13767   1.352  10.187   5.157
41343W        W13768  29.106   0.298   1.447
41344W        W13769  26.553  35.008   4.146
41345W        W13770  26.658  10.172   2.370
41346W        W13771  37.084  27.139  11.931
41347W        W13772  19.060   5.291  13.857
41348W        W13773  34.581  23.516  14.790
41349W        W13774  23.020  28.947   4.698
41350W        W13775  26.543  14.339   3.636
41351W        W13776   7.901   2.435   4.722
41352W        W13777  23.575  29.452   1.237
41353W        W13778   7.712  30.426   3.854
41354W        W13779   5.366  36.427  13.990
41355W        W13780  27.182  20.202   0.930
41356W        W13781  41.999  32.406  14.300
41357W        W13782  31.018  13.120   2.685
41358W        W13783  30.992  13.341  11.886
41359W        W13784  16.592  42.970   1.927
41360W        W13785   7.682  42.838  12.387
41361W        W13786   5.933  12.679   4.340
41362W        W13787  37.349  32.997  11.015
41363W        W13788  26.201  17.643  13.944
41364W        W13789  36.544  15.104   1.734
41365W        W13790  14.826  37.417   9.968
41366W        W13791  32.928  27.154   4.621
41367W        W13792  28.938  27.460  12.389
41368W        W13793   2.877  21.128  10.589
41369W        W13794   1.788  36.895  13.348
41370W        W13795  15.649  27.035   2.831
41371W        W13796  31.108  33.381   1.751
41372W        W13797  23.223  22.739  13.014
41373W        W13798  20.192  31.074   2.852
41374W        W13799   2.889   6.887  10.417
41375W        W13800  32.965  39.558  10.415
41376W        W13801   2.398  14.129   5.240
41377W        W13802  19.779  18.581   2.889
41378W        W13803  27.157  25.531   0.434
41379W        W13804  26.956  14.825  14.765
41380W        W13805  36.548  42.979   4.763
41381W        W13806   0.870  16.605  13.058
41382W        W13807  24.575   7.194   1.927
41383W        W13808  22.687  18.106  12.472
41384W        W13809  31.433  17.279  11.422
41385W        W13810  12.297  34.457  10.464
41386W        W13811  18.215  21.752  11.051
41387W        W13812  23.123  15.781   0.349
41388W        W13813  22.114   6.711   0.960
41389W        W13814  37.081   6.732   5.177
41390W        W13815   0.346   1.292   2.837
41391W        W13816  39.845  25.671  14.455
41392W        W13817  17.263  12.720  11.018
41393W        W13818  23.145  43.416  11.115
41394W        W13819  39.823  30.089   3.343
41395W        W13820  40.482  36.421   1.831
41396W        W13821  40.367  14.650  12.871
41397W        W13822  27.460   6.364  10.962
41398W        W13823  11.808  29.535  12.855
41399W        W13824  30.649  14.286   1.746
41400W        W13825  16.787  29.040  10.429
41401W        W13826  41.813   3.352   3.796
41402W        W13827  36.913   0.768   2.902
41403W        W13828   6.688  22.734  14.792
41404W        W13829  17.199  18.206  12.505
41405W        W13830  11.819   9.661  13.868
41406W        W13831   9.262  21.184  12.943
41407W        W13832  24.123   5.783  10.078
41408W        W13833  31.062  44.331   1.696
41409W        W13834   4.285  10.775   3.828
41410W        W13835  44.916   5.356   4.777
41411W        W13836  23.230   1.963  11.400
41412W        W13837  15.095  15.136   3.711
41413W        W13838  35.857  13.220  12.888
41414W        W13839  24.556  40.427  14.855
41415W        W13840   8.802  39.525  11.127
41416W        W13841   5.388  23.710   4.801
41417W        W13842   3.226  40.493   3.337
41418W        W13843   7.764  18.233   3.319
41419W        W13844   7.374  42.820  11.051
41420W        W13845   7.333  20.533  12.094
41421W        W13846  23.580   1.242  13.017
41422W        W13847   4.209   5.332   0.774
41423W        W13848  33.938  33.953  14.276
41424W        W13849  16.253   5.376  13.415
41425W        W13850  40.463   2.750   4.739
41426W        W13851  12.712   6.261  13.328
41427W        W13852  39.834  22.589   0.429
41428W        W13853  32.607  15.760   4.264
41429W        W13854  11.303  31.051   1.799
41430W        W13855  27.622  24.054  14.803
41431W        W13856  42.512  23.522   2.846
41432W        W13857   7.171  36.067   2.397
41433W        W13858  21.536  37.924  12.090
41434W        W13859  10.774  22.065  13.027
41435W        W13860  17.131  15.599  14.922
41436W        W13861  19.538  19.195   3.667
41437W        W13862  11.694  23.987   2.891
41438W        W13863  20.586  44.332  13.983
41439W        W13864  18.581  23.183   2.339
41440W        W13865  16.072  26.468   2.396
41441W        W13866  23.988  28.613   4.672
41442W        W13867   1.748  22.186   1.742
41443W        W13868   0.437  36.041   1.928
41444W        W13869  19.218  25.068  11.562
41445W        W13870  34.500  29.017  14.906
41446W        W13871  35.978  22.065   4.207
41447W        W13872   9.863   5.333   1.334
41448W        W13873   0.879  25.021   2.400
41449W        W13874  17.280  19.158  11.063
41450W        W13875   3.423   7.402   2.675
41451W        W13876  25.512  25.111   4.797
41452W        W13877  37.992  31.071   0.816
41453W        W13878  25.970  36.561  14.869
41454W        W13879  14.708   1.953   0.799
41455W        W13880  27.071  42.795   3.653
41456W        W13881  31.449  22.739   2.883
41457W        W13882  38.487  27.180   4.331
41458W        W13883  30.522  39.047   2.730
41459W        W13884  16.289  29.648   2.858
41460W        W13885   8.286  37.582   0.363
41461W        W13886  30.014  21.069   3.840
41462W        W13887  22.021   1.909  12.520
41463W        W13888  18.257  23.130  12.861
41464W        W13889  41.375  30.985  13.952
41465W        W13890  34.614  42.954  13.414
41466W        W13891  25.014  30.626  12.901
41467W        W13892  25.050  37.985  11.947
41468W        W13893  16.174  42.444  14.506
41469W        W13894  15.229   0.839   0.779
41470W        W13895  14.238  34.117   1.869
41471W        W13896  14.788  38.996  11.893
41472W        W13897  44.911  34.412   5.638
41473W        W13898  41.516  35.484   3.326
41474W        W13899  13.189  24.508  10.062
41475W        W13900   8.877   4.387  11.390
41476W        W13901  12.191  13.810  13.892
41477W        W13902  23.694  30.638  10.959
41478W        W13903  26.990   6.182   3.175
41479W        W13904  40.438   0.446  12.397
41480W        W13905  18.560   2.887  14.958
41481W        W13906  36.363  34.580  13.448
41482W        W13907   4.937  24.488  14.797
41483W        W13908  14.097  34.537   2.220
41484W        W13909  36.500  28.453  11.440
41485W        W13910  14.733  23.489  10.418
41486W        W13911   8.674  29.167  14.764
41487W        W13912  19.051  34.495  14.513
41488W        W13913  42.847  15.779  12.012
41489W        W13914  28.961  18.232  12.824
41490W        W13915  14.747  29.963  13.493
41491W        W13916   4.334  32.433  10.972
41492W        W13917   4.419  43.788   0.427
41493W        W13918  12.631  33.118   4.619
41494W        W13919   4.940   3.407   3.385
41495W        W13920  17.295  15.226   2.221
41496W        W13921  36.869  21.618  13.989
41497W        W13922  18.153   5.767   1.229
41498W        W13923  20.737  21.595   3.377
41499W        W13924  32.602  16.098   4.684
41500W        W13925  18.585  29.496   3.184
41501W        W13926  20.142  23.615   0.855
41502W        W13927  35.493  15.215   0.938
41503W        W13928  30.963  18.159   4.163
41504W        W13929  15.598  16.303   0.958
41505W        W13930  15.650  42.404   4.707
41506W        W13931  36.497  34.023   1.699
41507W        W13932  37.861  44.405  14.452
41508W        W13933  27.683  35.085   4.157
41509W        W13934   0.486  13.298   3.316
41510W        W13935  34.574   6.306   1.305
41511W        W13936   6.238  30.079   1.396
41512W        W13937  42.286   8.788   0.384
41513W        W13938  35.587  16.570   3.836
41514W        W13939  14.253  37.859   0.349
41515W        W13940  42.481  34.012  14.436
41516W        W13941   8.325  28.577   4.149
41517W        W13942  33.626  37.528  12.930
41518W        W13943  22.675   7.205   4.268
41519W        W13944  14.321  30.943   2.881
41520W        W13945  25.124  30.948   2.221
41521W        W13946  42.872   4.790   5.292
41522W        W13947  25.694   0.410   1.730
41523W        W13948   2.785   1.302   2.387
41524W        W13949   5.764   3.324   0.410
41525W        W13950  27.982   7.176   2.298
41526W        W13951  10.636  38.441   3.187
41527W        W13952  29.943  18.099  10.640
41528W        W13953  23.604  32.031   4.707
41529W        W13954  26.522  42.428  12.058
41530W        W13955   8.324   0.303  10.478
41531W        W13956  24.537  15.607  13.865
41532W        W13957  44.265  33.065  10.911
41533W        W13958  24.084  38.851   0.391
41534W        W13959  39.511   0.421  13.337
41535W        W13960   6.687   5.264  14.995
41536W        W13961  21.142  11.734   2.399
41537W        W13962  10.321  29.936  13.461
41538W        W13963  14.768  10.856  12.458
41539W        W13964  14.657  40.827  11.904
41540W        W13965  42.966  13.788   2.251
41541W        W13966  14.619  21.198  14.795
41542W        W13967  36.081   4.222   4.201
41543W        W13968  12.668  41.847   1.321
41544W        W13969   5.388  19.771  11.510
41545W        W13970  29.027  39.912   0.260
41546W        W13971   0.809  34.119   2.837
41547W        W13972  20.243  20.656   0.849
41548W        W13973  33.418  14.334   5.316
41549W        W13974  36.914  13.170   0.456
41550W        W13975  17.687  26.187   1.816
41551W        W13976  38.828  26.475  10.069
41552W        W13977  10.366  26.537   2.183
41553W        W13978   1.329  17.587  10.465
41554W        W13979  35.950  13.633   4.181
41555W        W13980  37.846  41.866  11.023
41556W        W13981  35.068  21.708   1.913
41557W        W13982   3.954  35.374  10.899
41558W        W13983  18.271  23.592   3.334
41559W        W13984  36.866  22.152   3.763
41560W        W13985  17.560  15.636   0.419
41561W        W13986  21.094  31.606  11.031
41562W        W13987   6.363   4.822   2.791
41563W        W13988  32.001   2.336  14.397
41564W        W13989   1.477   8.768   3.233
41565W        W13990  15.783  33.459   1.868
41566W        W13991   7.347  36.376  11.078
41567W        W13992  20.157  19.065   0.915
41568W        W13993  25.596  27.102   1.854
41569W        W13994   1.391  28.536   3.245
41570W        W13995   8.187   1.419  10.594
41571W        W13996  35.072   4.837   0.940
41572W        W13997   9.388  20.741  11.394
41573W        W13998  39.021  21.626   1.368
41574W        W13999  15.101  35.869   3.791
41575W        W14000  32.558   3.923   0.293
41576W        W14001  29.140  44.796  11.925
41577W        W14002  24.160  27.604   4.299
41578W        W14003   6.763  29.005   4.730
41579W        W14004  27.596  11.172   1.339
41580W        W14005  16.620  21.058  14.869
41581W        W14006  11.809  39.512   2.813
41582W        W14007  24.042   5.784  10.577
41583W        W14008  25.215   0.490  11.034
41584W        W14009  24.495  13.196  12.923
41585W        W14010   3.807  21.228  14.777
41586W        W14011  30.972  26.694  14.464
41587W        W14012  35.371  11.778   0.465
41588W        W14013  13.749  27.963   0.369
41589W        W14014  28.503  37.510   2.192
41590W        W14015  17.244  30.030   1.434
41591W        W14016   2.267  31.404  14.858
41592W        W14017  10.658   3.339   3.738
41593W        W14018   2.354  42.298  13.930
41594W        W14019  12.683  26.676  10.458
41595W        W14020  44.282  34.481   1.736
41596W        W14021  42.829  32.023   0.900
41597W        W14022  31.594  14.330   1.698
41598W        W14023  20.664   3.420  14.507
41599W        W14024  37.046  19.091   0.314
41600W        W14025  24.612  17.186  10.895
41601W        W14026  31.050  14.315  13.381
41602W        W14027   9.343  26.505   3.242
41603W        W14028  21.690  21.024  14.339
41604W        W14029  14.711   5.403  13.859
41605W        W14030   8.389  26.685   0.265
41606W        W14031  20.658  37.509   3.651
41607W        W14032  28.640  37.567  10.904
41608W        W14033   9.700  10.802  12.372
41609W        W14034   2.957  27.473   4.830
41610W        W14035  37.550  18.266  13.997
41611W        W14036  14.108  10.197   1.360
41612W        W14037  43.441  42.985  11.070
41613W        W14038  41.380  42.863  14.770
41614W        W14039  11.668  16.625   2.849
41615W        W14040  35.903   0.936   1.808
41616W        W14041  34.041  10.270   3.211
41617W        W14042   0.288  14.145  11.598
41618W        W14043  10.376  39.439  14.977
41619W        W14044  44.380  14.602  14.371
41620W        W14045  18.645   6.381  13.052
41621W        W14046  10.643  12.686  12.515
41622W        W14047  23.164   9.671   9.995
41623W        W14048   5.216  20.119   3.334
41624W        W14049   6.796  21.234   1.732
41625W        W14050  21.029  29.995  11.593
41626W        W14051  15.312  26.033   2.233
41627W        W14052  44.930  18.655   0.756
41628W        W14053   8.330   7.337   4.267
41629W        W14054   6.238  44.973  13.906
41630W        W14055   9.755  41.037   1.255
41631W        W14056  20.199  10.755   1.708
41632W        W14057  16.654  32.409   5.171
41633W        W14058  18.295  27.075  12.460
41634W        W14059   6.371  29.431  14.863
41635W        W14060  30.483   1.895  14.868
41636W        W14061  44.856   4.291   4.311
41637W        W14062  14.194  14.740   2.232
41638W        W14063  14.153  25.169  13.977
41639W        W14064  36.852   8.818  13.032
41640W        W14065  19.550  23.547   2.318
41641W        W14066  21.521  21.753   0.934
41642W        W14067  20.747  42.453   3.676
41643W        W14068   8.889   9.391  11.993
41644W        W14069  30.426  20.761   0.286
41645W        W14070  41.458  28.628   3.247
41646W        W14071  26.014  43.009   2.668
41647W        W14072   1.260  39.928   0.837
41648W        W14073  33.115   0.272  12.527
41649W        W14074  12.784   1.856   2.234
41650W        W14075   7.857  33.486  12.060
41651W        W14076  28.121  23.574  14.794
41652W        W14077  36.974  30.988  14.970
41653W        W14078  29.566  35.392  11.126
41654W        W14079  26.164  44.882   1.441
41655W        W14080  30.513  20.127  13.506
41656W        W14081  28.136  26.035   3.177
41657W        W14082  36.355   6.921  10.132
41658W        W14083  30.533  10.272  12.027
41659W        W14084  11.686  27.138   0.373
41660W        W14085   2.277   2.338  10.490
41661W        W14086  15.712  12.129  14.414
41662W        W14087  33.569  32.012   4.797
41663W        W14088  29.955  14.782   0.775
41664W        W14089  27.185  32.595  11.436
41665W        W14090  37.538  44.485   0.845
41666W        W14091   5.277  24.146   1.395
41667W        W14092  43.899   5.335  12.072
41668W        W14093  12.177  41.964  13.406
41669W        W14094   4.800  38.845   1.271
41670W        W14095  16.668  34.558  13.383
41671W        W14096  27.973   7.731   4.645
41672W        W14097  34.099  15.263   2.845
41673W        W14098  35.895  30.505  11.459
41674W        W14099  30.464  33.565   1.348
41675W        W14100  25.133  28.169   3.339
41676W        W14101  34.610  20.529  10.915
41677W        W14102  20.057  42.924   2.276
41678W        W14103  25.066  23.103  13.827
41679W        W14104  21.125  18.592  12.357
41680W        W14105  37.513   5.693   2.226
41681W        W14106  14.256  33.535  12.882
41682W        W14107  15.249  17.799  14.422
41683W        W14108  22.606   9.165   2.244
41684W        W14109   7.262  41.536  11.609
41685W        W14110  35.381   8.388   3.360
41686W        W14111  38.470  23.229  12.500
41687W        W14112  43.769  22.210  10.993
41688W        W14113  16.074  37.398   4.665
41689W        W14114  10.167  33.461   2.354
41690W        W14115  10.317  27.662   3.310
41691W        W14116  32.445  15.776  13.381
41692W        W14117  34.007   5.771   0.471
41693W        W14118  44.841  12.283  11.416
41694W        W14119   8.312  18.712   0.391
41695W        W14120  25.025  30.048  12.375
41696W        W14121  18.233  30.534  13.373
41697W        W14122  10.341  24.513  10.122
41698W        W14123  27.473   7.404   3.273
41699W        W14124  10.665  23.224   4.636
41700W        W14125   5.371  27.079   3.229
41701W        W14126  16.793   9.157  13.427
41702W        W14127  36.563   6.409   4.670
41703W        W14128  44.379  33.444  13.481
41704W        W14129  38.862   7.775   0.807
41705W        W14130   3.230  14.103  14.511
41706W        W14131   0.249   9.740  11.386
41707W        W14132  28.146  40.425   3.172
41708W        W14133  43.429  11.858  10.480
41709W        W14134  30.946  35.989   5.307
41710W        W14135  10.161  23.187  10.529
41711W        W14136  12.192  37.927   0.462
41712W        W14137  22.638  34.928  11.970
41713W        W14138  42.876   6.200   3.849
41714W        W14139  12.298  30.014  12.081
41715W        W14140  42.393   8.370  12.093
41716W        W14141  12.747  16.203   0.890
41717W        W14142  35.452   8.722   2.715
41718W        W14143  19.678  36.535  12.972
41719W        W14144   0.950  11.690   4.790
41720W        W14145  37.835  38.566  13.428
41721W        W14146  10.729  11.176  13.896
41722W        W14147  25.131   3.256  12.049
41723W        W14148  28.995  40.318   0.353
41724W        W14149  30.451  25.998   2.317
41725W        W14150  42.455   1.738  11.966
41726W        W14151  34.896   3.322  11.027
41727W        W14152   5.347  41.928  12.988
41728W        W14153  38.066  43.344  10.534
41729W        W14154  40.979  28.526  14.785
41730W        W14155  17.605  16.638  10.561
41731W        W14156  14.169  42.378  13.900
41732W        W14157  17.117  10.380   0.279
41733W        W14158  44.298  16.133  10.628
41734W        W14159  33.123   8.335  14.481
41735W        W14160  17.083   2.731   4.324
41736W        W14161   1.316  18.566  12.415
41737W        W14162  39.535  40.339  14.871
41738W        W14163  19.675  13.276   0.813
41739W        W14164  13.248  18.684  14.785
41740W        W14165  15.123  15.089  11.438
41741W        W14166  14.153  38.403   4.172
41742W        W14167  22.553   6.369   3.679
41743W        W14168  33.385  18.054   2.337
41744W        W14169  41.028  19.725   3.185
41745W        W14170  43.516   8.704  10.082
41746W        W14171  15.687  25.472   1.323
41747W        W14172  39.953   5.724   0.445
41748W        W14173   9.191  25.664   0.965
41749W        W14174  26.508  30.629   4.196
41750W        W14175  33.572   3.345  10.992
41751W        W14176  35.517  32.608  12.464
41752W        W14177  24.520  41.865  10.431
41753W        W14178  24.682  11.367  11.967
41754W        W14179  26.500  21.695  14.469
41755W        W14180  41.973  22.113   0.866
41756W        W14181  43.300  24.723  10.955
41757W        W14182  34.947  40.490   1.895
41758W        W14183  42.794  11.140  10.592
41759W        W14184  24.227  10.875   4.781
41760W        W14185  13.821  10.693   1.249
41761W        W14186  33.381  20.038   0.317
41762W        W14187  35.422  18.734  12.076
41763W        W14188  38.841  41.311   1.818
41764W        W14189  42.308   2.271  13.808
41765W        W14190  18.711   6.424   4.197
41766W        W14191  12.716   6.213   3.654
41767W        W14192  26.476  37.062   4.724
41768W        W14193  19.596   7.211   0.771
41769W        W14194  40.047  41.407  13.314
41770W        W14195   6.416  17.128   1.342
41771W        W14196  38.405   7.203   2.831
41772W        W14197   3.421  39.407  14.465
41773W        W14198  29.586   7.677   4.304
41774W        W14199  22.028   7.693   2.211
41775W        W14200  22.703  19.586   0.821
41776W        W14201  37.555  30.462   3.261
41777W        W14202  35.883  43.767  13.308
41778W        W14203  28.146  12.212  12.477
41779W        W14204  22.080  17.163  13.959
41780W        W14205  30.978  17.215   1.846
41781W        W14206  41.960  37.954   1.430
41782W        W14207   9.199  20.587   4.674
41783W        W14208   5.287  32.450   1.901
41784W        W14209  21.056   3.399  14.913
41785W        W14210   1.929   5.917   4.206
41786W        W14211  21.631  23.677  13.440
41787W        W14212  37.494  28.959   1.927
41788W        W14213  41.369   9.364   3.351
41789W        W14214  34.000  12.350   2.347
41790W        W14215   3.353  40.320   0.938
41791W        W14216  39.936  30.088  14.946
41792W        W14217  44.008  17.777   4.188
41793W        W14218  21.755  10.145  12.456
41794W        W14219   2.262  38.480  12.068
41795W        W14220  36.471  10.191  12.050
41796W        W14221  23.218  25.664   4.213
41797W        W14222  37.381  43.402  13.812
41798W        W14223   1.392  20.667   3.227
41799W        W14224  17.134  25.677   1.805
41800W        W14225  38.396  36.863   0.400
41801W        W14226  19.039  39.884  11.542
41802W        W14227   3.834  27.071   2.831
41803W        W14228  37.966   5.296  14.335
41804W        W14229  18.784  27.496  10.942
41805W        W14230  18.667   7.328  10.117
41806W        W14231  23.500  24.490  14.799
41807W        W14232  35.929  10.723  12.002
41808W        W14233   7.739  24.167  11.409
41809W        W14234  31.424  29.665   2.746
41810W        W14235  39.827  20.241  13.060
41811W        W14236  18.565   9.376  12.572
41812W        W14237  43.458   6.267   4.709
41813W        W14238   5.918  17.287  14.308
41814W        W14239   8.171  23.555   0.856
41815W        W14240  14.818  33.424  10.020
41816W        W14241  24.588  43.805  10.490
41817W        W14242  17.570  37.027   1.446
41818W        W14243   5.741   7.767  12.081
41819W        W14244  14.828  38.851  10.993
41820W        W14245   2.392  28.173   4.787
41821W        W14246  10.787   8.731   1.849
41822W        W14247  33.539  13.204   4.695
41823W        W14248  12.611  24.687   4.679
41824W        W14249  25.992  18.759  11.982
41825W        W14250  36.388   2.254  13.061
41826W        W14251   7.701  19.714   0.453
41827W        W14252  33.118  33.612  12.465
41828W        W14253  37.353  23.611  12.342
41829W        W14254  18.620  32.956   4.334
41830W        W14255   0.321  16.085   0.882
41831W        W14256  13.294  35.096  14.892
41832W        W14257  24.567  12.767  13.536
41833W        W14258  13.349  29.168  12.548
41834W        W14259  29.132   4.782   4.198
41835W        W14260  19.627  14.614   1.886
41836W        W14261  18.101   2.743  10.626
41837W        W14262  10.663  30.990  14.387
41838W        W14263   3.855  20.165  14.811
41839W        W14264   7.344  41.361  11.087
41840W        W14265  28.065  29.105  14.907
41841W        W14266  19.535  20.600  12.837
41842W        W14267   0.930  17.208   2.814
41843W        W14268   9.355  33.616  12.829
41844W        W14269  18.222  32.495  12.825
41845W        W14270  40.818  29.585  10.583
41846W        W14271  24.159  15.663   1.407
41847W        W14272  21.566   9.862  11.942
41848W        W14273  42.318  37.010   4.702
41849W        W14274   6.331  40.421   2.777
41850W        W14275  23.152  29.093   1.876
41851W        W14276  26.462  29.124   0.773
41852W        W14277  24.106  14.330  14.842
41853W        W14278  10.211  32.610   1.399
41854W        W14279  20.193   0.415  13.799
41855W        W14280  43.276   3.785  13.878
41856W        W14281   7.361   4.272  14.844
41857W        W14282  42.364  15.170  12.947
41858W        W14283  44.348  42.873  12.572
41859W        W14284   2.877  39.381   3.734
41860W        W14285   1.808  35.401  14.012
41861W        W14286  33.576   4.333  14.827
41862W        W14287  18.178  36.356   1.423
41863W        W14288  18.776  34.571  10.149
41864W        W14289  19.755  21.636  12.049
41865W        W14290  20.666  44.476   0.438
41866W        W14291  42.808   6.370  11.495
41867W        W14292  20.743  29.484  10.939
41868W        W14293  22.065  28.550   1.889
41869W        W14294  30.629  23.034   5.743
41870W        W14295  43.500   5.310   0.957
41871W        W14296   7.835  22.134   1.307
41872W        W14297   8.307  29.496   4.127
41873W        W14298  37.543  18.088  14.896
41874W        W14299  30.535  13.773   0.746
41875W        W14300   4.446  12.769  14.425
41876W        W14301   8.845  22.744  13.035
41877W        W14302  16.620   4.921  11.035
41878W        W14303  42.778  28.621  10.404
41879W        W14304  31.063  38.479  12.516
41880W        W14305  35.525  19.133   4.740
41881W        W14306  31.111  25.023   1.918
41882W        W14307  28.035  23.560  12.425
41883W        W14308  26.181  15.197  10.423
41884W        W14309  20.703  16.619   0.822
41885W        W14310  30.078   5.749  12.544
41886W        W14311  29.975   0.337  12.416
41887W        W14312   1.849  21.536  10.620
41888W        W14313   6.312  34.444  12.836
41889W        W14314  24.708  37.867  13.879
41890W        W14315   6.782  14.117   0.248
41891W        W14316  42.871  25.037  14.887
41892W        W14317  41.367  19.222  13.042
41893W        W14318  26.517  37.874  14.879
41894W        W14319   2.945   3.361   1.274
41895W        W14320  19.168  23.729  12.576
41896W        W14321  12.360  25.686   3.275
41897W        W14322   6.735  33.976   0.265
41898W        W14323   3.228   6.868  14.819
41899W        W14324   3.224   8.224  12.520
41900W        W14325   4.273  33.938  14.474
41901W        W14326   6.706  19.761   0.910
41902W        W14327   2.390  11.639   0.362
41903W        W14328  42.842  24.040   5.250
41904W        W14329  29.621  30.162  10.975
41905W        W14330  35.072  44.417   2.745
41906W        W14331  30.114  10.229  10.443
41907W        W14332  19.178   9.654  11.393
41908W        W14333   2.879  13.344   2.263
41909W        W14334  42.294  25.695  12.093
41910W        W14335  32.605  19.563   2.668
41911W        W14336  10.141  39.341  14.296
41912W        W14337  28.579  22.654  10.591
41913W        W14338  15.638  25.475  13.023
41914W        W14339  10.640  15.195  13.956
41915W        W14340  35.602  30.129  11.926
41916W        W14341  26.084  11.153   3.804
41917W        W14342  24.119  26.152  11.904
41918W        W14343  12.227   1.302  10.594
41919W        W14344  32.137  14.704   4.136
41920W        W14345  19.661  11.155  14.802
41921W        W14346  13.656   5.823  13.934
41922W        W14347  29.108  33.614  13.469
41923W        W14348  33.029  38.841   1.319
41924W        W14349  24.982   3.888   4.152
41925W        W14350  15.242   2.875   4.346
41926W        W14351  12.626  14.240   1.447
41927W        W14352  26.631   2.315  11.450
41928W        W14353  25.065  37.878   5.227
41929W        W14354   3.715   5.737   0.301
41930W        W14355  11.666   5.928  11.862
41931W        W14356  20.763  21.033   2.362
41932W        W14357  26.595  10.762  12.428
41933W        W14358   4.427   9.814   1.419
41934W        W14359  25.508   5.894  13.375
41935W        W14360   6.835  13.689  14.338
41936W        W14361  39.820  24.080   2.757
41937W        W14362  19.121  37.483  14.392
41938W        W14363  25.637   7.675   4.179
41939W        W14364  36.413  11.225   2.372
41940W        W14365  14.280  30.486  10.546
41941W        W14366  12.689   8.167   3.666
41942W        W14367  15.727  19.244  10.618
41943W        W14368  14.143  32.446  10.051
41944W        W14369  36.923  28.166   2.766
41945W        W14370  38.063  21.129  10.549
41946W        W14371  35.387   7.378   1.358
41947W        W14372   9.234  23.622  11.545
41948W        W14373  24.089  22.585   5.180
41949W        W14374  26.952   2.829   2.216
41950W        W14375  12.734  13.272   3.630
41951W        W14376   9.846   8.283  12.845
41952W        W14377  19.772  18.620  10.561
41953W        W14378   4.231  39.827   2.377
41954W        W14379  30.537   7.392  11.601
41955W        W14380  32.994  12.650   4.247
41956W        W14381  20.749  10.634  10.541
41957W        W14382   0.488  13.833   3.326
41958W        W14383  18.712  38.479   2.898
41959W        W14384   3.874  19.537  10.472
41960W        W14385  44.843  23.148  10.601
41961W        W14386   2.227  38.380  11.526
41962W        W14387   4.766   9.756  13.064
41963W        W14388   9.382  27.485  12.007
41964W        W14389   6.204  11.240  13.422
41965W        W14390   9.645  36.545   4.303
41966W        W14391  44.358  35.966   0.437
41967W        W14392   2.829  33.540  14.962
41968W        W14393  14.782  15.149  11.541
41969W        W14394  36.480  44.800  13.416
41970W        W14395  22.053  30.562   2.761
41971W        W14396  19.147   7.708   0.451
41972W        W14397  42.327  35.978   1.307
41973W        W14398  22.564  42.026   0.326
41974W        W14399   9.328  40.374  13.396
41975W        W14400   2.457  19.773   5.286
41976W        W14401  38.824  26.587   3.650
41977W        W14402   0.434   2.360   0.256
41978W        W14403  20.028  29.571  13.345
41979W        W14404  33.625   4.707   3.173
41980W        W14405  36.847  33.111  12.016
41981W        W14406  19.625  24.155  10.952
41982W        W14407  19.064  20.109  10.468
41983W        W14408  44.312  38.448   2.386
41984W        W14409   3.398  34.572  11.980
41985W        W14410  11.303  25.530  12.391
41986W        W14411  20.257   4.310  11.517
41987W        W14412   5.295  43.896  11.871
41988W        W14413  20.191   6.305   4.744
41989W        W14414  24.151   0.769   5.318
41990W        W14415  23.122  35.395  13.474
41991W        W14416  29.173  10.798  14.376
41992W        W14417   9.255  21.514  14.415
41993W        W14418   1.790  42.503  10.536
41994W        W14419  23.494  24.536   0.876
41995W        W14420  27.079   9.885   4.609
41996W        W14421  37.842  17.292   1.899
41997W        W14422   3.418   1.743   0.448
41998W        W14423  11.361  24.127  14.474
41999W        W14424  40.051  21.228   0.318
42000W        W14425   0.879  25.208   5.196
42001W        W14426   5.265   6.349   2.224
42002W        W14427  42.307  44.954  13.794
42003W        W14428   8.879  26.609  14.491
42004W        W14429  24.657  40.348  13.050
42005W        W14430  20.064  18.132   3.211
42006W        W14431  39.336  38.975  12.381
42007W        W14432   4.867   2.426   3.826
42008W        W14433   0.279  23.525  13.845
42009W        W14434  24.131   3.829  13.053
42010W        W14435  44.764  33.432  10.893
42011W        W14436  42.479  19.694   3.718
42012W        W14437  35.993  16.759  13.360
42013W        W14438  20.533   8.350   1.871
42014W        W14439  35.059  42.032  12.844
42015W        W14440  34.934  25.607  14.431
42016W        W14441  38.350  36.494   0.968
42017W        W14442  40.412  18.544  14.393
42018W        W14443  26.636  42.292  14.795
42019W        W14444  30.155  28.970   3.149
42020W        W14445  18.251   2.303   0.312
42021W        W14446   0.270  20.081  14.883
42022W        W14447  38.361  12.272   1.705
42023W        W14448  31.013  11.131  12.060
42024W        W14449   9.258  11.844  11.575
42025W        W14450  22.568  44.361   5.284
42026W        W14451  24.499  30.561  11.973
42027W        W14452  25.988  14.777   1.259
42028W        W14453   1.933  35.593   3.702
42029W        W14454  39.946  20.717  10.008
42030W        W14455  25.163  43.477  14.322
42031W        W14456  24.098  10.161   3.297
42032W        W14457   6.318  19.057  12.044
42033W        W14458  35.988  25.522  10.618
42034W        W14459  22.010  16.230  13.488
42035W        W14460  38.326  20.581  11.003
42036W        W14461   4.375  11.767   3.776
42037W        W14462  34.527   8.663  12.367
42038W        W14463  21.072  32.084  14.024
42039W        W14464  32.530  22.552  11.914
42040W        W14465   0.817  29.598  13.313
42041W        W14466  12.852  29.172   3.253
42042W        W14467   5.826  16.705   1.827
42043W        W14468  15.246  27.949   1.369
42044W        W14469  25.962  11.761  13.911
42045W        W14470  31.608   2.730  11.418
42046W        W14471  24.199   4.720   1.838
42047W        W14472  25.126  17.670  14.457
42048W        W14473   2.349  36.900   1.389
42049W        W14474  43.382  19.145  13.812
42050W        W14475  29.544   2.878  11.113
42051W        W14476  22.103  41.301   3.750
42052W        W14477  24.160   3.759   4.307
42053W        W14478  27.118   0.929   3.326
42054W        W14479  32.087  19.255   4.256
42055W        W14480   5.843  35.896   2.698
42056W        W14481   4.204  15.799  14.814
42057W        W14482  13.774  29.547  10.613
42058W        W14483  22.064  30.644  14.884
42059W        W14484  11.133  12.291  11.885
42060W        W14485  26.667  33.078  10.566
42061W        W14486   6.360  10.840   0.380
42062W        W14487  26.160   2.817   4.662
42063W        W14488   7.864  31.455   4.701
42064W        W14489  45.000   3.252   0.817
42065W        W14490   8.382  27.685  12.469
42066W        W14491  19.218  43.961   2.800
42067W        W14492  21.698   8.377   1.271
42068W        W14493   6.815  44.787  11.572
42069W        W14494  24.133  36.504   4.797
42070W        W14495  36.574  20.581  11.938
42071W        W14496  22.617  39.920   3.866
42072W        W14497   0.467   6.312   2.344
42073W        W14498   2.395  18.277   0.849
42074W        W14499  42.406   7.780  11.386
42075W        W14500  24.147  30.105  10.429
42076W        W14501  44.816   4.214  14.002
42077W        W14502  25.136  16.194  13.962
42078W        W14503  13.613  41.847   3.233
42079W        W14504  44.758  22.615   3.802
42080W        W14505   4.746  24.130   5.140
42081W        W14506  36.531   0.754   1.813
42082W        W14507  20.181  27.470   3.851
42083W        W14508  25.039  25.008   2.807
42084W        W14509  37.358  43.503  11.566
42085W        W14510  24.145   2.242   3.776
42086W        W14511  26.617   7.372   2.693
42087W        W14512   2.726  17.592   3.675
42088W        W14513  41.385  27.651  12.906
42089W        W14514  35.088  25.515   3.187
42090W        W14515  39.967  35.586   3.671
42091W        W14516   8.787   8.387  13.403
42092W        W14517  12.848  17.062  14.933
42093W        W14518  28.996  15.321   1.914
42094W        W14519  35.456  33.508  13.800
42095W        W14520  42.506  16.671  10.629
42096W        W14521   6.214  12.740   0.457
42097W        W14522   1.434   9.868  10.490
42098W        W14523   9.737  10.312  13.017
42099W        W14524   1.845  19.135  13.054
42100W        W14525  12.296  42.885   1.914
42101W        W14526  36.584  29.118   4.346
42102W        W14527  42.780   0.277   0.298
42103W        W14528   2.917  19.656   2.407
42104W        W14529  20.124  10.229   4.669
42105W        W14530   8.378  16.168   3.645
42106W        W14531  39.340  35.099   2.279
42107W        W14532  34.562  26.593   2.698
42108W        W14533   0.361  27.060  12.478
42109W        W14534  34.468  11.826   1.422
42110W        W14535  14.769  33.004   4.292
42111W        W14536  35.445  21.640   0.955
42112W        W14537  34.959  14.614  14.773
42113W        W14538  37.448  29.537  10.477
42114W        W14539   9.727  13.111  11.996
42115W        W14540  37.441  38.977   0.961
42116W        W14541  42.407  32.415  14.385
42117W        W14542  43.308  20.700   1.278
42118W        W14543  21.024  39.819  10.916
42119W        W14544  30.967  23.522   1.900
42120W        W14545  33.980  31.028  14.028
42121W        W14546  39.055  42.855  14.329
42122W        W14547  29.512  12.250  14.767
42123W        W14548  35.978  36.002   0.945
42124W        W14549  32.392  29.579   1.700
42125W        W14550  15.602  19.251   1.712
42126W        W14551  29.924  43.838  11.035
42127W        W14552  13.278  18.617  11.863
42128W        W14553  20.628  20.547  14.350
42129W        W14554   6.300  23.008   1.705
42130W        W14555  36.946  13.741   3.658
42131W        W14556  44.884  22.511  14.489
42132W        W14557  24.128  35.487  12.065
42133W        W14558   2.830  35.965   1.220
42134W        W14559  43.770  27.982  10.535
42135W        W14560  31.590   3.357   4.291
42136W        W14561  22.517  17.183   5.118
42137W        W14562  36.067  29.074  10.416
42138W        W14563   7.778  39.957   0.302
42139W        W14564  34.969  22.578  10.142
42140W        W14565  38.077  35.459   4.338
42141W        W14566  24.628   9.261  14.490
42142W        W14567  19.185  37.911  10.994
42143W        W14568  28.494  17.154   3.177
42144W        W14569  44.977  19.159   4.756
42145W        W14570  30.048  36.571   4.253
42146W        W14571  19.136  19.652   1.868
42147W        W14572  17.096  40.531   4.129
42148W        W14573   1.888  11.145   4.708
42149W        W14574  41.788  43.484  13.809
42150W        W14575  43.313  30.125  12.074
42151W        W14576   2.878   8.352   1.899
42152W        W14577  39.832   2.438   1.913
42153W        W14578  38.044  36.573   4.701
42154W        W14579  38.405  37.446   2.345
42155W        W14580  29.539  40.449  14.454
42156W        W14581  30.931  16.791   0.337
42157W        W14582  17.133  40.446  13.458
42158W        W14583  17.071  11.303   1.882
42159W        W14584  41.435  40.514   2.304
42160W        W14585  42.908  35.450  13.926
42161W        W14586  38.913  35.085  11.377
42162W        W14587  42.787  14.791   0.257
42163W        W14588  11.668  15.664   5.244
42164W        W14589   8.351  12.720   0.863
42165W        W14590  37.998   1.422   1.323
42166W        W14591  26.167  41.896  12.883
42167W        W14592  43.307   3.714   0.425
42168W        W14593  23.242  37.484  13.006
42169W        W14594  10.667   1.280   4.329
42170W        W14595  36.432  41.399   0.770
42171W        W14596  12.849  26.553  13.014
42172W        W14597  13.741  37.439  10.408
42173W        W14598  41.421  20.527  10.589
42174W        W14599   1.303   7.757   1.390
42175W        W14600  27.643  12.180  14.886
42176W        W14601  18.095  44.853  12.394
42177W        W14602  32.470  36.474   2.413
42178W        W14603  31.452  23.032   0.295
42179W        W14604  16.734  38.914   3.806
42180W        W14605  26.978   7.905   1.221
42181W        W14606   1.401   7.667   4.159
42182W        W14607   5.792  33.038  11.099
42183W        W14608  35.066  17.202  11.596
42184W        W14609   1.813  21.720   1.841
42185W        W14610  27.025  19.572  13.421
42186W        W14611  36.564   2.391  13.352
42187W        W14612   2.233   3.387   5.303
42188W        W14613  16.658  14.242   0.480
42189W        W14614   4.355   7.354  12.995
42190W        W14615  26.120  34.917   2.411
42191W        W14616  20.525  39.539   1.918
42192W        W14617   1.242  32.092   1.381
42193W        W14618   3.450  35.442  12.974
42194W        W14619  29.981   4.410  14.437
42195W        W14620  39.425  25.011  11.530
42196W        W14621   7.293  13.115  13.913
42197W        W14622  38.852  32.597  10.907
42198W        W14623  39.520  21.257   2.196
42199W        W14624  16.604  17.290   1.723
42200W        W14625  10.342  32.006   3.249
42201W        W14626  18.090  38.458  11.938
42202W        W14627  34.531  10.319  12.413
42203W        W14628  44.429  31.463  14.008
42204W        W14629  43.967   9.728   3.207
42205W        W14630  39.945   4.220  13.490
42206W        W14631  24.135  39.892  12.539
42207W        W14632  30.925   1.335   1.748
42208W        W14633  26.513  25.028  14.854
42209W        W14634  43.340   9.303  10.929
42210W        W14635   4.892  16.212   4.299
42211W        W14636  13.249  33.129  14.971
42212W        W14637   5.359   5.930  14.820
42213W        W14638   5.860  42.456  12.500
42214W        W14639  43.784  11.256  11.958
42215W        W14640  28.507   6.680  10.421
42216W        W14641  19.130  16.112   4.353
42217W        W14642  19.684  13.740  13.994
42218W        W14643  22.587  32.130   5.104
42219W        W14644  38.464  10.363  14.830
42220W        W14645  16.219  11.792   0.854
42221W        W14646   0.970   2.770  11.894
42222W        W14647   5.357  33.530  14.792
42223W        W14648  19.727  27.683  11.527
42224W        W14649  34.895   2.341  12.076
42225W        W14650  30.048  23.017   0.406
42226W        W14651   7.780   4.399   0.918
42227W        W14652  38.395   1.390   4.601
42228W        W14653  11.178  30.558   0.365
42229W        W14654   0.434  42.858   5.222
42230W        W14655  22.654  10.318   2.387
42231W        W14656  31.634  39.877   2.396
42232W        W14657  14.815  16.224   2.847
42233W        W14658  39.326  25.096   1.860
42234W        W14659  23.521  44.357  13.880
42235W        W14660  43.833   3.805  10.419
42236W        W14661   4.344   3.285   2.780
42237W        W14662  42.299  16.240  12.941
42238W        W14663  33.495   7.761   3.322
42239W        W14664  38.481  18.099  12.481
42240W        W14665  15.702  19.694  11.976
42241W        W14666  26.188  27.094   0.866
42242W        W14667  18.782  35.902  11.014
42243W        W14668  30.943  11.185  12.875
42244W        W14669  26.675   6.699  11.097
42245W        W14670  16.795  19.541  10.952
42246W        W14671   7.361  40.825  12.984
42247W        W14672  37.354  12.755  10.014
42248W        W14673  35.964  20.219  13.487
42249W        W14674  39.908  38.821   2.297
42250W        W14675   2.873  20.584  12.066
42251W        W14676  27.093  31.456   4.201
42252W        W14677  30.099  27.940  11.523
42253W        W14678  14.278  23.656  12.983
42254W        W14679   6.184   8.747  10.029
42255W        W14680  42.421  17.702   4.309
42256W        W14681  14.745  18.220  10.405
42257W        W14682  44.495  40.323   3.228
42258W        W14683   7.857  40.844  12.413
42259W        W14684  21.601  11.707  13.879
42260W        W14685   4.317  36.849  11.489
42261W        W14686  20.269  37.983   0.893
42262W        W14687  17.231  17.714  11.065
42263W        W14688  35.992   2.237   2.793
42264W        W14689   3.430  40.334  13.310
42265W        W14690  30.916   6.217  10.422
42266W        W14691  15.741  13.127  11.079
42267W        W14692  32.083  22.097  13.470
42268W        W14693  26.643  15.245   1.265
42269W        W14694  25.201  34.917   2.263
42270W        W14695  34.528  26.053   0.811
42271W        W14696  14.687  28.037  11.082
42272W        W14697  21.522  29.424   1.869
42273W        W14698  14.099  31.963  14.308
42274W        W14699  10.203  33.478  11.594
42275W        W14700  20.249  21.531  11.938
42276W        W14701  22.635  36.950   2.836
42277W        W14702  40.956   2.767   0.923
42278W        W14703  19.279  16.301   4.718
42279W        W14704  42.975  30.438  11.550
42280W        W14705  22.535  37.863   9.978
42281W        W14706  42.932  12.724  11.890
42282W        W14707   8.355  12.619  11.535
42283W        W14708   2.960   7.405   4.721
42284W        W14709  41.891  12.319   3.344
42285W        W14710  15.141  38.372  13.829
42286W        W14711  19.250  37.919  14.781
42287W        W14712  38.556  31.490   3.237
42288W        W14713  17.728  33.063  13.882
42289W        W14714  41.920   7.792  10.621
42290W        W14715   2.238  11.663   1.767
42291W        W14716   3.744   7.877  14.806
42292W        W14717  25.574  33.424   1.864
42293W        W14718  20.252  18.729  14.322
42294W        W14719  11.828  41.879   5.312
42295W        W14720  30.551  17.659   1.826
42296W        W14721  31.578  29.568   4.219
42297W        W14722   3.910  20.127   0.363
42298W        W14723  13.148  36.350   2.731
42299W        W14724  30.038  25.576  13.448
42300W        W14725  12.624  19.624  10.899
42301W        W14726  11.310   6.854   1.716
42302W        W14727  10.738  15.820  12.070
42303W        W14728  15.195   5.735   4.278
42304W        W14729  15.199  44.756   1.243
42305W        W14730  44.434  32.062  11.077
42306W        W14731  32.395   1.915   5.254
42307W        W14732  42.861  32.943   3.840
42308W        W14733  26.524  36.513  11.038
42309W        W14734   3.243   1.466  11.096
42310W        W14735  29.663  30.561   4.786
42311W        W14736  40.859   5.703   3.740
42312W        W14737  42.363  39.477   4.597
42313W        W14738  32.551  37.556  12.865
42314W        W14739  12.670   0.385   2.250
42315W        W14740  44.438   7.380  10.000
42316W        W14741  13.831  24.696   2.727
42317W        W14742  12.341  29.486  12.523
42318W        W14743   2.347   2.410   2.771
42319W        W14744   7.365   2.356  14.896
42320W        W14745  14.642  11.160   4.121
42321W        W14746   2.304  42.889  12.467
42322W        W14747  40.326   5.793   4.338
42323W        W14748  18.121   5.315   4.325
42324W        W14749   1.321  10.699   2.189
42325W        W14750  10.801  25.048   4.284
42326W        W14751  15.086  25.616  10.466
42327W        W14752  13.207  19.553   4.283
42328W        W14753   6.837  25.111  14.879
42329W        W14754   7.227  15.287  12.419
42330W        W14755  41.963  27.671  13.335
42331W        W14756  14.315  33.916  12.563
42332W        W14757  27.971  40.917   2.766
42333W        W14758   9.750   3.317   0.244
42334W        W14759  16.724  13.112  11.898
42335W        W14760  35.929  22.631  12.987
42336W        W14761  10.700  37.964   3.823
42337W        W14762   9.812  12.288   2.812
42338W        W14763  16.675  14.668   0.479
42339W        W14764  14.338  19.655   0.350
42340W        W14765  25.211  26.480   2.761
42341W        W14766  29.967  38.488  10.523
42342W        W14767  18.668  27.114   1.282
42343W        W14768  28.576  19.255   4.832
42344W        W14769   4.876  39.407  11.923
42345W        W14770  17.693  26.568  13.012
42346W        W14771   2.227   8.884  13.840
42347W        W14772  31.510  32.548   4.810
42348W        W14773  10.178  27.652   2.354
42349W        W14774  37.543  21.729  14.281
42350W        W14775   5.193  39.442   2.724
42351W        W14776  25.189  23.665   2.883
42352W        W14777  35.454  24.711  14.323
42353W        W14778  40.431  30.008   4.336
42354W        W14779  20.115  14.271   3.192
42355W        W14780   0.808   7.884   1.742
42356W        W14781  43.502   3.428   9.938
42357W        W14782  22.693  23.635   4.805
42358W        W14783  29.424  15.200   0.339
42359W        W14784   3.373  41.042  11.600
42360W        W14785  35.929  39.344   0.282
42361W        W14786  33.438  14.622   4.693
42362W        W14787   4.923  16.582  11.891
42363W        W14788   5.427  35.510   3.225
42364W        W14789  23.155  11.315   4.191
42365W        W14790  26.524   4.443   0.353
42366W        W14791   3.309  14.797   1.878
42367W        W14792  43.774   6.313  12.411
42368W        W14793  38.916  23.666  12.068
42369W        W14794  28.185   1.465   3.336
42370W        W14795   6.324   8.220  10.965
42371W        W14796  31.630  11.627   4.237
42372W        W14797  39.432  32.059  13.501
42373W        W14798   3.371  18.081   3.211
42374W        W14799  27.999  32.121   1.728
42375W        W14800  43.515  20.160   9.973
42376W        W14801  25.477  42.343  13.822
42377W        W14802  24.204  36.055   0.309
42378W        W14803  18.255  42.380  12.368
42379W        W14804  33.003  37.908   0.315
42380W        W14805  25.575  23.713  10.634
42381W        W14806  33.459  42.803   4.354
42382W        W14807  36.363  37.981  10.522
42383W        W14808  33.112  28.498   0.364
42384W        W14809  27.053  23.632   1.881
42385W        W14810  32.903  19.750   3.334
42386W        W14811  30.069  26.198  14.349
42387W        W14812  38.516  12.295   0.368
42388W        W14813   0.357  27.669   0.900
42389W        W14814  24.181   4.299  11.442
42390W        W14815  14.282  12.128   1.424
42391W        W14816  28.544  22.724  14.280
42392W        W14817   7.759  28.073   3.198
42393W        W14818  34.966  37.430  11.952
42394W        W14819  38.359  27.649   2.328
42395W        W14820  20.168  33.602  12.441
42396W        W14821   5.376  39.932   3.646
42397W        W14822  26.620   9.664   3.211
42398W        W14823  12.322   6.744  12.015
42399W        W14824  35.093  31.910  13.372
42400W        W14825  41.977   7.233  12.522
42401W        W14826   6.697   7.706   4.343
42402W        W14827  38.891  34.046  14.453
42403W        W14828  29.612  31.492   3.381
42404W        W14829   2.275   0.931   3.738
42405W        W14830  18.735  42.455   2.740
42406W        W14831  43.478   9.724  11.888
42407W        W14832  36.424   6.412   5.619
42408W        W14833  25.973   7.354  13.876
42409W        W14834  37.389  31.052  10.434
42410W        W14835  22.501   7.217   0.853
42411W        W14836  19.221  11.755   4.613
42412W        W14837   2.951  14.142   2.370
42413W        W14838   5.375   5.840  12.368
42414W        W14839  33.927  24.987  12.831
42415W        W14840  39.326  33.001   4.748
42416W        W14841  31.957  36.987  14.003
42417W        W14842  27.544  25.025  13.879
42418W        W14843  33.978  10.872   1.852
42419W        W14844  11.161   2.471  14.863
42420W        W14845  31.998   1.791   4.221
42421W        W14846  12.732  14.252   1.784
42422W        W14847  41.373  30.996  11.595
42423W        W14848  24.114  31.095  12.993
42424W        W14849  39.975  35.936   1.406
42425W        W14850   9.815  11.186   0.244
42426W        W14851  22.243  25.666   1.831
42427W        W14852   6.725  31.963  14.375
42428W        W14853  42.409  10.362  11.581
42429W        W14854  24.577  24.204   1.249
42430W        W14855  28.019  38.826  12.829
42431W        W14856  14.613   6.723   3.279
42432W        W14857  28.680  12.192   0.935
42433W        W14858  36.081  44.831   4.619
42434W        W14859  14.233  10.305  13.029
42435W        W14860  16.756  22.097  13.461
42436W        W14861   0.474  32.912  14.353
42437W        W14862  20.173  44.776   3.773
42438W        W14863  10.763  14.779   3.829
42439W        W14864  11.182   2.353  13.345
42440W        W14865  18.175  34.959   2.219
42441W        W14866  43.345   9.260   3.636
42442W        W14867   4.826  26.171   1.344
42443W        W14868  36.528  30.970  12.405
42444W        W14869  37.366  15.222   4.831
42445W        W14870  12.236  24.056   1.381
42446W        W14871  14.818  15.327   3.705
42447W        W14872   1.895  37.410  10.996
42448W        W14873  25.712  21.747   3.764
42449W        W14874  19.540   5.376   0.859
42450W        W14875  31.421  37.374  14.322
42451W        W14876  37.341   0.404  14.021
42452W        W14877  39.810  42.525   0.264
42453W        W14878  15.803   7.911  14.818
42454W        W14879   8.358  28.473   0.478
42455W        W14880  15.141  44.329   3.704
42456W        W14881   4.225  21.713  12.453
42457W        W14882   0.859  24.596   0.440
42458W        W14883  22.227  21.257   2.192
42459W        W14884  42.415   2.318  10.953
42460W        W14885  33.999  12.795  11.583
42461W        W14886  33.586  24.591  14.825
42462W        W14887  19.237   9.777  12.374
42463W        W14888  27.996  42.508   4.121
42464W        W14889  35.586  42.518  14.494
42465W        W14890  31.910  40.047   4.316
42466W        W14891  34.929  38.909  13.907
42467W        W14892  14.168  14.721  13.897
42468W        W14893  41.527  27.037   2.697
42469W        W14894  30.629  15.625   4.276
42470W        W14895   1.431  40.462   3.187
42471W        W14896  17.763  24.653   4.776
42472W        W14897  19.713  24.137  11.991
42473W        W14898  44.919   2.939   3.383
42474W        W14899  16.732  27.468   3.373
42475W        W14900  42.969  36.442  10.505
42476W        W14901   3.381  26.492  10.134
42477W        W14902  32.473   5.438   3.361
42478W        W14903  22.611  30.096   0.941
42479W        W14904  32.557  12.788   0.826
42480W        W14905   9.856  14.589  14.947
42481W        W14906  15.294  27.479  11.988
42482W        W14907  22.511  31.609  14.873
42483W        W14908  21.235  34.120  11.580
42484W        W14909  42.418  21.596  10.893
42485W        W14910  31.973  25.124   2.411
42486W        W14911  24.204  26.147   1.779
42487W        W14912  10.766  33.990   0.323
42488W        W14913  10.298   6.751   0.275
42489W        W14914  37.084  23.590   2.668
42490W        W14915  10.757  14.679  12.986
42491W        W14916  40.010   6.718  12.039
42492W        W14917   2.835  19.630   4.623
42493W        W14918  22.101   8.827   1.907
42494W        W14919  35.573   4.810  14.500
42495W        W14920  31.645  11.675  10.620
42496W        W14921  33.521  10.687  13.509
42497W        W14922  12.256  26.643   0.775
42498W        W14923  25.685  32.905   0.389
42499W        W14924  31.410  26.999   4.695
42500W        W14925   3.801  14.656   2.680
42501W        W14926   3.387  11.743   2.681
42502W        W14927  34.875  13.604  11.017
42503W        W14928  16.229  15.739   2.712
42504W        W14929  14.617  39.899   1.357
42505W        W14930   3.302  19.121  14.861
42506W        W14931  40.861  29.140  13.538
42507W        W14932  18.665  41.499   0.322
42508W        W14933  38.360   2.303   3.167
42509W        W14934  18.752  15.724   3.690
42510W        W14935  25.694  25.969  13.983
42511W        W14936   8.667  37.837   3.239
42512W        W14937  19.732  16.709  10.514
42513W        W14938   4.793   2.326  10.983
42514W        W14939  18.590  21.680   4.243
42515W        W14940  44.262  41.468  13.509
42516W        W14941   3.818  28.115   2.825
42517W        W14942  14.612  14.753   2.231
42518W        W14943   4.233  10.224  11.127
42519W        W14944  36.515  19.159  11.503
42520W        W14945  13.659  31.538   2.206
42521W        W14946  24.009  11.198  12.049
42522W        W14947   5.904  29.564  13.501
42523W        W14948  41.996  40.985   0.874
42524W        W14949  16.597  26.198   2.878
42525W        W14950  27.182  44.504  13.333
42526W        W14951  30.558  24.095  13.057
42527W        W14952  43.837  30.064  11.515
42528W        W14953  44.353  28.004   3.790
42529W        W14954  22.044   3.735   2.789
42530W        W14955   9.341  21.047   0.470
42531W        W14956  15.641  18.734   4.125
42532W        W14957   7.298  20.237   4.320
42533W        W14958  34.512  18.280  14.297
42534W        W14959  29.588  22.506  12.880
42535W        W14960  22.038  28.150   2.323
42536W        W14961  43.769  13.706   4.749
42537W        W14962   9.392  40.044   2.417
42538W        W14963  43.896  34.952   2.831
42539W        W14964  33.451  44.460   2.183
42540W        W14965  36.582  41.328  13.461
42541W        W14966  20.028  41.433   1.769
42542W        W14967  23.719  34.380  12.883
42543W        W14968  34.063  41.828  13.419
42544W        W14969  18.226   6.685  11.456
42545W        W14970   6.836   3.265   1.432
42546W        W14971  20.266   2.745  12.917
42547W        W14972  29.005  24.535   9.604
42548W        W14973  22.696  35.997   1.765
42549W        W14974  16.081  33.056  12.028
42550W        W14975  43.951  33.448   9.935
42551W        W14976  44.397  30.654  11.959
42552W        W14977  31.413  12.728   3.166
42553W        W14978  15.671  35.903   0.952
42554W        W14979  18.605  27.138   0.749
42555W        W14980  37.981  29.008  13.053
42556W        W14981  32.029  14.325   2.727
42557W        W14982   6.366  33.882  12.080
42558W        W14983  42.455  17.260   1.426
42559W        W14984  15.296  19.132  14.504
42560W        W14985   3.811  40.826   1.385
42561W        W14986  14.601   8.268   0.909
42562W        W14987  11.778  15.237   1.363
42563W        W14988  25.639   3.929   2.197
42564W        W14989  35.952  25.981   4.668
42565W        W14990  18.164  26.542   2.236
42566W        W14991  14.612   1.339   4.636
42567W        W14992   4.889  17.592   5.170
42568W        W14993  29.537  21.517   2.859
42569W        W14994  38.000  44.002   0.762
42570W        W14995  37.895  26.679  10.435
42571W        W14996   6.800  43.452   2.858
42572W        W14997  30.425  40.486  13.322
42573W        W14998  43.836   0.361  12.846
42574W        W14999   9.790  30.955  14.000
42575W        W15000  13.775   0.986  13.908
42576W        W15001  43.804   9.678  14.837
42577W        W15002   4.357  38.853  11.604
42578W        W15003  29.487  41.923   1.914
42579W        W15004  40.413  44.981  10.962
42580W        W15005  40.797  22.137   3.836
42581W        W15006  16.183  26.505  11.551
42582W        W15007   3.770  44.400   3.351
42583W        W15008  29.464  39.336   2.373
42584W        W15009   8.680  32.979   1.929
42585W        W15010  38.842   5.272   0.766
42586W        W15011  27.651  37.534   3.682
42587W        W15012   3.222  41.460  13.465
42588W        W15013  18.618  15.765  12.912
42589W        W15014  20.668  20.143   1.376
42590W        W15015  30.589  26.483   1.267
42591W        W15016  33.901  44.009   1.738
42592W        W15017  38.345  11.717  11.516
42593W        W15018  38.867   5.698   3.639
42594W        W15019  43.021  22.677  10.011
42595W        W15020  14.253  15.684  13.865
42596W        W15021   3.753   3.948   4.756
42597W        W15022   3.949  23.095   0.264
42598W        W15023  25.621  23.586  13.542
42599W        W15024   2.433  18.197   2.184
42600W        W15025  15.746   7.398   2.230
42601W        W15026  27.552  10.700   3.678
42602W        W15027  16.582   3.939  11.382
42603W        W15028   7.415  36.574   2.856
42604W        W15029  29.664  23.218  13.332
42605W        W15030  19.101  31.619  11.554
42606W        W15031  26.119   3.450  14.768
42607W        W15032  34.937  11.840  12.841
42608W        W15033  44.366   0.929   0.794
42609W        W15034  18.733   4.331   3.352
42610W        W15035  18.244  17.645   3.211
42611W        W15036  32.943   6.871  11.384
42612W        W15037  15.580  27.109  10.530
42613W        W15038  36.538  44.951  13.057
42614W        W15039  38.036  31.619  11.462
42615W        W15040  42.893  33.401   0.836
42616W        W15041  20.756  38.355   4.178
42617W        W15042   1.928   7.882   3.291
42618W        W15043  33.541  30.561   4.125
42619W        W15044  10.662  20.606  14.471
42620W        W15045  15.633   9.192  10.533
42621W        W15046  17.221   2.795  13.470
42622W        W15047   1.471   9.661   0.870
42623W        W15048  12.121  10.193  11.886
42624W        W15049  37.485  42.445   0.843
42625W        W15050  40.866  42.393   2.324
42626W        W15051  18.704  22.083  10.971
42627W        W15052  44.319  25.618  14.284
42628W        W15053   6.287   1.393   4.320
42629W        W15054  31.477  24.559   1.810
42630W        W15055  25.482  35.423  11.082
42631W        W15056  24.184   0.404  12.087
42632W        W15057  18.146   3.832   2.390
42633W        W15058  41.852  26.626   4.300
42634W        W15059  32.085  26.661   4.232
42635W        W15060  34.468   3.773   3.729
42636W        W15061  39.554  26.555  13.951
42637W        W15062  35.450  29.530  13.046
42638W        W15063  43.922   5.393  10.896
42639W        W15064  28.680  25.586  11.925
42640W        W15065  20.714  15.189  13.055
42641W        W15066  24.536  13.725   1.743
42642W        W15067  20.735  24.112  14.434
42643W        W15068  35.960  44.902  11.599
42644W        W15069  15.194  10.270  12.016
42645W        W15070  44.337  13.762  14.363
42646W        W15071  36.051  21.541   4.757
42647W        W15072  32.455   7.712  11.543
42648W        W15073   3.853  16.193  10.463
42649W        W15074  40.378  44.444   0.412
42650W        W15075   3.447   5.331   4.835
42651W        W15076   9.312  42.330   3.149
42652W        W15077  21.614  14.302   4.296
42653W        W15078  24.595   3.258  14.363
42654W        W15079   7.826   8.790   2.885
42655W        W15080   9.849  25.609   4.820
42656W        W15081  25.696  32.517   1.871
42657W        W15082  38.991   3.820   0.352
42658W        W15083  16.211  27.580   4.678
42659W        W15084  42.394  15.616   1.215
42660W        W15085  10.251  19.733  14.851
42661W        W15086  35.516  22.695   3.275
42662W        W15087  32.498  19.766  12.379
42663W        W15088  38.413  19.227  13.987
42664W        W15089   7.767  27.648   1.932
42665W        W15090   1.901  10.212  14.945
42666W        W15091  35.604  25.483  12.864
42667W        W15092  35.077   7.180  14.495
42668W        W15093  19.743  28.073  13.032
42669W        W15094  40.399  23.184  14.984
42670W        W15095   7.852  43.317   3.191
42671W        W15096  29.062  21.732   3.663
42672W        W15097   7.868  34.974  13.861
42673W        W15098  35.931  38.875  12.529
42674W        W15099  34.609  11.370  13.385
42675W        W15100  35.394  41.529   2.823
42676W        W15101  30.438   6.723  14.011
42677W        W15102  38.950  42.459   2.854
42678W        W15103  36.445  24.555  11.486
42679W        W15104  14.798   6.691  11.441
42680W        W15105   0.443  28.471   1.828
42681W        W15106   5.738  38.467  14.916
42682W        W15107  15.762  36.074   2.733
42683W        W15108  30.584  19.628  14.004
42684W        W15109  18.239  36.394   4.827
42685W        W15110   1.851  34.450   1.266
42686W        W15111  26.040   6.686   1.823
42687W        W15112  18.748  30.442  12.966
42688W        W15113  27.457  10.651  12.024
42689W        W15114  25.074   1.468  13.013
42690W        W15115  19.575  33.521  12.900
42691W        W15116  19.196   6.845  10.519
42692W        W15117  20.124  29.930  12.845
42693W        W15118   2.316  43.497   1.279
42694W        W15119  39.414  29.667   0.385
42695W        W15120   9.334  30.943  14.013
42696W        W15121  28.032  18.651  14.888
42697W        W15122  39.989  34.532  10.551
42698W        W15123  43.773  27.156   4.706
42699W        W15124  19.276  11.149   0.397
42700W        W15125  26.600   6.259   4.324
42701W        W15126  14.701  23.135  14.872
42702W        W15127  18.172  25.592  10.983
42703W        W15128  22.194  31.542   0.823
42704W        W15129  14.312  31.034  14.397
42705W        W15130  26.184   8.831  11.953
42706W        W15131  10.197  37.974  11.403
42707W        W15132  39.061  21.614   5.151
42708W        W15133  11.738  22.083   5.222
42709W        W15134  33.053  43.491  12.975
42710W        W15135  20.137  35.941   4.293
42711W        W15136  22.155  35.046   4.156
42712W        W15137  38.346  34.377  13.366
42713W        W15138  28.166  22.164   2.365
42714W        W15139  30.085  18.686  11.006
42715W        W15140   1.971  36.869   2.756
42716W        W15141  16.597  29.501   0.765
42717W        W15142  22.186  43.968   0.910
42718W        W15143   9.332  38.348  12.091
42719W        W15144  44.402  32.916   2.417
42720W        W15145  32.397  27.974   4.299
42721W        W15146  39.843  43.891   1.891
42722W        W15147  33.492  12.133  11.871
42723W        W15148  32.981  43.987  11.519
42724W        W15149  20.746   3.843  14.765
42725W        W15150  36.530   7.757   1.393
42726W        W15151  40.871  37.558   4.192
42727W        W15152  36.425   8.402  13.845
42728W        W15153  37.431  27.188  11.871
42729W        W15154  27.975  27.619   4.643
42730W        W15155  17.290  40.027  12.849
42731W        W15156  13.761  23.618   5.724
42732W        W15157  20.131  44.471  14.421
42733W        W15158  36.919   4.863   0.429
42734W        W15159   8.700  35.590   4.613
42735W        W15160   8.371  41.453  14.455
42736W        W15161  23.125   5.813   0.373
42737W        W15162  29.526  24.531  12.554
42738W        W15163  16.076  41.910  11.385
42739W        W15164  35.588   9.883   1.746
42740W        W15165  10.168  19.166   0.446
42741W        W15166  23.021  10.733   3.728
42742W        W15167  26.585  35.015  11.547
42743W        W15168  10.161  13.193   1.766
42744W        W15169  24.105  19.773   0.948
42745W        W15170  42.775  32.461  12.000
42746W        W15171  25.121  44.364  12.415
42747W        W15172  17.765  27.944   2.390
42748W        W15173  14.815  38.478   2.412
42749W        W15174   7.300  36.986   2.836
42750W        W15175   0.377   7.669   4.219
42751W        W15176  35.528  43.446   2.857
42752W        W15177  32.990  22.561   0.961
42753W        W15178  36.097  11.177   0.951
42754W        W15179   1.825  29.000  10.916
42755W        W15180  29.968  22.598  12.445
42756W        W15181  15.267  28.509   1.774
42757W        W15182  39.961   8.317   4.152
42758W        W15183  29.055  17.152   3.207
42759W        W15184  43.858   0.802   3.272
42760W        W15185  14.168  20.265   4.303
42761W        W15186  33.094  31.401   4.833
42762W        W15187  17.121   8.793   3.208
42763W        W15188  42.918  40.834  13.010
42764W        W15189   4.927  20.565   3.729
42765W        W15190   4.901  15.101  13.901
42766W        W15191  14.235  32.946   4.166
42767W        W15192  44.799  31.607   2.372
42768W        W15193  10.637   7.263   2.852
42769W        W15194  22.612  21.541   1.319
42770W        W15195  38.414  32.410  13.437
42771W        W15196  13.189  25.075  12.944
42772W        W15197  43.816  19.732   3.742
42773W        W15198  17.675  23.041  12.411
42774W        W15199  13.771  33.021   2.329
42775W        W15200  28.125  15.593   0.965
42776W        W15201  27.476  13.747  12.493
42777W        W15202  42.307  20.263   4.231
42778W        W15203  19.233   2.966   1.855
42779W        W15204  12.797  11.361  11.585
42780W        W15205   3.257  10.217   0.412
42781W        W15206  13.291  29.583   1.736
42782W        W15207  40.322  19.150   4.794
42783W        W15208   7.244  19.656   1.705
42784W        W15209   3.819  42.497   0.468
42785W        W15210  27.060  22.217   4.682
42786W        W15211  14.803  11.349   0.438
42787W        W15212   8.747   7.229   3.370
42788W        W15213  23.102  40.850  11.075
42789W        W15214  12.760  42.299   2.373
42790W        W15215   7.815  25.527  10.644
42791W        W15216  39.839   4.266  10.486
42792W        W15217  10.692  41.346  10.527
42793W        W15218   8.302  37.488  10.587
42794W        W15219   0.772  41.882   1.347
42795W        W15220  20.591   6.780  10.508
42796W        W15221  39.976   8.343   3.183
42797W        W15222   0.790  27.570   1.281
42798W        W15223  20.727  44.310   1.866
42799W        W15224  42.444  38.423  11.114
42800W        W15225   4.422   3.251  11.538
42801W        W15226  44.479  33.453   3.160
42802W        W15227  31.409  30.491  11.886
42803W        W15228  32.589   6.846  12.580
42804W        W15229  18.760  24.677   1.220
42805W        W15230  26.500  43.274  11.597
42806W        W15231  21.696  32.522   4.658
42807W        W15232   0.482   6.341   0.779
42808W        W15233   4.944  15.580  14.314
42809W        W15234  26.963  39.536  12.949
42810W        W15235   8.827  36.354   1.809
42811W        W15236  35.023   5.298  12.964
42812W        W15237  10.296   3.350  10.415
42813W        W15238  33.003  39.885   4.651
42814W        W15239  22.742  28.160   1.823
42815W        W15240  27.157  12.652   3.297
42816W        W15241  38.877  18.137  14.319
42817W        W15242  32.538  38.488  12.366
42818W        W15243   3.923  37.082  12.091
42819W        W15244  27.685  33.879  10.415
42820W        W15245   0.328  10.333   3.260
42821W        W15246   8.797  29.077   2.739
42822W        W15247   7.281  29.487  11.432
42823W        W15248  21.248  17.141   0.360
42824W        W15249  38.066   0.316  14.314
42825W        W15250  32.008  40.055  12.874
42826W        W15251  39.353  34.515  11.083
42827W        W15252  30.991  23.495   0.354
42828W        W15253  38.908  35.908  13.341
42829W        W15254   9.886  15.171  12.418
42830W        W15255  33.548  18.772   0.277
42831W        W15256  13.718  15.600  10.487
42832W        W15257  38.528   5.795   3.293
42833W        W15258  13.716  15.759  11.521
42834W        W15259   8.880  11.714  11.903
42835W        W15260  10.791  13.310  10.541
42836W        W15261  17.592  10.652  11.448
42837W        W15262  42.324   1.872   1.756
42838W        W15263  36.977  40.027   3.715
42839W        W15264  36.425  42.994  13.895
42840W        W15265  14.828  19.551  13.482
42841W        W15266  26.675  41.516  14.830
42842W        W15267  20.193  38.395  13.831
42843W        W15268  18.131   7.214   0.807
42844W        W15269  12.682   1.404   9.947
42845W        W15270  14.263  41.984   2.872
42846W        W15271  21.582  10.350   2.367
42847W        W15272  21.263  35.917   0.343
42848W        W15273  42.928  37.863   0.734
42849W        W15274  32.451   9.273   4.801
42850W        W15275   2.885  38.920  11.956
42851W        W15276  38.915  34.615  14.901
42852W        W15277  23.574   5.899  12.939
42853W        W15278   2.297  30.059  10.451
42854W        W15279  29.164   4.915   3.680
42855W        W15280   2.779   3.237  12.090
42856W        W15281  29.992  19.771  14.402
42857W        W15282  31.624  18.101   2.404
42858W        W15283  29.934  32.411  12.548
42859W        W15284  21.552  28.028   2.871
42860W        W15285   2.861  13.822  11.075
42861W        W15286  11.809   4.314   1.924
42862W        W15287  15.130  42.290  14.405
42863W        W15288  41.002   3.724   2.859
42864W        W15289   8.803  18.202   0.775
42865W        W15290  31.935   2.747   1.922
42866W        W15291   9.770  39.938  11.975
42867W        W15292  10.652  12.711   0.873
42868W        W15293   4.221   6.777   0.920
42869W        W15294  39.849  30.489  13.053
42870W        W15295  15.136  37.013   0.346
42871W        W15296  13.343  37.003  14.873
42872W        W15297  31.028   3.807   1.343
42873W        W15298  12.726  17.179  13.315
42874W        W15299  10.204  37.420   0.305
42875W        W15300  34.445  13.627  14.775
42876W        W15301  23.990  19.740   3.747
42877W        W15302  38.860  16.278  10.956
42878W        W15303   5.916   7.847   1.211
42879W        W15304  10.264   2.957  14.931
42880W        W15305  33.076  32.390  11.512
42881W        W15306  35.393  13.818  12.408
42882W        W15307  28.505  43.811  12.445
42883W        W15308  37.013  29.519  11.510
42884W        W15309  34.879  25.205   1.815
42885W        W15310  39.494  11.358  10.972
42886W        W15311  23.117   9.179   0.459
42887W        W15312  19.758  40.434   1.371
42888W        W15313  29.954  30.981   0.267
42889W        W15314  35.475  30.469   2.339
42890W        W15315  22.659  20.755   3.377
42891W        W15316  12.293   6.251   3.658
42892W        W15317  25.665   8.864   3.338
42893W        W15318  15.810   2.762  13.459
42894W        W15319   8.740   3.903   3.230
42895W        W15320  10.172  13.121  13.823
42896W        W15321  13.144  30.636   5.260
42897W        W15322  14.821   5.693   2.315
42898W        W15323  15.818  13.242  14.914
42899W        W15324  31.981  16.307   1.696
42900W        W15325  42.804  19.280  13.424
42901W        W15326  37.335  22.035  12.407
42902W        W15327   6.273  32.634   2.713
42903W        W15328  19.107  39.853   1.298
42904W        W15329  40.379   9.267   0.882
42905W        W15330  15.624  26.543   0.738
42906W        W15331   4.745  16.664  10.106
42907W        W15332  29.431  10.661  11.122
42908W        W15333  17.304  32.440   4.620
42909W        W15334  39.966  38.969   4.273
42910W        W15335  36.504  23.569  11.990
42911W        W15336  29.456  22.221  10.888
42912W        W15337   8.818  33.389   5.092
42913W        W15338  42.934  13.603  13.863
42914W        W15339  20.180  12.324   1.422
42915W        W15340  16.179  14.115   0.848
42916W        W15341  44.773   9.155   4.719
42917W        W15342  14.327  34.421   3.216
42918W        W15343  31.112  10.722   3.737
42919W        W15344  31.427  18.565  11.109
42920W        W15345  44.330  38.877  10.128
42921W        W15346  14.765  16.602  10.986
42922W        W15347  23.499  42.796  13.381
42923W        W15348  37.942  37.870  14.984
42924W        W15349   4.833  40.386  13.415
42925W        W15350  18.254  31.024  14.313
42926W        W15351  22.641  30.650   2.406
42927W        W15352  40.813  42.835   0.943
42928W        W15353  38.993   1.863   4.290
42929W        W15354  35.563  32.601   1.355
42930W        W15355  19.262  36.096  14.891
42931W        W15356  35.581   7.285   3.179
42932W        W15357  36.503   9.887   2.192
42933W        W15358  25.599  11.212   3.225
42934W        W15359   0.821  34.001  13.829
42935W        W15360   3.887  29.999   4.776
42936W        W15361   6.241  33.620  11.951
42937W        W15362  44.797  13.174  10.578
42938W        W15363  38.837  16.600   1.305
42939W        W15364   6.914  43.333  13.543
42940W        W15365  24.718  20.613   3.227
42941W        W15366  39.560  33.925   4.155
42942W        W15367  37.352  42.984   0.936
42943W        W15368  44.290   5.346  14.388
42944W        W15369  35.917   5.273  14.946
42945W        W15370   4.245  18.249   1.929
42946W        W15371  18.703  14.595   4.127
42947W        W15372  19.605  38.342  10.457
42948W        W15373  21.151  31.082  14.421
42949W        W15374  27.104  21.637  13.396
42950W        W15375  32.100   4.409  11.950
42951W        W15376  22.683  29.455   3.259
42952W        W15377  10.804  38.333   0.316
42953W        W15378   4.443  22.145   1.226
42954W        W15379  34.953  33.619   0.751
42955W        W15380  35.016  14.778  12.997
42956W        W15381  42.020  22.028   3.629
42957W        W15382  37.494  39.933  11.534
42958W        W15383  23.219  25.194  14.382
42959W        W15384  30.949  38.485   3.783
42960W        W15385  13.724   4.352   4.658
42961W        W15386   5.865   4.376  10.493
42962W        W15387  40.456  13.312   1.730
42963W        W15388  24.657   9.882  12.521
42964W        W15389  22.151  41.399   3.363
42965W        W15390  24.576  16.136  14.349
42966W        W15391  35.862  30.975  11.085
42967W        W15392  34.541  30.014   0.747
42968W        W15393  35.428   8.843  12.394
42969W        W15394  41.859  36.520  10.432
42970W        W15395  18.766  36.942  13.402
42971W        W15396   2.424   0.892   5.141
42972W        W15397  37.923   0.341   2.218
42973W        W15398   5.425   8.395  13.527
42974W        W15399   8.288  41.517  13.853
42975W        W15400   0.807  35.064   0.333
42976W        W15401  41.963  33.988   2.413
42977W        W15402  14.152  35.870  11.387
42978W        W15403  22.109   4.432  13.027
42979W        W15404  35.481  17.307   0.394
42980W        W15405  13.346  24.499  14.021
42981W        W15406  41.476  42.972   3.766
42982W        W15407  34.096  17.256  12.091
42983W        W15408  38.465  44.850  14.944
42984W        W15409  26.536  10.748   1.249
42985W        W15410  40.978  42.026  11.863
42986W        W15411  43.417  19.612   4.693
42987W        W15412  28.948  36.043  12.842
42988W        W15413   3.735  35.588   3.352
42989W        W15414  19.208  34.612   2.725
42990W        W15415  29.001  13.106  11.379
42991W        W15416  30.141   4.772   1.854
42992W        W15417  18.611  26.205   2.411
42993W        W15418  20.147  10.271   0.859
42994W        W15419  18.741  11.353  14.003
42995W        W15420  21.741   2.349   3.351
42996W        W15421  11.691  40.542  14.441
42997W        W15422   3.442  12.647   1.881
42998W        W15423  30.099  28.972  13.453
42999W        W15424  36.065  35.013   1.263
43000W        W15425  38.470  14.800  14.983
43001W        W15426  15.312  27.090   0.323
43002W        W15427  41.316  18.553   1.404
43003W        W15428  32.510  22.718  13.036
43004W        W15429  33.070   3.953   4.300
43005W        W15430  31.086  38.840   2.808
43006W        W15431   9.783  17.086  10.918
43007W        W15432  36.863  17.799   1.258
43008W        W15433   3.456  25.122   5.280
43009W        W15434   4.302  39.332   1.900
43010W        W15435   7.376  26.561  12.917
43011W        W15436  34.541   7.811   9.929
43012W        W15437  23.033  16.160   2.255
43013W        W15438  23.696   9.273  11.535
43014W        W15439  24.592  26.187  12.985
43015W        W15440  16.612  15.274   2.825
43016W        W15441  36.869   7.239  13.308
43017W        W15442  36.445  15.752   3.736
43018W        W15443  20.730  21.158  10.621
43019W        W15444  42.894  28.160  13.873
43020W        W15445  13.718  32.933  10.636
43021W        W15446   1.869  29.070   3.272
43022W        W15447  36.366  29.148   3.180
43023W        W15448  34.007  15.326  13.055
43024W        W15449  32.608  16.666  11.123
43025W        W15450   7.178  23.151  12.833
43026W        W15451   3.758  28.444  11.033
43027W        W15452  13.261  43.964   2.739
43028W        W15453  41.340   7.858   1.879
43029W        W15454   4.943   3.291   0.363
43030W        W15455  27.654  14.729  10.556
43031W        W15456  10.874  16.261   4.709
43032W        W15457  36.919  34.120  10.445
43033W        W15458  26.694  22.634   2.285
43034W        W15459  24.114  26.660   4.305
43035W        W15460  21.627  11.783  13.035
43036W        W15461  36.057   9.748   1.836
43037W        W15462  16.708  17.096  13.507
43038W        W15463  33.496  15.815   0.923
43039W        W15464  30.037   9.278   2.665
43040W        W15465   2.850  32.572   3.334
43041W        W15466  17.278  26.992  12.088
43042W        W15467  40.342  18.207   9.971
43043W        W15468  36.916  38.342   4.647
43044W        W15469  17.125  22.033  11.075
43045W        W15470   1.355  40.919   2.753
43046W        W15471  25.150   4.824   0.471
43047W        W15472   5.435  31.481   1.808
43048W        W15473  17.765   0.433  11.945
43049W        W15474  35.895  22.632   0.794
43050W        W15475   8.655   8.777   4.600
43051W        W15476  10.857   1.756  14.780
43052W        W15477  27.194  18.701  12.579
43053W        W15478  25.573  32.960   3.793
43054W        W15479  34.577  38.840  12.349
43055W        W15480  22.198   8.195  12.497
43056W        W15481  12.232  22.527  12.455
43057W        W15482  43.281  21.042   0.432
43058W        W15483  16.751  42.870  12.038
43059W        W15484  38.394  44.978  12.408
43060W        W15485  13.339  17.274  11.865
43061W        W15486  10.656  17.250   0.924
43062W        W15487   0.430  24.716  10.473
43063W        W15488  28.094  27.476   4.133
43064W        W15489   8.754   9.370  12.435
43065W        W15490   2.382  30.971  12.080
43066W        W15491  36.979  24.632  13.879
43067W        W15492   2.950   4.381   0.255
43068W        W15493  36.954  10.799  11.885
43069W        W15494  27.099  36.499  12.561
43070W        W15495  22.207   7.206  11.863
43071W        W15496  29.639  40.829   4.231
43072W        W15497  24.220  40.323   3.745
43073W        W15498  10.721  10.739   1.400
43074W        W15499  10.216  39.438   0.300
43075W        W15500  18.102   1.249   2.392
43076W        W15501   1.290   1.945   0.816
43077W        W15502  41.952  33.894  14.356
43078W        W15503  44.270   8.322  11.376
43079W        W15504  43.873  32.043  10.613
43080W        W15505  31.420  39.881   3.732
43081W        W15506  33.589   5.852  14.300
43082W        W15507  37.975   9.300   0.296
43083W        W15508   6.914  26.010   3.669
43084W        W15509   4.288  38.366   3.264
43085W        W15510  13.220  28.027  13.895
43086W        W15511  19.556   1.840   3.694
43087W        W15512  14.120   6.314   2.236
43088W        W15513  16.103   9.683   1.296
43089W        W15514   7.327   9.774  13.034
43090W        W15515  22.157   4.365   3.719
43091W        W15516   3.790  43.485   2.232
43092W        W15517   8.827   4.207   2.708
43093W        W15518  44.886   7.726   4.660
43094W        W15519  16.595  18.206  11.995
43095W        W15520  22.212  20.174  12.075
43096W        W15521   5.848   0.313   1.706
43097W        W15522  20.606  29.038   0.867
43098W        W15523   9.722  10.799   2.291
43099W        W15524  44.426  17.160   1.282
43100W        W15525  39.391   6.305  13.034
43101W        W15526  16.302  41.402  14.840
43102W        W15527  37.420  25.060  14.491
43103W        W15528  25.634  23.212   4.174
43104W        W15529  28.945  10.171   0.921
43105W        W15530  28.026  35.921  10.485
43106W        W15531  14.101  19.690  13.494
43107W        W15532   8.693   2.814  12.019
43108W        W15533  22.131  22.016  14.018
43109W        W15534  22.658  19.734   1.435
43110W        W15535  18.569   8.808  13.537
43111W        W15536  29.544  42.027  13.014
43112W        W15537  34.409  13.275   0.409
43113W        W15538  11.319  27.122   0.767
43114W        W15539  43.399   4.379   3.180
43115W        W15540   0.439  12.134  13.955
43116W        W15541  41.444  15.750  14.006
43117W        W15542  26.208  41.380   0.949
43118W        W15543   9.780  37.066   2.716
43119W        W15544   5.855  14.154  14.928
43120W        W15545  20.637  40.868   2.267
43121W        W15546  44.889  23.239   0.797
43122W        W15547   6.837  25.494   4.218
43123W        W15548  28.067  28.516   2.231
43124W        W15549  20.073   5.801  10.978
43125W        W15550   7.839  41.996   0.737
43126W        W15551   7.173  41.908   2.690
43127W        W15552  34.921  41.971  14.965
43128W        W15553  15.253   0.400  12.947
43129W        W15554  20.639   9.823   1.388
43130W        W15555   7.305  11.244   1.715
43131W        W15556  36.488  24.011  12.034
43132W        W15557  30.933   1.860   3.864
43133W        W15558  14.210  15.582  11.006
43134W        W15559   7.372   9.317  13.441
43135W        W15560  10.230  36.940   0.355
43136W        W15561  27.470   9.305   1.931
43137W        W15562  28.436  27.138   0.426
43138W        W15563  15.611   7.173  14.826
43139W        W15564  34.483   3.922   2.889
43140W        W15565   7.398   5.346  12.887
43141W        W15566  10.252  14.191  12.857
43142W        W15567   0.466  23.089   0.253
43143W        W15568  10.314  21.063   1.397
43144W        W15569   7.398  15.140   4.283
43145W        W15570  26.121  37.034   1.362
43146W        W15571  29.144  10.370   1.835
43147W        W15572  41.013   7.307  13.360
43148W        W15573  15.620  25.544   1.723
43149W        W15574  22.620  29.474  10.998
43150W        W15575   1.483  44.986   2.407
43151W        W15576  40.046  34.542   3.764
43152W        W15577  43.400  10.790   1.431
43153W        W15578  32.479  37.553   5.229
43154W        W15579  10.183  24.534   4.342
43155W        W15580  44.431  19.693   9.976
43156W        W15581  10.218  24.689   0.481
43157W        W15582  20.580  19.158   2.334
43158W        W15583   6.771  38.518  11.534
43159W        W15584  13.612  17.611  12.907
43160W        W15585  11.723  19.757  10.017
43161W        W15586  20.700  41.870  12.031
43162W        W15587   9.806  25.643  13.952
43163W        W15588  36.514  20.682  13.915
43164W        W15589  32.405  34.011  11.984
43165W        W15590  21.125  31.138   3.818
43166W        W15591  41.909   6.356  14.301
43167W        W15592  20.737  44.479  10.948
43168W        W15593   1.437  27.995   4.279
43169W        W15594   8.298  25.963  10.635
43170W        W15595   9.339  43.989   3.169
43171W        W15596  19.280  37.909  12.920
43172W        W15597   5.396  32.081  13.954
43173W        W15598  12.726  22.178   9.941
43174W        W15599  21.132   6.785  13.495
43175W        W15600  29.919  24.129   1.899
43176W        W15601  38.920  31.612  11.099
43177W        W15602   4.875  24.126   0.330
43178W        W15603  36.405  16.760  12.430
43179W        W15604  30.950   6.193   2.328
43180W        W15605  13.668  40.347  11.069
43181W        W15606  19.577  44.007  14.509
43182W        W15607  29.424  43.482  11.921
43183W        W15608  17.190  17.746  12.837
43184W        W15609  20.215  15.626  12.437
43185W        W15610  42.438  12.752   0.466
43186W        W15611   3.355  22.104   1.912
43187W        W15612  31.451  25.042   1.403
43188W        W15613   8.851  20.029  13.801
43189W        W15614  40.825  19.206   4.178
43190W        W15615  38.548  11.740  10.462
43191W        W15616   7.388  35.416  10.444
43192W        W15617   8.255  22.232  10.552
43193W        W15618   3.313  33.020  11.934
43194W        W15619  24.585   2.458  13.448
43195W        W15620  38.908  21.733  14.367
43196W        W15621  38.869  14.129   1.728
43197W        W15622  31.093  34.063   0.748
43198W        W15623  24.580   5.928   2.209
43199W        W15624   5.804  36.854   1.265
43200W        W15625   0.928  19.703   4.249
43201W        W15626  30.495  43.896   4.752
43202W        W15627  15.325  14.158   3.233
43203W        W15628  20.051   4.236  12.385
43204W        W15629  30.474  14.693   3.299
43205W        W15630  29.476   2.942  12.403
43206W        W15631  10.797  33.023  13.032
43207W        W15632  29.939  19.596  12.903
43208W        W15633   1.749  12.120  11.401
43209W        W15634  38.571  15.626   2.222
43210W        W15635   0.358  16.622   3.748
43211W        W15636  21.591   8.294  14.902
43212W        W15637  12.617  23.022  11.023
43213W        W15638  43.904  37.978   2.246
43214W        W15639   0.336  39.419   2.349
43215W        W15640  38.867  12.120  11.550
43216W        W15641  38.349  18.170   4.715
43217W        W15642   6.234   5.387  13.308
43218W        W15643  40.383   7.376  12.392
43219W        W15644  42.462   3.318  14.956
43220W        W15645  44.292  37.022  13.453
43221W        W15646  24.980  15.680   1.829
43222W        W15647   8.390   2.901   3.717
43223W        W15648  42.397  30.943   2.663
43224W        W15649   4.849  36.514  11.512
43225W        W15650  29.501   5.342   2.738
43226W        W15651  30.564   8.777   3.709
43227W        W15652  28.604   7.836   0.946
43228W        W15653  17.283  13.167   3.359
43229W        W15654  11.252  16.808   0.342
43230W        W15655  43.896  31.424  12.392
43231W        W15656  10.794  23.991   2.335
43232W        W15657  31.500  13.255  13.043
43233W        W15658  24.997  36.072   1.385
43234W        W15659  11.630   9.701   1.352
43235W        W15660  35.071   6.725  11.031
43236W        W15661   9.267  30.584  13.826
43237W        W15662  27.471   9.305  12.077
43238W        W15663   6.904  21.173  13.539
43239W        W15664  12.801  13.612   3.707
43240W        W15665  27.040  34.931   1.835
43241W        W15666  11.671  11.174   4.135
43242W        W15667   2.750  25.691   2.793
43243W        W15668   3.245  10.349  14.972
43244W        W15669  14.657  43.964   1.760
43245W        W15670  18.233  38.447   3.286
43246W        W15671   2.930  25.663  14.323
43247W        W15672  13.613   1.970  12.903
43248W        W15673  22.153  40.305  12.462
43249W        W15674  32.965   6.182   2.817
43250W        W15675   5.826  10.678   0.415
43251W        W15676  39.979  27.128   1.719
43252W        W15677  18.605  21.720  12.540
43253W        W15678  30.584  12.649   2.716
43254W        W15679  26.654  37.462  10.895
43255W        W15680  20.572  10.139   0.434
43256W        W15681   9.160   0.297  14.984
43257W        W15682  20.717  28.452  13.388
43258W        W15683  43.927   7.265   0.857
43259W        W15684   2.820  18.768   1.227
43260W        W15685  15.685  32.890   4.295
43261W        W15686  28.450  27.952  11.944
43262W        W15687  21.718  17.609  13.896
43263W        W15688  27.630  40.421  10.903
43264W        W15689  22.130  42.807  10.436
43265W        W15690  39.889  17.759  10.552
43266W        W15691  29.123   0.861  13.340
43267W        W15692  29.949  17.226   1.886
43268W        W15693  31.079  34.535  11.989
43269W        W15694  18.784  29.170   2.213
43270W        W15695   2.357  32.040  14.893
43271W        W15696  15.310  21.710  13.378
43272W        W15697   4.361  13.604  11.895
43273W        W15698   7.844   3.869  13.882
43274W        W15699   5.743  27.551  13.864
43275W        W15700   5.790  35.367   0.310
43276W        W15701  14.802  40.826  10.498
43277W        W15702  41.797   3.349   3.372
43278W        W15703  10.144  15.118  12.561
43279W        W15704  20.086  30.936  14.943
43280W        W15705  41.955   1.891   2.751
43281W        W15706  44.317  35.057   1.432
43282W        W15707  24.587  19.654  10.509
43283W        W15708  13.268  13.710   4.215
43284W        W15709  32.945   1.801   3.776
43285W        W15710   7.699  28.566   2.784
43286W        W15711  15.228   5.912   1.917
43287W        W15712  39.505   8.220  14.408
43288W        W15713  21.562  31.578  11.029
43289W        W15714  37.900   5.351   1.906
43290W        W15715  24.558  12.190   0.330
43291W        W15716  22.638  28.638  11.496
43292W        W15717  42.431  36.451   2.826
43293W        W15718  17.614  21.120  11.378
43294W        W15719  25.018  19.711  13.374
43295W        W15720  28.590   1.802  13.974
43296W        W15721   1.972  43.382  13.357
43297W        W15722  42.831  13.265  12.026
43298W        W15723  11.275   9.362  11.021
43299W        W15724   9.683  32.077  14.968
43300W        W15725  31.422  19.732   4.814
43301W        W15726  34.912   1.385   3.719
43302W        W15727  41.813   5.895   3.289
43303W        W15728  18.584   4.223   1.327
43304W        W15729  39.460  41.398  11.993
43305W        W15730   3.718  22.559  12.500
43306W        W15731  23.106   0.888  13.884
43307W        W15732  20.611  37.021   3.190
43308W        W15733  11.774  31.909   5.313
43309W        W15734  36.922  42.939   3.762
43310W        W15735   3.749  43.370  11.898
43311W        W15736  26.071  18.638  11.552
43312W        W15737  14.639  33.469  14.825
43313W        W15738  21.744   5.738   3.670
43314W        W15739   4.422  13.661  14.357
43315W        W15740  40.432  27.116  11.464
43316W        W15741   3.710   2.316   0.343
43317W        W15742  21.514  38.057   4.602
43318W        W15743   7.775  10.197   4.727
43319W        W15744  28.125  18.649   1.218
43320W        W15745   1.951  27.994   2.348
43321W        W15746   8.190  27.013  12.838
43322W        W15747   7.704  37.488  10.433
43323W        W15748  13.686   3.244   2.306
43324W        W15749   9.148  17.116  10.607
43325W        W15750  27.577  32.406   2.303
43326W        W15751  36.571  17.603  10.932
43327W        W15752   0.943  15.172  13.443
43328W        W15753  32.886  42.809   2.708
43329W        W15754  17.306  29.615  11.074
43330W        W15755  16.233   7.682  10.520
43331W        W15756   9.781  26.095  11.057
43332W        W15757  29.070  30.051  10.474
43333W        W15758   4.422  42.457  11.985
43334W        W15759  11.311   9.332   3.327
43335W        W15760  36.589  30.532   3.286
43336W        W15761  44.863  24.591  13.473
43337W        W15762  28.483  22.617  14.803
43338W        W15763  23.701  41.910  11.599
43339W        W15764  40.864  24.584   0.424
43340W        W15765  26.117  12.160  12.555
43341W        W15766  17.090  21.072  13.052
43342W        W15767  30.072  38.008   1.871
43343W        W15768  39.558  42.775  13.370
43344W        W15769  40.446  35.392   4.352
43345W        W15770  22.072   2.400   3.355
43346W        W15771   2.274  36.086   3.366
43347W        W15772  41.468  44.383   1.272
43348W        W15773  12.218  25.562   0.939
43349W        W15774   1.262  29.626   2.357
43350W        W15775  18.630  34.612   1.257
43351W        W15776  26.568  31.517   5.289
43352W        W15777  26.548  31.557   2.205
43353W        W15778   0.876  26.623  12.867
43354W        W15779   9.715   9.738  14.912
43355W        W15780  35.033  42.777  12.492
43356W        W15781  42.872  35.403  10.966
43357W        W15782  28.537  21.698   0.465
43358W        W15783   6.237  33.109   2.355
43359W        W15784   0.790   1.820   4.186
43360W        W15785   5.835  11.867  14.375
43361W        W15786   6.261  43.015  10.930
43362W        W15787  26.126  36.360  12.439
43363W        W15788  37.007   1.839   3.269
43364W        W15789  39.335  22.698   4.718
43365W        W15790   9.733  38.369  11.575
43366W        W15791  11.344   7.282  10.496
43367W        W15792  33.619  28.494   0.370
43368W        W15793  24.682  18.107  14.458
43369W        W15794  32.974  11.332   4.611
43370W        W15795  28.032  35.865  13.821
43371W        W15796  43.325   7.376   2.179
43372W        W15797  43.806  42.807   2.766
43373W        W15798  32.536  11.307   1.265
43374W        W15799   5.282   8.299   0.437
43375W        W15800  38.000  35.879   5.259
43376W        W15801  27.489  31.049  12.965
43377W        W15802  33.970  37.928   4.746
43378W        W15803  22.073  40.483   0.388
43379W        W15804  14.596  16.084  12.892
43380W        W15805  12.313  42.016   0.420
43381W        W15806  14.326  16.599   2.792
43382W        W15807  14.741  22.204   2.833
43383W        W15808  28.166  17.763  10.135
43384W        W15809  21.171  18.131  12.870
43385W        W15810  29.033  43.336  10.591
43386W        W15811  28.173   3.901  14.490
43387W        W15812  29.582   7.193   3.849
43388W        W15813  43.955  23.052  13.340
43389W        W15814   4.437  22.133  14.810
43390W        W15815   2.869  36.588   0.825
43391W        W15816  25.530  15.589  10.621
43392W        W15817  35.378  19.593  12.936
43393W        W15818  27.587  38.375   4.353
43394W        W15819  31.583   9.204   3.691
43395W        W15820  28.044   5.908  13.432
43396W        W15821  13.198  42.317   0.416
43397W        W15822  17.639  36.970   2.748
43398W        W15823  21.034  29.085  13.946
43399W        W15824  37.873  24.566  12.857
43400W        W15825   6.772   6.784   4.598
43401W        W15826  29.050   4.714   1.246
43402W        W15827  20.551  24.561  13.050
43403W        W15828   5.894  27.655   1.778
43404W        W15829   9.735  41.365   4.323
43405W        W15830  27.128  19.282   4.188
43406W        W15831  30.425  14.597  12.089
43407W        W15832  25.494  28.100  14.804
43408W        W15833  27.526  39.941  13.044
43409W        W15834  22.088   1.775   0.852
43410W        W15835  32.601  26.480  13.315
43411W        W15836  39.424   2.928   4.243
43412W        W15837  20.175  13.161   1.900
43413W        W15838   0.912  40.500   3.230
43414W        W15839  18.285  21.132  14.357
43415W        W15840  11.834  37.895   0.291
43416W        W15841  20.055   7.252  13.309
43417W        W15842  36.900  29.107   2.307
43418W        W15843  40.903  32.007   3.157
43419W        W15844  27.639  30.134  12.939
43420W        W15845  20.690  23.994   0.376
43421W        W15846  36.537   4.402  14.336
43422W        W15847  30.593  36.475  14.775
43423W        W15848  22.642   2.343   4.610
43424W        W15849  26.583  41.907  13.503
43425W        W15850   5.716  35.513   3.312
43426W        W15851  42.840   2.443  13.318
43427W        W15852  32.399  21.579  10.912
43428W        W15853  19.570  26.509   1.439
43429W        W15854  23.604  26.007   1.787
43430W        W15855  31.539  11.191   0.278
43431W        W15856  32.592   9.315  13.998
43432W        W15857  11.319  38.492  10.554
43433W        W15858  37.987  20.179   1.753
43434W        W15859  44.477   4.739  14.865
43435W        W15860  33.476  13.344   2.238
43436W        W15861  42.934  35.546  13.310
43437W        W15862   3.918  18.124  10.135
43438W        W15863  31.058  39.016   3.672
43439W        W15864  43.312  44.328  10.466
43440W        W15865   9.213  33.046  11.483
43441W        W15866  14.197  39.422   0.290
43442W        W15867  23.690  22.671   4.226
43443W        W15868  34.494   6.330  13.447
43444W        W15869  34.433  25.122  12.906
43445W        W15870  11.633  39.059  10.498
43446W        W15871  41.874  19.546   9.485
43447W        W15872  33.606  40.879   0.878
43448W        W15873  32.429   4.267  10.503
43449W        W15874  43.428  20.562  13.395
43450W        W15875  37.348  11.734  13.876
43451W        W15876  12.815  21.612   1.401
43452W        W15877  21.169  44.338   4.286
43453W        W15878  29.999  40.041  12.964
43454W        W15879  24.196   0.433  14.333
43455W        W15880  43.361  44.815  12.883
43456W        W15881   9.660   9.371   0.273
43457W        W15882   6.851  12.794   2.676
43458W        W15883  38.064  14.299   3.220
43459W        W15884   5.300  15.605   2.332
43460W        W15885  22.537   6.235  10.904
43461W        W15886  27.020  26.057  13.337
43462W        W15887  18.592  29.473  13.832
43463W        W15888   5.210  34.430  11.099
43464W        W15889  41.522  21.515   0.360
43465W        W15890  37.447  23.626  14.996
43466W        W15891   0.372   5.413   1.348
43467W        W15892  39.372   4.703  13.865
43468W        W15893  35.984  17.128   1.417
43469W        W15894   6.709  36.941  11.928
43470W        W15895  41.992  29.495   2.728
43471W        W15896  16.764  17.149   2.671
43472W        W15897   9.705  33.434   4.731
43473W        W15898  41.321   8.349  11.424
43474W        W15899  13.772   6.313   4.283
43475W        W15900  19.570   1.959   0.269
43476W        W15901   3.353  24.994   0.251
43477W        W15902  15.237  18.717   4.221
43478W        W15903  29.101  20.102   0.775
43479W        W15904   6.401  38.414   1.411
43480W        W15905  27.575   3.818   0.782
43481W        W15906  17.072  18.637  11.544
43482W        W15907  31.021   8.229   2.708
43483W        W15908   9.730  26.951  13.485
43484W        W15909  29.457  26.078  13.858
43485W        W15910   0.295   6.376   4.773
43486W        W15911  44.814  29.447   0.732
43487W        W15912  42.498  36.528   4.612
43488W        W15913  32.471  24.719   3.630
43489W        W15914  33.052  11.170  13.060
43490W        W15915  11.706  37.414  10.437
43491W        W15916   6.901   3.917   4.232
43492W        W15917  31.051  27.481   1.729
43493W        W15918  41.812   8.406  12.093
43494W        W15919  29.519  42.512  12.498
43495W        W15920  34.601  32.402   1.796
43496W        W15921  11.823  33.971   3.698
43497W        W15922  41.397  35.952  13.861
43498W        W15923  32.456   7.772   2.869
43499W        W15924  13.187  32.072  11.967
43500W        W15925   8.749  36.944  10.423
43501W        W15926   3.883  26.697   1.331
43502W        W15927  19.256  24.107  12.050
43503W        W15928  41.863  13.280  14.470
43504W        W15929  13.244   1.315   1.822
43505W        W15930  40.325  22.629   4.685
43506W        W15931  19.240   4.301  10.495
43507W        W15932  40.890  31.563  14.836
43508W        W15933  11.300  41.388  14.338
43509W        W15934   3.246  34.112   4.286
43510W        W15935  25.670  42.813   0.316
43511W        W15936  30.622  21.112  12.899
43512W        W15937  40.838   5.925  14.930
43513W        W15938  41.363  38.980   0.319
43514W        W15939   0.957   5.753  13.950
43515W        W15940   6.242  22.723  11.503
43516W        W15941  20.186  28.498   0.890
43517W        W15942  23.596  44.868  12.360
43518W        W15943  11.780  10.279   0.405
43519W        W15944  36.462   4.747   4.815
43520W        W15945  20.180  17.109   0.474
43521W        W15946  12.731  31.545   1.336
43522W        W15947  44.005  12.175  14.475
43523W        W15948  10.293   5.379   3.379
43524W        W15949  12.170  11.847   1.277
43525W        W15950  39.537  28.079   3.328
43526W        W15951  33.959  24.724  14.945
43527W        W15952  29.480   0.388   0.910
43528W        W15953  42.396  43.984  12.539
43529W        W15954  14.126  39.346  11.579
43530W        W15955  12.746  18.262  13.969
43531W        W15956  32.541  28.506  10.913
43532W        W15957  27.101   7.804   0.786
43533W        W15958   8.221  22.158  14.931
43534W        W15959  28.993  21.242  10.518
43535W        W15960  41.826  24.678  12.984
43536W        W15961   4.260  18.221   1.346
43537W        W15962  24.122  10.339   1.318
43538W        W15963  27.165  14.315  10.974
43539W        W15964  37.546  18.739   2.666
43540W        W15965  26.159  32.902   0.802
43541W        W15966  20.736  25.074  14.781
43542W        W15967  35.520  39.436  14.308
43543W        W15968  43.860  24.719  14.870
43544W        W15969  35.498   5.263   1.739
43545W        W15970  33.995  37.957  14.442
43546W        W15971  37.517  33.882   1.278
43547W        W15972  35.042  37.494   5.159
43548W        W15973  37.086  19.731  10.986
43549W        W15974  11.646  42.977   3.673
43550W        W15975  24.679  42.829  11.981
43551W        W15976  35.976  29.926  11.885
43552W        W15977  30.039  39.437   4.225
43553W        W15978   2.317  26.606  13.040
43554W        W15979   0.955  24.095   5.304
43555W        W15980  11.127  29.553  12.009
43556W        W15981  39.423  28.521  11.084
43557W        W15982  26.663  29.063   1.721
43558W        W15983  28.974  15.616   1.807
43559W        W15984  44.851   2.448  11.860
43560W        W15985  35.856  15.728  10.436
43561W        W15986  36.879  34.485  11.077
43562W        W15987  33.097   7.386  12.022
43563W        W15988  42.305  37.358   1.383
43564W        W15989   5.762  12.752   1.256
43565W        W15990  12.811  17.190   1.308
43566W        W15991   9.309  14.313  10.992
43567W        W15992  10.374  13.281  11.599
43568W        W15993   8.876   1.390   0.299
43569W        W15994  17.703  19.684   3.650
43570W        W15995  44.998  39.962   1.765
43571W        W15996  25.110  28.615  10.975
43572W        W15997  39.553   6.729  13.825
43573W        W15998  31.423  38.411   0.412
43574W        W15999   9.305   0.309   0.789
43575W        W16000  42.831  20.528   1.385
43576W        W16001   3.319   7.364  13.034
43577W        W16002   8.868  14.738  12.961
43578W        W16003  18.063  18.752  14.475
43579W        W16004  20.676  43.861   0.378
43580W        W16005  33.427  44.997  14.488
43581W        W16006  22.572  19.569  13.919
43582W        W16007  35.044  40.013   0.952
43583W        W16008  36.895  19.742   1.301
43584W        W16009  39.981  13.627  14.355
43585W        W16010   7.688  33.454   5.209
43586W        W16011  22.090  22.662   4.133
43587W        W16012  33.062  16.650  12.570
43588W        W16013  39.058  28.965  13.936
43589W        W16014  10.715  16.666   2.244
43590W        W16015  15.821  38.869   4.676
43591W        W16016  15.192  26.048   0.350
43592W        W16017  24.722   6.815  11.532
43593W        W16018   4.874  32.590   0.359
43594W        W16019  35.539  16.776  12.525
43595W        W16020  29.494  32.020   0.360
43596W        W16021  17.187   9.244   4.602
43597W        W16022   3.750  37.336  10.894
43598W        W16023  26.539   5.240  13.342
43599W        W16024  11.851  43.874   0.341
43600W        W16025  25.062  41.939  12.019
43601W        W16026  16.267  37.485   3.211
43602W        W16027  28.164   2.338   2.365
43603W        W16028  23.239  25.593   0.282
43604W        W16029  34.441  19.116  12.415
43605W        W16030   6.219  11.657   2.902
43606W        W16031  44.433  26.489  13.905
43607W        W16032   1.254  28.588   4.343
43608W        W16033  37.505  30.033  14.848
43609W        W16034  28.113  14.107  11.094
43610W        W16035   6.320  37.010   3.372
43611W        W16036  27.079   6.308   1.933
43612W        W16037  38.953  32.124  11.533
43613W        W16038  39.559  12.340  13.476
43614W        W16039  32.635   4.789   2.193
43615W        W16040  24.632   7.875   1.416
43616W        W16041  19.683  21.047  10.529
43617W        W16042  37.975  43.903  12.505
43618W        W16043   3.937   2.309  14.341
43619W        W16044  19.281  22.072   3.696
43620W        W16045  19.690   5.730   1.353
43621W        W16046   3.739   6.271   2.713
43622W        W16047  27.016   0.393   4.794
43623W        W16048  14.752   5.425   4.238
43624W        W16049  22.730  14.298  13.896
43625W        W16050  23.654  32.513  14.345
43626W        W16051  10.720  21.516   0.929
43627W        W16052  32.451  35.583   3.631
43628W        W16053  16.665  38.380  13.360
43629W        W16054  44.971  27.607  11.866
43630W        W16055   5.764  23.062   2.382
43631W        W16056   5.769  28.460  13.918
43632W        W16057  38.066   2.919   4.287
43633W        W16058  29.606  33.884  12.866
43634W        W16059   8.348  32.447   0.884
43635W        W16060  18.549  20.093  12.064
43636W        W16061  14.168  33.035   0.417
43637W        W16062   0.274  19.059   4.707
43638W        W16063  31.516  32.989   3.855
43639W        W16064  16.214  36.981   0.418
43640W        W16065   1.737  42.874   4.273
43641W        W16066  14.172  24.975  13.541
43642W        W16067  25.548  26.988  12.391
43643W        W16068  29.665  16.177  10.419
43644W        W16069   4.437  14.745  14.839
43645W        W16070  34.467   0.453  10.557
43646W        W16071  41.494  20.103  10.950
43647W        W16072  33.489   4.781  13.460
43648W        W16073  42.904   4.886   4.758
43649W        W16074  13.785  16.635  14.321
43650W        W16075  30.002  24.638  13.522
43651W        W16076  21.721  16.219  12.870
43652W        W16077  41.536   2.817  14.361
43653W        W16078  10.216   6.716  10.629
43654W        W16079   5.809   6.182   2.671
43655W        W16080  37.338  35.559  11.436
43656W        W16081   7.383  21.102   2.397
43657W        W16082  30.068  23.123  13.326
43658W        W16083  30.630  33.097  13.814
43659W        W16084  32.448   2.359   1.343
43660W        W16085   2.845  25.652  11.443
43661W        W16086  41.504  34.416  14.324
43662W        W16087  14.703  27.046  10.494
43663W        W16088   6.761  10.248   3.360
43664W        W16089  21.137  21.671   3.742
43665W        W16090  34.042   9.652  12.088
43666W        W16091  25.661   4.819   0.290
43667W        W16092   4.237  15.221  11.476
43668W        W16093  28.667  36.923  14.335
43669W        W16094  14.313  25.486  14.872
43670W        W16095  40.426   3.919   1.212
43671W        W16096  21.189  21.022   0.434
43672W        W16097  11.370  12.637   0.858
43673W        W16098   8.794  11.804   5.100
43674W        W16099  39.451  23.210  13.479
43675W        W16100  42.335   3.404  13.999
43676W        W16101  20.648  20.678   3.271
43677W        W16102   9.296  18.144  14.789
43678W        W16103  11.698  39.036   1.882
43679W        W16104  39.005  10.211   4.258
43680W        W16105  30.025  16.749  13.917
43681W        W16106  41.994  16.154  12.009
43682W        W16107  35.436  22.672  12.556
43683W        W16108   1.891  24.173  12.909
43684W        W16109   3.895  38.529   1.403
43685W        W16110  33.567  30.519  13.446
43686W        W16111  14.199  22.028   2.351
43687W        W16112   4.286  11.143  12.443
43688W        W16113  11.820  22.200  13.391
43689W        W16114  36.045  25.129   3.657
43690W        W16115  33.495  24.205  12.381
43691W        W16116  14.759  32.581   3.332
43692W        W16117  10.847   3.759   3.180
43693W        W16118  43.515  17.127  11.465
43694W        W16119  43.790  28.002  14.315
43695W        W16120  15.123   5.811  11.383
43696W        W16121  44.483  11.815   2.813
43697W        W16122  33.901  19.058  10.549
43698W        W16123  35.946  16.178  10.999
43699W        W16124  35.392  19.563   4.734
43700W        W16125   9.656  43.393  13.854
43701W        W16126  18.633  34.019  14.015
43702W        W16127  26.671   9.827  13.052
43703W        W16128  44.263  12.230   1.258
43704W        W16129  44.503  26.681  12.373
43705W        W16130  32.904  14.617  14.351
43706W        W16131  22.676   9.149  12.517
43707W        W16132  44.957  37.518   2.333
43708W        W16133   0.942   3.874  10.926
43709W        W16134   6.237  18.742  10.636
43710W        W16135  26.951  29.571   0.443
43711W        W16136  31.911   9.190  11.084
43712W        W16137  38.423  31.428  11.510
43713W        W16138  28.564  40.831   2.247
43714W        W16139  44.386  35.104  12.826
43715W        W16140  35.912  40.399   1.440
43716W        W16141  15.745   4.929   0.816
43717W        W16142  16.249  35.603   9.927
43718W        W16143  30.611  17.200  13.029
43719W        W16144  17.753   6.304  12.947
43720W        W16145  30.531  22.082  13.904
43721W        W16146  18.228  17.790  12.001
43722W        W16147  30.111  19.628   1.753
43723W        W16148  10.821   9.212  12.507
43724W        W16149  42.990  17.105   4.610
43725W        W16150  21.754  44.447  12.403
43726W        W16151  30.487  40.927   0.908
43727W        W16152  31.052  38.940  14.322
43728W        W16153  32.631   0.931   0.247
43729W        W16154  17.767   4.885   1.236
43730W        W16155  39.816  41.018  12.013
43731W        W16156   3.750  31.072   3.768
43732W        W16157  33.517  34.094   3.708
43733W        W16158  17.256  21.601   2.296
43734W        W16159  17.786  29.571  13.852
43735W        W16160   2.429  29.968   3.196
43736W        W16161  14.738  26.980  12.032
43737W        W16162  26.518   1.330  11.445
43738W        W16163  24.527  38.986  12.545
43739W        W16164  19.152   7.911  10.951
43740W        W16165  26.461  27.664  13.951
43741W        W16166  34.506  15.607  10.404
43742W        W16167   7.828  44.422   1.731
43743W        W16168   3.262  10.353   5.242
43744W        W16169   3.287   6.296  14.473
43745W        W16170  21.564  14.637  14.768
43746W        W16171  30.424  17.179  13.886
43747W        W16172  40.821  24.661  13.894
43748W        W16173  40.543  12.229  11.026
43749W        W16174  19.091  24.044  12.836
43750W        W16175  39.903  24.144   0.802
43751W        W16176  33.122   6.352   4.734
43752W        W16177  20.099  41.376  11.540
43753W        W16178   0.484  34.417   0.895
43754W        W16179  10.713  14.230  13.840
43755W        W16180  17.663   0.775  12.884
43756W        W16181  29.493  23.601   3.802
43757W        W16182   5.695  32.006   2.408
43758W        W16183  35.993  28.559   4.183
43759W        W16184  30.118  23.630   1.928
43760W        W16185  22.052  35.517  14.871
43761W        W16186  25.713  40.951   2.799
43762W        W16187   4.857  37.526   3.350
43763W        W16188   1.814  31.506   0.805
43764W        W16189  35.072  37.562  12.371
43765W        W16190  39.933  30.141  11.976
43766W        W16191   4.376  38.059  14.952
43767W        W16192   9.156  16.591  13.973
43768W        W16193  10.377  36.440  10.552
43769W        W16194  28.146  14.283  10.093
43770W        W16195  25.587   4.880   1.889
43771W        W16196  10.226   9.744  13.407
43772W        W16197   0.450   4.776   4.709
43773W        W16198  17.632  13.347  14.316
43774W        W16199  16.179  24.567   4.656
43775W        W16200  15.105  13.311   4.803
43776W        W16201  31.963  11.821  13.456
43777W        W16202  39.485  32.895   0.796
43778W        W16203   2.920  42.449   4.829
43779W        W16204   7.701  40.487   1.247
43780W        W16205   4.786  34.437  14.516
43781W        W16206   0.281  21.241  13.001
43782W        W16207  21.586  11.365   5.122
43783W        W16208  18.557   4.319  13.007
43784W        W16209  18.557  30.504  13.875
43785W        W16210  33.537  41.890   4.793
43786W        W16211  32.556   4.810  12.378
43787W        W16212  14.300  14.669   4.602
43788W        W16213   9.156  27.626  10.487
43789W        W16214  11.194  11.202   3.705
43790W        W16215  28.577   7.803   3.820
43791W        W16216   8.212  43.286  12.952
43792W        W16217  15.275  41.864  11.384
43793W        W16218  30.992   1.820   3.337
43794W        W16219  44.942   8.784  14.956
43795W        W16220  30.506  10.303   1.310
43796W        W16221   2.466  16.094   1.896
43797W        W16222  25.164  39.527  12.418
43798W        W16223  17.235  18.639  14.015
43799W        W16224  40.864  10.199  11.948
43800W        W16225  41.916  18.059   0.336
43801W        W16226  33.083  44.269  14.025
43802W        W16227  17.602  21.544  12.012
43803W        W16228   9.387  33.097   1.731
43804W        W16229  10.706  24.614   0.472
43805W        W16230  28.063   9.782  12.023
43806W        W16231  41.509  25.691   1.900
43807W        W16232  24.121  37.912   4.345
43808W        W16233  36.013  19.131  13.465
43809W        W16234  13.641  35.921   0.782
43810W        W16235  15.239  19.206   1.929
43811W        W16236  16.657  43.830  13.311
43812W        W16237  19.598  40.340  10.500
43813W        W16238   0.828  28.481  11.491
43814W        W16239  24.491   9.777  10.911
43815W        W16240  10.375   6.270   4.316
43816W        W16241  20.260  33.993  12.980
43817W        W16242  29.151  34.865   1.784
43818W        W16243   8.742  32.122  14.353
43819W        W16244  28.553  41.399  12.973
43820W        W16245   0.441   4.271  13.057
43821W        W16246   9.250  26.564  12.002
43822W        W16247   9.152   5.423   0.385
43823W        W16248   8.792   1.328   1.439
43824W        W16249   1.855  33.956  12.839
43825W        W16250  24.720  15.674  10.904
43826W        W16251  37.539  10.155   4.290
43827W        W16252  15.326  44.907  10.474
43828W        W16253  13.278  44.470  11.486
43829W        W16254  16.786  40.821  10.619
43830W        W16255  15.787  26.186   1.879
43831W        W16256  22.680  40.932  11.123
43832W        W16257  22.679  36.886   3.667
43833W        W16258  31.482  15.163  13.056
43834W        W16259  25.673   7.698  12.939
43835W        W16260  41.403   5.849   4.678
43836W        W16261  12.825  34.030  12.463
43837W        W16262  10.684   9.261   2.702
43838W        W16263   2.752  29.575   4.226
43839W        W16264   2.390   4.254   0.817
43840W        W16265  32.452  38.935   4.777
43841W        W16266  19.070  38.463   3.796
43842W        W16267   5.858  37.868  14.452
43843W        W16268  36.405  14.642   4.139
43844W        W16269  42.383  28.120   4.285
43845W        W16270  40.841  43.897   4.616
43846W        W16271  35.052   7.783   2.731
43847W        W16272  37.945   2.371  12.059
43848W        W16273   8.399   1.958   4.138
43849W        W16274  22.137   2.287   4.630
43850W        W16275  26.096  11.131   1.776
43851W        W16276   4.933  39.411   4.721
43852W        W16277  28.557  21.749  14.480
43853W        W16278  22.167   0.925  14.290
43854W        W16279  12.744   0.867   4.287
43855W        W16280  23.059  41.822   3.828
43856W        W16281  10.204  32.969   4.680
43857W        W16282  23.057  39.392  13.886
43858W        W16283  40.993  26.192   4.195
43859W        W16284  35.464  20.043  11.021
43860W        W16285  16.611  21.628  10.962
43861W        W16286  35.029  25.152   5.159
43862W        W16287  31.031  38.375   1.351
43863W        W16288  18.732  34.540  11.379
43864W        W16289  34.478  17.242   0.436
43865W        W16290  43.424  12.700   4.769
43866W        W16291  38.546   7.415   3.276
43867W        W16292  21.629  15.710  11.480
43868W        W16293  21.030  27.574  10.529
43869W        W16294   4.722  44.754  10.093
43870W        W16295  34.933  40.428  13.973
43871W        W16296   2.471  26.182  10.551
43872W        W16297  22.587   2.275   0.851
43873W        W16298  12.353  37.425  12.368
43874W        W16299  11.252  38.324  11.979
43875W        W16300  29.575  26.574   1.728
43876W        W16301  28.458  37.505   0.364
43877W        W16302  33.487  33.624   0.965
43878W        W16303  24.659   4.318   4.280
43879W        W16304  32.558   5.358  11.516
43880W        W16305  35.995  18.098   0.353
43881W        W16306   6.800  10.320  13.442
43882W        W16307  18.077  13.231   0.409
43883W        W16308  35.056  21.243  14.830
43884W        W16309   8.752   9.189   5.202
43885W        W16310   3.954  13.184  12.484
43886W        W16311  13.169  23.173  14.770
43887W        W16312  15.813  18.143  13.949
43888W        W16313  30.618  19.285  13.889
43889W        W16314  44.320   5.696   0.463
43890W        W16315  42.797  39.028   1.873
43891W        W16316  31.904  21.049   5.141
43892W        W16317  44.883  10.727   4.241
43893W        W16318  39.531  14.126  10.509
43894W        W16319  32.099  31.984  11.564
43895W        W16320  27.614  21.092  11.006
43896W        W16321  24.494   9.682  14.437
43897W        W16322   5.438  33.433  13.993
43898W        W16323  38.407  38.972   1.869
43899W        W16324  23.002   2.743  13.011
43900W        W16325  18.259   7.366   1.404
43901W        W16326  30.421  16.744  10.892
43902W        W16327  19.080  30.046  13.483
43903W        W16328   5.370  38.991   1.289
43904W        W16329  27.021   9.289   2.202
43905W        W16330  40.513  42.956   5.158
43906W        W16331  22.074  18.612   2.669
43907W        W16332  44.778  34.946   1.886
43908W        W16333   6.252  21.175  14.930
43909W        W16334  18.642  33.935   5.239
43910W        W16335  38.509   3.899  12.402
43911W        W16336  41.379  21.030  14.465
43912W        W16337  30.615  18.266   1.707
43913W        W16338  34.923  24.091  11.580
43914W        W16339  35.573  25.051   2.380
43915W        W16340  30.569  26.079   4.296
43916W        W16341   8.363   6.847  13.001
43917W        W16342  22.200   7.727   3.295
43918W        W16343  41.526  30.433  13.322
43919W        W16344   0.802  31.448   2.890
43920W        W16345  34.494  35.081  11.052
43921W        W16346  36.967  38.505  13.823
43922W        W16347   3.835  12.686   4.142
43923W        W16348   8.842  24.122   0.404
43924W        W16349   7.220  23.065  14.854
43925W        W16350  34.563  16.798  11.904
43926W        W16351  27.527   0.761   4.714
43927W        W16352  15.178  34.380  13.936
43928W        W16353   0.287   6.236   3.752
43929W        W16354   2.401  24.200  10.420
43930W        W16355  10.309   0.323  11.411
43931W        W16356  27.691  13.834   2.360
43932W        W16357  36.409  23.065  13.426
43933W        W16358  18.132  36.015  11.539
43934W        W16359  33.073  20.588  14.854
43935W        W16360  19.637  23.237  14.784
43936W        W16361  15.722  33.505   4.343
43937W        W16362  28.182  26.543  10.592
43938W        W16363  34.880  26.172  13.026
43939W        W16364  21.696  34.501  11.878
43940W        W16365  35.487  44.952  14.887
43941W        W16366  42.877  27.600   0.427
43942W        W16367  43.370  27.684   2.220
43943W        W16368  15.783   8.696   5.091
43944W        W16369  30.979   4.736   3.709
43945W        W16370  39.845   5.755   1.696
43946W        W16371  20.705  43.500   1.927
43947W        W16372   9.737   7.681  13.011
43948W        W16373  30.507  37.369  12.342
43949W        W16374   3.860  29.663  13.405
43950W        W16375   0.881  43.822  10.487
43951W        W16376  16.262   4.290  13.878
43952W        W16377  38.998  34.556  11.997
43953W        W16378  44.440  17.216  12.399
43954W        W16379  31.534  36.882  14.972
43955W        W16380   4.258  32.607  13.474
43956W        W16381  25.972  31.096  10.638
43957W        W16382   4.436  27.196   3.382
43958W        W16383  20.677  34.614   1.448
43959W        W16384  25.510  42.321   0.258
43960W        W16385  44.414  38.563   4.669
43961W        W16386   3.404  39.022  10.403
43962W        W16387  10.313  19.740  11.578
43963W        W16388  26.643  12.214  10.954
43964W        W16389  30.420  20.530   3.184
43965W        W16390   9.284  38.028   1.311
43966W        W16391  19.643  22.153  13.924
43967W        W16392  25.192   7.217   4.197
43968W        W16393   7.852   1.294   0.289
43969W        W16394   3.311  30.586  13.012
43970W        W16395  33.552  24.143   2.833
43971W        W16396  44.952  33.442  13.860
43972W        W16397   6.202  31.113  14.905
43973W        W16398  22.206  39.475  12.411
43974W        W16399  13.271   8.696   5.109
43975W        W16400   6.393  40.514   5.303
43976W        W16401  44.912  28.544  12.512
43977W        W16402  10.713  42.833   3.312
43978W        W16403  35.894  23.586   2.732
43979W        W16404  33.405  36.086  14.351
43980W        W16405  11.621  20.193   4.131
43981W        W16406  29.603  30.062   1.900
43982W        W16407  31.547  13.599  14.394
43983W        W16408  27.145  15.634  14.449
43984W        W16409  15.225   0.282   3.821
43985W        W16410  15.613  33.078   1.424
43986W        W16411  40.826  22.117   2.725
43987W        W16412  13.714  15.271   2.752
43988W        W16413  38.490  25.978   0.820
43989W        W16414   6.234  20.105   4.719
43990W        W16415  25.698   1.390   0.253
43991W        W16416  10.809  30.590  13.921
43992W        W16417   9.885  12.680   0.951
43993W        W16418  40.523  27.954  10.438
43994W        W16419   1.950  35.537  13.323
43995W        W16420  34.004  21.560   4.247
43996W        W16421  31.640  40.022   0.773
43997W        W16422   4.790  30.911  12.050
43998W        W16423  39.910  33.088   3.201
43999W        W16424   9.785   7.260   1.786
44000W        W16425   1.438  15.654   1.709
44001W        W16426  13.120   5.294  11.090
44002W        W16427   9.802  36.955   1.920
44003W        W16428  26.126  29.040   4.661
44004W        W16429  17.615   8.211   1.376
44005W        W16430  44.430   5.304   1.706
44006W        W16431  14.786  34.538   0.818
44007W        W16432  21.617  31.972  11.895
44008W        W16433   3.252  29.610  13.906
44009W        W16434  23.631  34.560   2.877
44010W        W16435  37.408   2.764   0.329
44011W        W16436  30.427  31.549   1.887
44012W        W16437  10.195   9.281   1.811
44013W        W16438  12.797  24.714  12.938
44014W        W16439  33.928  36.027   3.259
44015W        W16440  38.978   8.725   2.276
44016W        W16441  19.055  11.765   3.730
44017W        W16442  35.396  10.723   3.190
44018W        W16443  21.686  23.582  10.497
44019W        W16444  28.624  13.820   0.363
44020W        W16445   7.770   3.721   0.298
44021W        W16446  35.095   0.905  14.374
44022W        W16447  40.387   3.840  12.043
44023W        W16448  17.130  10.161   2.382
44024W        W16449   5.202  27.945  11.926
44025W        W16450   1.350  27.600   2.341
44026W        W16451  39.451  32.007   4.136
44027W        W16452  21.199  11.838   5.705
44028W        W16453  31.899  13.308   1.361
44029W        W16454  36.070  23.082   4.734
44030W        W16455  18.148  29.037  14.369
44031W        W16456  38.422  42.468  14.916
44032W        W16457  33.875   6.265   3.199
44033W        W16458  36.026   7.843  11.531
44034W        W16459  27.593  30.050   1.868
44035W        W16460  13.137   6.427  12.873
44036W        W16461  17.776  11.242  13.375
44037W        W16462  26.968  37.438  11.416
44038W        W16463   9.315   3.780  13.805
44039W        W16464   6.196  10.716  10.516
44040W        W16465  44.411  29.517   1.766
44041W        W16466  17.106   8.276  14.805
44042W        W16467  41.816  40.493   3.167
44043W        W16468  34.969  12.637   5.200
44044W        W16469  21.604  20.262   0.753
44045W        W16470  37.951  15.754  11.581
44046W        W16471   7.774   1.957   0.337
44047W        W16472  22.506  26.056  12.579
44048W        W16473  17.776  35.394  14.372
44049W        W16474  14.800  14.286   2.762
44050W        W16475  26.645   0.763   2.366
44051W        W16476  27.472  39.450  11.425
44052W        W16477  35.084   2.956   1.784
44053W        W16478  41.804  44.320   0.317
44054W        W16479  34.382   3.406   4.668
44055W        W16480  29.089  27.956  13.512
44056W        W16481   1.865  25.695   3.226
44057W        W16482  39.033  40.470  10.984
44058W        W16483   1.422  13.627  12.830
44059W        W16484  27.109  35.465   1.445
44060W        W16485  22.536  36.042   2.813
44061W        W16486  34.928  29.441  11.596
44062W        W16487   2.353  17.659   2.360
44063W        W16488  26.017  24.105  11.439
44064W        W16489  22.147   4.741  11.609
44065W        W16490  27.130  24.100   4.244
44066W        W16491  31.930  34.009  14.997
44067W        W16492  28.181  10.332   5.218
44068W        W16493  43.470  26.670  12.356
44069W        W16494  17.722   7.323   1.819
44070W        W16495  16.681   1.801  14.771
44071W        W16496  28.543  41.980   9.516
44072W        W16497  42.872  42.830   4.339
44073W        W16498   6.318  33.009  11.972
44074W        W16499  42.367  15.198  11.904
44075W        W16500   1.804  38.932   4.244
44076W        W16501  10.665  25.709  12.412
44077W        W16502  24.679  13.219  13.406
44078W        W16503  21.023   4.237  12.526
44079W        W16504  16.573  23.082  13.330
44080W        W16505   8.697  31.419  12.907
44081W        W16506  27.033   3.280   0.386
44082W        W16507   5.324  25.518   3.323
44083W        W16508  40.489  17.663   1.422
44084W        W16509   6.249  42.385   0.278
44085W        W16510  10.219   0.764  14.484
44086W        W16511   1.242  31.506   3.735
44087W        W16512  11.802  28.021   2.287
44088W        W16513  21.018   4.329  12.954
44089W        W16514  28.512   5.871   1.276
44090W        W16515  12.745  28.124  10.507
44091W        W16516   4.209   3.722  13.347
44092W        W16517   2.413  27.631  13.454
44093W        W16518  13.648   3.722  12.990
44094W        W16519  12.242  22.119   2.262
44095W        W16520  36.855  33.110   1.901
44096W        W16521   0.455  37.086   4.243
44097W        W16522  40.356   7.904  10.511
44098W        W16523  27.944  18.585  10.449
44099W        W16524  27.581   3.400  11.876
44100W        W16525  11.294  31.997   3.814
44101W        W16526  43.887  18.139  13.847
44102W        W16527   0.746   5.869   1.411
44103W        W16528  44.983   8.180   3.357
44104W        W16529  12.826  25.108   2.685
44105W        W16530  39.474   4.341  11.896
44106W        W16531  42.513  26.521   2.791
44107W        W16532  36.058  40.831   4.660
44108W        W16533  10.269  18.573  13.857
44109W        W16534  21.044   2.315   4.804
44110W        W16535   2.796  18.735  12.011
44111W        W16536  18.097   8.884  12.457
44112W        W16537  36.930  30.422  13.379
44113W        W16538  32.442  29.585   2.721
44114W        W16539   7.702  21.639   1.904
44115W        W16540   6.844  39.853   4.652
44116W        W16541  15.304  30.639   2.698
44117W        W16542   8.397  17.075  12.938
44118W        W16543  24.489  16.149  12.868
44119W        W16544  40.004   6.866  14.777
44120W        W16545  34.869  10.871   0.742
44121W        W16546  27.955  38.519   1.229
44122W        W16547  13.767  28.019   2.871
44123W        W16548  24.638   1.763  11.498
44124W        W16549  39.055  39.884  10.535
44125W        W16550  25.993   3.344   0.376
44126W        W16551  41.327  13.727   4.799
44127W        W16552  16.759   3.414   0.254
44128W        W16553  20.121   0.492  11.910
44129W        W16554  34.910   8.662  12.026
44130W        W16555   3.718  22.161   4.244
44131W        W16556  11.782   7.821   0.363
44132W        W16557  28.493  38.359   2.825
44133W        W16558  12.208  37.416  14.789
44134W        W16559  24.685   1.749  10.636
44135W        W16560  14.299  15.252   3.789
44136W        W16561  12.756  10.293  11.396
44137W        W16562  15.234   3.861   5.092
44138W        W16563   2.845   5.242  14.484
44139W        W16564  26.182  40.854  14.901
44140W        W16565  32.486  41.832   1.833
44141W        W16566  27.492  44.952   2.419
44142W        W16567  27.452  23.714   1.813
44143W        W16568  27.187   3.333   2.260
44144W        W16569  15.792  23.601  11.479
44145W        W16570  42.504  38.853  12.441
44146W        W16571  37.922  40.042  13.042
44147W        W16572  40.034   6.697  14.463
44148W        W16573  44.332  23.240  10.501
44149W        W16574  40.494   1.279  14.810
44150W        W16575  27.088  27.975   3.688
44151W        W16576  10.223   3.838  13.523
44152W        W16577   9.157   4.234  10.922
44153W        W16578  33.519   5.363  11.590
44154W        W16579  36.062  23.184  12.839
44155W        W16580  10.648  41.397   1.932
44156W        W16581   0.396  12.214   2.676
44157W        W16582   2.401  17.222  13.483
44158W        W16583  37.371  43.899  10.496
44159W        W16584  24.658  15.116  11.458
44160W        W16585  43.504  44.840  13.401
44161W        W16586   8.279  16.281  13.854
44162W        W16587  17.261  27.508   1.244
44163W        W16588  26.618   7.231  11.581
44164W        W16589  32.449  32.521  11.049
44165W        W16590   5.243   1.841   3.797
44166W        W16591  15.784  24.069  11.398
44167W        W16592  38.459  19.094   1.882
44168W        W16593   9.732  16.301   0.741
44169W        W16594  14.655  19.177  13.973
44170W        W16595  32.459  40.946  13.021
44171W        W16596  44.451  33.592   3.650
44172W        W16597  28.506  14.305  12.864
44173W        W16598  12.611   8.743   1.431
44174W        W16599   5.385  15.159   3.224
44175W        W16600  44.489  39.360  12.416
44176W        W16601  15.787  18.077  13.405
44177W        W16602  24.199  22.593   2.681
44178W        W16603  30.053  18.105   3.771
44179W        W16604  13.285   3.846  14.449
44180W        W16605   0.339  26.663  10.972
44181W        W16606  13.766   4.240  11.504
44182W        W16607  17.263   9.672   0.343
44183W        W16608  32.563   7.255  13.378
44184W        W16609  35.564  22.507   1.347
44185W        W16610   9.715  44.808   1.273
44186W        W16611   7.744  41.295  10.583
44187W        W16612   9.672   1.733  12.954
44188W        W16613   2.802  15.749   9.985
44189W        W16614  42.886  13.791  14.390
44190W        W16615  20.234  41.533  14.306
44191W        W16616  20.683   8.216  13.506
44192W        W16617   5.736  32.135   1.351
44193W        W16618   4.336  18.618  10.489
44194W        W16619   4.402  30.618  10.480
44195W        W16620  22.150  26.966  11.924
44196W        W16621  33.086   7.281  14.935
44197W        W16622  18.685  34.520  10.452
44198W        W16623  23.181   0.784  14.500
44199W        W16624  12.163  33.953   4.139
44200W        W16625  28.028  40.012   0.360
44201W        W16626  36.976   4.896   4.322
44202W        W16627  33.949  29.946  10.972
44203W        W16628  21.609  19.085   0.901
44204W        W16629  37.953  33.925  14.839
44205W        W16630  29.034  30.639   4.140
44206W        W16631  15.617  32.018  12.892
44207W        W16632  14.797   0.776   2.761
44208W        W16633  25.135  31.569   1.264
44209W        W16634  30.061   6.838   3.209
44210W        W16635  26.556   7.207   0.271
44211W        W16636  11.348   7.172  11.578
44212W        W16637  38.940  42.913   4.776
44213W        W16638  37.842  35.936  12.537
44214W        W16639  36.470   8.718   0.753
44215W        W16640  42.922   6.792  10.448
44216W        W16641  40.044  10.322   2.326
44217W        W16642  21.047  43.959  14.385
44218W        W16643  15.730  17.089  10.524
44219W        W16644  19.206  31.952   9.986
44220W        W16645   1.437  37.363  11.969
44221W        W16646  29.594  44.461   2.799
44222W        W16647  12.353  14.338  13.983
44223W        W16648   3.782  43.860  12.976
44224W        W16649   8.657   8.227   1.926
44225W        W16650  11.669  15.594   0.457
44226W        W16651  42.401  33.580  11.938
44227W        W16652  20.727  30.569  14.864
44228W        W16653  11.858   5.690  11.029
44229W        W16654  29.145  27.541  11.475
44230W        W16655   7.395  13.688   4.628
44231W        W16656  15.581  44.975  11.596
44232W        W16657   7.670  27.060   0.889
44233W        W16658   7.316   0.986   4.790
44234W        W16659  11.733  25.166  10.556
44235W        W16660   8.269  37.966  13.482
44236W        W16661  17.211  20.753  13.971
44237W        W16662  24.593  25.140  11.503
44238W        W16663  38.825   5.927   1.384
44239W        W16664  18.056  30.999  13.496
44240W        W16665  13.814   6.760  13.831
44241W        W16666  39.841  25.063  14.461
44242W        W16667  11.833  34.102   4.703
44243W        W16668  23.704  43.335   1.802
44244W        W16669  36.406  17.066   0.891
44245W        W16670  26.638  43.478  13.966
44246W        W16671  18.194  18.118   3.280
44247W        W16672   6.417  12.766  13.986
44248W        W16673   5.328  26.067  13.532
44249W        W16674  25.506  23.040   2.276
44250W        W16675  18.168   7.729   3.336
44251W        W16676  29.435  38.490  14.805
44252W        W16677  29.623  20.686   5.322
44253W        W16678   7.338  34.065   3.203
44254W        W16679  37.890  14.791   1.776
44255W        W16680  19.675   2.348  12.913
44256W        W16681   6.873   9.851   3.817
44257W        W16682  32.613   1.898  12.897
44258W        W16683  13.729  36.001  14.445
44259W        W16684  31.524   5.202  12.891
44260W        W16685  25.134   2.945   0.390
44261W        W16686  12.642  28.664   4.253
44262W        W16687  29.090  11.330  14.349
44263W        W16688  34.080  14.141   2.292
44264W        W16689  41.845  31.929   1.242
44265W        W16690  31.977  36.073  10.113
44266W        W16691  42.345  24.722  13.965
44267W        W16692  44.358  44.495  12.572
44268W        W16693  18.553  22.716  12.960
44269W        W16694  31.412  34.038   4.265
44270W        W16695   6.682   6.718  11.874
44271W        W16696   9.246  18.086  11.534
44272W        W16697  18.228  40.365  10.953
44273W        W16698  10.229  31.557   3.717
44274W        W16699  38.013  26.192   1.783
44275W        W16700   6.841  40.026  12.524
44276W        W16701  16.580  44.447  13.428
44277W        W16702  15.225  11.661   2.334
44278W        W16703   4.424  12.201   2.717
44279W        W16704  11.160  21.589  12.051
44280W        W16705   5.795  20.749   1.738
44281W        W16706   0.385  21.529  12.045
44282W        W16707  32.023  38.956   5.284
44283W        W16708  33.910  24.176  12.058
44284W        W16709  44.001  16.658  11.122
44285W        W16710  11.184  21.687   2.777
44286W        W16711  37.035  29.547   4.701
44287W        W16712  13.290  15.216  12.993
44288W        W16713  17.218  35.988  14.765
44289W        W16714  14.798  13.789  12.552
44290W        W16715  32.473  12.790   3.377
44291W        W16716  27.064   4.812   2.702
44292W        W16717  30.451  26.101   3.211
44293W        W16718  33.919  31.951   2.256
44294W        W16719  23.157  38.336  12.372
44295W        W16720  38.470  25.188  11.996
44296W        W16721  40.048   2.377  10.418
44297W        W16722   5.754   6.678  13.391
44298W        W16723   5.801  12.193   4.684
44299W        W16724  17.207  29.044  12.956
44300W        W16725  18.545  30.483  11.567
44301W        W16726  31.151   3.889   1.890
44302W        W16727  36.413  38.411  13.475
44303W        W16728  19.213  11.689  14.470
44304W        W16729  21.100  17.666  13.978
44305W        W16730  42.409  30.456  14.373
44306W        W16731  27.144  32.625   3.634
44307W        W16732  17.719  20.527  14.952
44308W        W16733  22.599  39.907  11.105
44309W        W16734  16.313  34.891   3.702
44310W        W16735  19.151  21.580  13.912
44311W        W16736  40.431   0.300   2.727
44312W        W16737   1.877   6.676   0.435
44313W        W16738  38.900  35.392   2.676
44314W        W16739  40.998  33.581  14.382
44315W        W16740  13.209   6.824   0.417
44316W        W16741   3.726  30.913   3.251
44317W        W16742  21.756  22.069  11.116
44318W        W16743  24.703   0.336  12.430
44319W        W16744  10.138  22.746  10.606
44320W        W16745  36.003   4.422  11.980
44321W        W16746  31.961   1.870  12.020
44322W        W16747  42.372   8.751   3.381
44323W        W16748  24.606  44.999  14.323
44324W        W16749  41.044  20.242  12.963
44325W        W16750  27.623  19.123   1.282
44326W        W16751   1.380  32.949  11.417
44327W        W16752   8.342   2.847  13.345
44328W        W16753  38.392   2.361  13.063
44329W        W16754  37.890  11.309  12.422
44330W        W16755  30.941  27.446  12.485
44331W        W16756  20.573  30.507  10.569
44332W        W16757  33.505  34.979   3.367
44333W        W16758   5.862   4.734  13.323
44334W        W16759  42.927  19.644   3.702
44335W        W16760  27.063  16.607   0.874
44336W        W16761  42.803  22.626  14.938
44337W        W16762   6.403  17.648   3.742
44338W        W16763   5.341  41.516   2.846
44339W        W16764  32.975  33.556  13.414
44340W        W16765  12.755  35.985  11.913
44341W        W16766  18.154  16.631   3.646
44342W        W16767  16.744  38.040  13.816
44343W        W16768  21.029   0.803  13.502
44344W        W16769   6.294   8.351  12.007
44345W        W16770  13.341  27.993   0.257
44346W        W16771  29.620   5.763   1.709
44347W        W16772  38.955  35.884   2.766
44348W        W16773  33.611  35.524   1.766
44349W        W16774  35.376  21.141   1.769
44350W        W16775  42.402  20.048  14.280
44351W        W16776  30.916  16.256  13.464
44352W        W16777  23.524  17.644  10.533
44353W        W16778  34.992  42.320  12.452
44354W        W16779  41.463  34.553  10.603
44355W        W16780  18.261  37.498  12.449
44356W        W16781  23.592   0.845  13.364
44357W        W16782  21.133  32.546  11.866
44358W        W16783  28.566  31.531   4.705
44359W        W16784  36.532  38.500   3.714
44360W        W16785  16.659   5.699  11.406
44361W        W16786  27.174   9.864   1.363
44362W        W16787   7.361  27.553  14.399
44363W        W16788  37.857  28.571  14.009
44364W        W16789  26.701  34.542   9.962
44365W        W16790  20.684  37.390   3.270
44366W        W16791   3.786   8.200  13.995
44367W        W16792  39.037  15.119  12.949
44368W        W16793   3.349  29.113   1.732
44369W        W16794   9.777   0.386   0.921
44370W        W16795  26.000  32.469  12.351
44371W        W16796   3.901  42.919   3.678
44372W        W16797  28.476  38.052   4.320
44373W        W16798  33.453   7.717   0.852
44374W        W16799  26.491  16.251   0.953
44375W        W16800  37.475  20.087   1.766
44376W        W16801  13.297  42.947  13.476
44377W        W16802  21.633   2.891   0.844
44378W        W16803  28.563  36.092   4.280
44379W        W16804   9.184  38.936   1.709
44380W        W16805  40.331   6.750  13.333
44381W        W16806   4.242   5.437  12.357
44382W        W16807  17.118  24.611   2.667
44383W        W16808  27.073  12.229   0.930
44384W        W16809  16.623  28.024  10.585
44385W        W16810  11.715  37.415   4.639
44386W        W16811  22.732   0.450  12.032
44387W        W16812  39.824   1.934   2.276
44388W        W16813  36.432   6.224   3.316
44389W        W16814  34.048  44.266   0.750
44390W        W16815  14.299  12.670  11.944
44391W        W16816  14.633  27.983  14.968
44392W        W16817  40.904  28.167  10.550
44393W        W16818  44.465  17.610   1.876
44394W        W16819  42.000   4.304   1.281
44395W        W16820   4.766   1.862   3.736
44396W        W16821  13.778  10.364   4.121
44397W        W16822  44.491  27.952  11.107
44398W        W16823  29.604  42.362  10.460
44399W        W16824  14.664  31.079   3.795
44400W        W16825  34.110  40.039  11.025
44401W        W16826  23.545  36.413  10.572
44402W        W16827  26.991  31.900   4.288
44403W        W16828  25.168  33.053   4.262
44404W        W16829  31.590  40.467  14.303
44405W        W16830  31.007  27.535  14.409
44406W        W16831  22.101  29.109   4.136
44407W        W16832  17.714  41.940  13.021
44408W        W16833   9.873   2.890  11.035
44409W        W16834  25.665  22.208  11.503
44410W        W16835  16.137  22.155  14.001
44411W        W16836  35.581  25.645  13.500
44412W        W16837  18.219  18.583  11.585
44413W        W16838  31.970  16.130  12.880
44414W        W16839  39.324  29.978   1.891
44415W        W16840  23.492   8.773   3.672
44416W        W16841  40.480  33.552   2.325
44417W        W16842  37.554  24.055   2.313
44418W        W16843  29.608  31.525   2.693
44419W        W16844  37.938  11.680   1.446
44420W        W16845   1.374  32.615   3.323
44421W        W16846  42.804  19.185   2.811
44422W        W16847  16.183  17.569  14.858
44423W        W16848  38.869  44.354  14.842
44424W        W16849  18.720  17.117   0.730
44425W        W16850   3.289   8.772   1.261
44426W        W16851  13.677  35.084  13.887
44427W        W16852  17.621  29.963   0.937
44428W        W16853  17.163   8.396  13.958
44429W        W16854  15.663   2.461  12.377
44430W        W16855  14.340  16.264  13.393
44431W        W16856  16.314   9.257   2.333
44432W        W16857  14.617  30.081  12.361
44433W        W16858  41.936  13.623   0.814
44434W        W16859  28.165  30.117  14.381
44435W        W16860  24.706  30.908   5.318
44436W        W16861  40.315  34.394  11.381
44437W        W16862  44.450  36.906  11.086
44438W        W16863   2.402  14.139  13.034
44439W        W16864  23.069  12.726   1.727
44440W        W16865  38.546  36.909  14.922
44441W        W16866  33.480  15.120  10.618
44442W        W16867  24.604  33.436   1.716
44443W        W16868  30.097  32.545   0.416
44444W        W16869  43.970  26.655   3.375
44445W        W16870  36.355  39.044  10.458
44446W        W16871  42.927  13.216   2.394
44447W        W16872  12.727  10.781  11.029
44448W        W16873  29.518  25.628  10.540
44449W        W16874   3.858  39.417  10.537
44450W        W16875  34.093  33.592   1.228
44451W        W16876  12.336  39.451  12.893
44452W        W16877  17.769   1.390   0.285
44453W        W16878  27.172   7.762   2.330
44454W        W16879  27.013  25.483  10.954
44455W        W16880  23.115  44.278   0.821
44456W        W16881  16.265  41.795   2.361
44457W        W16882  40.480  31.510   1.253
44458W        W16883  10.783  22.582   5.270
44459W        W16884  19.237  13.212   0.822
44460W        W16885  39.933  30.925   0.339
44461W        W16886  40.870   5.782   1.226
44462W        W16887  25.582  28.676  11.436
44463W        W16888  39.421  14.240   0.396
44464W        W16889  35.552   4.282  14.380
44465W        W16890  10.752  15.813   2.289
44466W        W16891   7.740  33.974  13.887
44467W        W16892  18.731  33.894   1.842
44468W        W16893  15.312  14.281  12.048
44469W        W16894   7.231  24.644   0.879
44470W        W16895  20.263  38.351   2.278
44471W        W16896  10.317   7.271  14.026
44472W        W16897   4.766  34.065  11.551
44473W        W16898   6.713  40.435   3.286
44474W        W16899   8.377  33.125  13.474
44475W        W16900   0.305  24.515  11.529
44476W        W16901   9.675   0.432   2.406
44477W        W16902  36.991   3.296   1.416
44478W        W16903   7.904  40.364   3.849
44479W        W16904   7.244  40.992  13.842
44480W        W16905  13.744   0.378   5.089
44481W        W16906  32.017  39.432  10.625
44482W        W16907  30.467  13.640  11.470
44483W        W16908  11.229  21.742  13.409
44484W        W16909  12.655  43.949  10.546
44485W        W16910  36.482  44.856   2.677
44486W        W16911  21.623   7.389   1.359
44487W        W16912   0.315  21.631  11.125
44488W        W16913   6.346   3.394  12.884
44489W        W16914  26.025  17.153   2.195
44490W        W16915   6.819   9.199  14.453
44491W        W16916  39.933  12.356  11.921
44492W        W16917  22.608  30.610  11.029
44493W        W16918  39.875  19.155  13.878
44494W        W16919   3.244  14.198  14.828
44495W        W16920  27.567  33.890  11.451
44496W        W16921  11.806  10.706   0.453
44497W        W16922  34.531  19.048   1.694
44498W        W16923  42.902  11.305   4.713
44499W        W16924  40.812  38.393  13.017
44500W        W16925  17.603  23.205  12.075
44501W        W16926  23.015  18.057   4.628
44502W        W16927  32.025  42.298   2.853
44503W        W16928  25.513  41.842   3.770
44504W        W16929   6.397  41.474   4.230
44505W        W16930   8.322   9.293  13.821
44506W        W16931  31.500  18.080   4.324
44507W        W16932  44.780   0.926  11.567
44508W        W16933   6.301   2.763  11.581
44509W        W16934   5.397  14.608   2.670
44510W        W16935  35.471   6.905  11.003
44511W        W16936   9.237  36.010   4.253
44512W        W16937   2.355  27.174  12.396
44513W        W16938  15.708   5.359   4.743
44514W        W16939  33.438  41.375   3.292
44515W        W16940   5.728   8.826   4.332
44516W        W16941   2.864  24.131   0.956
44517W        W16942  25.657  20.687  11.968
44518W        W16943  31.918   6.778   4.244
44519W        W16944  31.898  13.135  10.559
44520W        W16945  29.935  44.483  14.003
44521W        W16946  22.544  24.057  11.128
44522W        W16947  14.831  36.001   3.320
44523W        W16948   0.759  44.397  14.408
44524W        W16949  31.545  37.943   0.830
44525W        W16950  20.696   5.214  13.996
44526W        W16951  12.643  18.632   0.862
44527W        W16952  21.739  29.969   2.233
44528W        W16953  14.772  27.678   0.410
44529W        W16954   0.821  27.172  14.363
44530W        W16955  43.349  37.836  14.502
44531W        W16956  13.736   2.841  11.481
44532W        W16957   7.307  37.969  11.064
44533W        W16958  32.027  40.363  12.075
44534W        W16959  22.590   3.925  12.079
44535W        W16960   6.339  13.825  13.000
44536W        W16961   6.298  39.525  11.473
44537W        W16962   0.373  39.876   2.362
44538W        W16963   7.904  12.244   2.785
44539W        W16964  36.455  26.021  13.506
44540W        W16965   7.358  32.887  11.088
44541W        W16966  16.208   4.242   2.416
44542W        W16967  31.088  17.143   2.389
44543W        W16968   7.675  28.046   1.716
44544W        W16969  13.299  44.451   2.767
44545W        W16970  43.941  20.549  11.110
44546W        W16971  34.902   8.375  10.956
44547W        W16972   6.744  26.642  11.516
44548W        W16973  39.056  12.730  12.551
44549W        W16974  41.379  40.889   2.813
44550W        W16975  11.280  29.573  12.351
44551W        W16976  42.446   4.269   3.646
44552W        W16977   1.870  10.325   4.636
44553W        W16978  34.065   4.845  14.444
44554W        W16979   6.685  38.990  13.019
44555W        W16980  17.114  42.307   3.177
44556W        W16981  16.262  25.480  14.814
44557W        W16982  33.919  24.490  13.925
44558W        W16983  43.496   8.243   1.905
44559W        W16984  20.571  33.619  10.566
44560W        W16985  43.488  12.348   1.409
44561W        W16986   1.310  37.452   1.275
44562W        W16987  24.583  17.075   3.201
44563W        W16988  42.970  39.553  12.933
44564W        W16989  14.690  26.177   3.322
44565W        W16990   5.849  42.814  13.467
44566W        W16991  35.466   8.296   0.811
44567W        W16992  43.837  12.172  10.944
44568W        W16993  16.596  17.591   4.135
44569W        W16994  10.681  16.137  14.839
44570W        W16995   9.211  29.049  11.535
44571W        W16996   8.311  31.942  11.384
44572W        W16997  12.331  39.825   3.258
44573W        W16998   5.783  26.679   2.199
44574W        W16999  42.798  44.292   2.403
44575W        W17000   9.237  33.492   0.442
44576W        W17001   3.755   6.832  10.619
44577W        W17002   2.880   8.715  12.349
44578W        W17003  34.037  44.766  10.956
44579W        W17004  41.014  22.632   3.642
44580W        W17005  16.640  29.523   4.756
44581W        W17006  18.098  39.046  11.600
44582W        W17007  24.592  11.228  11.018
44583W        W17008  18.167   3.282  13.485
44584W        W17009  36.940  26.647  10.575
44585W        W17010  21.721  44.989   4.209
44586W        W17011  14.815  11.772  13.390
44587W        W17012  25.137  28.102  10.907
44588W        W17013  12.298  33.442   4.797
44589W        W17014  19.120  42.965   2.334
44590W        W17015  29.512  11.188  12.471
44591W        W17016  12.674  17.168   4.700
44592W        W17017  29.630  35.892   1.420
44593W        W17018  19.173  10.841   4.687
44594W        W17019  44.912  38.973  14.004
44595W        W17020  18.780   5.865  14.313
44596W        W17021  25.159   4.228   3.693
44597W        W17022   3.228  17.169  10.921
44598W        W17023  18.734  20.100   2.809
44599W        W17024  43.282  34.992  11.605
44600W        W17025  24.133   7.690   3.765
44601W        W17026  28.653   8.838   0.838
44602W        W17027  28.075  24.523   2.808
44603W        W17028  40.002  23.023   0.780
44604W        W17029  34.915  40.319   0.916
44605W        W17030  11.227  27.457   2.402
44606W        W17031  39.359  27.041  13.473
44607W        W17032  21.224  37.396   2.667
44608W        W17033  19.634  25.527   3.686
44609W        W17034  28.185  31.134   2.240
44610W        W17035   2.339  24.161  14.965
44611W        W17036  29.031  16.587   0.786
44612W        W17037  10.651  24.978  10.922
44613W        W17038  30.506  18.782  12.507
44614W        W17039  37.889   3.721  10.494
44615W        W17040  35.373   4.845  11.856
44616W        W17041   6.912  40.962   0.432
44617W        W17042  37.467  40.363  11.499
44618W        W17043  21.136  17.798  14.961
44619W        W17044  31.539  19.651   3.633
44620W        W17045   5.786  12.626  14.869
44621W        W17046  13.312  38.537  14.331
44622W        W17047  41.427  13.125  13.874
44623W        W17048  25.121   6.312  12.944
44624W        W17049  30.627  30.088  13.870
44625W        W17050  37.520  39.848   0.360
44626W        W17051  14.161   4.226   9.497
44627W        W17052   3.777  38.976   0.966
44628W        W17053  14.152  20.091   1.294
44629W        W17054  18.103   0.426  12.934
44630W        W17055  10.858  27.596  14.398
44631W        W17056  32.415  16.160  14.785
44632W        W17057  25.552  41.898  14.981
44633W        W17058  11.347  15.592  14.455
44634W        W17059   0.493   0.884   2.662
44635W        W17060  27.012  12.633   2.796
44636W        W17061  34.957  16.748  14.416
44637W        W17062   9.764  40.409  11.002
44638W        W17063   0.983  27.106   4.836
44639W        W17064   7.270  10.743   1.435
44640W        W17065  44.961  38.930   4.286
44641W        W17066   9.199  36.407   1.789
44642W        W17067   6.230   9.259  10.418
44643W        W17068  36.877  42.871  12.574
44644W        W17069  13.599   3.380   1.253
44645W        W17070  24.025  22.552   3.362
44646W        W17071  12.714   6.889  10.421
44647W        W17072  10.142  26.467  11.388
44648W        W17073   4.326  42.324  13.925
44649W        W17074  26.104  34.409   2.820
44650W        W17075  42.827  19.594  11.531
44651W        W17076  30.975  20.109   1.354
44652W        W17077   8.857   4.832   5.117
44653W        W17078   7.257  35.490  12.077
44654W        W17079  37.951   0.836   3.229
44655W        W17080  33.900   6.871   3.708
44656W        W17081  25.699   3.422  12.480
44657W        W17082  13.142  13.645  12.032
44658W        W17083   0.454  13.821  12.074
44659W        W17084  29.139  21.743  10.131
44660W        W17085  29.006  22.041  12.056
44661W        W17086  21.711  34.446   4.342
44662W        W17087  41.965  30.056  14.803
44663W        W17088  30.461  11.270   0.840
44664W        W17089  26.597   8.745   0.433
44665W        W17090   3.456   0.412   2.778
44666W        W17091  41.460   2.392   1.784
44667W        W17092  25.009  17.075   4.122
44668W        W17093  13.162   7.811   4.835
44669W        W17094   7.319  29.621  12.480
44670W        W17095  32.026   7.380   2.849
44671W        W17096   5.868  30.091   3.181
44672W        W17097  11.739   0.313   2.341
44673W        W17098  27.981  30.457   3.785
44674W        W17099  16.667  17.086   1.420
44675W        W17100  32.037   1.889   1.262
44676W        W17101   9.646  26.040  12.976
44677W        W17102  33.582   2.321   2.221
44678W        W17103  26.091  31.146  11.445
44679W        W17104  12.344  22.719   4.644
44680W        W17105  12.750  39.387  13.024
44681W        W17106  23.735   5.857  12.545
44682W        W17107  19.689  11.777   2.860
44683W        W17108   5.388   3.253  10.477
44684W        W17109  22.726  23.641  13.872
44685W        W17110  39.513  12.828  14.026
44686W        W17111  10.775  17.113  14.342
44687W        W17112  15.808   3.330   2.762
44688W        W17113  42.987  44.479   3.762
44689W        W17114  42.820   0.419  12.937
44690W        W17115   2.325  44.437   3.275
44691W        W17116  10.846  34.372  10.619
44692W        W17117  42.943  17.199   1.280
44693W        W17118  17.192  28.466   0.387
44694W        W17119  32.009  25.989   1.828
44695W        W17120  19.144   1.907   4.218
44696W        W17121  27.028   9.657   1.935
44697W        W17122   0.398   3.340  12.358
44698W        W17123  37.352  26.126   1.780
44699W        W17124  29.045   8.755   3.274
44700W        W17125  22.746   7.206  10.096
44701W        W17126  33.620  21.105  11.986
44702W        W17127  12.137   3.442  12.424
44703W        W17128  11.748  25.976   4.808
44704W        W17129  16.142  32.131   1.744
44705W        W17130  13.166  24.617  11.915
44706W        W17131  32.002   5.872  12.077
44707W        W17132  20.057   3.850  12.900
44708W        W17133   9.263  23.647  12.065
44709W        W17134  34.523  39.361  11.602
44710W        W17135  21.181  13.772  12.858
44711W        W17136  27.497   6.740  11.886
44712W        W17137   4.280  41.849  11.389
44713W        W17138  30.152  26.572   4.303
44714W        W17139  35.961  38.947   3.864
44715W        W17140  30.632   2.952  12.981
44716W        W17141   6.364  42.897   5.203
44717W        W17142  37.037  35.554  14.888
44718W        W17143   0.868  35.950   1.931
44719W        W17144  16.669  33.424   4.790
44720W        W17145  44.471   2.314  13.049
44721W        W17146  33.510  42.388   3.722
44722W        W17147  27.188  35.970   2.301
44723W        W17148   8.164  15.751   4.768
44724W        W17149   0.763  26.198  11.112
44725W        W17150  42.349  39.998  12.345
44726W        W17151  29.493  15.166   0.854
44727W        W17152  31.640   8.375  11.017
44728W        W17153   3.386  31.407   3.731
44729W        W17154   2.858   4.340  12.860
44730W        W17155  19.643  15.103  14.493
44731W        W17156  37.338  20.615  11.520
44732W        W17157  30.967  31.025   0.276
44733W        W17158  39.022  31.941  11.045
44734W        W17159  40.909  36.559  11.862
44735W        W17160  20.631  42.409   2.695
44736W        W17161   4.313   4.750  13.439
44737W        W17162  30.995  30.453  12.924
44738W        W17163  38.328  32.907  13.839
44739W        W17164  29.477  12.726   4.818
44740W        W17165  15.179   4.837   0.357
44741W        W17166   5.357  14.813   1.832
44742W        W17167  20.546   7.267   2.734
44743W        W17168   9.811  13.198  11.456
44744W        W17169  40.969  22.736   1.442
44745W        W17170  44.325  24.214   3.245
44746W        W17171  30.531  33.983  10.525
44747W        W17172  42.787  12.192  14.412
44748W        W17173  33.117   0.784   4.188
44749W        W17174  33.942  17.227   2.288
44750W        W17175  20.068   2.416  14.352
44751W        W17176  43.889  43.979  10.443
44752W        W17177   8.722   8.319   3.295
44753W        W17178  10.355  25.010   9.991
44754W        W17179  22.060   9.294   4.598
44755W        W17180   5.338  19.071   4.819
44756W        W17181  15.645   2.406  12.846
44757W        W17182  39.844  14.113  12.890
44758W        W17183  26.682  19.645  12.044
44759W        W17184  27.566  30.930   4.336
44760W        W17185  28.469   1.347  12.362
44761W        W17186  23.710   0.459   4.789
44762W        W17187  25.669  43.329  11.914
44763W        W17188   5.697   6.322  13.861
44764W        W17189  43.416  34.445  14.384
44765W        W17190  10.667  16.080   3.723
44766W        W17191  18.265  29.020  11.029
44767W        W17192  26.060  32.018   5.218
44768W        W17193  16.255  14.668  11.897
44769W        W17194   1.475  43.340   0.759
44770W        W17195   2.362  36.067  13.797
44771W        W17196   0.807   1.279  14.406
44772W        W17197   9.825  37.854   3.342
44773W        W17198  12.201   0.793  14.964
44774W        W17199  27.132  27.582   1.923
44775W        W17200   7.255  26.523   4.672
44776W        W17201   6.348  32.976   4.701
44777W        W17202  14.121  10.147   2.669
44778W        W17203  39.866  28.613  14.397
44779W        W17204  23.715  12.614  12.911
44780W        W17205   9.169  28.941  14.365
44781W        W17206  22.104  40.445  14.385
44782W        W17207   5.923  33.515   2.236
44783W        W17208  30.971   1.907   4.784
44784W        W17209  36.995  17.637   4.724
44785W        W17210  27.495  25.199  13.411
44786W        W17211   5.299   8.283  11.426
44787W        W17212  22.194   9.811  12.963
44788W        W17213  15.320  26.478  12.044
44789W        W17214  10.278   0.418  10.574
44790W        W17215  12.772  28.174  10.907
44791W        W17216  24.079  23.585   2.687
44792W        W17217  17.596  38.840   0.806
44793W        W17218  24.593  14.141   2.771
44794W        W17219  32.007   4.421   4.741
44795W        W17220  39.323   1.739  10.437
44796W        W17221   3.248   7.730  14.920
44797W        W17222  22.661  23.626  12.001
44798W        W17223   2.961  16.599   2.184
44799W        W17224  27.046  23.635   0.874
44800W        W17225  16.200  30.032   0.350
44801W        W17226  15.792   6.828   0.479
44802W        W17227  26.639  11.165   0.823
44803W        W17228  33.878  17.713  11.129
44804W        W17229  35.928  32.017   5.142
44805W        W17230  20.760  34.934  11.928
44806W        W17231  12.668  14.785  13.025
44807W        W17232   5.727  18.565  14.945
44808W        W17233  41.516  17.623  13.866
44809W        W17234  36.361  40.923  10.905
44810W        W17235   0.742  20.044  11.588
44811W        W17236  43.805   3.334   0.828
44812W        W17237  27.517  22.008  10.432
44813W        W17238  31.096  28.471   3.672
44814W        W17239  36.546  11.681  13.312
44815W        W17240  30.017   8.729  12.920
44816W        W17241  38.512  43.442  14.941
44817W        W17242  16.671  36.475   4.702
44818W        W17243  26.646  21.037   0.738
44819W        W17244   2.924   9.305  11.012
44820W        W17245   4.765  30.929  14.988
44821W        W17246  15.128  31.016   0.754
44822W        W17247  17.734  33.543  14.785
44823W        W17248  23.086  40.443   3.333
44824W        W17249  28.514   4.719  14.860
44825W        W17250   7.413   8.394   0.810
44826W        W17251  25.114  38.070  13.918
44827W        W17252  30.594  17.229  12.421
44828W        W17253  21.701  12.834   4.122
44829W        W17254   9.756  30.924  11.990
44830W        W17255  15.158  36.380  14.781
44831W        W17256  39.424  31.003   2.874
44832W        W17257   0.897  23.042   2.770
44833W        W17258  40.000   0.876   4.815
44834W        W17259  40.400  24.540  11.070
44835W        W17260  28.101  13.238  14.471
44836W        W17261   2.807   5.412   3.367
44837W        W17262  43.444  38.350  11.899
44838W        W17263  37.858  33.089  14.841
44839W        W17264  36.463  10.256  14.301
44840W        W17265  19.208  21.243   4.617
44841W        W17266  38.543   1.777   2.205
44842W        W17267  41.886  16.152   4.746
44843W        W17268  25.687   4.905   1.306
44844W        W17269  37.374   6.258   2.685
44845W        W17270   6.828  23.184  13.845
44846W        W17271  17.151   9.332   0.336
44847W        W17272   1.952   1.781  11.371
44848W        W17273  16.084  17.604   4.664
44849W        W17274  24.004  39.330  14.458
44850W        W17275  35.106  24.061  14.790
44851W        W17276  25.698  33.552  12.872
44852W        W17277   6.239  41.845   4.763
44853W        W17278  21.257  19.717   1.778
44854W        W17279  36.445   3.237   4.611
44855W        W17280  23.489  26.700   0.957
44856W        W17281  33.580  32.453   1.700
44857W        W17282   1.285  38.515   3.177
44858W        W17283  26.204   2.448  14.958
44859W        W17284  12.337  43.834  10.411
44860W        W17285  44.377  37.426   9.969
44861W        W17286  29.467  24.527   1.296
44862W        W17287  37.363  22.220   0.829
44863W        W17288  10.329  32.888  11.413
44864W        W17289   2.451  18.742  13.974
44865W        W17290   5.894  25.641  13.031
44866W        W17291  42.483  24.114  11.437
44867W        W17292  23.693   2.467  13.940
44868W        W17293  33.928  28.108  13.351
44869W        W17294   1.775  27.567   1.427
44870W        W17295   3.264  27.039   2.406
44871W        W17296  20.164  10.759  14.773
44872W        W17297  43.007  43.272  13.442
44873W        W17298  10.713   9.795  11.005
44874W        W17299  15.232  15.823   3.857
44875W        W17300  25.494  10.208   1.822
44876W        W17301  40.014  29.029  10.581
44877W        W17302  12.774  26.528  12.381
44878W        W17303  44.796  24.221  13.945
44879W        W17304  16.269   1.848   4.729
44880W        W17305  40.403  31.404  10.930
44881W        W17306  36.552   1.892  11.428
44882W        W17307   9.702  36.474   1.310
44883W        W17308  13.294  15.293   4.606
44884W        W17309  40.434   3.894   0.471
44885W        W17310  42.488   3.955   3.207
44886W        W17311   6.365  30.082   3.843
44887W        W17312  41.326  10.860  12.465
44888W        W17313   2.339  35.387   4.729
44889W        W17314  16.803  17.686  11.590
44890W        W17315  26.092  11.821  10.597
44891W        W17316  19.650  42.341   4.225
44892W        W17317  33.415  23.015   0.803
44893W        W17318  26.609  26.626   2.693
44894W        W17319  25.039  24.497   3.652
44895W        W17320  19.280  11.771  14.816
44896W        W17321  32.445  25.095   4.152
44897W        W17322   7.190  40.944   0.402
44898W        W17323  32.405  23.551  13.881
44899W        W17324  16.291   8.666  13.850
44900W        W17325  31.030  28.123   2.857
44901W        W17326   8.720  10.317   2.749
44902W        W17327   9.177  17.197  11.999
44903W        W17328  22.670  35.877   3.665
44904W        W17329  19.699  21.017  12.823
44905W        W17330  38.035   8.192   1.410
44906W        W17331  14.692  13.225   4.836
44907W        W17332   7.287  41.907  13.803
44908W        W17333  35.459   3.854   1.422
44909W        W17334  18.729  14.773  14.791
44910W        W17335  40.864  23.228   1.214
44911W        W17336   2.963  10.349  12.362
44912W        W17337  38.073  43.439  13.875
44913W        W17338  43.801   3.754   3.379
44914W        W17339   3.851  34.919  13.863
44915W        W17340  29.569  34.864   2.369
44916W        W17341  25.200  28.572   0.468
44917W        W17342  43.384  13.233  11.489
44918W        W17343  32.597  36.844   0.879
44919W        W17344   4.784  35.924   0.937
44920W        W17345   3.941  39.843   1.925
44921W        W17346  22.695  14.803  10.100
44922W        W17347  37.501  35.068  10.420
44923W        W17348  37.878  19.050  13.525
44924W        W17349  15.200  32.096   0.780
44925W        W17350   3.398  35.413   2.236
44926W        W17351  25.990  32.019   5.685
44927W        W17352   1.261  12.140   2.195
44928W        W17353  43.877  16.756   3.165
44929W        W17354  39.964   5.378  13.959
44930W        W17355  18.113   5.373  10.499
44931W        W17356  38.031   5.365  11.046
44932W        W17357  20.644  28.991  12.467
44933W        W17358   7.354   6.690   3.711
44934W        W17359  13.154  24.049  10.500
44935W        W17360  10.376  12.766   0.735
44936W        W17361   5.265   0.769  13.538
44937W        W17362  22.188  10.364  14.438
44938W        W17363  37.358  30.648  14.935
44939W        W17364  38.439  22.231   0.348
44940W        W17365  41.387   7.769  14.277
44941W        W17366  36.369  21.577   1.439
44942W        W17367  18.191  26.068   4.734
44943W        W17368  26.158  25.984   0.887
44944W        W17369  41.500  34.978  10.523
44945W        W17370  37.019   1.890   2.335
44946W        W17371  24.982  27.003  12.441
44947W        W17372  36.924  41.865   0.946
44948W        W17373  22.215  28.500  12.906
44949W        W17374  30.069  12.693  11.928
44950W        W17375  16.237   1.327   3.363
44951W        W17376   7.217  28.000  10.918
44952W        W17377  19.151  22.619   0.911
44953W        W17378  16.150  20.588   3.679
44954W        W17379  40.529  40.380  13.930
44955W        W17380  27.561  41.301   2.782
44956W        W17381  27.169  32.917  14.887
44957W        W17382  13.742  12.254   3.779
44958W        W17383  28.026   0.455   1.337
44959W        W17384  16.573  34.983  14.986
44960W        W17385  23.637  12.191  10.917
44961W        W17386  19.086  26.170   0.905
44962W        W17387  20.057  16.765  14.405
44963W        W17388  25.640  32.449   3.186
44964W        W17389  39.839  28.579  13.830
44965W        W17390  27.141   6.278  14.997
44966W        W17391  22.140   8.266   1.433
44967W        W17392  27.985  12.810  14.386
44968W        W17393   2.350   5.348  11.076
44969W        W17394  31.984  21.146   0.247
44970W        W17395  37.886   4.836  13.348
44971W        W17396  24.089  40.873  10.573
44972W        W17397  22.553   2.381  10.590
44973W        W17398   5.415  11.808  11.032
44974W        W17399  27.512  20.193  10.534
44975W        W17400   7.390  38.439   3.369
44976W        W17401  16.285  26.543  14.993
44977W        W17402  31.620   0.331   1.386
44978W        W17403  39.439   9.872  14.359
44979W        W17404  29.058  38.433   4.184
44980W        W17405  26.457   7.761   0.343
44981W        W17406   7.243  20.532  14.022
44982W        W17407  37.912  21.192   3.324
44983W        W17408  43.346   3.385  12.033
44984W        W17409  24.123  15.212   2.866
44985W        W17410  30.601  35.429  13.804
44986W        W17411   6.223  32.125   4.216
44987W        W17412  28.016  37.371  11.983
44988W        W17413   1.445  35.018   4.780
44989W        W17414  28.035  40.392  14.869
44990W        W17415   6.890  21.200  12.856
44991W        W17416  22.626   9.878   2.399
44992W        W17417  37.448   9.191   2.749
44993W        W17418  12.147   6.686  10.551
44994W        W17419  16.120  12.613  14.832
44995W        W17420  26.031  15.091   1.370
44996W        W17421  26.074   6.818  10.587
44997W        W17422   9.277  33.554   3.241
44998W        W17423  14.291  14.827   3.246
44999W        W17424   0.315   7.210  14.969
45000W        W17425  27.100  27.533  11.435
45001W        W17426  17.100  38.365  13.340
45002W        W17427   2.755  28.456   0.964
45003W        W17428  11.819  25.145   3.169
45004W        W17429  29.151  33.417   1.790
45005W        W17430   9.651  29.167  14.976
45006W        W17431   8.197  32.018   3.224
45007W        W17432  18.240  16.224  11.117
45008W        W17433  26.673  37.361  14.908
45009W        W17434  43.478  21.607  10.115
45010W        W17435   9.218  38.463   2.827
45011W        W17436  25.018  11.210   4.332
45012W        W17437  27.963  25.713   2.219
45013W        W17438  33.515  28.556  10.424
45014W        W17439   4.854  10.746  13.366
45015W        W17440  14.322  28.182   4.174
45016W        W17441   1.266  30.596  13.365
45017W        W17442  16.163  13.674  12.430
45018W        W17443  33.423  18.219  13.488
45019W        W17444  11.222   2.880   4.743
45020W        W17445  18.633  35.891   0.819
45021W        W17446  37.351  43.909  12.931
45022W        W17447  38.979  30.016   1.295
45023W        W17448  29.648   6.325  11.997
45024W        W17449  21.026  43.354   2.233
45025W        W17450  30.095  43.291   4.742
45026W        W17451  19.565  32.623   2.255
45027W        W17452  21.022  11.827  12.490
45028W        W17453  35.364   5.888  12.077
45029W        W17454  36.955  29.138  11.092
45030W        W17455  29.642  23.530  14.927
45031W        W17456  11.200  30.028   4.252
45032W        W17457  36.069  40.369  13.540
45033W        W17458  29.624   2.817   1.318
45034W        W17459  28.629   1.759   3.735
45035W        W17460  14.173  16.218   2.764
45036W        W17461  14.314  21.073  12.390
45037W        W17462  11.295  25.127   4.242
45038W        W17463  24.191  32.623   1.778
45039W        W17464  16.733  39.490  11.996
45040W        W17465   8.183  15.670   3.847
45041W        W17466   0.392  33.396  13.358
45042W        W17467  33.113  27.661  12.062
45043W        W17468  40.455  34.990   2.184
45044W        W17469  27.949   0.291   4.250
45045W        W17470   3.379  44.263   1.913
45046W        W17471  38.075  14.175  14.297
45047W        W17472   1.261  31.904   0.306
45048W        W17473  41.324   6.291   1.358
45049W        W17474   7.195  21.072  11.053
45050W        W17475  37.997  34.575   0.814
45051W        W17476  35.404   9.382   5.771
45052W        W17477  22.120   3.769   0.333
45053W        W17478  42.955  28.170  11.549
45054W        W17479  18.603  31.441  11.445
45055W        W17480  26.545  42.969  14.426
45056W        W17481  35.467  25.533  12.006
45057W        W17482   4.703  10.178   4.655
45058W        W17483  15.223  32.988   0.399
45059W        W17484  14.817  21.667   3.773
45060W        W17485  36.039  15.179   2.367
45061W        W17486  13.288   3.752  13.528
45062W        W17487  11.819  35.088   2.794
45063W        W17488  36.059  10.864  11.432
45064W        W17489   5.287  17.068  13.958
45065W        W17490  28.635  24.086  12.059
45066W        W17491  26.668   5.688   3.281
45067W        W17492  39.870  18.293   2.740
45068W        W17493  16.698  37.898  12.436
45069W        W17494   9.283   4.428   2.874
45070W        W17495  42.406  15.097  12.509
45071W        W17496  31.445   1.759   1.799
45072W        W17497   7.905  14.723  10.419
45073W        W17498   8.661  20.108  10.576
45074W        W17499  35.037  33.038  13.936
45075W        W17500   9.339  29.455   3.217
45076W        W17501  40.340  43.835  13.034
45077W        W17502  15.733  36.585   5.167
45078W        W17503  22.652  32.001  11.502
45079W        W17504  43.831  29.485   0.807
45080W        W17505   1.472  37.461   1.888
45081W        W17506  44.922   1.283   2.244
45082W        W17507   6.758  43.873  11.126
45083W        W17508  23.073   5.225   3.806
45084W        W17509   3.897   9.838   1.314
45085W        W17510  35.559  28.986   1.272
45086W        W17511  11.330  41.812  10.593
45087W        W17512  23.626   9.737   5.134
45088W        W17513  38.903  11.788  13.903
45089W        W17514  32.524  42.442  14.334
45090W        W17515  43.860   1.394  14.326
45091W        W17516  13.245   8.261  13.333
45092W        W17517  16.178  13.741   1.406
45093W        W17518  15.649  32.436  12.355
45094W        W17519  13.332   9.680  10.918
45095W        W17520   9.669  17.065  14.827
45096W        W17521   2.302  43.767  12.041
45097W        W17522  12.783  38.386  14.358
45098W        W17523   5.695  19.162   4.670
45099W        W17524  37.911  27.998  11.548
45100W        W17525  32.046   1.366  11.009
45101W        W17526   9.387  39.944  13.415
45102W        W17527  15.742  40.033  12.399
45103W        W17528  27.517  18.059   3.666
45104W        W17529  38.330  28.503  14.365
45105W        W17530  19.099  12.204   3.303
45106W        W17531  21.059   5.244  11.862
45107W        W17532   8.842  18.588   0.781
45108W        W17533  19.739   4.388  14.794
45109W        W17534  18.220   7.205   0.308
45110W        W17535   7.189   4.446  12.408
45111W        W17536   3.270  21.092  10.001
45112W        W17537  41.527   4.442   2.762
45113W        W17538  30.912  28.076   1.296
45114W        W17539   7.693  42.914   2.662
45115W        W17540  25.597  14.625  14.506
45116W        W17541  35.454  28.107  13.876
45117W        W17542  24.718  39.540   2.754
45118W        W17543  34.414  21.518   1.361
45119W        W17544   7.273  23.574   1.282
45120W        W17545  11.267  36.020   2.719
45121W        W17546  26.161  22.156  14.987
45122W        W17547  21.245   8.688   0.306
45123W        W17548  30.992   2.374   3.257
45124W        W17549  26.573  30.072   2.803
45125W        W17550  10.874   6.721  13.517
45126W        W17551  25.518  34.120   0.904
45127W        W17552  25.653  23.696   4.631
45128W        W17553  28.165  34.444  12.951
45129W        W17554   0.954   2.406   1.803
45130W        W17555  13.799   5.836  10.589
45131W        W17556  42.009   4.272   4.622
45132W        W17557   9.269  19.709  12.831
45133W        W17558   3.775   9.816  14.890
45134W        W17559  36.962  43.943  13.438
45135W        W17560  39.015  19.041   0.370
45136W        W17561  11.262   0.839  13.315
45137W        W17562  37.453  42.508   2.754
45138W        W17563   3.828   1.832   4.223
45139W        W17564   5.408  41.472  14.467
45140W        W17565   1.375   4.868  10.491
45141W        W17566  29.929  26.511  13.358
45142W        W17567  27.165  24.043   1.887
45143W        W17568  17.140   4.924  13.519
45144W        W17569  37.495  27.051   2.319
45145W        W17570   7.722  19.130   2.888
45146W        W17571  14.123  28.460   3.813
45147W        W17572  19.234  34.443   0.882
45148W        W17573  30.107  14.311   0.259
45149W        W17574   7.802  10.193  14.283
45150W        W17575  34.540  43.418   0.876
45151W        W17576  14.258  23.234  13.497
45152W        W17577  19.721  25.699  13.320
45153W        W17578   2.778  38.468  14.934
45154W        W17579   8.858  11.714  13.986
45155W        W17580  44.435   0.487   3.188
45156W        W17581   0.948   6.764  10.420
45157W        W17582  14.756  27.035   0.816
45158W        W17583   1.805  38.903   3.359
45159W        W17584  42.031   5.418   4.689
45160W        W17585  14.118  44.990   4.305
45161W        W17586  33.961  33.050   4.722
45162W        W17587  13.345  26.136   2.727
45163W        W17588  33.381   0.962   4.245
45164W        W17589  13.163  36.910  12.392
45165W        W17590  26.168  25.028   3.666
45166W        W17591   6.355  18.138   4.217
45167W        W17592  32.524  26.193   4.820
45168W        W17593  21.129   5.437  10.993
45169W        W17594  12.676   7.209  14.507
45170W        W17595  29.640   7.667  11.076
45171W        W17596  35.045  43.484  10.480
45172W        W17597  22.577   4.913  10.135
45173W        W17598  43.287  12.845  14.845
45174W        W17599   6.705  31.900   2.381
45175W        W17600  40.406  26.558   1.895
45176W        W17601  22.540  19.668   3.382
45177W        W17602  35.933   2.777   3.677
45178W        W17603  13.183  40.879  14.777
45179W        W17604  11.364  26.957  13.895
45180W        W17605  30.009  33.045  13.893
45181W        W17606  11.156  39.529  14.459
45182W        W17607  39.505  28.092   4.628
45183W        W17608  41.371  33.431   2.385
45184W        W17609  20.041   0.944   0.909
45185W        W17610  42.988   9.789   2.773
45186W        W17611  39.867  43.275  10.563
45187W        W17612   7.356   4.249  11.005
45188W        W17613  26.192  34.520   0.350
45189W        W17614  25.202  23.075   0.475
45190W        W17615  39.880  26.459   1.893
45191W        W17616  36.004  35.572   3.169
45192W        W17617  30.454  17.250  12.076
45193W        W17618  17.199  20.199   4.194
45194W        W17619  14.106  15.792  14.880
45195W        W17620  42.876   1.899  10.549
45196W        W17621  43.999  41.946   2.756
45197W        W17622  21.640   3.400   0.249
45198W        W17623   7.872  20.612  10.554
45199W        W17624  12.811  21.194   0.737
45200W        W17625  43.285  11.177  11.440
45201W        W17626  43.871  37.423   3.699
45202W        W17627  34.579  31.570  13.367
45203W        W17628  27.047   4.264  13.962
45204W        W17629  20.209   9.706   2.416
45205W        W17630  16.746  37.411   2.406
45206W        W17631   4.444  22.645  14.947
45207W        W17632  26.569  24.153  14.028
45208W        W17633  30.057  21.635  11.917
45209W        W17634  34.534   2.864   1.447
45210W        W17635  11.357  30.523  10.572
45211W        W17636  16.166  33.400   1.421
45212W        W17637  36.577  35.395   4.261
45213W        W17638  24.488  11.184   1.381
45214W        W17639  17.169   3.365  10.024
45215W        W17640  36.988  19.672   2.751
45216W        W17641  27.497   7.287   1.883
45217W        W17642  39.924  33.525   1.295
45218W        W17643  41.461   2.433   2.833
45219W        W17644  25.524   5.851   3.646
45220W        W17645  36.017  35.917   2.251
45221W        W17646  22.744  16.300  12.062
45222W        W17647   9.707   2.319  13.482
45223W        W17648   1.345   0.745   3.870
45224W        W17649   6.731  32.901   3.217
45225W        W17650  13.181  35.530   3.828
45226W        W17651   4.887   0.426  13.477
45227W        W17652  15.823  11.142   3.669
45228W        W17653  31.010   9.336   4.821
45229W        W17654  22.594  35.105   0.778
45230W        W17655  34.371  11.196   2.205
45231W        W17656  32.613  22.064  13.525
45232W        W17657  17.199   3.908   3.657
45233W        W17658  34.596   2.361   3.162
45234W        W17659  39.833  18.103  10.599
45235W        W17660   7.355  39.322  10.447
45236W        W17661   3.863   2.803  12.878
45237W        W17662   2.274   9.760   2.398
45238W        W17663  22.119  41.509  11.865
45239W        W17664  38.520  16.109  11.016
45240W        W17665  22.034  31.473  10.493
45241W        W17666  12.697  44.372   1.253
45242W        W17667  13.832  31.483  14.995
45243W        W17668  39.031   7.704   1.394
45244W        W17669  42.503  31.956  14.017
45245W        W17670   7.728   1.338  11.465
45246W        W17671  30.412  13.806  12.480
45247W        W17672  21.733  25.583  11.454
45248W        W17673  41.366  23.167   3.862
45249W        W17674   4.923  16.119   4.703
45250W        W17675   4.267   1.824  10.636
45251W        W17676  36.538  42.410   2.695
45252W        W17677  29.059   6.747   0.442
45253W        W17678  16.616   1.386   4.125
45254W        W17679  30.941   0.776  11.550
45255W        W17680  25.556  18.659  13.467
45256W        W17681  28.024  34.474  13.474
45257W        W17682  15.194  13.107   3.661
45258W        W17683  44.947  27.503   1.793
45259W        W17684   6.764  15.738  13.461
45260W        W17685  11.175  33.002   0.873
45261W        W17686  15.279   0.973   3.188
45262W        W17687  25.141  13.118  13.492
45263W        W17688  16.581  11.661   1.378
45264W        W17689   8.673   7.249  10.901
45265W        W17690  23.984  32.487  14.454
45266W        W17691  44.402   7.230  13.845
45267W        W17692  44.907  18.613  12.412
45268W        W17693  39.857  30.047  11.527
45269W        W17694  22.251  10.660  12.008
45270W        W17695  28.943  38.042  10.625
45271W        W17696  12.662  26.194  10.603
45272W        W17697  24.689  28.006   4.210
45273W        W17698  33.448  24.075  14.434
45274W        W17699  38.443   9.188  10.462
45275W        W17700  41.877  34.987  11.395
45276W        W17701  23.057  35.427  12.995
45277W        W17702  17.132  41.802   0.726
45278W        W17703  24.544  37.356   4.252
45279W        W17704  34.483  26.968   0.247
45280W        W17705  10.223  29.470   0.820
45281W        W17706  25.106   9.646   2.314
45282W        W17707  41.026   7.317  14.422
45283W        W17708  32.980  25.070  13.538
45284W        W17709   3.289   2.741  12.887
45285W        W17710  20.623  39.041   1.448
45286W        W17711   0.795  10.655   2.246
45287W        W17712  22.675   6.708  14.425
45288W        W17713  32.946   6.921  10.965
45289W        W17714  28.996  21.674   1.423
45290W        W17715  19.772  24.665   0.893
45291W        W17716  27.589   4.715   0.384
45292W        W17717  26.595  31.487   1.902
45293W        W17718   4.739   8.899  10.107
45294W        W17719   8.851  41.357  10.570
45295W        W17720   8.354   3.447   1.424
45296W        W17721  34.393  19.219  12.028
45297W        W17722  31.056   5.377   2.782
45298W        W17723  28.976  39.370  10.141
45299W        W17724  14.651  29.103  13.843
45300W        W17725  23.229  18.728   2.833
45301W        W17726  33.614  25.530   3.231
45302W        W17727  28.081   2.394   2.869
45303W        W17728   0.451   7.847  10.484
45304W        W17729   3.403  40.315   2.337
45305W        W17730  14.626  41.014   0.822
45306W        W17731  27.010  41.950  13.991
45307W        W17732  21.662   9.759   4.755
45308W        W17733  30.562  18.741   4.116
45309W        W17734  13.677  31.928   2.880
45310W        W17735  11.244  31.900  10.487
45311W        W17736  26.156  42.456   0.814
45312W        W17737  30.130   3.887  14.866
45313W        W17738  39.526  44.263   3.681
45314W        W17739   0.322  32.900  11.081
45315W        W17740  19.601   9.165  14.938
45316W        W17741   7.215  17.063   3.207
45317W        W17742   1.346  32.550  13.383
45318W        W17743  35.456  42.874  13.994
45319W        W17744  16.119  44.495  14.433
45320W        W17745   3.225  20.069   1.274
45321W        W17746  34.411   7.282   4.626
45322W        W17747  19.544  23.681  11.046
45323W        W17748   5.785   7.879  11.380
45324W        W17749  17.230  32.433   0.928
45325W        W17750  38.030  41.379  14.771
45326W        W17751  44.297  41.966  13.004
45327W        W17752  41.360  31.963  11.463
45328W        W17753  17.085  43.340  11.478
45329W        W17754  29.955  10.370  13.859
45330W        W17755   7.415   0.770  13.331
45331W        W17756  44.278  33.544  10.076
45332W        W17757  15.128  30.415  14.318
45333W        W17758   7.317  28.101   2.323
45334W        W17759  13.342  14.200   4.313
45335W        W17760  26.082  40.932  12.477
45336W        W17761  33.442  22.564   1.236
45337W        W17762  18.555  30.472  11.920
45338W        W17763  15.269  14.744   2.897
45339W        W17764   3.748  24.225  13.351
45340W        W17765  20.581   1.383   0.251
45341W        W17766  40.348   9.172  11.102
45342W        W17767  10.259   3.913  11.438
45343W        W17768  33.116   1.882  12.901
45344W        W17769  19.176  22.132  11.970
45345W        W17770  41.020  26.020  13.903
45346W        W17771   9.883  28.601   2.389
45347W        W17772  23.158  24.190   2.275
45348W        W17773  22.746  15.131  14.847
45349W        W17774  21.186   0.276  12.429
45350W        W17775  32.566  42.444   1.878
45351W        W17776   2.376  41.323  14.426
45352W        W17777  31.563  34.002   4.642
45353W        W17778  27.085  29.468   1.446
45354W        W17779  34.951  41.968  13.543
45355W        W17780   2.754  43.793   1.215
45356W        W17781   3.447  21.612  14.991
45357W        W17782   2.810  21.145  12.866
45358W        W17783   1.838   2.799   4.273
45359W        W17784  15.094   9.722  10.644
45360W        W17785  15.776   5.689   4.713
45361W        W17786  44.980   3.349   0.320
45362W        W17787  25.677  19.620  14.798
45363W        W17788  42.834  34.483  10.898
45364W        W17789  31.489   6.327  14.884
45365W        W17790  31.605  33.537  12.478
45366W        W17791   8.889   5.737  13.920
45367W        W17792  22.096  14.715  12.052
45368W        W17793   9.346  30.967   4.297
45369W        W17794  27.497  12.850  12.487
45370W        W17795   9.772   0.939  14.002
45371W        W17796   8.191  14.725  12.852
45372W        W17797  36.377  38.403  14.771
45373W        W17798  39.546   0.749   3.719
45374W        W17799   6.195   9.386  12.947
45375W        W17800  19.749  23.681  14.497
45376W        W17801  36.457   4.331  11.010
45377W        W17802  37.030  22.682   2.218
45378W        W17803   3.439   7.400  12.047
45379W        W17804  41.825  22.659   5.715
45380W        W17805  39.470  13.349  10.429
45381W        W17806  39.365  10.739  13.875
45382W        W17807  26.650   4.281  10.948
45383W        W17808  30.589  29.505  14.819
45384W        W17809  21.205  42.920   1.329
45385W        W17810   0.471  28.662  14.801
45386W        W17811   2.878  22.241   0.312
45387W        W17812  37.943  33.906   0.816
45388W        W17813  23.187  29.472   3.765
45389W        W17814   6.317   0.400  14.972
45390W        W17815  44.945  39.810   4.126
45391W        W17816  22.039  13.284  11.961
45392W        W17817  32.038  33.542   5.246
45393W        W17818   0.944  10.168   3.303
45394W        W17819  38.379   0.290   4.207
45395W        W17820  39.963  20.206   3.291
45396W        W17821  11.663  28.471   0.351
45397W        W17822  43.301   5.794   2.196
45398W        W17823  25.119  36.985  14.932
45399W        W17824  15.685  38.867  14.804
45400W        W17825  15.176  33.921   3.748
45401W        W17826  12.700   2.742   1.851
45402W        W17827  23.539  33.447   2.814
45403W        W17828  14.265  11.668   1.375
45404W        W17829  37.350  31.465   2.209
45405W        W17830  24.148  10.708  14.380
45406W        W17831  43.393   1.915   3.366
45407W        W17832  18.126  39.008  10.951
45408W        W17833  34.907  12.613  10.047
45409W        W17834  28.531  21.108   1.246
45410W        W17835  11.337  20.097   4.339
45411W        W17836  38.822  19.773   3.702
45412W        W17837   3.761   7.799  13.330
45413W        W17838  26.576  25.642   5.147
45414W        W17839  19.584  38.440  14.013
45415W        W17840  43.285  20.107   4.227
45416W        W17841   7.862  42.942   4.212
45417W        W17842  11.348   6.736   2.675
45418W        W17843  11.693   4.830   2.243
45419W        W17844  30.112   3.406  12.971
45420W        W17845   6.272  30.491  12.092
45421W        W17846  15.628  13.178  13.052
45422W        W17847  31.965  17.307   1.832
45423W        W17848  22.101   0.423   0.463
45424W        W17849  13.746   2.370   4.727
45425W        W17850  21.733  18.095  14.488
45426W        W17851  13.726  14.795  14.877
45427W        W17852  29.072  30.938  13.539
45428W        W17853  25.101  27.177  11.524
45429W        W17854  44.459  12.823   2.335
45430W        W17855  38.420   9.281   2.710
45431W        W17856  34.869  17.245   4.207
45432W        W17857  31.897  43.867  13.322
45433W        W17858  24.701  12.750   4.739
45434W        W17859   7.905  20.085  14.805
45435W        W17860   4.237   6.398  12.983
45436W        W17861  23.089  28.621   3.798
45437W        W17862  44.498   0.831  11.407
45438W        W17863  10.831   8.241  12.442
45439W        W17864  10.275  31.039  11.601
45440W        W17865   4.878  42.317  12.398
45441W        W17866  31.111  34.429   4.144
45442W        W17867   1.241  44.766  13.958
45443W        W17868  14.673  40.905  13.326
45444W        W17869  38.074  37.396  14.299
45445W        W17870  33.461  41.303  14.362
45446W        W17871  38.324   8.167   1.789
45447W        W17872  27.019  18.102   0.459
45448W        W17873  14.332   9.272  11.105
45449W        W17874   1.834   2.322   3.382
45450W        W17875  35.862   2.348  11.542
45451W        W17876   3.328  21.595  13.831
45452W        W17877  18.637   0.884   2.260
45453W        W17878  44.921  19.041  11.491
45454W        W17879  39.436  11.852  13.844
45455W        W17880  37.063  40.870   3.265
45456W        W17881  14.337  37.961  11.126
45457W        W17882  17.164  40.036   2.360
45458W        W17883  28.011  40.003   3.386
45459W        W17884  32.595  12.745   2.295
45460W        W17885  16.181   2.319   2.413
45461W        W17886  24.096  44.502   2.781
45462W        W17887  13.832  24.114  12.407
45463W        W17888  43.765  21.753  11.588
45464W        W17889  18.266  42.942  13.537
45465W        W17890  44.806  21.621  13.038
45466W        W17891  28.077  18.165  13.425
45467W        W17892   4.293  43.958  14.885
45468W        W17893  11.301   0.908  12.883
45469W        W17894  32.942  39.557  14.879
45470W        W17895  20.580  19.143   0.305
45471W        W17896  29.569  25.469   4.833
45472W        W17897   0.947  13.750  10.973
45473W        W17898   2.894  32.970   1.888
45474W        W17899  11.160  18.081   2.871
45475W        W17900  37.391   9.704  14.437
45476W        W17901  14.784  11.322   1.384
45477W        W17902  43.768  11.802  12.082
45478W        W17903  37.518   0.282  10.636
45479W        W17904  37.518  44.770   2.729
45480W        W17905  43.453  19.062  11.457
45481W        W17906  30.541  36.020   3.662
45482W        W17907  36.845  44.384   0.350
45483W        W17908   2.277  37.010   2.684
45484W        W17909  17.216  41.414  14.453
45485W        W17910  44.289  33.973   0.320
45486W        W17911  10.824  26.196  13.992
45487W        W17912  32.579  21.664  14.794
45488W        W17913  35.428  14.154  10.561
45489W        W17914   3.865  12.314   1.862
45490W        W17915   8.295  10.250   1.319
45491W        W17916  41.804  38.542  11.863
45492W        W17917  37.539   3.380   0.831
45493W        W17918   3.308   6.388  10.593
45494W        W17919  36.395  13.631   0.354
45495W        W17920  35.090  31.026   2.844
45496W        W17921  10.674  24.001  10.485
45497W        W17922  13.629  39.844  14.789
45498W        W17923  27.080   0.919  10.915
45499W        W17924   5.420  22.228  14.947
45500W        W17925  15.284   1.302   1.283
45501W        W17926  40.999  13.827  13.877
45502W        W17927   8.667   3.747  13.369
45503W        W17928  43.827   7.251  13.380
45504W        W17929  44.809  31.431  14.783
45505W        W17930  28.441  27.446  13.386
45506W        W17931  10.310  24.610   3.174
45507W        W17932  36.398   0.318  13.792
45508W        W17933  26.608  13.767  12.460
45509W        W17934  28.974  10.825  14.015
45510W        W17935   3.374   5.743  14.861
45511W        W17936  21.621  23.109  13.029
45512W        W17937  20.625  43.796  14.291
45513W        W17938   5.795  24.029   1.842
45514W        W17939  35.900  40.343   5.177
45515W        W17940   0.323  19.282  10.898
45516W        W17941  29.171  20.043  12.986
45517W        W17942  27.692  29.017  11.120
45518W        W17943  15.614  29.518  11.464
45519W        W17944   1.318  21.680   1.360
45520W        W17945  42.869   7.291  13.983
45521W        W17946  10.745  13.617  12.953
45522W        W17947   8.288  34.388   4.652
45523W        W17948  40.044   5.911   1.411
45524W        W17949  13.334  15.745  14.843
45525W        W17950  30.961  42.420  10.621
45526W        W17951   4.239   0.938   4.768
45527W        W17952  38.877   4.259  13.043
45528W        W17953  12.652  29.522   2.867
45529W        W17954  42.868   0.875   2.254
45530W        W17955  19.171  12.346  11.554
45531W        W17956   0.395  41.892   3.821
45532W        W17957   4.337   9.194   3.288
45533W        W17958  31.589  35.505  11.090
45534W        W17959  22.563  21.669  13.476
45535W        W17960  35.024  13.715  11.983
45536W        W17961  22.632  12.616  13.314
45537W        W17962  38.523  28.184   1.443
45538W        W17963  43.359   4.746  11.035
45539W        W17964  28.998  38.329  10.136
45540W        W17965  36.049  25.048   4.829
45541W        W17966   8.705  13.245   3.868
45542W        W17967  32.072  28.658  14.363
45543W        W17968  27.040  20.075   3.865
45544W        W17969  42.994  44.346   2.851
45545W        W17970   0.906   5.721  11.068
45546W        W17971  44.462   9.222   4.705
45547W        W17972  22.669  26.997  13.475
45548W        W17973  12.794  10.194   1.834
45549W        W17974   2.349  16.772   0.824
45550W        W17975   4.431  14.821   2.197
45551W        W17976  41.825   6.747   2.361
45552W        W17977  13.654  30.945   1.857
45553W        W17978  36.496   2.948  11.074
45554W        W17979  38.414  41.535   4.676
45555W        W17980   1.878  13.609  11.571
45556W        W17981  17.575  35.493  11.106
45557W        W17982  19.095   4.773   2.220
45558W        W17983   8.696   4.786   3.360
45559W        W17984  31.042  19.076   2.878
45560W        W17985  24.004  17.560  12.479
45561W        W17986  29.486  29.019  14.765
45562W        W17987   8.762  22.046  10.918
45563W        W17988   7.905  33.430   3.643
45564W        W17989  42.000  13.829  11.494
45565W        W17990  20.690  35.080  13.981
45566W        W17991  32.900  34.475   2.817
45567W        W17992  43.290  28.958  13.352
45568W        W17993  12.730  43.962   2.414
45569W        W17994  36.358  11.775   0.464
45570W        W17995  41.307  21.071   4.257
45571W        W17996  33.457   0.751  13.523
45572W        W17997  19.121   1.459  12.928
45573W        W17998  35.396  31.117  11.506
45574W        W17999  34.090   8.706   0.870
45575W        W18000   6.351   1.742   1.878
45576W        W18001   8.267  19.266   1.846
45577W        W18002  20.659   1.336  13.037
45578W        W18003  40.489   2.364  14.328
45579W        W18004   0.472  27.580  11.384
45580W        W18005   1.381  27.519  11.047
45581W        W18006  34.566   3.359  14.021
45582W        W18007  20.695  42.524   0.733
45583W        W18008  20.058  41.399   4.200
45584W        W18009  16.091  15.672   4.783
45585W        W18010  14.826  36.012  13.992
45586W        W18011  41.814  29.140  13.506
45587W        W18012  26.694  28.072   5.112
45588W        W18013  17.685   2.723   3.812
45589W        W18014   3.853  18.079  13.844
45590W        W18015  32.408  36.910  13.047
45591W        W18016  39.467   0.925   0.728
45592W        W18017  17.215  27.164   0.859
45593W        W18018  10.355  44.491   0.757
45594W        W18019  27.566  21.095   1.426
45595W        W18020  32.113   2.306  10.565
45596W        W18021  43.980  39.439  10.531
45597W        W18022   4.890  15.786   2.855
45598W        W18023  30.587   5.912   0.419
45599W        W18024  43.894   1.468  12.518
45600W        W18025   6.334  38.409  11.032
45601W        W18026  19.222  13.188  12.856
45602W        W18027   8.304   7.282   4.758
45603W        W18028  24.615  23.001   4.605
45604W        W18029   1.410   9.164   0.950
45605W        W18030   5.841  44.830   4.243
45606W        W18031   4.791  29.141   9.974
45607W        W18032  42.969   5.768  11.058
45608W        W18033  23.030   6.813  11.054
45609W        W18034  37.847  24.210  13.954
45610W        W18035  33.093  16.268   1.923
45611W        W18036  27.618  12.720   2.871
45612W        W18037  31.099  11.628  13.475
45613W        W18038   7.860  28.020   0.842
45614W        W18039  20.550  29.939  12.025
45615W        W18040  38.432   2.372  11.445
45616W        W18041   5.304  20.107   2.780
45617W        W18042  42.864   3.736   0.481
45618W        W18043  26.591  39.913  14.368
45619W        W18044  41.905  16.076  10.430
45620W        W18045  30.563  22.098  11.545
45621W        W18046  28.158  40.327   2.700
45622W        W18047   9.794  42.302   0.263
45623W        W18048  31.581   9.825  14.282
45624W        W18049   0.811   6.900   3.286
45625W        W18050  26.128  36.535   0.897
45626W        W18051  44.959   2.345   4.813
45627W        W18052  25.653  38.068  14.391
45628W        W18053  29.935  12.684  10.465
45629W        W18054   5.860  41.855   1.300
45630W        W18055  31.103  19.777   2.406
45631W        W18056  32.485   9.224   2.895
45632W        W18057   5.241  13.299   4.186
45633W        W18058  42.942  14.605  13.855
45634W        W18059  17.091  39.539   1.886
45635W        W18060  24.052  13.626  14.784
45636W        W18061  36.391  13.334   1.920
45637W        W18062  36.912   3.403  10.626
45638W        W18063  36.492  23.234  12.524
45639W        W18064  39.004  19.694   1.881
45640W        W18065  16.789  14.821   1.816
45641W        W18066  28.979  35.860  11.879
45642W        W18067  33.878  37.847  12.906
45643W        W18068  35.923  30.620  13.795
45644W        W18069  32.083  17.565  10.887
45645W        W18070  11.694  12.262   3.267
45646W        W18071  38.426  16.133  12.979
45647W        W18072  40.488   5.314  13.827
45648W        W18073  40.980  27.147   1.315
45649W        W18074   6.755  19.157  12.945
45650W        W18075  10.229   6.378   5.243
45651W        W18076   4.247  12.665   2.371
45652W        W18077  40.505   4.309   3.207
45653W        W18078  38.345  35.990  13.426
45654W        W18079  13.724  27.094   4.744
45655W        W18080  16.796  17.184   4.752
45656W        W18081  25.540   3.924  10.621
45657W        W18082   7.248  24.720  10.497
45658W        W18083  13.306   9.167  13.978
45659W        W18084  29.044  39.857  10.626
45660W        W18085  27.028   1.288   2.385
45661W        W18086  21.612   3.908   3.801
45662W        W18087  15.203  43.320  14.871
45663W        W18088  21.516  40.418  11.481
45664W        W18089  37.962  17.708  14.412
45665W        W18090  15.145  29.663   1.273
45666W        W18091  34.457  25.155  10.986
45667W        W18092   8.198   1.964   3.172
45668W        W18093   3.923  12.794   5.124
45669W        W18094  42.298  43.765   3.780
45670W        W18095   4.933  25.613  14.368
45671W        W18096  27.606  40.838   4.792
45672W        W18097  13.775  24.608   4.279
45673W        W18098   6.182  39.425  13.063
45674W        W18099  29.566   0.315   1.416
45675W        W18100   6.818  17.698   3.766
45676W        W18101  18.578  32.416  12.506
45677W        W18102  23.530  22.529   3.232
45678W        W18103  19.771  40.476   4.231
45679W        W18104  39.534   1.268   4.627
45680W        W18105  17.122   0.378   4.599
45681W        W18106  44.866  33.465   2.749
45682W        W18107   0.776  33.067  12.490
45683W        W18108   3.915  16.602   2.679
45684W        W18109  27.518  15.653   0.826
45685W        W18110  24.582   6.921   4.640
45686W        W18111   3.412   8.214   0.255
45687W        W18112  29.174   7.912  10.910
45688W        W18113  23.525  30.052  10.114
45689W        W18114   8.252  40.316  10.482
45690W        W18115  35.513  11.737  11.470
45691W        W18116  43.371  32.521  13.047
45692W        W18117  38.982  15.666  11.492
45693W        W18118  11.147  21.156  14.957
45694W        W18119  21.052   9.854   2.375
45695W        W18120  32.989  22.174  11.995
45696W        W18121  28.639   9.770  12.963
45697W        W18122  23.152   5.390  11.049
45698W        W18123  32.912  22.248   3.860
45699W        W18124  16.614   1.906  13.910
45700W        W18125  19.627   9.330  12.497
45701W        W18126  24.220  31.487   0.430
45702W        W18127  14.211  22.056   0.880
45703W        W18128   3.378  25.475  13.016
45704W        W18129  30.482  15.282   3.833
45705W        W18130  10.756  28.186  10.005
45706W        W18131  42.353   8.879  11.123
45707W        W18132  32.943   7.856   1.723
45708W        W18133  17.172  36.098   0.947
45709W        W18134  41.012  33.919  11.860
45710W        W18135  30.426  22.631   3.356
45711W        W18136  38.879  31.126  11.983
45712W        W18137   7.870  34.461   4.615
45713W        W18138  44.307  11.820   3.846
45714W        W18139  40.454   0.252   2.419
45715W        W18140   4.218   1.848  14.785
45716W        W18141  34.080  43.783  14.028
45717W        W18142  19.161   8.735  13.432
45718W        W18143  25.515  30.940   4.267
45719W        W18144   5.212   1.479  11.067
45720W        W18145  31.539  30.656  11.538
45721W        W18146   3.388  19.565  11.418
45722W        W18147  18.636  30.593  12.453
45723W        W18148   6.754  13.204  12.034
45724W        W18149  22.142  43.443   1.304
45725W        W18150   5.828   9.351   3.164
45726W        W18151  14.788  18.607  14.006
45727W        W18152  39.961  18.582   2.793
45728W        W18153  18.571   9.759   4.329
45729W        W18154  39.498  10.216   0.383
45730W        W18155  44.285  15.596  10.489
45731W        W18156  13.257  37.558  12.537
45732W        W18157  20.631  35.871  10.521
45733W        W18158  14.135  27.632  12.087
45734W        W18159  36.540  18.157   2.231
45735W        W18160  13.130  33.884  14.934
45736W        W18161  11.810  41.331  14.423
45737W        W18162  11.844  21.571   3.339
45738W        W18163  13.254   3.254   4.255
45739W        W18164  26.193   7.385  14.387
45740W        W18165  20.728  30.944   1.286
45741W        W18166   2.746   1.462   3.649
45742W        W18167  37.427  17.734   4.308
45743W        W18168  21.729   2.864  12.422
45744W        W18169  19.655   2.379  13.864
45745W        W18170  11.740  34.894   1.886
45746W        W18171  24.115  11.198  10.045
45747W        W18172  13.727   5.891   4.771
45748W        W18173  17.083  41.405  12.844
45749W        W18174  10.165  19.060   2.734
45750W        W18175   6.219  29.135   1.361
45751W        W18176  31.938  39.021  14.408
45752W        W18177  18.592  30.567   0.759
45753W        W18178  34.396  32.909   1.408
45754W        W18179  36.008   8.281   4.186
45755W        W18180  38.496  38.528   2.847
45756W        W18181  16.169  14.821   0.262
45757W        W18182   8.752  34.515   4.611
45758W        W18183  16.084   3.732   2.191
45759W        W18184   2.333  33.064  12.846
45760W        W18185   4.787  38.846   5.176
45761W        W18186   1.736  12.116   2.870
45762W        W18187   6.862  21.232  11.882
45763W        W18188  30.075  27.981  11.085
45764W        W18189  15.699  33.572   0.431
45765W        W18190  24.702  41.993  14.503
45766W        W18191  40.341  35.021   3.336
45767W        W18192  42.899  35.497  12.516
45768W        W18193  39.323  29.435  12.575
45769W        W18194  13.630   6.693  10.585
45770W        W18195  10.721  25.190   2.807
45771W        W18196  26.702  26.685   3.256
45772W        W18197  19.138  41.404   4.212
45773W        W18198  17.781  28.170  12.507
45774W        W18199   7.735   8.320   2.324
45775W        W18200  22.706  29.631  11.917
45776W        W18201  20.127  27.184  11.070
45777W        W18202  29.122  20.527  11.381
45778W        W18203  28.592  21.666   5.245
45779W        W18204   4.943  28.107   4.743
45780W        W18205  18.145  11.150  14.362
45781W        W18206  17.613  26.513   2.415
45782W        W18207  34.497  16.754  12.408
45783W        W18208  42.302   9.855   4.649
45784W        W18209   7.719  26.113   3.641
45785W        W18210  42.852  40.406  10.546
45786W        W18211  44.364  43.887  14.331
45787W        W18212  38.570  22.585  11.600
45788W        W18213  22.197  32.458   3.221
45789W        W18214  38.926  43.770  10.593
45790W        W18215   1.775  23.648   4.764
45791W        W18216   8.197  34.982   4.296
45792W        W18217   2.896  14.146   0.388
45793W        W18218   2.788  13.784   3.187
45794W        W18219  26.007  29.652  11.433
45795W        W18220  13.240   0.959   1.431
45796W        W18221  18.748  27.585   4.610
45797W        W18222   1.472  10.375   4.254
45798W        W18223  22.705  16.604   0.938
45799W        W18224  18.118  11.358  13.023
45800W        W18225  33.938  29.921  11.897
45801W        W18226  21.164   2.303  13.996
45802W        W18227   4.715  36.432   1.294
45803W        W18228  21.626   4.932   3.237
45804W        W18229  38.919  34.441   3.661
45805W        W18230  39.413   1.850  11.471
45806W        W18231  19.195  24.668   4.617
45807W        W18232  39.406  28.945   4.613
45808W        W18233  22.620  13.641  14.779
45809W        W18234   8.177  21.702   4.330
45810W        W18235  24.194  19.227  10.969
45811W        W18236   8.381  19.260  12.909
45812W        W18237  31.588  18.671  14.916
45813W        W18238  38.464  21.631   0.894
45814W        W18239  24.169  41.489  10.969
45815W        W18240  18.722  16.692   9.989
45816W        W18241  16.194   6.798  12.036
45817W        W18242   4.902  35.527   4.643
45818W        W18243  26.559  12.735   0.742
45819W        W18244  26.197   3.761   1.407
45820W        W18245  28.114  28.605   1.715
45821W        W18246  36.956  34.893   1.376
45822W        W18247   2.841  32.120   1.274
45823W        W18248  36.455   2.903   3.223
45824W        W18249  40.834  22.136  12.893
45825W        W18250  39.930  41.902   0.440
45826W        W18251  29.938  32.538   2.739
45827W        W18252  28.597  40.864  13.960
45828W        W18253  34.402  15.274   0.448
45829W        W18254  20.744  11.683   0.422
45830W        W18255  24.087  25.106   1.805
45831W        W18256  22.999  23.174   4.743
45832W        W18257   7.670  15.225  13.458
45833W        W18258  12.280  40.828  11.579
45834W        W18259  41.889  39.058   3.673
45835W        W18260   0.889  41.315  13.314
45836W        W18261  12.166  21.057  14.944
45837W        W18262  30.525  21.091  12.525
45838W        W18263  17.734  33.536   4.774
45839W        W18264  29.167  24.533   1.928
45840W        W18265  30.502  19.553  13.429
45841W        W18266  18.123  17.689   0.358
45842W        W18267  10.269   1.834  14.947
45843W        W18268  19.591  31.483   0.288
45844W        W18269   8.350  31.504   4.606
45845W        W18270  25.988  13.158  12.382
45846W        W18271  12.125  31.577  11.907
45847W        W18272  38.384  33.381  12.850
45848W        W18273  43.801  30.999  13.880
45849W        W18274   8.299  38.387   4.811
45850W        W18275  26.017  25.530   2.861
45851W        W18276  40.341  31.942  11.597
45852W        W18277  38.870  40.538   3.734
45853W        W18278  36.539  39.431  11.516
45854W        W18279   6.832  17.066  13.325
45855W        W18280   2.796  13.312  13.358
45856W        W18281  25.201   6.201   1.915
45857W        W18282  14.670  19.726   0.407
45858W        W18283  11.360  14.634  13.365
45859W        W18284  38.038  13.179   3.702
45860W        W18285  37.512  38.943  13.353
45861W        W18286   6.227  35.398   1.408
45862W        W18287  36.893  14.765  13.317
45863W        W18288  42.362  30.931  13.828
45864W        W18289  21.603   5.926   1.717
45865W        W18290  37.403  34.557  12.573
45866W        W18291  35.888   5.865  11.916
45867W        W18292  22.008  31.950  14.422
45868W        W18293   9.751  10.641  14.851
45869W        W18294  18.706  38.517   0.441
45870W        W18295  37.417  16.265  12.384
45871W        W18296  14.181  35.926   4.143
45872W        W18297  43.932  32.480  13.404
45873W        W18298  39.451   5.892   3.811
45874W        W18299  14.277  33.120  10.619
45875W        W18300  39.452  10.159  11.486
45876W        W18301  32.528  44.990   4.326
45877W        W18302  17.737  41.388   1.336
45878W        W18303  17.787  44.286   3.260
45879W        W18304  35.027  22.672  14.918
45880W        W18305  19.694  26.063  12.881
45881W        W18306  28.049   5.747  12.987
45882W        W18307  30.452   2.778   4.333
45883W        W18308  31.523  43.999  14.832
45884W        W18309  24.690  35.989  13.015
45885W        W18310  16.128  25.185  10.525
45886W        W18311  15.324  42.859   2.248
45887W        W18312  25.073   3.816   1.342
45888W        W18313  19.646   4.418   0.891
45889W        W18314  20.147  22.720  13.815
45890W        W18315  33.443  25.988   3.760
45891W        W18316  16.794   1.733   0.870
45892W        W18317  16.657  16.723   2.253
45893W        W18318  26.113   9.689   0.902
45894W        W18319  42.997   2.899   1.845
45895W        W18320   7.278   2.249   0.360
45896W        W18321  37.546  26.104   0.948
45897W        W18322  23.537   2.267   3.234
45898W        W18323  37.896   5.425  11.882
45899W        W18324  16.109  42.291   3.253
45900W        W18325  16.134  30.622  11.550
45901W        W18326  31.581  14.340   4.779
45902W        W18327  34.895  23.595   0.867
45903W        W18328  44.271   1.971   1.414
45904W        W18329   2.866  25.531   3.350
45905W        W18330  16.305  29.665  14.776
45906W        W18331   1.820   0.840  11.963
45907W        W18332  25.150  11.803  13.063
45908W        W18333  31.937  26.500  13.852
45909W        W18334  10.223  36.568  14.016
45910W        W18335   2.765   7.194  11.024
45911W        W18336   4.892   7.257   3.222
45912W        W18337  30.604   8.276  14.881
45913W        W18338  33.035  39.981   2.696
45914W        W18339  29.005   6.715  11.087
45915W        W18340   0.369  10.825   0.440
45916W        W18341   5.904  31.464  12.503
45917W        W18342  25.579  30.048  14.474
45918W        W18343  20.187   2.237   2.361
45919W        W18344  27.462   1.441   3.675
45920W        W18345  25.036   7.728  13.997
45921W        W18346  44.260   4.699  11.903
45922W        W18347  37.081  18.770   1.870
45923W        W18348   6.797   4.765   2.397
45924W        W18349  43.454  17.157  14.407
45925W        W18350   8.764  18.120  10.593
45926W        W18351  16.665  35.105   2.860
45927W        W18352  35.486  41.467   3.800
45928W        W18353  30.155  19.751  14.793
45929W        W18354  35.365  21.211   4.273
45930W        W18355   5.788  24.086  12.002
45931W        W18356  37.559  22.598   2.745
45932W        W18357  31.124  34.516   1.909
45933W        W18358   2.962  21.709  10.602
45934W        W18359  41.345  18.780  12.474
45935W        W18360  12.792  35.385   2.183
45936W        W18361  33.589  31.499   0.827
45937W        W18362  43.911   9.747  14.459
45938W        W18363  15.235  20.156  14.906
45939W        W18364  38.413  44.394  13.445
45940W        W18365  37.440   6.344  13.539
45941W        W18366  39.410  25.573  10.893
45942W        W18367   9.195  19.267   4.623
45943W        W18368  42.942   4.796   2.184
45944W        W18369  34.605  23.210   4.130
45945W        W18370  31.999   6.236  12.021
45946W        W18371  21.728   2.242  10.585
45947W        W18372  41.346  15.242  10.901
45948W        W18373  11.784  35.419   0.841
45949W        W18374  24.624  33.017  11.928
45950W        W18375  29.030  30.032  13.828
45951W        W18376  19.146  12.668  11.968
45952W        W18377  11.649  19.588   1.833
45953W        W18378  18.612  21.684  14.835
45954W        W18379   3.336  35.089   5.261
45955W        W18380  25.568  10.138  11.965
45956W        W18381  34.987  21.094   4.679
45957W        W18382  32.941   4.838  14.995
45958W        W18383   3.343  19.211   0.826
45959W        W18384  26.643  22.243   3.790
45960W        W18385   8.324  17.243  10.530
45961W        W18386  44.306  44.889   2.190
45962W        W18387  16.689   6.366   1.755
45963W        W18388  30.985  31.049   4.303
45964W        W18389  16.291   7.203   0.311
45965W        W18390   0.447  23.126   4.283
45966W        W18391  25.032  26.586  10.099
45967W        W18392   5.283   4.792   4.610
45968W        W18393  18.169  41.396  12.481
45969W        W18394  28.569  26.597  11.967
45970W        W18395  35.532  25.485   0.808
45971W        W18396  18.121  39.850  11.458
45972W        W18397  30.989   9.313  13.946
45973W        W18398  25.137   2.822   0.888
45974W        W18399  11.337   5.402  12.031
45975W        W18400  35.599  40.393  13.018
45976W        W18401  35.514  43.271  14.378
45977W        W18402   5.365  24.044   4.177
45978W        W18403  44.324   2.935   3.163
45979W        W18404  28.049  37.978   3.335
45980W        W18405  38.500   8.340   4.348
45981W        W18406  25.677  13.641  11.018
45982W        W18407   9.370  24.005   3.323
45983W        W18408   5.423  35.376   1.701
45984W        W18409  22.087  20.113  10.905
45985W        W18410   4.723   5.207  10.510
45986W        W18411  25.122  35.957   3.697
45987W        W18412   1.755  33.959  13.369
45988W        W18413  10.268  29.539   2.363
45989W        W18414  42.505  41.396   0.754
45990W        W18415  34.950  26.079   1.804
45991W        W18416  14.132  12.852   1.894
45992W        W18417  34.493  15.088  14.286
45993W        W18418  17.194  12.312  11.374
45994W        W18419  26.106  33.508  10.024
45995W        W18420  36.512  32.905  14.906
45996W        W18421   3.335  31.951  14.420
45997W        W18422  39.516  32.073  13.818
45998W        W18423  34.606  28.522   4.665
45999W        W18424  42.314  18.257  13.501
46000W        W18425  25.962   3.286   1.877
46001W        W18426  10.727  44.469   4.129
46002W        W18427   2.874  16.787  10.595
46003W        W18428  25.048  28.642  13.331
46004W        W18429  34.032  29.156   0.949
46005W        W18430   8.318  26.698  10.425
46006W        W18431  21.068  23.193   3.350
46007W        W18432  23.608  11.674   0.769
46008W        W18433  15.717   3.850   0.331
46009W        W18434   9.645  20.767   1.380
46010W        W18435  18.652   2.790  13.546
46011W        W18436  36.932  17.679   3.684
46012W        W18437   0.389  10.683   3.772
46013W        W18438  26.619  27.557  12.084
46014W        W18439  30.004  10.168  12.377
46015W        W18440  43.942   4.738   0.857
46016W        W18441  37.337   6.225   4.169
46017W        W18442   4.829  15.129   2.316
46018W        W18443  42.935  19.753   1.714
46019W        W18444  29.089  21.082   1.299
46020W        W18445  12.127   3.730   1.925
46021W        W18446  32.985  10.847  12.547
46022W        W18447   7.671   9.748   2.289
46023W        W18448  12.308   9.847  10.505
46024W        W18449  20.633   5.688   3.249
46025W        W18450  28.180  14.711   1.890
46026W        W18451  42.807  29.982  10.540
46027W        W18452  44.349  24.204   1.856
46028W        W18453  13.761  37.431  14.784
46029W        W18454  13.638  20.136   4.307
46030W        W18455  25.065  30.089   0.253
46031W        W18456   2.745  18.088   0.920
46032W        W18457  22.187  17.173  14.361
46033W        W18458  32.483  13.244  13.941
46034W        W18459  28.064  23.594  11.112
46035W        W18460  22.019  10.862   5.177
46036W        W18461  28.647  33.907   1.239
46037W        W18462  35.016  22.145  14.949
46038W        W18463  35.454  36.446   0.478
46039W        W18464  20.584  17.071  11.029
46040W        W18465   4.434  10.673   0.291
46041W        W18466  22.251  10.315   2.875
46042W        W18467  29.157  27.494   0.338
46043W        W18468  21.101  34.404  11.396
46044W        W18469  32.026   3.352  13.379
46045W        W18470  37.986  23.072  11.049
46046W        W18471   2.368  33.493  14.963
46047W        W18472  33.536   8.264  13.847
46048W        W18473  30.954  30.534  12.510
46049W        W18474  44.910   4.899  11.859
46050W        W18475  43.463  36.929  12.981
46051W        W18476  37.457   2.909   2.282
46052W        W18477  24.642   5.399   4.702
46053W        W18478  43.457  36.055  14.019
46054W        W18479  16.094   7.778  13.357
46055W        W18480   0.893  35.570   1.376
46056W        W18481   6.398  16.606   4.117
46057W        W18482   7.245  14.718   0.351
46058W        W18483  24.671  14.110  12.053
46059W        W18484  30.413   4.739  11.482
46060W        W18485  33.548  42.933   3.704
46061W        W18486  17.263  37.066   1.728
46062W        W18487  32.541  22.146   1.268
46063W        W18488  40.894  18.586   2.374
46064W        W18489  13.690  29.090   2.318
46065W        W18490   2.272  35.858  10.509
46066W        W18491   7.272   2.328  11.968
46067W        W18492  20.108  16.661  13.399
46068W        W18493  16.680  12.296   1.376
46069W        W18494  17.591   4.867   3.707
46070W        W18495  13.769  23.130   3.695
46071W        W18496   4.921  32.919   1.733
46072W        W18497  29.105  15.654  14.909
46073W        W18498  27.620  21.154  12.459
46074W        W18499  11.250  36.899   0.365
46075W        W18500  37.030  41.846  12.090
46076W        W18501   7.401  21.686   3.153
46077W        W18502  35.412  42.320  13.938
46078W        W18503  13.790  22.015   1.811
46079W        W18504  24.487   8.190  10.408
46080W        W18505  29.140  24.579  14.480
46081W        W18506  40.969  39.395  13.980
46082W        W18507  37.970  43.313   1.303
46083W        W18508  39.810  18.685  10.978
46084W        W18509  33.441  27.094   0.484
46085W        W18510  10.663  19.572   1.375
46086W        W18511   9.668   5.277  12.866
46087W        W18512  20.689  41.480  11.024
46088W        W18513  36.952  30.567  13.864
46089W        W18514  23.036  20.028   2.274
46090W        W18515  34.108  35.369  12.579
46091W        W18516  13.603   5.322   4.824
46092W        W18517  13.308  28.438   2.306
46093W        W18518  34.963  10.705   2.404
46094W        W18519   5.268  15.296   0.785
46095W        W18520  31.542  15.667   5.237
46096W        W18521  43.459  14.824   4.741
46097W        W18522  18.569   1.853  11.443
46098W        W18523  44.464   1.295  14.827
46099W        W18524  10.289  20.057   2.709
46100W        W18525  28.182   3.325   2.708
46101W        W18526   0.892   9.309   2.783
46102W        W18527  18.636  28.986   1.302
46103W        W18528  29.558  37.971  12.535
46104W        W18529  28.654  30.049  12.378
46105W        W18530  21.118  23.232   0.821
46106W        W18531  16.587  10.345  10.601
46107W        W18532  28.096  41.805   3.707
46108W        W18533  38.034  15.762  10.069
46109W        W18534  33.439  11.700   3.201
46110W        W18535  17.207  23.124   3.247
46111W        W18536   3.939  33.080  10.953
46112W        W18537  24.536  25.701  14.378
46113W        W18538   7.298  12.270  14.297
46114W        W18539  33.576  41.442  11.579
46115W        W18540  18.639  22.600  12.006
46116W        W18541   3.804   2.321  11.023
46117W        W18542  13.786  42.913  14.955
46118W        W18543   0.971  38.027  14.030
46119W        W18544   6.898   8.191   1.210
46120W        W18545  32.963  31.930   2.841
46121W        W18546  14.119  40.357  13.934
46122W        W18547  40.866   2.778  12.538
46123W        W18548  14.707  19.149   1.909
46124W        W18549  17.737   7.854  14.353
46125W        W18550  22.538  29.984   4.352
46126W        W18551  17.180  16.108   0.263
46127W        W18552  30.083  12.198  12.565
46128W        W18553  11.728  29.442   2.753
46129W        W18554  39.413  27.955  14.890
46130W        W18555  28.060  29.926   0.883
46131W        W18556  37.354  37.926   1.226
46132W        W18557  32.635  33.039   3.791
46133W        W18558  39.876  27.023  13.816
46134W        W18559  30.520  22.529  12.362
46135W        W18560   3.918  11.796   1.735
46136W        W18561  39.907  37.384   3.369
46137W        W18562  19.242  12.322   4.640
46138W        W18563   8.376  42.815  11.093
46139W        W18564  10.727  30.052   2.377
46140W        W18565  42.379  18.078   2.197
46141W        W18566  36.413  35.016  10.622
46142W        W18567  38.420   8.757  10.587
46143W        W18568  27.622  31.542  13.326
46144W        W18569  16.185   5.770  13.375
46145W        W18570  43.787  40.420   0.746
46146W        W18571  13.319  41.826   0.769
46147W        W18572   5.738  18.278   2.740
46148W        W18573   5.775  43.346  14.972
46149W        W18574  16.161   9.257   3.294
46150W        W18575  14.748  36.943  13.421
46151W        W18576   6.895  42.784   2.237
46152W        W18577  22.738  42.962  14.457
46153W        W18578  37.858  22.735  12.035
46154W        W18579  39.985  21.177  10.889
46155W        W18580  40.877  14.595  13.866
46156W        W18581  22.150  41.899   1.258
46157W        W18582  18.595  41.862   2.843
46158W        W18583  41.827   3.930  12.534
46159W        W18584  43.422  33.480   4.676
46160W        W18585  20.659  25.522  10.491
46161W        W18586  15.284  36.987   2.744
46162W        W18587  26.119  21.258  12.389
46163W        W18588  33.942  32.131   0.739
46164W        W18589  31.994  30.106  14.786
46165W        W18590  19.727  30.953   0.950
46166W        W18591  41.832  40.458  14.930
46167W        W18592  36.475  37.037  13.410
46168W        W18593  24.215  30.647   4.329
46169W        W18594  35.886  36.548   0.248
46170W        W18595  11.696  20.571  10.564
46171W        W18596  10.721  28.011  11.500
46172W        W18597   7.386  21.115   0.351
46173W        W18598  42.859  41.792   5.110
46174W        W18599  30.024  20.612   5.612
46175W        W18600   1.319  13.289   4.219
46176W        W18601  35.946  43.971   4.790
46177W        W18602  18.294  26.633   3.359
46178W        W18603  23.235  23.607  10.958
46179W        W18604  36.957   3.412  12.069
46180W        W18605  36.424  39.835  13.050
46181W        W18606   8.227  32.135   1.922
46182W        W18607  32.053  29.602   1.780
46183W        W18608   2.964  44.495   1.707
46184W        W18609   0.786   0.948  12.846
46185W        W18610  25.083  25.678   2.234
46186W        W18611  36.953  42.518  13.314
46187W        W18612  18.591  24.988   1.349
46188W        W18613  41.307  31.918   1.334
46189W        W18614  27.514  11.765   2.264
46190W        W18615   9.880  39.943  12.521
46191W        W18616  24.122  31.063   9.931
46192W        W18617  28.488  16.198  13.944
46193W        W18618  40.908  43.480  13.448
46194W        W18619   4.699  29.445   3.168
46195W        W18620  20.539  37.018   3.664
46196W        W18621  32.102  36.540   0.381
46197W        W18622  24.711  44.283  14.458
46198W        W18623   8.344  27.990  11.942
46199W        W18624  14.310   6.322   3.849
46200W        W18625  23.580   3.824  11.584
46201W        W18626  38.844  14.335  12.504
46202W        W18627  32.447  26.117  14.988
46203W        W18628  22.187  12.730  14.286
46204W        W18629  39.464  13.182   0.798
46205W        W18630  37.989  36.404  12.379
46206W        W18631  10.174  30.553  12.528
46207W        W18632  37.577  31.646   3.667
46208W        W18633  22.598   0.293   2.891
46209W        W18634  28.107  13.227  11.007
46210W        W18635  38.049  19.226   0.268
46211W        W18636  18.740  28.489  12.371
46212W        W18637  17.783   7.802   2.324
46213W        W18638  25.656  39.013  11.000
46214W        W18639   0.296  15.222   4.643
46215W        W18640  23.719  26.095   0.331
46216W        W18641  44.793  35.102   4.310
46217W        W18642   1.254  21.627   4.310
46218W        W18643   7.384  15.772   0.329
46219W        W18644   9.176  35.077  10.546
46220W        W18645   1.430   9.767   1.283
46221W        W18646  12.636   2.880  14.847
46222W        W18647  26.065  12.172   1.787
46223W        W18648  16.302  27.077   2.827
46224W        W18649   6.843  23.130   1.221
46225W        W18650  28.151  22.019   0.787
46226W        W18651   2.346  33.881  13.817
46227W        W18652  43.491  44.458  10.993
46228W        W18653  16.690  27.004   0.811
46229W        W18654  37.027  42.368   3.325
46230W        W18655  15.798   0.925   4.297
46231W        W18656   9.766   1.409  14.914
46232W        W18657  15.185  31.592   0.255
46233W        W18658  30.503  41.800  10.490
46234W        W18659  10.709  10.867  12.407
46235W        W18660  37.913  34.034   1.420
46236W        W18661  17.637  40.501   4.665
46237W        W18662   7.362  36.913   4.289
46238W        W18663  32.051  17.625   4.214
46239W        W18664  33.927   2.904  10.929
46240W        W18665   8.303  30.036   1.923
46241W        W18666  25.599  17.217  13.319
46242W        W18667   7.195   0.475   0.749
46243W        W18668  31.034  26.120  14.502
46244W        W18669  30.067  24.544  14.964
46245W        W18670  22.627   9.779   3.780
46246W        W18671  29.076  17.722   0.884
46247W        W18672  26.691  19.744  10.891
46248W        W18673  23.640  34.954  13.544
46249W        W18674   3.749  33.465  14.367
46250W        W18675  30.589   5.852   4.623
46251W        W18676  24.008   9.887   1.811
46252W        W18677  26.586   2.429  10.471
46253W        W18678  15.151  29.564   1.794
46254W        W18679  30.468  27.148   1.370
46255W        W18680  23.627  16.583  10.411
46256W        W18681  32.479  27.979   3.800
46257W        W18682  19.672  23.188  13.446
46258W        W18683  34.076   7.208  11.384
46259W        W18684  34.537  24.155  11.444
46260W        W18685   6.865  16.158  13.458
46261W        W18686  44.766  27.600   0.817
46262W        W18687  41.420  19.551   5.312
46263W        W18688  32.960  26.504  10.136
46264W        W18689   4.845  19.564  14.864
46265W        W18690  17.585  17.799  11.392
46266W        W18691  29.436  23.141  10.049
46267W        W18692  39.823  33.600  11.510
46268W        W18693  41.962  19.766   2.738
46269W        W18694  12.279  20.607   1.929
46270W        W18695  41.855  18.642  13.462
46271W        W18696  44.355  34.430  12.902
46272W        W18697   6.869  42.802   3.786
46273W        W18698   2.421  36.002  11.993
46274W        W18699  37.899  32.459  12.376
46275W        W18700  26.955   1.833  11.062
46276W        W18701  32.093  33.079  14.770
46277W        W18702  25.631  16.234  12.415
46278W        W18703  21.261  14.125  13.940
46279W        W18704  12.285  26.573  11.114
46280W        W18705  11.702  12.696   1.695
46281W        W18706  32.055  32.992   3.351
46282W        W18707  31.990  30.487  12.399
46283W        W18708   3.442  44.964   0.825
46284W        W18709  26.995  21.039  14.890
46285W        W18710  16.764   4.306  14.893
46286W        W18711  44.868   4.424  11.959
46287W        W18712  13.211  15.092   0.799
46288W        W18713   6.214   5.289  13.975
46289W        W18714  22.576  21.036  14.460
46290W        W18715  13.279  33.992  12.990
46291W        W18716  15.654  41.802   4.763
46292W        W18717  14.708  18.544  12.920
46293W        W18718  31.139  29.150   3.829
46294W        W18719   3.358  39.820   1.343
46295W        W18720  35.869  21.712   2.216
46296W        W18721  24.499  41.827   4.225
46297W        W18722  27.661   9.848  12.895
46298W        W18723  11.709  42.410   2.765
46299W        W18724   9.392  40.461  14.378
46300W        W18725   8.853  31.427  13.444
46301W        W18726   0.453  19.639  13.054
46302W        W18727  10.268   0.275   4.651
46303W        W18728   4.893  38.005  12.065
46304W        W18729  11.773  41.969  13.912
46305W        W18730  43.006  33.588  14.349
46306W        W18731  20.590  32.936   4.224
46307W        W18732  22.169   2.819  10.953
46308W        W18733  30.601  19.195  14.890
46309W        W18734  39.060  16.302  14.400
46310W        W18735  44.479  16.595  10.913
46311W        W18736  22.184  19.079  11.887
46312W        W18737   2.812   4.344  14.830
46313W        W18738   0.943  32.991   3.726
46314W        W18739  19.171  23.599   3.233
46315W        W18740  16.249  22.571  10.920
46316W        W18741  16.171  29.433  12.403
46317W        W18742  16.258  36.480  13.342
46318W        W18743  22.093   0.982   4.275
46319W        W18744  12.258  11.685   0.830
46320W        W18745  23.646  14.165  11.047
46321W        W18746  41.458  28.070  10.457
46322W        W18747  44.279  27.576   0.771
46323W        W18748  19.108  30.079   1.853
46324W        W18749  29.444  15.229   4.789
46325W        W18750  25.624  42.497   3.839
46326W        W18751  12.200  32.399   0.279
46327W        W18752   9.224  35.489   0.324
46328W        W18753  23.115   4.431   4.819
46329W        W18754  21.054  44.354  11.544
46330W        W18755  18.165   9.681   2.187
46331W        W18756  32.922   2.855  13.880
46332W        W18757  25.992  10.235  12.467
46333W        W18758  26.660  16.158  12.458
46334W        W18759  22.513   6.688   1.447
46335W        W18760  13.795  26.620   3.188
46336W        W18761  35.490  38.925  12.038
46337W        W18762   0.955  38.956  13.475
46338W        W18763  12.655  21.514   2.351
46339W        W18764   6.389  34.615  14.760
46340W        W18765   2.908  14.820   4.701
46341W        W18766   7.691  11.767  14.869
46342W        W18767   9.307  26.612   4.248
46343W        W18768   8.760   8.832  11.871
46344W        W18769   3.842  10.150   4.670
46345W        W18770  11.154   3.867  13.977
46346W        W18771  34.905  34.501  12.973
46347W        W18772   6.264  20.099  13.402
46348W        W18773   0.462   2.413  12.545
46349W        W18774  33.600  18.704  10.607
46350W        W18775  35.904  31.062  11.894
46351W        W18776  19.125  18.605  11.039
46352W        W18777  36.388  35.872  11.082
46353W        W18778  30.637  38.017   2.230
46354W        W18779  40.449   0.798  12.062
46355W        W18780  16.258  12.157  10.568
46356W        W18781   3.262  38.413   0.787
46357W        W18782  36.385  19.568  10.149
46358W        W18783  36.852  42.939  14.915
46359W        W18784  44.939  18.630   0.348
46360W        W18785  38.536  15.279   1.768
46361W        W18786  20.668  15.172  10.435
46362W        W18787   9.685  30.549  10.933
46363W        W18788  39.845  29.965  12.892
46364W        W18789  38.845  10.188   3.207
46365W        W18790  10.372   4.262  13.546
46366W        W18791   6.367  36.076  10.067
46367W        W18792   1.748  28.109   1.362
46368W        W18793  41.867  41.797   0.383
46369W        W18794   8.246  37.888  10.907
46370W        W18795   0.258  15.295   0.434
46371W        W18796  31.950   9.722  13.513
46372W        W18797   5.223  33.554  13.450
46373W        W18798   4.751  38.997  14.832
46374W        W18799  36.593  16.587  13.021
46375W        W18800   9.288  16.737  11.978
46376W        W18801  30.980  11.677   1.366
46377W        W18802  26.685  29.547  13.050
46378W        W18803  31.014  44.814   0.299
46379W        W18804  39.940  29.462   0.893
46380W        W18805  30.162  42.474   0.929
46381W        W18806  14.615  21.189  13.005
46382W        W18807   6.262  18.740   4.132
46383W        W18808  11.766  43.956  13.373
46384W        W18809  28.936  13.802   2.828
46385W        W18810  42.349  41.445   2.700
46386W        W18811  42.437  14.589   4.349
46387W        W18812   7.410   4.805   4.802
46388W        W18813  42.392  19.742   9.488
46389W        W18814  30.627  36.347   3.730
46390W        W18815   1.858  43.780  10.595
46391W        W18816  29.650  14.183  11.962
46392W        W18817  44.856  36.499   2.262
46393W        W18818  25.505  19.152   4.836
46394W        W18819  42.459   0.955  14.821
46395W        W18820  22.148   1.747   0.437
46396W        W18821  20.227  18.633   0.254
46397W        W18822  10.853  43.861   0.811
46398W        W18823  40.319   7.225  14.842
46399W        W18824   3.413  43.387  10.566
46400W        W18825   6.285  43.331   2.727
46401W        W18826   8.268  24.611   2.846
46402W        W18827  41.934  38.505   0.729
46403W        W18828  36.431   2.309  10.962
46404W        W18829  34.493  21.517   2.773
46405W        W18830  43.369  42.919   4.328
46406W        W18831  21.608  20.078  10.452
46407W        W18832  42.957  28.179   0.414
46408W        W18833  15.640  15.310  14.999
46409W        W18834  30.658  39.009  10.496
46410W        W18835  17.707  43.469  11.413
46411W        W18836  29.927  20.162  14.814
46412W        W18837  11.632  33.032  12.004
46413W        W18838  13.157   6.816  14.439
46414W        W18839  26.160  40.047  12.405
46415W        W18840  37.893  37.936   1.840
46416W        W18841  34.606   1.751   4.258
46417W        W18842  13.240  40.537   2.311
46418W        W18843   9.206  40.456  12.538
46419W        W18844  11.317  36.561   1.354
46420W        W18845  17.280  42.018  14.803
46421W        W18846  33.539  31.537  13.904
46422W        W18847  42.886  35.991   0.276
46423W        W18848  42.785   7.191   3.811
46424W        W18849  17.787  24.190  13.811
46425W        W18850  17.307  36.087   3.272
46426W        W18851  38.047  36.483   2.278
46427W        W18852  17.281  37.368   2.375
46428W        W18853  24.003  23.064   0.889
46429W        W18854  21.209  25.546  12.841
46430W        W18855  14.601  29.151   1.829
46431W        W18856  29.610   3.870  12.835
46432W        W18857  28.492  36.399   2.841
46433W        W18858  37.535  17.771   2.668
46434W        W18859   8.246  32.395  12.371
46435W        W18860  38.888  44.962  12.827
46436W        W18861   0.404  16.159   1.741
46437W        W18862  24.688   0.850   3.743
46438W        W18863  23.119  19.713  12.363
46439W        W18864  34.525  43.772   4.832
46440W        W18865   2.965  25.561  12.967
46441W        W18866  13.196  20.142  13.834
46442W        W18867  35.578   8.880  13.967
46443W        W18868  33.579  28.968  13.504
46444W        W18869  27.502  39.821   0.317
46445W        W18870  41.396  40.958   4.781
46446W        W18871  25.517  28.564  10.564
46447W        W18872  36.913   7.727   4.324
46448W        W18873  17.292   4.383   3.241
46449W        W18874  13.248  39.872  12.879
46450W        W18875  29.439   0.378  10.910
46451W        W18876  32.997   0.457   0.470
46452W        W18877   3.726   9.743   3.347
46453W        W18878  21.047  43.275  13.413
46454W        W18879  23.237  26.021  12.983
46455W        W18880  21.566  30.493  10.977
46456W        W18881   3.413  39.397   1.810
46457W        W18882  24.983  29.507   4.750
46458W        W18883  33.403   6.771   0.447
46459W        W18884  14.798  24.070   2.400
46460W        W18885  15.259  31.455  11.013
46461W        W18886   5.874   6.812  12.490
46462W        W18887  36.587  40.867   1.745
46463W        W18888  23.554  38.506   1.248
46464W        W18889  42.823   7.321  14.835
46465W        W18890  34.018  10.674  10.973
46466W        W18891  31.941   3.398   4.289
46467W        W18892  30.513   3.904   0.356
46468W        W18893  17.091   3.872   4.730
46469W        W18894   4.421   9.709  11.421
46470W        W18895  28.040  16.269   2.360
46471W        W18896   5.400  43.021   5.266
46472W        W18897   2.255   3.748  14.761
46473W        W18898  12.837  11.633   4.342
46474W        W18899   9.864  19.223   3.249
46475W        W18900  18.745  44.377  10.942
46476W        W18901  35.553  38.333  12.507
46477W        W18902   1.377   8.883  11.987
46478W        W18903  25.690  16.284  14.503
46479W        W18904  30.502   0.424   4.672
46480W        W18905   5.221  10.158  14.483
46481W        W18906  32.952   4.396   0.479
46482W        W18907  14.787  35.050  13.989
46483W        W18908  14.783  33.467  14.433
46484W        W18909   4.852  44.890  13.052
46485W        W18910  16.273  34.937  14.948
46486W        W18911  34.451  23.552  14.020
46487W        W18912   2.322  18.719   0.874
46488W        W18913  43.945  40.484   2.385
46489W        W18914   5.288  33.433   3.170
46490W        W18915   9.283  38.939   1.445
46491W        W18916   2.356  37.897  14.280
46492W        W18917  20.044  38.535   0.324
46493W        W18918  31.438  40.957   2.336
46494W        W18919  14.302  42.988  14.023
46495W        W18920  15.309   2.851   1.332
46496W        W18921  44.756  43.836  12.513
46497W        W18922  18.050  10.365   1.898
46498W        W18923   0.267  12.641   4.238
46499W        W18924   2.309  19.275   3.159
46500W        W18925   3.756  11.162  11.423
46501W        W18926  19.160   9.321   4.807
46502W        W18927  14.296  38.408   0.851
46503W        W18928   6.857  39.546  11.112
46504W        W18929  15.299  35.541  11.979
46505W        W18930  40.952  24.496  11.090
46506W        W18931  42.878  38.445   3.305
46507W        W18932  14.683  35.496   1.235
46508W        W18933  36.466  18.154  10.925
46509W        W18934  26.611   5.371   1.309
46510W        W18935   1.919  33.886   3.852
46511W        W18936  38.415   1.937  11.065
46512W        W18937   5.349  29.153   0.426
46513W        W18938  24.618   7.264   4.144
46514W        W18939   0.918  19.235   1.866
46515W        W18940  39.973  21.662   1.909
46516W        W18941   2.309  23.532   1.262
46517W        W18942   9.700  16.302  12.375
46518W        W18943  13.262  37.037  10.574
46519W        W18944  17.684  28.044   1.395
46520W        W18945  37.575  33.033   2.203
46521W        W18946  18.178  27.152  14.874
46522W        W18947  12.786  36.370  10.441
46523W        W18948  19.118   8.390   1.239
46524W        W18949  16.115   5.314  12.434
46525W        W18950  16.759   2.317  12.418
46526W        W18951  13.153  27.086   1.715
46527W        W18952  20.133  24.135   2.764
46528W        W18953  24.108  44.911   1.737
46529W        W18954   3.780   9.657  12.085
46530W        W18955  28.153  38.990  10.923
46531W        W18956  10.755  24.541   4.759
46532W        W18957  28.047  39.531  12.476
46533W        W18958  31.984  29.951  10.575
46534W        W18959  42.835   5.889  10.568
46535W        W18960  10.206  18.736   3.715
46536W        W18961  29.519  21.165  12.368
46537W        W18962  18.092  38.401  13.873
46538W        W18963  38.442  27.047  13.489
46539W        W18964   2.799   6.182   1.400
46540W        W18965  39.848  11.840   4.803
46541W        W18966   7.729  40.495  12.047
46542W        W18967  15.323   4.428  13.532
46543W        W18968  33.103  42.844  11.605
46544W        W18969  44.307   3.944  14.489
46545W        W18970  38.993   8.348  11.913
46546W        W18971  27.478  34.118   4.828
46547W        W18972  13.756  18.241   4.727
46548W        W18973   6.287  10.283   1.834
46549W        W18974  16.667  36.022   3.761
46550W        W18975  42.000  12.173  13.971
46551W        W18976  23.100   9.238  13.381
46552W        W18977  21.227  38.849  14.786
46553W        W18978  22.064  13.216  12.575
46554W        W18979  14.653   3.349   0.869
46555W        W18980  26.041  31.074   4.157
46556W        W18981  44.005   0.746  11.909
46557W        W18982  23.698  24.601  10.577
46558W        W18983  27.061  11.223   4.677
46559W        W18984  37.485  32.067   1.907
46560W        W18985   6.356  28.087  14.961
46561W        W18986  10.170   5.872   3.258
46562W        W18987   4.919   0.889   4.184
46563W        W18988  24.101  15.218   4.354
46564W        W18989   6.874  13.805   1.850
46565W        W18990  20.626  19.260  10.992
46566W        W18991   9.729  11.643  14.785
46567W        W18992  27.625  37.511  13.906
46568W        W18993  44.479   5.904  13.935
46569W        W18994  33.522  18.617   4.243
46570W        W18995  33.114  25.700  14.365
46571W        W18996   6.747  39.873   3.184
46572W        W18997  32.613  35.497  11.038
46573W        W18998   8.806  44.757  11.928
46574W        W18999  10.872  29.504  14.986
46575W        W19000   5.835  19.052   0.779
46576W        W19001  31.646  34.610  13.060
46577W        W19002  42.429  22.602   1.788
46578W        W19003   8.328   1.402   0.735
46579W        W19004   5.711  18.088  13.015
46580W        W19005  25.000  30.130   9.470
46581W        W19006  11.298  32.037  13.944
46582W        W19007  20.226   3.354  14.026
46583W        W19008   0.487   8.391  12.857
46584W        W19009  37.511  20.114  11.599
46585W        W19010  41.418  22.998   1.796
46586W        W19011  12.714  43.378   4.307
46587W        W19012  41.845  22.601   0.483
46588W        W19013   2.902  16.597   0.286
46589W        W19014  38.332   5.871  11.481
46590W        W19015  17.655  36.457  11.404
46591W        W19016  11.827  26.988  12.488
46592W        W19017   3.337  35.426   0.854
46593W        W19018  37.021  17.141  11.084
46594W        W19019  42.863  18.060   4.712
46595W        W19020  40.541  23.693   4.667
46596W        W19021  28.130  37.454  14.025
46597W        W19022  17.711  30.614   2.179
46598W        W19023  35.877   4.893   2.262
46599W        W19024  19.650  15.672   1.371
46600W        W19025  39.977  36.585   1.740
46601W        W19026  33.446  14.623  10.997
46602W        W19027  41.868  20.631  14.976
46603W        W19028   2.788  35.449  10.942
46604W        W19029  33.038  44.272  13.370
46605W        W19030  28.142  25.589  14.969
46606W        W19031  12.315   0.821  11.394
46607W        W19032   7.797  26.566   4.807
46608W        W19033   3.381  10.719   2.256
46609W        W19034  31.920  33.901  14.318
46610W        W19035  15.135   9.168   3.760
46611W        W19036   1.967  26.571  11.094
46612W        W19037  36.887  15.704  10.487
46613W        W19038  16.187  37.872   2.401
46614W        W19039  41.517  38.069  14.031
46615W        W19040  24.540  44.282  10.486
46616W        W19041  41.305  13.324   2.762
46617W        W19042  14.267  35.596   2.311
46618W        W19043  37.068  12.142  13.418
46619W        W19044  40.307  11.348  13.353
46620W        W19045   1.338  14.732   4.158
46621W        W19046  38.347  39.485   0.749
46622W        W19047  34.060  17.290  14.998
46623W        W19048  26.673  13.756  13.346
46624W        W19049  18.632  28.165   0.925
46625W        W19050  24.002   8.388  12.087
46626W        W19051  13.669  23.999   5.199
46627W        W19052  36.386  32.073  13.010
46628W        W19053  37.839  32.995  13.873
46629W        W19054   3.460  40.358   2.849
46630W        W19055  13.204  38.036  10.914
46631W        W19056  44.451  43.865  10.465
46632W        W19057  30.952  32.917  10.407
46633W        W19058  16.796  24.663  11.454
46634W        W19059  12.263  31.567  13.858
46635W        W19060   9.346  20.270   1.262
46636W        W19061  26.511  26.150   4.615
46637W        W19062   7.864  18.784  11.551
46638W        W19063   4.746  35.017  13.929
46639W        W19064   6.373   6.811  13.375
46640W        W19065   3.755  26.968  10.615
46641W        W19066  14.221  23.508   5.196
46642W        W19067  12.781  20.169  10.981
46643W        W19068  11.227  25.673  14.006
46644W        W19069   8.730  32.414  12.487
46645W        W19070   7.675  24.024  11.855
46646W        W19071  21.082   2.395   0.309
46647W        W19072   9.772  14.816  10.944
46648W        W19073  32.624   9.874  11.412
46649W        W19074  40.003  15.626   1.356
46650W        W19075  38.882  35.366  14.476
46651W        W19076   7.687   5.391   3.721
46652W        W19077  19.665  13.651  12.510
46653W        W19078  42.494  29.538   3.766
46654W        W19079  26.468  29.644   4.784
46655W        W19080  40.496  11.692  12.374
46656W        W19081   9.650  37.064  14.451
46657W        W19082  31.515  34.400  10.463
46658W        W19083   9.743  43.929  13.335
46659W        W19084  12.262   0.401   1.401
46660W        W19085  17.280  32.983  14.002
46661W        W19086   3.839  23.561  13.339
46662W        W19087   4.286   8.872  11.412
46663W        W19088  43.841  15.234   4.789
46664W        W19089  12.210  29.439   4.726
46665W        W19090  38.072  15.729   1.802
46666W        W19091  39.037  43.896  11.983
46667W        W19092  30.106  35.101  14.785
46668W        W19093   4.921  39.874   1.874
46669W        W19094  23.120  22.107  14.415
46670W        W19095  11.262  28.547   3.655
46671W        W19096  30.976  35.524  13.537
46672W        W19097  29.471   4.740  11.520
46673W        W19098  20.255   6.741  13.815
46674W        W19099   6.722  18.283  12.855
46675W        W19100  10.765  20.249   1.326
46676W        W19101  17.083  34.413   3.279
46677W        W19102  19.572  33.402   1.231
46678W        W19103  30.083  29.987   0.872
46679W        W19104  37.890   8.767   2.821
46680W        W19105  18.627  35.037  14.459
46681W        W19106   8.697  24.719   3.377
46682W        W19107  19.582   8.817  14.927
46683W        W19108   8.851  44.972  12.442
46684W        W19109  23.564  11.746  14.917
46685W        W19110   2.777  25.158   2.756
46686W        W19111  42.500  23.011  14.804
46687W        W19112  21.047  12.131   0.959
46688W        W19113  38.571   0.948  14.819
46689W        W19114  34.526  42.799   3.345
46690W        W19115  17.092  31.081  10.467
46691W        W19116  41.440  21.180  13.406
46692W        W19117   8.889  38.819   2.791
46693W        W19118  11.733   3.409  12.833
46694W        W19119  30.157  23.638  12.923
46695W        W19120  18.280  31.994   4.667
46696W        W19121  13.211  35.085  13.015
46697W        W19122  16.688  16.271  10.988
46698W        W19123  34.047   1.453   0.345
46699W        W19124  18.736  26.041   2.828
46700W        W19125  15.593   7.759  12.497
46701W        W19126  16.257  27.548  12.516
46702W        W19127   6.191  21.249  12.032
46703W        W19128  24.067  34.450   2.681
46704W        W19129  18.608  18.281   3.190
46705W        W19130   9.719  27.593   3.689
46706W        W19131  41.359   6.424  12.013
46707W        W19132  13.779   3.299   4.199
46708W        W19133   5.917   8.667   0.473
46709W        W19134   6.908   0.425   3.237
46710W        W19135   7.219  14.262  12.353
46711W        W19136  23.055  24.061   1.344
46712W        W19137  31.639   7.268  11.886
46713W        W19138  16.781  13.167   3.268
46714W        W19139  35.485  12.136   2.342
46715W        W19140  28.152  37.053   3.800
46716W        W19141  39.549  25.704   4.311
46717W        W19142  10.700  37.543   5.089
46718W        W19143  10.732  22.068   0.740
46719W        W19144   2.346   1.320   4.725
46720W        W19145   9.888  27.602   1.722
46721W        W19146  14.615   0.807   0.274
46722W        W19147  31.551  26.036  11.036
46723W        W19148  25.999  12.719   3.844
46724W        W19149  37.941  23.499  14.303
46725W        W19150  25.704  13.148  11.537
46726W        W19151   9.150  15.667  11.488
46727W        W19152  34.457  30.009  12.027
46728W        W19153  34.936  43.515   0.309
46729W        W19154  39.981  38.496   2.707
46730W        W19155  10.307  10.689   0.452
46731W        W19156  31.154  17.742  14.842
46732W        W19157   6.377  13.176   4.300
46733W        W19158  40.819   6.217   0.286
46734W        W19159  10.330  13.655   0.805
46735W        W19160   0.274   9.677  13.385
46736W        W19161  33.041  34.083   3.819
46737W        W19162  38.542  24.656  14.985
46738W        W19163   4.774  12.129   4.144
46739W        W19164  26.086  23.671   0.837
46740W        W19165   8.656  10.296   0.412
46741W        W19166  37.479  29.964   0.847
46742W        W19167   8.831  43.485   0.467
46743W        W19168  11.800  24.582   2.737
46744W        W19169  22.120   7.863  10.588
46745W        W19170  42.931  25.544  12.095
46746W        W19171  33.949  39.448  10.463
46747W        W19172  33.431  41.375  10.508
46748W        W19173   2.328  26.629  13.539
46749W        W19174   3.269  26.985   3.715
46750W        W19175   7.235  37.466  10.976
46751W        W19176   5.718  25.531   1.782
46752W        W19177  38.538   6.249   3.290
46753W        W19178   1.361  33.032  14.930
46754W        W19179  42.286  18.139  10.535
46755W        W19180  44.007  10.360  11.505
46756W        W19181  19.113  28.496   4.661
46757W        W19182  41.402  43.489  13.368
46758W        W19183  28.501  34.871  12.576
46759W        W19184  23.173  41.352  13.982
46760W        W19185  34.907  12.809  14.838
46761W        W19186  20.563  29.555  13.541
46762W        W19187  26.967   8.700   0.807
46763W        W19188   5.256  15.097   2.820
46764W        W19189  29.582   6.272   1.702
46765W        W19190  34.875  27.969  12.439
46766W        W19191  17.623  22.203   0.856
46767W        W19192  28.491  19.244  14.855
46768W        W19193  11.273  38.530  12.426
46769W        W19194  24.215   2.358   0.427
46770W        W19195  10.838  21.166  12.877
46771W        W19196  29.961  29.534  13.417
46772W        W19197  42.509  30.121   2.230
46773W        W19198  29.109  35.428  14.031
46774W        W19199  32.482  24.683  13.371
46775W        W19200  41.449  40.502   0.944
46776W        W19201   6.808   9.360   3.348
46777W        W19202   7.297   4.263   1.891
46778W        W19203  22.112  29.622   3.157
46779W        W19204  11.156  36.365  10.936
46780W        W19205  39.910  12.282   4.741
46781W        W19206  33.487  34.433   0.377
46782W        W19207   2.783   4.784  12.521
46783W        W19208  28.591  11.230   3.724
46784W        W19209  27.050  25.556   4.729
46785W        W19210  36.411  36.857   2.371
46786W        W19211  28.625  30.029   1.935
46787W        W19212  25.492  36.909   4.126
46788W        W19213  15.773  14.303  14.987
46789W        W19214  35.893  19.719   4.343
46790W        W19215  39.427  18.683   0.937
46791W        W19216   9.158  40.419  13.795
46792W        W19217  39.008  17.647  14.807
46793W        W19218  20.211  12.353  14.382
46794W        W19219  18.093   6.801   2.849
46795W        W19220  29.630  20.081   3.374
46796W        W19221   4.224  20.590  13.315
46797W        W19222  18.720  12.309   2.377
46798W        W19223  19.123  25.513  13.365
46799W        W19224  30.422   5.381  13.955
46800W        W19225   1.932   1.309   4.778
46801W        W19226  39.346  18.642  10.539
46802W        W19227  36.906   0.379  13.508
46803W        W19228  38.417  18.713  11.974
46804W        W19229  40.537   4.933  11.501
46805W        W19230   3.879  29.948   3.846
46806W        W19231  28.626   3.775  12.994
46807W        W19232   4.228  22.074   3.231
46808W        W19233  23.085  44.427  13.897
46809W        W19234  20.055  23.692  14.977
46810W        W19235  16.159  19.745  14.442
46811W        W19236  43.451   2.464  10.991
46812W        W19237  38.518  38.885   4.826
46813W        W19238  14.238  29.960   2.805
46814W        W19239  30.115  20.656  10.526
46815W        W19240  32.467  12.793   3.732
46816W        W19241  43.941  36.514  10.561
46817W        W19242   9.671   5.415   1.825
46818W        W19243   1.305  23.234   3.345
46819W        W19244  30.491  11.228   2.296
46820W        W19245  13.244  33.912  12.529
46821W        W19246  25.158  38.502  11.958
46822W        W19247  19.133  21.219  12.015
46823W        W19248  23.165  26.117   4.269
46824W        W19249  36.929  20.538  14.911
46825W        W19250   1.925  19.156   2.794
46826W        W19251   5.237  37.041   2.417
46827W        W19252  15.796  21.211   0.469
46828W        W19253  11.280  25.508  11.994
46829W        W19254  28.014  42.308  13.014
46830W        W19255  44.920  35.600   1.892
46831W        W19256   2.368   3.822   3.863
46832W        W19257   0.868  38.042  14.356
46833W        W19258   6.190  22.548   3.736
46834W        W19259  31.028  37.873  12.342
46835W        W19260  21.545  33.890  13.534
46836W        W19261  16.718  18.600   2.239
46837W        W19262  44.314  28.027   1.703
46838W        W19263   9.280  35.003   1.393
46839W        W19264  32.473  19.249  11.596
46840W        W19265  12.702  40.811  12.036
46841W        W19266   5.805  23.060  13.884
46842W        W19267  13.795  21.746  11.397
46843W        W19268  28.579  42.496  12.918
46844W        W19269  29.957  10.282   2.857
46845W        W19270  33.501  33.582  10.141
46846W        W19271  12.645  44.266  11.397
46847W        W19272   6.871  25.971  12.853
46848W        W19273  30.003  42.402   4.756
46849W        W19274  25.655  44.953  13.443
46850W        W19275  24.197  29.149  10.921
46851W        W19276  25.545  25.985   0.386
46852W        W19277  33.453   7.758  13.913
46853W        W19278   6.258  35.430  10.614
46854W        W19279   9.214  28.519  13.866
46855W        W19280  44.967  15.712  12.367
46856W        W19281  24.682  25.687   0.899
46857W        W19282  33.984  31.544   3.162
46858W        W19283   2.376  15.633   0.894
46859W        W19284  22.121  14.199   1.370
46860W        W19285   8.342   4.743  10.640
46861W        W19286  29.114  35.418   3.154
46862W        W19287  25.536  10.252   1.424
46863W        W19288  17.269   2.931  14.890
46864W        W19289  33.877  13.123  14.999
46865W        W19290  24.049  20.239   2.332
46866W        W19291  32.597  22.044  11.576
46867W        W19292  12.776  12.731  13.923
46868W        W19293  21.101  40.819  12.491
46869W        W19294   0.845  12.178   4.345
46870W        W19295  32.555  18.724   3.324
46871W        W19296  29.968   4.925  12.043
46872W        W19297  24.032   8.358   0.941
46873W        W19298  35.412  15.810   1.294
46874W        W19299  27.631  24.496  10.526
46875W        W19300  41.319  26.678  11.021
46876W        W19301  18.753  44.374  13.321
46877W        W19302   2.951  36.973  14.814
46878W        W19303  40.383   0.903   0.939
46879W        W19304  44.488   0.470   4.762
46880W        W19305   0.983   8.360  12.954
46881W        W19306  16.172  19.246   3.797
46882W        W19307  19.733  28.485  10.961
46883W        W19308  36.351  29.586  13.459
46884W        W19309  10.708  37.559   2.831
46885W        W19310  43.458  29.514   4.729
46886W        W19311   8.317   5.815  12.921
46887W        W19312  23.529   8.349   4.268
46888W        W19313  37.054  35.370  12.826
46889W        W19314  34.493  28.585  11.580
46890W        W19315  35.370  31.547   2.783
46891W        W19316  22.528  15.107   0.440
46892W        W19317  41.468  25.542  11.905
46893W        W19318  13.250   5.226  12.935
46894W        W19319  32.459  12.680  12.464
46895W        W19320  31.922  18.687  14.855
46896W        W19321   3.863  28.156  11.517
46897W        W19322  37.903   5.334   2.351
46898W        W19323  37.921  21.050   4.331
46899W        W19324  16.790  28.496  10.571
46900W        W19325  14.097  44.293   1.370
46901W        W19326  41.454  43.010   2.887
46902W        W19327  18.108  24.166   1.224
46903W        W19328  41.315  14.790   1.799
46904W        W19329  29.605  20.726  11.042
46905W        W19330  18.061  40.027  13.015
46906W        W19331  14.669  36.430  11.384
46907W        W19332  32.562  14.164  14.933
46908W        W19333  27.975  21.151  12.856
46909W        W19334   0.945   2.374   1.409
46910W        W19335  10.829  26.970  12.046
46911W        W19336  43.900  42.390  11.504
46912W        W19337   6.388  30.048  12.903
46913W        W19338  31.547  36.510   1.859
46914W        W19339  14.631  19.616   4.314
46915W        W19340   9.808  34.529  10.536
46916W        W19341  41.979   0.756  14.987
46917W        W19342   0.874   8.797   4.699
46918W        W19343  10.283  31.064   2.725
46919W        W19344  19.590  36.054   2.206
46920W        W19345  27.670  21.749  11.914
46921W        W19346  22.606  44.888  10.629
46922W        W19347  33.119  16.098  10.629
46923W        W19348  30.044  38.959   4.772
46924W        W19349  42.855   1.423   3.638
46925W        W19350  18.112  25.127   1.336
46926W        W19351  10.376  15.578  13.367
46927W        W19352  36.508   7.852  12.913
46928W        W19353  13.692  41.969   1.761
46929W        W19354  38.965  11.189   3.253
46930W        W19355   2.386  34.979   4.320
46931W        W19356  44.451  25.132  14.289
46932W        W19357  30.126  21.146   1.802
46933W        W19358  13.269   7.237   1.702
46934W        W19359   9.702  16.661   3.317
46935W        W19360  27.584   9.163   3.711
46936W        W19361  22.033   3.758   1.694
46937W        W19362   7.706  24.547  11.374
46938W        W19363  41.400  32.907  14.932
46939W        W19364   0.271  17.279  14.868
46940W        W19365  38.366  24.113  10.622
46941W        W19366  14.162  23.170   4.245
46942W        W19367   2.462  21.068  10.590
46943W        W19368  29.542  34.894   2.739
46944W        W19369  11.197  28.500  14.318
46945W        W19370  18.254  14.741  10.951
46946W        W19371  28.144  13.221  14.897
46947W        W19372  22.207  36.569   1.236
46948W        W19373  29.463  37.022   4.814
46949W        W19374  28.454  38.000  12.532
46950W        W19375  34.975  18.141  14.513
46951W        W19376  15.577  34.005  14.886
46952W        W19377  15.259   2.239  13.316
46953W        W19378  19.192  14.659   4.801
46954W        W19379  13.242   3.807   2.833
46955W        W19380   1.958  10.703   1.756
46956W        W19381  43.997  44.437   2.269
46957W        W19382  39.532  21.732  12.470
46958W        W19383  40.877   3.951  13.824
46959W        W19384  35.573  24.146   1.331
46960W        W19385  33.514  22.520   0.301
46961W        W19386   1.417  43.363  12.891
46962W        W19387   9.647  41.415   0.334
46963W        W19388   0.380  43.994  14.363
46964W        W19389  30.961   0.803   4.255
46965W        W19390  37.851  32.075   1.301
46966W        W19391  28.469   5.357   1.281
46967W        W19392  20.707   4.428   1.448
46968W        W19393  13.662  10.643  11.590
46969W        W19394   8.750  18.273  10.086
46970W        W19395  24.516  30.135  10.642
46971W        W19396  12.214   4.814   4.325
46972W        W19397  21.122  15.628  13.504
46973W        W19398  24.542  21.255  10.892
46974W        W19399  10.242  42.328  11.081
46975W        W19400  26.965  31.142   3.683
46976W        W19401  42.860  19.276  13.987
46977W        W19402  39.912  34.387  14.444
46978W        W19403   0.356  24.981  14.340
46979W        W19404  30.547  35.506   2.874
46980W        W19405  40.012  28.568   1.241
46981W        W19406  29.505  32.420  14.447
46982W        W19407  35.101  28.972   4.141
46983W        W19408  23.127   6.258   4.824
46984W        W19409  12.772  38.958  11.067
46985W        W19410  31.447  37.084  10.919
46986W        W19411  26.051  44.391   4.126
46987W        W19412   7.699  16.801  13.869
46988W        W19413  34.614  18.723   4.650
46989W        W19414   5.287  20.212   0.736
46990W        W19415  41.503  34.415   3.858
46991W        W19416   3.349   0.253  14.304
46992W        W19417  11.712  22.553  11.569
46993W        W19418   1.736  32.051   0.390
46994W        W19419  30.480  38.480   0.729
46995W        W19420   2.284  33.080  11.975
46996W        W19421  14.656  38.074   2.272
46997W        W19422  42.439   2.407   4.262
46998W        W19423  13.647   1.444  14.412
46999W        W19424   2.938  31.091  13.989
47000W        W19425  14.164  20.654  13.889
47001W        W19426  17.640  20.526  10.977
47002W        W19427  38.523  11.744   4.307
47003W        W19428   4.232  30.469   3.699
47004W        W19429  33.398   6.418   3.362
47005W        W19430  26.519  21.139  13.027
47006W        W19431  35.871  35.896  10.978
47007W        W19432  36.545  21.045   0.408
47008W        W19433  40.345  44.313   5.176
47009W        W19434  35.984   3.876  14.812
47010W        W19435  20.632  17.254   4.649
47011W        W19436  37.387  40.968  11.021
47012W        W19437  27.526  28.644   4.662
47013W        W19438  25.639  29.490  10.082
47014W        W19439   5.864  38.048   4.765
47015W        W19440   5.402  33.893   0.798
47016W        W19441  23.225  16.674  13.450
47017W        W19442  38.916   0.349   1.366
47018W        W19443   1.829  35.982  14.294
47019W        W19444  20.066   3.853  10.927
47020W        W19445  19.608  20.160   0.799
47021W        W19446  39.330  17.062   0.837
47022W        W19447   9.711  43.379   2.199
47023W        W19448  26.019  27.997   3.329
47024W        W19449  30.988  31.989  11.402
47025W        W19450  15.752  29.976   1.860
47026W        W19451   7.819  15.749  10.122
47027W        W19452  24.994  10.298   0.385
47028W        W19453   7.675  40.320   2.743
47029W        W19454   2.749   9.229  13.866
47030W        W19455  23.686  15.116  14.437
47031W        W19456  31.148  24.533   2.776
47032W        W19457  17.249  10.296  13.962
47033W        W19458   9.805   4.391   0.391
47034W        W19459   1.744  23.649  12.375
47035W        W19460   9.341  39.442   0.279
47036W        W19461  22.044  10.140  14.813
47037W        W19462  11.848  36.868   0.782
47038W        W19463   4.403  39.363   2.700
47039W        W19464  10.353  13.111  14.767
47040W        W19465  37.454  22.115   1.386
47041W        W19466   1.481  30.497   0.476
47042W        W19467  18.770  38.508  10.460
47043W        W19468  22.227   4.311  12.020
47044W        W19469   1.468  16.661   1.818
47045W        W19470  38.477  28.955  12.351
47046W        W19471   0.882   3.771   1.321
47047W        W19472  33.494  15.668   2.725
47048W        W19473  37.490  42.022  11.522
47049W        W19474   3.793  29.556  11.443
47050W        W19475  11.166  14.821  14.455
47051W        W19476  12.739  15.789  14.379
47052W        W19477  20.032  16.695   1.284
47053W        W19478  17.245   8.209   0.344
47054W        W19479   4.204  37.982   2.723
47055W        W19480   2.440   3.772   0.279
47056W        W19481  14.600  27.147   2.673
47057W        W19482  23.070   7.373  11.603
47058W        W19483   2.924  13.168  12.385
47059W        W19484  40.323  38.368   2.869
47060W        W19485  23.208  30.103  12.551
47061W        W19486   9.813  23.712   0.456
47062W        W19487   6.794  36.477   4.634
47063W        W19488  36.499  36.464   3.323
47064W        W19489   8.325  30.936  14.824
47065W        W19490  40.385  39.537  11.046
47066W        W19491  42.819   1.455  13.456
47067W        W19492   6.728  37.487  10.906
47068W        W19493   5.779  26.971  10.572
47069W        W19494   1.356  41.311   1.711
47070W        W19495  16.197   0.754   3.294
47071W        W19496  41.952  18.274  11.883
47072W        W19497  15.309  17.559   4.719
47073W        W19498   5.732  40.540  13.016
47074W        W19499   3.894  28.479   0.396
47075W        W19500  20.208  32.026   4.779
47076W        W19501  10.214  38.854   4.290
47077W        W19502  21.520  18.265  13.859
47078W        W19503  27.098   7.695  12.060
47079W        W19504  37.072  15.088   2.707
47080W        W19505  26.124  32.410   0.943
47081W        W19506  16.146  22.717   0.277
47082W        W19507  18.204  33.044  12.995
47083W        W19508   4.378  41.823   1.854
47084W        W19509   8.292  35.035  13.818
47085W        W19510  34.998  24.097  13.822
47086W        W19511  10.748   6.751  13.835
47087W        W19512  37.954   7.868   0.893
47088W        W19513  16.202  16.178  10.603
47089W        W19514  28.084  43.974   4.338
47090W        W19515  20.670   7.301   0.752
47091W        W19516  32.084   9.364   2.360
47092W        W19517  39.426  40.486  11.044
47093W        W19518  21.176  24.978   1.396
47094W        W19519  29.174   2.316  14.994
47095W        W19520  18.750  13.115   2.812
47096W        W19521  35.929  23.206   1.398
47097W        W19522  11.835  14.706  12.025
47098W        W19523  29.012   0.327  12.554
47099W        W19524  31.115  40.959  13.058
47100W        W19525  20.272  31.603  12.468
47101W        W19526   1.923  12.849   4.816
47102W        W19527  13.195  26.586   4.653
47103W        W19528  42.440   3.792   4.222
47104W        W19529  21.689  31.923   2.721
47105W        W19530  27.134  17.577   3.171
47106W        W19531  32.911  28.444  14.301
47107W        W19532  15.308   8.327  14.935
47108W        W19533  28.649   4.398  10.466
47109W        W19534  13.116  44.898  13.864
47110W        W19535  35.572  18.082   3.717
47111W        W19536  41.473   3.325  11.537
47112W        W19537  20.126  12.289  12.435
47113W        W19538   6.271  25.581   1.773
47114W        W19539   7.240   6.286   3.161
47115W        W19540  44.778  26.541  11.376
47116W        W19541  26.011  30.934  12.993
47117W        W19542  15.597   6.778  11.919
47118W        W19543  33.069  36.991   1.916
47119W        W19544  43.303   7.401  11.568
47120W        W19545  11.239  10.321   0.443
47121W        W19546  42.524   2.809  14.870
47122W        W19547  33.903  39.935   2.796
47123W        W19548  12.719   7.701  12.895
47124W        W19549   7.184  13.348   0.295
47125W        W19550   2.967  16.672   3.301
47126W        W19551  29.028  12.331  10.998
47127W        W19552  32.621  18.766  12.384
47128W        W19553  42.814  12.753   2.861
47129W        W19554   4.886  13.156  11.438
47130W        W19555   9.319  12.678   1.702
47131W        W19556  26.059  37.016  14.986
47132W        W19557  29.007  27.129   1.375
47133W        W19558  13.763   0.343   1.804
47134W        W19559   6.857  35.859   4.797
47135W        W19560   6.237  15.581   2.211
47136W        W19561   4.263   3.827  12.034
47137W        W19562  29.518  18.686  14.510
47138W        W19563  13.316  44.990  12.405
47139W        W19564  21.569  40.823   2.264
47140W        W19565  15.698   1.938   4.274
47141W        W19566  12.781  40.005  11.920
47142W        W19567  25.540  21.212   4.817
47143W        W19568  35.548  19.753   3.274
47144W        W19569  14.746  43.381   0.887
47145W        W19570  12.723   4.944   1.296
47146W        W19571   8.344  27.179  11.408
47147W        W19572  41.328  10.208  12.939
47148W        W19573  16.687  28.665   2.395
47149W        W19574  19.086  28.991   2.711
47150W        W19575  21.656  44.485   3.169
47151W        W19576  28.139  31.439   5.160
47152W        W19577   4.264  18.136  13.832
47153W        W19578  39.870   8.796   2.330
47154W        W19579   5.357  10.879  13.471
47155W        W19580  31.900   6.697  14.966
47156W        W19581  20.615  43.841  12.396
47157W        W19582  15.160  16.635  12.991
47158W        W19583  31.915  33.565  11.410
47159W        W19584  21.544  14.777  14.000
47160W        W19585  20.539   8.898   0.384
47161W        W19586  30.450  11.369  14.276
47162W        W19587  30.944  18.615   1.846
47163W        W19588  19.172  32.424   0.845
47164W        W19589  42.782  32.617   2.682
47165W        W19590  42.997  35.945   4.781
47166W        W19591   3.235  13.651  10.912
47167W        W19592   8.695   9.336  12.899
47168W        W19593  40.020  33.901  12.934
47169W        W19594  31.420   2.818   4.220
47170W        W19595  37.975  18.777  10.640
47171W        W19596  10.820   9.193  14.011
47172W        W19597  44.003  27.498  13.791
47173W        W19598  18.570  23.161  11.973
47174W        W19599  41.879  10.704  14.344
47175W        W19600  19.779  17.562   2.324
47176W        W19601  36.487  11.208  13.012
47177W        W19602  17.284  16.717   1.883
47178W        W19603   7.233  21.652   1.886
47179W        W19604  26.179  24.992   1.254
47180W        W19605   5.708  17.762   1.871
47181W        W19606   9.657   8.884   1.308
47182W        W19607  21.167   8.203   2.355
47183W        W19608  14.164  25.538  12.876
47184W        W19609   2.465  38.853   4.708
47185W        W19610  16.726  31.490   0.772
47186W        W19611  27.583  18.746  11.910
47187W        W19612  33.047  10.294  14.492
47188W        W19613  23.198   8.792   4.742
47189W        W19614  33.555   6.187  12.071
47190W        W19615  32.520  40.327   0.836
47191W        W19616   8.754  22.705   2.892
47192W        W19617   0.470  33.033   4.657
47193W        W19618  30.600  24.209   2.784
47194W        W19619   1.894  40.895   1.812
47195W        W19620  14.687   8.392  14.966
47196W        W19621  37.347   0.972   3.751
47197W        W19622  14.675   5.934  13.351
47198W        W19623  29.066   5.381  13.385
47199W        W19624   9.743  25.525  12.454
47200W        W19625  41.011  44.500   1.425
47201W        W19626  16.786  14.274   3.763
47202W        W19627  11.179  24.080   3.696
47203W        W19628   8.897  25.542   1.444
47204W        W19629   3.907  36.032   5.129
47205W        W19630  12.273   9.760   4.125
47206W        W19631  30.570  29.932   4.632
47207W        W19632  37.374   5.905   3.771
47208W        W19633   7.762  21.617  10.440
47209W        W19634  27.196   9.837   2.294
47210W        W19635  39.880   4.846  12.379
47211W        W19636  10.784   9.832  12.938
47212W        W19637   1.926  43.466   1.730
47213W        W19638   8.766   4.882  11.005
47214W        W19639  14.724   8.798   4.296
47215W        W19640  41.010  17.593  10.639
47216W        W19641   2.384  35.476   1.303
47217W        W19642  24.654  36.408  13.505
47218W        W19643  26.552  40.357   0.767
47219W        W19644  33.381  10.312  10.158
47220W        W19645  22.040  11.336  14.997
47221W        W19646  35.065  15.616  11.965
47222W        W19647   7.790   6.877   0.911
47223W        W19648   6.423   3.218   1.760
47224W        W19649   3.864  43.414  12.893
47225W        W19650  35.559   9.284   3.224
47226W        W19651  33.387  24.123   2.255
47227W        W19652  12.273  32.023   3.654
47228W        W19653  44.947  30.117   2.388
47229W        W19654   1.395  10.757   4.775
47230W        W19655  10.223  14.197   4.814
47231W        W19656  19.064  24.198  10.538
47232W        W19657  40.311   8.358  13.481
47233W        W19658  39.379  34.489   2.348
47234W        W19659  41.980  15.106  13.792
47235W        W19660  29.637  11.806  14.955
47236W        W19661  27.670  39.896   4.736
47237W        W19662   4.867  19.657   0.785
47238W        W19663  26.644  22.227  13.497
47239W        W19664  31.466   6.743   4.304
47240W        W19665  11.847  40.403  10.563
47241W        W19666  11.296  35.040  14.294
47242W        W19667  30.461  32.893   2.818
47243W        W19668  30.567  15.634   1.262
47244W        W19669  30.106  25.018  11.476
47245W        W19670   9.208  20.124   4.264
47246W        W19671  31.028  43.399   1.384
47247W        W19672   3.451   1.864  12.474
47248W        W19673   9.314  27.195   2.359
47249W        W19674  16.806  14.160  13.418
47250W        W19675  33.516  21.591  10.517
47251W        W19676  31.636  15.317  12.375
47252W        W19677  33.401  16.076   4.660
47253W        W19678  42.342  12.666   1.243
47254W        W19679  30.052  25.597   2.256
47255W        W19680  29.065   9.848  14.767
47256W        W19681   1.826  15.612  12.991
47257W        W19682  35.066  30.010   2.396
47258W        W19683  16.573  20.564  10.559
47259W        W19684  23.189  20.042  11.391
47260W        W19685  17.633  33.490  13.453
47261W        W19686  34.114  44.309  10.529
47262W        W19687  13.844  19.078   3.380
47263W        W19688  17.071   3.761  10.623
47264W        W19689   3.224  33.896  12.429
47265W        W19690  42.983  38.039   1.893
47266W        W19691  27.620  11.863   4.749
47267W        W19692  31.982  40.383   3.239
47268W        W19693  43.506  10.837  14.979
47269W        W19694   4.944  25.118   5.184
47270W        W19695   6.910  25.091  12.486
47271W        W19696  38.369  44.487  10.594
47272W        W19697   4.373  18.050  13.430
47273W        W19698   9.195  31.602   1.919
47274W        W19699   8.372  44.353   2.692
47275W        W19700  23.591  37.434  10.904
47276W        W19701  37.958  16.640  14.888
47277W        W19702  42.843  24.042   0.441
47278W        W19703  19.046  10.815   0.816
47279W        W19704  43.799  26.049   4.748
47280W        W19705   7.703  20.103  13.520
47281W        W19706  15.587  10.840   1.418
47282W        W19707  42.399   8.691  14.371
47283W        W19708  25.131  10.813  12.976
47284W        W19709  28.670  13.750  12.483
47285W        W19710   8.323   1.934  14.825
47286W        W19711  10.256  10.772  14.292
47287W        W19712  28.651  41.371   5.122
47288W        W19713  25.662  31.030  11.946
47289W        W19714  33.380  15.127   2.191
47290W        W19715   0.851  37.994  12.021
47291W        W19716  31.122  30.645  10.117
47292W        W19717   6.871   0.757   2.873
47293W        W19718  31.109  39.451   2.710
47294W        W19719  36.469  26.180  11.402
47295W        W19720  18.736  18.296  14.432
47296W        W19721   2.304  39.027  11.535
47297W        W19722   8.319   7.240  14.428
47298W        W19723  23.238  15.804  11.550
47299W        W19724  10.831  14.277   3.827
47300W        W19725  42.425  33.467   1.406
47301W        W19726  39.989  17.184   4.826
47302W        W19727  40.015   5.690   2.741
47303W        W19728   0.456  44.262  14.843
47304W        W19729   4.287  12.266  12.985
47305W        W19730  40.928  24.525  11.402
47306W        W19731  25.678   0.363   3.240
47307W        W19732   5.394  14.714   4.599
47308W        W19733   2.849  22.580   1.417
47309W        W19734   3.875  26.043   2.836
47310W        W19735  38.484  24.509   0.916
47311W        W19736  31.440   3.447   0.385
47312W        W19737  36.937  13.259   3.709
47313W        W19738  27.172  31.426   3.293
47314W        W19739  44.341  10.205   0.248
47315W        W19740  15.256  24.505   3.146
47316W        W19741   6.710  38.949   1.420
47317W        W19742   0.266  10.783  10.593
47318W        W19743  12.261  21.079  12.858
47319W        W19744  32.991   5.752  10.431
47320W        W19745  13.216  25.167   1.210
47321W        W19746   4.238  22.240  14.296
47322W        W19747  38.945  17.123   4.181
47323W        W19748  40.953  17.794  13.520
47324W        W19749  36.071  27.466   2.343
47325W        W19750  39.503   7.198   3.722
47326W        W19751   1.777  26.624  14.386
47327W        W19752  32.060  27.018  14.337
47328W        W19753  39.406  27.475  13.309
47329W        W19754  17.121  15.629   3.756
47330W        W19755  21.672  26.978  12.515
47331W        W19756  23.492  34.451  14.928
47332W        W19757  11.687  42.305   4.299
47333W        W19758   4.748  27.577   9.978
47334W        W19759  36.451  12.831  14.365
47335W        W19760  24.643  40.909  10.501
47336W        W19761  19.759  13.832   0.356
47337W        W19762  28.178  15.190   4.697
47338W        W19763  12.203   4.847  13.810
47339W        W19764  37.477  24.006  13.333
47340W        W19765  28.647  35.538   2.333
47341W        W19766  32.129  25.206  14.403
47342W        W19767  13.109  37.923  13.350
47343W        W19768  29.433   0.837   1.747
47344W        W19769  34.400  41.374  12.557
47345W        W19770   1.332  33.612   1.791
47346W        W19771   7.192  42.988  11.943
47347W        W19772  16.645  35.003  10.056
47348W        W19773  13.201  38.501  11.557
47349W        W19774  39.928   8.727   2.729
47350W        W19775   0.988  38.342  14.864
47351W        W19776  13.741  13.327  12.529
47352W        W19777  34.481   7.283  14.327
47353W        W19778  11.805  19.240   0.406
47354W        W19779  17.170   4.426   2.872
47355W        W19780  21.076  33.413  11.023
47356W        W19781  36.540  14.812   4.772
47357W        W19782   7.757  14.599   4.191
47358W        W19783  35.952   9.362  13.494
47359W        W19784  34.426   4.806  12.494
47360W        W19785  13.770  28.529  12.579
47361W        W19786   3.433  12.167   2.799
47362W        W19787  23.538  24.156  14.022
47363W        W19788  15.638  44.007   4.131
47364W        W19789  26.655  22.099  12.932
47365W        W19790   1.888  13.134   0.831
47366W        W19791  16.601   7.712  13.049
47367W        W19792  29.031  21.564  11.505
47368W        W19793  14.106  38.568   4.806
47369W        W19794   4.886  13.124  10.982
47370W        W19795   2.866  37.467  14.917
47371W        W19796   0.856  34.381   0.945
47372W        W19797   1.842  23.144  11.899
47373W        W19798  21.082  27.987   2.246
47374W        W19799  35.438  15.822  11.973
47375W        W19800  17.675  33.896  13.801
47376W        W19801  39.829  22.035  11.541
47377W        W19802  39.476  42.288   4.814
47378W        W19803  15.322  17.066   2.365
47379W        W19804  38.354  30.935   1.801
47380W        W19805  13.306  14.694   0.394
47381W        W19806  32.136   7.749   2.846
47382W        W19807   2.899  35.475   2.782
47383W        W19808  43.350  31.120   2.667
47384W        W19809  21.651  25.150  14.408
47385W        W19810  33.111  41.960   0.966
47386W        W19811   4.381  29.437  13.026
47387W        W19812   0.845  31.049  11.075
47388W        W19813  29.486  31.000   1.346
47389W        W19814  38.462  24.122   1.706
47390W        W19815  10.874   4.421   4.620
47391W        W19816  36.445  18.623   4.239
47392W        W19817  15.782  27.614  13.859
47393W        W19818  17.143  13.795   2.750
47394W        W19819  17.139  36.452  11.032
47395W        W19820  21.109  38.526   0.286
47396W        W19821  36.897  10.829  10.949
47397W        W19822  24.645  18.777   3.703
47398W        W19823  14.328  27.630  10.440
47399W        W19824  41.471  28.980   4.319
47400W        W19825   8.236  17.633  13.030
47401W        W19826  38.953   7.711  13.504
47402W        W19827  24.976  24.033   4.169
47403W        W19828  36.091  14.216   4.817
47404W        W19829  28.588  36.994   3.237
47405W        W19830  18.764  30.413   5.121
47406W        W19831  26.457  39.519  13.928
47407W        W19832  35.991  14.112  10.485
47408W        W19833   4.887   6.749   3.818
47409W        W19834  23.534  14.320   3.842
47410W        W19835   1.466  12.289  12.373
47411W        W19836  36.420   2.796   1.800
47412W        W19837  15.678  28.088  12.524
47413W        W19838  35.891  43.285   3.245
47414W        W19839  16.272  42.889   1.436
47415W        W19840  23.208  11.806   5.572
47416W        W19841  12.258  31.610  14.842
47417W        W19842  19.063   4.855   0.432
47418W        W19843  29.049  33.954   3.291
47419W        W19844  43.480  13.740  14.984
47420W        W19845  10.317  23.635   0.829
47421W        W19846   1.745  15.245  13.448
47422W        W19847  33.969  37.381  12.028
47423W        W19848   1.749  44.791  13.498
47424W        W19849   2.776  24.076  10.443
47425W        W19850  40.907  12.664   3.377
47426W        W19851   7.790  43.435   0.967
47427W        W19852  37.491  29.175   0.832
47428W        W19853  16.677   8.350  11.402
47429W        W19854   4.346  20.115   4.597
47430W        W19855  21.542  41.499  11.585
47431W        W19856   2.416  34.405  13.036
47432W        W19857  11.366  12.118   3.812
47433W        W19858  36.984  43.368  11.013
47434W        W19859  30.065  23.608  13.908
47435W        W19860   4.779  42.790   4.830
47436W        W19861   9.671  42.504  14.962
47437W        W19862  30.962  15.272   4.136
47438W        W19863   4.204  35.390   2.753
47439W        W19864  16.703   2.762   0.768
47440W        W19865   1.759  40.512   3.796
47441W        W19866  25.614   5.320   3.861
47442W        W19867  35.544  17.588  14.878
47443W        W19868  29.052  28.462  14.793
47444W        W19869  16.664  31.498  14.361
47445W        W19870  31.499  10.332  11.466
47446W        W19871  11.290   6.357   1.225
47447W        W19872  42.930   3.398   1.792
47448W        W19873  33.876  41.978  10.617
47449W        W19874   3.278  13.306  12.481
47450W        W19875  36.489  23.011   2.812
47451W        W19876  18.738   3.324   5.160
47452W        W19877  12.622  15.707  10.903
47453W        W19878  41.791  24.000  13.343
47454W        W19879  32.084  27.458   4.611
47455W        W19880   2.468  24.566  13.367
47456W        W19881   8.882  16.642  10.936
47457W        W19882   7.704   8.337  11.428
47458W        W19883  27.596  16.081   4.715
47459W        W19884  36.532  35.492  13.049
47460W        W19885   6.361  41.852  14.925
47461W        W19886  42.989  34.068  11.515
47462W        W19887   4.941   6.699  11.122
47463W        W19888   3.782  40.814  13.367
47464W        W19889  42.824  17.139   0.395
47465W        W19890  23.133  11.772   5.218
47466W        W19891  14.238   1.882   5.128
47467W        W19892   0.980   0.897  12.407
47468W        W19893  36.842  15.720  10.985
47469W        W19894   8.315  16.159  13.328
47470W        W19895   2.790  13.250  12.924
47471W        W19896  26.494  32.074   3.337
47472W        W19897  31.578  35.560   0.380
47473W        W19898  39.444  43.794  14.020
47474W        W19899   4.843  36.537  11.856
47475W        W19900  40.357  34.613  10.466
47476W        W19901  24.185  26.524   1.833
47477W        W19902  26.978  22.745  10.125
47478W        W19903  33.385  20.577   4.615
47479W        W19904  14.610  35.544  11.565
47480W        W19905   1.776   0.278   0.298
47481W        W19906   3.243  38.027   0.789
47482W        W19907   8.675  37.949  13.506
47483W        W19908  36.521   8.280  14.312
47484W        W19909  44.432  19.675  10.953
47485W        W19910  31.590  28.543  13.928
47486W        W19911  41.988  40.838   4.129
47487W        W19912  36.908   9.819   5.670
47488W        W19913  18.600  24.148   4.759
47489W        W19914  42.830   5.421  12.550
47490W        W19915   4.904  11.190  10.478
47491W        W19916   5.785  25.057   1.932
47492W        W19917  24.208  38.864   9.978
47493W        W19918  16.135  39.349  13.985
47494W        W19919   9.711  31.462  14.431
47495W        W19920   2.373  28.577  14.009
47496W        W19921  35.487   6.344  10.419
47497W        W19922  18.776  11.680   2.219
47498W        W19923  44.949   7.352  14.021
47499W        W19924  25.105  37.987   1.375
47500W        W19925  27.150  25.562  12.464
47501W        W19926  23.985  21.650   1.399
47502W        W19927   8.727  15.201   0.890
47503W        W19928   6.740  17.780  11.517
47504W        W19929  29.586  22.551  11.469
47505W        W19930   2.933  41.953  14.858
47506W        W19931  29.156   3.393   3.768
47507W        W19932   1.926  42.388   3.846
47508W        W19933  13.310  23.149  11.458
47509W        W19934  28.010  25.616   3.255
47510W        W19935   0.853  35.920   4.267
47511W        W19936  23.056  40.046  10.620
47512W        W19937  13.314  23.520  12.830
47513W        W19938   6.917   7.193  10.606
47514W        W19939  39.869  21.609   0.446
47515W        W19940  15.734   3.392  10.550
47516W        W19941   2.351  13.318   0.787
47517W        W19942  21.515  32.397   4.177
47518W        W19943  17.277  20.589   3.337
47519W        W19944  30.487   7.736  11.457
47520W        W19945  10.259  25.031   4.796
47521W        W19946  32.550  31.448  11.901
47522W        W19947   3.821  19.661  13.449
47523W        W19948   6.683  35.979  11.605
47524W        W19949  11.217  10.353  14.320
47525W        W19950  15.274  39.334   2.672
47526W        W19951  41.931  42.795  14.329
47527W        W19952  28.581  16.811   0.250
47528W        W19953  28.520  40.423  14.396
47529W        W19954  38.559  44.452  11.908
47530W        W19955  13.819   8.178   3.199
47531W        W19956  21.541  19.226   1.451
47532W        W19957  32.983  15.792   1.818
47533W        W19958   4.720  24.023   2.308
47534W        W19959  40.545   1.966   3.750
47535W        W19960   1.825  29.556  11.416
47536W        W19961  23.693  28.155   4.339
47537W        W19962   0.471  22.621  13.543
47538W        W19963  38.864  33.024  10.471
47539W        W19964  17.220  32.113  10.057
47540W        W19965  17.607  32.905   3.751
47541W        W19966  23.505  37.053  11.533
47542W        W19967  15.691   4.702  14.357
47543W        W19968  38.875  23.675  10.470
47544W        W19969   3.830   3.423  12.850
47545W        W19970  40.322  39.443   2.809
47546W        W19971   0.924  44.434   2.274
47547W        W19972  13.312  13.307  14.977
47548W        W19973  35.459  28.435  12.029
47549W        W19974  39.816  10.302  12.852
47550W        W19975  26.049  16.080   0.409
47551W        W19976   8.368  17.171   4.343
47552W        W19977  19.233   4.298   1.843
47553W        W19978  40.357   9.309   3.228
47554W        W19979  28.939  40.807  11.985
47555W        W19980  18.062  38.930  12.403
47556W        W19981   8.246  33.037  14.962
47557W        W19982  19.633  15.274  14.782
47558W        W19983   6.415  20.682   0.339
47559W        W19984  22.173  19.248  14.030
47560W        W19985   4.814  39.923   3.724
47561W        W19986   8.226  34.497  10.939
47562W        W19987  30.159  41.793  12.004
47563W        W19988   4.267  34.977  10.986
47564W        W19989  34.105  15.286   3.372
47565W        W19990  14.834  21.740   1.340
47566W        W19991   7.377  28.608  12.982
47567W        W19992   2.428  32.613  14.282
47568W        W19993  25.048  26.032  12.847
47569W        W19994   2.857  37.342  14.364
47570W        W19995  26.960  38.847   2.702
47571W        W19996  15.732  35.924  11.470
47572W        W19997   6.230  28.474   4.728
47573W        W19998  23.669  39.535   4.350
47574W        W19999   4.873   1.805   2.741
47575W        W20000  15.729   0.901  11.513
47576W        W20001  42.290   1.392   1.342
47577W        W20002  26.077  16.596  12.515
47578W        W20003  11.299  22.153   2.396
47579W        W20004  14.767   2.866   4.831
47580W        W20005  17.653   0.862  12.369
47581W        W20006  10.853   9.374  14.490
47582W        W20007   7.333   3.281   1.415
47583W        W20008  36.548  11.820   9.943
47584W        W20009   6.304  18.105   1.921
47585W        W20010  28.969  29.937  12.940
47586W        W20011  23.708  26.075  11.459
47587W        W20012  35.015  23.682  12.009
47588W        W20013  29.634  21.151  11.558
47589W        W20014  43.297  10.724  13.900
47590W        W20015  20.528  32.404   2.198
47591W        W20016  19.047   2.962  11.586
47592W        W20017  30.557   6.349  13.408
47593W        W20018  11.233  43.834  14.320
47594W        W20019  21.166  20.117  12.430
47595W        W20020  25.586  36.546   1.411
47596W        W20021   5.920  14.762   0.800
47597W        W20022  44.492  20.064   3.167
47598W        W20023  15.781  44.973  13.456
47599W        W20024  33.947  24.130  13.308
47600W        W20025  15.791  37.370  10.634
47601W        W20026  28.576  39.451   1.413
47602W        W20027  24.037  24.086  11.124
47603W        W20028  20.249  12.830  14.982
47604W        W20029   6.748   8.234  13.974
47605W        W20030  40.518  27.172  12.384
47606W        W20031   4.426  36.952  11.919
47607W        W20032  33.961  27.579  12.060
47608W        W20033  27.506  27.006  10.978
47609W        W20034   9.334  27.055  10.932
47610W        W20035  14.792  42.827  10.572
47611W        W20036   9.665   3.431   2.343
47612W        W20037  18.672  14.323  11.465
47613W        W20038  17.092  40.916   4.118
47614W        W20039   0.749   3.714  14.952
47615W        W20040  39.418  25.067   1.279
47616W        W20041  18.294  37.396  12.078
47617W        W20042  37.454  12.147  13.028
47618W        W20043  10.215   5.816  12.035
47619W        W20044  37.577  11.801   2.680
47620W        W20045   8.796  11.182  13.938
47621W        W20046  30.140  22.176  14.460
47622W        W20047  25.700  38.496   1.386
47623W        W20048  13.273  32.940  13.882
47624W        W20049  40.330  18.136   4.167
47625W        W20050  20.586  37.019  12.891
47626W        W20051  41.890   8.847   3.646
47627W        W20052  43.909  26.559  12.395
47628W        W20053  17.648   2.353   3.203
47629W        W20054  28.679  23.232   4.776
47630W        W20055  42.854  22.561   1.326
47631W        W20056  13.661  42.300   3.174
47632W        W20057  11.777  10.357   1.919
47633W        W20058  35.874  31.540   3.277
47634W        W20059   4.271  11.287  14.283
47635W        W20060  15.587  10.273   0.844
47636W        W20061  14.748  27.532   1.421
47637W        W20062  28.128  13.837   5.158
47638W        W20063   2.422  23.236   0.936
47639W        W20064  22.106  20.526   2.662
47640W        W20065  19.641   0.253   4.350
47641W        W20066  10.879  36.038   2.818
47642W        W20067  36.406  21.597  11.054
47643W        W20068  10.668   2.429  12.977
47644W        W20069  17.217  35.013  10.568
47645W        W20070  34.419   2.870   2.811
47646W        W20071  18.769  20.667   4.634
47647W        W20072  32.483   3.231   3.304
47648W        W20073  10.375  28.068  10.637
47649W        W20074  25.059  27.540   3.194
47650W        W20075  14.710  24.050   9.658
47651W        W20076  36.512  38.934   0.432
47652W        W20077  32.484  34.446  14.888
47653W        W20078   1.973   2.433   3.645
47654W        W20079  10.225   4.832   4.709
47655W        W20080  20.203  33.071  14.003
47656W        W20081   6.401   2.839   4.136
47657W        W20082   4.256   8.701  14.822
47658W        W20083  12.130  29.157  11.093
47659W        W20084  32.974  41.879  11.510
47660W        W20085  41.313  40.355   4.708
47661W        W20086   3.385   6.904   1.903
47662W        W20087  12.126  34.598   3.184
47663W        W20088   7.328   7.238   0.953
47664W        W20089  16.811  21.129  11.600
47665W        W20090  40.014  35.996  13.019
47666W        W20091  37.526  18.604  10.503
47667W        W20092  13.607  18.575   3.867
47668W        W20093  24.578  41.951   1.707
47669W        W20094  36.041  25.205   1.779
47670W        W20095   7.300   4.937   1.847
47671W        W20096  31.923  36.960  10.462
47672W        W20097  32.468  13.171  10.534
47673W        W20098  11.253  42.825  11.424
47674W        W20099  43.278  13.303  12.072
47675W        W20100   2.298  31.057   3.857
47676W        W20101  34.898  25.578   2.286
47677W        W20102  28.623  10.348  13.450
47678W        W20103  28.985  28.503   0.879
47679W        W20104  12.684   5.826  13.540
47680W        W20105  27.055  33.554  13.470
47681W        W20106   3.417  20.149   3.295
47682W        W20107   1.447   4.867   4.284
47683W        W20108  32.929  20.156  11.948
47684W        W20109  15.707   8.739  14.505
47685W        W20110   7.787  16.701  14.971
47686W        W20111   4.770  12.784   2.743
47687W        W20112  40.974  33.472   3.277
47688W        W20113  25.112  18.625   2.897
47689W        W20114   1.953   6.407  13.380
47690W        W20115  32.529  38.509   4.725
47691W        W20116  38.877  13.292   1.832
47692W        W20117  35.552   8.225  11.402
47693W        W20118   3.843  38.570  14.486
47694W        W20119   1.357   5.267   4.124
47695W        W20120   1.813  29.479  12.510
47696W        W20121  26.683  10.346   3.260
47697W        W20122   8.393  19.778   1.839
47698W        W20123   7.296  10.648  13.480
47699W        W20124  14.648  30.630  13.023
47700W        W20125  23.236  26.550   3.646
47701W        W20126   3.288  32.403  13.034
47702W        W20127  13.735  29.138  11.971
47703W        W20128  35.856  17.158  14.482
47704W        W20129  38.504  31.153   1.360
47705W        W20130  41.493  36.414  11.491
47706W        W20131  44.955  27.564   1.229
47707W        W20132   2.729  38.940   3.294
47708W        W20133   5.365  44.387  12.832
47709W        W20134  42.442   3.932  12.557
47710W        W20135  20.044  35.900   1.280
47711W        W20136   4.399  19.641   0.364
47712W        W20137   2.338   7.259   1.366
47713W        W20138  37.377  25.219  13.022
47714W        W20139  19.160  34.439  12.434
47715W        W20140  41.365  36.894   4.615
47716W        W20141  25.704   4.442  11.863
47717W        W20142  29.933  21.061  12.391
47718W        W20143  40.913  14.282   0.835
47719W        W20144  23.564  10.339   0.482
47720W        W20145   4.926  41.938  10.980
47721W        W20146  41.971   3.443  14.765
47722W        W20147  28.145  30.107  10.952
47723W        W20148  17.235  30.096  12.480
47724W        W20149  24.524  29.639   2.721
47725W        W20150  38.532   8.787  11.509
47726W        W20151   1.272  15.111   4.600
47727W        W20152  11.268   1.933   1.697
47728W        W20153  22.531  42.500   3.736
47729W        W20154  24.157  28.001  14.807
47730W        W20155  23.521  11.243  13.317
47731W        W20156  11.832  26.123   2.224
47732W        W20157  19.723  33.445  13.862
47733W        W20158  42.381  12.321  10.492
47734W        W20159  32.467  17.738   4.661
47735W        W20160  14.635  36.434   4.737
47736W        W20161  26.008   6.727  13.889
47737W        W20162  34.602  21.107   9.977
47738W        W20163   1.406  31.483   0.790
47739W        W20164  29.594  42.912  10.557
47740W        W20165   6.245  26.473  11.028
47741W        W20166  12.272  26.698   3.247
47742W        W20167   5.375  30.123   2.294
47743W        W20168  28.587  41.791  10.151
47744W        W20169  30.416  42.377  11.917
47745W        W20170  22.089   5.357  13.917
47746W        W20171   7.319  30.581  13.516
47747W        W20172  18.235  41.351  13.825
47748W        W20173  20.191  38.445   4.774
47749W        W20174  16.316  42.295   1.907
47750W        W20175   0.777  34.598   2.401
47751W        W20176  39.051  28.552  12.511
47752W        W20177   6.814  34.529  13.377
47753W        W20178  40.950   9.183   4.253
47754W        W20179   2.830   2.863   1.251
47755W        W20180  24.632   6.288  12.547
47756W        W20181  15.648  12.148   0.414
47757W        W20182   7.742   5.207   0.734
47758W        W20183  18.623   0.850  13.442
47759W        W20184  35.404   9.274  14.836
47760W        W20185  11.173  20.714  11.486
47761W        W20186  24.715  26.039  10.531
47762W        W20187  39.014   2.953   1.795
47763W        W20188   7.365  13.300  12.404
47764W        W20189  37.487  11.343   1.854
47765W        W20190  38.020   9.255  14.778
47766W        W20191  12.221  30.911   3.252
47767W        W20192  28.972   5.885   2.210
47768W        W20193   8.297   0.918   1.252
47769W        W20194   5.197  41.351  11.552
47770W        W20195  37.981  14.654   1.296
47771W        W20196  40.432  20.556  14.982
47772W        W20197  35.448   0.745   4.632
47773W        W20198  44.882   7.394   4.632
47774W        W20199   4.245  33.003   3.837
47775W        W20200  40.340   9.735   0.344
47776W        W20201  11.717  32.905   4.311
47777W        W20202  30.625  37.511   1.714
47778W        W20203   5.776  41.408   1.697
47779W        W20204   3.305   3.782  14.857
47780W        W20205  17.562  32.086   5.153
47781W        W20206  29.575  10.878   0.896
47782W        W20207  19.160  35.499   1.229
47783W        W20208  44.860  33.467   5.104
47784W        W20209   8.703   4.414   4.136
47785W        W20210  39.027  13.684   0.277
47786W        W20211  15.732  34.540  13.058
47787W        W20212   5.892   5.878   4.287
47788W        W20213  44.774   1.395   2.851
47789W        W20214  24.627  41.810  12.364
47790W        W20215  14.615  42.000  10.550
47791W        W20216  10.685  24.154   2.831
47792W        W20217  20.101  20.554   3.218
47793W        W20218  44.826  32.500  13.445
47794W        W20219  33.928   4.749  12.832
47795W        W20220  34.373  40.526  13.994
47796W        W20221  31.595  28.068  11.943
47797W        W20222   0.989  35.976  13.873
47798W        W20223  28.454  16.139  10.587
47799W        W20224  20.589  23.155  10.644
47800W        W20225  20.117  28.478   3.778
47801W        W20226  21.607  26.033  13.042
47802W        W20227   8.341  15.226  13.447
47803W        W20228  37.499  39.844   3.820
47804W        W20229   5.433  34.519  14.969
47805W        W20230  44.483  21.126   2.199
47806W        W20231   2.362  24.599   4.155
47807W        W20232   5.277  20.118   1.344
47808W        W20233  37.003   4.841  13.909
47809W        W20234  16.774  30.968   0.316
47810W        W20235   6.200  12.285   4.349
47811W        W20236  25.651  14.659  10.426
47812W        W20237   0.397  26.149  12.949
47813W        W20238  39.337  12.716  11.476
47814W        W20239  44.454  31.912  10.512
47815W        W20240  29.113   8.855  12.347
47816W        W20241   7.271   0.309  12.864
47817W        W20242  41.029  38.003   4.833
47818W        W20243   9.216   7.855   1.320
47819W        W20244  26.555  35.534  14.985
47820W        W20245  30.538  13.647  10.953
47821W        W20246  20.678  25.636   0.287
47822W        W20247  29.501   5.875   0.277
47823W        W20248  44.331  20.187  14.894
47824W        W20249  27.547   9.284   3.187
47825W        W20250  40.011  16.735   3.149
47826W        W20251  33.567  43.483   1.223
47827W        W20252   4.790  19.616  13.473
47828W        W20253  31.117  12.280   0.374
47829W        W20254  29.426  39.016   2.689
47830W        W20255  42.911  23.585  10.110
47831W        W20256   0.284  12.825  14.947
47832W        W20257   0.371  14.760  10.476
47833W        W20258  20.066  24.200  13.469
47834W        W20259   3.729  15.648   9.919
47835W        W20260  41.318  37.348  14.309
47836W        W20261  21.226  35.404   4.628
47837W        W20262   2.463  29.096   3.786
47838W        W20263  39.535  28.604  10.636
47839W        W20264  34.561   1.948  12.541
47840W        W20265   7.322  11.851  11.424
47841W        W20266  36.390  26.509   3.364
47842W        W20267  31.541   4.239   2.796
47843W        W20268  41.526  29.607   1.844
47844W        W20269   2.867  32.599  13.360
47845W        W20270  29.556  22.093  12.970
47846W        W20271  27.560  32.396  12.949
47847W        W20272  22.626  35.540  13.337
47848W        W20273  39.971   1.289   3.831
47849W        W20274   6.753  17.257   2.837
47850W        W20275  29.922  28.121   3.856
47851W        W20276  11.196  33.954  14.029
47852W        W20277  37.912  38.825  12.480
47853W        W20278  30.562  32.467   3.169
47854W        W20279  29.596  31.573  14.767
47855W        W20280  43.834  44.274   2.720
47856W        W20281  22.625   6.336  11.944
47857W        W20282  36.028   7.771   4.706
47858W        W20283  29.090  33.032  10.904
47859W        W20284  43.840   3.449  11.052
47860W        W20285  19.197  33.547  11.561
47861W        W20286  14.642  10.823  13.542
47862W        W20287  29.958  13.346   0.802
47863W        W20288  10.278  18.099   1.697
47864W        W20289  22.637  21.152   2.842
47865W        W20290  28.938  39.339  11.076
47866W        W20291   5.433  15.307   1.800
47867W        W20292  12.735  24.701   0.294
47868W        W20293  19.732   9.194  11.867
47869W        W20294   7.225  26.154  11.880
47870W        W20295   6.384  20.165   1.857
47871W        W20296  36.479  38.568   4.197
47872W        W20297  30.103   1.236   1.738
47873W        W20298  31.485  19.277   1.395
47874W        W20299   3.789  17.687  12.949
47875W        W20300   2.277  36.037  14.800
47876W        W20301   5.932  16.204   1.919
47877W        W20302  22.041   6.195   2.828
47878W        W20303  14.246  24.688   2.759
47879W        W20304  33.059   1.756   2.850
47880W        W20305  41.905  22.045  13.009
47881W        W20306  35.444   1.955   1.308
47882W        W20307   1.382   7.386   3.697
47883W        W20308  12.167  21.638   2.406
47884W        W20309  43.800  20.656   1.232
47885W        W20310  42.017  34.993  12.421
47886W        W20311  36.427  41.375  10.441
47887W        W20312  20.198   5.391   4.803
47888W        W20313  28.664  31.459   4.273
47889W        W20314  38.479  40.331  10.917
47890W        W20315   0.465  10.344  12.858
47891W        W20316   5.833  38.376  11.446
47892W        W20317  39.038  19.041   0.938
47893W        W20318  18.091  36.376   2.812
47894W        W20319   9.375   2.402  12.432
47895W        W20320  15.256  35.031   1.842
47896W        W20321  44.907  32.493   4.127
47897W        W20322  21.725  32.441  13.809
47898W        W20323  33.602  30.091   0.424
47899W        W20324  29.009  10.291   3.783
47900W        W20325  10.346  13.634   1.391
47901W        W20326  18.259  12.261  11.376
47902W        W20327   8.713  23.206   1.430
47903W        W20328   8.264  20.554  14.813
47904W        W20329  33.902  17.584   2.815
47905W        W20330  44.383  29.624   3.260
47906W        W20331  16.662  26.675  11.912
47907W        W20332   7.313  19.641   2.300
47908W        W20333   0.791  44.453   4.703
47909W        W20334  28.592  33.512   2.682
47910W        W20335  29.670  19.745   3.688
47911W        W20336  27.958  41.365  13.055
47912W        W20337  39.924  25.969   4.666
47913W        W20338  33.108   1.800  13.410
47914W        W20339  11.328   2.356   1.392
47915W        W20340  22.156  30.632  12.469
47916W        W20341  28.570  23.033   2.667
47917W        W20342   8.839  15.704   1.720
47918W        W20343  39.489  44.787  13.458
47919W        W20344  31.023  42.858   3.827
47920W        W20345  42.918  19.694   2.395
47921W        W20346  23.075   3.877   2.678
47922W        W20347  26.495  33.923  10.910
47923W        W20348  28.155  24.157  12.406
47924W        W20349  30.491  19.675   2.202
47925W        W20350  43.429   4.387  10.404
47926W        W20351   3.330  40.466   1.917
47927W        W20352  23.064  40.036   1.373
47928W        W20353  10.263  23.241   2.703
47929W        W20354  12.164  26.065  14.889
47930W        W20355  26.463  18.657   3.148
47931W        W20356  14.605  19.057  14.779
47932W        W20357  44.304  26.155  14.980
47933W        W20358   5.875  20.724  11.098
47934W        W20359   5.731  16.597  11.375
47935W        W20360  10.300  35.981  12.067
47936W        W20361   4.339  29.924   0.758
47937W        W20362  42.997  42.469  14.304
47938W        W20363   8.406   9.161  13.028
47939W        W20364  15.774   9.272   1.325
47940W        W20365   4.792  26.585  12.952
47941W        W20366  25.589  34.471   0.402
47942W        W20367   3.431   3.420  13.329
47943W        W20368  13.763   0.412  11.077
47944W        W20369  15.190  14.151   3.697
47945W        W20370  27.006   2.371   0.817
47946W        W20371  40.983  30.952  11.524
47947W        W20372   7.298  39.409  12.976
47948W        W20373  12.193  20.760  11.879
47949W        W20374  25.490  40.956  12.068
47950W        W20375  20.623  42.313  13.921
47951W        W20376  41.896  10.810   3.290
47952W        W20377  44.378  10.273   2.888
47953W        W20378  35.441  14.273   0.809
47954W        W20379  29.016   8.846   4.215
47955W        W20380  24.479  16.255  11.464
47956W        W20381   6.398  11.846   0.830
47957W        W20382  34.978  11.352  13.513
47958W        W20383   3.255  29.922   0.458
47959W        W20384  29.522  37.057  10.619
47960W        W20385  13.811  35.993  11.517
47961W        W20386  26.607  37.415   3.226
47962W        W20387  14.217   3.358   3.147
47963W        W20388   1.950   9.755   1.844
47964W        W20389  22.608  11.746   0.356
47965W        W20390  37.964   8.365  12.504
47966W        W20391   3.227  28.940  11.524
47967W        W20392   4.793  42.804  14.362
47968W        W20393  37.913  17.213  11.983
47969W        W20394  21.242  28.509  12.353
47970W        W20395  30.594   8.807   2.839
47971W        W20396  30.028  21.631   1.420
47972W        W20397  32.010  21.072  12.495
47973W        W20398   5.863  32.887   4.139
47974W        W20399  25.674   9.651   2.303
47975W        W20400  40.480   8.160  12.535
47976W        W20401  11.841  44.303  13.058
47977W        W20402  16.766  44.766  12.096
47978W        W20403  37.459  25.563  10.444
47979W        W20404  35.040  43.420   4.279
47980W        W20405  10.778  36.386   2.252
47981W        W20406   6.828  39.973  13.386
47982W        W20407  22.524  16.157  14.335
47983W        W20408  14.222  36.370   3.321
47984W        W20409  18.560   4.781  14.780
47985W        W20410  35.982  38.499  11.096
47986W        W20411  39.365  38.827   2.262
47987W        W20412  13.247  32.133  14.498
47988W        W20413  14.105  18.108  14.844
47989W        W20414  14.604  27.636  11.060
47990W        W20415  15.208  19.616   0.289
47991W        W20416  11.232  25.058  12.903
47992W        W20417  28.579  15.803   3.357
47993W        W20418   5.257  30.959  13.367
47994W        W20419  40.894  40.830   2.402
47995W        W20420   6.240  33.461   2.748
47996W        W20421  18.734  32.540  14.386
47997W        W20422  31.073  19.711  14.389
47998W        W20423  26.037  42.283   3.866
47999W        W20424  37.368  23.592   2.812
48000W        W20425  11.634   1.295  14.286
48001W        W20426  26.631   6.808   3.377
48002W        W20427   2.291  24.644  11.019
48003W        W20428  11.720  32.503   3.386
48004W        W20429  39.033  43.855  12.472
48005W        W20430  14.114   1.849  11.960
48006W        W20431  30.018  14.713   3.377
48007W        W20432  42.381  42.965   0.437
48008W        W20433  20.702  34.090  13.919
48009W        W20434  29.517   3.275  13.503
48010W        W20435  17.795  31.099   4.726
48011W        W20436  35.044  34.075   2.377
48012W        W20437  26.051  23.095  13.319
48013W        W20438  25.659  33.910   2.224
48014W        W20439  12.198  11.637  13.971
48015W        W20440  27.040  12.248   1.802
48016W        W20441  22.694  41.499   9.966
48017W        W20442  18.747  19.196   2.257
48018W        W20443   6.274  22.710   2.712
48019W        W20444  21.239   0.838  10.946
48020W        W20445   1.819  35.420   4.828
48021W        W20446  20.637  19.196   4.616
48022W        W20447   1.347  32.456   5.660
48023W        W20448  29.002  19.648   0.911
48024W        W20449  22.015  20.566   3.850
48025W        W20450   6.280  29.072   5.135
48026W        W20451  35.977   8.845   3.159
48027W        W20452  39.479  43.932   0.957
48028W        W20453  18.145   5.325   0.926
48029W        W20454  17.626  24.217  10.056
48030W        W20455  33.561  40.821   2.865
48031W        W20456   8.316  23.497  12.546
48032W        W20457   5.760  18.168   1.826
48033W        W20458  31.506  18.268  11.582
48034W        W20459  44.291   0.777  12.964
48035W        W20460  35.990   9.716  11.562
48036W        W20461   7.758  15.639   1.782
48037W        W20462  41.911   1.924   4.122
48038W        W20463  35.889   5.918   3.237
48039W        W20464  43.826  26.516  13.311
48040W        W20465  15.322  16.757   4.667
48041W        W20466  12.630   2.408  10.153
48042W        W20467  20.030  24.646   4.308
48043W        W20468   1.424   4.852   3.844
48044W        W20469  29.948  35.919   1.774
48045W        W20470  17.740  41.012  11.856
48046W        W20471   0.883  43.474   2.699
48047W        W20472  16.670  15.273  10.542
48048W        W20473  10.337  16.807  10.637
48049W        W20474  35.436  25.093  13.516
48050W        W20475  15.615  40.822  13.427
48051W        W20476  29.991  44.369   4.258
48052W        W20477  36.381  19.661  10.452
48053W        W20478  33.915  27.532  14.811
48054W        W20479  24.664  36.906   3.689
48055W        W20480  29.047  20.190   2.260
48056W        W20481  20.220  35.474  10.967
48057W        W20482  18.196  14.626   4.177
48058W        W20483   9.818   0.771  10.967
48059W        W20484  16.662  24.594   0.299
48060W        W20485  23.191  32.555  14.485
48061W        W20486  42.961  26.019   4.612
48062W        W20487  11.778  41.806  11.914
48063W        W20488  18.197  40.471   4.219
48064W        W20489  37.364  19.166   1.364
48065W        W20490   4.213  20.143  13.004
48066W        W20491  14.255   9.809  13.863
48067W        W20492   3.390   0.975   1.302
48068W        W20493  39.824   0.301  12.877
48069W        W20494  21.517  39.419   3.269
48070W        W20495  27.692  34.085   0.939
48071W        W20496   3.735  35.059   0.930
48072W        W20497   1.286  10.670   4.321
48073W        W20498  38.918  30.586   0.841
48074W        W20499  19.155   9.394   3.258
48075W        W20500   1.280  30.453   0.881
48076W        W20501   5.375   7.748  10.602
48077W        W20502  11.816  35.918  13.794
48078W        W20503   9.644  27.995   1.329
48079W        W20504  22.010  34.588   4.234
48080W        W20505   4.396   6.889  13.464
48081W        W20506  44.401  20.598   4.281
48082W        W20507  22.060  40.435   3.166
48083W        W20508  27.128  40.354   3.263
48084W        W20509  18.745  12.826   2.295
48085W        W20510  37.968  10.842  12.478
48086W        W20511  19.050  17.148  14.344
48087W        W20512   1.286   7.322   2.228
48088W        W20513   1.342  40.049  14.298
48089W        W20514   1.958  37.340   2.819
48090W        W20515  34.868  42.792   4.152
48091W        W20516  33.106  40.012  11.100
48092W        W20517   6.356  40.439  14.324
48093W        W20518  19.661  28.047   4.150
48094W        W20519  38.508   2.363  10.478
48095W        W20520  16.777  25.011   0.477
48096W        W20521  43.797  12.282  11.941
48097W        W20522  26.125  24.152   3.253
48098W        W20523  34.507  33.026  12.525
48099W        W20524  12.614  13.336  14.314
48100W        W20525  33.520  40.330   1.765
48101W        W20526   9.296  38.358   4.682
48102W        W20527  25.605  34.973   3.254
48103W        W20528  40.981  28.955  11.917
48104W        W20529  16.238  31.409  14.411
48105W        W20530   7.760   7.862  13.312
48106W        W20531  34.058   3.851   3.309
48107W        W20532   7.175  29.668  12.005
48108W        W20533   1.880  39.997   0.416
48109W        W20534  31.413   0.299   3.223
48110W        W20535  19.099  19.695   1.315
48111W        W20536   0.968  44.473   0.848
48112W        W20537  31.579   3.439   1.366
48113W        W20538  33.892  21.713   0.963
48114W        W20539  33.462  28.991  12.913
48115W        W20540   1.352   1.457  14.954
48116W        W20541  14.245   8.207  10.415
48117W        W20542  21.174  33.574   0.349
48118W        W20543  29.517   1.828   9.925
48119W        W20544  22.038  23.989  14.506
48120W        W20545  18.587  25.576  14.456
48121W        W20546  27.571  13.772   1.737
48122W        W20547  23.515  19.593   1.250
48123W        W20548  33.918  31.421   3.796
48124W        W20549   9.293  14.338   4.606
48125W        W20550  44.762  44.366   4.665
48126W        W20551   0.756   4.892  11.472
48127W        W20552  25.035  14.220   1.387
48128W        W20553  44.995  31.903  14.392
48129W        W20554  29.152  31.014  13.055
48130W        W20555  26.065  38.350  13.843
48131W        W20556  11.353  34.915  11.509
48132W        W20557   4.754   8.806   1.902
48133W        W20558  29.456  40.506   2.363
48134W        W20559  17.145  14.809   3.772
48135W        W20560  35.877  14.738  10.953
48136W        W20561  36.884  21.250   1.810
48137W        W20562  39.540  24.172  12.441
48138W        W20563   8.185   4.818   2.196
48139W        W20564  18.682   2.294   4.312
48140W        W20565   9.886  18.182   0.827
48141W        W20566  26.132  38.534  11.097
48142W        W20567  24.064  21.706   3.718
48143W        W20568  35.875  29.076  14.409
48144W        W20569  25.662  34.983  11.608
48145W        W20570  20.700  35.362  13.976
48146W        W20571   7.315  34.492   2.844
48147W        W20572  38.052  39.828  11.029
48148W        W20573  26.582  17.729  13.441
48149W        W20574   0.831  27.687   2.823
48150W        W20575  13.753  25.124   4.754
48151W        W20576   6.222  36.397  13.506
48152W        W20577   6.873  27.480   3.365
48153W        W20578  10.847  14.635   1.221
48154W        W20579  14.735  16.620  14.494
48155W        W20580  32.539   5.771  11.515
48156W        W20581  13.226  34.532  11.865
48157W        W20582  21.057  31.403  13.864
48158W        W20583  35.955  43.468   4.247
48159W        W20584  17.635  16.745   4.607
48160W        W20585  43.812  36.389  12.957
48161W        W20586  37.933  36.574  12.925
48162W        W20587  35.461  25.962   2.812
48163W        W20588  32.014   1.369   0.255
48164W        W20589  40.000   7.233   4.662
48165W        W20590  16.095  16.120  12.941
48166W        W20591   2.287  15.095   4.690
48167W        W20592  18.719  30.067  14.373
48168W        W20593  39.330   7.380   2.182
48169W        W20594  33.927  22.208  12.047
48170W        W20595   3.405   6.253  13.448
48171W        W20596  39.353   1.265  13.880
48172W        W20597  32.944  38.949  13.029
48173W        W20598   2.930  39.384  13.797
48174W        W20599  35.965  41.403  10.509
48175W        W20600  27.627  22.149  11.945
48176W        W20601  11.293   2.348  11.897
48177W        W20602  21.625   1.820  10.508
48178W        W20603  34.097  26.591  12.397
48179W        W20604  27.079   6.292  11.542
48180W        W20605  33.118  30.536  12.389
48181W        W20606  11.209  10.172   0.868
48182W        W20607  10.762  19.662   3.795
48183W        W20608  37.006  19.169  12.895
48184W        W20609  24.549   0.324  12.084
48185W        W20610  29.090  40.484   4.699
48186W        W20611   4.713  28.489  14.367
48187W        W20612  22.214   5.435  14.797
48188W        W20613  40.833   1.846  12.944
48189W        W20614  10.369   0.796   4.744
48190W        W20615  36.003  28.119   3.860
48191W        W20616  12.710  35.079  13.409
48192W        W20617  22.051  27.192   3.727
48193W        W20618   6.263  14.207   1.333
48194W        W20619   2.807  24.098   4.121
48195W        W20620   3.312  38.006  12.069
48196W        W20621  30.525  42.977  14.426
48197W        W20622  23.612  31.943   3.830
48198W        W20623   9.759  38.332  12.352
48199W        W20624   0.787   2.420   4.794
48200W        W20625  24.502  16.269  12.560
48201W        W20626  36.990  16.097   1.700
48202W        W20627  33.085  13.760  13.844
48203W        W20628   3.867  31.602  11.069
48204W        W20629  40.509  21.713   5.113
48205W        W20630  22.037   7.185  12.948
48206W        W20631  18.577  39.824  11.883
48207W        W20632  38.563  40.357   3.696
48208W        W20633   7.231  21.739   3.741
48209W        W20634  12.786   4.777   4.625
48210W        W20635  18.566   9.815  14.424
48211W        W20636  20.191  39.349   2.820
48212W        W20637  10.350  32.574   1.905
48213W        W20638  34.987  15.249  13.428
48214W        W20639  26.093  42.350  14.818
48215W        W20640  36.442  36.465  12.986
48216W        W20641   3.805  27.096   3.838
48217W        W20642   1.903   8.687   2.771
48218W        W20643  44.987  16.719  14.370
48219W        W20644  37.387  13.250  11.416
48220W        W20645  11.313  24.652   2.253
48221W        W20646  19.230  22.186  14.418
48222W        W20647  26.155  17.244  14.332
48223W        W20648  13.688  11.834   0.906
48224W        W20649  16.304  37.378   2.406
48225W        W20650   8.191  20.047   3.691
48226W        W20651   2.438  22.214  12.408
48227W        W20652  16.780  32.116  13.878
48228W        W20653  44.347  18.571   2.413
48229W        W20654  29.516   5.387   1.432
48230W        W20655  21.071  43.322  12.966
48231W        W20656  20.066  33.550   2.210
48232W        W20657  25.674  19.592  10.064
48233W        W20658  26.140   7.680   1.827
48234W        W20659  32.948  28.051   0.749
48235W        W20660  25.681   4.763  12.966
48236W        W20661  43.855   2.363   4.303
48237W        W20662  10.302  36.023   2.291
48238W        W20663  13.130  36.395   3.312
48239W        W20664   0.437  35.057  11.075
48240W        W20665  30.529  43.791  14.412
48241W        W20666  26.129  27.167  12.547
48242W        W20667   9.297   1.963  13.953
48243W        W20668   0.449  10.751   1.894
48244W        W20669  40.347  23.506  13.320
48245W        W20670   7.900  14.153  13.378
48246W        W20671  37.860  40.834   1.869
48247W        W20672  22.601  36.489  10.108
48248W        W20673  17.129  21.525   2.814
48249W        W20674   1.958  33.879   4.203
48250W        W20675  11.289  37.053  14.396
48251W        W20676  23.638   3.367   4.257
48252W        W20677  38.947  23.660  11.528
48253W        W20678  22.558  22.744  13.394
48254W        W20679   1.260  18.774  10.896
48255W        W20680  10.284  13.649  13.491
48256W        W20681   1.918   3.734   3.385
48257W        W20682  28.084  10.180  11.442
48258W        W20683  39.834   6.213  12.380
48259W        W20684  36.951   2.820   0.906
48260W        W20685  34.549   9.307   2.717
48261W        W20686  15.147  11.313  12.420
48262W        W20687   3.887  13.743  10.968
48263W        W20688  19.267  16.588   3.356
48264W        W20689  34.489  11.839   2.696
48265W        W20690  10.324   4.390  14.794
48266W        W20691  34.563  19.558  13.913
48267W        W20692   3.460  43.298  10.945
48268W        W20693   2.388   0.961  12.526
48269W        W20694  11.765  22.096  14.337
48270W        W20695   5.760   6.891  11.966
48271W        W20696   9.680  38.363   1.792
48272W        W20697   0.756  23.685   0.422
48273W        W20698  31.459  43.476   3.176
48274W        W20699  39.364   7.333  13.797
48275W        W20700  27.994   2.271   0.359
48276W        W20701   5.779  42.352   3.228
48277W        W20702  23.008  33.558   3.366
48278W        W20703   8.700  37.565  12.426
48279W        W20704  32.442  22.178  13.030
48280W        W20705  25.004  39.980  12.340
48281W        W20706  20.523   5.280  12.845
48282W        W20707  43.388  36.585   4.660
48283W        W20708  14.243  42.492   4.723
48284W        W20709  38.863   1.318   3.812
48285W        W20710  42.952  18.736  12.925
48286W        W20711  44.837  31.536  11.071
48287W        W20712  10.776  20.087   3.736
48288W        W20713  18.665  38.388   2.278
48289W        W20714  32.579  36.557  12.539
48290W        W20715  35.593  14.801  13.064
48291W        W20716  44.905  28.067   0.890
48292W        W20717  43.457   6.198  14.026
48293W        W20718   1.856  37.483  14.774
48294W        W20719  10.261   4.872   2.289
48295W        W20720  16.245  34.897   2.372
48296W        W20721  33.081  13.338  11.613
48297W        W20722  23.168  40.954   0.434
48298W        W20723  31.966  19.135  10.955
48299W        W20724  25.559  42.937   2.201
48300W        W20725  34.943  34.974  14.438
48301W        W20726  24.710  11.227  12.977
48302W        W20727  27.172  30.495  14.476
48303W        W20728  32.105  16.762   1.266
48304W        W20729  30.650  35.089  11.961
48305W        W20730  37.913  22.060   3.806
48306W        W20731  16.078  39.035   2.299
48307W        W20732  42.444  39.448  10.497
48308W        W20733  13.833   4.730  13.309
48309W        W20734  44.944  41.310  14.997
48310W        W20735  39.368  18.730   4.812
48311W        W20736  26.977   2.367  14.967
48312W        W20737  15.235  34.035  14.370
48313W        W20738   4.780  10.151   3.822
48314W        W20739  38.898   8.695  11.404
48315W        W20740  13.154  43.923  13.027
48316W        W20741   2.249  37.421  10.523
48317W        W20742  23.066  44.424  14.404
48318W        W20743  24.038  18.288   0.377
48319W        W20744  22.653   2.769   4.146
48320W        W20745  41.296  44.293   3.785
48321W        W20746   7.381   5.891   4.756
48322W        W20747  41.011   5.301  14.860
48323W        W20748  23.676  28.154  13.463
48324W        W20749  23.582  44.449   4.658
48325W        W20750  11.646   7.395  10.586
48326W        W20751  25.145  35.412   4.158
48327W        W20752  33.420   9.782   3.793
48328W        W20753  19.070   1.306   4.597
48329W        W20754  35.393  36.998  13.023
48330W        W20755  11.784  21.735   0.835
48331W        W20756  23.694   2.825   2.207
48332W        W20757  29.612  38.012   4.208
48333W        W20758   4.797  13.155  13.316
48334W        W20759  44.330  36.013   5.289
48335W        W20760  13.346   0.466  11.397
48336W        W20761  22.623   8.363   3.783
48337W        W20762   8.856  43.951  10.458
48338W        W20763  37.537  17.168  12.893
48339W        W20764   8.323  22.597   0.875
48340W        W20765  42.523  10.811  13.905
48341W        W20766   3.877  38.920  13.349
48342W        W20767  21.757  12.139  10.544
48343W        W20768  17.589  38.885   2.233
48344W        W20769  24.674  14.603  12.018
48345W        W20770   4.714   8.385   2.201
48346W        W20771  20.662   4.795   2.861
48347W        W20772  11.755  17.584   1.253
48348W        W20773  19.159  31.957   1.822
48349W        W20774  14.706  30.914   0.391
48350W        W20775  27.002   8.185  14.028
48351W        W20776  18.246  38.357   0.373
48352W        W20777  30.456  33.421   0.884
48353W        W20778  27.073  32.024   2.293
48354W        W20779  22.709  18.750   3.366
48355W        W20780  21.262  31.546  12.076
48356W        W20781   4.916   5.394   0.756
48357W        W20782  39.381  39.487   0.461
48358W        W20783  35.896  14.167   3.664
48359W        W20784  41.012   0.762   3.725
48360W        W20785  31.551  41.377  11.543
48361W        W20786  15.159  24.631  13.934
48362W        W20787  17.629  23.540  11.452
48363W        W20788   8.847  32.431   4.742
48364W        W20789   6.885  27.074   0.943
48365W        W20790  38.043  33.580  14.796
48366W        W20791   9.720  39.897   0.839
48367W        W20792  20.717   6.876  14.914
48368W        W20793  38.826   1.752   2.201
48369W        W20794  43.989  22.670   1.392
48370W        W20795   9.816  20.072  10.576
48371W        W20796   9.189   8.723   3.247
48372W        W20797   1.382  23.202  12.522
48373W        W20798  43.458  20.161  11.055
48374W        W20799  22.542  38.059   4.778
48375W        W20800   4.434  17.564  13.936
48376W        W20801  41.971  25.039   1.931
48377W        W20802  10.368  21.137  14.962
48378W        W20803  42.414  30.064  14.442
48379W        W20804  10.211  23.111  11.483
48380W        W20805  16.574  33.053  12.959
48381W        W20806  13.273  39.878   9.994
48382W        W20807  20.550  31.596  12.070
48383W        W20808   0.779  30.655  10.498
48384W        W20809  28.929   2.430   0.361
48385W        W20810  17.218  21.648  14.009
48386W        W20811  14.281  26.029   4.733
48387W        W20812  23.218  44.476  10.606
48388W        W20813  40.456  35.483  10.501
48389W        W20814  39.322  27.605   2.245
48390W        W20815  40.915  26.645   3.222
48391W        W20816  26.533  38.354  14.980
48392W        W20817  13.278  16.301   2.336
48393W        W20818  13.278   1.296  11.373
48394W        W20819  44.443   1.791   1.851
48395W        W20820  17.166  42.368  10.490
48396W        W20821  32.931  39.016  14.447
48397W        W20822  30.617  14.332  10.920
48398W        W20823   6.206  30.964   0.837
48399W        W20824   9.834  32.032   4.306
48400W        W20825  29.627  26.161   2.711
48401W        W20826  43.825  40.999   2.707
48402W        W20827  18.237  43.984  11.877
48403W        W20828  42.363  28.486  13.536
48404W        W20829  24.992  32.091   5.173
48405W        W20830  44.315  32.029   4.251
48406W        W20831  18.683  36.450   0.859
48407W        W20832   5.193  26.030  13.831
48408W        W20833  44.274   7.775  10.490
48409W        W20834  12.328  28.136  13.307
48410W        W20835  29.167  41.442   1.313
48411W        W20836   3.732  11.770   2.357
48412W        W20837  44.958  32.628   1.760
48413W        W20838   4.777  23.574   0.279
48414W        W20839  33.965  29.454  11.095
48415W        W20840  42.850  39.499   3.835
48416W        W20841   8.892  42.505   0.824
48417W        W20842  14.203  38.512  13.376
48418W        W20843  19.547  16.308   0.403
48419W        W20844   2.794   0.806  13.382
48420W        W20845  29.009  15.084   3.197
48421W        W20846   7.214   0.765  14.862
48422W        W20847  19.220  37.345   2.271
48423W        W20848   3.369  22.116   1.214
48424W        W20849  20.658   2.830   2.378
48425W        W20850  21.737  27.494   4.289
48426W        W20851  37.579  44.796   4.835
48427W        W20852  40.841  15.694  11.102
48428W        W20853  13.348  24.494   4.181
48429W        W20854  40.961   1.811   1.346
48430W        W20855  24.500  41.975  13.322
48431W        W20856  11.320  44.329   4.764
48432W        W20857  24.988  18.588  10.458
48433W        W20858  11.299   3.449  12.549
48434W        W20859  36.058   8.751  14.822
48435W        W20860  13.795  15.696   2.296
48436W        W20861  39.864  44.315   2.802
48437W        W20862  33.021  36.968  13.514
48438W        W20863  41.432  26.567   0.337
48439W        W20864  40.956  39.039  11.984
48440W        W20865  35.496   8.240  10.609
48441W        W20866  16.782  40.861   3.727
48442W        W20867  13.729   7.372   4.612
48443W        W20868  36.081  34.528  10.603
48444W        W20869  22.017  34.030   4.795
48445W        W20870   4.942  40.892  11.596
48446W        W20871  11.221  41.322  11.978
48447W        W20872  26.986  30.541  14.763
48448W        W20873  33.599  26.055  11.988
48449W        W20874   4.283  40.939   0.872
48450W        W20875  25.502  26.586   1.862
48451W        W20876  20.164  14.717   1.897
48452W        W20877  31.421   6.815   2.388
48453W        W20878   8.369  44.785   3.762
48454W        W20879  33.500  24.059  10.936
48455W        W20880   2.389  30.496   0.461
48456W        W20881  29.659  26.660  10.009
48457W        W20882   0.804  29.569  10.515
48458W        W20883  16.794  26.042   1.261
48459W        W20884  21.229  34.999  13.336
48460W        W20885  18.142  34.469  11.112
48461W        W20886  17.259  13.116  11.564
48462W        W20887   9.359  10.778   3.364
48463W        W20888  16.114  28.508   0.866
48464W        W20889  18.627   0.962   0.410
48465W        W20890  34.542  28.593  13.343
48466W        W20891   2.231  23.670   4.623
48467W        W20892   5.390  29.428   4.834
48468W        W20893   5.762   6.380   1.888
48469W        W20894  44.483  15.724  14.902
48470W        W20895   8.758  13.810  10.462
48471W        W20896  30.926   9.856   0.322
48472W        W20897  30.444  40.378   1.347
48473W        W20898  40.007  36.054  11.507
48474W        W20899  35.544  16.590  13.362
48475W        W20900  26.004  12.623  10.409
48476W        W20901  32.957  27.947  14.947
48477W        W20902  44.353  38.942  11.877
48478W        W20903  17.665  26.662  12.356
48479W        W20904   0.308  30.487   3.381
48480W        W20905  38.966  15.187  11.474
48481W        W20906  20.224  34.118   2.757
48482W        W20907  14.111  39.374  13.967
48483W        W20908  10.338  14.320  12.508
48484W        W20909   1.274  16.762   4.260
48485W        W20910  33.533  23.990   4.762
48486W        W20911   8.819  11.834  11.511
48487W        W20912  41.864   0.930  14.429
48488W        W20913  16.754   3.325  10.472
48489W        W20914  32.534  44.454   3.174
48490W        W20915  14.215  39.889  13.541
48491W        W20916  34.583  29.475  12.570
48492W        W20917   7.220  33.396   0.368
48493W        W20918  20.746  39.931   2.415
48494W        W20919  22.130  28.579   2.669
48495W        W20920   5.264  15.743   1.216
48496W        W20921  14.695  29.486   2.874
48497W        W20922   8.894  12.823   3.683
48498W        W20923  17.709  22.549   3.297
48499W        W20924  34.069  38.872  11.104
48500W        W20925  35.573   1.952  11.910
48501W        W20926  23.030   8.693   4.245
48502W        W20927  17.274  21.022   3.164
48503W        W20928   1.868  32.428   1.792
48504W        W20929  40.956   9.286  13.030
48505W        W20930  42.878  31.120  12.973
48506W        W20931  44.338   1.963   9.944
48507W        W20932  35.468  38.906  14.865
48508W        W20933  38.888   3.933  13.370
48509W        W20934  33.987  30.602   2.177
48510W        W20935   7.354  16.176   4.627
48511W        W20936  42.924   1.929  14.958
48512W        W20937  26.666   0.272   3.723
48513W        W20938  41.511  35.952  11.450
48514W        W20939  31.575   0.742  14.420
48515W        W20940  43.888   2.860  11.044
48516W        W20941  23.242   5.801   3.342
48517W        W20942  27.051   9.211   1.260
48518W        W20943  39.461   0.971  12.482
48519W        W20944  29.432  19.101  13.996
48520W        W20945  43.483   3.927  12.471
48521W        W20946  13.192   6.334  13.404
48522W        W20947  32.538  13.306   0.349
48523W        W20948  42.465  40.504   4.210
48524W        W20949  32.497   8.278   2.840
48525W        W20950  15.779  34.460  14.879
48526W        W20951  25.092  39.452   3.168
48527W        W20952  27.478  36.996  12.862
48528W        W20953  33.034  44.924   3.851
48529W        W20954  29.490  26.142   2.352
48530W        W20955  18.712  33.056   3.794
48531W        W20956  16.249  33.524  11.597
48532W        W20957  18.254  18.779  12.518
48533W        W20958  11.662  25.145   2.853
48534W        W20959   5.362   8.235  14.830
48535W        W20960  12.245  37.559  13.928
48536W        W20961  18.290  21.544   2.415
48537W        W20962  20.692  33.012  12.549
48538W        W20963   2.231  16.307   2.801
48539W        W20964  25.044  11.257  14.890
48540W        W20965  17.304   3.403   4.324
48541W        W20966   1.270  15.715  11.956
48542W        W20967  40.871  22.163   2.395
48543W        W20968   0.972  10.802   4.728
48544W        W20969  14.770   7.292  11.479
48545W        W20970  19.618  23.532  14.912
48546W        W20971  20.272   4.793  14.944
48547W        W20972  44.008  23.105  14.369
48548W        W20973   5.804  19.754  12.526
48549W        W20974  31.956  35.915  10.930
48550W        W20975  20.055   3.714   3.298
48551W        W20976   0.470  14.764   0.320
48552W        W20977  15.732  29.549   2.327
48553W        W20978  42.032   2.805   1.845
48554W        W20979  10.215  11.648  14.494
48555W        W20980  31.645  40.890   2.713
48556W        W20981  35.977  28.447  13.423
48557W        W20982  22.727  41.003  11.582
48558W        W20983  13.108  43.442  10.527
48559W        W20984  30.964  24.050  14.421
48560W        W20985  18.561  22.556  10.554
48561W        W20986  44.766  39.464  13.014
48562W        W20987  34.930   1.252  10.627
48563W        W20988  32.089   2.293   0.285
48564W        W20989  44.811  33.620   0.920
48565W        W20990  37.062  40.371   0.952
48566W        W20991  36.463  19.064   2.292
48567W        W20992  37.069  30.972  12.368
48568W        W20993  13.271  12.779   5.101
48569W        W20994   3.826   2.966  13.520
48570W        W20995  24.571  23.573   3.304
48571W        W20996  11.255  17.209  12.917
48572W        W20997  19.547  24.018   3.278
48573W        W20998  30.634  27.189  12.374
48574W        W20999  27.484  15.818  11.028
48575W        W21000  17.565  11.327  12.877
48576W        W21001  19.634   3.306  13.391
48577W        W21002  37.337  43.007   3.201
48578W        W21003  10.193  21.046  10.106
48579W        W21004  43.491   0.795  10.556
48580W        W21005  23.031  19.576  11.867
48581W        W21006  34.543   3.359  11.986
48582W        W21007   5.699   0.490  13.990
48583W        W21008  38.485  36.383  12.371
48584W        W21009  20.029  26.533   0.253
48585W        W21010   2.285   8.762   2.732
48586W        W21011  10.233  24.058  13.894
48587W        W21012  17.305  14.241   0.349
48588W        W21013  37.374  31.037  14.866
48589W        W21014  19.629  35.919  10.562
48590W        W21015  15.267  32.093   4.180
48591W        W21016  17.704  18.202  10.425
48592W        W21017  37.027  25.504   3.736
48593W        W21018  41.376  12.174  14.428
48594W        W21019  43.494  33.006   3.230
48595W        W21020  41.025  31.096  10.628
48596W        W21021   9.731  43.277  12.966
48597W        W21022  38.333  15.703   3.669
48598W        W21023  27.676   4.798  12.889
48599W        W21024  23.115  18.791  14.309
48600W        W21025  12.204  22.170  11.921
48601W        W21026  31.944  36.934   2.735
48602W        W21027  29.044  44.804   2.835
48603W        W21028   2.321  32.043   0.405
48604W        W21029  35.570   5.374  14.476
48605W        W21030   0.259  40.368  14.796
48606W        W21031  43.385  11.801  12.834
48607W        W21032  40.888   8.889  11.500
48608W        W21033  41.008  19.744  12.871
48609W        W21034  42.315  22.647   1.338
48610W        W21035  25.145  31.546   3.781
48611W        W21036  44.338  34.952  11.939
48612W        W21037   4.925  25.166  14.970
48613W        W21038   6.349  30.521   4.123
48614W        W21039   7.199   2.880  13.448
48615W        W21040  25.211  14.757   2.377
48616W        W21041  39.341  37.044   0.430
48617W        W21042  28.663  25.486  12.850
48618W        W21043  44.797  23.541  13.417
48619W        W21044   2.726  11.728  13.849
48620W        W21045  28.021  21.638  14.852
48621W        W21046  41.527   3.413   2.795
48622W        W21047   1.378  28.174  10.437
48623W        W21048  11.626  44.335   3.288
48624W        W21049   2.330   7.249  14.448
48625W        W21050   3.308  14.705   4.705
48626W        W21051  17.612  15.770  11.873
48627W        W21052   6.688  35.431  12.365
48628W        W21053  19.048   7.845   3.666
48629W        W21054  37.858  17.082   2.892
48630W        W21055  42.514   2.729   0.480
48631W        W21056  13.736  35.084  11.871
48632W        W21057  25.566  20.595   0.929
48633W        W21058  25.027   6.859  13.325
48634W        W21059  33.052   8.689   3.778
48635W        W21060  21.516   0.873   9.980
48636W        W21061  44.389  40.867   4.821
48637W        W21062  39.409  14.107   0.779
48638W        W21063  19.709  26.485  12.932
48639W        W21064  38.040   6.353   0.925
48640W        W21065  22.586  27.558  10.976
48641W        W21066  35.583   5.413  11.885
48642W        W21067  18.162  18.219   4.641
48643W        W21068  30.547  36.895   2.670
48644W        W21069   4.709   2.846   2.788
48645W        W21070  21.017  14.329   3.244
48646W        W21071  30.455   0.868  11.481
48647W        W21072  30.545  30.485  13.503
48648W        W21073  23.617  40.030   3.172
48649W        W21074  24.222  33.470   5.243
48650W        W21075  15.195  37.572   4.828
48651W        W21076  39.875  29.427   3.329
48652W        W21077  42.306  16.799   2.703
48653W        W21078   1.948  27.949  13.504
48654W        W21079  12.676  36.514  14.792
48655W        W21080  28.524  42.991  13.966
48656W        W21081  42.405   9.317   1.842
48657W        W21082  29.517  29.144  13.017
48658W        W21083   8.333  13.324  14.434
48659W        W21084  43.395  39.877  11.413
48660W        W21085   2.330   3.947  11.604
48661W        W21086   6.348  33.905  13.487
48662W        W21087  44.434  39.895  13.976
48663W        W21088  14.115  29.121   1.932
48664W        W21089  38.911  32.062   0.907
48665W        W21090  32.962  25.488   1.731
48666W        W21091   2.306   8.321   2.896
48667W        W21092  43.821  23.114  13.994
48668W        W21093  32.118  35.536   0.903
48669W        W21094  25.215  13.708   3.762
48670W        W21095  24.006  18.613  14.302
48671W        W21096   0.487  19.087  11.985
48672W        W21097   8.332  17.576   0.903
48673W        W21098  23.150   4.213   3.736
48674W        W21099   4.800  20.547  12.472
48675W        W21100  37.914   1.244   2.770
48676W        W21101  10.672  36.559   0.750
48677W        W21102  39.884  27.639   4.695
48678W        W21103  19.742  14.282  12.489
48679W        W21104  28.454  40.887  14.943
48680W        W21105  21.144  23.214  13.885
48681W        W21106  15.658   7.363  11.901
48682W        W21107  26.085  16.738   1.301
48683W        W21108  27.599  27.599   4.286
48684W        W21109  20.260  41.337   9.972
48685W        W21110   5.869  30.525  13.966
48686W        W21111  12.727   8.231   1.370
48687W        W21112  28.507  10.345   3.215
48688W        W21113  19.142  31.034   1.916
48689W        W21114  30.530  20.180  12.569
48690W        W21115  43.954   9.251  11.993
48691W        W21116  17.698  24.704  13.456
48692W        W21117  30.980  19.626   0.827
48693W        W21118  29.940  35.865  13.426
48694W        W21119   2.233  12.121  11.513
48695W        W21120  19.775  32.129  12.872
48696W        W21121  11.355   9.658  12.990
48697W        W21122  27.664  11.786  14.499
48698W        W21123  17.795  34.607  12.432
48699W        W21124  28.639  39.337  10.466
48700W        W21125   6.844  25.697   1.334
48701W        W21126  41.915  24.149  11.984
48702W        W21127  25.149  33.552   3.174
48703W        W21128  19.157  28.564   2.670
48704W        W21129  24.988  29.645  10.436
48705W        W21130   3.834  31.630   1.342
48706W        W21131  17.663   7.839   2.771
48707W        W21132   0.883  36.349   0.826
48708W        W21133   3.831  26.954  11.125
48709W        W21134  39.525  31.626  10.889
48710W        W21135  40.308  11.144  12.503
48711W        W21136  24.670   3.326   0.960
48712W        W21137   6.396  36.084  11.908
48713W        W21138  30.551  39.442  12.441
48714W        W21139   8.316   7.861   3.230
48715W        W21140  41.330  28.939  11.527
48716W        W21141   5.291   0.816  10.942
48717W        W21142  30.153  34.991   1.326
48718W        W21143  20.768  40.431   2.197
48719W        W21144  16.174   1.438  12.372
48720W        W21145  16.074   5.789   4.326
48721W        W21146  37.867  12.625  14.993
48722W        W21147   8.268   2.914   1.705
48723W        W21148   1.839   7.271   2.249
48724W        W21149  42.788  25.525  11.416
48725W        W21150  27.073  14.315   0.794
48726W        W21151   7.814   8.403  10.617
48727W        W21152  30.148  10.292   4.688
48728W        W21153  12.824  17.070   3.165
48729W        W21154  27.981   7.731  12.437
48730W        W21155  34.991  20.235  10.639
48731W        W21156  32.994  31.100  13.834
48732W        W21157  12.156  43.992  11.530
48733W        W21158  18.760  35.604   3.799
48734W        W21159  12.252   8.893  12.966
48735W        W21160  21.692  34.392   2.723
48736W        W21161  15.755  34.505  11.059
48737W        W21162   0.813  26.208  11.535
48738W        W21163  25.115  29.630  13.311
48739W        W21164  31.473  37.377  14.031
48740W        W21165   3.306  19.688   5.119
48741W        W21166  15.653   9.815  10.953
48742W        W21167  42.512  43.446  13.479
48743W        W21168  24.582  19.657   0.886
48744W        W21169  27.964  34.045  14.959
48745W        W21170  21.624  11.155  11.886
48746W        W21171  35.032  23.155  14.293
48747W        W21172   1.362  30.995  12.524
48748W        W21173  42.018   9.703  14.947
48749W        W21174  44.451  31.476   0.252
48750W        W21175   8.373  41.399   0.278
48751W        W21176  34.073  33.552   4.741
48752W        W21177  33.520  36.414   1.864
48753W        W21178  29.943  12.174   3.866
48754W        W21179  44.336  12.325   4.250
48755W        W21180   8.345  15.328   1.408
48756W        W21181  18.597   8.740  12.001
48757W        W21182   1.252  22.570  10.597
48758W        W21183  44.501  21.080   0.866
48759W        W21184  44.502  41.529   3.676
48760W        W21185   4.412   2.381   3.772
48761W        W21186  20.701  12.648  12.995
48762W        W21187  29.487  11.236   2.187
48763W        W21188  30.499   9.287   3.184
48764W        W21189  26.529  35.549   4.157
48765W        W21190  13.777   1.369   5.169
48766W        W21191  13.625   0.961   1.211
48767W        W21192  42.855  29.459   5.307
48768W        W21193   4.886  14.828  10.428
48769W        W21194  26.559  38.378   4.177
48770W        W21195   4.915  26.182   4.653
48771W        W21196  38.892  41.888  11.411
48772W        W21197  14.715  44.348  12.004
48773W        W21198  27.104  25.702   3.285
48774W        W21199  17.270  34.590  11.946
48775W        W21200  38.948  42.860   0.304
48776W        W21201  10.257  15.105   1.698
48777W        W21202  21.681  36.098  13.545
48778W        W21203  16.655   8.210   1.933
48779W        W21204   0.479  38.927   2.720
48780W        W21205  38.518  26.478  13.343
48781W        W21206  20.622  38.474   3.357
48782W        W21207   4.736  15.799   0.441
48783W        W21208  21.749  42.422   1.718
48784W        W21209   8.289  10.157  11.041
48785W        W21210  30.042  35.101  11.055
48786W        W21211   5.322  37.376   1.914
48787W        W21212   8.352  17.085   2.753
48788W        W21213   4.221  27.038   4.246
48789W        W21214  30.938   5.695   0.776
48790W        W21215  17.638  42.779   1.706
48791W        W21216   1.925  24.149   4.287
48792W        W21217  33.072  11.315   3.700
48793W        W21218  25.598  33.407   3.370
48794W        W21219  15.608  31.457   3.365
48795W        W21220  40.926  10.873  10.532
48796W        W21221  11.775   6.748  11.118
48797W        W21222   2.249  37.971   2.416
48798W        W21223  30.571  38.364  13.483
48799W        W21224  29.163   8.176  13.010
48800W        W21225  34.469  11.325   3.210
48801W        W21226  37.916  39.046  14.431
48802W        W21227   3.379  15.106  10.078
48803W        W21228  18.137   5.859  11.590
48804W        W21229  22.128  16.198   2.878
48805W        W21230  39.412   8.255   1.796
48806W        W21231  40.972  26.517   3.743
48807W        W21232  41.409   4.903   2.895
48808W        W21233  42.432  14.602  14.397
48809W        W21234  38.410  37.994  13.961
48810W        W21235  15.221  24.106  14.294
48811W        W21236  20.735  13.127  14.434
48812W        W21237  30.046  22.213  11.867
48813W        W21238  38.383   4.379  12.828
48814W        W21239  10.796   8.806  13.374
48815W        W21240  11.153   9.879  13.376
48816W        W21241  40.485   4.379   1.298
48817W        W21242  27.032   0.363   3.867
48818W        W21243   0.978  23.052  11.511
48819W        W21244   8.247  16.239   0.312
48820W        W21245  14.237  33.586  11.075
48821W        W21246  26.516  30.110  11.024
48822W        W21247  36.493  23.554  10.096
48823W        W21248  10.333  36.514  12.847
48824W        W21249  28.087  35.977  14.770
48825W        W21250   1.456   0.877   2.886
48826W        W21251  19.223  31.059   1.345
48827W        W21252  34.468  27.989  10.502
48828W        W21253  15.187  25.636   0.921
48829W        W21254   8.285  31.012   1.846
48830W        W21255  33.951   1.760  11.558
48831W        W21256  24.511   4.748  11.959
48832W        W21257  40.873  38.894   3.653
48833W        W21258  28.618   8.712  11.575
48834W        W21259   2.353   3.374   2.185
48835W        W21260  13.215  16.719   1.414
48836W        W21261  15.215  40.915  11.518
48837W        W21262  37.357  29.560  13.806
48838W        W21263  17.153  16.294   2.690
48839W        W21264   7.781  30.640  14.966
48840W        W21265  37.032   5.229  10.469
48841W        W21266  21.597  11.214  13.049
48842W        W21267  42.492  20.755  10.083
48843W        W21268  27.142  16.291  13.030
48844W        W21269  36.939  22.502  14.371
48845W        W21270  12.623   4.386   1.823
48846W        W21271   4.304  31.969  14.808
48847W        W21272   2.896  13.716  13.839
48848W        W21273  38.396   7.805  13.861
48849W        W21274  33.066   3.814  11.569
48850W        W21275  10.184  44.843   3.866
48851W        W21276  35.088   6.904  14.767
48852W        W21277  41.339  21.172  11.039
48853W        W21278  15.098  35.385   2.365
48854W        W21279  19.668   4.365  11.943
48855W        W21280  24.513  20.727  14.280
48856W        W21281   0.787  38.026   0.474
48857W        W21282  39.512  29.088  12.471
48858W        W21283   8.839  14.256   0.793
48859W        W21284  28.072  41.042   1.254
48860W        W21285   9.643  40.943  10.931
48861W        W21286  18.555  32.919  14.921
48862W        W21287  30.022  37.004  12.999
48863W        W21288  14.131  43.772   4.175
48864W        W21289  44.953  23.539  12.857
48865W        W21290   4.778   7.288  12.920
48866W        W21291  17.622  14.690   2.770
48867W        W21292   7.371   8.402   4.645
48868W        W21293  39.404   2.307  11.592
48869W        W21294  20.615  12.353   3.316
48870W        W21295  28.621  22.658   2.700
48871W        W21296  35.441   2.420   3.270
48872W        W21297  33.051  39.393  11.061
48873W        W21298  38.544  18.060   1.785
48874W        W21299  35.049  22.682   0.259
48875W        W21300  36.021  44.827  13.842
48876W        W21301  41.026  17.308  11.524
48877W        W21302  36.549  26.674   4.833
48878W        W21303  43.803  14.738   0.941
48879W        W21304  10.864   7.384  14.891
48880W        W21305  35.478  29.467  11.380
48881W        W21306  17.692  33.034  14.783
48882W        W21307   1.821  19.719   4.673
48883W        W21308  18.627  26.660  14.349
48884W        W21309  41.365  38.458  11.586
48885W        W21310  15.104  38.915  12.054
48886W        W21311   1.464  27.492  12.383
48887W        W21312  35.388  23.680   0.262
48888W        W21313  16.610  25.493   4.297
48889W        W21314  28.487  38.522   0.860
48890W        W21315  34.538  31.902   2.707
48891W        W21316  18.087  33.066  13.379
48892W        W21317  28.150  16.082   1.830
48893W        W21318  23.558  24.622  11.412
48894W        W21319   5.259  44.914   1.729
48895W        W21320  42.392  32.635   2.290
48896W        W21321  13.140   0.761  12.828
48897W        W21322  17.112  21.207  11.532
48898W        W21323  33.105  22.119  14.370
48899W        W21324  33.894   2.372   2.200
48900W        W21325  10.692  38.887  12.364
48901W        W21326  21.221  10.718  12.052
48902W        W21327  20.236  44.897   0.273
48903W        W21328  11.662  15.652  10.125
48904W        W21329  10.790  30.431   1.445
48905W        W21330   9.828  24.132  11.563
48906W        W21331  41.999  29.517   3.179
48907W        W21332  44.754  29.163   0.249
48908W        W21333   3.955  19.716  12.070
48909W        W21334   2.813  24.695  13.428
48910W        W21335  22.687  16.146  11.539
48911W        W21336  14.784  31.462   0.909
48912W        W21337   3.358  44.329   2.284
48913W        W21338   9.749   3.216   2.840
48914W        W21339  30.532  15.134  14.956
48915W        W21340   0.480  31.055   0.759
48916W        W21341  17.290   3.431   0.474
48917W        W21342   5.880  30.913  12.998
48918W        W21343  27.650   7.702   2.184
48919W        W21344   8.289  44.475  10.542
48920W        W21345  33.904  21.537   0.368
48921W        W21346  28.041  22.712  10.043
48922W        W21347  26.672  12.263   0.457
48923W        W21348  33.414  36.564  13.367
48924W        W21349   7.366  27.190  10.626
48925W        W21350   8.843  15.188   1.308
48926W        W21351  27.162  38.933   0.808
48927W        W21352   4.293  28.608   4.742
48928W        W21353  33.385  40.007  10.533
48929W        W21354  15.713  22.146  12.441
48930W        W21355  26.475  35.484  13.417
48931W        W21356  41.360  34.606  11.074
48932W        W21357  40.545  35.589  14.939
48933W        W21358  30.554  43.409  11.023
48934W        W21359  33.494   2.951   3.738
48935W        W21360  40.987  38.493   0.247
48936W        W21361  23.631  27.479   2.235
48937W        W21362  27.643  28.487  14.944
48938W        W21363  17.708   3.271  12.053
48939W        W21364   3.286  20.528   4.113
48940W        W21365  17.738  36.538   4.243
48941W        W21366  44.769  12.131  10.931
48942W        W21367  40.430  17.170  12.410
48943W        W21368  35.990   7.671  11.022
48944W        W21369  12.684  44.985  13.504
48945W        W21370  39.325  22.081  13.995
48946W        W21371  26.068  15.322  12.383
48947W        W21372   3.265  24.554  10.890
48948W        W21373  30.086  24.506   0.420
48949W        W21374  42.994  22.563  12.960
48950W        W21375  22.521   5.812   2.747
48951W        W21376  27.144   2.256  13.382
48952W        W21377  14.121   5.359   0.377
48953W        W21378   2.878  28.547  12.386
48954W        W21379   6.391  17.559  10.405
48955W        W21380  38.412  25.488   2.665
48956W        W21381  23.690  43.953   0.792
48957W        W21382   6.900   8.256  10.535
48958W        W21383   8.222  43.473   1.890
48959W        W21384   7.885  43.362   1.438
48960W        W21385   9.328  44.405  10.095
48961W        W21386   2.762  16.668  12.020
48962W        W21387  39.841  40.483   2.269
48963W        W21388  24.692  22.506   4.668
48964W        W21389  13.215  16.576   1.924
48965W        W21390   2.348  38.547   2.222
48966W        W21391   9.169  36.577   0.954
48967W        W21392  36.901  16.235   0.463
48968W        W21393  25.064  12.668  14.332
48969W        W21394  40.397  43.457   3.285
48970W        W21395  37.448  24.193  12.529
48971W        W21396  26.592  29.552   2.765
48972W        W21397  12.306  36.583   3.843
48973W        W21398  29.532  16.785   4.198
48974W        W21399  12.802  12.804   1.699
48975W        W21400   6.777  44.834   4.341
48976W        W21401  35.526  44.436   4.169
48977W        W21402  38.470   0.428  11.035
48978W        W21403  33.979  41.005   1.409
48979W        W21404  11.714   6.381  10.472
48980W        W21405  22.234  38.867   0.861
48981W        W21406  38.431  29.477  10.439
48982W        W21407  29.468   6.355  10.154
48983W        W21408  27.969  33.531   3.816
48984W        W21409  26.683  31.136   4.332
48985W        W21410  37.058  22.685  13.473
48986W        W21411  35.460  19.658  13.365
48987W        W21412  36.033  29.018   4.804
48988W        W21413  22.568  39.915  14.814
48989W        W21414  27.596  25.599   2.350
48990W        W21415  42.385  11.840   1.819
48991W        W21416   3.298  34.499   1.736
48992W        W21417  22.591   2.266  12.068
48993W        W21418  39.835  38.847  11.961
48994W        W21419  22.697  23.056   1.757
48995W        W21420  40.402  39.503  12.550
48996W        W21421  23.071  31.954   4.661
48997W        W21422  17.580  21.232  10.941
48998W        W21423  13.211   9.345   3.230
48999W        W21424   3.398  42.958  13.938
49000W        W21425  18.104  21.556  11.505
49001W        W21426   1.289   4.852   2.831
49002W        W21427   6.315   5.297  13.012
49003W        W21428  29.166  10.188  14.504
49004W        W21429   2.423  28.070  13.457
49005W        W21430  18.763  13.129   2.412
49006W        W21431  27.518  41.033  10.995
49007W        W21432  28.588  16.689   1.234
49008W        W21433  10.352  43.415   0.854
49009W        W21434  22.678  41.037   2.677
49010W        W21435  19.108  34.612   1.442
49011W        W21436  41.360  40.386   4.226
49012W        W21437  35.364   8.740  13.379
49013W        W21438   9.868  35.866  11.403
49014W        W21439  17.201  43.903  12.554
49015W        W21440  10.279  20.144  14.844
49016W        W21441  26.963  21.251   0.351
49017W        W21442  13.301  20.207   1.782
49018W        W21443  42.790   9.838  13.836
49019W        W21444   0.882  12.224  12.988
49020W        W21445  13.652  25.527  13.376
49021W        W21446   0.763  18.689  12.091
49022W        W21447  43.461  34.424   4.742
49023W        W21448  39.831  21.688   4.178
49024W        W21449  29.924  15.273  12.566
49025W        W21450  27.492   8.207  13.520
49026W        W21451  10.364  33.123   3.336
49027W        W21452  25.995  22.100   3.216
49028W        W21453  33.084  28.628  13.515
49029W        W21454  38.504  19.264   2.252
49030W        W21455  31.455  33.425  14.458
49031W        W21456  25.054   1.846   0.341
49032W        W21457  34.978  19.681  10.528
49033W        W21458  15.110  26.192  10.917
49034W        W21459  40.317  18.144  12.058
49035W        W21460  33.885  25.646  13.955
49036W        W21461  30.017  27.989  13.827
49037W        W21462  32.497   7.311  10.466
49038W        W21463   0.259  28.621  13.938
49039W        W21464   7.341   1.850   4.258
49040W        W21465  32.973  23.131  12.411
49041W        W21466   3.330  13.351  13.387
49042W        W21467  35.541  18.612   3.171
49043W        W21468  21.167   8.775   4.293
49044W        W21469  34.938   3.810   4.672
49045W        W21470  39.029  23.146  14.492
49046W        W21471  15.723  31.973   3.155
49047W        W21472  12.628  29.924   0.251
49048W        W21473   2.305   3.380  10.446
49049W        W21474  25.529  22.090  14.342
49050W        W21475  44.387  40.526  12.911
49051W        W21476  15.165  39.900   2.822
49052W        W21477   5.858   5.305  10.897
49053W        W21478  35.485  24.706   4.669
49054W        W21479  43.815   0.491  11.976
49055W        W21480  39.870  20.160   2.874
49056W        W21481  25.657  29.079  11.960
49057W        W21482  43.399  23.168  12.544
49058W        W21483  41.914  23.538   2.709
49059W        W21484  33.110  28.164  14.030
49060W        W21485  21.584  44.887  11.888
49061W        W21486  14.598  38.527  12.405
49062W        W21487  30.607  37.379   4.791
49063W        W21488   6.344  33.955   2.374
49064W        W21489   6.370  11.270  13.968
49065W        W21490  26.530   3.262  12.525
49066W        W21491  27.530   6.899  13.793
49067W        W21492  31.617  16.588  14.501
49068W        W21493   4.373   5.785  13.426
49069W        W21494  23.688  27.652   4.760
49070W        W21495  44.901  39.808   4.655
49071W        W21496  25.051  34.436   3.685
49072W        W21497  19.132  29.097   3.189
49073W        W21498   2.337   2.445   0.310
49074W        W21499  39.925  21.607   3.146
49075W        W21500  41.875  24.176  14.486
49076W        W21501  15.736  21.155  12.987
49077W        W21502  28.039  15.592  11.954
49078W        W21503  20.089   7.857  12.979
49079W        W21504  29.958  35.409  10.414
49080W        W21505  14.777   5.419   3.732
49081W        W21506   7.765  38.363   3.201
49082W        W21507  17.737  42.943   3.764
49083W        W21508  21.750   2.273  13.536
49084W        W21509  19.727   5.404   4.182
49085W        W21510  26.488   3.248  12.894
49086W        W21511  20.662  19.175   1.323
49087W        W21512   0.752   9.236   4.163
49088W        W21513  31.627  14.103   1.290
49089W        W21514   1.405  14.228   2.383
49090W        W21515   9.197  23.027   1.738
49091W        W21516  16.733   7.250  10.999
49092W        W21517  31.557  42.339   0.472
49093W        W21518   9.299   5.345   3.206
49094W        W21519  17.130  31.547  14.410
49095W        W21520  36.351  44.269   5.281
49096W        W21521  41.942  10.209  12.083
49097W        W21522  17.305  14.266   2.856
49098W        W21523  22.014  28.183   1.798
49099W        W21524  33.626  23.509  10.939
49100W        W21525  38.985   3.850   3.753
49101W        W21526  18.738   4.413   2.775
49102W        W21527  42.425  25.069   4.704
49103W        W21528  27.002  13.798  12.419
49104W        W21529  10.744  40.505  11.036
49105W        W21530  43.962  35.571  11.861
49106W        W21531  16.224  11.646  13.819
49107W        W21532  27.191  42.797  12.944
49108W        W21533   5.800  18.782   3.814
49109W        W21534  10.289   2.910   4.751
49110W        W21535  32.127   4.292   1.360
49111W        W21536  29.510  11.292   4.204
49112W        W21537  11.335  34.910   4.335
49113W        W21538  20.703  27.979  13.945
49114W        W21539  24.129   4.796  14.926
49115W        W21540  29.141  38.564  12.921
49116W        W21541   0.483  44.356   4.713
49117W        W21542  14.158  40.945  11.930
49118W        W21543  12.308  33.517  10.593
49119W        W21544  20.232  24.165  12.994
49120W        W21545  38.480  13.843   0.312
49121W        W21546  16.304  44.950  13.509
49122W        W21547  22.211  34.604   4.607
49123W        W21548  29.122  26.687  13.797
49124W        W21549   7.840  26.964  14.882
49125W        W21550  27.942  17.203  12.962
49126W        W21551  28.078  23.195   3.826
49127W        W21552  41.463  10.829  13.963
49128W        W21553  19.266   8.187  11.387
49129W        W21554  35.377  42.296  14.988
49130W        W21555   4.702  20.114  13.984
49131W        W21556  24.230  18.617   3.719
49132W        W21557   6.916  10.747   1.829
49133W        W21558  14.288  10.375  10.959
49134W        W21559  44.882   1.914   3.271
49135W        W21560  33.886  36.372  10.639
49136W        W21561  25.112  44.310   3.168
49137W        W21562   1.925  39.920  11.467
49138W        W21563  11.133  13.107  11.520
49139W        W21564  43.812  39.478  13.864
49140W        W21565  21.559  17.787   0.366
49141W        W21566  12.154  42.827   0.460
49142W        W21567   6.366  32.033  13.049
49143W        W21568  19.712  36.860  12.567
49144W        W21569  26.077   3.810   4.689
49145W        W21570  30.427  20.592  10.613
49146W        W21571  36.472  15.129  12.823
49147W        W21572  34.912  14.338  11.576
49148W        W21573   1.480  40.951  12.898
49149W        W21574  44.887  14.322  12.931
49150W        W21575   6.677  35.933   1.810
49151W        W21576   3.272   9.172   4.805
49152W        W21577  36.475  19.279   0.747
49153W        W21578  30.606  21.637   3.730
49154W        W21579  17.747   3.875   3.177
49155W        W21580  10.353   7.695   0.815
49156W        W21581  19.070  12.274  11.097
49157W        W21582  30.916  36.408  11.885
49158W        W21583  28.106  24.205   4.693
49159W        W21584   5.369  22.597  12.900
49160W        W21585  23.190  11.681   2.786
49161W        W21586  29.572  39.989  10.945
49162W        W21587  13.232  15.227   1.360
49163W        W21588  28.679   7.343   0.848
49164W        W21589   7.832  35.593  10.450
49165W        W21590  26.628  32.401  11.023
49166W        W21591  18.290  14.827   1.896
49167W        W21592  17.662   4.910  12.522
49168W        W21593  24.643  33.487  13.338
49169W        W21594   9.286   4.773  14.331
49170W        W21595  11.281   5.800  11.559
49171W        W21596  20.194   8.850  14.807
49172W        W21597  11.834   5.217  13.928
49173W        W21598  25.610  12.695  13.038
49174W        W21599  20.102  40.541   0.896
49175W        W21600  43.342  24.505   4.808
49176W        W21601  30.989  16.766   1.713
49177W        W21602  34.017  34.905   1.411
49178W        W21603  40.980  21.081   0.782
49179W        W21604  32.050   8.705  13.055
49180W        W21605  39.498  36.511   1.426
49181W        W21606   4.943  37.497   3.657
49182W        W21607  44.000  38.375  10.408
49183W        W21608  17.167  22.198   3.322
49184W        W21609  38.053  24.557   2.295
49185W        W21610  18.689  34.539  14.986
49186W        W21611  20.267   9.296  13.903
49187W        W21612  44.495  33.116  13.471
49188W        W21613  31.909  22.034  10.481
49189W        W21614  13.218   6.366   2.194
49190W        W21615  23.164  21.612   3.285
49191W        W21616   9.208  26.091   3.789
49192W        W21617  42.445  19.555   5.168
49193W        W21618   0.274  41.013   0.832
49194W        W21619  23.228  43.281   0.268
49195W        W21620   1.314  43.977   2.745
49196W        W21621  31.063   0.937  13.905
49197W        W21622  10.837  32.100   1.768
49198W        W21623   9.316  31.119   3.347
49199W        W21624  35.968   3.459   1.925
49200W        W21625  29.487  36.533  14.413
49201W        W21626  42.473  44.787  12.079
49202W        W21627  26.640  43.285   4.758
49203W        W21628  17.241  31.031   1.862
49204W        W21629  43.485  35.966   0.917
49205W        W21630  13.152   1.441   3.173
49206W        W21631   5.252  33.530  14.315
49207W        W21632  15.811   4.368   4.707
49208W        W21633   9.643  16.754  12.962
49209W        W21634   6.260  24.668   1.393
49210W        W21635   4.228   3.421   2.270
49211W        W21636   9.177  43.829  14.863
49212W        W21637  12.850   1.971  14.984
49213W        W21638  29.650  14.777  13.956
49214W        W21639  33.420  27.643   3.839
49215W        W21640   3.845  18.726   0.749
49216W        W21641  41.842  21.611   4.640
49217W        W21642  31.056  11.176  13.418
49218W        W21643  23.602  18.224   0.842
49219W        W21644  44.819   2.276  14.932
49220W        W21645  35.385  18.196   2.762
49221W        W21646  13.791  24.645   5.192
49222W        W21647   1.259   8.399   0.803
49223W        W21648  28.672   8.725   2.698
49224W        W21649  36.394   6.287   3.679
49225W        W21650   8.272  12.730   0.350
49226W        W21651  33.616  41.299   9.938
49227W        W21652  16.201  33.503  13.979
49228W        W21653  44.264  43.329   3.707
49229W        W21654   3.924  41.000   4.152
49230W        W21655  34.461  14.729  14.783
49231W        W21656  26.594   2.438   0.747
49232W        W21657  11.252  18.588  14.951
49233W        W21658  11.372   7.849  13.894
49234W        W21659  29.094  30.995   1.805
49235W        W21660  27.094  34.604  13.844
49236W        W21661  44.928  33.566   2.227
49237W        W21662   9.681  27.622   1.402
49238W        W21663  19.082  33.918   4.672
49239W        W21664   6.332  10.315  11.383
49240W        W21665  43.844  12.845   3.218
49241W        W21666  33.925  39.889  14.852
49242W        W21667  35.887  31.946   3.681
49243W        W21668  30.101  13.831   0.919
49244W        W21669  38.327  40.435   3.322
49245W        W21670  32.469   8.771   2.901
49246W        W21671   8.893  19.582  13.346
49247W        W21672  15.812  39.341   1.341
49248W        W21673  32.579  37.013  14.354
49249W        W21674  17.193   9.752   3.808
49250W        W21675   9.389  33.917   0.400
49251W        W21676   8.741  43.908  12.467
49252W        W21677  14.757  44.862  11.063
49253W        W21678  18.135  10.812   0.958
49254W        W21679  24.054  41.943   3.148
49255W        W21680  12.166  19.197   3.343
49256W        W21681  39.940  36.905  12.377
49257W        W21682   0.455  21.187   2.332
49258W        W21683   3.242  32.141   3.708
49259W        W21684  11.743  24.536  10.147
49260W        W21685  34.425  22.158   0.341
49261W        W21686   7.714  16.183  13.962
49262W        W21687  15.120  26.181  12.369
49263W        W21688  41.478  42.938  13.519
49264W        W21689  10.757  40.920   2.680
49265W        W21690   6.847  36.546   1.357
49266W        W21691  31.411  15.316   4.779
49267W        W21692   9.380  28.451   3.797
49268W        W21693  34.476  39.420  12.068
49269W        W21694  36.898  37.840   2.408
49270W        W21695  17.723  43.474  13.995
49271W        W21696  31.082  23.069  11.863
49272W        W21697   2.856  38.903   3.729
49273W        W21698  14.149  24.526   4.123
49274W        W21699   4.362  37.377  10.634
49275W        W21700   2.862  29.022   2.691
49276W        W21701  38.999  12.331   3.236
49277W        W21702   3.237  22.035  11.070
49278W        W21703   5.861   3.768   1.896
49279W        W21704  13.622  15.251  14.388
49280W        W21705  28.150  10.149   1.773
49281W        W21706   6.909  42.823  13.014
49282W        W21707  40.345  16.118   1.431
49283W        W21708  16.211  17.604   3.158
49284W        W21709  38.569   9.267   0.796
49285W        W21710   1.473  32.608   0.311
49286W        W21711  30.161  15.723  12.888
49287W        W21712  33.513  13.326   4.295
49288W        W21713  10.835  12.147   2.373
49289W        W21714  28.502  11.704  14.346
49290W        W21715  43.983  34.021  10.993
49291W        W21716  37.339   1.435  11.057
49292W        W21717  28.067  34.950  13.955
49293W        W21718   6.407  24.481  10.521
49294W        W21719  43.349  43.287  12.012
49295W        W21720  33.968  39.433   1.748
49296W        W21721   1.848  20.200   0.825
49297W        W21722  13.782  40.366   0.942
49298W        W21723  34.874   9.788   1.363
49299W        W21724  38.381  32.003   2.259
49300W        W21725  32.103  15.141  10.556
49301W        W21726  29.934  41.885  12.480
49302W        W21727  37.046  40.814   3.780
49303W        W21728  20.035   3.794  11.537
49304W        W21729  40.397  10.313  12.946
49305W        W21730  17.273   0.361   1.272
49306W        W21731  21.243   8.198   0.804
49307W        W21732  20.044  34.425   1.413
49308W        W21733   8.281  41.521  11.901
49309W        W21734  32.047   2.272   5.246
49310W        W21735  33.481   2.371  12.954
49311W        W21736  18.154   4.783  11.604
49312W        W21737  17.120  40.040  14.837
49313W        W21738  13.660   1.352  13.908
49314W        W21739  21.239  20.151   4.275
49315W        W21740   7.353   0.316  14.350
49316W        W21741  44.485  33.896   3.703
49317W        W21742  22.576   1.872  10.141
49318W        W21743  17.174  13.629   3.265
49319W        W21744  27.991  29.438   4.719
49320W        W21745   6.725  15.135   3.731
49321W        W21746   1.349  29.103   4.835
49322W        W21747  28.529   6.844   2.872
49323W        W21748  36.462  30.071  10.938
49324W        W21749  41.516  19.193   1.795
49325W        W21750   5.697   7.808   2.404
49326W        W21751  19.541  22.156   2.335
49327W        W21752  16.598   8.378   2.305
49328W        W21753   8.254  33.951   3.764
49329W        W21754  33.484  28.937  10.507
49330W        W21755  11.362  15.749   1.885
49331W        W21756  23.513  31.085  13.010
49332W        W21757  22.059  15.703  13.542
49333W        W21758  21.132  26.654  14.817
49334W        W21759  35.480  24.215  11.374
49335W        W21760  43.903  25.005  13.933
49336W        W21761  39.879  41.820  11.050
49337W        W21762   6.896  34.905  14.293
49338W        W21763  29.625  16.778   0.368
49339W        W21764  23.729  32.466   9.470
49340W        W21765  18.674  36.538  12.519
49341W        W21766  40.418  28.011   4.217
49342W        W21767  32.128  17.258   2.340
49343W        W21768  13.265  25.998  12.972
49344W        W21769  28.015  11.737   4.823
49345W        W21770  10.774  16.302  13.411
49346W        W21771  36.895  39.492  13.894
49347W        W21772  34.079   5.740   1.703
49348W        W21773  35.551   5.824   0.958
49349W        W21774  26.639  28.528  14.417
49350W        W21775  32.936  42.398  13.816
49351W        W21776   3.384  22.193   2.902
49352W        W21777  11.338  15.201   4.603
49353W        W21778  33.106   1.848  14.786
49354W        W21779  11.652  20.607  13.327
49355W        W21780  14.823  31.999  11.955
49356W        W21781  29.979  14.113   1.811
49357W        W21782  32.586  19.553  11.546
49358W        W21783   6.854  24.599  12.090
49359W        W21784  18.211   4.225  12.463
49360W        W21785  16.284  38.568   2.378
49361W        W21786   9.753  34.477  13.911
49362W        W21787  31.514  39.537  10.911
49363W        W21788  15.223   5.891  13.879
49364W        W21789   2.772  44.811   4.334
49365W        W21790  26.545   7.713  13.884
49366W        W21791  29.480  16.605  12.960
49367W        W21792  26.181  32.927  14.831
49368W        W21793  26.504  34.414   4.669
49369W        W21794  34.999   0.852  12.357
49370W        W21795  24.053  32.103  11.000
49371W        W21796   5.821  38.841  11.573
49372W        W21797   8.311   5.763   1.405
49373W        W21798   6.204  13.696  11.393
49374W        W21799  43.971  28.627  13.009
49375W        W21800  39.838  31.132  10.466
49376W        W21801  32.034  36.976  14.329
49377W        W21802  15.737  19.110  13.473
49378W        W21803  25.694  24.523   3.866
49379W        W21804  25.695  21.221  12.978
49380W        W21805   9.838  21.556   3.199
49381W        W21806   6.875  24.034   2.826
49382W        W21807   7.414  17.269  14.483
49383W        W21808  44.760  21.126   4.836
49384W        W21809   9.263   2.370  10.602
49385W        W21810  29.032  23.158   5.264
49386W        W21811  10.805  16.646  10.967
49387W        W21812  18.698  35.430   3.219
49388W        W21813  38.820  32.588   3.756
49389W        W21814  10.737  34.868   2.218
49390W        W21815  13.189   4.282  10.537
49391W        W21816  43.311   6.893  14.453
49392W        W21817  38.899  40.800  11.088
49393W        W21818  38.941  21.674  11.440
49394W        W21819  39.017  38.339   1.786
49395W        W21820  27.558  14.221  14.817
49396W        W21821  21.512  11.755   3.807
49397W        W21822  19.228   6.408  13.879
49398W        W21823  25.590  22.722  11.471
49399W        W21824  21.179  28.081  14.777
49400W        W21825  10.278  39.377   4.261
49401W        W21826  12.789  30.026   1.343
49402W        W21827   7.789  12.852   2.675
49403W        W21828  39.388  33.416  12.436
49404W        W21829  32.065  11.813   0.315
49405W        W21830  41.797  11.290  14.498
49406W        W21831  15.723  12.709  14.479
49407W        W21832  30.109  10.721  13.518
49408W        W21833  38.867  23.489  13.008
49409W        W21834  40.859  36.034  14.763
49410W        W21835   9.280  16.692   0.361
49411W        W21836   1.287  11.674   0.439
49412W        W21837  41.313  42.861   0.729
49413W        W21838  40.027  32.112  11.952
49414W        W21839  16.687  25.624   4.739
49415W        W21840  14.141  43.784  12.073
49416W        W21841  29.569  42.900  14.345
49417W        W21842  28.001   6.302  11.508
49418W        W21843  39.493  39.971  11.459
49419W        W21844  28.165  27.458   3.788
49420W        W21845  42.425   1.879   4.153
49421W        W21846   5.228   4.709   1.415
49422W        W21847  28.559  34.527  13.057
49423W        W21848  33.578  37.437  13.933
49424W        W21849   1.411  39.537   3.672
49425W        W21850  35.450  43.847  14.907
49426W        W21851  43.848  18.704   0.282
49427W        W21852   1.790   9.651   4.236
49428W        W21853  23.602  36.878  12.448
49429W        W21854  15.195  10.206   2.666
49430W        W21855  29.106  36.559   1.703
49431W        W21856   3.785  35.933   1.364
49432W        W21857   5.221  27.990   4.137
49433W        W21858   3.834  23.158   4.813
49434W        W21859  29.488   6.256   4.629
49435W        W21860  12.267  33.568  13.985
49436W        W21861  20.046   9.380  10.405
49437W        W21862  27.111  21.231  12.549
49438W        W21863  14.272  41.512  12.533
49439W        W21864  42.971   4.306  14.333
49440W        W21865  14.687   9.674  13.898
49441W        W21866  31.002  13.316   2.330
49442W        W21867   6.368  42.018  11.452
49443W        W21868  14.109  37.888   4.792
49444W        W21869  15.606  21.094   4.266
49445W        W21870  18.664  21.166   1.808
49446W        W21871  35.402  40.039   1.418
49447W        W21872  36.994  22.156   0.812
49448W        W21873  13.787  43.961  13.888
49449W        W21874  38.065  24.214   4.651
49450W        W21875  31.495  26.954   2.845
49451W        W21876  23.525  23.091  14.453
49452W        W21877  40.322  11.197   0.902
49453W        W21878  17.288  13.620   2.202
49454W        W21879  18.592   9.744   1.423
49455W        W21880  14.820   4.400  12.403
49456W        W21881  18.094  23.590   2.668
49457W        W21882  25.577   4.765   4.622
49458W        W21883  16.756  30.603   4.146
49459W        W21884  32.406  34.537   4.183
49460W        W21885   8.403   7.398   1.349
49461W        W21886  43.985  26.656   3.671
49462W        W21887   9.198  43.870   2.212
49463W        W21888  14.777  39.873  10.589
49464W        W21889  11.689  31.454   3.221
49465W        W21890  39.823  25.511   1.777
49466W        W21891  38.050  32.102   2.853
49467W        W21892  39.990  33.080   2.857
49468W        W21893  22.172  29.091  11.463
49469W        W21894  29.458  22.025   1.393
49470W        W21895   4.806  29.437   0.827
49471W        W21896  32.564  28.062   0.862
49472W        W21897   2.824  19.770  12.489
49473W        W21898   3.363   7.225  14.398
49474W        W21899  26.163  13.146  10.637
49475W        W21900  31.569  20.199   2.897
49476W        W21901   0.471  43.795  14.997
49477W        W21902  13.188  37.501  11.004
49478W        W21903  32.496  17.641  14.849
49479W        W21904  30.519   1.427  10.415
49480W        W21905  39.531  27.492  14.368
49481W        W21906  31.426   4.864  14.978
49482W        W21907   1.931  37.543  12.432
49483W        W21908  44.321  14.303  14.434
49484W        W21909  35.370  40.484   4.625
49485W        W21910  42.875   9.805   1.712
49486W        W21911  19.066  41.804   2.819
49487W        W21912  42.908  16.078  11.479
49488W        W21913   4.726  26.057  13.415
49489W        W21914  19.715  42.461  11.072
49490W        W21915  32.915  13.617  13.463
49491W        W21916  38.537  16.633  14.796
49492W        W21917  13.213  44.769  13.479
49493W        W21918   1.289   6.333   4.174
49494W        W21919   5.429  17.301  10.031
49495W        W21920  31.618   0.827  14.774
49496W        W21921   6.200  44.001  12.548
49497W        W21922   8.213  40.380   4.320
49498W        W21923  31.408   8.231   4.771
49499W        W21924   2.801  38.390   4.137
49500W        W21925  14.764  44.977   0.818
49501W        W21926   0.481   6.778  12.465
49502W        W21927   4.256  24.659  13.793
49503W        W21928   1.917  39.998   2.351
49504W        W21929  35.038  32.605  11.939
49505W        W21930  44.800  37.513  13.971
49506W        W21931  27.979  17.061   2.870
49507W        W21932  11.766   8.848   0.918
49508W        W21933  20.684  20.138  12.079
49509W        W21934  28.172  16.677  14.298
49510W        W21935  20.065  31.526   3.635
49511W        W21936  15.251  38.928  13.543
49512W        W21937   4.855  28.541   3.690
49513W        W21938   8.847  27.985   4.260
49514W        W21939  27.035  22.682   4.215
49515W        W21940  12.191  17.304   0.392
49516W        W21941   7.400   6.750  12.005
49517W        W21942  24.068   6.267   2.740
49518W        W21943  12.249  17.240   4.341
49519W        W21944  23.611  10.716  14.405
49520W        W21945  43.869  26.112   1.914
49521W        W21946   1.870  38.973  12.852
49522W        W21947  11.296   1.450  14.859
49523W        W21948  28.999  27.118   2.212
49524W        W21949  32.954  37.378   3.206
49525W        W21950  40.935  14.275   1.724
49526W        W21951  14.694  42.412   2.199
49527W        W21952   6.184  17.258   4.197
49528W        W21953  31.129  31.481   3.364
49529W        W21954  34.546   6.848   3.274
49530W        W21955  27.151   4.718  11.945
49531W        W21956   5.858  39.333  14.797
49532W        W21957  40.518  20.057   1.761
49533W        W21958   0.870  35.021  14.004
49534W        W21959   9.283   1.273  10.587
49535W        W21960  16.257  36.531  12.927
49536W        W21961  20.530   5.912   0.425
49537W        W21962  20.744  30.049  11.588
49538W        W21963  39.013   0.793  13.828
49539W        W21964   4.449   4.397   2.664
49540W        W21965  16.735  40.448   4.786
49541W        W21966  34.100  36.518  10.889
49542W        W21967  12.330  32.411  12.069
49543W        W21968  35.894  11.715   0.295
49544W        W21969  18.555  18.240   0.458
49545W        W21970  28.105  22.171   3.776
49546W        W21971  10.685  23.663   9.924
49547W        W21972   1.435  10.321  10.534
49548W        W21973   4.770  39.482  13.481
49549W        W21974   3.277   2.279  10.979
49550W        W21975   8.277  36.971   3.246
49551W        W21976   7.298  35.019  11.991
49552W        W21977  20.272   9.878  12.430
49553W        W21978   9.341  42.982  13.939
49554W        W21979  36.938   0.395   4.248
49555W        W21980  35.958  37.056   3.859
49556W        W21981  28.983  42.454  12.991
49557W        W21982  32.598  38.332  14.913
49558W        W21983   5.813   5.841   2.214
49559W        W21984   2.333  29.002   2.211
49560W        W21985  34.939  30.131   4.696
49561W        W21986  44.795  15.167   3.677
49562W        W21987   9.321  29.437   2.338
49563W        W21988  40.545   8.715   1.708
49564W        W21989  35.886  37.949  11.893
49565W        W21990  30.053  42.849   1.713
49566W        W21991  40.367  13.641   3.753
49567W        W21992  30.436  44.420  10.588
49568W        W21993  15.193  36.855  10.537
49569W        W21994  35.040  10.185  10.003
49570W        W21995  37.346  21.722   4.341
49571W        W21996   8.874  19.274   4.287
49572W        W21997   6.715  26.158  12.456
49573W        W21998  14.789   2.232   5.150
49574W        W21999  26.672  30.556  14.837
49575W        W22000  19.074  40.037  10.499
49576W        W22001  15.242  39.416  12.431
49577W        W22002  33.959  40.925   4.149
49578W        W22003   8.297  28.936   1.348
49579W        W22004   5.417  36.049  12.062
49580W        W22005  24.221  17.088   2.206
49581W        W22006  16.728  22.547   2.310
49582W        W22007  38.961   2.741   3.224
49583W        W22008  42.420   6.368   3.702
49584W        W22009  22.693  16.185  10.058
49585W        W22010  33.875   0.987  13.986
49586W        W22011  38.889  33.925   1.758
49587W        W22012   2.404  21.086   1.259
49588W        W22013   6.883  24.679  12.944
49589W        W22014  34.940  34.399   3.238
49590W        W22015  15.177   7.320   4.271
49591W        W22016  11.186   2.418   4.170
49592W        W22017  43.445  12.751  13.525
49593W        W22018  39.870   2.918  13.912
49594W        W22019  35.571  24.088  12.431
49595W        W22020  37.522  19.217  12.562
49596W        W22021  21.684   0.401  11.586
49597W        W22022   6.748   2.901  14.429
49598W        W22023  25.138  22.173   3.633
49599W        W22024  34.103  27.659   3.313
49600W        W22025  34.434  36.906   4.180
49601W        W22026  27.171  19.758  12.397
49602W        W22027  22.520  23.587   2.676
49603W        W22028   8.790  15.285  14.413
49604W        W22029   7.810  34.522  14.789
49605W        W22030  32.059  35.878   1.847
49606W        W22031  32.910   2.449   4.334
49607W        W22032   6.306  40.448  14.846
49608W        W22033  44.907  44.284  13.029
49609W        W22034   4.717   1.405  14.432
49610W        W22035  10.367  32.948   3.732
49611W        W22036  36.371  29.500   4.330
49612W        W22037  16.568  20.111  13.832
49613W        W22038  10.767  18.250   4.214
49614W        W22039  38.377   4.308  12.508
49615W        W22040  28.583  19.662  13.868
49616W        W22041  42.932  42.940   0.961
49617W        W22042  28.049  22.158  13.980
49618W        W22043  14.730  14.804  11.899
49619W        W22044  12.631  31.026  11.452
49620W        W22045  26.062  13.648   1.429
49621W        W22046  32.485  26.697  13.939
49622W        W22047  38.476   9.149   1.216
49623W        W22048  35.589  11.176   1.395
49624W        W22049  42.455   0.320   0.396
49625W        W22050  25.711  12.219  10.579
49626W        W22051   4.338   0.909   4.345
49627W        W22052  29.175   7.247  11.441
49628W        W22053   6.728  12.339  10.909
49629W        W22054  16.292  26.154  12.862
49630W        W22055  27.465  28.655   1.450
49631W        W22056  22.717  15.579  10.530
49632W        W22057  38.896   6.829  13.432
49633W        W22058   5.293  19.073   1.408
49634W        W22059   8.771  14.592  10.516
49635W        W22060  39.902  25.675  14.028
49636W        W22061  15.326  32.043   5.272
49637W        W22062   5.330  38.373  14.977
49638W        W22063  22.641  37.347   5.200
49639W        W22064  18.149  14.156  13.040
49640W        W22065   9.304  11.817   1.934
49641W        W22066   1.358  37.998  10.473
49642W        W22067  36.899  26.548   2.412
49643W        W22068  38.413  16.707  10.535
49644W        W22069  21.660   9.747   1.369
49645W        W22070  43.892  35.863   3.322
49646W        W22071  25.518   7.252  10.087
49647W        W22072  40.402  40.980   3.694
49648W        W22073  44.391  39.000   1.872
49649W        W22074  10.874  40.845   3.225
49650W        W22075  10.656  25.553  11.405
49651W        W22076   5.738  16.142   3.792
49652W        W22077   6.702  30.050   0.437
49653W        W22078  23.510  35.952   1.342
49654W        W22079  44.826  25.977   3.340
49655W        W22080  34.416  32.444   3.197
49656W        W22081   2.431  13.627   1.854
49657W        W22082  31.076  36.556   0.936
49658W        W22083   0.294  11.168   1.226
49659W        W22084  11.330  39.340  11.380
49660W        W22085   8.252  12.742  10.638
49661W        W22086   6.230  28.040  13.807
49662W        W22087  24.627  17.799  11.513
49663W        W22088  26.200   0.764  13.913
49664W        W22089   4.763  43.984   0.782
49665W        W22090  39.907  12.309   1.356
49666W        W22091   7.703   6.360  13.851
49667W        W22092   6.224   4.271  12.436
49668W        W22093  18.213  41.458   2.260
49669W        W22094  40.396  29.919   4.724
49670W        W22095   6.885   0.878  13.835
49671W        W22096   4.260   8.396   4.807
49672W        W22097  16.229   1.962   2.387
49673W        W22098  10.321  23.057   2.398
49674W        W22099  23.156  40.332  12.394
49675W        W22100   0.760  31.613  11.023
49676W        W22101  12.172  37.498  14.328
49677W        W22102  37.396  27.471  11.890
49678W        W22103   4.269  36.878  11.007
49679W        W22104  23.685   6.889   3.284
49680W        W22105  19.751  42.964   2.698
49681W        W22106  10.648  12.826   3.680
49682W        W22107   6.278  35.562   4.741
49683W        W22108  33.486  10.656   0.258
49684W        W22109  10.255  34.116   4.685
49685W        W22110  25.671  42.984  14.835
49686W        W22111  27.674  25.132   3.782
49687W        W22112  17.152  13.799  14.794
49688W        W22113  15.236   4.869  11.029
49689W        W22114  32.619  15.817   1.434
49690W        W22115  16.220  18.663  12.468
49691W        W22116   7.293  40.476   4.257
49692W        W22117  22.231  12.134   1.789
49693W        W22118  41.341  16.137   3.164
49694W        W22119  29.021  28.144   1.913
49695W        W22120  30.532  17.666   2.740
49696W        W22121   5.811  34.440  12.558
49697W        W22122  18.674  24.612   2.676
49698W        W22123  24.995  27.077   2.867
49699W        W22124   8.244  42.406  14.418
49700W        W22125  29.133  42.808   3.262
49701W        W22126  28.550  20.530  10.942
49702W        W22127  11.277  22.151   0.349
49703W        W22128  30.949   7.284   1.802
49704W        W22129   6.296  11.674  10.947
49705W        W22130   0.803  38.879  11.088
49706W        W22131   4.743  42.831   1.858
49707W        W22132   7.766  38.875  10.505
49708W        W22133  43.848  11.840   1.418
49709W        W22134  41.979  38.432   4.212
49710W        W22135  11.672  19.696  13.432
49711W        W22136  28.669  37.871  14.457
49712W        W22137  12.651   0.428   0.944
49713W        W22138  33.593  17.203   0.811
49714W        W22139   3.343  30.082  10.434
49715W        W22140   2.935   0.952  11.908
49716W        W22141  16.096  26.166   2.739
49717W        W22142   5.379  36.511  13.512
49718W        W22143  41.369   7.873   4.172
49719W        W22144  25.043  41.369  12.553
49720W        W22145  24.145  40.425   4.247
49721W        W22146  17.200  34.922   2.339
49722W        W22147   3.804  12.300  11.983
49723W        W22148   1.450   2.419   4.728
49724W        W22149  14.592  37.019  11.021
49725W        W22150   1.363   0.470   0.779
49726W        W22151   0.811   6.266  12.033
49727W        W22152   9.187  27.182  13.881
49728W        W22153  14.329  38.541  14.338
49729W        W22154  37.980  29.984   4.678
49730W        W22155  35.584  41.989  14.458
49731W        W22156   7.854  21.613   0.749
49732W        W22157  27.150  32.901   3.308
49733W        W22158  11.199  15.598  12.939
49734W        W22159  31.059  31.911   2.356
49735W        W22160   4.253  43.923   1.702
49736W        W22161  32.007  31.000   1.933
49737W        W22162  13.733   8.758   3.631
49738W        W22163  20.034  14.285  10.956
49739W        W22164  16.772  27.071   4.126
49740W        W22165  27.007  35.567   2.759
49741W        W22166  27.124  36.521   0.366
49742W        W22167  19.728   7.410   0.366
49743W        W22168  40.822  35.884   3.172
49744W        W22169  23.130  16.085   0.426
49745W        W22170  36.389  43.399   2.695
49746W        W22171  13.243   0.926   3.810
49747W        W22172  32.134  13.753   1.316
49748W        W22173   5.360  42.841  11.085
49749W        W22174  27.049  43.895  14.968
49750W        W22175   2.253   4.885  12.412
49751W        W22176  28.669  28.117  11.001
49752W        W22177   4.905  43.283  12.956
49753W        W22178  33.096  17.726  12.962
49754W        W22179   6.247   3.814  12.927
49755W        W22180   6.843  44.758   0.257
49756W        W22181  11.775  23.573  11.961
49757W        W22182  27.946  40.994   9.453
49758W        W22183  10.713  38.402   2.210
49759W        W22184  36.085   9.697  13.332
49760W        W22185   0.292  44.965   3.162
49761W        W22186  16.238  25.477   2.819
49762W        W22187  44.833   8.848  12.838
49763W        W22188   0.436  44.470  13.842
49764W        W22189  28.579  36.873   2.345
49765W        W22190  37.464  41.379   1.864
49766W        W22191  18.655  39.436   1.254
49767W        W22192  27.471  10.815  10.602
49768W        W22193   5.786  21.652   2.331
49769W        W22194  37.382  22.589   0.952
49770W        W22195  28.962   2.834  14.009
49771W        W22196  37.565  17.637  11.033
49772W        W22197   9.197  40.836   2.413
49773W        W22198  17.564   5.744  14.931
49774W        W22199  43.339  42.314  14.853
49775W        W22200   9.220  29.145  12.492
49776W        W22201   1.870  18.216  13.835
49777W        W22202  17.788  41.840   4.151
49778W        W22203   2.728   7.824   1.708
49779W        W22204  17.625  18.635   1.709
49780W        W22205  16.608  42.819   2.406
49781W        W22206   9.866  18.551   0.813
49782W        W22207  36.376  24.581  10.472
49783W        W22208  29.990   5.689  10.975
49784W        W22209  28.930  16.168  12.386
49785W        W22210  12.314  30.440  12.455
49786W        W22211  22.554  42.346  10.453
49787W        W22212  34.923  23.505  13.064
49788W        W22213  22.524  37.072  11.953
49789W        W22214   1.856  39.366  12.049
49790W        W22215  29.946  14.226  13.974
49791W        W22216  17.127   8.165   2.740
49792W        W22217   3.247  23.570  14.867
49793W        W22218   5.230   3.397  13.364
49794W        W22219  24.652  37.935  13.316
49795W        W22220  20.562  11.256  11.916
49796W        W22221  23.594  10.264  12.080
49797W        W22222  40.038  29.001  14.009
49798W        W22223  17.558  20.194   4.170
49799W        W22224  24.511   6.227  13.806
49800W        W22225  26.649  38.539   3.777
49801W        W22226  38.902  22.728   9.934
49802W        W22227  40.016  33.903   2.701
49803W        W22228  26.626  32.586  14.448
49804W        W22229  14.280  22.150   5.647
49805W        W22230  39.453  24.586   2.753
49806W        W22231   5.359  29.035  14.950
49807W        W22232   1.313  27.570  14.841
49808W        W22233  41.806  17.071   1.878
49809W        W22234  30.441  43.271  11.511
49810W        W22235  21.127  37.426  10.585
49811W        W22236  43.362  29.986   1.264
49812W        W22237  42.412  13.226   0.424
49813W        W22238  15.288  38.563   4.264
49814W        W22239  39.903  28.592   1.789
49815W        W22240  22.611   3.855   4.615
49816W        W22241  12.702  30.583  12.432
49817W        W22242   2.890   9.797  11.965
49818W        W22243  34.378  22.049   4.117
49819W        W22244  40.045  33.030  11.879
49820W        W22245  22.225  35.561  12.980
49821W        W22246  22.046   5.787   0.781
49822W        W22247  29.115  12.684  10.433
49823W        W22248  40.980   6.735  14.491
49824W        W22249  10.755  29.059   4.216
49825W        W22250  17.083  29.558   2.210
49826W        W22251  30.939  28.535  13.041
49827W        W22252  35.364   2.855  13.425
49828W        W22253  19.554  22.571  10.490
49829W        W22254  15.740  41.538  14.500
49830W        W22255  30.088   7.178   2.760
49831W        W22256  39.455   0.278  11.544
49832W        W22257  16.144  17.063   3.854
49833W        W22258  25.166  40.040  11.532
49834W        W22259  33.564  17.173   2.183
49835W        W22260  23.239   9.657   4.658
49836W        W22261  27.467  42.439  10.999
49837W        W22262   5.353   2.853  14.291
49838W        W22263  24.676  19.691   5.117
49839W        W22264  31.002  17.170   4.273
49840W        W22265   4.763  26.518   3.356
49841W        W22266   4.907  29.510  13.966
49842W        W22267  33.506  28.451  10.890
49843W        W22268  42.918  15.657  13.318
49844W        W22269  22.007  28.976  13.512
49845W        W22270  34.382  23.149   3.662
49846W        W22271  12.152  33.981  10.505
49847W        W22272  11.622  30.504  14.795
49848W        W22273  15.669  15.212   0.244
49849W        W22274  44.381  22.047   1.822
49850W        W22275  30.034   8.310  10.592
49851W        W22276  27.680   8.814   4.750
49852W        W22277  32.948   1.941   4.805
49853W        W22278  33.582   7.793  12.918
49854W        W22279  42.320  32.521  10.531
49855W        W22280   4.369   0.439  10.992
49856W        W22281  29.930  26.030   0.323
49857W        W22282   0.892  13.106   3.218
49858W        W22283  26.064  31.407  10.501
49859W        W22284  23.165   2.818   2.216
49860W        W22285   4.884  28.112  10.473
49861W        W22286  25.542  37.574  12.870
49862W        W22287  44.806   3.889  12.397
49863W        W22288  12.354  40.336  14.284
49864W        W22289  14.589  28.038  12.434
49865W        W22290  34.987   1.395   3.216
49866W        W22291  10.823  14.250   5.250
49867W        W22292  35.072   1.447   1.914
49868W        W22293  20.052  31.489  10.508
49869W        W22294  23.536  16.099   4.295
49870W        W22295   4.381  32.099  10.427
49871W        W22296  28.499  29.521  13.792
49872W        W22297  26.469  22.050   4.157
49873W        W22298  11.640  37.057  13.002
49874W        W22299  10.251  16.197   0.884
49875W        W22300  41.871  36.964  14.000
49876W        W22301  37.837  38.054   3.709
49877W        W22302   3.733  37.835  12.830
49878W        W22303  43.952  29.973   4.142
49879W        W22304  20.203  20.206   0.840
49880W        W22305  30.633   4.354  13.464
49881W        W22306  39.463  38.471   4.751
49882W        W22307  34.593   8.393   3.661
49883W        W22308  27.656  25.475  14.922
49884W        W22309  35.088  17.117  14.332
49885W        W22310   4.359  21.561  13.852
49886W        W22311  40.463  38.028  10.981
49887W        W22312  11.781  13.794   0.739
49888W        W22313  14.779  25.635  11.446
49889W        W22314  36.356  30.495  12.960
49890W        W22315  18.634  40.476   1.224
49891W        W22316  14.738  14.618  14.432
49892W        W22317  37.006  12.826   4.202
49893W        W22318  18.774  27.681   3.795
49894W        W22319  20.716   2.437   0.327
49895W        W22320  13.226  28.022  12.939
49896W        W22321  21.083  17.148   5.087
49897W        W22322  35.573   8.669   5.744
49898W        W22323  13.705  14.276   0.274
49899W        W22324  13.192  15.155  11.996
49900W        W22325  24.172  31.582   0.953
49901W        W22326  32.093   2.245  11.595
49902W        W22327  25.479  33.466  14.852
49903W        W22328   5.296  19.713   3.634
49904W        W22329  34.521  43.299   3.642
49905W        W22330   7.326  18.121  12.494
49906W        W22331  19.665  34.984   0.482
49907W        W22332  13.710  19.699   2.720
49908W        W22333  14.752  39.336  10.543
49909W        W22334  33.478  13.155   0.441
49910W        W22335  30.101  15.699   0.424
49911W        W22336  23.690  10.213  14.826
49912W        W22337   4.323   0.794  14.948
49913W        W22338  28.553  33.078  14.278
49914W        W22339   8.823  32.453  14.354
49915W        W22340  16.726   9.217  12.019
49916W        W22341  21.161   0.469  13.952
49917W        W22342  12.134   5.199   1.246
49918W        W22343  13.224  25.059  10.565
49919W        W22344   0.757  31.064   2.893
49920W        W22345  44.898   4.909   1.923
49921W        W22346  18.720  36.854   4.275
49922W        W22347  18.786  14.118   3.213
49923W        W22348  42.471  13.105  14.006
49924W        W22349  13.113  19.772  12.364
49925W        W22350   5.344  21.541  14.476
49926W        W22351  16.627  22.049   2.699
49927W        W22352   6.201  38.397   1.922
49928W        W22353  24.519  39.340  11.987
49929W        W22354  41.851  40.395  10.482
49930W        W22355  17.769  16.116  11.980
49931W        W22356   0.743   4.720  14.967
49932W        W22357  41.441  16.767  13.379
49933W        W22358  25.021  21.221  12.052
49934W        W22359  30.982  42.293  11.461
49935W        W22360  15.237   2.914   4.764
49936W        W22361  28.091  32.489  12.949
49937W        W22362  22.653  28.531   4.599
49938W        W22363   3.335  38.356   0.316
49939W        W22364  34.056   8.865   2.187
49940W        W22365  10.649   3.779  12.517
49941W        W22366  34.490  28.948  12.033
49942W        W22367   7.266  21.196   2.798
49943W        W22368   5.894  11.364   4.696
49944W        W22369  23.681  24.045  14.354
49945W        W22370  29.068  30.564  13.924
49946W        W22371  17.686  43.375   3.854
49947W        W22372  38.413  12.645   2.866
49948W        W22373  27.533  39.007  11.531
49949W        W22374  29.135  27.998   2.303
49950W        W22375  38.412   5.722   3.742
49951W        W22376  30.441   8.358   0.866
49952W        W22377  24.157  17.780   4.797
49953W        W22378   4.912  21.023   1.876
49954W        W22379  17.154  38.518   3.796
49955W        W22380  34.924  38.997  14.388
49956W        W22381   1.872  21.666  11.098
49957W        W22382  27.473  12.211   0.396
49958W        W22383  15.637  17.712  10.544
49959W        W22384  14.638  16.614   4.135
49960W        W22385  16.088  39.460  11.884
49961W        W22386  27.184  21.513   3.771
49962W        W22387  19.610   4.283  14.495
49963W        W22388  10.679  43.924   1.304
49964W        W22389  18.229   0.355  14.448
49965W        W22390  30.548  34.582   1.884
49966W        W22391  37.418  27.128  14.513
49967W        W22392  20.754  18.229  10.512
49968W        W22393  33.989  23.075  10.887
49969W        W22394   5.433   1.968  13.975
49970W        W22395  24.634  32.096   4.766
49971W        W22396  16.145  37.376   3.643
49972W        W22397  37.926   3.385  11.491
49973W        W22398   3.856  43.884   4.770
49974W        W22399  22.172   5.419   4.669
49975W        W22400   4.269   9.673  14.881
49976W        W22401  41.458   9.840   2.192
49977W        W22402  37.986  24.647   4.704
49978W        W22403  43.368  22.565  14.317
49979W        W22404  21.231  32.605  13.838
49980W        W22405  31.942  27.945  11.001
49981W        W22406  32.425  27.992  10.145
49982W        W22407  32.543  37.942   2.215
49983W        W22408  12.258   6.305  13.533
49984W        W22409  35.083  13.677   2.790
49985W        W22410  26.014  18.150  10.919
49986W        W22411  30.039   6.215   4.609
49987W        W22412   0.351  13.245  10.640
49988W        W22413  27.984  40.325  14.442
49989W        W22414  21.241  39.991   0.376
49990W        W22415   4.412   2.747   3.148
49991W        W22416  43.774  18.065   0.786
49992W        W22417  18.628  35.887   2.808
49993W        W22418   7.289  18.225  11.983
49994W        W22419  17.283  20.091  12.988
49995W        W22420  32.984  35.428  11.553
49996W        W22421  37.947  19.736   1.861
49997W        W22422  33.523  16.231  10.487
49998W        W22423  33.597  25.673  12.023
49999W        W22424  19.121  19.634  13.357
50000W        W22425  20.154  12.260   2.697
50001W        W22426  13.344  35.003  11.588
50002W        W22427   9.383  35.435   3.797
50003W        W22428  24.479  24.986  12.527
50004W        W22429  17.585  15.174   2.714
50005W        W22430  10.174  10.317   3.361
50006W        W22431  36.417  16.609  11.528
50007W        W22432   2.937  17.631   4.812
50008W        W22433   9.229  44.477   3.826
50009W        W22434   1.949  29.496  10.495
50010W        W22435   5.431   1.769  13.308
50011W        W22436   3.847  23.509   3.381
50012W        W22437  30.018  24.179  11.425
50013W        W22438  36.886  13.206  12.055
50014W        W22439   2.295  19.564  11.128
50015W        W22440  41.430  43.902  14.447
50016W        W22441  21.214  15.678  12.356
50017W        W22442  25.992  32.120  10.450
50018W        W22443  16.647  24.208  13.851
50019W        W22444  19.596  43.365  11.420
50020W        W22445  15.728  24.091   5.278
50021W        W22446   0.937  22.107  10.462
50022W        W22447   9.368  31.506   4.756
50023W        W22448  10.739  21.179   2.362
50024W        W22449   3.270   3.740   0.469
50025W        W22450  16.748  30.155  13.337
50026W        W22451  26.526   4.760  10.628
50027W        W22452   6.247   7.316  11.538
50028W        W22453   1.274   6.387  13.548
50029W        W22454  30.448  22.719  14.763
50030W        W22455  10.642  27.461  14.912
50031W        W22456  42.983  39.022   3.738
50032W        W22457  19.106   5.708   2.735
50033W        W22458  24.076  38.467   1.280
50034W        W22459  24.141   6.403   4.824
50035W        W22460  39.985  34.383   2.739
50036W        W22461  20.700  28.447   1.443
50037W        W22462  43.354  35.366  10.438
50038W        W22463  18.265   1.896   1.343
50039W        W22464  42.484  40.523  11.092
50040W        W22465  21.565  43.469   4.775
50041W        W22466   1.903  12.654  11.931
50042W        W22467   7.390  19.184  14.446
50043W        W22468   7.904  11.764   1.275
50044W        W22469   5.235   8.711  13.012
50045W        W22470   3.771  33.892   0.357
50046W        W22471  15.236  18.775   3.231
50047W        W22472  20.625  28.087   1.341
50048W        W22473   5.227  37.414  12.372
50049W        W22474  34.011  10.741   0.894
50050W        W22475  11.148  41.844  12.954
50051W        W22476  16.166  39.460   2.189
50052W        W22477  15.278  20.732  13.970
50053W        W22478   6.798  15.823  11.376
50054W        W22479   1.956   2.386   0.273
50055W        W22480   8.325  33.405   3.662
50056W        W22481   4.916   0.335  13.819
50057W        W22482  22.072  16.729  14.477
50058W        W22483  40.489  19.083  14.835
50059W        W22484   5.386   0.844   1.336
50060W        W22485  19.134  31.408  14.005
50061W        W22486  30.101  13.731  12.868
50062W        W22487  20.242   2.838   0.932
50063W        W22488  23.171   2.456   0.822
50064W        W22489  25.613   8.876   1.910
50065W        W22490  36.367  42.883  11.008
50066W        W22491  35.444  28.672  13.533
50067W        W22492  36.890   0.808  13.326
50068W        W22493  35.046  15.795   4.304
50069W        W22494  37.071  30.634  11.950
50070W        W22495  43.389  25.503  13.386
50071W        W22496   0.395   8.235  11.612
50072W        W22497  39.533  18.570  11.867
50073W        W22498  17.195  26.673  11.554
50074W        W22499  40.855  34.014  10.969
50075W        W22500   8.176   6.769   0.252
50076W        W22501  34.036  44.970   0.727
50077W        W22502   3.825  11.716  10.007
50078W        W22503  28.114  22.139   5.246
50079W        W22504  31.480  12.231  13.870
50080W        W22505  11.771  15.235   2.819
50081W        W22506   6.833   5.781   3.357
50082W        W22507  42.913  19.227  11.100
50083W        W22508  37.353  13.292  13.949
50084W        W22509   2.787  13.330   2.834
50085W        W22510  21.099   6.189  10.514
50086W        W22511  36.561  29.574   3.713
50087W        W22512  37.015  23.052  11.528
50088W        W22513  31.615  18.622   4.240
50089W        W22514  39.539  17.299   2.277
50090W        W22515  23.200  42.398  13.343
50091W        W22516  41.952  30.431  14.321
50092W        W22517  14.178   1.323   0.931
50093W        W22518  29.545   9.706  13.861
50094W        W22519   8.726   0.355  10.532
50095W        W22520   9.775   4.877   2.375
50096W        W22521  21.018  29.578   4.755
50097W        W22522  21.156  17.703   3.827
50098W        W22523  43.790   3.722  12.437
50099W        W22524   4.749  18.761   1.321
50100W        W22525  18.669  40.423   4.813
50101W        W22526  22.696   3.363   0.852
50102W        W22527  41.027   1.928   4.824
50103W        W22528  36.384   0.822   4.253
50104W        W22529  44.936  27.195  14.386
50105W        W22530  38.050  13.731  10.998
50106W        W22531  21.134  42.824   0.825
50107W        W22532  10.207  40.528  14.362
50108W        W22533  20.597  18.669  10.928
50109W        W22534  11.152   2.818   1.821
50110W        W22535  11.193  22.661   5.590
50111W        W22536  27.075  25.543  13.043
50112W        W22537   9.299  35.899   0.476
50113W        W22538  11.213  23.074  14.369
50114W        W22539  42.783  37.526   0.393
50115W        W22540   0.302  37.424   2.815
50116W        W22541  15.760  20.122   3.696
50117W        W22542  19.277  28.938   2.336
50118W        W22543   1.237  34.476  13.810
50119W        W22544  40.384  19.570   1.338
50120W        W22545  21.638  34.585   3.329
50121W        W22546  33.910   9.218   4.788
50122W        W22547  32.411   4.936   3.203
50123W        W22548   0.486  15.663   1.889
50124W        W22549  41.807  20.131  14.302
50125W        W22550  42.907  38.830   2.311
50126W        W22551   1.472   7.838   3.372
50127W        W22552   2.891  41.525   3.163
50128W        W22553   4.439  39.338   0.883
50129W        W22554  42.921  38.353  13.837
50130W        W22555  20.656  40.929  10.429
50131W        W22556  27.678  40.336   3.792
50132W        W22557  15.739  36.028   4.181
50133W        W22558   2.342   6.745   0.731
50134W        W22559  16.647  30.442   1.861
50135W        W22560   9.215   5.250  13.829
50136W        W22561  43.855  39.865  12.436
50137W        W22562  39.454  26.666  14.866
50138W        W22563  17.618  24.974   1.794
50139W        W22564  42.424   6.406   2.296
50140W        W22565  18.091  40.315  14.008
50141W        W22566   3.331  39.828   0.435
50142W        W22567   4.816  16.641   4.260
50143W        W22568  44.454  18.769  10.513
50144W        W22569  13.339  18.590   2.824
50145W        W22570  40.912   7.908  14.346
50146W        W22571  13.762  41.455   3.343
50147W        W22572   6.310  20.250  14.975
50148W        W22573  31.635   8.679   0.308
50149W        W22574  37.458  39.328   4.649
50150W        W22575  39.843  35.466  10.482
50151W        W22576  40.934  30.943  14.934
50152W        W22577  42.350  30.636   1.771
50153W        W22578  11.282  38.855  11.386
50154W        W22579  28.615   9.207  12.081
50155W        W22580  23.730  22.736   4.712
50156W        W22581  21.242   7.801  13.022
50157W        W22582  12.357  38.520  14.395
50158W        W22583  11.734  12.806  10.108
50159W        W22584  41.296  36.399   1.214
50160W        W22585  14.276  40.963  10.460
50161W        W22586  42.512  21.256  11.978
50162W        W22587  42.518  10.665  14.461
50163W        W22588   4.908   6.877  14.948
50164W        W22589  22.045  44.487   3.810
50165W        W22590  36.026  37.550   0.425
50166W        W22591  18.188   5.886   0.818
50167W        W22592  26.554  31.922   1.762
50168W        W22593  12.207   3.275   5.147
50169W        W22594  15.205  18.073   4.761
50170W        W22595  18.772  35.860   2.257
50171W        W22596  17.125   3.920  13.026
50172W        W22597   7.283  36.067   0.931
50173W        W22598  40.424   5.927   1.300
50174W        W22599   9.341  37.929   3.355
50175W        W22600   1.767  36.856  14.492
50176W        W22601  24.192  14.219   4.270
50177W        W22602  22.157  33.038  11.506
50178W        W22603  22.554  42.482   3.348
50179W        W22604  25.132  31.637  11.005
50180W        W22605  16.708   4.389  13.480
50181W        W22606  11.160  26.097   4.707
50182W        W22607  26.145  37.441   0.412
50183W        W22608  27.952  39.977   3.727
50184W        W22609  22.027   2.810  11.926
50185W        W22610  12.207   8.358   4.765
50186W        W22611  10.356  38.407   0.775
50187W        W22612  13.123   9.883  10.503
50188W        W22613   8.290  27.686   0.892
50189W        W22614  12.617  43.367  11.450
50190W        W22615   1.870   6.691   1.428
50191W        W22616  19.114  28.113  12.506
50192W        W22617  14.150  18.099  11.416
50193W        W22618   5.324  12.613  13.457
50194W        W22619  35.958   3.248   2.738
50195W        W22620  27.659  36.427  12.092
50196W        W22621  38.445  27.659  14.896
50197W        W22622  27.514  42.812  13.345
50198W        W22623  36.589  26.629  13.308
50199W        W22624   5.843  31.550   0.795
50200W        W22625  26.580  41.935  11.012
50201W        W22626  26.208  43.010   4.185
50202W        W22627  35.583  35.462  13.351
50203W        W22628   6.678  35.865   2.899
50204W        W22629  16.601  15.277   4.116
50205W        W22630   9.247  41.041   1.761
50206W        W22631  40.348   4.805   1.257
50207W        W22632  21.054  22.100   2.746
50208W        W22633  17.258  16.277  14.392
50209W        W22634  18.564  34.028   9.988
50210W        W22635  16.733  31.039   2.392
50211W        W22636  22.103   7.808   4.291
50212W        W22637  42.307  22.566  13.340
50213W        W22638  31.576  34.515   1.802
50214W        W22639  22.069  42.893   3.149
50215W        W22640  42.995  44.996  13.375
50216W        W22641   2.749  40.431  14.844
50217W        W22642  31.502  16.770  11.089
50218W        W22643   2.897   0.430  14.763
50219W        W22644  26.497  18.766  13.041
50220W        W22645  24.026   1.826   2.688
50221W        W22646  35.487  20.685   0.840
50222W        W22647  11.866  15.640  12.077
50223W        W22648   1.255  29.580  12.905
50224W        W22649   9.811  36.015   0.301
50225W        W22650  33.037  11.254   3.328
50226W        W22651  21.722  41.042  11.868
50227W        W22652  32.067  11.182   3.799
50228W        W22653   5.828  21.616  10.528
50229W        W22654   5.700  37.883   3.297
50230W        W22655  22.709  36.847  13.042
50231W        W22656  42.883  12.758   0.898
50232W        W22657  19.069  29.618  12.865
50233W        W22658  28.974  29.663  11.933
50234W        W22659  15.617   3.238  12.024
50235W        W22660  38.043  36.860   2.412
50236W        W22661  13.120  24.647   3.662
50237W        W22662  33.595  10.164  13.328
50238W        W22663  20.675  27.948  13.514
50239W        W22664  17.674  13.154   1.890
50240W        W22665  36.481  12.192  13.486
50241W        W22666  17.626  25.074  12.994
50242W        W22667  33.563  19.755  11.566
50243W        W22668  33.451  34.539   3.185
50244W        W22669  15.251   3.794  10.440
50245W        W22670  13.785  32.614  11.446
50246W        W22671   9.248  22.160   1.811
50247W        W22672   1.307  29.636   0.349
50248W        W22673  40.802  34.116   2.292
50249W        W22674  28.184   7.311  14.843
50250W        W22675   5.788  19.181  11.472
50251W        W22676  37.918  36.059   2.344
50252W        W22677  19.537  14.197   3.810
50253W        W22678  29.496   9.718   0.859
50254W        W22679  23.616  19.259   1.923
50255W        W22680  41.503  31.105   3.787
50256W        W22681  11.713  15.110   3.268
50257W        W22682  10.259  41.411  11.936
50258W        W22683  10.285  32.946   0.278
50259W        W22684  29.072   4.403  10.965
50260W        W22685  20.769  21.657   1.734
50261W        W22686   3.444  43.950  10.627
50262W        W22687  30.081  24.497  12.079
50263W        W22688  21.076  23.668   3.278
50264W        W22689  34.928  10.679  13.061
50265W        W22690  27.570  18.737   3.382
50266W        W22691  20.274  44.379  10.611
50267W        W22692  21.644  12.730  13.527
50268W        W22693   0.393  20.198   3.376
50269W        W22694   7.284   9.311  11.057
50270W        W22695  19.763  42.864  13.824
50271W        W22696  14.720  19.592  12.371
50272W        W22697  27.519  41.482  14.794
50273W        W22698  10.179  18.712  11.970
50274W        W22699  32.955  18.170   4.721
50275W        W22700  44.881  22.665   2.297
50276W        W22701  25.667   5.322  11.085
50277W        W22702  17.267  22.144   0.404
50278W        W22703  27.525  22.508  13.336
50279W        W22704  26.186   4.246  10.596
50280W        W22705  33.024  20.069   0.390
50281W        W22706  39.540  42.942   3.658
50282W        W22707   3.850  33.605  13.987
50283W        W22708  39.869  35.084  10.480
50284W        W22709  12.842  29.034  12.462
50285W        W22710  44.426   3.955  13.890
50286W        W22711   6.828   3.774   2.265
50287W        W22712  20.763  10.663   3.207
50288W        W22713  34.390  26.698   3.695
50289W        W22714  40.407  44.385  11.478
50290W        W22715  33.089  24.504   1.398
50291W        W22716  38.534  27.559   1.312
50292W        W22717   2.955  33.531   1.239
50293W        W22718  43.831  19.717   1.408
50294W        W22719   4.253  16.166   4.310
50295W        W22720   8.768  38.957  14.892
50296W        W22721  29.474  43.790  11.007
50297W        W22722   2.851  40.416  10.909
50298W        W22723  24.691  39.995  14.512
50299W        W22724  21.555   5.308  11.396
50300W        W22725  20.675  21.675  14.469
50301W        W22726   7.274   3.368  12.823
50302W        W22727  24.051   1.834   2.419
50303W        W22728  20.741  19.613   3.167
50304W        W22729  43.286  12.339  12.085
50305W        W22730   5.851   8.858   1.933
50306W        W22731  36.067  13.292   1.328
50307W        W22732  32.053  15.699  10.600
50308W        W22733  12.260  36.407   4.164
50309W        W22734  12.692   8.785  12.406
50310W        W22735  35.522   4.296   3.854
50311W        W22736   3.747  38.917  14.299
50312W        W22737  10.186  29.502   3.744
50313W        W22738  29.147  14.293   3.202
50314W        W22739  17.696   5.798   3.777
50315W        W22740  40.500  44.296  14.360
50316W        W22741  28.986  35.467  13.337
50317W        W22742  23.145  28.655   0.793
50318W        W22743  40.330   4.286  11.010
50319W        W22744  29.494  23.615   0.403
50320W        W22745   4.360  38.525   4.288
50321W        W22746  18.150   9.811   3.723
50322W        W22747   4.754  12.715  12.992
50323W        W22748  22.591  34.419   0.458
50324W        W22749  35.853  16.120  11.417
50325W        W22750   6.850  44.818   2.851
50326W        W22751  22.578  12.265  11.063
50327W        W22752  23.650   3.307   4.780
50328W        W22753  18.638  24.700   1.911
50329W        W22754  12.837   6.786  14.867
50330W        W22755   6.269   4.295   0.961
50331W        W22756  42.975  33.091  14.764
50332W        W22757  25.103   1.751   1.409
50333W        W22758  38.976   0.776  12.979
50334W        W22759  23.107  44.355   1.868
50335W        W22760  32.899  16.801  12.927
50336W        W22761  21.196  10.279   2.881
50337W        W22762  25.604   3.358   1.878
50338W        W22763   9.841   3.877   1.259
50339W        W22764  12.331  13.822  13.516
50340W        W22765  16.204  20.604  14.309
50341W        W22766  17.101  30.958  12.092
50342W        W22767   9.822  14.635   0.479
50343W        W22768  26.101  11.836   3.360
50344W        W22769  23.674   5.818   1.727
50345W        W22770  26.105  25.021  13.831
50346W        W22771  35.487  22.095   1.820
50347W        W22772  13.751  44.265   1.851
50348W        W22773  21.084  40.473  12.876
50349W        W22774   4.782   0.257  12.397
50350W        W22775  11.150  29.049  10.518
50351W        W22776  24.062  14.287  12.044
50352W        W22777  14.605   9.849  12.362
50353W        W22778  30.531  20.658  11.035
50354W        W22779  36.950  28.153  12.964
50355W        W22780  37.561  44.409  14.329
50356W        W22781   0.822  35.366   1.869
50357W        W22782   2.233  32.919  13.529
50358W        W22783  32.393  20.229  10.589
50359W        W22784  26.531   7.700   2.334
50360W        W22785  33.876  26.189   2.708
50361W        W22786  22.711  39.336   2.199
50362W        W22787   2.798  42.295   2.790
50363W        W22788  37.390  41.786  14.295
50364W        W22789  29.638  12.754  13.031
50365W        W22790   0.966  18.217   1.421
50366W        W22791  43.909  20.114  12.846
50367W        W22792  25.568  24.707  13.849
50368W        W22793   0.443  44.286   2.335
50369W        W22794  42.796   0.973  12.830
50370W        W22795  42.441  40.475  12.540
50371W        W22796   3.327  22.093   4.819
50372W        W22797  38.037   4.291   0.877
50373W        W22798  32.474  41.435   0.830
50374W        W22799   7.885  34.569  12.361
50375W        W22800  39.357  26.519  10.575
50376W        W22801  11.232  43.834  13.866
50377W        W22802  20.684   8.714   4.262
50378W        W22803   2.889  43.966   4.216
50379W        W22804  30.119  32.432   4.305
50380W        W22805  35.604   4.365   0.342
50381W        W22806  16.696  22.132   2.322
50382W        W22807  29.444  37.443   1.789
50383W        W22808  12.268  33.875  12.009
50384W        W22809  22.678  22.506  10.510
50385W        W22810  23.496   1.806   0.784
50386W        W22811   7.318   3.825  14.387
50387W        W22812  25.019  28.569  10.625
50388W        W22813  27.543  42.300  14.883
50389W        W22814   9.222  21.033   3.774
50390W        W22815  41.898  34.033   3.188
50391W        W22816  17.097   6.352   0.320
50392W        W22817   4.811  22.723  10.450
50393W        W22818  31.498  24.130  13.903
50394W        W22819  41.293  40.503  10.913
50395W        W22820  41.496   7.171  11.084
50396W        W22821  20.165  29.140   3.243
50397W        W22822  21.212  38.409  10.067
50398W        W22823   9.246  30.985  12.943
50399W        W22824  34.593  28.080   3.703
50400W        W22825  37.432  22.134  14.321
50401W        W22826  20.649  12.769  11.480
50402W        W22827  37.080  15.691   2.665
50403W        W22828  23.505  13.639  10.955
50404W        W22829  24.681  24.610  11.393
50405W        W22830  13.285   6.756  14.906
50406W        W22831   0.970   6.427  11.584
50407W        W22832  22.064  38.425  10.945
50408W        W22833   6.740   8.676  10.519
50409W        W22834  44.899  13.107   2.217
50410W        W22835  34.913   2.432   4.294
50411W        W22836  32.936  23.085   0.738
50412W        W22837  25.054  35.516  11.986
50413W        W22838   1.423  14.683  11.937
50414W        W22839  35.007  29.962  10.544
50415W        W22840  21.243  37.995  12.857
50416W        W22841   4.772  44.398  13.944
50417W        W22842  43.975  24.184   0.785
50418W        W22843   1.739  28.963  12.850
50419W        W22844  43.826  28.655  11.075
50420W        W22845   3.411  23.066   4.821
50421W        W22846  41.507  14.807  13.954
50422W        W22847  17.661  15.587  14.816
50423W        W22848  40.441  32.902  14.002
50424W        W22849  37.080  22.136  10.639
50425W        W22850  37.941  38.466  11.544
50426W        W22851  37.356   3.838  14.450
50427W        W22852   8.392  40.866   2.391
50428W        W22853  39.986   5.704  13.455
50429W        W22854  30.086  31.918  11.451
50430W        W22855  33.128  28.173  12.558
50431W        W22856  30.927  28.660   4.807
50432W        W22857  11.341   3.269  10.901
50433W        W22858  16.737   0.385  10.491
50434W        W22859  43.770  36.415  13.830
50435W        W22860  10.278  14.712  11.392
50436W        W22861  30.107  30.914   2.226
50437W        W22862   0.976  25.560   0.472
50438W        W22863   2.456  35.557  13.015
50439W        W22864  11.134  19.192   2.278
50440W        W22865   9.295  20.220   3.371
50441W        W22866  20.233  26.100  13.500
50442W        W22867   8.844  17.563  12.426
50443W        W22868  40.355  33.985   3.706
50444W        W22869  14.316  19.764  10.525
50445W        W22870   5.836  44.009  11.055
50446W        W22871  43.791  19.130   2.891
50447W        W22872  14.817  20.708  13.353
50448W        W22873  17.765  21.086   3.279
50449W        W22874  43.839  39.021   3.781
50450W        W22875  29.636   8.200   1.807
50451W        W22876  28.092  34.913  12.848
50452W        W22877  11.227  26.166   3.263
50453W        W22878  38.996   6.854  12.844
50454W        W22879  19.160  27.481   2.829
50455W        W22880  15.814  12.773  11.428
50456W        W22881   1.885  27.149  13.515
50457W        W22882  27.073  38.396  14.388
50458W        W22883  29.966   1.359  13.499
50459W        W22884  33.918   2.933  13.877
50460W        W22885  36.952  41.331  12.445
50461W        W22886  40.341  25.125  10.041
50462W        W22887  27.555   4.365   4.742
50463W        W22888  16.606  20.110   0.425
50464W        W22889   5.705   8.276  12.501
50465W        W22890  34.099   1.272  10.924
50466W        W22891   5.689  20.246   3.334
50467W        W22892  39.833  23.215  10.902
50468W        W22893  26.994   5.856   1.898
50469W        W22894  29.113  40.360  10.412
50470W        W22895  39.912  36.352  14.789
50471W        W22896   6.232  18.653  12.502
50472W        W22897   2.237  20.575  11.499
50473W        W22898  27.626  34.456  11.109
50474W        W22899  19.776  22.572   3.370
50475W        W22900  34.611   3.420  12.934
50476W        W22901  18.203  43.481  10.908
50477W        W22902  42.503  41.787   3.864
50478W        W22903  27.504   9.749  10.565
50479W        W22904  28.175  18.743   4.612
50480W        W22905  29.055  43.795   0.463
50481W        W22906  37.336  13.810  10.921
50482W        W22907  15.254  44.387   4.167
50483W        W22908  21.112  29.071  11.378
50484W        W22909   4.339  40.024   4.709
50485W        W22910  30.945  24.604   1.848
50486W        W22911   6.910  31.929   0.796
50487W        W22912  19.572  22.079  14.984
50488W        W22913  11.664  25.565  11.079
50489W        W22914   9.301  21.512   4.160
50490W        W22915  35.417  40.857  12.356
50491W        W22916   9.310  20.736  13.449
50492W        W22917  30.102  22.634   3.742
50493W        W22918   6.187  13.839   3.165
50494W        W22919   5.255  32.465   1.260
50495W        W22920  14.737  38.956   0.781
50496W        W22921  31.624  26.672   0.896
50497W        W22922  16.603   0.945  14.949
50498W        W22923   2.445  42.793  14.837
50499W        W22924  10.341   1.368   1.284
50500W        W22925  22.676  10.249  12.853
50501W        W22926  42.391   6.699   1.306
50502W        W22927  31.599  11.332   1.813
50503W        W22928  15.311  12.673  13.909
50504W        W22929  33.402  34.515  14.770
50505W        W22930  28.080   1.752   1.296
50506W        W22931  32.913  40.402   0.827
50507W        W22932  41.310  36.995  11.930
50508W        W22933  42.509   5.423  14.512
50509W        W22934  21.699  16.784  14.912
50510W        W22935  26.069  13.140   2.352
50511W        W22936  30.007  15.105   0.731
50512W        W22937   9.262  27.640   0.357
50513W        W22938   6.680   9.279   4.264
50514W        W22939  18.233  16.134  12.352
50515W        W22940  34.433  15.808   4.123
50516W        W22941  23.062  43.974   3.668
50517W        W22942  41.804  41.305   4.688
50518W        W22943  15.804  39.448  11.404
50519W        W22944  22.647  22.124   4.232
50520W        W22945  29.436  21.645   1.407
50521W        W22946  40.416   5.740  10.642
50522W        W22947  11.134  43.981   2.793
50523W        W22948  35.877  25.501   1.785
50524W        W22949  18.272  36.465  12.354
50525W        W22950  39.437  13.192   4.152
50526W        W22951  38.875  14.760  10.539
50527W        W22952  40.412  10.769  11.483
50528W        W22953   1.457  42.788   4.822
50529W        W22954  38.447  13.772   1.903
50530W        W22955  19.140   1.316  14.991
50531W        W22956   1.298   8.873  12.962
50532W        W22957  17.275   6.917  13.336
50533W        W22958  17.649  29.040   0.384
50534W        W22959  40.965  20.039  10.598
50535W        W22960  24.641  42.926  14.451
50536W        W22961  20.242  41.919   0.376
50537W        W22962  14.255  14.771   4.167
50538W        W22963  31.408  21.555  13.792
50539W        W22964  19.656  28.079  12.492
50540W        W22965   3.832  40.826  11.102
50541W        W22966  17.084  13.686  11.856
50542W        W22967  29.171  37.477  12.373
50543W        W22968  10.816  42.426   2.785
50544W        W22969  11.693  31.071   0.467
50545W        W22970   0.756  28.563   2.286
50546W        W22971  28.477  44.343  10.899
50547W        W22972  42.320  28.958  12.418
50548W        W22973   4.298  25.173  12.954
50549W        W22974  24.985  28.099   1.395
50550W        W22975  19.239   8.304  12.440
50551W        W22976   4.404  41.873   0.835
50552W        W22977   4.404  41.462  14.914
50553W        W22978  25.093  41.903  12.383
50554W        W22979  39.396  23.682  13.833
50555W        W22980  32.957  10.871   0.735
50556W        W22981  14.640  29.011  10.407
50557W        W22982   2.776  29.051   4.721
50558W        W22983   0.815   2.823   2.415
50559W        W22984  28.630   5.219  12.967
50560W        W22985   7.192  21.036  13.978
50561W        W22986  26.628  16.300   3.209
50562W        W22987  42.957   5.415   0.821
50563W        W22988  39.421  32.055  14.839
50564W        W22989  29.100  39.396   2.280
50565W        W22990  19.040  41.933  11.523
50566W        W22991  23.163  43.967  14.969
50567W        W22992  31.005  22.026   1.915
50568W        W22993   0.898  11.784   2.407
50569W        W22994  38.507  20.755  14.811
50570W        W22995  15.577  36.463   3.754
50571W        W22996   7.864  42.325  10.963
50572W        W22997  22.518  43.817   3.192
50573W        W22998  31.560  30.976  11.933
50574W        W22999  14.596  32.406   5.653
50575W        W23000  43.277  34.053   0.263
50576W        W23001  37.874  37.523  10.008
50577W        W23002   2.739  40.331  12.925
50578W        W23003  18.152  14.305   3.270
50579W        W23004  34.588   6.820   1.880
50580W        W23005  29.090   9.669   4.269
50581W        W23006   8.820   5.274  14.853
50582W        W23007   5.202  27.677   0.942
50583W        W23008   1.432  37.917  13.362
50584W        W23009  14.740  43.361  12.518
50585W        W23010  30.144  10.640   2.287
50586W        W23011  18.665  40.480   3.736
50587W        W23012   0.273  10.216   4.721
50588W        W23013  14.761  12.851   2.234
50589W        W23014  23.607  28.550  14.489
50590W        W23015  25.689  44.011   2.890
50591W        W23016  42.524  23.064   5.223
50592W        W23017  10.815   9.777  11.997
50593W        W23018  35.358  14.116   4.831
50594W        W23019   7.728   0.828  13.389
50595W        W23020  42.348   7.768   1.271
50596W        W23021  36.462   7.295   1.742
50597W        W23022   6.750  34.524   1.877
50598W        W23023  17.691  32.914  10.929
50599W        W23024  31.923   9.748  11.530
50600W        W23025   9.251  31.111   1.876
50601W        W23026  28.569  11.263   2.330
50602W        W23027  25.613  26.131   3.638
50603W        W23028  18.222  31.935  13.352
50604W        W23029  40.314  34.461  12.879
50605W        W23030  21.250  10.804  10.924
50606W        W23031   2.271  36.024   0.846
50607W        W23032  29.061   7.218  14.897
50608W        W23033  38.969   4.882   4.609
50609W        W23034   5.852  12.782   4.657
50610W        W23035  23.181  21.685  14.858
50611W        W23036  15.171   3.220   2.792
50612W        W23037  34.494  29.007  13.369
50613W        W23038  12.763  32.900  14.915
50614W        W23039  23.623   1.868   3.342
50615W        W23040  42.950  35.992   4.332
50616W        W23041  19.551  38.531   3.373
50617W        W23042   0.791  18.751  13.463
50618W        W23043   4.369  36.417   3.324
50619W        W23044   1.355  21.713  12.405
50620W        W23045  16.104  11.236  12.059
50621W        W23046   6.752  43.458   4.202
50622W        W23047   7.357  34.571   0.780
50623W        W23048  42.284  41.797  11.045
50624W        W23049  13.203  12.760   1.803
50625W        W23050  30.592   8.870   0.731
50626W        W23051  25.559  44.441  11.088
50627W        W23052   9.857   7.819   1.311
50628W        W23053  14.752  41.339  13.966
50629W        W23054  12.303   8.877   4.718
50630W        W23055   6.695  38.407  10.888
50631W        W23056  12.279  30.950   2.813
50632W        W23057  35.554  31.964   5.133
50633W        W23058  23.633  35.027   1.432
50634W        W23059  37.957   1.439   1.747
50635W        W23060  13.672  22.212  12.894
50636W        W23061  18.552  30.440   4.306
50637W        W23062  13.800  37.377   4.252
50638W        W23063  13.842  12.674  12.086
50639W        W23064   3.813  17.243   1.920
50640W        W23065  29.067  39.931   3.852
50641W        W23066  16.111   4.297   0.848
50642W        W23067   0.311  12.619   2.891
50643W        W23068  31.478   1.941  14.388
50644W        W23069   2.251   3.360  14.931
50645W        W23070  34.521  21.138  12.918
50646W        W23071  19.046  32.390  11.118
50647W        W23072  30.984  12.758   5.168
50648W        W23073  17.291   3.910  11.390
50649W        W23074  31.531  17.645   0.249
50650W        W23075   4.331  33.131  14.452
50651W        W23076  35.086  13.791  10.476
50652W        W23077  15.107  16.717   3.225
50653W        W23078  33.009  14.123   4.657
50654W        W23079  13.806  34.052   4.207
50655W        W23080  44.971   1.314   4.257
50656W        W23081   9.809  43.783  14.793
50657W        W23082  35.025  38.396  11.902
50658W        W23083  26.551   9.853   2.756
50659W        W23084  11.224  17.674   0.909
50660W        W23085  24.180   8.252  11.467
50661W        W23086   7.312   0.762  12.374
50662W        W23087  30.983  30.061  13.063
50663W        W23088  35.907  27.454   1.261
50664W        W23089   7.688  32.141   4.643
50665W        W23090   3.330  31.637  11.964
50666W        W23091   1.255  19.684   2.817
50667W        W23092   7.819  30.456  11.540
50668W        W23093  11.265  13.698  12.367
50669W        W23094  17.087   6.788   3.661
50670W        W23095   1.801   7.412   4.257
50671W        W23096  11.352  40.039  10.993
50672W        W23097  26.533  26.559   1.709
50673W        W23098  36.543   9.852   0.362
50674W        W23099   7.721  35.595   3.806
50675W        W23100  40.347  22.722   1.814
50676W        W23101  33.916  34.548   1.921
50677W        W23102   5.784  31.940  13.385
50678W        W23103  32.579   9.718  10.526
50679W        W23104  22.507   8.229   3.196
50680W        W23105  27.643  13.300  11.502
50681W        W23106   4.316  28.027   3.315
50682W        W23107  22.235  33.428   4.154
50683W        W23108   7.231   4.872  12.881
50684W        W23109  16.651  37.962   4.741
50685W        W23110  10.686  24.176   0.307
50686W        W23111  28.675  40.942   5.118
50687W        W23112  37.491  32.080  11.508
50688W        W23113  39.546   3.782   3.828
50689W        W23114   4.265   6.221   4.708
50690W        W23115  14.589   5.223   0.959
50691W        W23116  24.016  24.600  12.914
50692W        W23117   3.943  14.140   4.679
50693W        W23118  36.504   7.256  10.548
50694W        W23119  20.239  41.800  11.528
50695W        W23120   4.447   5.437  12.955
50696W        W23121   0.915  43.432   1.229
50697W        W23122   7.731  43.887  12.576
50698W        W23123  34.460   5.219  11.074
50699W        W23124  14.160   1.448   1.376
50700W        W23125  42.974   2.750  12.994
50701W        W23126  34.588  21.168   2.309
50702W        W23127  13.176  27.617   3.191
50703W        W23128   8.894  17.740   0.311
50704W        W23129  28.564   5.872   3.160
50705W        W23130   3.226  16.205  12.027
50706W        W23131  40.004  28.143  14.924
50707W        W23132  22.735  22.222   2.388
50708W        W23133  44.417   3.934  12.454
50709W        W23134  41.814  19.641  10.132
50710W        W23135  43.458  30.540   0.345
50711W        W23136  42.981  18.096  10.083
50712W        W23137  34.507  40.985   2.853
50713W        W23138  13.609  14.143  13.835
50714W        W23139  38.448  17.623  10.555
50715W        W23140   0.293  29.469   1.289
50716W        W23141  44.924  27.049   1.389
50717W        W23142  37.398  26.985   0.460
50718W        W23143  33.000  35.527   4.131
50719W        W23144  37.914   6.300  14.290
50720W        W23145  11.190  25.530  10.633
50721W        W23146   2.300  11.214   2.829
50722W        W23147  40.476  17.160  12.041
50723W        W23148  33.555  29.080  12.059
50724W        W23149   0.325  33.027  12.507
50725W        W23150  42.904   1.312  12.885
50726W        W23151  10.800  35.600  12.425
50727W        W23152  31.625  24.167   3.155
50728W        W23153  35.043  33.403   9.996
50729W        W23154  18.125  19.641   2.848
50730W        W23155   0.837  42.400  10.467
50731W        W23156  40.424   6.893   4.699
50732W        W23157  15.604  30.923   4.704
50733W        W23158  15.173  21.021  12.535
50734W        W23159  34.023  42.031  14.874
50735W        W23160   4.717   3.859  14.966
50736W        W23161   0.899  34.040   3.640
50737W        W23162   2.958  31.097   3.715
50738W        W23163  42.432  31.529  14.896
50739W        W23164   2.441  30.093  12.966
50740W        W23165  39.427  42.397  14.368
50741W        W23166  39.897   8.186   2.282
50742W        W23167  28.462   2.422   2.731
50743W        W23168  14.728  26.952   1.836
50744W        W23169  14.146  17.718   2.902
50745W        W23170  29.427  37.832   0.479
50746W        W23171  29.942  27.553  13.011
50747W        W23172  24.645   1.476  10.906
50748W        W23173  22.126  28.941   2.840
50749W        W23174   2.794  24.533   4.307
50750W        W23175  28.153  32.923  14.787
50751W        W23176   7.185   3.908   1.815
50752W        W23177  17.125  10.650  14.028
50753W        W23178  35.556  12.741  10.548
50754W        W23179  35.962  19.277  13.970
50755W        W23180   3.235  40.539  10.999
50756W        W23181  27.090  18.138   0.757
50757W        W23182  19.130   8.830  13.028
50758W        W23183   9.171  42.877   0.840
50759W        W23184   6.836  10.762  14.826
50760W        W23185  22.228  23.674  10.406
50761W        W23186  38.857  16.642   3.730
50762W        W23187   5.929  30.129   2.401
50763W        W23188  26.981   6.198   0.838
50764W        W23189  16.750  38.563   0.777
50765W        W23190  29.053  42.810   0.854
50766W        W23191  26.579  42.344   0.835
50767W        W23192  43.380  11.658   2.400
50768W        W23193   0.878   0.953   4.251
50769W        W23194   6.218   0.488   1.446
50770W        W23195  10.830  25.614   0.744
50771W        W23196   7.335  32.927  14.864
50772W        W23197  10.206  44.756  10.928
50773W        W23198   6.777  24.091  12.090
50774W        W23199  28.609  23.532  13.329
50775W        W23200   1.960  20.164   1.230
50776W        W23201  23.592  32.073  13.435
50777W        W23202   6.184   8.674  12.886
50778W        W23203  37.928  25.130   4.213
50779W        W23204  21.755  44.401   4.761
50780W        W23205  36.406  19.197  13.537
50781W        W23206  22.032  11.850  11.096
50782W        W23207   2.846  23.105  12.348
50783W        W23208  40.305   8.360   1.782
50784W        W23209   4.212   8.160  11.423
50785W        W23210  20.252  33.419  10.001
50786W        W23211  32.532  12.640   0.426
50787W        W23212  38.550  12.166   3.807
50788W        W23213   3.919   1.808  10.011
50789W        W23214  20.700  32.617   1.310
50790W        W23215  19.722  44.451  12.967
50791W        W23216   2.799   8.230   4.777
50792W        W23217  22.145  20.722  12.362
50793W        W23218  44.770  21.590   0.918
50794W        W23219  18.646  35.986  10.050
50795W        W23220  23.496  20.649   1.802
50796W        W23221  15.263  31.052   1.317
50797W        W23222   0.800  13.350  10.422
50798W        W23223  23.697  32.111   2.849
50799W        W23224  20.567   5.781   2.793
50800W        W23225   7.288  22.714   4.802
50801W        W23226  28.107  20.219  11.452
50802W        W23227   4.818  17.580   1.922
50803W        W23228  31.102  26.659   2.299
50804W        W23229   2.879  16.234  12.965
50805W        W23230   1.943  21.736  11.940
50806W        W23231  11.677  27.500   2.779
50807W        W23232   0.323  44.985  10.570
50808W        W23233  26.142  25.182   2.345
50809W        W23234   6.703   7.858  14.499
50810W        W23235  36.459  23.635  12.352
50811W        W23236  31.479  38.957   1.401
50812W        W23237  17.304  35.488  11.067
50813W        W23238  41.028  18.231   0.293
50814W        W23239  37.967  35.075   4.646
50815W        W23240   2.406  26.457   3.310
50816W        W23241  41.038  33.889   3.761
50817W        W23242  23.065  11.868  13.415
50818W        W23243  14.281  35.552  14.423
50819W        W23244  23.150   7.739  13.523
50820W        W23245   7.891   2.832   0.324
50821W        W23246  14.202  14.689  10.494
50822W        W23247  41.346  14.643   4.599
50823W        W23248  27.484  32.392  14.840
50824W        W23249  41.926  18.133   4.652
50825W        W23250  13.641  31.992  10.531
50826W        W23251   7.251  17.672   1.770
50827W        W23252  19.583  19.096  13.970
50828W        W23253  17.744  22.646   4.286
50829W        W23254  15.270  23.000   3.838
50830W        W23255  19.752  29.079  13.535
50831W        W23256  37.962  25.216   0.775
50832W        W23257   7.851   4.732   4.737
50833W        W23258   2.292   2.451  11.975
50834W        W23259  16.646  36.569  14.368
50835W        W23260  20.203  16.680  12.530
50836W        W23261  44.768   6.795   3.377
50837W        W23262  34.519  40.813  12.047
50838W        W23263   1.770  36.855   1.383
50839W        W23264  30.962   4.236  12.070
50840W        W23265  20.619  19.572   2.754
50841W        W23266  10.831   0.270  12.927
50842W        W23267  44.281   4.884   1.266
50843W        W23268  26.953  26.665  12.945
50844W        W23269  13.193  32.959  12.000
50845W        W23270  23.670   9.877   1.784
50846W        W23271  15.276   2.355   3.374
50847W        W23272  28.087  31.051  14.813
50848W        W23273  10.752  33.569   0.274
50849W        W23274  38.443  22.050  13.874
50850W        W23275   2.886  24.030  13.918
50851W        W23276  26.136   9.338  11.417
50852W        W23277  17.063  16.595  12.522
50853W        W23278  27.117  20.726  11.434
50854W        W23279   8.367   7.205   0.861
50855W        W23280  28.114   8.318   0.942
50856W        W23281  40.468   3.250   0.774
50857W        W23282  10.633  25.991  10.625
50858W        W23283  44.462  25.488  12.967
50859W        W23284  36.582  21.752  12.474
50860W        W23285  21.156  33.593   0.880
50861W        W23286  40.042  36.529   2.379
50862W        W23287  42.509  23.654  12.571
50863W        W23288  21.753  14.755   2.672
50864W        W23289  44.856   9.752   1.417
50865W        W23290  28.633  11.326  12.436
50866W        W23291  41.359  34.077  14.014
50867W        W23292  19.753   1.930   4.812
50868W        W23293  31.044   8.685   2.792
50869W        W23294  21.019  29.920  14.801
50870W        W23295  19.709  37.859  12.068
50871W        W23296   2.313   0.836   0.249
50872W        W23297   6.417   5.768   4.139
50873W        W23298  20.260   9.258   0.815
50874W        W23299   2.339  10.332   4.303
50875W        W23300  27.953  29.593  10.470
50876W        W23301  26.976   1.279  12.423
50877W        W23302  26.054   3.258  14.465
50878W        W23303  33.401  44.951  13.491
50879W        W23304  37.902   7.301   2.325
50880W        W23305  25.695  37.943   3.792
50881W        W23306  36.888  14.600   0.313
50882W        W23307  12.665  25.123  11.863
50883W        W23308  11.786   7.910  14.472
50884W        W23309  21.617  33.965  14.017
50885W        W23310   2.827  19.578   3.354
50886W        W23311  34.974   6.350   1.448
50887W        W23312  33.975   8.773  13.325
50888W        W23313  11.312  24.672  12.945
50889W        W23314  33.433  30.916  13.832
50890W        W23315  24.572  15.615   1.293
50891W        W23316  10.849  35.508   0.775
50892W        W23317  23.132   1.872   1.714
50893W        W23318  30.968  44.769   1.764
50894W        W23319  27.648  12.678  10.936
50895W        W23320  28.161  10.189   1.311
50896W        W23321  24.105  12.673  14.782
50897W        W23322  29.502  24.610   3.190
50898W        W23323  39.493  25.691  12.867
50899W        W23324  20.643   1.904   1.888
50900W        W23325  35.970  35.518  11.998
50901W        W23326  26.530  34.382   3.278
50902W        W23327  19.067  41.970  12.507
50903W        W23328  31.432   0.335  14.399
50904W        W23329  43.993  24.721  13.357
50905W        W23330   9.342   3.820  11.006
50906W        W23331  14.202  30.942   4.607
50907W        W23332   8.328  13.254  14.786
50908W        W23333  21.648  37.455  12.456
50909W        W23334  21.513  15.274   1.733
50910W        W23335  21.542   5.425  14.395
50911W        W23336   8.344  28.959   4.179
50912W        W23337  21.567  29.980   4.270
50913W        W23338  18.595  22.068   2.339
50914W        W23339  32.054  24.214  10.999
50915W        W23340  20.051  14.591  12.052
50916W        W23341  31.510  26.061   4.723
50917W        W23342  11.150   9.151   0.336
50918W        W23343  18.157  11.664  13.851
50919W        W23344  27.163  31.079  14.368
50920W        W23345  39.052  36.979  12.918
50921W        W23346  30.960   3.863  11.374
50922W        W23347  34.494  20.154   2.718
50923W        W23348  37.349  23.076  11.478
50924W        W23349  36.383  32.463   0.394
50925W        W23350  38.333  16.811   3.168
50926W        W23351  36.588   5.897  12.361
50927W        W23352  25.472  35.926   3.716
50928W        W23353  19.119  44.997   4.238
50929W        W23354   7.347  18.100  13.390
50930W        W23355  29.056  31.550  11.907
50931W        W23356  37.572   3.834   2.286
50932W        W23357   0.864  38.548  12.426
50933W        W23358   4.343  43.341   2.773
50934W        W23359   2.252  42.936  12.917
50935W        W23360  28.947  37.964  13.499
50936W        W23361  27.671   2.909  14.355
50937W        W23362   5.820   6.420  12.901
50938W        W23363  38.411  11.355  11.434
50939W        W23364  31.968   7.401   4.113
50940W        W23365  12.750  16.801   2.828
50941W        W23366  41.374  11.795   1.753
50942W        W23367  22.570  35.940   4.238
50943W        W23368   3.373  10.252   0.797
50944W        W23369  28.510  15.294   0.733
50945W        W23370  24.211  38.995  11.015
50946W        W23371  34.601  35.028  14.920
50947W        W23372  24.687  28.168  14.345
50948W        W23373  21.627  41.931   0.319
50949W        W23374  37.543  37.389   4.145
50950W        W23375  40.372  40.842  14.290
50951W        W23376  42.402  42.995   3.380
50952W        W23377  25.031  30.443  10.151
50953W        W23378  21.702  38.499   0.451
50954W        W23379   0.376  34.576   3.642
50955W        W23380  14.634  31.602   0.363
50956W        W23381  30.004  27.171   3.293
50957W        W23382  23.150  12.135  10.963
50958W        W23383  16.673  44.867   2.262
50959W        W23384  44.903  23.168  11.046
50960W        W23385  16.169   7.385   4.763
50961W        W23386  24.661  41.030  13.307
50962W        W23387   2.777  20.569  14.910
50963W        W23388  30.640  41.400  11.037
50964W        W23389  44.766  34.498   3.313
50965W        W23390  31.961   7.666  13.506
50966W        W23391  33.473  14.101   3.380
50967W        W23392  17.675  26.662   3.722
50968W        W23393  14.325  22.198  13.912
50969W        W23394  40.961  34.986   4.118
50970W        W23395  37.899   6.897  14.391
50971W        W23396  37.977  34.584   1.861
50972W        W23397  40.976  17.140  11.989
50973W        W23398  17.688  33.526   2.359
50974W        W23399  12.125   6.834   3.356
50975W        W23400   1.761  29.515  13.808
50976W        W23401  40.819  14.671  12.866
50977W        W23402  34.888  15.683  13.865
50978W        W23403  23.616  24.627   1.349
50979W        W23404  15.322  18.258   3.637
50980W        W23405  19.043  12.839  10.955
50981W        W23406  30.453   1.407  14.473
50982W        W23407   3.248  41.520  14.493
50983W        W23408  18.644  39.389   3.776
50984W        W23409  34.056   4.393   3.354
50985W        W23410  18.133   6.863  13.382
50986W        W23411   5.348  21.632  12.034
50987W        W23412  19.615  41.843  13.414
50988W        W23413  25.119  22.116  13.839
50989W        W23414  34.878  19.264   3.676
50990W        W23415  22.038   4.924  11.014
50991W        W23416  42.819  14.716  14.886
50992W        W23417   5.725  16.625   4.223
50993W        W23418  27.535  44.406   3.191
50994W        W23419  28.152  17.794  10.979
50995W        W23420   9.310  42.856  13.365
50996W        W23421  19.226   2.824  12.919
50997W        W23422  25.011  25.195  12.887
50998W        W23423  15.738  12.678   3.159
50999W        W23424   0.270   0.865   2.216
51000W        W23425   4.795  16.688   3.231
51001W        W23426  41.802  27.448  12.999
51002W        W23427  34.107  40.913   4.680
51003W        W23428  27.678   5.857   1.866
51004W        W23429   4.882  35.985  12.859
51005W        W23430  43.884  27.590  10.899
51006W        W23431  20.265  44.846  11.954
51007W        W23432   8.714  40.040  12.543
51008W        W23433   1.282   2.962   1.886
51009W        W23434  18.147  16.236   3.185
51010W        W23435  35.943  25.684   2.672
51011W        W23436   0.358  40.948  12.049
51012W        W23437  23.644   4.803  12.342
51013W        W23438  14.807  14.154   2.216
51014W        W23439  21.614  34.589  14.910
51015W        W23440  13.106  39.932  12.389
51016W        W23441  21.732  43.358   0.397
51017W        W23442  36.543  16.691  10.535
51018W        W23443  23.005  31.609   3.306
51019W        W23444  23.108  25.468  13.933
51020W        W23445  17.212  17.674  14.846
51021W        W23446   7.708   5.416  14.296
51022W        W23447  21.083  43.358  11.453
51023W        W23448  26.634  26.579   2.218
51024W        W23449  22.634   6.812   2.731
51025W        W23450  33.482  36.580  11.103
51026W        W23451  28.447  24.144   4.744
51027W        W23452  44.352  14.312   2.417
51028W        W23453  43.482  39.887  10.964
51029W        W23454  32.421  39.371  13.056
51030W        W23455  23.059  25.693   3.304
51031W        W23456  18.633  37.571   0.379
51032W        W23457  14.112   6.822  12.548
51033W        W23458  42.478  41.332   4.630
51034W        W23459  11.820  12.842   0.739
51035W        W23460  31.950  26.089  10.480
51036W        W23461  40.464  24.687  12.358
51037W        W23462  25.661  44.975   1.752
51038W        W23463  29.094  23.603  10.956
51039W        W23464  27.638  39.869  12.350
51040W        W23465   5.214  29.466  10.565
51041W        W23466  20.756  24.099   1.932
51042W        W23467   3.438  44.899  11.602
51043W        W23468   1.265  35.988   2.713
51044W        W23469   7.884  18.644  13.968
51045W        W23470  41.994   0.343  10.100
51046W        W23471   3.378   5.204  11.539
51047W        W23472  34.961  11.171   0.762
51048W        W23473  34.896  38.496   0.484
51049W        W23474  11.180   5.334   2.712
51050W        W23475  19.573   1.807   4.346
51051W        W23476  42.316  31.582  13.881
51052W        W23477  31.433   8.713   2.218
51053W        W23478   2.814  21.089  14.416
51054W        W23479  16.092  25.090   0.327
51055W        W23480   9.293  18.627   1.384
51056W        W23481   9.295  42.467   0.770
51057W        W23482  31.633  41.987  14.850
51058W        W23483  31.544  11.836  14.508
51059W        W23484  12.805  26.961  10.562
51060W        W23485  14.833  24.031   2.888
51061W        W23486   0.748  13.689   0.257
51062W        W23487  20.129  12.217  10.595
51063W        W23488  20.268  18.605   1.240
51064W        W23489  42.377  27.499   1.310
51065W        W23490  35.562   5.290   4.765
51066W        W23491   7.239  44.762   2.206
51067W        W23492  26.028  41.817   2.759
51068W        W23493   8.748   1.779  14.392
51069W        W23494  41.303   4.427   4.740
51070W        W23495  30.611  11.130  11.549
51071W        W23496  22.059  21.100  13.839
51072W        W23497  23.690  36.590  10.894
51073W        W23498   2.460  12.826  14.439
51074W        W23499  20.713  15.122  11.453
51075W        W23500  35.042  40.010   2.718
51076W        W23501  21.241  16.294  14.402
51077W        W23502   1.327  23.503  10.514
51078W        W23503  13.818  36.417   2.370
51079W        W23504   0.458  26.685   3.195
51080W        W23505  40.900  30.604   0.439
51081W        W23506   6.893  40.902   4.834
51082W        W23507  32.009  21.514   2.672
51083W        W23508  21.131  32.089  12.469
51084W        W23509  38.447  10.719  14.934
51085W        W23510  36.581  39.323   2.367
51086W        W23511  19.735  16.591  11.559
51087W        W23512  33.409  23.623  12.509
51088W        W23513  31.495  10.151   3.300
51089W        W23514  12.834  29.063  14.390
51090W        W23515  30.071   0.263   0.889
51091W        W23516  25.563  13.769  10.551
51092W        W23517  43.896  10.689  11.579
51093W        W23518  37.427  13.706   0.868
51094W        W23519  18.635  44.324  12.894
51095W        W23520   3.814  36.044   0.930
51096W        W23521  15.670  33.407  12.452
51097W        W23522   1.436   5.340   1.859
51098W        W23523   0.802  12.671   5.170
51099W        W23524   6.771  42.888  14.932
51100W        W23525   0.310  24.643  10.933
51101W        W23526   8.308  27.568  14.289
51102W        W23527  40.481   2.788   2.781
51103W        W23528  14.339  32.112  11.413
51104W        W23529  14.810   2.372   9.978
51105W        W23530  35.528  43.378  11.026
51106W        W23531  26.563  31.003   1.703
51107W        W23532  11.743  10.219   0.961
51108W        W23533  37.926  11.251   3.333
51109W        W23534   2.281   9.272   1.283
51110W        W23535   5.403   5.253   1.803
51111W        W23536  37.863  20.711   1.763
51112W        W23537  19.193  24.589   4.148
51113W        W23538  14.277   7.843  14.464
51114W        W23539   5.314  32.120   2.214
51115W        W23540  38.953  15.735   0.266
51116W        W23541  23.711  12.656   1.364
51117W        W23542  13.336  10.718   4.640
51118W        W23543  41.328  19.571   4.137
51119W        W23544   0.976  36.977  13.883
51120W        W23545  20.760  16.119   4.243
51121W        W23546   5.765   4.864   2.764
51122W        W23547  34.422   7.777   9.547
51123W        W23548   7.878   9.722   3.273
51124W        W23549  11.314  37.067  12.998
51125W        W23550  32.075  44.466   0.790
51126W        W23551  43.406  14.744  11.436
51127W        W23552  27.557  37.562  11.577
51128W        W23553  30.995  25.099  12.491
51129W        W23554   5.722   5.230  13.061
51130W        W23555  10.832   0.928   4.117
51131W        W23556  11.835   2.263   5.598
51132W        W23557  30.140   9.732   1.854
51133W        W23558  11.790  16.800  13.060
51134W        W23559  11.203   3.453   0.412
51135W        W23560  17.262  12.693  12.092
51136W        W23561  22.061   3.391   2.412
51137W        W23562  29.022   5.208   3.160
51138W        W23563  20.708  35.391  13.488
51139W        W23564  26.189  21.691   1.845
51140W        W23565  43.961  38.499  14.758
51141W        W23566   8.183  10.348  12.928
51142W        W23567   6.833   7.786  13.002
51143W        W23568  22.137  24.081  12.855
51144W        W23569  10.696   4.817   2.762
51145W        W23570   6.916  20.732   4.775
51146W        W23571   4.339  28.055   1.445
51147W        W23572   3.717   8.331   3.662
51148W        W23573   7.715  21.242  12.371
51149W        W23574  38.367  35.487  11.483
51150W        W23575  24.980   7.324  12.988
51151W        W23576  43.312  11.864   3.764
51152W        W23577   0.871  36.574  12.826
51153W        W23578   0.383   5.326   0.944
51154W        W23579  23.191  41.946   0.949
51155W        W23580  19.672  27.962   5.185
51156W        W23581   1.420  11.818  13.993
51157W        W23582  29.606  26.615  11.060
51158W        W23583  27.003  37.352   4.284
51159W        W23584   7.179  24.049   1.930
51160W        W23585  27.981  34.108  12.987
51161W        W23586   1.327  23.689   4.308
51162W        W23587  15.315  42.478   4.645
51163W        W23588  34.037  10.697   3.155
51164W        W23589  18.237  11.659  12.881
51165W        W23590  10.839   9.178  11.399
51166W        W23591  29.136  39.030  13.962
51167W        W23592   3.424  12.719  10.588
51168W        W23593   4.802  28.952   4.323
51169W        W23594  10.322  28.484  14.482
51170W        W23595  32.411   3.399   2.865
51171W        W23596  39.823   7.777  13.328
51172W        W23597  33.586   1.472  13.348
51173W        W23598  17.131   1.938   0.929
51174W        W23599  10.720  39.543  11.957
51175W        W23600  21.140   1.294  12.351
51176W        W23601  21.237  28.959  12.032
51177W        W23602  23.727  38.353   0.248
51178W        W23603  32.921  32.989  10.619
51179W        W23604  36.514  41.802   3.837
51180W        W23605  40.366   2.360  10.447
51181W        W23606  39.357   4.328   1.919
51182W        W23607  22.746  30.118  14.900
51183W        W23608   9.281  16.627  10.596
51184W        W23609   9.336   1.423  11.081
51185W        W23610  41.896  21.255   4.319
51186W        W23611  26.093  25.638  14.839
51187W        W23612  13.688  25.554  12.889
51188W        W23613  28.537   1.808   4.279
51189W        W23614  39.370  11.210   4.118
51190W        W23615   6.394   8.202   4.695
51191W        W23616  15.178  21.683   0.835
51192W        W23617  19.718  43.866  11.601
51193W        W23618   3.337   3.870  11.572
51194W        W23619  27.961   4.382   0.366
51195W        W23620  33.604  26.023   2.770
51196W        W23621  22.020  23.217  10.984
51197W        W23622  14.821  11.693  10.574
51198W        W23623  15.782  14.297  11.915
51199W        W23624  12.656  34.462  13.963
51200W        W23625   3.416  30.152  11.446
51201W        W23626  27.644  36.543   4.312
51202W        W23627  37.337  32.939  11.397
51203W        W23628  41.464   3.271  12.933
51204W        W23629  27.476  19.647  14.956
51205W        W23630  44.885  12.842   3.161
51206W        W23631  13.654  21.543  14.400
51207W        W23632  32.460  27.624  13.462
51208W        W23633  42.911  30.915  13.881
51209W        W23634  11.164   2.323   3.823
51210W        W23635  32.534  13.192  12.042
51211W        W23636  28.441  37.580   3.679
51212W        W23637  17.068  13.351  14.991
51213W        W23638  23.715  24.709   4.124
51214W        W23639  29.459   6.743   0.962
51215W        W23640  22.080  16.184   3.339
51216W        W23641  12.632  24.106  10.582
51217W        W23642   9.283  27.083  12.024
51218W        W23643  36.867  21.104  13.930
51219W        W23644  14.165   9.288  10.625
51220W        W23645  20.627  10.144  14.898
51221W        W23646  12.815  30.944  14.455
51222W        W23647  27.022  10.737  12.501
51223W        W23648  25.112  18.282  12.932
51224W        W23649   3.818   7.692   4.620
51225W        W23650  33.496  38.983  12.555
51226W        W23651   8.829  31.405   1.341
51227W        W23652   7.375  30.635   2.367
51228W        W23653  24.625  25.104  12.055
51229W        W23654  35.563  37.574   2.206
51230W        W23655   8.289  31.063  11.945
51231W        W23656  18.288   0.885   2.393
51232W        W23657  17.692  44.850   4.791
51233W        W23658  26.039  25.561  12.079
51234W        W23659   9.306  31.021   2.333
51235W        W23660  24.496  34.116   0.477
51236W        W23661  33.541  43.921  10.902
51237W        W23662  10.760  38.425  12.095
51238W        W23663   8.756  18.225  12.998
51239W        W23664  26.598   2.940  12.828
51240W        W23665  43.339  16.254  11.088
51241W        W23666  43.894  42.426   0.863
51242W        W23667   0.983  42.332  11.006
51243W        W23668  24.218  26.611  11.440
51244W        W23669  18.213   6.233   3.794
51245W        W23670   9.854  41.510  11.016
51246W        W23671   7.759  13.204  12.448
51247W        W23672   5.300  28.516   0.847
51248W        W23673  17.729  33.525  11.986
51249W        W23674  22.107  21.617  14.873
51250W        W23675  29.067  40.481  12.418
51251W        W23676  21.537  30.585  13.044
51252W        W23677  26.995  26.606   3.159
51253W        W23678  26.661  39.972  10.529
51254W        W23679  35.375  28.176  13.405
51255W        W23680  31.058  25.135  12.922
51256W        W23681  36.450  27.471  14.372
51257W        W23682  13.601   1.925   5.288
51258W        W23683   5.782  33.011  12.962
51259W        W23684  38.563  18.234  13.979
51260W        W23685  11.277  29.983  13.495
51261W        W23686  11.781  19.208  10.042
51262W        W23687  39.986  17.782  12.823
51263W        W23688  44.839  24.604   2.698
51264W        W23689  13.747  15.143   0.839
51265W        W23690  40.522  12.845  14.996
51266W        W23691   4.410  39.527   1.417
51267W        W23692  34.494  42.480  14.373
51268W        W23693  40.922  28.484   3.663
51269W        W23694   6.690  37.556   2.343
51270W        W23695   1.969  11.325   3.190
51271W        W23696  35.513  41.455  14.400
51272W        W23697  39.458   2.753  10.420
51273W        W23698  15.234  13.815  13.988
51274W        W23699  29.656  13.824  14.766
51275W        W23700   5.295   4.321  11.926
51276W        W23701  21.544  27.119  14.970
51277W        W23702  27.576  35.861  12.484
51278W        W23703  35.499  26.127  10.406
51279W        W23704  24.540   0.259   2.179
51280W        W23705  37.081  10.284   4.622
51281W        W23706  31.611  38.485   2.183
51282W        W23707  30.413  37.488  10.964
51283W        W23708  19.126  42.501  11.575
51284W        W23709  31.504  25.572  12.862
51285W        W23710  39.924  34.008   0.257
51286W        W23711  35.894  17.119  12.573
51287W        W23712  29.653  14.301   5.299
51288W        W23713   5.339   9.676  11.873
51289W        W23714  29.081  28.054   2.680
51290W        W23715  35.469  31.612  12.910
51291W        W23716   5.804  35.541   4.796
51292W        W23717  42.281  34.940  12.013
51293W        W23718  44.926  43.765  10.412
51294W        W23719  37.372  33.976  10.970
51295W        W23720  40.371   5.247  14.831
51296W        W23721  23.630   6.699  12.926
51297W        W23722  33.497  37.495   9.977
51298W        W23723  26.600  23.131   4.355
51299W        W23724  27.534  39.429  10.912
51300W        W23725   9.176  42.323  10.613
51301W        W23726   5.912  35.548   1.315
51302W        W23727  39.027  17.277   2.348
51303W        W23728  34.448  14.109   3.288
51304W        W23729   0.782  11.329   0.790
51305W        W23730  21.574  15.300   4.137
51306W        W23731  36.084   4.363   1.438
51307W        W23732  41.000  38.932   0.279
51308W        W23733  25.105  25.503   4.630
51309W        W23734  35.381   2.441  13.481
51310W        W23735  23.994  31.964   2.221
51311W        W23736  41.935   5.287  13.794
51312W        W23737  41.492  15.583  10.996
51313W        W23738  37.382  17.225   3.653
51314W        W23739  19.595   7.673  12.576
51315W        W23740  15.200  40.380  11.057
51316W        W23741  13.685  40.488  14.872
51317W        W23742  42.891  22.162   4.668
51318W        W23743  37.578  26.641   3.647
51319W        W23744  41.991   3.942   2.722
51320W        W23745  26.599  38.464  14.500
51321W        W23746  40.815  24.138   4.164
51322W        W23747  25.705  16.148   1.827
51323W        W23748   9.643  11.719   2.795
51324W        W23749  36.959   9.347  12.927
51325W        W23750   9.184   3.227  10.118
51326W        W23751  11.777  41.331   4.676
51327W        W23752   0.380  44.822  14.765
51328W        W23753  16.591  22.143  11.016
51329W        W23754  16.220  10.146   1.335
51330W        W23755  44.490  34.477   2.327
51331W        W23756  10.793  24.065   3.254
51332W        W23757  39.942  19.147   3.726
51333W        W23758   5.277  34.978  11.959
51334W        W23759  28.566  10.342  11.977
51335W        W23760  26.080  37.447   0.791
51336W        W23761  16.081  39.971  14.434
51337W        W23762  12.242   2.298   2.358
51338W        W23763   3.753  17.185  12.911
51339W        W23764  18.744  28.081   0.300
51340W        W23765  16.658  41.528   0.299
51341W        W23766  32.553  32.507   4.776
51342W        W23767  39.426  22.053  14.353
51343W        W23768  37.041  19.766   0.778
51344W        W23769  28.503  29.111   1.746
51345W        W23770  16.772  25.039   1.249
51346W        W23771  24.074   6.234  14.511
51347W        W23772  24.108  35.482   0.943
51348W        W23773  23.044  14.116   1.794
51349W        W23774   6.352   5.880   0.373
51350W        W23775   7.756  12.320   2.416
51351W        W23776  35.852  34.455   2.873
51352W        W23777  25.711  11.297  11.884
51353W        W23778   0.978  31.044   4.173
51354W        W23779  43.354  25.677   0.753
51355W        W23780  28.611  14.826  13.433
51356W        W23781  41.923  25.984   1.836
51357W        W23782  30.051  33.496   4.301
51358W        W23783  42.318  12.254  11.501
51359W        W23784  21.736  12.735  14.943
51360W        W23785  31.535  40.480  11.914
51361W        W23786  10.645  39.824  12.021
51362W        W23787  35.063   7.396   0.468
51363W        W23788  13.282  39.317   0.277
51364W        W23789  26.157  11.229   0.824
51365W        W23790  33.381  34.099   1.421
51366W        W23791  30.951  22.129  14.362
51367W        W23792  23.529  38.571  10.497
51368W        W23793  35.519  12.650  12.871
51369W        W23794  42.944  26.115   3.639
51370W        W23795   9.280  44.451   1.406
51371W        W23796  18.681  33.053   2.266
51372W        W23797  42.397  19.061   3.695
51373W        W23798  16.147  42.882  11.505
51374W        W23799  17.790  13.142   1.357
51375W        W23800  16.761   1.788  11.471
51376W        W23801  29.082  20.630  13.469
51377W        W23802  38.369  26.011  13.378
51378W        W23803  11.202  14.621   1.892
51379W        W23804   2.274  16.578  12.549
51380W        W23805  32.123   8.877  14.939
51381W        W23806  32.975  42.405  11.999
51382W        W23807  40.308   3.742   2.373
51383W        W23808  13.708  41.309  11.035
51384W        W23809  43.289  19.560   0.436
51385W        W23810  43.786  37.891  14.360
51386W        W23811  44.842  44.384   2.349
51387W        W23812  44.760  23.535   2.675
51388W        W23813  18.629   0.949   3.640
51389W        W23814  35.537   2.783   4.800
51390W        W23815  38.425  39.427   1.295
51391W        W23816  43.943  17.173  13.819
51392W        W23817  35.950  32.410  11.996
51393W        W23818   8.162  28.058  10.604
51394W        W23819  17.152   0.754  13.417
51395W        W23820  43.273  42.402  12.996
51396W        W23821  12.142  18.195  10.521
51397W        W23822  27.129  11.737   1.225
51398W        W23823  20.168  24.588  12.000
51399W        W23824   3.869  41.950  14.286
51400W        W23825  38.832  35.092  13.337
51401W        W23826  12.165  43.396   2.291
51402W        W23827  30.112  11.354  12.410
51403W        W23828  18.609  18.583  14.281
51404W        W23829  26.013  32.517  11.451
51405W        W23830  18.112   1.311   0.270
51406W        W23831   3.315  38.928   4.179
51407W        W23832  11.794  17.721   0.907
51408W        W23833   4.882   7.340   2.324
51409W        W23834   8.332  29.070  14.409
51410W        W23835  10.756  44.952  12.367
51411W        W23836  28.162  12.260   3.241
51412W        W23837  39.936  41.386   0.754
51413W        W23838   2.371  38.392   0.463
51414W        W23839  17.199  23.122   3.733
51415W        W23840  40.799  13.325   2.392
51416W        W23841  34.944  44.952  14.950
51417W        W23842  44.464  27.992   1.269
51418W        W23843  30.497  40.380   4.210
51419W        W23844  19.607   2.747  11.025
51420W        W23845  39.035  32.003  12.555
51421W        W23846   5.807  40.326  11.049
51422W        W23847  29.479   9.280  13.928
51423W        W23848  41.968  43.456   1.732
51424W        W23849  10.268   3.721   3.190
51425W        W23850  24.617   7.241   2.194
51426W        W23851   0.383  25.697  12.010
51427W        W23852  28.612  33.385  11.489
51428W        W23853   6.834  41.939   2.798
51429W        W23854  39.510  28.119  14.323
51430W        W23855   1.425  10.645   0.293
51431W        W23856  30.062  13.631   3.783
51432W        W23857  39.811  34.875   2.338
51433W        W23858  33.061  17.687   4.125
51434W        W23859  33.543  20.601  11.555
51435W        W23860  42.289   3.332  10.908
51436W        W23861  34.898   3.857   0.836
51437W        W23862  29.932  11.831  12.488
51438W        W23863   5.416  14.725  14.783
51439W        W23864  19.049  37.394  10.458
51440W        W23865  41.302   9.881  10.472
51441W        W23866  18.054   8.386   0.815
51442W        W23867  31.422   9.267  12.560
51443W        W23868  16.171  13.833   2.413
51444W        W23869  14.828   3.320   5.764
51445W        W23870  13.745   3.300  13.519
51446W        W23871   5.337  11.238  12.065
51447W        W23872   3.819  24.720  13.946
51448W        W23873   5.726  41.923  13.369
51449W        W23874  35.098  21.145  10.985
51450W        W23875  21.208  27.599   1.702
51451W        W23876  13.301  18.141   0.442
51452W        W23877   1.401   9.391  14.887
51453W        W23878  34.113   0.478   0.820
51454W        W23879  29.066   8.858   1.833
51455W        W23880  18.181  30.616  14.768
51456W        W23881  17.111  39.455   3.635
51457W        W23882  16.719   1.397   2.801
51458W        W23883  28.031   9.872  12.938
51459W        W23884  17.711   0.350   2.882
51460W        W23885   9.308  19.771   3.330
51461W        W23886  28.027  36.949   1.339
51462W        W23887  37.452  16.202  14.971
51463W        W23888  19.675   3.790  12.432
51464W        W23889  40.916  37.942  13.968
51465W        W23890  41.529  27.527  11.565
51466W        W23891  17.626  41.865   0.292
51467W        W23892  43.497  39.024   0.433
51468W        W23893   7.697  23.653  10.940
51469W        W23894   3.256   0.865  14.420
51470W        W23895  28.676  19.754  11.427
51471W        W23896  44.831  20.565  12.903
51472W        W23897  23.232   8.773  14.418
51473W        W23898  19.278  37.391   3.746
51474W        W23899  18.610  14.638   4.756
51475W        W23900   2.315  22.127  10.997
51476W        W23901  40.971  28.597   0.738
51477W        W23902  12.643  43.320  12.540
51478W        W23903  12.845  35.924  10.489
51479W        W23904  35.100   9.731   0.786
51480W        W23905  18.585  22.662  14.298
51481W        W23906  27.569   2.885  11.057
51482W        W23907  21.236  38.340   2.695
51483W        W23908  39.000   2.867  11.881
51484W        W23909  32.029  18.626  13.501
51485W        W23910  28.529  12.710  13.494
51486W        W23911  28.103  17.096  13.414
51487W        W23912  23.621   4.403  13.345
51488W        W23913  12.128  28.551  11.505
51489W        W23914  15.698  42.857  13.448
51490W        W23915  22.115   9.383  10.515
51491W        W23916  14.814  23.543   0.922
51492W        W23917  14.604  14.189  14.929
51493W        W23918  22.108  24.699  10.610
51494W        W23919  38.525  12.721   2.252
51495W        W23920  43.327   2.827  12.511
51496W        W23921  35.009  10.848  13.993
51497W        W23922   2.836   8.760  11.914
51498W        W23923  16.666  19.043  14.760
51499W        W23924  20.155  41.427   2.724
51500W        W23925  36.932  14.612   4.643
51501W        W23926  28.123  22.710   3.325
51502W        W23927  41.935  31.471   0.833
51503W        W23928  40.386  37.020   4.339
51504W        W23929  32.515  28.543  13.059
51505W        W23930  20.036  11.663   4.287
51506W        W23931   0.320  37.475   3.680
51507W        W23932   3.952  18.573   3.756
51508W        W23933  19.064  13.640  14.766
51509W        W23934  11.140  18.695   3.825
51510W        W23935   9.239  21.581  14.821
51511W        W23936   5.366  21.163   3.741
51512W        W23937  28.103  38.994   2.213
51513W        W23938  19.162   6.834  14.460
51514W        W23939  30.586   5.758  13.802
51515W        W23940   7.816  11.765   2.390
51516W        W23941  25.658  11.220   4.672
51517W        W23942  23.128  36.461   2.785
51518W        W23943  36.857  37.947   4.656
51519W        W23944  16.638  24.676   1.417
51520W        W23945   2.269   0.915   2.229
51521W        W23946   4.918  34.982   2.299
51522W        W23947  40.465  38.357  11.011
51523W        W23948  28.581  23.080   3.339
51524W        W23949  18.729  23.566  13.520
51525W        W23950  25.986  33.004  10.085
51526W        W23951   5.837  19.696   0.463
51527W        W23952   8.680  35.066  11.923
51528W        W23953  30.112  37.848   4.717
51529W        W23954  19.102  11.180  11.385
51530W        W23955   1.867  20.769   4.114
51531W        W23956  39.928  16.667   1.333
51532W        W23957  43.836  27.515  13.018
51533W        W23958  33.044  16.313   2.234
51534W        W23959   9.295  15.100   2.662
51535W        W23960  37.434  24.057   0.760
51536W        W23961  41.395  36.923   2.223
51537W        W23962   8.326  36.414  12.857
51538W        W23963  24.556  33.105   0.250
51539W        W23964  41.451  36.072  12.948
51540W        W23965  30.138  25.029  10.631
51541W        W23966  20.186  22.209  11.124
51542W        W23967   6.772  30.544  11.890
51543W        W23968  14.162   1.274   1.773
51544W        W23969  14.182  22.125   0.268
51545W        W23970  35.918  29.667  13.952
51546W        W23971  10.331  21.055  14.026
51547W        W23972   3.225  37.964  14.283
51548W        W23973  17.150  33.579   0.254
51549W        W23974  21.639  13.764   1.299
51550W        W23975   2.445  12.308  14.929
51551W        W23976  21.256  16.593   4.177
51552W        W23977   6.900   7.844   2.756
51553W        W23978   4.830  41.373  11.505
51554W        W23979   0.828  37.556   2.299
51555W        W23980   0.893   7.816  14.443
51556W        W23981  17.761   7.281   3.332
51557W        W23982  24.677  35.894  10.444
51558W        W23983  20.146  27.446   0.307
51559W        W23984  26.647   0.470  10.596
51560W        W23985  30.517  30.070   1.702
51561W        W23986  33.093   9.238  14.796
51562W        W23987  10.762  41.027   4.753
51563W        W23988   7.309  29.558  14.339
51564W        W23989  30.485  34.105  12.428
51565W        W23990   8.219   1.255  11.892
51566W        W23991  20.748  35.507   2.887
51567W        W23992  34.531  17.234   4.665
51568W        W23993  35.011   8.189   0.290
51569W        W23994  41.895  30.090  10.492
51570W        W23995   1.800   8.184  10.914
51571W        W23996  11.860  30.039   0.825
51572W        W23997   4.303  15.110   3.735
51573W        W23998  38.384  26.074  11.985
51574W        W23999  19.554   6.225  11.568
51575W        W24000  15.299   8.743  12.930
51576W        W24001   6.763   1.238  13.435
51577W        W24002  27.025  13.822   0.353
51578W        W24003   6.788  17.127   4.176
51579W        W24004  10.205   6.880   0.904
51580W        W24005  20.063   7.860   4.323
51581W        W24006  11.199  29.145   0.756
51582W        W24007  28.007  27.600  10.565
51583W        W24008  15.665  24.113  10.470
51584W        W24009  34.607  44.487  13.935
51585W        W24010  10.854  29.486   0.334
51586W        W24011  18.216   2.921  13.047
51587W        W24012   9.264  30.970  14.386
51588W        W24013   5.867   8.853  10.522
51589W        W24014   4.916  29.983  13.994
51590W        W24015  11.223  34.504  14.515
51591W        W24016  44.433  34.121  12.481
51592W        W24017  20.141  38.544   3.782
51593W        W24018  41.538  15.586   5.105
51594W        W24019  31.941  41.338  12.352
51595W        W24020   7.262  11.666  11.946
51596W        W24021  44.441  21.672   0.741
51597W        W24022  40.950  23.606   1.897
51598W        W24023   4.285  35.886  13.445
51599W        W24024  26.142  12.246  10.446
51600W        W24025   0.938  17.217   3.842
51601W        W24026  42.305   2.261   3.772
51602W        W24027  34.901   7.860   1.716
51603W        W24028  31.980  27.537  14.407
51604W        W24029  11.364  44.497  13.357
51605W        W24030   0.313   0.931   1.801
51606W        W24031  13.771  38.529   4.226
51607W        W24032  27.518   7.417  11.508
51608W        W24033  27.479   3.337   2.304
51609W        W24034  21.724   0.460   4.138
51610W        W24035  16.751  18.644  14.874
51611W        W24036   6.818  12.189   3.764
51612W        W24037  12.630  24.207   4.792
51613W        W24038  13.126  19.058   1.701
51614W        W24039   4.271  35.388  13.017
51615W        W24040  22.123  28.466   3.866
51616W        W24041  33.614  25.623   5.175
51617W        W24042  15.286  22.059  14.884
51618W        W24043  38.945   7.325  14.777
51619W        W24044  43.450  43.459  10.515
51620W        W24045  44.009  21.671  13.913
51621W        W24046   5.807  44.763  10.574
51622W        W24047   6.277  44.886  10.554
51623W        W24048  26.071   6.337   4.812
51624W        W24049  26.124  26.169  13.045
51625W        W24050  36.461  42.483  14.516
51626W        W24051  34.878   8.236   3.319
51627W        W24052  43.846   3.815   1.867
51628W        W24053  21.091  29.077  12.977
51629W        W24054  17.187  23.660   4.206
51630W        W24055  16.304  23.654   0.790
51631W        W24056   1.964  11.845   0.428
51632W        W24057  22.640   1.873  13.958
51633W        W24058  11.261  39.482   1.246
51634W        W24059  15.697  36.427  14.362
51635W        W24060   5.355   3.834  12.366
51636W        W24061  43.009  38.002  11.520
51637W        W24062   3.787  36.865   3.690
51638W        W24063  28.162   2.860   5.286
51639W        W24064   4.319   2.457   0.933
51640W        W24065  28.542  12.158  14.412
51641W        W24066  41.838   8.684   2.247
51642W        W24067   9.773  41.982  12.830
51643W        W24068   0.481  32.479   1.373
51644W        W24069   1.479   8.208   3.273
51645W        W24070  36.869  20.233  13.927
51646W        W24071   2.469  32.924   2.831
51647W        W24072   1.805   4.264   1.879
51648W        W24073  32.596  29.483  10.984
51649W        W24074  41.532  23.112   2.667
51650W        W24075  19.097  30.573  10.989
51651W        W24076   7.235  21.082  10.458
51652W        W24077  23.581   8.228   2.264
51653W        W24078  42.376  36.462  12.491
51654W        W24079  27.607  24.492  13.356
51655W        W24080  28.961  36.996  10.999
51656W        W24081   3.764  20.601   4.711
51657W        W24082  20.226  32.089   3.640
51658W        W24083   1.413  41.885   0.429
51659W        W24084  22.153  29.552  12.019
51660W        W24085  41.854  27.602   3.379
51661W        W24086  13.289  14.639   1.440
51662W        W24087  25.033   2.355  14.952
51663W        W24088  33.893  14.716   1.386
51664W        W24089  40.504  35.913  13.993
51665W        W24090   8.758  11.193  11.453
51666W        W24091  43.382  19.244  12.029
51667W        W24092  44.364  42.397  14.459
51668W        W24093  41.391  13.717  14.827
51669W        W24094  28.460  38.455  10.447
51670W        W24095  24.229  37.352  10.603
51671W        W24096   1.782  24.219  10.513
51672W        W24097  36.944  27.976   1.791
51673W        W24098  34.420  18.640  11.073
51674W        W24099  39.946  41.345  14.787
51675W        W24100  30.462  28.463  11.974
51676W        W24101  16.141  23.102   3.161
51677W        W24102  31.111  17.207   0.871
51678W        W24103  21.569  31.922  11.600
51679W        W24104   4.428  17.774   0.286
51680W        W24105  21.694  13.695  11.960
51681W        W24106  31.128  20.192   2.791
51682W        W24107  40.386  10.317   3.263
51683W        W24108   7.831   7.789   0.765
51684W        W24109  16.290   5.249   4.827
51685W        W24110  26.020  37.477   1.289
51686W        W24111  28.523  18.655  13.809
51687W        W24112   0.933  21.757   3.326
51688W        W24113   3.820  20.183  10.482
51689W        W24114  38.930  31.449  12.997
51690W        W24115   6.305  37.537   3.275
51691W        W24116  13.206   7.853  11.509
51692W        W24117  18.754   7.285   4.207
51693W        W24118  41.914  21.694   5.228
51694W        W24119  40.006  20.172  14.852
51695W        W24120   2.827   5.269  13.365
51696W        W24121  14.691  34.081   0.288
51697W        W24122  19.680  26.199  14.949
51698W        W24123  15.200  23.122   4.832
51699W        W24124  12.190  16.754  11.565
51700W        W24125  30.524  19.255   2.245
51701W        W24126  43.450  35.396  13.451
51702W        W24127   4.433   1.285  14.420
51703W        W24128   8.281   8.857  11.032
51704W        W24129  32.555  26.565   4.734
51705W        W24130  34.471  38.357  12.529
51706W        W24131   1.393   0.897   4.145
51707W        W24132  39.978   9.646   1.370
51708W        W24133  39.910  25.152   3.704
51709W        W24134  15.236  36.924  14.800
51710W        W24135   3.315   4.448  12.347
51711W        W24136  22.511  12.848   4.261
51712W        W24137  38.567  30.923   2.768
51713W        W24138   8.206  10.704  10.642
51714W        W24139  18.769   5.907   2.744
51715W        W24140  19.217  43.969  11.410
51716W        W24141  41.412  27.657  10.598
51717W        W24142  10.702  28.599   2.708
51718W        W24143  19.555  11.766   1.275
51719W        W24144   9.667  40.009  14.958
51720W        W24145  34.586  35.586  11.963
51721W        W24146  25.073  30.486   1.868
51722W        W24147  37.963   3.901   3.321
51723W        W24148  43.277  11.625  14.414
51724W        W24149  11.371   8.382   3.855
51725W        W24150  15.730  16.096  13.879
51726W        W24151  20.175  29.436   0.400
51727W        W24152  39.494   6.404   3.870
51728W        W24153  29.627  25.701   2.266
51729W        W24154   5.267  21.740  13.830
51730W        W24155  18.259  32.124  14.394
51731W        W24156  41.510  34.562   0.284
51732W        W24157   9.243  26.205   1.254
51733W        W24158  31.060   5.921  12.953
51734W        W24159  37.005  16.281   2.369
51735W        W24160  19.714  12.776   3.720
51736W        W24161   6.911  35.031  11.873
51737W        W24162   5.748  38.418   1.702
51738W        W24163  28.577  41.974   1.811
51739W        W24164  24.047  17.216   0.891
51740W        W24165  20.561  12.151   0.410
51741W        W24166   5.221  23.000   1.761
51742W        W24167  30.952  19.247  14.896
51743W        W24168  20.239  33.544  13.352
51744W        W24169  21.241  15.173  14.422
51745W        W24170   6.191  16.177   3.305
51746W        W24171   9.243  27.060   2.738
51747W        W24172  35.026   0.264   0.385
51748W        W24173   4.833  15.692   1.880
51749W        W24174  13.644  40.855   1.904
51750W        W24175   6.678  35.061   1.417
51751W        W24176  38.520  18.183   2.764
51752W        W24177  28.014  43.506  13.430
51753W        W24178  27.112  26.459   4.615
51754W        W24179  10.791   0.856  12.892
51755W        W24180  31.131  16.267  14.430
51756W        W24181  18.726  42.974   0.898
51757W        W24182  23.107  16.640   1.271
51758W        W24183   6.230   5.892   1.424
51759W        W24184  26.534  33.546   0.305
51760W        W24185   4.735  19.715   3.758
51761W        W24186  14.728  27.058  14.794
51762W        W24187  15.289   5.693   2.284
51763W        W24188  23.569  26.061  10.478
51764W        W24189   2.875  12.759  14.915
51765W        W24190  35.511  22.593   4.207
51766W        W24191  41.793  22.550  10.501
51767W        W24192  10.207  35.465  14.856
51768W        W24193   4.822  33.016  10.904
51769W        W24194  23.545  17.208   3.158
51770W        W24195  10.161  13.242   2.306
51771W        W24196  26.701  19.538   2.359
51772W        W24197   5.884  40.317  12.370
51773W        W24198  27.656   5.420  11.990
51774W        W24199  19.161  26.473   2.296
51775W        W24200  20.685  42.517   1.288
51776W        W24201  33.892  23.611  10.489
51777W        W24202   9.852  39.382  10.968
51778W        W24203   5.708  14.602   2.883
51779W        W24204  28.629   9.737   2.731
51780W        W24205  15.327  33.528  13.061
51781W        W24206   5.293  25.681   1.243
51782W        W24207   1.376  25.655  11.592
51783W        W24208  40.031  39.969  14.353
51784W        W24209   8.166  40.016  12.940
51785W        W24210   5.851  42.013  14.497
51786W        W24211  22.068  40.956  10.500
51787W        W24212  30.013  42.429  14.880
51788W        W24213  16.297  36.419  10.484
51789W        W24214  28.569   4.237   2.769
51790W        W24215   6.221   3.284   3.666
51791W        W24216  14.156   4.832  12.404
51792W        W24217  40.893  35.011   4.771
51793W        W24218  26.174  21.032   1.316
51794W        W24219  31.923  20.543  13.880
51795W        W24220  18.276  12.745   3.246
51796W        W24221  40.935  38.444   4.613
51797W        W24222  11.743  10.269  10.549
51798W        W24223  41.515   5.713  14.008
51799W        W24224  36.362  23.522  10.608
51800W        W24225  10.328   8.192  13.966
51801W        W24226  41.311  41.957  11.053
51802W        W24227  41.337  40.424   3.177
51803W        W24228  35.591  37.532   0.803
51804W        W24229   8.809  20.672   0.265
51805W        W24230  34.026  43.855  12.936
51806W        W24231  38.436  41.827   1.275
51807W        W24232  15.146  32.086  14.962
51808W        W24233  29.104  34.517   4.335
51809W        W24234  43.314  19.646  10.612
51810W        W24235  38.393  19.043  11.027
51811W        W24236  35.017  18.184   1.875
51812W        W24237   4.440  18.200  12.562
51813W        W24238  43.464  41.498   1.231
51814W        W24239   9.297  27.553   2.883
51815W        W24240  36.006  35.028  12.873
51816W        W24241   9.679  38.975   0.902
51817W        W24242  22.710  29.634  13.326
51818W        W24243   9.840   8.683  11.506
51819W        W24244  23.232   6.368  11.918
51820W        W24245  14.601  20.214   2.846
51821W        W24246  18.119   1.734  13.915
51822W        W24247   5.859  18.263   0.260
51823W        W24248   0.410  38.336  14.412
51824W        W24249  23.589   9.829   5.776
51825W        W24250  29.599  13.251   3.652
51826W        W24251   9.304  27.614  13.540
51827W        W24252  24.987  33.535   2.315
51828W        W24253   6.253  28.599   4.304
51829W        W24254  36.347  33.923  10.518
51830W        W24255  37.569   5.305   4.787
51831W        W24256  35.358  18.595   1.890
51832W        W24257   7.892  17.596  11.943
51833W        W24258   3.264  11.697  11.859
51834W        W24259  23.047  18.285   1.884
51835W        W24260   4.380  15.310  13.434
51836W        W24261  36.561   7.789  10.571
51837W        W24262  32.025  38.345  14.305
51838W        W24263  32.437   8.341   0.338
51839W        W24264  13.696  40.831  13.962
51840W        W24265  38.026  12.348  12.830
51841W        W24266  37.450  37.957  13.488
51842W        W24267  40.477  43.402  10.533
51843W        W24268   2.886  14.305   3.344
51844W        W24269  36.488   3.952  13.416
51845W        W24270   3.354  36.887   2.314
51846W        W24271  35.946  37.006   1.451
51847W        W24272  21.116  44.898  14.894
51848W        W24273   8.720  35.050  14.322
51849W        W24274  15.131  31.982   3.381
51850W        W24275  28.103  16.101   4.624
51851W        W24276  16.191  43.275  13.393
51852W        W24277  38.328   4.238  13.498
51853W        W24278  20.149  14.287   0.275
51854W        W24279  20.685  44.294   1.435
51855W        W24280   0.917  40.527  11.522
51856W        W24281  41.503   3.381   0.253
51857W        W24282   7.404  26.539   2.712
51858W        W24283  10.827  31.571  14.475
51859W        W24284  22.540  29.509   2.293
51860W        W24285  22.105  37.571  14.311
51861W        W24286  12.252  13.312   4.723
51862W        W24287  18.689  20.243  12.489
51863W        W24288  17.274  14.254   0.918
51864W        W24289  26.973  18.603   2.887
51865W        W24290  32.139  36.495  11.540
51866W        W24291  41.939  35.477   1.428
51867W        W24292   9.314  36.868  10.895
51868W        W24293   6.814  18.198  10.900
51869W        W24294  12.736   5.428  14.341
51870W        W24295  35.975   8.775   9.583
51871W        W24296  22.747   3.446  13.038
51872W        W24297  10.783  27.636   0.452
51873W        W24298   6.906  21.545   1.398
51874W        W24299  43.412   6.288   3.661
51875W        W24300   1.414   0.486  11.002
51876W        W24301  33.591  36.080   4.253
51877W        W24302   1.272  22.240   0.778
51878W        W24303  32.076   0.449  11.944
51879W        W24304  22.227  22.211  12.038
51880W        W24305  44.804   5.883  13.036
51881W        W24306  21.632  28.536  10.411
51882W        W24307  16.576   3.303  14.394
51883W        W24308   1.272   3.908  11.513
51884W        W24309  15.587   3.217  12.985
51885W        W24310   2.241   6.698   2.688
51886W        W24311  13.751  29.137  12.519
51887W        W24312  18.287  33.121  12.551
51888W        W24313  21.578  24.701   4.239
51889W        W24314  23.140  35.992  14.313
51890W        W24315  18.121  22.059   0.747
51891W        W24316  43.462  44.989   4.602
51892W        W24317  38.352  44.326   0.402
51893W        W24318  32.558  33.881   0.894
51894W        W24319  28.602  43.459  14.482
51895W        W24320   8.262  26.976   1.299
51896W        W24321  12.352   7.331   2.742
51897W        W24322   5.428  28.073   1.361
51898W        W24323  19.222   8.243  12.824
51899W        W24324  41.529  33.513   4.349
51900W        W24325  37.565  22.048   0.421
51901W        W24326  14.721  19.112   1.424
51902W        W24327  26.179  43.408   4.706
51903W        W24328  24.093  42.369  13.484
51904W        W24329  23.177  12.355  10.546
51905W        W24330  30.926   8.406  11.943
51906W        W24331   7.280   0.907   3.298
51907W        W24332  33.876   8.403  13.034
51908W        W24333   6.835   4.710   1.304
51909W        W24334   0.379  24.170  14.466
51910W        W24335  30.119  41.431   1.882
51911W        W24336  22.594  24.155  13.932
51912W        W24337  44.885  28.062  11.511
51913W        W24338   6.732  18.200  13.870
51914W        W24339  14.742  11.223  14.473
51915W        W24340  26.682   1.946  13.989
51916W        W24341   1.918  26.546  13.814
51917W        W24342  25.526   9.745   0.758
51918W        W24343  14.333  29.547  14.359
51919W        W24344  18.623  27.681   0.814
51920W        W24345  32.074  15.818   5.212
51921W        W24346  19.766  35.064  12.849
51922W        W24347  38.047   9.690  14.832
51923W        W24348  31.107  27.976   3.635
51924W        W24349  33.903   4.877   3.701
51925W        W24350   5.808   2.462  12.897
51926W        W24351  16.118  26.108   0.749
51927W        W24352   8.664  25.564   4.237
51928W        W24353  26.081  31.478  14.009
51929W        W24354  42.965   0.763  11.966
51930W        W24355  18.065  11.647   4.291
51931W        W24356  41.792  20.723   4.158
51932W        W24357   9.769  33.036   2.772
51933W        W24358  17.134  31.471  10.631
51934W        W24359  13.706  13.717   2.247
51935W        W24360  10.720  21.234  11.441
51936W        W24361  41.945   1.286  11.461
51937W        W24362  40.361  33.480   0.848
51938W        W24363   0.379  34.599   9.438
51939W        W24364  24.680  13.749   2.260
51940W        W24365  25.601  29.971  13.027
51941W        W24366  15.730  41.958   3.338
51942W        W24367   7.183  23.995  14.952
51943W        W24368  17.285   9.369   4.291
51944W        W24369   6.307  19.094  14.323
51945W        W24370  38.918  40.495  12.364
51946W        W24371  20.103  23.096  11.377
51947W        W24372   3.952  42.935   1.406
51948W        W24373   2.734  32.137  12.975
51949W        W24374  22.121  20.174   2.218
51950W        W24375  18.265  11.819   2.328
51951W        W24376  43.288   3.315  13.475
51952W        W24377  38.506  11.691   1.714
51953W        W24378  17.154  38.496  14.340
51954W        W24379  25.026  17.150  12.896
51955W        W24380  17.605  23.547   0.809
51956W        W24381  16.683   1.408  10.630
51957W        W24382  44.783   1.920  13.053
51958W        W24383  32.126   3.770   4.806
51959W        W24384  22.175  15.646   3.385
51960W        W24385  34.939   9.811  12.449
51961W        W24386  21.520  25.139  13.433
51962W        W24387  44.794   8.894   5.247
51963W        W24388  17.763  41.838  11.068
51964W        W24389  18.597  14.712  12.532
51965W        W24390  10.241  11.368   2.288
51966W        W24391   9.742   4.745  11.582
51967W        W24392  25.650  21.066   0.277
51968W        W24393  10.803   6.798   4.113
51969W        W24394  41.972  27.996  14.935
51970W        W24395   0.928  33.616   0.824
51971W        W24396  28.973  10.247   2.328
51972W        W24397  27.012  22.723   4.678
51973W        W24398  43.393  17.227  11.007
51974W        W24399  23.613  42.300   1.897
51975W        W24400   4.370  26.655  14.396
51976W        W24401  35.490   7.222  10.968
51977W        W24402  27.452   3.780   4.311
51978W        W24403  25.075  16.784   2.205
51979W        W24404  19.651  43.470  10.993
51980W        W24405   2.255   4.283   4.793
51981W        W24406  25.600  43.839  13.880
51982W        W24407  19.630  13.768   1.908
51983W        W24408  15.092  36.932  12.524
51984W        W24409  10.339  14.718  14.884
51985W        W24410   6.299   1.280  13.420
51986W        W24411  12.639  16.679   1.820
51987W        W24412  26.174  14.708   3.283
51988W        W24413  40.814  27.129   1.917
51989W        W24414  30.133   2.437   2.288
51990W        W24415  20.691   2.807   4.114
51991W        W24416   1.791  24.073  12.536
51992W        W24417   7.742  20.233   2.763
51993W        W24418  37.363  26.597  14.809
51994W        W24419  29.664   5.421  13.040
51995W        W24420  23.721   7.846   2.864
51996W        W24421  37.490  37.001   3.368
51997W        W24422  41.384  21.166   4.831
51998W        W24423  32.058  44.964  12.506
51999W        W24424  15.167  19.605  13.539
52000W        W24425  10.820  39.873  14.345
52001W        W24426  34.022  29.538   4.238
52002W        W24427  20.622   2.733   0.798
52003W        W24428   3.357  19.693   0.877
52004W        W24429  24.616  30.439   3.662
52005W        W24430  18.550   2.823  12.054
52006W        W24431   7.891  25.033  13.438
52007W        W24432  10.803  39.981   4.307
52008W        W24433  26.476  25.533  14.891
52009W        W24434  21.625  17.140  12.939
52010W        W24435  14.213  33.438   1.763
52011W        W24436  40.345  13.714   2.295
52012W        W24437  27.094  39.425  11.385
52013W        W24438  41.293  43.923  12.384
52014W        W24439  17.786  33.917  11.991
52015W        W24440  28.086  18.165  10.626
52016W        W24441  42.813  12.178   2.184
52017W        W24442  13.273  18.065   1.308
52018W        W24443  20.699  43.459  12.068
52019W        W24444   6.323  41.880   1.365
52020W        W24445  24.544  28.530  14.474
52021W        W24446  37.570  30.497   2.880
52022W        W24447  36.380  31.459  11.598
52023W        W24448  33.436   4.893  11.435
52024W        W24449  26.981  17.274   2.758
52025W        W24450  25.191  17.580  12.993
52026W        W24451  17.660   0.447   3.866
52027W        W24452  24.226   4.268   4.833
52028W        W24453  42.778  34.446  13.793
52029W        W24454   6.743  13.757  11.470
52030W        W24455  25.156  14.613   3.271
52031W        W24456   0.939  42.790  10.904
52032W        W24457  33.431  24.617  13.832
52033W        W24458  27.130  28.533  12.542
52034W        W24459  44.262  27.667   4.135
52035W        W24460  26.141  27.159  10.550
52036W        W24461  14.784  24.592   4.349
52037W        W24462  21.094  20.699   3.732
52038W        W24463  18.700  21.106   3.342
52039W        W24464  19.156  11.293   2.400
52040W        W24465   3.324  41.017  11.923
52041W        W24466  31.507  44.448   0.894
52042W        W24467  39.475  13.201  11.588
52043W        W24468  22.547  21.736  13.800
52044W        W24469  44.771  43.300  11.873
52045W        W24470  11.321  38.058  13.908
52046W        W24471  31.000  33.882   1.821
52047W        W24472  15.652  40.801   2.191
52048W        W24473  24.487  24.088   2.769
52049W        W24474  32.060  35.885   4.614
52050W        W24475  35.567  32.141   2.297
52051W        W24476  22.728   9.786  13.941
52052W        W24477   0.382  23.162  11.942
52053W        W24478  22.727  20.116  14.967
52054W        W24479  13.825   9.352  12.060
52055W        W24480   0.895  16.212   3.252
52056W        W24481   6.263  21.146  11.121
52057W        W24482  33.593  14.802  11.424
52058W        W24483  23.140  22.030   0.727
52059W        W24484  43.379  36.433  11.947
52060W        W24485  26.113  30.425  12.473
52061W        W24486  28.126   7.747   1.330
52062W        W24487  24.178  19.589  11.596
52063W        W24488  14.231  27.619   2.839
52064W        W24489  39.003  30.912   0.428
52065W        W24490  29.016  12.747   0.936
52066W        W24491  13.229  12.267   1.280
52067W        W24492  25.584  32.439  13.023
52068W        W24493  19.179  21.100   0.408
52069W        W24494  37.072  36.889  13.348
52070W        W24495  11.371  36.090  10.961
52071W        W24496  26.535  32.391  13.989
52072W        W24497  30.639  32.935  13.538
52073W        W24498   0.977  28.564   0.915
52074W        W24499  35.504  10.145  13.384
52075W        W24500  13.170  34.971   2.295
52076W        W24501  33.536  41.474   2.226
52077W        W24502   3.802  16.812   3.630
52078W        W24503  32.585  16.582  11.426
52079W        W24504  25.513   5.846   0.921
52080W        W24505  39.417  33.127  14.499
52081W        W24506  40.886  10.317   3.203
52082W        W24507  25.197  15.171   0.758
52083W        W24508  38.030   6.346   1.451
52084W        W24509   3.750  18.758   3.229
52085W        W24510  43.271   6.706  10.957
52086W        W24511   9.731   0.333  11.414
52087W        W24512  10.707  24.546  12.849
52088W        W24513  28.613  12.331  12.959
52089W        W24514  26.160   8.703   0.849
52090W        W24515  31.477  17.713   4.601
52091W        W24516   4.307  19.241   4.249
52092W        W24517  16.780  35.926   4.179
52093W        W24518  33.077   7.682   2.811
52094W        W24519  25.016   8.333   3.275
52095W        W24520  41.832   1.333  14.834
52096W        W24521   3.257   5.926   1.273
52097W        W24522   8.329   8.250   0.905
52098W        W24523  15.192   3.379   1.698
52099W        W24524  13.123   3.931   3.803
52100W        W24525  27.617  12.318   2.373
52101W        W24526  36.499  14.143  10.932
52102W        W24527  35.477   7.223  11.488
52103W        W24528  11.790  31.434   4.684
52104W        W24529  27.162  28.955   5.098
52105W        W24530   6.824   3.451  11.508
52106W        W24531  12.283  37.032   1.365
52107W        W24532  24.542  13.704  10.466
52108W        W24533   5.355  17.167  11.443
52109W        W24534   1.857  26.979   0.839
52110W        W24535  33.047  17.225   2.800
52111W        W24536  16.762  23.636   3.761
52112W        W24537  34.439  41.013   3.652
52113W        W24538  15.611   0.360  14.877
52114W        W24539  26.480  16.643   3.337
52115W        W24540  33.600  18.786  11.042
52116W        W24541   9.171   0.885  11.430
52117W        W24542  39.827  16.280   4.120
52118W        W24543  22.075   3.419   2.811
52119W        W24544  23.014  30.125   1.912
52120W        W24545  40.399  24.225   2.269
52121W        W24546  13.272  35.603   2.222
52122W        W24547   2.316  28.459   3.862
52123W        W24548   4.396  44.327  11.579
52124W        W24549  29.071   4.294   0.388
52125W        W24550  15.092   4.225  11.608
52126W        W24551  28.628  35.460  14.024
52127W        W24552  21.131   8.657  14.802
52128W        W24553  18.561  31.978  10.977
52129W        W24554  12.833  12.227   1.430
52130W        W24555  17.157  11.667  12.892
52131W        W24556  24.105   0.963   0.479
52132W        W24557  35.521  43.819   1.390
52133W        W24558  17.740  38.063   0.472
52134W        W24559  42.380   7.351   1.741
52135W        W24560  38.010   8.669  11.000
52136W        W24561  11.318  25.592   2.334
52137W        W24562  22.159   3.232  11.953
52138W        W24563  11.371  14.807  10.508
52139W        W24564   1.892  10.364  13.899
52140W        W24565  20.764  32.542  13.936
52141W        W24566  37.440  17.557  12.050
52142W        W24567  32.111  39.315   2.705
52143W        W24568  28.134   3.799  13.533
52144W        W24569  19.199  35.872  10.546
52145W        W24570  22.597  32.885   0.821
52146W        W24571   8.343   6.214  14.458
52147W        W24572  18.154   5.411  14.396
52148W        W24573   3.819  10.684  12.826
52149W        W24574   6.758  28.449  12.981
52150W        W24575   6.306  27.166  14.836
52151W        W24576  11.711  12.226  12.985
52152W        W24577   3.433  28.172   3.814
52153W        W24578  20.105  23.502   3.149
52154W        W24579  33.077  35.855  13.980
52155W        W24580  29.006  21.180   5.254
52156W        W24581  18.722  12.819  13.901
52157W        W24582  14.270  39.560   1.223
52158W        W24583  35.036   4.361   0.754
52159W        W24584  36.099  14.641  14.766
52160W        W24585  25.178  38.360   2.672
52161W        W24586  31.100  22.206   5.152
52162W        W24587  21.032  22.513  10.536
52163W        W24588   5.920  37.993   4.300
52164W        W24589  11.805  23.569   2.852
52165W        W24590  42.289   4.399   4.635
52166W        W24591  38.073   5.438   2.820
52167W        W24592  44.801  27.462  14.461
52168W        W24593  42.951  28.502   2.228
52169W        W24594   7.249  24.656   3.731
52170W        W24595  31.494  19.155   4.832
52171W        W24596  40.021  41.502   4.816
52172W        W24597  21.178   1.847  10.575
52173W        W24598  13.283  17.208  13.543
52174W        W24599  20.049  44.830  12.976
52175W        W24600  38.874   8.362   1.821
52176W        W24601  21.046  25.010  12.541
52177W        W24602  12.739  29.489   2.363
52178W        W24603  17.679  26.189   2.268
52179W        W24604  41.836   4.714   2.346
52180W        W24605  28.983  40.517   1.710
52181W        W24606   9.353  16.802   2.224
52182W        W24607  42.524  35.524   3.272
52183W        W24608  17.225  11.633  13.524
52184W        W24609  29.533   2.371   1.337
52185W        W24610  39.472  19.097  14.997
52186W        W24611   3.250  33.447   5.170
52187W        W24612  19.537   6.190   0.879
52188W        W24613   7.883  22.546  14.380
52189W        W24614  40.902  31.920  14.804
52190W        W24615  38.566  24.568  10.530
52191W        W24616   3.867  27.047   4.728
52192W        W24617  28.108   7.207  14.387
52193W        W24618  34.953  26.123  11.507
52194W        W24619   1.936  19.125  14.398
52195W        W24620   4.799  26.139  10.909
52196W        W24621  32.944   1.412   3.352
52197W        W24622   2.758  31.937  10.538
52198W        W24623  30.940  39.333  10.596
52199W        W24624  31.048  15.223  13.453
52200W        W24625  19.590   0.888   5.312
52201W        W24626  36.404  27.017   4.120
52202W        W24627  43.900  17.240  14.477
52203W        W24628  18.228  31.435  14.361
52204W        W24629  32.542  38.848  12.459
52205W        W24630  30.151  20.251  12.476
52206W        W24631   1.300  37.374  12.933
52207W        W24632  15.715  30.159   0.728
52208W        W24633   7.272  16.776  12.477
52209W        W24634  11.298  15.800   4.748
52210W        W24635  37.394  18.681   5.117
52211W        W24636   2.391   8.826   2.394
52212W        W24637  32.501   1.296  14.274
52213W        W24638  31.076  35.992  14.923
52214W        W24639  23.073   8.264   2.770
52215W        W24640  21.098  14.720   1.706
52216W        W24641   9.818  39.496  12.488
52217W        W24642  10.275   4.859   3.299
52218W        W24643  27.995   0.880  14.891
52219W        W24644  41.032  16.243   3.145
52220W        W24645  25.192  23.004  10.469
52221W        W24646   1.441  43.948   4.640
52222W        W24647   2.336  37.502  14.408
52223W        W24648  41.434   4.887  10.410
52224W        W24649  13.137  28.069   1.407
52225W        W24650   5.793  39.033   2.863
52226W        W24651   1.421  42.977  11.873
52227W        W24652  13.803   4.389   1.700
52228W        W24653  28.939  44.817  13.449
52229W        W24654   2.282  14.200   4.195
52230W        W24655  38.825  21.087  12.891
52231W        W24656   2.250  40.985   0.759
52232W        W24657  40.529  38.388  14.925
52233W        W24658  29.479   8.784   0.787
52234W        W24659   7.826  13.324   2.294
52235W        W24660  35.098   1.804   4.226
52236W        W24661  44.374  37.515  14.410
52237W        W24662   4.703   4.762  10.936
52238W        W24663  30.588  12.359   3.295
52239W        W24664   1.452  37.978  12.480
52240W        W24665  29.098   4.911   1.758
52241W        W24666  22.068  16.165  13.839
52242W        W24667  18.297  18.072  11.110
52243W        W24668   4.762  26.962   0.786
52244W        W24669   8.699  15.248  13.508
52245W        W24670  43.999   9.668   0.881
52246W        W24671   8.695  36.079   1.715
52247W        W24672  14.338  22.741   2.263
52248W        W24673  11.139  35.856  11.583
52249W        W24674  34.881  39.314  10.594
52250W        W24675  40.924   2.725  14.323
52251W        W24676  29.478  19.617  10.560
52252W        W24677  32.951  16.797   4.641
52253W        W24678  43.367  31.140  12.357
52254W        W24679  11.299  38.408   4.285
52255W        W24680   9.769  38.835   1.417
52256W        W24681  19.730  19.672   4.206
52257W        W24682   6.184  30.614   3.254
52258W        W24683  11.285  30.616  11.542
52259W        W24684  16.169  13.293   4.213
52260W        W24685  29.051  11.266   4.686
52261W        W24686  33.481  34.437   0.916
52262W        W24687   8.813   9.155   0.729
52263W        W24688  40.000  18.781  10.487
52264W        W24689   4.848  43.939   4.789
52265W        W24690  15.121  21.082   3.783
52266W        W24691  23.607  24.214  14.865
52267W        W24692  30.047  18.245   2.231
52268W        W24693  40.948  37.948  11.876
52269W        W24694  33.021  39.942  11.558
52270W        W24695  29.036  40.398  14.007
52271W        W24696  34.019   8.406  10.994
52272W        W24697  41.367  21.523   2.840
52273W        W24698   1.808  31.936   1.847
52274W        W24699  21.200  13.618   1.370
52275W        W24700   0.332  19.624  13.347
52276W        W24701  29.546   8.847   1.250
52277W        W24702  31.558  31.444   3.268
52278W        W24703  37.351  14.122   3.771
52279W        W24704  40.840   3.406   1.808
52280W        W24705  44.757   6.351  13.887
52281W        W24706   7.331  21.584  12.914
52282W        W24707  28.616  19.188  13.793
52283W        W24708  35.542  19.709   3.867
52284W        W24709   6.702  18.278  11.528
52285W        W24710  19.729  37.082  14.026
52286W        W24711  11.653   7.271  13.369
52287W        W24712  43.479  29.602   3.162
52288W        W24713  13.134  14.672  14.000
52289W        W24714  13.625  31.618   4.139
52290W        W24715  17.176  27.577   4.156
52291W        W24716   9.707  32.560  12.968
52292W        W24717  12.270  11.717  12.455
52293W        W24718  13.785  26.548  14.956
52294W        W24719  28.581  43.874  12.898
52295W        W24720  18.577  11.221  11.411
52296W        W24721  39.433  39.342   0.920
52297W        W24722  24.205  23.588   0.898
52298W        W24723   1.277  20.222  12.347
52299W        W24724  36.511  13.733   2.697
52300W        W24725  13.165   1.455  13.498
52301W        W24726   6.765  12.841  14.454
52302W        W24727  20.063   1.355   2.814
52303W        W24728  15.109  13.844   3.262
52304W        W24729  34.119  17.728   0.788
52305W        W24730  42.311  18.144  11.057
52306W        W24731  19.199  41.033  12.062
52307W        W24732  16.125  24.054  13.407
52308W        W24733   8.865  10.723  11.598
52309W        W24734   4.318  40.942  13.362
52310W        W24735  14.670  32.938  12.383
52311W        W24736   8.731  27.539   1.772
52312W        W24737  40.996  11.321   3.761
52313W        W24738  27.538  38.435   1.715
52314W        W24739   4.428  26.659   4.759
52315W        W24740   4.819   9.666   0.301
52316W        W24741  34.395  10.368   0.943
52317W        W24742  41.951   5.755   4.158
52318W        W24743  40.511  20.229   4.735
52319W        W24744  24.055  11.779   0.857
52320W        W24745  40.942  43.809   1.415
52321W        W24746  18.612   3.761   1.291
52322W        W24747   4.876  13.301  14.834
52323W        W24748  10.375  34.013   3.163
52324W        W24749   5.252  40.975   3.754
52325W        W24750   4.937  16.765   3.705
52326W        W24751  29.035   1.252  12.070
52327W        W24752  13.208  42.927   3.222
52328W        W24753  38.384   6.705  13.307
52329W        W24754  22.735  13.670  12.349
52330W        W24755  38.465   1.444   1.824
52331W        W24756  15.809  19.093  12.574
52332W        W24757  26.995  31.579   5.741
52333W        W24758  37.006  39.315   3.207
52334W        W24759  40.386  19.130   2.770
52335W        W24760   6.903   9.767  12.401
52336W        W24761  38.344  13.293  14.353
52337W        W24762   7.785  13.826   1.841
52338W        W24763  11.217  12.254  10.993
52339W        W24764   0.803  34.395  12.864
52340W        W24765   8.806   9.646  12.974
52341W        W24766  37.003   7.399  13.965
52342W        W24767  26.970  17.069  11.541
52343W        W24768   4.939   6.210   3.261
52344W        W24769  20.171  36.486  12.465
52345W        W24770  30.152  10.177  11.502
52346W        W24771  21.096  41.940  14.402
52347W        W24772   4.712  32.941   2.413
52348W        W24773  37.863  25.206  10.973
52349W        W24774  31.900  32.532   3.648
52350W        W24775  23.076  42.979  11.572
52351W        W24776   1.294  15.299  12.037
52352W        W24777  13.610  25.629  13.902
52353W        W24778  39.421  24.046  14.797
52354W        W24779  34.458  30.050   1.792
52355W        W24780  22.623   5.357  11.415
52356W        W24781   2.259   6.373   0.459
52357W        W24782  42.348   0.283  12.956
52358W        W24783  24.643  22.048  12.395
52359W        W24784  34.554  10.183  14.872
52360W        W24785   9.367  31.058   2.849
52361W        W24786  22.541  42.453   1.721
52362W        W24787  40.416   7.677   3.717
52363W        W24788  38.554   0.976  12.908
52364W        W24789  25.134  11.683   4.601
52365W        W24790  17.252  29.135  11.594
52366W        W24791  10.786   9.331  13.347
52367W        W24792  34.080  30.627   4.194
52368W        W24793  24.058  39.838  14.994
52369W        W24794  28.606   3.434   4.323
52370W        W24795  27.593   0.463  12.566
52371W        W24796   3.237  30.947  12.011
52372W        W24797   8.800  17.280   2.400
52373W        W24798  14.722  11.778   1.226
52374W        W24799   7.716  21.025   0.327
52375W        W24800  23.158  23.186   0.363
52376W        W24801  34.944  35.008   3.767
52377W        W24802  12.754  10.329  12.517
52378W        W24803   4.819  15.305  11.934
52379W        W24804  31.147  36.397   0.271
52380W        W24805  39.528  23.239   4.671
52381W        W24806  16.078  14.694  12.422
52382W        W24807  12.328   9.679   0.352
52383W        W24808  20.274  25.998  10.432
52384W        W24809  21.556   6.765   4.145
52385W        W24810  24.186   5.745  12.952
52386W        W24811  44.301  14.652   5.299
52387W        W24812  30.606   6.718  14.795
52388W        W24813  18.289  32.977  14.945
52389W        W24814  27.669  14.634   4.308
52390W        W24815   5.722  38.527  11.928
52391W        W24816   4.790  30.475   0.751
52392W        W24817  34.099  25.530  12.472
52393W        W24818  18.731  35.852   5.153
52394W        W24819  32.029  10.866   2.831
52395W        W24820  18.688  36.080   0.246
52396W        W24821   2.909  14.625  13.890
52397W        W24822  27.567  28.015  12.035
52398W        W24823  15.289  11.783   3.654
52399W        W24824   8.717  29.093   2.243
52400W        W24825  28.026  30.005   2.816
52401W        W24826  25.611  16.650  11.008
52402W        W24827  18.181  15.122  14.994
52403W        W24828  12.651  40.495   2.772
52404W        W24829  12.140  35.090   0.250
52405W        W24830  43.873  22.081  14.842
52406W        W24831  35.364  40.829   2.242
52407W        W24832  42.031  25.683   0.418
52408W        W24833  37.504   2.802   3.208
52409W        W24834  20.649  30.549   3.344
52410W        W24835  42.919  40.504  13.010
52411W        W24836   9.393  36.872   1.835
52412W        W24837   7.698  37.573   1.253
52413W        W24838   2.856   4.204  13.815
52414W        W24839  12.311  42.872  14.301
52415W        W24840   8.267  30.926  12.876
52416W        W24841  43.879   8.229  14.500
52417W        W24842  29.563  38.419   2.894
52418W        W24843  37.578   9.713   1.250
52419W        W24844   6.411  29.482   1.776
52420W        W24845  40.408  10.770  14.466
52421W        W24846  27.623  38.451  13.048
52422W        W24847  43.836  24.586   3.674
52423W        W24848  22.212  33.508   1.444
52424W        W24849  34.450  43.855  10.963
52425W        W24850  42.908   1.307   2.881
52426W        W24851   3.884  19.729  14.814
52427W        W24852  43.948   6.885  11.429
52428W        W24853  27.074  41.955  14.417
52429W        W24854  28.600   7.399   4.323
52430W        W24855  30.135  33.929   1.248
52431W        W24856  33.571  19.678  14.004
52432W        W24857  33.398  10.243  12.077
52433W        W24858  19.201  33.521  14.491
52434W        W24859  20.527  20.133   0.896
52435W        W24860  19.055  13.750  12.026
52436W        W24861  26.482  15.726   4.234
52437W        W24862   9.834  33.020   0.802
52438W        W24863  11.157   8.332   4.768
52439W        W24864  27.179  35.474   4.605
52440W        W24865  43.872  38.031   1.380
52441W        W24866  36.443  34.049   1.378
52442W        W24867   6.701  10.195  11.535
52443W        W24868  14.096  29.034  10.950
52444W        W24869   2.233   4.354   2.380
52445W        W24870   2.248  14.111  10.956
52446W        W24871  22.691  39.044  11.550
52447W        W24872  13.843   9.874  14.961
52448W        W24873  31.071  16.184  13.902
52449W        W24874  18.590   4.323   2.270
52450W        W24875  28.653  33.493   3.245
52451W        W24876  43.923  20.243   4.294
52452W        W24877  36.584  25.012  13.526
52453W        W24878  37.406  41.953  12.888
52454W        W24879  20.068  23.635   2.238
52455W        W24880  31.619  20.264  13.939
52456W        W24881  25.977  33.992   1.300
52457W        W24882  18.216  41.870   3.208
52458W        W24883  20.566  35.577  12.516
52459W        W24884   4.405   5.416   1.786
52460W        W24885   5.802  32.489  11.497
52461W        W24886  26.178  41.433   1.331
52462W        W24887  22.224  34.405   2.693
52463W        W24888  41.034  39.832   2.741
52464W        W24889  37.501  12.291  11.480
52465W        W24890   7.832  36.098   1.702
52466W        W24891  32.557  31.638  12.362
52467W        W24892  33.922  18.108   4.159
52468W        W24893   3.941  13.212  14.973
52469W        W24894  24.569  14.185  13.403
52470W        W24895  18.132  21.050   2.816
52471W        W24896  12.256  17.610  12.860
52472W        W24897  11.213  41.352  12.947
52473W        W24898  33.081   0.804   2.772
52474W        W24899  15.275  13.804  11.984
52475W        W24900  17.084  34.076   0.868
52476W        W24901  13.760   8.746  10.565
52477W        W24902  33.443  18.198   4.218
52478W        W24903  42.996  39.334  11.929
52479W        W24904  39.558  33.933   3.726
52480W        W24905   4.837  30.614  14.956
52481W        W24906  37.994  21.215   4.804
52482W        W24907  27.624  15.694   4.172
52483W        W24908   0.433  16.678  11.875
52484W        W24909  36.588  24.213   2.342
52485W        W24910  16.200  11.811   3.640
52486W        W24911  44.352  35.033  10.969
52487W        W24912  39.414  25.468  10.445
52488W        W24913  39.966  41.017   2.687
52489W        W24914  20.253  35.444   1.919
52490W        W24915  28.137   0.288   0.761
52491W        W24916  23.657  23.179  13.351
52492W        W24917  20.755  14.237  12.509
52493W        W24918   2.316  25.135   4.290
52494W        W24919   4.833   7.885   0.274
52495W        W24920   7.761   4.776  13.430
52496W        W24921  43.270  14.149   3.162
52497W        W24922  16.732  19.556   3.338
52498W        W24923  17.225  41.352  10.988
52499W        W24924  43.287  44.446  11.872
52500W        W24925  23.546  14.625  12.999
52501W        W24926  18.170  13.763  12.397
52502W        W24927  33.965  14.815   3.794
52503W        W24928  39.486  17.078   1.886
52504W        W24929  34.460   7.899  13.869
52505W        W24930  35.096  11.367   0.386
52506W        W24931  19.130  43.825  13.806
52507W        W24932  42.960  12.132  10.494
52508W        W24933  28.044  33.411  11.594
52509W        W24934  31.988  21.675  13.002
52510W        W24935  26.559  26.536   0.939
52511W        W24936   1.926  31.449   2.839
52512W        W24937  44.857  43.308   2.332
52513W        W24938  19.126  37.076  14.392
52514W        W24939  42.811  42.400  13.852
52515W        W24940  42.370  27.000  13.353
52516W        W24941  34.865  44.331  13.810
52517W        W24942  30.966  23.590   3.276
52518W        W24943  42.926   5.843   3.702
52519W        W24944  26.156   0.844  14.848
52520W        W24945   3.921   6.266  11.552
52521W        W24946   9.727  34.476   4.126
52522W        W24947  44.281  25.214   0.427
52523W        W24948  20.171  23.221  11.093
52524W        W24949  43.337  28.152   0.835
52525W        W24950  40.340  19.658  14.999
52526W        W24951  21.254  36.084  11.492
52527W        W24952  34.113  40.367  14.841
52528W        W24953  31.493   0.290  13.531
52529W        W24954  40.046  19.089  14.444
52530W        W24955  35.853   4.263   2.339
52531W        W24956   0.279  35.021   0.444
52532W        W24957  22.640   1.778   3.669
52533W        W24958  11.842  39.415   0.857
52534W        W24959  11.807  17.578   3.291
52535W        W24960   9.165  35.017   3.309
52536W        W24961   6.266  28.629   0.930
52537W        W24962   8.670  30.137   2.799
52538W        W24963   5.846  32.465   3.337
52539W        W24964  32.479   6.901  14.999
52540W        W24965  20.122  13.204   2.378
52541W        W24966  30.085  16.088  10.517
52542W        W24967  33.065  25.694  14.920
52543W        W24968   9.270  21.248  11.092
52544W        W24969  10.330  10.743  12.851
52545W        W24970  37.495  27.491   1.326
52546W        W24971  31.976  40.314  14.766
52547W        W24972   7.295  24.617  11.918
52548W        W24973  22.191  24.121   0.461
52549W        W24974  24.691   8.160  13.883
52550W        W24975   0.379  26.655   9.992
52551W        W24976  26.521   4.798   0.457
52552W        W24977   8.184  33.441   4.831
52553W        W24978  16.207  18.129  14.957
52554W        W24979  36.467   2.920   2.320
52555W        W24980  22.087  30.617   0.746
52556W        W24981  44.790  30.508  12.398
52557W        W24982  17.777   1.935   2.823
52558W        W24983  33.615  23.588   1.820
52559W        W24984  33.919  26.059   1.700
52560W        W24985  15.658   9.290   2.246
52561W        W24986  44.931   3.450   2.737
52562W        W24987  38.890   0.388  10.115
52563W        W24988   2.328  26.127   0.953
52564W        W24989  32.090   3.448   3.327
52565W        W24990  32.899   5.889   4.714
52566W        W24991  38.927  34.569  12.965
52567W        W24992  23.084  19.181   3.302
52568W        W24993  12.169   2.333  13.845
52569W        W24994  32.456  17.211  13.862
52570W        W24995  19.197  24.029  13.386
52571W        W24996  21.716  34.544  13.809
52572W        W24997   1.330   3.780   2.694
52573W        W24998   6.421   2.785  10.887
52574W        W24999  40.310  33.892   4.657
52575W        W25000  33.887  20.121  10.890
52576W        W25001  13.811   2.754  13.460
52577W        W25002  39.838  30.058   2.729
52578W        W25003  40.470  15.590   2.780
52579W        W25004  38.969  33.489  11.530
52580W        W25005  43.493  19.627   3.866
52581W        W25006  13.132   4.706   1.865
52582W        W25007  28.435  36.084  12.426
52583W        W25008  29.437  34.472  14.768
52584W        W25009  22.728  26.593   2.867
52585W        W25010  12.624   1.854   0.260
52586W        W25011  15.093  26.497   0.420
52587W        W25012  39.340   2.965   4.836
52588W        W25013  29.152  12.852   0.278
52589W        W25014   8.680  41.463   0.324
52590W        W25015  23.120  10.218   4.806
52591W        W25016  34.569   9.826  11.929
52592W        W25017  20.076   8.699  10.958
52593W        W25018  10.638  29.919   3.653
52594W        W25019  40.920   7.681   4.236
52595W        W25020   0.775   6.882  12.348
52596W        W25021  10.222  30.535   4.624
52597W        W25022  23.655   8.396   3.701
52598W        W25023  33.393  25.536  12.518
52599W        W25024  26.561  39.506   4.766
52600W        W25025  16.576  36.521   2.259
52601W        W25026  42.413  31.932   0.800
52602W        W25027  33.989  35.026   2.776
52603W        W25028  20.128  33.025   4.217
52604W        W25029  21.752  10.780  12.982
52605W        W25030  30.460  38.455  11.077
52606W        W25031   5.283  32.454  10.607
52607W        W25032  10.837  36.851   1.803
52608W        W25033  21.707  32.563   2.742
52609W        W25034  35.958  27.135  14.779
52610W        W25035  23.656   4.789   4.328
52611W        W25036   9.690   8.753   2.664
52612W        W25037   7.403   0.275   3.685
52613W        W25038  43.426  36.534  13.906
52614W        W25039  28.175   2.282   1.329
52615W        W25040  21.533  17.195  10.049
52616W        W25041  18.555  34.378   4.288
52617W        W25042  33.033  21.550  13.898
52618W        W25043  10.215  12.620   3.223
52619W        W25044   3.223  25.576  13.438
52620W        W25045  24.008  14.232   0.879
52621W        W25046  11.737  34.948  11.085
52622W        W25047  24.488  31.622   0.811
52623W        W25048  35.560  15.667  12.945
52624W        W25049  12.663  24.507  12.073
52625W        W25050  32.510  35.030   3.362
52626W        W25051  23.715  12.149   2.296
52627W        W25052  23.007  29.518  14.329
52628W        W25053  16.787  32.076   9.936
52629W        W25054  22.628  18.580   1.881
52630W        W25055   2.842   2.462   4.783
52631W        W25056  12.248  37.036  12.470
52632W        W25057   9.881  39.841  12.849
52633W        W25058  38.999  33.484   4.219
52634W        W25059  10.199  12.758   4.643
52635W        W25060  38.437  33.091   0.400
52636W        W25061  25.618   7.272   0.336
52637W        W25062  23.640  34.098  13.910
52638W        W25063  20.651  10.760  10.892
52639W        W25064  31.599  18.616   3.171
52640W        W25065  28.508  26.140   2.804
52641W        W25066  33.478  40.847   3.788
52642W        W25067   7.409  33.563   2.784
52643W        W25068  11.127  20.246  13.512
52644W        W25069  15.322  27.067  14.372
52645W        W25070   0.452   8.735  13.968
52646W        W25071  34.424  25.652  14.437
52647W        W25072  14.263   2.762   0.761
52648W        W25073  12.346  40.849   1.263
52649W        W25074  37.476  29.131  13.456
52650W        W25075   2.258   2.914  11.497
52651W        W25076  28.436  40.947   1.788
52652W        W25077  18.107  36.915  10.497
52653W        W25078  21.687  34.459   0.374
52654W        W25079  39.934  44.969   3.234
52655W        W25080  34.954  24.063   5.084
52656W        W25081   0.930  13.261  10.983
52657W        W25082  19.645  24.481  12.534
52658W        W25083   2.807  18.146   4.768
52659W        W25084  34.903  43.938   1.886
52660W        W25085  11.858  34.482  13.830
52661W        W25086  16.229  13.128  11.117
52662W        W25087  22.160  36.044  13.989
52663W        W25088  38.559  43.339  13.977
52664W        W25089  23.101  34.988   0.928
52665W        W25090  41.878  17.630   1.253
52666W        W25091  24.139  22.110  12.399
52667W        W25092   4.316  43.779  14.340
52668W        W25093  39.015  22.245  14.278
52669W        W25094   4.916  33.585   2.879
52670W        W25095  41.876   8.842   1.214
52671W        W25096  23.202  34.865  13.537
52672W        W25097  43.843  44.459   0.826
52673W        W25098   5.792  35.360  12.575
52674W        W25099   6.289  34.590   0.253
52675W        W25100  15.328  44.295   4.835
52676W        W25101  26.955  27.646  13.519
52677W        W25102  29.035  19.281   1.721
52678W        W25103  29.970  16.216  11.053
52679W        W25104  22.183  17.745   0.847
52680W        W25105  10.138  42.846  10.489
52681W        W25106  35.362  42.436   2.290
52682W        W25107  20.092  38.822   4.209
52683W        W25108  44.829  13.615  13.825
52684W        W25109  43.989  44.827  10.580
52685W        W25110  15.239  14.625   0.949
52686W        W25111  13.628   2.852   5.194
52687W        W25112  17.733  23.016  13.030
52688W        W25113   7.390  17.588  13.874
52689W        W25114   6.792  15.123   3.242
52690W        W25115  37.019  34.950  11.500
52691W        W25116  39.955  26.523  10.412
52692W        W25117  29.664  43.864  14.319
52693W        W25118  24.208  13.613  14.346
52694W        W25119  13.782  42.008   0.359
52695W        W25120  41.914  43.844   3.755
52696W        W25121  13.813  31.460  12.859
52697W        W25122  19.067   0.431   2.220
52698W        W25123   8.337  23.097  12.991
52699W        W25124  34.015  17.283  13.348
52700W        W25125  43.769  29.593   1.891
52701W        W25126  33.015  44.352   0.872
52702W        W25127  32.043  40.845   0.460
52703W        W25128  13.148  30.632   2.213
52704W        W25129  22.711  24.707  13.475
52705W        W25130  31.141  33.474  10.591
52706W        W25131  32.609  40.399  14.430
52707W        W25132   5.339  26.519  14.447
52708W        W25133   0.276  13.756  12.461
52709W        W25134  23.192  33.461  14.981
52710W        W25135  19.536  32.110  11.049
52711W        W25136   0.418  13.327   0.894
52712W        W25137   9.228  34.083   3.217
52713W        W25138  16.142  40.888  12.467
52714W        W25139  11.858  39.475  14.509
52715W        W25140  14.110  43.474  11.089
52716W        W25141  14.758  13.251  10.967
52717W        W25142  35.436  36.892   0.344
52718W        W25143  11.284  20.047  11.426
52719W        W25144  38.050  40.485  11.039
52720W        W25145   1.793  26.060  14.423
52721W        W25146   0.920  33.532   2.734
52722W        W25147  28.535   9.314   4.248
52723W        W25148  33.424  44.384  10.096
52724W        W25149  10.752  35.060   2.759
52725W        W25150  36.907   2.394   3.851
52726W        W25151  15.088  33.489  13.877
52727W        W25152  24.030   6.725  13.373
52728W        W25153   4.348   2.829  10.932
52729W        W25154  18.760  42.327  13.940
52730W        W25155  10.183  37.931  10.567
52731W        W25156  38.868  24.478  11.577
52732W        W25157  21.720  42.871   1.886
52733W        W25158  37.889  30.125   3.350
52734W        W25159  15.260  41.834   1.399
52735W        W25160  11.842  32.971   3.322
52736W        W25161  38.439  12.202  12.358
52737W        W25162  30.445   3.230  14.419
52738W        W25163  42.839  38.924   0.846
52739W        W25164  27.508  32.963  10.628
52740W        W25165  25.649  33.876  12.413
52741W        W25166  19.705  29.081  14.399
52742W        W25167   0.408   2.966  10.632
52743W        W25168  26.654  31.119   1.255
52744W        W25169  37.986   7.731  11.077
52745W        W25170  27.078   9.213  10.574
52746W        W25171  36.090  40.863   3.672
52747W        W25172  29.621  10.653   3.705
52748W        W25173   5.341   4.734  14.477
52749W        W25174  28.160   4.771   3.219
52750W        W25175   4.352  44.806   2.786
52751W        W25176  37.059  14.672  14.895
52752W        W25177  17.133  26.081  13.011
52753W        W25178  13.215   7.212   3.271
52754W        W25179  44.405  44.395   0.734
52755W        W25180  43.281  44.382   0.932
52756W        W25181  18.628   5.345   3.182
52757W        W25182  21.737  35.576  12.394
52758W        W25183  35.041  36.905   2.715
52759W        W25184   7.200  10.682   3.693
52760W        W25185  40.359  44.261   3.744
52761W        W25186  12.623  37.504  11.112
52762W        W25187  42.007  12.261  13.378
52763W        W25188  38.376  25.022   3.745
52764W        W25189  43.477   4.279   0.329
52765W        W25190  32.924  36.405   3.259
52766W        W25191  12.216   4.275   1.803
52767W        W25192  43.275  15.752  14.014
52768W        W25193  16.170  42.416   4.628
52769W        W25194   3.350  32.467  12.513
52770W        W25195  11.338  25.617   3.864
52771W        W25196   3.268  34.374   1.298
52772W        W25197   1.872   3.736   4.253
52773W        W25198  34.583  39.331   1.329
52774W        W25199  27.071  43.905   1.744
52775W        W25200  29.474  42.790   2.902
52776W        W25201  35.996  11.328   1.269
52777W        W25202  17.599  27.515   1.432
52778W        W25203  36.023  33.931  11.050
52779W        W25204  23.705  23.582  14.301
52780W        W25205   3.222  43.010   3.847
52781W        W25206  34.113  42.947  13.997
52782W        W25207  14.165   9.703   4.196
52783W        W25208  23.512   6.331   0.411
52784W        W25209   8.259  19.763   2.686
52785W        W25210  32.552  14.174   4.661
52786W        W25211   0.967  43.417   3.802
52787W        W25212   5.714   6.822  10.484
52788W        W25213  17.087  21.132   3.663
52789W        W25214  40.971  13.608  14.833
52790W        W25215   4.342  38.039   3.721
52791W        W25216  16.108  33.023  10.059
52792W        W25217  35.920  13.684  13.957
52793W        W25218  37.575  22.220  13.506
52794W        W25219  12.775  39.372  12.354
52795W        W25220  17.677  17.594  12.397
52796W        W25221  16.680  38.987  12.863
52797W        W25222  11.661  36.064  11.880
52798W        W25223  31.900   0.858  11.479
52799W        W25224  29.533  40.372   4.604
52800W        W25225   6.331  42.025   5.160
52801W        W25226   6.318  44.865   3.167
52802W        W25227  25.174  25.147  14.868
52803W        W25228   0.902  12.163   2.384
52804W        W25229  42.899  22.233   4.210
52805W        W25230  21.022   2.420   1.367
52806W        W25231   6.923  14.267  13.358
52807W        W25232  21.557  17.084  14.373
52808W        W25233  23.652  13.774   1.923
52809W        W25234  15.594  44.362  11.891
52810W        W25235   5.331  15.669   0.309
52811W        W25236  36.093  17.659   0.825
52812W        W25237  36.403  27.123  10.566
52813W        W25238  24.123  16.720  11.077
52814W        W25239  19.162  31.431   3.753
52815W        W25240  28.175  16.576   0.310
52816W        W25241  25.705  19.579   0.245
52817W        W25242   4.275  12.261   4.812
52818W        W25243  16.233   5.693  10.606
52819W        W25244  15.779  39.320   0.260
52820W        W25245  37.549  17.171   4.220
52821W        W25246  44.777  15.797  14.283
52822W        W25247  32.395  44.008  11.460
52823W        W25248  12.339  13.266   0.263
52824W        W25249  40.335  41.495  11.374
52825W        W25250  31.548  26.169  13.796
52826W        W25251  34.591  30.641  12.923
52827W        W25252   8.381  10.742   2.266
52828W        W25253  25.166   9.720   4.805
52829W        W25254  20.197  20.196  13.525
52830W        W25255   3.220  40.450   4.764
52831W        W25256   1.289  19.637  11.515
52832W        W25257   6.261  38.863  12.076
52833W        W25258  35.555   9.697  10.638
52834W        W25259   9.782  15.135  10.519
52835W        W25260  44.984  33.128  11.469
52836W        W25261  43.401  24.666  14.858
52837W        W25262   3.789  44.768  14.395
52838W        W25263  41.465  39.436  12.470
52839W        W25264   1.875  17.596   3.360
52840W        W25265  14.303  27.106  10.475
52841W        W25266  31.123  31.556   4.664
52842W        W25267  12.645  12.254   3.793
52843W        W25268   3.392   3.422   3.208
52844W        W25269  28.004  32.965  11.412
52845W        W25270  40.894  17.745  14.283
52846W        W25271   1.976  21.676  13.460
52847W        W25272   7.344  10.818  12.558
52848W        W25273  16.679  20.165  10.960
52849W        W25274  36.415  30.123  11.413
52850W        W25275  11.797  30.512  11.979
52851W        W25276  35.550  40.980   3.158
52852W        W25277  13.280  41.336  13.458
52853W        W25278  31.950  29.573  14.883
52854W        W25279  41.326  33.939   4.826
52855W        W25280  37.867  14.726   4.675
52856W        W25281   2.370  32.512   1.873
52857W        W25282  38.382  19.085  11.901
52858W        W25283   9.388  29.967  12.420
52859W        W25284  14.722   8.382  11.935
52860W        W25285  23.195   1.861  12.560
52861W        W25286  22.642  22.194  14.383
52862W        W25287   5.349   3.245  14.837
52863W        W25288  21.078  34.538  13.963
52864W        W25289  26.041  14.112  13.443
52865W        W25290   7.374  44.424  13.436
52866W        W25291  16.568  15.782   1.861
52867W        W25292  13.715  17.731   0.872
52868W        W25293  34.033  26.152   0.258
52869W        W25294  16.128  32.090   3.668
52870W        W25295  19.172  34.887  10.491
52871W        W25296  18.231  14.717   3.319
52872W        W25297  19.577  42.365   0.290
52873W        W25298  32.909  31.974  10.505
52874W        W25299  10.747  41.937   1.212
52875W        W25300   0.352  21.112  10.637
52876W        W25301   4.832  26.014  14.984
52877W        W25302   7.221  42.285   2.674
52878W        W25303  17.741  14.826   3.688
52879W        W25304  31.495  23.678  14.928
52880W        W25305   0.795   9.696  11.122
52881W        W25306  21.092  41.952  13.919
52882W        W25307  31.625  16.736   4.140
52883W        W25308  42.492  37.561  14.430
52884W        W25309  39.991   2.943   0.434
52885W        W25310   3.766  12.627   0.260
52886W        W25311  16.271   9.237   1.907
52887W        W25312   1.878  41.913  10.584
52888W        W25313  34.458  13.709  11.876
52889W        W25314  12.268  24.679   5.218
52890W        W25315  43.847  17.101   3.283
52891W        W25316  13.216  25.496   1.834
52892W        W25317   4.317  28.183  13.884
52893W        W25318  11.843   1.346   3.371
52894W        W25319  39.554  13.322  12.924
52895W        W25320   2.735  19.609  11.375
52896W        W25321   4.708  41.446  10.532
52897W        W25322  11.211  37.834   1.878
52898W        W25323  38.012  24.143  13.365
52899W        W25324  13.775  12.172  12.355
52900W        W25325  38.827  27.497   1.426
52901W        W25326   8.222  43.976  11.578
52902W        W25327   0.983  43.797   4.773
52903W        W25328  11.729  17.100  12.932
52904W        W25329   6.205  38.930   1.398
52905W        W25330  18.683  40.389  13.848
52906W        W25331  42.442  34.436  11.519
52907W        W25332   8.784  31.458   0.839
52908W        W25333  10.670  42.953  10.409
52909W        W25334   5.360  37.339  11.437
52910W        W25335  13.675  37.029   2.792
52911W        W25336   7.749  10.753  11.557
52912W        W25337  16.666  39.441  13.003
52913W        W25338   2.847  24.011   3.855
52914W        W25339  13.115  40.949  10.557
52915W        W25340   5.339  13.611  12.953
52916W        W25341  16.729  24.716   2.247
52917W        W25342   0.348   2.427   1.902
52918W        W25343  14.323   3.321  12.921
52919W        W25344  34.591   7.839  14.498
52920W        W25345  37.944   8.236  12.996
52921W        W25346  12.796  41.939   1.857
52922W        W25347  41.900   0.810   2.414
52923W        W25348  19.637   8.657  13.415
52924W        W25349   3.246  17.223  12.550
52925W        W25350  44.301  43.861   4.225
52926W        W25351  10.284  17.194   2.401
52927W        W25352   9.208  11.180   0.413
52928W        W25353  41.494  41.298   4.256
52929W        W25354  35.875   1.335  12.938
52930W        W25355  20.195  17.562   4.733
52931W        W25356  25.169  38.974   0.407
52932W        W25357  31.523  41.434   4.782
52933W        W25358  19.109  10.306  13.840
52934W        W25359  16.173  40.001  12.410
52935W        W25360  37.448  25.141  12.079
52936W        W25361  24.524  14.596   2.673
52937W        W25362  20.188  18.669   0.930
52938W        W25363  36.459  35.021   2.393
52939W        W25364  17.615  38.916  10.444
52940W        W25365   6.296  31.534  10.408
52941W        W25366  40.946  11.738  10.413
52942W        W25367  43.340  24.053  10.519
52943W        W25368  18.568  40.908  11.444
52944W        W25369  37.039  14.227   4.168
52945W        W25370  43.989   1.471  13.474
52946W        W25371  42.511  44.002  11.545
52947W        W25372  38.013  31.952   4.681
52948W        W25373  22.055   7.240   0.793
52949W        W25374  21.606  28.112   3.785
52950W        W25375   2.913  31.521   3.249
52951W        W25376  11.803  11.162  12.021
52952W        W25377  35.527  13.671  14.486
52953W        W25378  42.398   9.196   0.270
52954W        W25379  17.631  19.656   0.271
52955W        W25380  38.945   9.836  12.563
52956W        W25381  32.609   9.289   0.430
52957W        W25382  27.079  32.139   4.729
52958W        W25383  37.831  36.896  10.513
52959W        W25384  42.442  37.437   4.651
52960W        W25385  37.566  38.562   2.394
52961W        W25386  41.345  25.964   2.687
52962W        W25387  15.291  15.798  13.959
52963W        W25388  20.236  30.155   2.233
52964W        W25389  12.335  17.189  14.456
52965W        W25390  24.080  38.928   1.836
52966W        W25391  37.958  40.818   2.704
52967W        W25392  36.368  21.208   3.335
52968W        W25393  35.419  42.778  11.460
52969W        W25394  11.787  18.164  10.116
52970W        W25395  20.527   7.324   1.725
52971W        W25396  17.145  40.432   1.719
52972W        W25397  35.420  32.637  10.450
52973W        W25398  22.114  23.135  14.933
52974W        W25399  39.344  29.138   4.124
52975W        W25400  13.695   2.950   4.294
52976W        W25401  28.463  31.092  13.335
52977W        W25402  29.452  35.463   0.456
52978W        W25403  14.772  32.585  14.835
52979W        W25404  24.051  18.705   4.292
52980W        W25405   8.667  11.656  10.471
52981W        W25406  15.614  41.508   2.349
52982W        W25407  23.721  32.978   0.359
52983W        W25408  28.026  19.139   3.807
52984W        W25409  44.942  23.549   3.737
52985W        W25410  35.062  12.332   3.190
52986W        W25411   8.287  40.040   3.650
52987W        W25412  26.112  34.589  11.526
52988W        W25413  14.339  40.970  14.457
52989W        W25414   3.329   2.467  12.838
52990W        W25415  37.394  28.510  10.891
52991W        W25416  23.177   6.758  11.571
52992W        W25417   6.796  36.865   0.752
52993W        W25418  27.140  23.514   0.299
52994W        W25419  16.671  35.497   0.469
52995W        W25420  32.981  19.074   1.738
52996W        W25421  31.114  38.836  13.475
52997W        W25422  12.797  32.101   1.803
52998W        W25423  24.045   8.253   2.396
52999W        W25424   9.203  32.041  11.522
53000W        W25425  29.496  26.679   5.097
53001W        W25426  15.664   1.422   3.250
53002W        W25427  27.501   2.440   4.611
53003W        W25428  31.629  28.058   2.387
53004W        W25429  15.782   4.879  11.410
53005W        W25430  22.208  41.522  14.764
53006W        W25431  15.733  30.144  12.902
53007W        W25432   3.841   0.390   4.670
53008W        W25433   1.919  30.578  14.297
53009W        W25434  12.338   9.764  12.854
53010W        W25435  23.219  29.073  14.775
53011W        W25436  39.011  25.592  11.065
53012W        W25437  30.938  22.201   0.822
53013W        W25438  29.458   0.958   1.316
53014W        W25439  14.705  16.190   2.380
53015W        W25440  24.048  17.674   1.910
53016W        W25441  25.686  14.233   1.929
53017W        W25442   0.839  23.611  14.969
53018W        W25443  29.122  42.520  11.490
53019W        W25444  19.073  18.744   1.872
53020W        W25445   8.248  27.619   4.295
53021W        W25446  33.091  38.569   1.294
53022W        W25447  29.963  10.632   1.400
53023W        W25448  14.768  17.637  11.970
53024W        W25449  13.754  35.585  10.566
53025W        W25450  35.358  40.460   3.684
53026W        W25451  12.621  32.094  13.949
53027W        W25452  42.835  15.758  12.498
53028W        W25453  16.605  42.795   2.664
53029W        W25454   1.434  27.047  13.032
53030W        W25455  18.095  21.549  14.444
53031W        W25456   8.695  44.902   3.697
53032W        W25457  36.592  28.617  13.335
53033W        W25458   5.781  38.835   3.298
53034W        W25459  42.932  22.100  13.454
53035W        W25460   7.871   7.745  14.379
53036W        W25461  40.905   7.821  14.985
53037W        W25462  34.059  26.462   0.467
53038W        W25463  39.527  26.051  10.413
53039W        W25464   9.305  44.400   4.118
53040W        W25465  24.043   2.873  10.590
53041W        W25466  25.507   6.693   1.426
53042W        W25467  31.426  33.501   2.892
53043W        W25468  13.246   8.271   1.907
53044W        W25469   2.945  28.532   4.127
53045W        W25470  43.274  41.535  12.359
53046W        W25471  12.810  35.540   0.933
53047W        W25472  19.579   8.200   2.206
53048W        W25473  27.052  22.187   1.774
53049W        W25474   9.795  34.038  10.908
53050W        W25475  15.717  29.482  14.856
53051W        W25476  27.588  38.070  13.337
53052W        W25477  42.863   8.338   4.221
53053W        W25478  27.463  20.138   2.273
53054W        W25479  40.521   4.831   1.744
53055W        W25480   7.731  33.618   4.204
53056W        W25481  38.435  39.905   2.397
53057W        W25482  30.489  34.974  11.498
53058W        W25483  21.132  27.138  10.507
53059W        W25484   5.862   3.909  10.960
53060W        W25485   2.401  40.521  12.927
53061W        W25486  39.941  36.552   2.861
53062W        W25487   5.303  24.644   0.864
53063W        W25488  10.646  25.622   1.236
53064W        W25489  39.538  13.631   4.696
53065W        W25490  42.377  36.092   3.779
53066W        W25491   9.215  31.993   1.435
53067W        W25492  40.903  17.263  13.016
53068W        W25493  12.309  10.781  12.899
53069W        W25494  25.699  26.520  13.834
53070W        W25495  36.478  43.802   2.244
53071W        W25496  39.354  41.024   4.169
53072W        W25497  44.920  11.180   3.379
53073W        W25498  32.520  36.871   1.391
53074W        W25499  37.496   7.285  14.427
53075W        W25500   5.260  17.075   4.666
53076W        W25501  33.620  22.137   2.762
53077W        W25502  12.619   6.830   2.237
53078W        W25503   9.184  40.992   2.691
53079W        W25504  10.285  13.809   2.409
53080W        W25505  33.476  28.619   2.742
53081W        W25506   9.354  39.878   0.783
53082W        W25507  26.638  24.000  13.312
53083W        W25508  44.913  36.883   0.256
53084W        W25509  25.998   4.387   0.260
53085W        W25510   9.347  22.738   9.943
53086W        W25511  32.940  38.957   4.252
53087W        W25512   9.295  10.169  10.596
53088W        W25513  19.771  27.948   3.285
53089W        W25514  34.062  36.974  11.090
53090W        W25515  38.067  24.683  11.422
53091W        W25516  18.135  13.272  11.612
53092W        W25517  10.289  10.692   3.226
53093W        W25518  13.683   8.800   0.925
53094W        W25519  34.607  15.819  13.810
53095W        W25520  14.749  41.918   2.231
53096W        W25521   9.729  27.984   4.352
53097W        W25522  42.884  43.917   1.240
53098W        W25523  43.928  37.898  13.399
53099W        W25524  23.178  26.169   2.668
53100W        W25525  24.022  38.859  13.909
53101W        W25526   6.236  30.064  14.378
53102W        W25527   8.172  28.528  12.074
53103W        W25528  29.975  41.489  12.857
53104W        W25529  11.716   9.267  14.422
53105W        W25530  43.448  16.301   4.306
53106W        W25531  31.011   2.797   1.877
53107W        W25532  26.565  18.111  10.954
53108W        W25533   7.176  16.089  14.305
53109W        W25534  43.904  42.399  13.994
53110W        W25535   2.398  42.303  14.774
53111W        W25536   4.825  34.585  11.492
53112W        W25537  37.912   4.856   0.750
53113W        W25538  15.808  40.808   0.783
53114W        W25539  16.625  19.269  13.885
53115W        W25540  15.310  31.621  12.533
53116W        W25541  21.551   9.830   5.108
53117W        W25542  36.481  15.732  12.364
53118W        W25543  16.233   7.254   2.685
53119W        W25544  23.654   0.979   4.610
53120W        W25545  29.450  36.464  13.017
53121W        W25546  20.602  13.299   3.676
53122W        W25547  27.145  16.785   1.407
53123W        W25548  37.375   8.683  10.035
53124W        W25549  20.035   8.717   0.257
53125W        W25550  38.503   3.317  14.825
53126W        W25551  11.728   6.703   2.297
53127W        W25552  18.130  39.877   2.710
53128W        W25553  37.986  18.194  13.523
53129W        W25554  33.883  37.519  12.513
53130W        W25555  27.195  38.338   4.770
53131W        W25556   8.194   0.302   3.222
53132W        W25557  20.643  43.500   2.668
53133W        W25558  41.305  31.557   1.720
53134W        W25559  42.834   5.329  14.332
53135W        W25560  31.009  29.545  13.854
53136W        W25561  29.516  13.211  14.437
53137W        W25562   6.908  29.458  12.498
53138W        W25563   0.832  26.518   2.396
53139W        W25564  12.684  40.965  13.537
53140W        W25565  33.579  12.800  14.833
53141W        W25566  23.610  19.545  11.465
53142W        W25567  22.586   7.410   2.272
53143W        W25568   8.162  39.918  11.891
53144W        W25569  11.700  37.344   3.165
53145W        W25570   4.898  43.316  14.463
53146W        W25571   5.790  18.595  14.470
53147W        W25572  28.996   3.907  11.460
53148W        W25573  42.825   9.858   0.938
53149W        W25574   6.781   5.880  14.977
53150W        W25575   7.757  21.147  14.835
53151W        W25576   6.746   0.372  14.010
53152W        W25577  34.015   8.739   2.663
53153W        W25578  27.133  34.574  10.613
53154W        W25579  14.596  31.625  11.476
53155W        W25580  25.214  11.724   3.653
53156W        W25581  38.933   7.398  14.393
53157W        W25582  12.660   4.231   4.705
53158W        W25583   9.645   6.364   4.638
53159W        W25584  22.245  31.904  12.018
53160W        W25585  41.324   0.972   3.307
53161W        W25586  30.464  41.519   4.704
53162W        W25587  24.144  32.623   0.807
53163W        W25588  24.707  28.014   0.890
53164W        W25589  21.724  18.286   0.408
53165W        W25590  36.561  44.873   2.266
53166W        W25591  14.276  40.443   0.446
53167W        W25592  41.408   6.700  11.059
53168W        W25593  39.479  12.727  12.459
53169W        W25594  14.657  43.457  10.957
53170W        W25595  41.824  26.556  12.048
53171W        W25596  42.010  43.903  11.073
53172W        W25597  42.482  13.770   2.419
53173W        W25598  18.717   0.343   1.779
53174W        W25599   5.764  38.569   3.305
53175W        W25600   3.367  42.820  14.315
53176W        W25601  36.943  17.087   0.957
53177W        W25602  29.949  41.415   0.384
53178W        W25603  20.112  29.081  13.480
53179W        W25604   1.841  12.695   1.734
53180W        W25605  12.338  10.218   0.755
53181W        W25606  13.599  15.326   3.148
53182W        W25607  34.573  15.256   3.823
53183W        W25608   3.335  43.981  10.894
53184W        W25609  36.948  41.505   2.840
53185W        W25610  40.375  38.876   0.366
53186W        W25611  10.637  43.516   4.165
53187W        W25612  22.108  36.469   4.164
53188W        W25613  16.662  39.879  11.378
53189W        W25614  25.478  22.171   3.294
53190W        W25615  21.658   9.177   0.376
53191W        W25616   5.930   6.761   0.797
53192W        W25617  31.594   0.488   2.725
53193W        W25618  29.145   9.175  12.937
53194W        W25619  24.037  14.606  14.783
53195W        W25620  10.281  22.723  11.026
53196W        W25621  40.406  14.599  13.825
53197W        W25622  20.713  23.538   0.308
53198W        W25623  32.504  31.049  12.500
53199W        W25624  11.782   7.856  10.566
53200W        W25625  26.558  37.427  11.988
53201W        W25626  14.143  44.477  13.975
53202W        W25627  34.003  27.581  10.581
53203W        W25628   6.248  32.133   3.677
53204W        W25629  16.123   5.299   3.822
53205W        W25630  11.822  26.472  13.397
53206W        W25631  28.676  12.763   4.306
53207W        W25632   4.335  39.894  11.997
53208W        W25633  10.215  13.684   3.201
53209W        W25634   3.805  24.661  12.050
53210W        W25635   6.789  14.726   4.231
53211W        W25636  44.910  28.555  14.960
53212W        W25637  17.296  24.697  14.826
53213W        W25638  30.957  38.487   2.366
53214W        W25639  24.113  14.767   3.261
53215W        W25640  10.274  28.484   4.201
53216W        W25641  31.635   3.735   4.730
53217W        W25642  36.394  25.493   1.372
53218W        W25643  11.323  19.213  13.912
53219W        W25644  35.038  36.434   0.474
53220W        W25645  41.870  15.311   0.928
53221W        W25646  23.550  21.219  11.028
53222W        W25647  39.468  37.851  13.008
53223W        W25648  31.562  33.536  12.835
53224W        W25649  31.079  42.378  13.321
53225W        W25650  19.169  25.188   3.156
53226W        W25651  39.852  17.099  13.940
53227W        W25652   9.374  16.198   4.208
53228W        W25653  28.535   4.759   1.362
53229W        W25654   5.852  26.620   4.274
53230W        W25655  43.336   1.855   0.839
53231W        W25656  23.002  15.276  11.456
53232W        W25657  11.822   7.241   4.721
53233W        W25658   4.313   0.857  11.906
53234W        W25659   4.907   9.171   4.336
53235W        W25660  44.461  41.424   2.332
53236W        W25661  31.027   9.358   1.360
53237W        W25662  40.880   6.235   1.922
53238W        W25663  25.648  28.549   1.855
53239W        W25664   5.840  31.929  10.611
53240W        W25665  37.468  32.967  12.490
53241W        W25666  12.671  11.625  12.848
53242W        W25667  39.855  38.061   4.275
53243W        W25668  26.593   0.906  11.459
53244W        W25669  16.190  17.617   1.816
53245W        W25670  16.743  38.463   4.687
53246W        W25671  27.451   1.441  12.374
53247W        W25672  21.063  12.238   5.691
53248W        W25673  43.900   9.191   2.190
53249W        W25674  17.130  27.116   0.360
53250W        W25675   0.301  31.546   4.757
53251W        W25676  18.105   5.332  11.427
53252W        W25677  39.354   3.371   1.354
53253W        W25678  19.128  19.237   3.793
53254W        W25679  11.720  24.486  14.345
53255W        W25680   6.405  37.935  13.791
53256W        W25681   8.776   3.871   3.827
53257W        W25682  25.964  10.310   2.404
53258W        W25683  40.926  12.148   2.353
53259W        W25684  42.876  43.869  10.940
53260W        W25685  23.554  38.002   3.313
53261W        W25686  28.120   3.290   1.420
53262W        W25687   0.291  16.110   3.835
53263W        W25688  17.586   8.738   1.446
53264W        W25689  44.833  29.528   1.754
53265W        W25690  13.229   2.444   2.662
53266W        W25691  21.214  42.828  13.361
53267W        W25692  37.009  34.417   1.810
53268W        W25693   8.396  43.012  13.354
53269W        W25694   3.415  32.533  14.411
53270W        W25695  43.317  38.558   4.231
53271W        W25696  32.044  11.265   3.276
53272W        W25697   8.823   2.411   3.783
53273W        W25698  21.702  25.593   0.310
53274W        W25699  38.440  32.423   1.755
53275W        W25700  12.212  36.535  11.865
53276W        W25701  19.586  44.461   4.265
53277W        W25702  41.378  31.631  14.485
53278W        W25703  31.896   8.329   0.953
53279W        W25704  29.613   4.225   0.292
53280W        W25705  13.247   1.937   3.253
53281W        W25706  22.613   4.399  10.893
53282W        W25707  29.064  33.012  13.986
53283W        W25708  38.960  21.587  14.803
53284W        W25709  31.620   2.413  11.907
53285W        W25710  28.057   2.233   0.923
53286W        W25711  39.440  30.601  11.986
53287W        W25712   6.922  38.453   0.319
53288W        W25713  40.882  44.001   2.867
53289W        W25714  44.778  10.774  10.944
53290W        W25715   3.325  41.457  13.902
53291W        W25716  23.574   1.438   1.353
53292W        W25717  37.872  43.303  12.836
53293W        W25718  27.549   6.259  12.881
53294W        W25719  13.316  30.417  14.365
53295W        W25720  42.907  12.841   0.288
53296W        W25721   5.784  27.113   1.402
53297W        W25722  25.679  25.644   3.288
53298W        W25723  27.152  34.583  11.877
53299W        W25724   6.694  24.564  14.982
53300W        W25725  42.779  41.881  14.770
53301W        W25726   4.293  35.539  11.396
53302W        W25727  41.369  15.582  11.995
53303W        W25728  36.405  40.418  11.508
53304W        W25729  26.652   1.914   3.178
53305W        W25730   7.896   8.694  12.425
53306W        W25731  15.208   3.779   1.420
53307W        W25732  11.851  38.404  13.439
53308W        W25733  22.078  19.639  14.874
53309W        W25734  26.590  13.273   2.344
53310W        W25735  23.136  35.021  11.018
53311W        W25736  37.452  19.270  11.448
53312W        W25737   8.789  24.675  13.847
53313W        W25738   2.961  27.513  11.905
53314W        W25739  43.421  12.280  10.542
53315W        W25740  13.750  13.823   3.693
53316W        W25741  25.975  38.484  14.833
53317W        W25742  44.979   3.790  13.502
53318W        W25743   4.441  29.974  14.795
53319W        W25744  23.592  15.806  12.979
53320W        W25745  12.234  20.585  13.891
53321W        W25746  42.856  28.976  12.903
53322W        W25747  23.079   4.227  14.287
53323W        W25748  18.090  30.039  12.889
53324W        W25749   5.264  28.622  12.570
53325W        W25750  41.321  38.999  11.601
53326W        W25751   4.762  44.485  14.800
53327W        W25752  27.094  42.986   4.741
53328W        W25753  28.996  11.820  13.869
53329W        W25754  39.957  38.347   4.285
53330W        W25755  31.577   0.894  10.937
53331W        W25756  31.061  17.100   0.257
53332W        W25757  38.565   3.386   2.722
53333W        W25758  40.358  38.910  11.417
53334W        W25759  29.974  35.372   0.813
53335W        W25760  11.235  41.407   4.171
53336W        W25761  19.627  15.705   4.284
53337W        W25762  44.319  38.921   3.744
53338W        W25763   2.774  41.314  13.952
53339W        W25764  19.082  16.170   0.930
53340W        W25765   1.854  17.682   2.235
53341W        W25766  42.970  26.150  14.464
53342W        W25767  36.859  28.456  14.290
53343W        W25768   2.368  38.417   1.826
53344W        W25769  20.207  24.693   4.803
53345W        W25770   1.856  20.544   1.390
53346W        W25771  44.297  40.511  12.510
53347W        W25772  28.076  14.252  14.500
53348W        W25773  41.978  12.264  11.472
53349W        W25774  18.133  33.124   1.757
53350W        W25775  20.649  29.658   4.699
53351W        W25776  37.501  18.143   2.700
53352W        W25777  38.968   9.703   3.165
53353W        W25778  41.470  16.677  12.520
53354W        W25779  42.347  37.392  10.926
53355W        W25780  18.076  21.186  13.854
53356W        W25781  11.706  28.954   0.324
53357W        W25782   7.781  36.468  12.827
53358W        W25783  39.519   0.746   0.473
53359W        W25784   4.360  40.815   1.746
53360W        W25785  31.991  31.089  14.787
53361W        W25786   8.858  36.014   4.257
53362W        W25787  20.080   1.451   3.847
53363W        W25788   6.695  19.249   4.122
53364W        W25789  21.165   3.831  12.340
53365W        W25790  26.564   2.879   2.200
53366W        W25791  38.464  24.065  12.388
53367W        W25792   8.880   7.800  14.901
53368W        W25793  26.498  31.908   4.705
53369W        W25794   5.303  26.474  11.880
53370W        W25795   6.294  34.088   3.255
53371W        W25796   3.735  11.836   3.366
53372W        W25797  13.340  10.657  14.006
53373W        W25798  10.271  26.141  12.945
53374W        W25799  36.586   2.334   3.740
53375W        W25800  44.397  14.602  13.435
53376W        W25801  18.731  22.090  12.067
53377W        W25802  37.502  15.694  13.940
53378W        W25803  34.443  25.062   3.848
53379W        W25804   6.229  19.201  12.464
53380W        W25805  41.829  32.001  11.868
53381W        W25806   7.758  31.546   2.362
53382W        W25807  29.110  34.981  10.898
53383W        W25808  34.591  42.844   0.452
53384W        W25809  16.624  23.633  11.454
53385W        W25810  23.036   3.240  13.410
53386W        W25811  12.691   6.766  13.953
53387W        W25812  21.570  16.137  11.981
53388W        W25813  21.671  10.783   4.217
53389W        W25814   3.942  38.460   4.162
53390W        W25815   1.948  11.696  11.083
53391W        W25816  12.281   3.219   2.730
53392W        W25817   7.882  23.169  13.453
53393W        W25818   1.864  15.623  13.436
53394W        W25819  12.836  22.039   1.706
53395W        W25820   7.691  32.114  10.927
53396W        W25821  35.058  40.312   4.259
53397W        W25822  36.523  20.736  14.343
53398W        W25823  23.667   1.734   4.822
53399W        W25824   5.792  18.176  13.876
53400W        W25825  13.226   7.703   0.361
53401W        W25826  28.030  19.588   1.384
53402W        W25827  14.157  38.436   0.297
53403W        W25828   3.361   6.892  10.601
53404W        W25829  25.189  41.414   2.791
53405W        W25830  32.937  40.406   3.778
53406W        W25831  41.883   6.677  11.893
53407W        W25832  37.405  24.998   1.303
53408W        W25833  26.177   4.920  11.934
53409W        W25834  41.440  23.161   5.302
53410W        W25835  13.126   2.841   2.291
53411W        W25836  14.606   8.316  10.928
53412W        W25837  44.361  13.110  11.034
53413W        W25838  23.120  16.131   2.675
53414W        W25839  41.425  10.855   4.247
53415W        W25840  44.325   6.312   0.303
53416W        W25841  16.236  43.338  10.998
53417W        W25842   2.861  18.163  13.931
53418W        W25843  16.266  10.348  12.962
53419W        W25844  19.047  30.618   3.717
53420W        W25845   1.351  21.043   1.259
53421W        W25846   6.791  34.904   4.271
53422W        W25847  25.219  41.813  13.451
53423W        W25848   9.815  31.912  13.957
53424W        W25849  12.804  35.072   3.645
53425W        W25850   2.951  12.687   4.270
53426W        W25851  42.345  37.006  13.542
53427W        W25852  38.843  25.216  14.439
53428W        W25853  25.219  39.047  12.369
53429W        W25854  40.036  20.560   2.797
53430W        W25855  34.909  37.486  12.863
53431W        W25856  33.935  24.128   1.773
53432W        W25857  26.505  23.658   2.249
53433W        W25858  43.845  15.202  12.559
53434W        W25859  10.155  39.017  13.349
53435W        W25860  25.659  44.348   4.239
53436W        W25861  19.590  37.353  12.553
53437W        W25862  19.142  43.439   4.347
53438W        W25863  11.309  33.104  10.991
53439W        W25864  35.983  31.997   1.234
53440W        W25865   0.863  24.507   4.835
53441W        W25866  28.043  29.574  12.398
53442W        W25867  39.996  27.009  14.826
53443W        W25868  36.922  42.911   2.751
53444W        W25869  20.643  38.398  13.797
53445W        W25870  29.166  34.021  11.559
53446W        W25871   7.668  20.537   3.843
53447W        W25872   8.328  34.423   2.323
53448W        W25873  28.003  26.596   3.262
53449W        W25874  37.044   0.450   0.448
53450W        W25875  34.051  31.925  14.926
53451W        W25876   7.364  42.460   3.693
53452W        W25877   6.831  20.548   0.266
53453W        W25878   3.252  24.174  11.434
53454W        W25879  18.086  12.679  12.947
53455W        W25880  44.878  18.592   1.744
53456W        W25881  18.278  42.419   3.357
53457W        W25882  25.497  44.343   2.236
53458W        W25883  40.011  18.171  13.321
53459W        W25884   7.665   2.783   4.242
53460W        W25885  23.061   5.911   1.288
53461W        W25886  18.072   5.290  13.806
53462W        W25887  27.666  35.987  13.383
53463W        W25888  13.265  39.042  13.453
53464W        W25889  11.289  11.745  12.871
53465W        W25890  39.025  33.621   3.199
53466W        W25891  27.105  35.068   2.739
53467W        W25892   9.257  28.999   4.753
53468W        W25893  24.605  42.951   2.322
53469W        W25894  18.638  39.889  11.515
53470W        W25895   5.731   7.704   3.851
53471W        W25896   0.345   9.160   1.221
53472W        W25897  41.498   7.712  13.380
53473W        W25898   0.834   6.763  13.829
53474W        W25899  39.415  40.925  11.441
53475W        W25900  36.486   8.748   2.716
53476W        W25901  15.628  22.113  14.794
53477W        W25902  23.695  16.140  13.990
53478W        W25903  25.539  31.021   2.699
53479W        W25904  24.649  14.284   0.780
53480W        W25905  41.472   8.330  12.357
53481W        W25906   8.858  32.046  10.510
53482W        W25907  12.673  17.608  11.575
53483W        W25908   6.896   5.319  11.393
53484W        W25909  16.201   0.937   1.796
53485W        W25910  23.046  12.240  13.491
53486W        W25911  15.171  22.501   2.373
53487W        W25912  14.213  29.136  12.439
53488W        W25913  35.569  12.333  12.452
53489W        W25914   2.767  18.264   3.331
53490W        W25915  30.093  42.777  10.644
53491W        W25916  41.810  14.132  14.885
53492W        W25917  26.174   3.940  14.331
53493W        W25918   7.845  16.618   3.761
53494W        W25919  36.475   0.465  11.565
53495W        W25920  42.466  17.142   0.302
53496W        W25921   0.250  15.283   0.773
53497W        W25922  40.905   6.828  11.420
53498W        W25923  31.485  27.459  13.874
53499W        W25924  11.168  24.668   0.481
53500W        W25925   7.197   9.723  14.990
53501W        W25926  29.535   6.227   0.947
53502W        W25927   8.696  28.492  12.927
53503W        W25928  25.612  18.209   9.968
53504W        W25929  38.501  11.741   3.850
53505W        W25930  21.170  22.586  13.315
53506W        W25931  15.327  26.029  14.953
53507W        W25932  17.580  12.681  10.552
53508W        W25933   0.309  41.507  13.011
53509W        W25934   3.263   7.877  12.856
53510W        W25935  34.553  34.394   2.376
53511W        W25936  27.148  38.853   1.257
53512W        W25937  19.187  28.005  14.511
53513W        W25938  28.183  12.237   2.218
53514W        W25939  13.692  31.426   1.385
53515W        W25940  29.160  43.824   2.289
53516W        W25941  22.238  18.551   1.365
53517W        W25942   4.933   5.726  10.449
53518W        W25943  42.398  39.390  11.418
53519W        W25944  36.941   3.956  11.977
53520W        W25945  39.883  30.968  12.883
53521W        W25946  13.748  11.294   0.279
53522W        W25947  40.502  15.790   0.790
53523W        W25948  25.482   2.334   2.284
53524W        W25949  21.751   3.947   4.605
53525W        W25950  24.173  12.349   2.181
53526W        W25951   5.874  41.827   4.252
53527W        W25952  41.401  30.152   4.775
53528W        W25953   0.852  32.020  12.030
53529W        W25954  38.412  18.544   0.860
53530W        W25955  22.730  37.481  11.071
53531W        W25956   8.719  25.575  13.465
53532W        W25957   8.784  24.994  13.466
53533W        W25958  17.730   6.354  13.330
53534W        W25959  26.480  41.433   2.226
53535W        W25960   4.323  39.367  12.429
53536W        W25961  32.487  10.222  10.932
53537W        W25962  19.660  32.550   2.665
53538W        W25963  11.292  27.044  12.995
53539W        W25964  33.460   0.748   0.469
53540W        W25965   1.812  12.314  10.581
53541W        W25966  31.644   3.803  12.051
53542W        W25967  24.608  16.706  14.295
53543W        W25968  39.490  21.055   3.674
53544W        W25969  24.501   4.700   1.810
53545W        W25970  31.958  12.811   2.717
53546W        W25971  36.856  37.896   4.313
53547W        W25972  20.717  24.072   2.318
53548W        W25973  38.890   6.680   4.669
53549W        W25974  24.057  13.347   1.219
53550W        W25975  23.604   0.373   3.152
53551W        W25976  29.525  37.982  14.483
53552W        W25977  41.870  29.088  12.477
53553W        W25978  14.290   1.736   2.389
53554W        W25979  35.877  40.457   1.872
53555W        W25980  10.647  12.133   4.178
53556W        W25981   4.783  28.938  10.523
53557W        W25982  20.547  16.127  12.533
53558W        W25983  33.511  30.009  11.858
53559W        W25984  41.028  40.483  12.051
53560W        W25985   0.435  28.466  12.543
53561W        W25986  29.971   1.302  11.047
53562W        W25987   7.409  23.507   3.762
53563W        W25988   4.266  21.738  11.055
53564W        W25989  21.679  36.535   0.952
53565W        W25990  27.182   0.286   3.380
53566W        W25991  29.427  13.619   4.338
53567W        W25992   8.365  31.003  10.441
53568W        W25993  42.435  36.941   0.459
53569W        W25994   9.794  28.591  12.853
53570W        W25995  40.307  24.608  11.433
53571W        W25996  31.450  35.374  12.416
53572W        W25997  31.043   8.261   1.789
53573W        W25998   5.200  41.349   1.210
53574W        W25999  36.513   3.849  13.931
53575W        W26000  38.505  13.814  14.890
53576W        W26001  44.356  41.998   4.218
53577W        W26002  14.155  36.562   4.202
53578W        W26003  23.005  35.016  11.558
53579W        W26004  20.751  24.656  11.008
53580W        W26005   6.730  17.137   4.674
53581W        W26006   5.835  14.191  13.397
53582W        W26007  20.528   3.215  12.095
53583W        W26008   1.482  29.969   0.870
53584W        W26009  16.309   8.765   0.811
53585W        W26010   7.243  27.012   1.263
53586W        W26011  28.955  19.719  14.781
53587W        W26012  21.193  37.942  10.502
53588W        W26013  25.219  30.092   2.710
53589W        W26014  26.006  26.031  11.483
53590W        W26015  17.132  33.930   1.914
53591W        W26016  38.033  35.359  13.872
53592W        W26017  20.103  13.721  13.028
53593W        W26018  32.424  23.055  12.465
53594W        W26019  12.625   0.348   1.713
53595W        W26020   9.696  29.475  14.414
53596W        W26021  42.514  37.939  14.405
53597W        W26022   7.344  18.092   2.368
53598W        W26023  31.647  23.625  10.611
53599W        W26024  22.198  39.556  10.912
53600W        W26025   6.359   6.875  11.122
53601W        W26026   0.766  19.682  14.421
53602W        W26027  21.595   8.356  10.407
53603W        W26028  26.627   6.413  10.907
53604W        W26029   8.819  24.564  10.487
53605W        W26030  39.065   2.904  12.407
53606W        W26031  37.035  31.084   4.598
53607W        W26032  44.261  17.748   4.651
53608W        W26033  19.107   1.945   0.833
53609W        W26034  39.064  44.011   0.415
53610W        W26035   7.262   4.767  14.800
53611W        W26036  36.090  21.149  14.393
53612W        W26037  22.200  42.824  10.134
53613W        W26038  31.624  12.128   2.879
53614W        W26039  39.349  29.504   2.333
53615W        W26040  44.429  36.912  11.890
53616W        W26041  26.004  26.575   5.271
53617W        W26042  38.993  43.978   3.299
53618W        W26043  41.382  19.205  12.449
53619W        W26044  16.133  22.719  14.477
53620W        W26045  29.034  21.089   2.374
53621W        W26046  18.095  17.704   3.657
53622W        W26047  39.873  15.769  11.578
53623W        W26048  38.911  32.105  10.604
53624W        W26049  17.672  37.372   0.955
53625W        W26050  43.954  42.844  11.418
53626W        W26051  36.940  40.923  12.511
53627W        W26052   3.772  36.510   3.683
53628W        W26053  36.041   3.829  13.850
53629W        W26054  36.904  12.762  12.992
53630W        W26055   7.785   7.185  14.278
53631W        W26056  20.678   7.861   1.704
53632W        W26057  11.144  15.689  13.827
53633W        W26058  35.940  19.666   0.248
53634W        W26059  12.227  23.065   1.818
53635W        W26060  16.740  24.539  10.430
53636W        W26061  30.144  25.151   3.292
53637W        W26062  30.500  24.489   1.710
53638W        W26063  44.791  44.446   1.410
53639W        W26064  33.504  33.576   3.642
53640W        W26065  11.797  24.607   1.785
53641W        W26066  32.038  32.446  13.920
53642W        W26067   6.358  39.417  10.496
53643W        W26068  31.127  37.576  14.318
53644W        W26069  33.102   2.920   2.249
53645W        W26070   0.443  34.049   2.873
53646W        W26071   7.840   0.951  10.617
53647W        W26072  31.915  36.092  11.520
53648W        W26073   5.926  30.609  12.402
53649W        W26074  35.550  19.684  14.822
53650W        W26075   0.821  42.933   4.653
53651W        W26076   4.833  25.507  11.400
53652W        W26077  31.014  41.337   2.209
53653W        W26078  28.631  44.306   4.688
53654W        W26079   7.769  25.695  12.393
53655W        W26080  33.123  38.483  11.045
53656W        W26081  44.989  20.059  10.979
53657W        W26082   9.326  24.691  13.863
53658W        W26083  19.208  25.517   0.744
53659W        W26084  34.930  29.985   1.790
53660W        W26085   5.326  36.531  14.877
53661W        W26086   1.907  35.366   3.151
53662W        W26087  37.889  34.005   3.360
53663W        W26088  19.230  29.473   3.276
53664W        W26089  16.218  44.497   2.876
53665W        W26090  42.287  11.143  14.788
53666W        W26091  13.215  12.851  12.488
53667W        W26092   1.237  42.466   0.814
53668W        W26093  16.256  14.270  14.792
53669W        W26094  23.666  35.084  10.466
53670W        W26095   7.226  43.433  11.397
53671W        W26096   7.744  37.003  10.531
53672W        W26097  37.884  25.523   1.436
53673W        W26098  25.065  42.791  11.948
53674W        W26099   4.785   1.388  10.973
53675W        W26100  40.018  19.277   4.654
53676W        W26101  13.842  23.665   2.198
53677W        W26102  21.537  11.860   5.316
53678W        W26103  22.245  22.137   3.201
53679W        W26104  31.058  39.494   0.735
53680W        W26105  33.063  32.396  14.004
53681W        W26106  27.451  31.958   4.798
53682W        W26107  21.189  13.659   0.810
53683W        W26108  27.078  13.168  10.928
53684W        W26109   9.756   8.241   2.845
53685W        W26110  35.463   2.456   0.411
53686W        W26111   7.373  35.468   3.695
53687W        W26112   0.942   7.886  12.995
53688W        W26113  13.688  24.035   3.661
53689W        W26114   2.402  20.088   4.691
53690W        W26115  44.356   7.751   4.190
53691W        W26116  34.018  17.260   1.719
53692W        W26117  16.767  31.511  13.914
53693W        W26118  26.054  42.936   5.308
53694W        W26119  31.464  37.468   1.890
53695W        W26120  20.544  38.385  12.514
53696W        W26121  25.560   6.787   0.899
53697W        W26122  22.094   1.346  13.877
53698W        W26123  21.701   3.456  12.342
53699W        W26124  29.532   4.909  12.937
53700W        W26125   5.899  33.990   0.287
53701W        W26126  25.656  18.160  12.496
53702W        W26127  40.995  18.113   2.729
53703W        W26128  18.055  40.472   4.672
53704W        W26129  44.905  20.233  14.320
53705W        W26130  18.606  19.596   1.853
53706W        W26131  30.597  31.119  13.546
53707W        W26132  17.700  31.638   1.907
53708W        W26133  13.829   1.465  11.111
53709W        W26134  42.349  43.351  10.995
53710W        W26135   4.436  20.261   4.210
53711W        W26136  25.098  27.065   0.414
53712W        W26137  18.711  23.099   1.419
53713W        W26138  17.270  14.184   4.784
53714W        W26139  14.317  25.558   1.217
53715W        W26140  30.907  30.643   3.832
53716W        W26141  18.133   2.372  11.419
53717W        W26142  40.422  25.211  13.997
53718W        W26143  29.098  17.075   4.124
53719W        W26144  44.292  40.920   0.446
53720W        W26145  44.878  18.566   2.793
53721W        W26146  36.533  11.842  12.036
53722W        W26147  32.931  36.011  12.405
53723W        W26148  42.364   0.879   1.337
53724W        W26149  20.248   2.864   1.311
53725W        W26150  16.193  17.081  12.477
53726W        W26151  21.621  41.348   0.432
53727W        W26152  41.834  19.580   2.198
53728W        W26153  27.560   2.433  12.409
53729W        W26154  40.399   9.686   2.329
53730W        W26155  22.135  23.105  12.851
53731W        W26156  44.494  21.209   4.748
53732W        W26157  11.687  34.999  10.487
53733W        W26158  12.805  11.724   2.810
53734W        W26159  27.088  29.975   3.333
53735W        W26160  33.874  11.831   0.754
53736W        W26161  22.063   0.835   2.824
53737W        W26162  22.734   9.750   5.137
53738W        W26163  35.463  21.046   0.776
53739W        W26164  12.755  24.713  11.595
53740W        W26165  18.074  41.969  14.377
53741W        W26166  32.105  14.810  13.030
53742W        W26167  40.875  32.523  11.030
53743W        W26168  11.319  32.961  13.385
53744W        W26169  21.644  20.642  14.282
53745W        W26170  42.296  31.643   3.336
53746W        W26171  15.163  32.534   2.772
53747W        W26172  15.101  29.163   1.425
53748W        W26173   2.283  29.108   1.258
53749W        W26174  25.135  26.589   3.238
53750W        W26175  15.286  30.063   4.196
53751W        W26176  13.668  13.323   2.692
53752W        W26177   2.366  33.905   0.865
53753W        W26178  34.495  33.903  13.033
53754W        W26179   9.194   3.367  13.418
53755W        W26180  40.493  41.417   0.815
53756W        W26181  13.294  18.184  11.012
53757W        W26182  32.550  25.649   2.788
53758W        W26183  39.502  43.769   3.816
53759W        W26184   9.335  32.522  12.552
53760W        W26185  24.122  15.660  14.008
53761W        W26186  18.674  26.116   4.283
53762W        W26187  15.190   3.853  10.926
53763W        W26188  20.254  34.429  13.343
53764W        W26189  12.762  44.418   0.758
53765W        W26190  42.519  32.492   1.895
53766W        W26191  31.549   1.780   2.198
53767W        W26192  12.789  11.664  11.071
53768W        W26193  36.842  24.483   1.333
53769W        W26194  10.161   1.841   4.273
53770W        W26195  19.713   6.705   3.320
53771W        W26196  27.601  17.628   3.825
53772W        W26197   6.208  19.683   0.269
53773W        W26198  40.534  26.199   3.208
53774W        W26199  15.718  14.781   1.376
53775W        W26200  35.040  18.160   2.737
53776W        W26201   4.868   1.940  14.472
53777W        W26202  28.169  29.446  10.888
53778W        W26203  42.882  23.186  12.994
53779W        W26204  13.335  38.064   0.274
53780W        W26205   4.408  37.544  11.084
53781W        W26206   4.870  20.168  10.990
53782W        W26207  26.066  12.125  13.512
53783W        W26208   4.364  41.801  12.888
53784W        W26209  35.940  13.239  10.643
53785W        W26210  12.313  15.605   0.326
53786W        W26211  35.397  14.112   1.425
53787W        W26212   3.749  33.430   1.430
53788W        W26213  43.358   3.923   2.780
53789W        W26214  41.316  41.805   1.934
53790W        W26215  21.019  10.208   4.146
53791W        W26216  35.567   7.725   2.734
53792W        W26217  44.411  37.464  12.071
53793W        W26218  34.371   7.853  12.856
53794W        W26219   0.881  36.035   9.978
53795W        W26220  20.747  25.067  13.325
53796W        W26221  38.041  11.822   0.831
53797W        W26222  37.434  40.538   3.335
53798W        W26223  14.795  11.716  12.529
53799W        W26224  23.720  19.134  11.986
53800W        W26225   0.461  29.559   1.781
53801W        W26226  16.622  31.449   1.853
53802W        W26227  14.644  44.474  10.513
53803W        W26228  33.551  16.668  12.060
53804W        W26229  28.650  19.669   1.917
53805W        W26230  19.196  35.409   3.853
53806W        W26231   5.329  14.297  11.090
53807W        W26232  15.328   5.292  14.912
53808W        W26233  43.799  20.035   9.653
53809W        W26234   9.843  19.563   2.716
53810W        W26235  19.099  29.981   3.296
53811W        W26236  33.051   2.382  14.001
53812W        W26237  10.188   4.827   1.284
53813W        W26238  29.088  28.529  13.983
53814W        W26239  38.052  25.538  12.841
53815W        W26240   5.246  25.099  14.443
53816W        W26241  21.164   0.905  13.940
53817W        W26242  29.150  15.284  11.396
53818W        W26243  38.463  44.965   2.714
53819W        W26244  13.167  37.359   4.837
53820W        W26245  20.253   7.909   1.914
53821W        W26246   2.276  12.195   3.348
53822W        W26247  32.140  19.584  14.973
53823W        W26248  21.130  35.510  14.292
53824W        W26249  29.956  21.052  14.810
53825W        W26250   6.212  33.509   0.897
53826W        W26251  20.233   5.750  10.525
53827W        W26252  16.143  13.636  13.054
53828W        W26253  12.644  10.685  14.946
53829W        W26254  20.064  15.168  14.768
53830W        W26255   7.357  33.478  13.989
53831W        W26256  17.796  39.487   1.268
53832W        W26257  36.377  23.598   2.221
53833W        W26258  26.573  31.469   3.681
53834W        W26259  41.832  23.997  10.976
53835W        W26260  25.005   8.185   4.613
53836W        W26261   6.273   5.741  11.373
53837W        W26262  16.139  13.165  13.938
53838W        W26263  24.641  32.136  11.913
53839W        W26264  13.690  14.266  11.957
53840W        W26265   4.426  39.053  12.854
53841W        W26266  20.606  25.076   0.287
53842W        W26267  40.995  25.704   0.910
53843W        W26268   5.428  20.081   1.846
53844W        W26269   2.958  22.047   4.311
53845W        W26270  35.889  25.488   0.931
53846W        W26271  17.232  29.925   3.650
53847W        W26272  12.311   7.258   3.801
53848W        W26273  34.929  43.926  12.931
53849W        W26274   0.266  27.667   2.222
53850W        W26275  18.194  33.102   1.404
53851W        W26276  14.154  13.115   2.827
53852W        W26277  13.273  35.045   0.901
53853W        W26278   9.210  32.932  11.038
53854W        W26279  40.967  30.583  13.397
53855W        W26280  15.815   4.914  14.949
53856W        W26281   2.330  12.306  14.009
53857W        W26282  33.500  33.589  13.815
53858W        W26283  28.959  25.508  11.449
53859W        W26284  24.108  43.958   1.297
53860W        W26285  38.990  12.270   4.761
53861W        W26286  24.215  26.958  13.999
53862W        W26287  42.505   7.246   2.205
53863W        W26288   7.376  17.182   2.350
53864W        W26289   0.410  27.581   2.694
53865W        W26290  27.648  15.823  13.045
53866W        W26291  34.395  29.035   0.934
53867W        W26292   2.935  29.081  12.483
53868W        W26293   9.887  35.063  14.293
53869W        W26294  19.127  34.968   4.141
53870W        W26295  39.393  35.912  12.906
53871W        W26296  10.346  23.016   4.777
53872W        W26297  21.604  19.725  11.060
53873W        W26298  23.020  34.082   0.807
53874W        W26299  26.168  44.338   3.275
53875W        W26300  32.934   0.806  14.842
53876W        W26301  10.844   0.399   1.381
53877W        W26302  10.378  22.513   0.912
53878W        W26303  16.752  25.504   1.236
53879W        W26304  24.495  34.376   0.451
53880W        W26305  43.903  11.274   3.659
53881W        W26306  20.250  42.371  14.509
53882W        W26307  15.227  10.733  12.979
53883W        W26308  21.529  22.025   2.245
53884W        W26309   7.760  44.876  10.961
53885W        W26310  38.511   9.224  12.445
53886W        W26311  14.632  12.808  13.477
53887W        W26312  42.312  14.106   3.865
53888W        W26313  20.683   5.330  14.350
53889W        W26314   0.836  24.560  14.433
53890W        W26315  24.580   6.318  12.044
53891W        W26316  22.743   1.415   3.649
53892W        W26317  23.656   1.896  11.865
53893W        W26318  34.076  12.316   0.322
53894W        W26319  40.509  20.144  13.332
53895W        W26320  17.755  31.613   3.663
53896W        W26321  23.213  39.885   3.335
53897W        W26322  44.895  14.763  11.066
53898W        W26323   7.405   5.845  10.895
53899W        W26324   3.924  44.496  10.899
53900W        W26325   3.303  25.626   2.362
53901W        W26326  32.959  28.556   3.797
53902W        W26327   5.436  36.908  14.380
53903W        W26328   1.387  24.044  12.964
53904W        W26329   8.250  23.999   2.363
53905W        W26330   4.395   6.381  10.446
53906W        W26331  28.590  22.241  13.897
53907W        W26332   3.732  26.636   4.604
53908W        W26333  21.630  41.948  13.035
53909W        W26334  33.545  23.630  14.328
53910W        W26335  21.150  43.866   0.278
53911W        W26336   0.333  41.365  14.331
53912W        W26337   4.840  31.988  11.046
53913W        W26338  13.186  22.116  12.361
53914W        W26339  29.987  29.481  13.957
53915W        W26340  27.972  41.970   4.734
53916W        W26341  10.210  41.446  14.833
53917W        W26342  22.635   4.403  11.554
53918W        W26343   5.756   8.372  14.449
53919W        W26344  26.686  32.889  12.914
53920W        W26345   9.216  30.150  10.479
53921W        W26346  30.561  12.150   0.273
53922W        W26347  34.556  18.637  10.409
53923W        W26348   1.806   3.431   4.746
53924W        W26349   2.943   1.391  14.457
53925W        W26350  26.083  10.825   1.741
53926W        W26351  31.917  26.463  14.426
53927W        W26352  12.145  19.154   2.813
53928W        W26353  29.568  44.812  10.417
53929W        W26354  30.419  37.501  14.336
53930W        W26355   2.308   4.401   0.479
53931W        W26356  10.316   4.278   3.804
53932W        W26357  31.581  41.814   3.257
53933W        W26358  24.723  33.490  14.007
53934W        W26359  25.655  36.891  14.930
53935W        W26360   0.984  41.328  10.577
53936W        W26361   0.261   1.310  14.830
53937W        W26362  37.510  14.659  13.395
53938W        W26363  16.150   8.707   1.831
53939W        W26364  15.329  14.813  10.411
53940W        W26365  32.901  17.639   1.783
53941W        W26366  16.695   6.710   2.839
53942W        W26367  25.639  34.574   4.773
53943W        W26368  33.954  23.116   2.762
53944W        W26369  11.241  23.628   1.381
53945W        W26370   8.392   0.279  13.057
53946W        W26371   9.811  43.976   4.148
53947W        W26372  43.472  41.451  10.560
53948W        W26373  44.819  23.137  13.853
53949W        W26374  33.988   4.725  13.937
53950W        W26375   8.360  31.491  14.374
53951W        W26376   2.304   0.884   1.864
53952W        W26377  20.615   1.287   1.408
53953W        W26378  23.224   0.255   2.805
53954W        W26379  44.921  24.142   4.186
53955W        W26380  28.028  10.857   2.837
53956W        W26381   1.936  21.134   0.954
53957W        W26382  40.966   9.797  11.466
53958W        W26383  23.031   9.808  14.309
53959W        W26384   5.366  15.687   3.257
53960W        W26385  29.149  40.804   0.369
53961W        W26386  33.480  10.198  10.594
53962W        W26387  26.178   0.743   3.854
53963W        W26388   4.743  41.459  13.532
53964W        W26389  24.509  16.268  14.009
53965W        W26390  21.736  32.557   0.392
53966W        W26391   1.336  18.594   2.767
53967W        W26392  29.113  11.362  11.874
53968W        W26393  20.692  21.158  14.930
53969W        W26394   6.423  36.093  14.020
53970W        W26395  38.041  11.823   4.288
53971W        W26396  24.173  23.992  12.067
53972W        W26397   7.773  19.760  12.941
53973W        W26398  29.066  27.457  13.983
53974W        W26399  27.157  44.415   2.388
53975W        W26400  21.230   0.952   5.281
53976W        W26401  21.113  10.276   3.385
53977W        W26402  20.166  19.206   2.840
53978W        W26403   7.280  40.004   3.205
53979W        W26404  14.702   4.444   2.696
53980W        W26405  13.702  14.710   4.221
53981W        W26406  25.651   0.967   3.773
53982W        W26407   5.922  32.557  10.550
53983W        W26408  30.934  10.750  13.905
53984W        W26409  39.928  30.130   1.444
53985W        W26410  43.406  19.591   0.943
53986W        W26411  29.618  11.797   2.777
53987W        W26412  15.746  41.846   0.762
53988W        W26413  28.115  38.973   3.157
53989W        W26414  21.720   8.708   1.867
53990W        W26415  19.088  27.636  11.579
53991W        W26416  36.494   4.905  13.986
53992W        W26417   3.789  25.042   0.920
53993W        W26418  36.051  19.268   4.735
53994W        W26419  30.578  35.518  13.026
53995W        W26420  42.450  24.660   3.273
53996W        W26421  34.041  13.702  10.973
53997W        W26422  43.940  25.979  11.091
53998W        W26423  34.417  25.663   3.717
53999W        W26424   8.683  41.327   2.680
54000W        W26425  19.556  19.098  12.088
54001W        W26426  37.016  10.335   0.311
54002W        W26427  14.612  38.959  11.467
54003W        W26428  12.735  20.682   1.372
54004W        W26429  20.573   6.908  11.448
54005W        W26430   0.434  21.754   4.203
54006W        W26431  40.991  16.709   1.409
54007W        W26432  14.752  35.505   0.758
54008W        W26433  29.610  21.574   5.312
54009W        W26434  15.322  13.770   1.340
54010W        W26435  31.607   1.748  12.968
54011W        W26436  25.504  16.666  11.932
54012W        W26437  11.753  21.560  14.901
54013W        W26438  34.038  36.949  13.515
54014W        W26439  35.062  26.679  13.514
54015W        W26440   9.159  25.109  14.484
54016W        W26441  37.960  29.644  14.441
54017W        W26442  17.295   3.765  13.951
54018W        W26443  13.620  31.130  11.454
54019W        W26444  30.043  12.236  13.351
54020W        W26445  44.397  20.153  14.016
54021W        W26446  43.783  21.052   3.753
54022W        W26447  35.424  36.066   2.327
54023W        W26448  17.605  14.137   0.779
54024W        W26449  38.481  27.135  14.295
54025W        W26450  44.386  37.017  13.835
54026W        W26451  11.854  41.293   2.688
54027W        W26452  16.736  29.147   0.330
54028W        W26453  41.312  11.836   0.836
54029W        W26454  24.154  29.046   4.330
54030W        W26455   1.322  17.180  10.634
54031W        W26456  19.221   5.407  14.403
54032W        W26457  35.551   7.683  12.080
54033W        W26458   5.242  25.547   4.307
54034W        W26459  31.076   2.231   2.890
54035W        W26460   4.220   0.368   3.845
54036W        W26461   1.276  37.393  13.884
54037W        W26462  30.623   7.780   1.883
54038W        W26463  19.201  12.792  14.422
54039W        W26464  29.440  23.506  10.987
54040W        W26465  42.887   2.722   1.364
54041W        W26466  31.518  36.584  13.017
54042W        W26467  20.754  22.036  10.976
54043W        W26468  15.308  22.562   1.244
54044W        W26469  17.700  16.180   3.753
54045W        W26470  32.408   4.249   1.738
54046W        W26471  23.551  41.897   3.777
54047W        W26472  35.571  31.026  12.856
54048W        W26473  43.776  34.595  14.366
54049W        W26474  30.659  32.929  11.988
54050W        W26475  30.521  36.063   4.152
54051W        W26476  44.876   9.759  11.080
54052W        W26477  14.825   6.420  11.063
54053W        W26478   1.746  36.920  13.882
54054W        W26479   2.828  12.772  11.949
54055W        W26480  20.108  34.004  12.568
54056W        W26481  44.861  29.077   4.156
54057W        W26482  44.407  37.862   0.795
54058W        W26483  19.236  36.501   2.217
54059W        W26484  29.597   2.415   1.761
54060W        W26485  11.810  12.291  14.009
54061W        W26486  11.701  32.909  14.838
54062W        W26487  36.904  24.224  11.972
54063W        W26488  12.165  42.793   2.716
54064W        W26489  22.575  29.612   0.278
54065W        W26490  35.065   1.284  12.094
54066W        W26491  39.864  37.911  14.400
54067W        W26492  14.753   8.207  11.496
54068W        W26493  31.985  10.329  14.846
54069W        W26494  24.156   9.297   4.745
54070W        W26495  11.671  39.886  13.897
54071W        W26496   0.828  18.085   1.789
54072W        W26497  37.419  31.648   4.341
54073W        W26498  13.334   6.832  10.600
54074W        W26499  21.551  31.540   3.189
54075W        W26500  37.837  13.254   2.380
54076W        W26501  12.854   2.330  11.056
54077W        W26502  11.251   3.723   2.260
54078W        W26503  43.797  11.314   2.695
54079W        W26504   7.704  26.664  11.529
54080W        W26505   6.856   0.354  12.854
54081W        W26506  38.956  13.335   2.355
54082W        W26507  44.854  20.539   3.670
54083W        W26508  19.199  37.338  13.373
54084W        W26509  25.004   7.844  12.033
54085W        W26510  30.467   1.362   1.782
54086W        W26511  41.999  13.817   4.301
54087W        W26512  12.273  44.406  13.007
54088W        W26513  20.726  21.226   4.199
54089W        W26514   0.283  21.196   2.746
54090W        W26515  10.829   5.363  10.440
54091W        W26516  24.148  22.578  13.483
54092W        W26517  42.023  19.140   9.573
54093W        W26518  28.472  23.698   5.744
54094W        W26519  20.130  44.778   1.733
54095W        W26520  10.728   7.842  12.930
54096W        W26521  33.021  17.179  13.802
54097W        W26522  39.343   1.933   1.234
54098W        W26523  43.015  19.184   4.600
54099W        W26524  24.174  35.936  10.980
54100W        W26525   7.861  28.576   3.757
54101W        W26526  38.939   9.651  11.490
54102W        W26527  19.119  26.645   3.789
54103W        W26528  17.746  23.026   3.173
54104W        W26529  19.743  12.262  14.941
54105W        W26530  32.094   6.216   2.888
54106W        W26531  25.147  33.403  13.921
54107W        W26532   5.234  10.335  13.009
54108W        W26533  14.716   2.858   3.661
54109W        W26534  16.744   3.840  13.543
54110W        W26535   1.483  18.734   2.254
54111W        W26536   2.229   3.723   2.235
54112W        W26537  42.335  12.215   1.409
54113W        W26538   6.847  19.188  14.919
54114W        W26539  33.947  19.636   1.741
54115W        W26540  41.425  32.074  12.036
54116W        W26541   8.382  33.079  12.407
54117W        W26542   6.427  17.725   1.417
54118W        W26543  34.042   3.302  14.923
54119W        W26544  11.666  17.125   0.733
54120W        W26545  37.356   6.272   2.316
54121W        W26546  18.144   7.764   0.944
54122W        W26547   4.259   6.677  13.969
54123W        W26548  24.065   3.742  11.517
54124W        W26549   4.342   3.229  12.385
54125W        W26550  24.104  25.072  10.450
54126W        W26551  14.170  23.030  13.876
54127W        W26552  14.100  20.588   3.171
54128W        W26553  44.364   8.258  11.121
54129W        W26554  41.335  18.067   0.772
54130W        W26555  11.287  28.528   3.275
54131W        W26556  29.939  14.649   1.373
54132W        W26557   8.394   5.742   3.695
54133W        W26558  39.989  13.774  11.410
54134W        W26559  16.275  39.996  11.584
54135W        W26560   9.750  21.563   3.647
54136W        W26561  26.485  42.797   9.983
54137W        W26562  30.425  10.371   9.990
54138W        W26563  33.479   5.848   4.824
54139W        W26564  23.561  16.669  10.995
54140W        W26565  28.559  43.988  10.972
54141W        W26566  36.847  39.811  10.508
54142W        W26567   4.223  11.848  13.464
54143W        W26568  24.566  13.239   4.736
54144W        W26569  43.821  40.867  11.541
54145W        W26570  29.945  21.038  10.612
54146W        W26571  14.218  18.616  14.897
54147W        W26572   8.745  20.203  13.403
54148W        W26573  14.831   9.736   2.261
54149W        W26574  12.128   5.262  11.395
54150W        W26575  44.296  30.485   0.798
54151W        W26576  11.851  17.201  12.557
54152W        W26577  21.521  38.559   1.740
54153W        W26578  26.955  14.789   1.924
54154W        W26579  44.367   1.239   0.836
54155W        W26580  12.357  40.968   1.786
54156W        W26581  29.463   5.871   3.653
54157W        W26582  23.575   3.245   2.195
54158W        W26583  28.958  15.156  13.504
54159W        W26584   7.757  36.921  11.502
54160W        W26585  42.822   9.393  14.334
54161W        W26586  19.222   4.367  13.958
54162W        W26587  35.597  18.127  12.985
54163W        W26588  40.350  38.856   1.345
54164W        W26589  31.004  25.127  12.075
54165W        W26590  21.585  24.203   4.344
54166W        W26591  40.026  21.722  14.820
54167W        W26592  44.857   6.225   1.391
54168W        W26593  33.036  23.549  10.537
54169W        W26594  18.217  32.552   2.246
54170W        W26595   7.328  17.190  12.567
54171W        W26596  11.714  38.568  12.830
54172W        W26597  39.971  10.266  13.855
54173W        W26598  14.654  15.691   1.909
54174W        W26599  17.741  42.365   2.860
54175W        W26600  18.709  33.499  10.047
54176W        W26601  40.952  44.261   2.383
54177W        W26602   6.230  28.569   1.247
54178W        W26603  39.410   8.853   1.830
54179W        W26604   6.354   3.267  10.425
54180W        W26605  21.737  35.970  14.950
54181W        W26606  30.960  38.536   4.354
54182W        W26607  15.137   7.888  13.410
54183W        W26608  11.301  10.302   3.302
54184W        W26609  23.556   3.759   2.180
54185W        W26610  38.929  31.898  14.945
54186W        W26611  23.527  26.485   3.822
54187W        W26612  39.560  19.737   2.866
54188W        W26613  41.792  39.957   2.330
54189W        W26614  41.844  26.623   1.379
54190W        W26615  10.733  34.530   3.783
54191W        W26616  28.058  24.512   1.350
54192W        W26617  16.152   7.229  11.064
54193W        W26618  27.605  17.652   0.865
54194W        W26619  36.357  15.125  12.359
54195W        W26620  27.009  32.056  11.486
54196W        W26621   3.939  26.087   0.728
54197W        W26622  37.947   7.180   3.296
54198W        W26623  24.514  21.517   4.626
54199W        W26624   9.769  37.873  11.029
54200W        W26625   0.376  43.329  11.605
54201W        W26626   0.931  27.986   4.330
54202W        W26627  31.614  33.597   0.387
54203W        W26628  22.044  20.207   0.300
54204W        W26629   3.830  36.991   0.390
54205W        W26630  36.585  11.846  10.972
54206W        W26631  12.774  37.861  13.978
54207W        W26632  41.436  28.603  12.956
54208W        W26633   7.243   0.968   4.140
54209W        W26634  17.095   5.739  13.926
54210W        W26635  11.822  23.647   3.718
54211W        W26636  43.371  24.680   0.371
54212W        W26637  12.630  22.686  13.934
54213W        W26638  39.857  43.897   1.312
54214W        W26639   9.770  29.152   0.307
54215W        W26640  32.117   2.415  14.913
54216W        W26641  17.086   8.788  12.970
54217W        W26642  29.467  24.657  13.349
54218W        W26643  19.201  28.063   1.405
54219W        W26644  13.698   7.261  13.850
54220W        W26645  44.754   1.480   1.246
54221W        W26646  44.960  13.806  12.440
54222W        W26647  43.382   7.259  13.307
54223W        W26648  33.084  38.019  14.002
54224W        W26649   8.365  31.126   4.272
54225W        W26650  24.059  23.224  14.791
54226W        W26651  28.491  35.496   1.915
54227W        W26652  44.311  18.124  13.429
54228W        W26653  37.848  24.211  10.584
54229W        W26654  34.976  12.715  11.012
54230W        W26655  23.164  32.921  14.431
54231W        W26656  42.465   4.206   2.307
54232W        W26657  23.528  15.795  12.349
54233W        W26658  10.232  40.890  11.528
54234W        W26659  32.981  26.460  10.891
54235W        W26660  15.220  31.099   3.278
54236W        W26661  13.621  26.676  12.561
54237W        W26662  22.200  15.317   0.336
54238W        W26663  25.102  24.168  11.429
54239W        W26664  35.428  14.180  11.415
54240W        W26665  34.936  37.995   2.184
54241W        W26666  34.595   0.378   4.824
54242W        W26667   0.455   8.836   4.823
54243W        W26668   9.792  17.724   3.652
54244W        W26669  44.850   0.884  12.404
54245W        W26670  21.072  43.300   2.772
54246W        W26671   8.798  10.852   2.897
54247W        W26672   0.974  27.043  11.125
54248W        W26673  20.728  22.107   2.345
54249W        W26674  23.132  13.204  13.331
54250W        W26675  33.895  23.639  10.911
54251W        W26676  11.172   6.923   3.832
54252W        W26677   1.878  13.264  11.537
54253W        W26678  39.880  35.073  13.876
54254W        W26679  19.617  17.749   0.885
54255W        W26680   5.263  35.107   1.321
54256W        W26681  41.304  38.983   3.203
54257W        W26682  29.527  37.939   2.893
54258W        W26683  37.507   0.818   5.117
54259W        W26684  14.132   8.847   2.402
54260W        W26685   1.350  13.348   4.615
54261W        W26686   1.778   5.433   0.258
54262W        W26687  35.057  21.725  14.003
54263W        W26688   3.721  32.465   1.837
54264W        W26689   2.819   2.827  13.465
54265W        W26690  29.568  32.401   0.964
54266W        W26691  26.100  22.633  10.496
54267W        W26692  27.094  26.992  14.457
54268W        W26693  41.811   5.804   1.240
54269W        W26694  33.470  30.025  10.134
54270W        W26695   0.890  31.013  13.430
54271W        W26696  24.068  19.620  14.007
54272W        W26697  27.078   0.442  12.491
54273W        W26698   2.854   1.389  11.014
54274W        W26699  44.864   6.905  13.454
54275W        W26700  32.137  30.070  11.095
54276W        W26701  13.637   5.273  12.941
54277W        W26702  36.369  35.470  10.644
54278W        W26703  24.034   6.733   4.674
54279W        W26704  41.493   8.735  13.828
54280W        W26705  15.730  35.416   2.717
54281W        W26706   8.316   2.911   3.188
54282W        W26707  33.093  44.402   1.896
54283W        W26708  16.596   6.357  14.961
54284W        W26709  10.843  10.381   0.888
54285W        W26710  14.717   0.482  14.979
54286W        W26711   6.286  26.621  13.506
54287W        W26712  37.564  26.015  14.312
54288W        W26713  20.211   4.318   3.231
54289W        W26714  20.106   0.360   0.244
54290W        W26715  14.817  28.107  12.081
54291W        W26716  27.685   6.834   0.468
54292W        W26717   7.234  15.586  12.985
54293W        W26718  11.775  14.148   2.830
54294W        W26719   0.814  12.672  11.450
54295W        W26720  18.705  16.776   0.477
54296W        W26721  22.175  16.769  11.413
54297W        W26722  18.128  32.575   3.702
54298W        W26723  11.761  35.078   2.189
54299W        W26724  36.996  35.941  11.894
54300W        W26725  31.051  40.034   2.770
54301W        W26726  36.060  41.500   4.267
54302W        W26727   2.414  19.748   1.823
54303W        W26728  33.970   2.860   3.806
54304W        W26729  20.209   7.686   3.849
54305W        W26730  36.359  20.068  14.427
54306W        W26731   2.459  11.373  12.543
54307W        W26732  22.589   2.460   2.336
54308W        W26733  22.024  33.126   2.185
54309W        W26734   9.333  16.569   2.875
54310W        W26735  30.020  25.636  13.840
54311W        W26736   8.814  30.033  12.524
54312W        W26737  26.984  28.064   1.796
54313W        W26738  34.574   8.791  14.446
54314W        W26739  18.672  35.513  11.520
54315W        W26740  16.279   6.830   3.772
54316W        W26741  28.462  40.874  14.342
54317W        W26742  41.328  23.663  13.797
54318W        W26743  41.806  28.467  13.506
54319W        W26744  15.307   1.905   0.929
54320W        W26745  40.835   5.732  13.036
54321W        W26746   7.777   0.802  11.417
54322W        W26747   2.848  40.822  13.357
54323W        W26748  39.368  29.631   1.301
54324W        W26749  43.014  38.022   4.124
54325W        W26750  18.125   9.675  12.538
54326W        W26751  23.136  30.137  12.862
54327W        W26752  16.635  20.088  12.858
54328W        W26753  18.175  19.684   0.375
54329W        W26754   4.850  31.554   2.259
54330W        W26755   2.878  43.408   1.307
54331W        W26756  28.635   4.444  13.936
54332W        W26757  44.378  39.442  12.933
54333W        W26758  40.311  31.410  12.025
54334W        W26759  14.608  30.956  14.825
54335W        W26760  42.488  36.084   2.307
54336W        W26761  16.771  13.298  14.993
54337W        W26762  35.876  34.037   0.420
54338W        W26763  43.883  30.133   2.741
54339W        W26764  26.134  33.551  11.516
54340W        W26765  27.059   4.737  14.026
54341W        W26766  20.615  34.610  14.998
54342W        W26767  17.652  31.533  10.963
54343W        W26768  14.766  32.416  11.053
54344W        W26769  33.932   1.786  11.977
54345W        W26770  30.579  34.912  11.021
54346W        W26771  13.713  34.457   3.357
54347W        W26772  37.520  19.228   3.762
54348W        W26773  40.363  18.697  13.407
54349W        W26774  16.084  40.303  13.821
54350W        W26775  29.649  16.317   4.664
54351W        W26776  29.550  14.765   2.734
54352W        W26777  35.978  18.625   4.191
54353W        W26778   5.352  10.750  12.387
54354W        W26779  44.484  28.679  11.105
54355W        W26780  30.591  30.150   3.187
54356W        W26781  41.503  38.976   5.317
54357W        W26782  10.849  38.498   3.687
54358W        W26783   4.287  36.962   0.955
54359W        W26784  44.776  39.864  10.492
54360W        W26785  38.020  34.019   3.819
54361W        W26786   6.334  44.817  14.431
54362W        W26787  38.543  41.300   2.178
54363W        W26788  39.376   4.261   3.257
54364W        W26789  15.732   2.361   2.333
54365W        W26790  26.592  11.299  14.444
54366W        W26791  19.221  25.094  11.944
54367W        W26792   7.727  38.417   1.861
54368W        W26793  26.161  40.302   2.202
54369W        W26794  28.156  27.546   1.808
54370W        W26795  40.853  19.117   4.648
54371W        W26796  29.449  31.984  14.000
54372W        W26797  24.123  34.080   3.669
54373W        W26798  10.248  24.613   2.726
54374W        W26799  29.499  44.342   9.999
54375W        W26800  39.527   9.216  13.480
54376W        W26801  39.965  43.791   2.376
54377W        W26802  12.698  17.606   0.859
54378W        W26803  41.292  41.350  10.525
54379W        W26804   7.403  11.717  13.462
54380W        W26805  31.910   3.848  11.911
54381W        W26806   2.943  32.540  11.974
54382W        W26807   9.698  17.670   4.657
54383W        W26808  19.170  21.027   1.339
54384W        W26809  43.468   6.270  11.493
54385W        W26810  29.668  24.136   3.679
54386W        W26811  12.158  26.687  14.375
54387W        W26812   5.910  38.879   4.233
54388W        W26813  20.236  19.609   2.348
54389W        W26814  31.923   4.838  10.568
54390W        W26815  41.491  14.238  13.047
54391W        W26816  35.074   7.906   4.219
54392W        W26817  41.880  41.934   0.871
54393W        W26818  14.269  29.005  13.332
54394W        W26819   0.781  30.143   1.741
54395W        W26820   3.223  11.751  12.935
54396W        W26821  14.253  43.487  14.982
54397W        W26822  28.564   5.693  12.930
54398W        W26823  13.809  42.313   0.317
54399W        W26824   4.846  43.808  11.874
54400W        W26825  33.048  27.488   4.219
54401W        W26826  31.063  13.637   4.662
54402W        W26827  25.595  10.685  12.912
54403W        W26828  31.018  14.257   4.702
54404W        W26829  41.920  26.121   4.328
54405W        W26830  18.704  30.003  10.991
54406W        W26831  39.909  12.738   2.243
54407W        W26832  34.583  24.554   0.387
54408W        W26833  20.146  24.159   3.701
54409W        W26834  22.697  11.689   2.784
54410W        W26835  41.937  37.570  13.841
54411W        W26836  37.404  35.871  11.959
54412W        W26837  24.512   9.294  12.526
54413W        W26838  20.569  39.455  12.826
54414W        W26839  38.415  27.658   3.837
54415W        W26840  36.420  18.691   1.344
54416W        W26841  13.296   4.441   9.993
54417W        W26842  36.463   3.768   1.223
54418W        W26843  15.608  25.093  13.039
54419W        W26844   1.974  10.372  10.429
54420W        W26845  18.269   8.712  11.560
54421W        W26846  21.092   0.266   0.850
54422W        W26847  42.029  15.721  13.454
54423W        W26848  19.617  14.332   2.855
54424W        W26849  38.878   6.690   1.785
54425W        W26850  26.517  35.410  11.580
54426W        W26851  39.354  29.014  11.387
54427W        W26852   3.837   3.316   1.254
54428W        W26853  36.071  21.108  13.817
54429W        W26854  15.665   6.219   3.377
54430W        W26855  44.261  40.802   2.207
54431W        W26856   7.725  39.817   3.678
54432W        W26857  30.518  26.156   1.226
54433W        W26858   6.200  34.059  14.837
54434W        W26859  11.814   7.352  14.407
54435W        W26860  14.599   1.866  10.105
54436W        W26861   4.431  20.249   0.785
54437W        W26862  40.469   3.765  13.866
54438W        W26863  32.402  39.873   4.627
54439W        W26864  26.476  21.522   1.416
54440W        W26865  31.135  14.188   9.963
54441W        W26866  16.121  27.021  11.875
54442W        W26867  10.313  44.813   4.608
54443W        W26868  16.605  28.557   2.831
54444W        W26869  15.794  39.878   1.767
54445W        W26870  36.874  44.806  12.050
54446W        W26871  19.544  35.435  11.060
54447W        W26872  20.598  12.712  11.008
54448W        W26873  43.969  25.535  10.899
54449W        W26874   0.822  35.968  12.919
54450W        W26875   9.164  18.285  12.577
54451W        W26876  10.181  23.709   4.806
54452W        W26877  44.843  40.373  10.959
54453W        W26878  30.429  37.417   3.183
54454W        W26879  13.754  14.707   2.300
54455W        W26880  12.692  32.034   4.809
54456W        W26881  21.609  12.677   2.888
54457W        W26882  17.601   9.371   0.281
54458W        W26883  31.118  37.348   0.824
54459W        W26884   9.224  26.537   1.400
54460W        W26885   7.372   9.706  13.527
54461W        W26886  35.565   1.466   2.199
54462W        W26887  16.182   2.888  13.867
54463W        W26888  33.103   3.931  13.006
54464W        W26889  24.489  35.882   3.159
54465W        W26890  24.701  17.765  11.043
54466W        W26891   8.359  18.144  11.522
54467W        W26892   4.311   6.768   4.734
54468W        W26893  40.810  29.562   1.407
54469W        W26894  14.133  16.112  14.470
54470W        W26895  43.402   9.725  11.511
54471W        W26896  44.935  42.958   1.757
54472W        W26897  31.101  41.410   3.765
54473W        W26898  11.182  21.081  10.949
54474W        W26899  14.302  38.959  11.580
54475W        W26900   4.855  18.752  13.901
54476W        W26901  30.945  18.689   2.398
54477W        W26902  24.478   5.911  13.859
54478W        W26903   0.870   3.273  11.495
54479W        W26904  20.054  43.958  13.042
54480W        W26905  23.702  11.222   0.857
54481W        W26906  14.158  20.531  13.036
54482W        W26907  29.565  20.044  11.422
54483W        W26908   6.288  19.589   4.806
54484W        W26909  41.304  15.136  13.461
54485W        W26910  35.368   6.286  12.017
54486W        W26911  17.252  12.308   3.168
54487W        W26912  21.524  29.033   1.301
54488W        W26913  20.181  44.970  14.397
54489W        W26914   6.292  21.076   2.873
54490W        W26915  37.033  34.971   2.340
54491W        W26916  26.583  30.129  12.970
54492W        W26917  14.629  39.404  12.027
54493W        W26918  33.594  10.754  10.146
54494W        W26919  29.058  35.585  11.386
54495W        W26920  13.782   6.922  12.843
54496W        W26921  40.525   1.958  11.540
54497W        W26922  17.728  23.234  14.950
54498W        W26923   1.855  11.293  11.880
54499W        W26924  39.991  17.766  12.087
54500W        W26925  15.721  12.179   1.900
54501W        W26926  16.633  33.073   0.338
54502W        W26927  43.321  20.615  14.298
54503W        W26928  35.388  16.667   4.208
54504W        W26929  35.369  29.532   0.343
54505W        W26930  19.582  37.366   2.766
54506W        W26931  17.115   5.889  11.858
54507W        W26932   0.823  43.844   4.249
54508W        W26933  24.038  10.299   4.749
54509W        W26934  23.079  35.047  11.921
54510W        W26935  40.446   6.757  14.449
54511W        W26936   0.441  25.566   2.684
54512W        W26937   4.326  42.957   0.416
54513W        W26938  26.150  35.947   1.929
54514W        W26939  42.835   2.391  14.778
54515W        W26940  37.870  39.406   2.769
54516W        W26941  42.444  39.910   2.842
54517W        W26942  19.715  23.014   0.459
54518W        W26943  43.317   3.458  12.941
54519W        W26944   5.927  13.770  14.399
54520W        W26945  36.574  11.270  14.807
54521W        W26946  12.121   7.877   4.605
54522W        W26947  18.685  37.880  14.511
54523W        W26948  23.020  32.589   2.325
54524W        W26949   2.906  11.368   3.742
54525W        W26950  29.577  27.493  12.373
54526W        W26951  28.625  21.040   4.245
54527W        W26952  28.602   7.322   2.370
54528W        W26953  30.150  18.231  13.905
54529W        W26954  27.960  30.009   0.425
54530W        W26955  40.856  25.208  11.042
54531W        W26956   5.229  41.883  10.446
54532W        W26957  35.022   4.855   3.228
54533W        W26958   9.341  42.391  12.947
54534W        W26959  16.742  12.803  12.477
54535W        W26960  28.574   2.442  13.896
54536W        W26961  24.612  22.566  12.824
54537W        W26962  38.958  33.626  12.064
54538W        W26963   7.182  34.955   2.364
54539W        W26964   9.706  20.748   0.320
54540W        W26965  10.311   7.271  13.443
54541W        W26966   1.867   0.250   2.877
54542W        W26967   1.807   0.770   4.285
54543W        W26968  42.426   2.442  13.001
54544W        W26969  37.036  17.634   3.353
54545W        W26970   1.252  27.122   1.331
54546W        W26971  13.317  10.295  12.937
54547W        W26972  13.320  24.714  11.036
54548W        W26973  22.019  38.974  11.018
54549W        W26974  34.053  24.662   3.856
54550W        W26975   2.816  44.265   0.475
54551W        W26976  24.119  24.591   0.824
54552W        W26977   5.799   7.892  10.544
54553W        W26978   7.212  23.707   2.334
54554W        W26979   8.249  37.868   0.928
54555W        W26980   3.335   6.824  13.499
54556W        W26981  39.497  41.025   2.740
54557W        W26982  39.470  17.085  14.993
54558W        W26983  11.148  28.057   1.257
54559W        W26984  41.410  43.018  12.463
54560W        W26985  27.629   0.884  10.625
54561W        W26986  19.154  43.807   0.807
54562W        W26987   8.733  28.131   2.201
54563W        W26988   5.431  21.175  11.518
54564W        W26989  21.656   7.173   4.196
54565W        W26990   0.269  24.987   2.369
54566W        W26991  30.971  17.625  14.380
54567W        W26992  28.181  29.007   0.822
54568W        W26993  17.782  41.454   3.206
54569W        W26994   1.741   4.343   4.296
54570W        W26995  22.147  29.947  11.474
54571W        W26996  26.128  23.190  11.486
54572W        W26997   3.409  13.713   4.612
54573W        W26998   2.342  15.273  13.996
54574W        W26999   1.444  39.899  13.419
54575W        W27000  19.615  14.778   4.814
54576W        W27001  15.233  42.938  10.525
54577W        W27002   2.449   7.220   3.380
54578W        W27003  22.166  14.703   1.449
54579W        W27004   8.839  24.046   2.897
54580W        W27005  42.008  10.650   1.767
54581W        W27006  34.465  28.140   0.780
54582W        W27007   6.320   3.887  14.844
54583W        W27008  29.130  22.180  12.408
54584W        W27009  43.844   3.955  14.912
54585W        W27010   9.822  41.029  10.441
54586W        W27011   1.370  22.088  14.309
54587W        W27012  33.554  34.536  14.439
54588W        W27013  38.945  31.465   3.269
54589W        W27014  28.083  43.504   2.296
54590W        W27015  18.576  32.540   0.305
54591W        W27016  20.146  10.688   2.836
54592W        W27017  43.770   5.310   4.828
54593W        W27018  15.790  43.499   2.779
54594W        W27019  14.791  18.704   2.756
54595W        W27020  20.585  32.069   4.826
54596W        W27021  21.587  13.240  13.499
54597W        W27022  22.154  31.086  14.335
54598W        W27023  25.577  37.949  11.913
54599W        W27024   2.873  24.003  14.431
54600W        W27025  32.463  16.178  13.056
54601W        W27026  14.113  13.825   3.325
54602W        W27027  11.737  36.925  14.420
54603W        W27028  11.788  17.725  11.436
54604W        W27029  38.992   2.369   0.873
54605W        W27030  16.678  11.141  13.020
54606W        W27031  44.361  42.865  14.912
54607W        W27032   6.206  26.176  12.507
54608W        W27033  13.685   2.243  14.486
54609W        W27034  18.068  39.910  14.026
54610W        W27035  12.639  28.462  13.049
54611W        W27036   7.329   4.435   0.408
54612W        W27037  36.402   9.361   2.791
54613W        W27038   7.284  23.104   4.817
54614W        W27039   6.293  43.830   4.745
54615W        W27040   7.210  41.803   3.323
54616W        W27041  31.574   9.807  13.539
54617W        W27042  32.067   8.345  14.285
54618W        W27043  41.843  23.525   2.209
54619W        W27044  42.327  44.436  14.977
54620W        W27045  40.984  27.113   3.864
54621W        W27046  31.126   0.253   4.178
54622W        W27047   7.215  44.775  11.065
54623W        W27048  40.801   3.343  14.868
54624W        W27049  30.110  40.463  13.330
54625W        W27050  29.060  37.421   4.790
54626W        W27051   7.883   4.430  14.356
54627W        W27052   0.468  33.566   3.189
54628W        W27053  15.598  38.938   1.345
54629W        W27054  43.381  27.537   3.199
54630W        W27055   3.368  29.168   4.724
54631W        W27056  25.070  17.187  12.032
54632W        W27057  13.270   2.423  11.023
54633W        W27058  17.674  11.636  14.379
54634W        W27059  13.180  10.159   9.931
54635W        W27060  23.564  25.617   2.200
54636W        W27061  20.585  43.502  10.604
54637W        W27062  14.222  18.615   2.694
54638W        W27063  11.211  29.472   1.746
54639W        W27064  21.073  43.385  14.011
54640W        W27065  18.590  37.577   0.730
54641W        W27066  18.088  21.086  10.640
54642W        W27067  22.112  23.603   0.761
54643W        W27068  37.979  31.138   0.470
54644W        W27069  29.933  41.886   3.370
54645W        W27070   9.844  16.582   4.722
54646W        W27071  28.439   1.916  11.875
54647W        W27072  23.715  14.308   4.604
54648W        W27073  10.340  41.920   0.353
54649W        W27074  25.477  33.984   4.669
54650W        W27075  23.114   3.271   3.292
54651W        W27076   3.879   2.432   2.763
54652W        W27077  18.766  29.024   4.722
54653W        W27078   0.784  43.327   0.735
54654W        W27079  23.614  21.133  13.465
54655W        W27080   7.808   2.313  13.312
54656W        W27081   6.361  41.873   4.331
54657W        W27082   5.422  12.321  10.455
54658W        W27083  19.777  41.936   4.726
54659W        W27084  18.667  34.025   3.354
54660W        W27085  14.661   9.220  13.880
54661W        W27086  44.375  12.775   4.765
54662W        W27087  23.153  38.346  10.573
54663W        W27088  16.577  36.446   4.330
54664W        W27089  12.622  27.538  13.488
54665W        W27090  14.178   0.795  12.865
54666W        W27091  29.562  24.528   3.651
54667W        W27092   3.291  18.544  12.429
54668W        W27093  19.745   5.312   0.256
54669W        W27094  19.206   9.150  12.369
54670W        W27095   4.928  22.641   5.110
54671W        W27096  30.115  22.209  12.417
54672W        W27097   3.216  40.452  13.914
54673W        W27098  22.203  23.241   1.745
54674W        W27099  41.514  13.246  11.116
54675W        W27100  29.000   9.653  11.982
54676W        W27101  13.231  12.265   3.321
54677W        W27102  34.368   8.665   2.726
54678W        W27103   5.201  18.573  10.573
54679W        W27104  29.656  25.160  12.081
54680W        W27105  41.396  16.598  13.942
54681W        W27106  40.871  37.341  13.329
54682W        W27107  42.388   0.949   4.208
54683W        W27108   0.942   5.423   3.313
54684W        W27109  33.896  23.167  12.094
54685W        W27110  28.154  44.946  11.402
54686W        W27111  14.094  29.079   4.734
54687W        W27112   2.300  33.102  14.988
54688W        W27113  13.751   2.758   2.205
54689W        W27114  36.887  24.610  10.573
54690W        W27115   6.734  17.630   2.249
54691W        W27116  35.085   6.696  14.377
54692W        W27117   6.792  33.435   2.788
54693W        W27118  34.893  34.408  13.910
54694W        W27119  32.943  34.453   1.920
54695W        W27120  40.020  30.465  13.876
54696W        W27121   5.361   8.672   0.809
54697W        W27122  12.675  36.372  13.935
54698W        W27123  18.085  38.333   0.901
54699W        W27124  11.321  11.739  14.806
54700W        W27125  33.026  38.490  14.459
54701W        W27126  38.522   0.295  12.906
54702W        W27127  32.421  27.051   1.931
54703W        W27128  21.176  16.247   4.794
54704W        W27129  37.067  43.824  14.782
54705W        W27130  11.788   4.859  13.814
54706W        W27131  20.588   6.299  14.309
54707W        W27132  40.303  42.373  13.800
54708W        W27133  33.096  16.583   0.914
54709W        W27134  28.952  25.513  12.883
54710W        W27135  44.426  12.659   2.806
54711W        W27136  35.871  36.937  14.912
54712W        W27137   3.258  20.765   4.815
54713W        W27138  21.019  34.912   3.261
54714W        W27139   9.645  23.102  14.493
54715W        W27140  24.571  35.950  11.033
54716W        W27141  41.398  37.433   2.300
54717W        W27142  17.169   1.850  10.411
54718W        W27143  22.723  43.943   2.770
54719W        W27144   1.263  38.324  11.980
54720W        W27145  36.067  27.019   4.751
54721W        W27146  38.011   4.773  12.093
54722W        W27147  18.167   9.209   0.283
54723W        W27148  18.266  16.776   4.623
54724W        W27149  16.139  41.824   4.789
54725W        W27150   3.935  39.451   2.377
54726W        W27151  38.868  40.826   3.210
54727W        W27152  12.632  40.851   2.705
54728W        W27153   4.744  44.434   5.282
54729W        W27154  36.058  15.111  14.316
54730W        W27155  27.581  22.206   4.600
54731W        W27156  30.062  41.398  10.028
54732W        W27157  38.492  39.526   3.256
54733W        W27158   0.423  29.052  14.307
54734W        W27159   0.491  30.594   9.946
54735W        W27160  44.919  30.096   2.896
54736W        W27161  37.038  32.589  10.925
54737W        W27162  12.852  35.394  13.861
54738W        W27163  33.028  11.240  13.977
54739W        W27164  26.116  10.876  13.051
54740W        W27165  24.009   9.266   4.159
54741W        W27166  32.449  13.268   2.415
54742W        W27167  37.451  16.669  14.333
54743W        W27168  39.004  15.715   4.612
54744W        W27169   8.819  24.048  12.084
54745W        W27170  41.475  10.302   5.212
54746W        W27171  20.570  33.619   2.245
54747W        W27172   7.804  34.041   0.960
54748W        W27173  35.852  20.089  12.857
54749W        W27174   2.351   1.258   3.834
54750W        W27175  39.355  43.785  11.475
54751W        W27176  42.462  33.038  12.391
54752W        W27177  30.945  41.802   2.840
54753W        W27178   3.842   2.874  11.911
54754W        W27179  38.330  42.881   5.266
54755W        W27180  42.977   2.382   2.812
54756W        W27181  43.956  42.853   1.900
54757W        W27182   3.347  26.686   1.400
54758W        W27183   1.969  21.086  14.783
54759W        W27184  32.986  37.924   0.790
54760W        W27185  36.517  10.282   3.211
54761W        W27186  23.099  34.560  14.011
54762W        W27187  22.190  17.633  13.874
54763W        W27188   9.796   2.735  13.004
54764W        W27189  14.166  35.465   2.811
54765W        W27190  40.358  21.088   3.639
54766W        W27191  16.290   7.280   1.400
54767W        W27192  41.439   3.727   1.220
54768W        W27193  14.272  30.616   2.792
54769W        W27194  34.026  39.331  13.453
54770W        W27195  39.391   6.793   1.359
54771W        W27196  14.139  33.579   3.385
54772W        W27197  41.468  30.150  13.524
54773W        W27198  24.499   5.348  13.997
54774W        W27199  28.958   3.430   4.728
54775W        W27200  16.181  41.488   2.353
54776W        W27201  10.752  22.191   0.443
54777W        W27202  25.051  18.094   4.183
54778W        W27203   6.914   1.772   1.889
54779W        W27204  19.278  28.456  10.454
54780W        W27205   6.775   6.308   4.728
54781W        W27206  29.143  34.397  10.901
54782W        W27207  21.725  36.449  11.445
54783W        W27208  28.948  18.176  14.275
54784W        W27209   4.446  33.923  10.625
54785W        W27210  41.882  19.156  11.912
54786W        W27211   3.723   5.265   4.197
54787W        W27212  33.440  35.552   3.254
54788W        W27213  38.038   4.205  12.352
54789W        W27214   1.894  38.053   3.793
54790W        W27215  43.477  28.627  11.471
54791W        W27216  16.149  23.040   2.301
54792W        W27217  13.172  29.106  10.924
54793W        W27218  26.696  18.212  13.385
54794W        W27219  32.500   4.291   4.161
54795W        W27220  22.170  37.014  13.984
54796W        W27221  38.496  39.391  10.617
54797W        W27222  33.931  34.943   0.951
54798W        W27223   6.910  12.611   4.721
54799W        W27224  38.857  39.371  14.372
54800W        W27225   4.206  41.428  14.455
54801W        W27226   9.275  33.402  13.444
54802W        W27227  21.675  23.209  10.463
54803W        W27228   9.204  17.556  13.878
54804W        W27229  16.140  14.625  12.989
54805W        W27230  20.137  34.507  12.534
54806W        W27231  28.133  32.064  14.294
54807W        W27232  29.554  27.134   0.295
54808W        W27233  21.643  40.865  10.964
54809W        W27234  14.154  34.504  11.903
54810W        W27235  40.449  40.887   3.226
54811W        W27236  28.097  18.219  14.287
54812W        W27237  29.493  41.901   2.749
54813W        W27238  33.004   2.263  12.527
54814W        W27239  13.653  27.677   3.863
54815W        W27240  15.159   9.655  11.492
54816W        W27241  43.983  34.951  11.081
54817W        W27242  12.637   2.789   2.293
54818W        W27243  30.520  31.068   2.235
54819W        W27244   4.284  29.159   2.770
54820W        W27245  44.871  19.223  14.977
54821W        W27246  29.591  21.177   0.338
54822W        W27247   1.248   6.743  14.477
54823W        W27248  15.802  37.869   4.168
54824W        W27249  40.371   3.939  14.484
54825W        W27250  43.972   1.359  10.899
54826W        W27251  31.514  42.922  12.535
54827W        W27252  19.590  44.499  13.539
54828W        W27253  28.125  29.500   4.217
54829W        W27254  42.930  13.192   3.824
54830W        W27255  11.638  18.293   4.225
54831W        W27256   0.491   9.752   0.861
54832W        W27257  13.285  15.287  10.482
54833W        W27258   1.430  26.613  12.553
54834W        W27259  15.672  19.588   2.317
54835W        W27260   3.951  28.036  14.448
54836W        W27261  16.647  28.555  12.371
54837W        W27262  37.929   4.843   1.876
54838W        W27263  29.136  10.378   1.401
54839W        W27264  16.314  19.677   0.842
54840W        W27265   5.322  38.010   3.323
54841W        W27266  14.293   4.212  10.906
54842W        W27267  43.805  34.409  10.539
54843W        W27268   5.255  43.926   0.387
54844W        W27269  44.271  15.161  13.355
54845W        W27270  44.883  39.869  12.851
54846W        W27271  27.514  34.976   0.797
54847W        W27272  12.354   1.785   0.466
54848W        W27273  29.033  20.545  14.483
54849W        W27274  26.166   3.288  11.983
54850W        W27275  43.361  39.495   2.670
54851W        W27276   0.890   4.734   3.697
54852W        W27277   2.899  15.265   3.179
54853W        W27278   1.863   8.655   0.349
54854W        W27279  31.076  20.591   1.770
54855W        W27280  12.805   0.798  14.892
54856W        W27281  12.250  20.675   3.156
54857W        W27282  41.402  24.174   0.850
54858W        W27283  17.627   9.282   1.430
54859W        W27284  31.407  11.831  12.559
54860W        W27285  12.841  32.981   3.150
54861W        W27286   2.760   5.925   0.915
54862W        W27287  28.463   0.827   0.822
54863W        W27288  26.057  21.177   2.730
54864W        W27289  20.591   9.851   9.513
54865W        W27290  19.041  42.511   3.829
54866W        W27291  38.490  36.931   0.890
54867W        W27292  14.593  23.641  12.889
54868W        W27293  33.040  41.930   2.667
54869W        W27294  39.468   2.360  14.470
54870W        W27295  25.695  37.014   0.418
54871W        W27296  20.762   3.860  10.642
54872W        W27297  43.018  34.076  12.941
54873W        W27298   6.801  16.263  14.458
54874W        W27299   1.837  41.440   4.770
54875W        W27300   6.183  41.357  11.929
54876W        W27301  36.356  22.044  12.008
54877W        W27302  11.127  28.580   0.452
54878W        W27303  44.774   4.937  13.860
54879W        W27304  22.549  40.439   4.800
54880W        W27305   2.938  30.039  10.418
54881W        W27306  43.888  13.245   4.179
54882W        W27307  18.646  22.627   5.286
54883W        W27308  39.545  40.053   3.647
54884W        W27309  10.783  21.194  10.537
54885W        W27310  41.317  37.412  14.989
54886W        W27311  20.075  36.979   1.911
54887W        W27312  36.468  42.961  12.437
54888W        W27313  37.932  21.202   2.184
54889W        W27314  39.325  27.617  12.420
54890W        W27315  31.516  25.134   0.727
54891W        W27316   0.977   1.373  10.461
54892W        W27317  13.784  26.515   3.755
54893W        W27318  14.796  35.909   0.876
54894W        W27319  44.358  28.026  12.494
54895W        W27320  36.061  35.914   0.292
54896W        W27321  25.523  18.245  13.430
54897W        W27322   9.315  36.999   3.850
54898W        W27323  15.623  44.333   1.398
54899W        W27324   0.887  10.850  12.529
54900W        W27325   6.403  42.484   2.179
54901W        W27326  37.504  12.682  14.761
54902W        W27327  27.512  10.266   5.177
54903W        W27328  21.222  30.051  13.934
54904W        W27329  32.009   3.222   2.841
54905W        W27330  33.493  38.014  12.961
54906W        W27331  10.314   3.381   3.225
54907W        W27332   8.773   8.694  13.542
54908W        W27333  43.902   0.950  14.310
54909W        W27334  29.161  33.912   3.641
54910W        W27335  29.541  17.061  10.002
54911W        W27336   8.897  19.188   2.872
54912W        W27337   3.938  39.351   1.905
54913W        W27338   1.831  36.046   1.830
54914W        W27339  25.606  44.284   0.959
54915W        W27340  31.079  20.648  14.373
54916W        W27341  20.064  26.019  12.357
54917W        W27342   4.704  19.178  10.992
54918W        W27343  24.715  37.498   3.238
54919W        W27344  12.266  43.293   1.715
54920W        W27345  27.048  17.194   3.710
54921W        W27346  10.174   8.792  14.381
54922W        W27347  44.411   7.396  10.537
54923W        W27348  38.396  13.665   0.916
54924W        W27349  15.328  13.347   0.943
54925W        W27350  42.461  13.281   2.195
54926W        W27351  32.602  17.164  13.382
54927W        W27352  17.631  20.216   0.370
54928W        W27353   0.274   4.878   2.361
54929W        W27354  38.411  10.743   0.273
54930W        W27355  41.338  10.186   2.267
54931W        W27356  23.520   8.666   4.167
54932W        W27357  15.326  17.070   3.338
54933W        W27358  42.405   1.297  13.492
54934W        W27359  37.925  39.015  12.840
54935W        W27360   2.354  25.553  13.855
54936W        W27361  24.631  21.751  13.954
54937W        W27362   0.481  24.985   4.180
54938W        W27363  19.578  13.670   3.631
54939W        W27364  24.185   0.301   1.759
54940W        W27365  22.137  43.315   3.711
54941W        W27366  26.042  21.686   3.740
54942W        W27367  40.957  36.372  14.464
54943W        W27368   2.425  11.831   4.264
54944W        W27369  41.369  38.478  11.926
54945W        W27370   1.247  35.557  11.009
54946W        W27371  38.833   8.899   5.105
54947W        W27372   1.918   2.383  10.547
54948W        W27373  37.043   0.777  11.953
54949W        W27374  44.758  41.423   1.342
54950W        W27375  17.174  41.504   3.660
54951W        W27376  15.756  25.575   2.396
54952W        W27377   0.782  19.089   2.207
54953W        W27378  15.725  31.406   1.858
54954W        W27379  18.257  26.504  11.401
54955W        W27380  19.770  10.755   3.212
54956W        W27381  20.751  16.073   2.879
54957W        W27382  39.011   7.289  13.378
54958W        W27383  44.005  40.886  12.525
54959W        W27384   1.331  29.124  14.770
54960W        W27385   4.921  32.039   0.351
54961W        W27386  23.060  42.836  14.326
54962W        W27387  22.742  26.686  12.072
54963W        W27388  25.031  10.782   0.441
54964W        W27389   7.290  18.270   4.684
54965W        W27390  22.504   5.324   3.736
54966W        W27391  17.184  27.580  14.830
54967W        W27392   9.169  14.601   4.282
54968W        W27393  12.127   9.748   1.723
54969W        W27394  27.125  29.069   1.230
54970W        W27395  31.979   0.308   3.203
54971W        W27396  36.866  10.228  11.071
54972W        W27397   6.798  36.994  14.850
54973W        W27398  30.597  35.003   2.708
54974W        W27399   5.832  21.689  13.976
54975W        W27400  41.355   8.778  11.995
54976W        W27401   7.316  29.930   3.160
54977W        W27402  26.148  30.463  12.843
54978W        W27403   9.177  10.683   1.739
54979W        W27404  18.621  27.555  14.356
54980W        W27405  18.651  11.740   5.218
54981W        W27406  37.387  18.688  14.978
54982W        W27407   6.379  33.545   5.310
54983W        W27408  31.594  44.490  11.877
54984W        W27409  41.416  22.111   2.889
54985W        W27410  15.745  37.061  11.999
54986W        W27411  37.014   8.257   0.247
54987W        W27412  18.196   6.378  11.872
54988W        W27413   8.797  28.660  14.990
54989W        W27414  40.985   9.182   0.835
54990W        W27415   9.384  27.657  11.526
54991W        W27416  43.805  31.972   3.769
54992W        W27417  33.028  23.719   3.777
54993W        W27418  33.023   5.722   2.890
54994W        W27419  35.868  21.748   3.335
54995W        W27420  22.020  22.715   2.670
54996W        W27421  26.613  31.582  11.504
54997W        W27422  27.493  32.495  12.537
54998W        W27423  18.790   8.284  11.420
54999W        W27424  36.476  25.685  13.048
55000W        W27425  25.645   5.914   4.769
55001W        W27426  44.779   4.754   2.188
55002W        W27427  10.730  16.299  10.528
55003W        W27428  38.407  17.090  14.789
55004W        W27429  10.353  16.737   1.723
55005W        W27430  11.780  39.023   2.893
55006W        W27431  10.186  15.131   0.786
55007W        W27432  21.732  40.821   3.648
55008W        W27433  16.301  15.206   0.860
55009W        W27434  33.109  27.506   1.369
55010W        W27435   2.303   4.403  12.900
55011W        W27436  31.982   8.747   0.936
55012W        W27437  36.946  41.909   3.866
55013W        W27438  11.697  43.470   0.804
55014W        W27439  31.051  25.209   3.253
55015W        W27440  40.898  42.388  14.773
55016W        W27441  14.174  21.164  10.484
55017W        W27442  40.479  22.246   4.747
55018W        W27443  13.276   9.754   0.425
55019W        W27444  26.111  37.877  14.994
55020W        W27445  40.941  19.584   0.846
55021W        W27446   5.767  22.159  10.547
55022W        W27447  18.066  29.460   2.832
55023W        W27448  30.426  40.375  12.078
55024W        W27449  14.118  37.980   0.896
55025W        W27450   4.341  21.514  14.784
55026W        W27451  34.041   1.735   1.270
55027W        W27452  26.460   2.892   3.298
55028W        W27453  32.416  33.092   4.668
55029W        W27454  30.087  42.006   2.386
55030W        W27455  16.310  15.748  12.021
55031W        W27456  23.649  16.174   0.840
55032W        W27457  44.381  26.064  11.889
55033W        W27458  37.874  39.991  14.325
55034W        W27459  14.231  20.685  13.494
55035W        W27460  28.150  12.252   3.831
55036W        W27461  33.383  19.764   1.804
55037W        W27462   6.361  44.980  12.450
55038W        W27463  30.135  36.038   2.888
55039W        W27464  25.061  43.389  13.546
55040W        W27465   4.765  40.976  13.883
55041W        W27466  14.186  28.590   3.269
55042W        W27467   5.917  22.169   2.340
55043W        W27468  14.699  22.720   0.944
55044W        W27469  12.189  20.735  14.491
55045W        W27470  25.208  22.617  13.406
55046W        W27471  15.813  19.632   0.745
55047W        W27472  43.383  39.913   0.273
55048W        W27473  20.202  27.661  11.944
55049W        W27474  37.430  23.045   2.341
55050W        W27475   3.790  10.830  11.504
55051W        W27476  30.572  26.090  10.569
55052W        W27477  15.619  18.277   0.361
55053W        W27478  27.692  13.177  13.006
55054W        W27479  29.961   0.849   0.949
55055W        W27480   5.339   3.856   0.924
55056W        W27481   1.252  41.531   0.739
55057W        W27482   9.383  39.500  11.937
55058W        W27483  15.766   4.858   5.097
55059W        W27484   1.444   7.324   0.837
55060W        W27485   1.889  42.335  13.829
55061W        W27486  31.618   0.981   2.395
55062W        W27487  37.485  17.193  13.512
55063W        W27488  14.651  34.107   2.805
55064W        W27489  16.111  35.541  14.832
55065W        W27490  35.548   8.826  11.415
55066W        W27491  27.590  17.240   3.226
55067W        W27492   8.347  43.910   1.269
55068W        W27493  37.927  44.319   9.943
55069W        W27494  21.726  37.847   4.221
55070W        W27495  38.950  12.786  11.105
55071W        W27496   9.787  40.941   1.832
55072W        W27497  43.391  29.039  11.951
55073W        W27498  21.743  15.147   4.621
55074W        W27499   4.871  25.049   2.732
55075W        W27500  28.593  31.484   1.224
55076W        W27501  28.645  10.242  13.029
55077W        W27502  42.434  26.045   0.266
55078W        W27503  17.712   1.885  10.548
55079W        W27504  21.223   1.388  10.927
55080W        W27505  30.145  31.127  11.903
55081W        W27506  24.480   0.251   0.246
55082W        W27507   9.735  25.198   3.771
55083W        W27508   7.728  32.498  14.959
55084W        W27509  35.379  26.124   4.669
55085W        W27510  36.587  20.669  14.950
55086W        W27511  26.080  44.483   4.616
55087W        W27512  40.448   1.797   0.269
55088W        W27513  21.133   3.248   2.757
55089W        W27514  23.040  10.194   0.766
55090W        W27515  20.608  36.431   0.777
55091W        W27516  15.254  18.582   0.742
55092W        W27517  41.939  32.938   2.188
55093W        W27518   1.295  39.061   1.778
55094W        W27519   3.374   9.815  14.842
55095W        W27520  16.671  24.589   0.733
55096W        W27521  24.132  38.343   0.404
55097W        W27522  39.363  30.934  12.024
55098W        W27523  27.115  39.958  14.833
55099W        W27524  34.460  40.042  11.914
55100W        W27525  37.486   4.251  11.532
55101W        W27526   0.952   8.269   2.780
55102W        W27527  41.948  40.352  13.518
55103W        W27528  26.987  17.222  12.938
55104W        W27529  44.889  44.971  12.399
55105W        W27530   5.264  18.156  10.445
55106W        W27531  41.910   5.776   2.668
55107W        W27532   8.746  37.499   4.730
55108W        W27533  32.027  41.982   1.916
55109W        W27534   0.866  23.127   4.347
55110W        W27535  13.261   8.405  13.999
55111W        W27536  13.665  12.728   0.784
55112W        W27537  34.886  14.309  12.950
55113W        W27538  11.738  20.245   3.643
55114W        W27539  20.115   6.265   0.778
55115W        W27540  19.270   2.962  10.416
55116W        W27541  32.961  25.120  10.951
55117W        W27542   5.381  13.633   1.775
55118W        W27543  37.404  17.262  12.094
55119W        W27544  19.224  21.589  14.788
55120W        W27545  39.425   1.382   2.334
55121W        W27546  38.857  19.577  11.500
55122W        W27547  28.026  31.536   0.425
55123W        W27548  29.648   8.240   4.685
55124W        W27549  13.643  12.800   3.323
55125W        W27550  17.802  32.034  10.051
55126W        W27551  24.701  21.178  10.578
55127W        W27552  25.117  11.732   0.871
55128W        W27553  38.526  15.254   0.266
55129W        W27554  10.276  29.446  13.860
55130W        W27555  27.995   9.769  10.512
55131W        W27556   0.908  17.296   2.342
55132W        W27557  24.714  35.461  13.037
55133W        W27558  25.571  32.907  13.496
55134W        W27559  29.509  32.546  10.554
55135W        W27560  43.356  27.185   2.312
55136W        W27561  17.299  28.069   5.184
55137W        W27562   2.777  36.378   2.296
55138W        W27563  37.941  43.508   0.779
55139W        W27564  14.650  42.281  12.084
55140W        W27565   7.740  29.498   0.332
55141W        W27566  15.193  19.180  14.764
55142W        W27567   5.201  33.048   4.326
55143W        W27568  10.173  30.647   3.208
55144W        W27569  25.713  17.590   0.278
55145W        W27570   4.723   6.354   2.243
55146W        W27571  25.627   1.384   3.227
55147W        W27572  10.159  41.972   3.686
55148W        W27573  10.252  37.498  10.918
55149W        W27574   2.366  31.007  11.373
55150W        W27575  44.888  27.651  12.854
55151W        W27576  40.977  20.740   3.260
55152W        W27577  12.193  35.035  13.944
55153W        W27578  39.514  26.132  11.577
55154W        W27579  22.068   7.683   2.833
55155W        W27580  39.947  42.514   2.693
55156W        W27581  22.214   9.723   4.252
55157W        W27582  38.491  35.060  13.878
55158W        W27583  32.597  18.724  13.500
55159W        W27584   6.378  31.112  13.376
55160W        W27585  42.366  38.964  13.848
55161W        W27586   6.686  19.598  10.926
55162W        W27587  41.410  32.904  12.394
55163W        W27588  29.657  30.145   3.368
55164W        W27589  44.968  32.073  11.924
55165W        W27590  17.573  17.231  12.828
55166W        W27591  39.531  34.563   3.309
55167W        W27592  30.039  16.778   0.346
55168W        W27593  33.930  25.677   2.716
55169W        W27594   0.262  25.548  12.452
55170W        W27595  35.892  21.712  12.418
55171W        W27596  27.044  41.993   0.462
55172W        W27597  11.303  32.452  11.608
55173W        W27598   0.744  26.966  13.443
55174W        W27599  39.552  25.538   0.428
55175W        W27600   8.314   6.221  13.373
55176W        W27601   1.468  10.656   3.247
55177W        W27602   2.869  27.667   1.860
55178W        W27603   5.808  17.160  11.521
55179W        W27604  15.214   1.445  13.341
55180W        W27605   6.248  29.993   3.163
55181W        W27606  21.047   7.370  11.001
55182W        W27607   8.837   3.247   1.353
55183W        W27608  42.008   5.906   0.278
55184W        W27609  36.872   9.287  13.536
55185W        W27610   8.309   6.711  12.376
55186W        W27611  28.070   6.210  11.119
55187W        W27612  22.248  43.993  10.948
55188W        W27613  42.918  32.554  10.134
55189W        W27614   5.433  42.776   4.146
55190W        W27615  27.115  17.102  13.820
55191W        W27616  31.613  14.659  14.781
55192W        W27617  41.810  20.265  10.447
55193W        W27618  19.712   9.856   3.854
55194W        W27619  38.345  24.651   4.157
55195W        W27620  20.579  16.182   1.852
55196W        W27621  44.272  30.643  10.097
55197W        W27622   5.748  25.118   0.885
55198W        W27623  28.488  17.736  12.462
55199W        W27624  39.048  39.856   2.896
55200W        W27625  32.069  26.081  11.107
55201W        W27626  22.561  40.468   2.214
55202W        W27627   6.734  40.040  11.093
55203W        W27628  39.810  42.289  10.521
55204W        W27629  40.546   6.916  14.940
55205W        W27630   7.396  32.045   3.322
55206W        W27631  35.971  18.779   3.276
55207W        W27632   3.303  16.703  12.985
55208W        W27633  12.122   9.821   0.870
55209W        W27634   4.736   3.734   3.147
55210W        W27635  36.998  36.949   1.331
55211W        W27636  16.138  27.032   0.954
55212W        W27637  36.976  22.057  11.933
55213W        W27638  38.976  40.945   3.695
55214W        W27639  25.966   8.681   2.825
55215W        W27640  19.105  43.273  11.414
55216W        W27641   3.308  35.007  13.538
55217W        W27642  33.018  13.111   4.240
55218W        W27643  15.237  16.107   0.804
55219W        W27644  20.178  23.594  12.401
55220W        W27645  15.266   3.396   3.696
55221W        W27646  19.068  13.779  14.340
55222W        W27647  28.461  18.768   2.204
55223W        W27648  36.526  29.038   3.735
55224W        W27649   2.778  34.893   0.381
55225W        W27650  34.080  31.563  14.342
55226W        W27651  12.721  37.845  14.778
55227W        W27652  37.882   9.241  13.020
55228W        W27653   6.426  33.088   3.310
55229W        W27654  23.492  31.055  13.353
55230W        W27655  11.287  37.499  10.956
55231W        W27656  29.642   5.299  13.459
55232W        W27657  22.066  20.543   4.658
55233W        W27658  10.308   2.322   4.305
55234W        W27659  20.531  12.360  14.900
55235W        W27660  10.782  33.934   3.174
55236W        W27661  17.622   5.785  10.573
55237W        W27662  16.120  30.075   4.210
55238W        W27663   7.195  20.118  11.965
55239W        W27664  21.176  38.524   3.225
55240W        W27665  22.665   5.753   1.856
55241W        W27666   6.384  33.103  14.806
55242W        W27667  15.714  39.383   4.325
55243W        W27668  35.956  40.310   0.263
55244W        W27669  21.049  17.108   4.605
55245W        W27670  16.596  41.919  14.901
55246W        W27671  30.432  12.354  13.376
55247W        W27672  18.076  18.104   0.843
55248W        W27673  17.680  41.434   1.777
55249W        W27674  38.041  20.552  13.893
55250W        W27675  24.095   9.309   0.476
55251W        W27676  15.628  15.626   4.701
55252W        W27677  40.979  21.739  10.635
55253W        W27678   7.670  36.002  14.310
55254W        W27679   5.235  31.507   2.725
55255W        W27680   7.738   5.788  10.549
55256W        W27681  30.923  12.808  12.419
55257W        W27682  22.998   4.213  11.442
55258W        W27683   3.729   4.868   0.916
55259W        W27684  39.969  38.977  13.377
55260W        W27685  43.842  38.838   2.311
55261W        W27686   9.859  24.716   1.445
55262W        W27687  35.072  28.549   3.365
55263W        W27688  32.002  40.890  13.879
55264W        W27689  18.725  30.425   1.391
55265W        W27690  29.062  20.530   9.961
55266W        W27691  42.527  28.471   0.871
55267W        W27692   4.769  24.592   2.855
55268W        W27693  32.990  44.830  11.971
55269W        W27694   0.436  17.169   4.683
55270W        W27695  32.412  30.469  11.114
55271W        W27696  40.453  36.534  11.875
55272W        W27697  31.128   1.797   0.868
55273W        W27698  12.256  23.027  12.824
55274W        W27699   2.364  18.065   1.244
55275W        W27700  25.125  14.312  14.950
55276W        W27701  33.591  18.184  12.827
55277W        W27702  41.416  44.293   2.287
55278W        W27703   6.236   1.472  11.450
55279W        W27704  41.892  15.219  11.405
55280W        W27705  41.825   7.825   5.128
55281W        W27706  16.078  24.100   4.316
55282W        W27707  23.210  26.510   0.937
55283W        W27708  42.298  26.996   1.427
55284W        W27709   5.822  22.659  12.891
55285W        W27710   9.220   7.874  14.384
55286W        W27711  13.258  15.771  11.049
55287W        W27712   2.256  26.576   5.251
55288W        W27713  39.873  43.427  13.344
55289W        W27714  44.764   4.775   0.325
55290W        W27715   4.784  19.075  12.041
55291W        W27716  35.441  18.148  14.986
55292W        W27717  28.554   1.298   4.245
55293W        W27718  10.226  37.409  10.075
55294W        W27719  41.845   2.387   3.866
55295W        W27720   8.700  31.957   0.910
55296W        W27721  28.468   5.225   2.292
55297W        W27722  42.779  37.452  13.533
55298W        W27723  43.953  21.660  12.480
55299W        W27724  25.048  26.133  14.836
55300W        W27725   2.891   4.419   2.820
55301W        W27726   3.730  39.029   1.833
55302W        W27727  34.484   4.258  12.420
55303W        W27728   2.875  34.109  11.910
55304W        W27729  34.510   1.323   0.933
55305W        W27730   8.311  24.127  12.373
55306W        W27731  41.313  44.269  13.537
55307W        W27732  14.697  13.667  11.520
55308W        W27733   6.315  27.944   3.180
55309W        W27734   6.339  16.217   4.207
55310W        W27735  15.311  14.228  14.335
55311W        W27736  16.267  31.095   4.147
55312W        W27737   8.347  38.458   3.866
55313W        W27738  23.503  17.304   1.809
55314W        W27739  17.773  38.887   4.133
55315W        W27740  34.401  21.604  12.916
55316W        W27741  21.573  21.529  12.825
55317W        W27742  43.316  38.057   1.262
55318W        W27743  11.158   6.801  14.374
55319W        W27744  20.596  41.357  14.808
55320W        W27745  11.735   7.353  12.528
55321W        W27746   6.235   6.730   3.719
55322W        W27747  29.923  11.811  13.488
55323W        W27748   3.949  15.695   3.150
55324W        W27749  18.289   7.892  12.007
55325W        W27750  28.950  41.984   3.726
55326W        W27751  17.720  40.045  13.427
55327W        W27752  13.685  11.624  11.487
55328W        W27753  15.127  43.271  11.579
55329W        W27754  33.540  38.979   3.337
55330W        W27755  26.507  30.565  10.644
55331W        W27756  10.347  11.280   3.789
55332W        W27757  31.632  40.820   4.209
55333W        W27758   0.976  10.212   4.351
55334W        W27759  23.598  37.358   4.311
55335W        W27760  28.173  32.421   4.742
55336W        W27761   3.711  44.838   1.361
55337W        W27762  15.223   8.194   0.459
55338W        W27763  11.732  25.558  13.812
55339W        W27764  25.624  10.324  12.996
55340W        W27765  22.744  36.457  11.866
55341W        W27766  35.467  37.037  13.459
55342W        W27767  35.979  33.967   3.789
55343W        W27768  29.430  40.004  14.838
55344W        W27769   7.401  13.127  10.434
55345W        W27770  38.471  15.822  10.065
55346W        W27771  42.505   7.780  12.504
55347W        W27772  26.576  22.122   3.224
55348W        W27773  43.004  24.562  12.002
55349W        W27774  25.699  20.143   1.864
55350W        W27775   5.748   0.355  11.403
55351W        W27776  44.859  23.227  14.768
55352W        W27777  24.504  32.400  11.458
55353W        W27778  11.797  38.051   0.792
55354W        W27779  15.141  37.497  11.884
55355W        W27780  34.868   0.792   1.772
55356W        W27781  41.476  32.024   2.209
55357W        W27782  31.001  25.704  10.505
55358W        W27783   3.747  12.845   1.237
55359W        W27784  17.244  31.640   3.254
55360W        W27785  42.982  35.852  10.505
55361W        W27786   4.286  19.707   4.239
55362W        W27787   1.943  37.548  11.572
55363W        W27788  44.009  14.601  13.896
55364W        W27789   9.328   9.757   3.696
55365W        W27790  40.544  35.082  14.275
55366W        W27791  39.445   2.727   0.253
55367W        W27792  39.403  18.290  11.376
55368W        W27793  35.513   1.900  14.832
55369W        W27794  19.716  26.695   0.936
55370W        W27795  22.540  15.142  13.925
55371W        W27796  43.516  28.515   3.309
55372W        W27797   1.945   6.303  11.860
55373W        W27798  29.589  18.075   3.182
55374W        W27799  13.303  10.149   0.777
55375W        W27800  38.352   5.703  13.379
55376W        W27801  40.352  10.827   4.756
55377W        W27802  34.484  15.625   4.805
55378W        W27803  33.105  29.534   3.737
55379W        W27804  22.028  37.860   1.249
55380W        W27805  10.811   6.373  11.091
55381W        W27806   9.689   7.755   4.267
55382W        W27807  21.083  42.402  13.541
55383W        W27808  32.612  26.200   1.360
55384W        W27809  35.012  14.109   3.323
55385W        W27810  26.206  12.665   2.859
55386W        W27811  34.089  42.474  14.347
55387W        W27812  31.474  23.054   9.547
55388W        W27813  33.086  31.532  12.005
55389W        W27814  18.180  39.988  12.422
55390W        W27815  28.668  35.974   0.879
55391W        W27816  12.116  15.749   4.757
55392W        W27817  13.708  41.482   1.378
55393W        W27818  18.075   6.780   0.740
55394W        W27819   0.959  36.011  11.128
55395W        W27820  43.771  39.998  13.900
55396W        W27821  31.637  16.216   2.758
55397W        W27822   3.254   1.377  11.871
55398W        W27823   2.356  10.710  13.948
55399W        W27824  24.135  36.907  12.035
55400W        W27825  11.162  12.801  14.898
55401W        W27826   5.700  24.160  10.986
55402W        W27827  37.037  28.032  14.413
55403W        W27828  35.950  29.554  12.880
55404W        W27829  13.172   9.321   2.885
55405W        W27830  43.816   6.811   1.774
55406W        W27831  22.214   9.170  13.030
55407W        W27832  14.719  18.172   2.360
55408W        W27833  14.616  24.499   4.705
55409W        W27834  41.950  13.760   0.311
55410W        W27835  23.094  43.858  10.637
55411W        W27836  43.327  10.781  12.028
55412W        W27837  16.096  21.091   0.369
55413W        W27838  23.725  23.658   1.771
55414W        W27839   7.379   6.769   2.687
55415W        W27840   8.736  14.698   1.751
55416W        W27841  43.387  15.100   4.281
55417W        W27842  24.205   1.920  11.949
55418W        W27843   5.405  22.510  13.885
55419W        W27844   8.277  29.946  13.037
55420W        W27845   2.453  36.359   1.914
55421W        W27846   3.746   8.247  11.372
55422W        W27847  35.563  36.537   4.153
55423W        W27848  29.031  23.235   4.322
55424W        W27849  15.223  26.674  14.814
55425W        W27850   1.898   2.239   2.689
55426W        W27851  28.465  34.381   4.783
55427W        W27852  41.803   2.818   0.878
55428W        W27853  17.787   1.925   3.272
55429W        W27854  36.085  41.475   4.619
55430W        W27855  12.281  24.004   1.802
55431W        W27856  22.555   1.336  14.439
55432W        W27857  22.062  31.628   0.388
55433W        W27858   3.278   2.789  12.506
55434W        W27859  36.904  22.567  14.804
55435W        W27860  20.141  15.264   2.783
55436W        W27861  37.360   2.406   2.803
55437W        W27862  26.463  26.069   2.252
55438W        W27863   7.827  16.314  12.889
55439W        W27864  19.270   1.386   2.841
55440W        W27865  43.866  27.514   3.740
55441W        W27866  25.708  32.102  12.501
55442W        W27867   6.291  15.614  11.610
55443W        W27868   6.256   0.852  13.456
55444W        W27869   9.807   8.752   4.597
55445W        W27870  40.482  39.474  11.603
55446W        W27871  39.049  26.208   1.388
55447W        W27872  34.082   7.365  11.978
55448W        W27873  36.005  40.529  12.082
55449W        W27874  10.351  30.431  11.430
55450W        W27875  39.508   1.922   3.373
55451W        W27876  40.420  12.159   0.248
55452W        W27877  41.798  30.611  11.093
55453W        W27878  42.997  13.735  10.415
55454W        W27879   6.887  15.247   1.378
55455W        W27880  26.027  43.479   2.888
55456W        W27881  15.645  41.918  12.933
55457W        W27882  25.536  39.878   9.991
55458W        W27883  38.918  34.985   4.636
55459W        W27884  29.575  37.888   3.162
55460W        W27885  35.481  29.547   0.841
55461W        W27886   5.761  30.433   0.732
55462W        W27887  22.065  42.467  10.618
55463W        W27888  26.467  31.489   4.178
55464W        W27889  35.098   6.231  11.902
55465W        W27890  39.991  25.668   0.264
55466W        W27891   2.955  10.852  12.863
55467W        W27892  20.634   1.760   0.290
55468W        W27893  39.007   2.866  11.572
55469W        W27894  15.105  11.127   0.831
55470W        W27895  27.580   5.736   1.345
55471W        W27896  23.687   3.776  13.910
55472W        W27897  23.987   7.346  11.421
55473W        W27898  30.073  28.166  14.888
55474W        W27899   6.882  28.571   0.832
55475W        W27900  18.656  37.501  13.936
55476W        W27901  17.643  12.701   2.356
55477W        W27902  11.129  27.134  14.891
55478W        W27903   6.191   9.347   2.897
55479W        W27904  15.213  32.546  11.961
55480W        W27905  12.243  41.533   0.886
55481W        W27906   0.768  38.434  10.613
55482W        W27907  44.410  16.123  14.965
55483W        W27908   9.794  42.834  12.421
55484W        W27909  10.362  30.591   0.896
55485W        W27910  29.663  40.343   2.720
55486W        W27911  12.723  36.966   0.727
55487W        W27912  13.629  25.654  11.944
55488W        W27913   2.721  31.111   1.848
55489W        W27914   2.359  35.925  12.963
55490W        W27915   5.824   4.250  12.015
55491W        W27916   9.712  26.056   4.207
55492W        W27917  34.927  33.965   3.716
55493W        W27918  27.675   0.430   3.366
55494W        W27919  27.468   4.356  11.125
55495W        W27920  24.543  39.937  12.352
55496W        W27921  24.997  41.007  14.876
55497W        W27922  40.346  34.475   3.633
55498W        W27923  24.230  43.444   1.741
55499W        W27924  35.513   7.898   4.185
55500W        W27925   1.735   9.815   2.681
55501W        W27926  24.710  44.452   3.838
55502W        W27927   5.761  10.878  13.946
55503W        W27928  22.737  33.007   1.269
55504W        W27929  19.181   3.388   0.831
55505W        W27930   2.856   6.286   4.149
55506W        W27931  23.206  16.728   3.263
55507W        W27932  25.027   9.706  14.985
55508W        W27933  42.339  22.675   2.882
55509W        W27934  14.129  44.942   3.350
55510W        W27935  13.788  16.100  13.059
55511W        W27936  29.507   0.347   0.402
55512W        W27937  12.701   1.733  11.568
55513W        W27938   5.793   4.863   0.828
55514W        W27939  18.552   0.469   2.222
55515W        W27940  38.032  40.379  13.881
55516W        W27941  31.033  13.297  13.029
55517W        W27942  33.463  20.033  10.630
55518W        W27943   1.328  33.418  13.057
55519W        W27944  39.900   9.160  10.432
55520W        W27945  38.943  14.761   4.261
55521W        W27946  34.425  29.584   0.950
55522W        W27947   9.260  34.521  11.883
55523W        W27948  42.309  17.774   0.794
55524W        W27949   6.215  17.672  14.450
55525W        W27950  13.613  18.200   2.331
55526W        W27951  34.091  30.650   1.846
55527W        W27952   0.292  10.790   1.368
55528W        W27953  11.173  41.975  12.517
55529W        W27954  11.673  32.626  14.336
55530W        W27955  19.257  40.393  12.475
55531W        W27956   1.332  18.731   4.738
55532W        W27957  32.604  27.484  11.857
55533W        W27958  14.106   2.964  13.993
55534W        W27959  15.695  19.229   3.231
55535W        W27960  20.201  17.557  12.827
55536W        W27961   3.230  35.002  13.843
55537W        W27962  22.707  19.661  11.461
55538W        W27963  42.031   8.837  13.816
55539W        W27964  28.949  35.456  12.959
55540W        W27965   5.918  32.492  12.903
55541W        W27966  25.113  42.886   4.280
55542W        W27967   8.371  18.579  13.516
55543W        W27968  42.915   2.356  12.534
55544W        W27969  34.551  12.237   3.693
55545W        W27970  30.085  20.099  14.013
55546W        W27971  32.510   7.895   4.154
55547W        W27972  16.658  18.710  11.113
55548W        W27973  17.150  15.730   5.300
55549W        W27974  43.829  35.495  11.562
55550W        W27975  16.084  11.309   3.746
55551W        W27976  27.102  22.206   0.759
55552W        W27977  36.085  19.258   0.965
55553W        W27978   2.335  20.714  10.926
55554W        W27979   8.277  18.238  10.644
55555W        W27980  32.011  10.661  14.474
55556W        W27981  35.547  43.293  12.988
55557W        W27982   7.296  44.875   2.838
55558W        W27983   8.814  20.686   3.336
55559W        W27984  17.285  11.319  10.065
55560W        W27985   6.728  11.321   4.330
55561W        W27986  28.160   6.746   2.400
55562W        W27987  35.894  14.217   0.920
55563W        W27988   4.381  40.408   4.682
55564W        W27989  30.086  25.594   3.716
55565W        W27990   2.433   8.293   4.799
55566W        W27991  26.492  24.603   1.243
55567W        W27992  40.893  32.533  11.886
55568W        W27993  33.998  26.019  11.513
55569W        W27994  12.646  22.210   5.673
55570W        W27995  17.262   8.740   2.406
55571W        W27996   7.238  31.041  14.423
55572W        W27997   1.462  42.373  13.975
55573W        W27998  38.357  34.091   4.315
55574W        W27999  21.159  16.782  11.480
55575W        W28000  32.940  43.909   0.867
55576W        W28001  11.821  34.008  14.313
55577W        W28002  28.054  14.259   1.882
55578W        W28003  32.102   4.772  12.358
55579W        W28004   8.226  39.546   2.246
55580W        W28005  26.647   6.747   1.824
55581W        W28006   1.796  43.493   2.860
55582W        W28007  20.065  27.476  12.369
55583W        W28008   6.750  31.935   0.335
55584W        W28009  42.298   7.204   0.959
55585W        W28010  12.810  12.812   4.670
55586W        W28011  15.171   0.964  10.574
55587W        W28012   7.729  43.020  14.848
55588W        W28013   8.675  33.622  14.330
55589W        W28014   0.272  23.097   2.789
55590W        W28015   0.786   3.223   1.375
55591W        W28016  16.167  32.021   9.542
55592W        W28017  22.722   0.396   0.881
55593W        W28018  44.289  39.548  10.943
55594W        W28019  43.948  37.900  12.932
55595W        W28020  11.819  11.840  11.530
55596W        W28021  40.371  44.820  10.594
55597W        W28022  37.990  23.203  14.949
55598W        W28023  27.040   8.709  10.602
55599W        W28024   6.213  11.750   0.337
55600W        W28025  11.745   3.365  10.534
55601W        W28026   9.173  41.040   0.392
55602W        W28027   4.938  23.517   4.723
55603W        W28028   0.985   9.150   1.731
55604W        W28029  25.997  23.649  14.890
55605W        W28030  17.179  20.044   3.332
55606W        W28031  12.842   2.342  10.546
55607W        W28032  20.104  42.408  13.951
55608W        W28033  28.007  34.999  11.513
55609W        W28034  20.218  30.514  14.985
55610W        W28035  22.016   4.439  14.815
55611W        W28036  36.397  14.150   2.742
55612W        W28037   1.919   8.885   4.707
55613W        W28038   3.930  32.012  12.875
55614W        W28039  12.824  41.926  14.291
55615W        W28040  29.106  27.020  10.456
55616W        W28041  38.402   1.432   0.358
55617W        W28042  23.561  32.587   3.808
55618W        W28043  16.114   6.894   2.205
55619W        W28044  21.715  43.298  13.800
55620W        W28045  16.634  26.976  12.414
55621W        W28046  14.635  37.338  12.368
55622W        W28047  17.777  28.588  11.956
55623W        W28048  23.033  20.563   4.291
55624W        W28049   2.799  13.335   3.813
55625W        W28050  18.717  39.832  10.618
55626W        W28051   4.832  19.076   2.305
55627W        W28052  38.066  17.794  13.995
55628W        W28053   8.690  21.644  10.476
55629W        W28054  21.590  43.972   1.357
55630W        W28055   2.261   5.829  11.493
55631W        W28056  11.696  12.357   1.396
55632W        W28057  18.596   6.360  12.561
55633W        W28058  27.996   9.810   4.725
55634W        W28059   2.274  35.570   4.221
55635W        W28060  43.390  10.246  13.024
55636W        W28061   2.286  13.297   2.819
55637W        W28062  37.392  23.641  13.999
55638W        W28063  23.642  19.243   3.316
55639W        W28064  41.298  14.653  13.458
55640W        W28065   9.688  30.970   4.165
55641W        W28066  29.651  13.247   5.084
55642W        W28067  43.434  32.127  14.449
55643W        W28068  17.761  40.869   1.847
55644W        W28069  22.188  31.124  11.999
55645W        W28070  30.108  31.586   1.275
55646W        W28071  39.878  10.641   2.295
55647W        W28072   9.844  40.898  13.528
55648W        W28073   6.738  41.463  14.031
55649W        W28074   5.408  17.769  11.504
55650W        W28075  35.532  34.051  11.425
55651W        W28076  43.453  42.908  12.019
55652W        W28077  41.461  30.158  11.497
55653W        W28078   7.781  11.793   4.612
55654W        W28079  23.525   0.440  12.519
55655W        W28080  33.130   6.885   0.366
55656W        W28081  20.523   4.844   0.918
55657W        W28082   1.444  11.188   3.178
55658W        W28083  40.380  17.758   4.159
55659W        W28084  43.888  35.592  14.464
55660W        W28085  26.692  11.363   4.801
55661W        W28086  37.498  23.062  14.997
55662W        W28087  20.042  19.639   4.821
55663W        W28088  41.354  23.527   4.191
55664W        W28089  30.972   9.230   3.378
55665W        W28090  26.175  15.241   4.798
55666W        W28091  10.303  10.160   2.698
55667W        W28092  13.776  22.132  13.425
55668W        W28093   7.784  27.493   0.314
55669W        W28094   3.744  40.842  10.474
55670W        W28095   4.927  34.390  11.063
55671W        W28096  13.839  38.331  10.898
55672W        W28097  43.910  39.403  11.613
55673W        W28098  35.912   3.752  10.406
55674W        W28099   0.807  25.166  11.007
55675W        W28100  22.648  11.148   0.815
55676W        W28101  21.196  26.566   0.260
55677W        W28102  28.665  41.533   2.893
55678W        W28103  14.218  17.675  11.028
55679W        W28104   1.331  14.782   1.441
55680W        W28105  40.376  41.978  12.068
55681W        W28106  16.601  29.565   3.257
55682W        W28107  22.239  18.075   0.330
55683W        W28108  10.654   9.265   3.724
55684W        W28109  37.845  36.474  11.447
55685W        W28110  40.975  42.971   0.460
55686W        W28111  33.582  11.287   4.237
55687W        W28112  25.038  13.796   4.345
55688W        W28113   1.802  44.837  11.068
55689W        W28114  17.793   0.961   1.875
55690W        W28115  28.014  23.609  14.459
55691W        W28116  36.360  10.373  11.372
55692W        W28117  33.954  39.452   0.401
55693W        W28118  17.278   6.344   2.309
55694W        W28119  38.358  39.324   1.848
55695W        W28120  22.126  15.181   1.724
55696W        W28121  18.778  27.545  11.449
55697W        W28122  43.983  37.340  10.501
55698W        W28123  22.087   5.289  11.027
55699W        W28124  42.412  24.086   3.256
55700W        W28125  21.654   8.666  14.853
55701W        W28126  30.587  41.433  10.037
55702W        W28127  13.203  38.430  13.830
55703W        W28128  14.257   9.227  13.844
55704W        W28129  32.094  22.746   4.227
55705W        W28130  21.115  33.582  12.364
55706W        W28131  21.136  27.574   1.379
55707W        W28132  31.906  43.996   1.290
55708W        W28133  29.161  23.511   3.733
55709W        W28134  16.307   9.374  10.513
55710W        W28135  13.164  21.636   2.373
55711W        W28136  13.142  29.444  13.057
55712W        W28137   5.388  31.071  13.819
55713W        W28138  38.056  33.103  13.058
55714W        W28139  20.724  10.692   1.781
55715W        W28140  35.045  18.224   3.321
55716W        W28141  27.942  38.845  14.303
55717W        W28142  31.091   7.272   4.228
55718W        W28143  32.473  32.545   0.403
55719W        W28144  42.980  42.478   4.235
55720W        W28145  28.168   0.884  13.458
55721W        W28146   6.812   8.228   3.806
55722W        W28147  21.216  23.223   4.354
55723W        W28148  23.531   7.697   3.779
55724W        W28149  13.808  19.763   4.764
55725W        W28150  13.292  28.468  11.382
55726W        W28151  44.308  27.656  14.935
55727W        W28152  21.733  16.785  14.032
55728W        W28153  23.996  24.577   2.758
55729W        W28154  37.386  35.037   4.302
55730W        W28155  19.715  18.245   3.636
55731W        W28156  40.364  30.135   1.928
55732W        W28157  24.610   3.320  11.102
55733W        W28158  26.521  35.008   5.255
55734W        W28159  32.459  26.985  10.417
55735W        W28160  12.690  39.975   3.151
55736W        W28161  14.167   7.211  14.449
55737W        W28162  11.756  10.218  14.886
55738W        W28163  27.672  38.830   4.137
55739W        W28164  33.074  38.420   4.625
55740W        W28165  11.189  37.389   5.124
55741W        W28166  13.823   8.772   2.353
55742W        W28167  32.444   2.454  13.040
55743W        W28168  34.032   7.816   0.444
55744W        W28169  21.756   6.772  11.860
55745W        W28170   3.287  10.637   0.747
55746W        W28171  11.185  21.146  10.554
55747W        W28172  33.481  32.561  13.433
55748W        W28173  37.885  30.502  13.876
55749W        W28174   2.762  24.599  13.876
55750W        W28175   6.875  31.073   4.329
55751W        W28176  25.182  43.350   3.321
55752W        W28177   9.371  33.450  13.917
55753W        W28178  41.019  10.300   2.687
55754W        W28179   9.810  30.468   0.815
55755W        W28180  11.771   5.363  11.876
55756W        W28181  18.600  36.036   1.915
55757W        W28182   8.323  38.337   2.270
55758W        W28183  33.091  39.331  12.000
55759W        W28184  36.940  31.568  12.375
55760W        W28185   5.823  25.614  11.484
55761W        W28186  19.714  22.241   2.681
55762W        W28187  43.372  33.060   2.190
55763W        W28188  31.989   8.189   4.249
55764W        W28189  38.036  36.909   1.289
55765W        W28190  16.739  24.151  10.623
55766W        W28191  27.990  27.566  14.354
55767W        W28192  40.419  12.164   3.255
55768W        W28193   0.387  13.715  11.610
55769W        W28194  17.787   7.778   3.826
55770W        W28195  26.175  23.704   2.669
55771W        W28196  23.144   8.816  11.384
55772W        W28197  11.644   5.862   2.346
55773W        W28198   6.259  24.683  14.010
55774W        W28199   0.893  37.032  11.545
55775W        W28200  11.636  36.085   2.707
55776W        W28201  28.110  27.536   0.852
55777W        W28202  22.191  14.292  14.404
55778W        W28203  11.303  32.114  12.347
55779W        W28204  31.091  18.664  12.011
55780W        W28205  37.369  29.433   4.306
55781W        W28206  42.838   5.892   4.196
55782W        W28207  17.626  34.452  13.872
55783W        W28208  44.841  12.166  12.352
55784W        W28209   1.913  34.458  11.967
55785W        W28210  32.495  38.339   3.760
55786W        W28211  25.125  29.164  13.516
55787W        W28212   2.349  35.434   2.413
55788W        W28213  10.836  20.029   0.777
55789W        W28214  10.639  11.203   3.247
55790W        W28215  32.586   1.890  10.456
55791W        W28216  17.134   1.849  12.832
55792W        W28217   4.341  41.436   1.276
55793W        W28218  25.163  24.065   0.380
55794W        W28219  44.319  40.925  11.128
55795W        W28220  39.002  30.554   5.263
55796W        W28221  38.963  29.483  13.860
55797W        W28222  35.482  27.989  12.827
55798W        W28223   8.403  22.520   4.612
55799W        W28224  37.485  36.009   2.210
55800W        W28225  11.846  30.913   1.361
55801W        W28226   1.466  28.550  11.123
55802W        W28227  23.593  30.609  12.032
55803W        W28228  19.681  34.926  10.579
55804W        W28229  40.832  21.570   4.143
55805W        W28230  32.120  17.662   3.198
55806W        W28231  22.539  20.124   4.206
55807W        W28232  34.074  43.946  12.027
55808W        W28233  14.153  30.991  13.049
55809W        W28234  10.381   7.840   2.419
55810W        W28235  18.666  35.498   4.186
55811W        W28236  27.570  34.400  13.926
55812W        W28237  25.134   2.414  13.934
55813W        W28238  27.525  23.656   3.796
55814W        W28239  19.104  26.956  13.897
55815W        W28240  31.975  32.473  14.403
55816W        W28241  31.635  42.404  10.506
55817W        W28242  16.724   1.819  13.320
55818W        W28243   6.282   4.748  13.329
55819W        W28244  29.077  22.073  10.073
55820W        W28245  42.899  38.820  14.936
55821W        W28246  13.691  43.975   3.696
55822W        W28247  40.519  36.545   2.390
55823W        W28248  18.191  26.544  14.840
55824W        W28249   0.986  42.413   3.811
55825W        W28250  36.499  24.691   3.193
55826W        W28251  21.552  26.645   2.854
55827W        W28252  15.797  31.538  14.963
55828W        W28253  44.763  23.172   2.339
55829W        W28254  40.055  41.456  13.920
55830W        W28255  32.068  34.381  14.366
55831W        W28256  33.918  26.672  14.426
55832W        W28257  29.646   3.374  12.010
55833W        W28258  36.559  18.241   0.363
55834W        W28259  13.711  19.616  12.954
55835W        W28260  41.405  39.841   4.290
55836W        W28261  20.085  31.445  13.509
55837W        W28262  34.557  15.241  11.088
55838W        W28263  43.412   6.691  13.401
55839W        W28264  34.942  43.387   1.708
55840W        W28265  23.017  27.483  13.056
55841W        W28266  17.565  28.565   4.311
55842W        W28267   0.835  29.988   1.315
55843W        W28268  27.564   3.462  12.947
55844W        W28269  32.630  23.159  11.408
55845W        W28270  17.675   4.888  14.295
55846W        W28271  37.535  21.664   0.740
55847W        W28272  44.460  43.338  13.472
55848W        W28273  42.435   2.399   0.354
55849W        W28274   9.376  34.107   2.383
55850W        W28275  42.002  21.222  10.488
55851W        W28276  17.775  26.698   3.296
55852W        W28277  37.559  42.322   3.354
55853W        W28278  14.758  34.019   5.643
55854W        W28279   8.266  32.021   5.274
55855W        W28280  37.895  35.516   0.906
55856W        W28281  17.247  16.577   1.230
55857W        W28282  43.298  10.246   4.125
55858W        W28283  36.352  19.702  11.550
55859W        W28284  41.963  18.228  12.373
55860W        W28285  20.248  19.739  11.563
55861W        W28286  32.892  20.522   4.186
55862W        W28287  13.301  12.150  14.889
55863W        W28288  41.960   3.399  14.311
55864W        W28289  40.913  40.000  14.971
55865W        W28290  10.759  27.123  14.395
55866W        W28291  13.282  31.040  14.320
55867W        W28292  25.547   1.788   2.188
55868W        W28293  18.107   2.324   0.766
55869W        W28294  34.920  13.838   0.287
55870W        W28295   6.916  36.431   4.223
55871W        W28296   4.218  29.522  13.494
55872W        W28297  34.049  26.162   3.787
55873W        W28298  31.987  12.243  13.396
55874W        W28299  10.825  36.006   0.876
55875W        W28300  43.960   8.769   2.882
55876W        W28301  29.172   9.841  13.814
55877W        W28302  37.058  18.198  13.391
55878W        W28303  23.638  40.388   3.854
55879W        W28304  24.030  20.180  12.880
55880W        W28305  43.366  34.014  11.918
55881W        W28306  32.545   4.938   2.751
55882W        W28307  27.517  33.451   1.441
55883W        W28308   6.328  12.320  14.914
55884W        W28309  25.669  32.893   3.362
55885W        W28310  14.756   0.943  13.511
55886W        W28311  26.119  26.078  11.008
55887W        W28312  22.703  41.400  12.419
55888W        W28313  25.581   6.725  14.417
55889W        W28314  38.455  14.812   0.334
55890W        W28315  32.898  33.438   3.256
55891W        W28316   8.842  11.679   1.426
55892W        W28317  38.325  44.980  13.978
55893W        W28318  23.594  21.730  13.450
55894W        W28319  34.575  11.132   1.855
55895W        W28320  11.821  41.916   2.838
55896W        W28321  37.926   0.857   4.789
55897W        W28322  38.451   5.828   1.227
55898W        W28323  32.913  25.598   2.897
55899W        W28324  41.471  21.691   2.215
55900W        W28325  11.195  33.582  12.547
55901W        W28326  11.781  40.866   2.383
55902W        W28327  13.268   5.324   0.935
55903W        W28328  19.159  30.422   4.696
55904W        W28329  10.231  40.308   4.705
55905W        W28330   9.150  27.079   3.699
55906W        W28331  21.637  32.909   4.190
55907W        W28332  44.938   6.395  14.781
55908W        W28333  38.881  17.709   2.251
55909W        W28334  27.608  15.669  14.761
55910W        W28335  35.389   1.840  13.986
55911W        W28336  18.078  44.390   2.775
55912W        W28337  41.506  28.434  13.331
55913W        W28338  20.123  27.025  14.424
55914W        W28339  37.039  26.040   3.673
55915W        W28340  17.198  22.725   3.800
55916W        W28341   3.292  29.447  13.514
55917W        W28342  29.661  12.318   1.713
55918W        W28343  25.557  41.510  10.549
55919W        W28344   6.730  33.622  14.290
55920W        W28345  39.439  20.711   3.193
55921W        W28346  18.566  43.399  14.471
55922W        W28347  14.695  40.309  13.424
55923W        W28348   6.711  29.997  10.619
55924W        W28349  19.689   8.774   3.288
55925W        W28350   2.469  27.041  10.476
55926W        W28351  24.561  19.280  14.819
55927W        W28352  31.936  28.436  10.911
55928W        W28353  38.890   4.298   0.928
55929W        W28354  17.124  27.465  13.361
55930W        W28355  37.075  21.654  14.808
55931W        W28356  26.627  39.402   4.265
55932W        W28357   4.768  20.243   0.353
55933W        W28358  26.693  30.444  12.864
55934W        W28359  26.059   2.874   3.757
55935W        W28360  28.105   2.845   4.190
55936W        W28361  31.896  30.092   4.259
55937W        W28362  39.023  34.866  14.968
55938W        W28363   2.860  22.066  10.894
55939W        W28364  32.123  29.569   3.766
55940W        W28365  37.337   8.798   1.814
55941W        W28366  15.781  14.332   9.975
55942W        W28367   8.732  11.343   0.410
55943W        W28368  43.896  17.559  14.297
55944W        W28369  33.880  19.177   2.401
55945W        W28370  15.699   6.304  12.474
55946W        W28371  13.136  27.947   5.227
55947W        W28372   5.712   1.956   4.783
55948W        W28373  41.443  13.750   3.315
55949W        W28374  21.243   9.314  10.041
55950W        W28375  42.870  12.221   0.948
55951W        W28376  28.931  21.600   0.822
55952W        W28377  21.105  12.263  14.404
55953W        W28378  42.908  34.565   0.835
55954W        W28379   9.701  42.379  10.542
55955W        W28380   6.201   1.321  12.836
55956W        W28381  23.503  26.646  11.943
55957W        W28382  17.624  17.215  11.547
55958W        W28383  28.673  29.125   3.756
55959W        W28384  35.454  42.892   2.716
55960W        W28385   7.784   3.367   3.776
55961W        W28386  34.532  30.455   1.882
55962W        W28387  24.495   9.252   4.707
55963W        W28388   9.799  42.490  12.447
55964W        W28389  21.112  33.624  13.423
55965W        W28390  34.044  37.876   0.252
55966W        W28391  34.109   8.284  14.450
55967W        W28392  15.229  33.905  12.026
55968W        W28393  21.590  42.941  13.543
55969W        W28394  16.641  29.487  11.073
55970W        W28395  17.689  10.795   1.783
55971W        W28396  13.695  36.944   4.603
55972W        W28397  23.228  19.584   3.701
55973W        W28398  39.893  35.453  13.389
55974W        W28399  14.607  31.453  14.873
55975W        W28400   1.852   2.855   2.667
55976W        W28401  30.047   5.825  12.903
55977W        W28402  27.523   5.696  13.350
55978W        W28403   3.892  41.477  10.025
55979W        W28404  14.158  13.632  11.465
55980W        W28405  21.550  17.642  11.887
55981W        W28406  37.901  10.348   2.846
55982W        W28407  44.348   6.198   3.345
55983W        W28408   9.767  38.828   4.210
55984W        W28409  14.696   5.392  11.986
55985W        W28410   2.349  29.076  10.629
55986W        W28411  34.948   7.359   5.608
55987W        W28412  16.666  21.542  13.044
55988W        W28413   6.361  11.732  14.434
55989W        W28414  12.786   4.277   2.691
55990W        W28415  25.520  18.112  10.414
55991W        W28416   1.928   1.913   1.851
55992W        W28417  15.124  41.895   0.438
55993W        W28418  43.957  24.602  11.891
55994W        W28419  24.133  16.254   1.754
55995W        W28420   4.293  30.908   4.242
55996W        W28421  20.544   9.293   4.139
55997W        W28422   7.866   6.809  10.517
55998W        W28423  21.225   1.788   0.312
55999W        W28424  25.033  28.966   1.358
56000W        W28425  33.434  35.048  14.777
56001W        W28426  41.821   2.340  10.423
56002W        W28427  10.167  41.368   1.916
56003W        W28428  42.420  36.935   2.730
56004W        W28429  31.418  36.407  10.446
56005W        W28430   6.304  43.288   3.679
56006W        W28431  31.642   8.793   2.707
56007W        W28432  25.671  28.558  11.077
56008W        W28433  24.217   1.325  14.284
56009W        W28434  44.887   7.224   0.308
56010W        W28435  41.324  12.122   4.684
56011W        W28436   2.811  35.427   3.200
56012W        W28437  30.962  39.936   9.962
56013W        W28438  44.451  18.051   3.213
56014W        W28439  15.133  44.384  14.349
56015W        W28440  21.531  30.042  10.547
56016W        W28441  13.247   8.901   2.373
56017W        W28442  39.467   2.728   2.756
56018W        W28443  37.396  12.736   0.964
56019W        W28444   3.331  26.983   1.830
56020W        W28445  31.498   0.446   3.640
56021W        W28446  18.085  16.674  10.948
56022W        W28447  26.482  28.488  14.993
56023W        W28448  20.174  13.193   3.760
56024W        W28449  37.447  35.102  11.422
56025W        W28450  23.611  34.437  12.089
56026W        W28451   3.353  42.370   3.812
56027W        W28452  19.757   1.324   3.222
56028W        W28453  22.044   5.392  10.598
56029W        W28454  25.046  25.627   1.243
56030W        W28455  25.608   9.692  13.348
56031W        W28456  44.331  29.104   3.679
56032W        W28457  43.794  20.548   1.862
56033W        W28458   3.452  29.939  12.365
56034W        W28459  22.605   1.313  13.397
56035W        W28460  42.501   4.887   1.787
56036W        W28461  10.332   2.337   1.360
56037W        W28462  25.704   1.906   3.250
56038W        W28463  39.402  43.381   2.722
56039W        W28464  37.938  16.191   2.830
56040W        W28465  15.197  12.349  11.929
56041W        W28466  15.306   0.441   4.130
56042W        W28467  39.413   5.410   0.820
56043W        W28468  12.752  30.505   1.326
56044W        W28469  19.075  13.249  12.578
56045W        W28470  11.135   8.853   0.728
56046W        W28471  40.416  38.868   5.095
56047W        W28472   8.802   0.947  14.851
56048W        W28473   7.822  13.306  14.408
56049W        W28474  32.616  31.901   3.819
56050W        W28475   4.885   7.737   0.835
56051W        W28476  31.619  22.095  12.931
56052W        W28477  41.790  42.442   1.441
56053W        W28478  42.473  29.016  12.079
56054W        W28479  22.244  39.845  12.370
56055W        W28480  37.365  27.953   0.283
56056W        W28481  36.953   5.766   4.120
56057W        W28482  12.230  18.637   4.240
56058W        W28483  44.327  12.713  14.311
56059W        W28484  14.104  10.748  12.339
56060W        W28485  14.320   9.687   2.871
56061W        W28486  20.088  41.786  14.348
56062W        W28487  29.001   6.818   1.404
56063W        W28488  37.968  20.101  11.084
56064W        W28489   2.782  33.986   4.785
56065W        W28490  36.525  22.031   4.144
56066W        W28491  42.789   1.443  11.923
56067W        W28492   8.313  26.058  12.349
56068W        W28493  10.817   9.772   3.661
56069W        W28494  21.709  40.368  14.941
56070W        W28495  31.139  38.396  13.489
56071W        W28496  15.135   2.462  12.453
56072W        W28497   0.287  35.889  11.505
56073W        W28498  44.291  19.051   0.389
56074W        W28499  44.786  37.382   0.739
56075W        W28500  33.416  21.063   0.953
56076W        W28501   5.327  14.599  13.316
56077W        W28502  23.129  44.846   1.371
56078W        W28503  23.109  26.696  14.023
56079W        W28504  27.590   3.375  12.555
56080W        W28505  41.956  32.892   3.303
56081W        W28506  12.131  40.885   3.208
56082W        W28507  15.318  31.543  14.826
56083W        W28508   2.910  12.690   3.297
56084W        W28509  16.252   1.844   4.296
56085W        W28510  16.571   9.690  14.983
56086W        W28511  11.273  39.944  14.279
56087W        W28512   3.226  16.172   0.750
56088W        W28513  30.496   8.227   2.412
56089W        W28514  15.155  40.959  14.002
56090W        W28515  11.769   3.790   0.264
56091W        W28516  16.585  20.247  12.057
56092W        W28517  40.378  16.789  14.375
56093W        W28518  13.721  43.501  12.510
56094W        W28519  10.234  12.742   1.747
56095W        W28520  42.801  27.194   2.769
56096W        W28521  18.159   5.268  13.336
56097W        W28522  21.207  32.927   4.223
56098W        W28523  39.830  18.120  14.769
56099W        W28524  41.044  18.252  12.434
56100W        W28525  18.664  10.206   0.293
56101W        W28526   6.330  36.348   3.820
56102W        W28527  35.853  26.177   3.230
56103W        W28528  15.186  25.505   3.807
56104W        W28529  15.634  23.718  11.093
56105W        W28530  13.196  32.076   2.277
56106W        W28531  29.656  30.625  12.961
56107W        W28532  25.675  44.452  14.286
56108W        W28533  31.016  32.472   4.309
56109W        W28534  23.628  11.832   4.169
56110W        W28535   4.782  14.717  12.982
56111W        W28536  25.501  16.773   4.653
56112W        W28537   9.866   7.190  10.544
56113W        W28538  28.954  35.099   3.188
56114W        W28539   9.207  12.329  13.874
56115W        W28540   5.306  21.729   4.311
56116W        W28541  36.560  41.979   0.375
56117W        W28542  24.646   6.907   0.764
56118W        W28543  44.382  21.255  10.993
56119W        W28544  10.776  38.354  13.911
56120W        W28545  39.939  22.510  14.952
56121W        W28546  14.602  16.781   0.349
56122W        W28547  23.713   3.371  11.435
56123W        W28548  43.824  33.042   0.329
56124W        W28549   9.681  23.628  12.825
56125W        W28550  25.622   4.346   4.628
56126W        W28551  25.204   3.433  10.060
56127W        W28552  23.611  21.549   2.722
56128W        W28553  35.047  38.473  12.963
56129W        W28554  34.977  16.583  13.460
56130W        W28555  25.572  16.723  12.530
56131W        W28556  31.906  13.123  10.953
56132W        W28557  10.323  24.147  12.988
56133W        W28558  29.035  22.143  13.056
56134W        W28559  16.666  20.727  14.889
56135W        W28560  35.377  22.200   2.875
56136W        W28561   3.895  37.963  14.389
56137W        W28562  28.575  29.158   4.326
56138W        W28563  44.434   2.447   5.098
56139W        W28564  24.587  19.110  14.334
56140W        W28565  15.746  35.082  13.386
56141W        W28566  16.588   8.353   2.669
56142W        W28567  36.000  27.621  11.024
56143W        W28568  30.999  13.820   0.861
56144W        W28569   7.289  37.552  12.423
56145W        W28570  25.127  26.491  10.961
56146W        W28571  37.348  10.207  11.564
56147W        W28572  34.585  25.185   4.159
56148W        W28573  15.159  27.019  13.954
56149W        W28574   1.402   5.871  11.931
56150W        W28575  37.581  18.142   4.693
56151W        W28576  35.489  41.437  12.437
56152W        W28577  39.017  24.169   2.692
56153W        W28578   4.853  34.393  14.878
56154W        W28579  35.402  41.514  13.469
56155W        W28580  14.147   7.723  14.766
56156W        W28581   1.819  24.570  14.405
56157W        W28582  16.694  19.547   4.297
56158W        W28583  36.458   7.282   2.878
56159W        W28584  18.170  30.096   3.192
56160W        W28585  34.523  37.895   0.473
56161W        W28586  28.635  37.893   3.377
56162W        W28587   1.347  38.843  12.393
56163W        W28588  33.626  33.117  12.480
56164W        W28589  32.445  24.617   2.351
56165W        W28590  12.796  19.586   4.192
56166W        W28591  34.938   9.334  14.885
56167W        W28592  36.446  12.189   4.602
56168W        W28593  39.500  35.872  11.553
56169W        W28594  38.459  26.982  12.003
56170W        W28595  39.398  19.089  13.914
56171W        W28596   4.790  37.080  12.540
56172W        W28597  29.984   6.273  10.901
56173W        W28598   4.448  16.583  13.876
56174W        W28599  37.003  33.402  13.431
56175W        W28600  29.925  34.615  10.909
56176W        W28601   2.448  32.586  14.879
56177W        W28602   6.902  31.525   3.693
56178W        W28603  44.947  44.383   0.813
56179W        W28604  25.970  34.953  13.942
56180W        W28605   2.821  43.479  12.855
56181W        W28606  15.579  18.173   0.793
56182W        W28607   7.243  31.453  12.487
56183W        W28608  44.966  42.933   2.345
56184W        W28609  27.685  20.165   1.309
56185W        W28610  20.595  21.134   2.894
56186W        W28611  23.179  41.368  11.497
56187W        W28612   8.680   3.896  12.908
56188W        W28613  37.087  28.460   0.948
56189W        W28614  14.237   6.428   1.247
56190W        W28615  11.803  21.045   4.627
56191W        W28616   7.229   4.300  12.093
56192W        W28617  20.040  22.584   4.230
56193W        W28618   1.244  15.308   1.385
56194W        W28619  20.653   8.199  13.813
56195W        W28620  33.921  11.259  12.956
56196W        W28621   8.841   0.392  14.440
56197W        W28622  44.439   8.815   1.877
56198W        W28623   9.804  21.204  12.525
56199W        W28624  19.551   9.186   1.740
56200W        W28625  39.031  44.803  14.403
56201W        W28626  24.050  19.117  13.489
56202W        W28627  17.625   0.482   1.718
56203W        W28628   8.188   4.394  13.807
56204W        W28629  10.244  25.691   2.739
56205W        W28630  27.084   5.834   1.236
56206W        W28631  11.704  23.012   2.402
56207W        W28632   3.391   4.835  10.941
56208W        W28633  43.817  15.244   1.931
56209W        W28634  12.671  33.413   0.242
56210W        W28635  19.210  38.427   4.283
56211W        W28636   5.805  37.543   1.265
56212W        W28637  27.452   1.956   0.825
56213W        W28638   9.879  24.482   4.312
56214W        W28639  29.123  30.507  14.511
56215W        W28640  29.108  14.629  14.326
56216W        W28641  43.462   6.761   3.154
56217W        W28642  44.993  27.688   2.832
56218W        W28643  13.828  22.060   0.315
56219W        W28644  17.685  18.056  13.331
56220W        W28645  34.421  10.670  10.446
56221W        W28646  13.800  35.373   1.877
56222W        W28647  12.725  18.201   3.739
56223W        W28648  20.215  24.671  11.534
56224W        W28649  41.456  25.218   4.118
56225W        W28650  29.978   2.909   1.433
56226W        W28651  18.700  12.837   0.418
56227W        W28652  37.523  35.973   0.896
56228W        W28653  22.247  21.051  11.520
56229W        W28654   1.921   1.388   0.802
56230W        W28655   6.300   0.490   3.209
56231W        W28656  10.877  35.864   1.432
56232W        W28657   1.464  33.933  11.054
56233W        W28658  34.037  44.882  13.465
56234W        W28659  12.244  40.944  12.542
56235W        W28660  27.673   4.253  11.590
56236W        W28661  17.590  15.760  11.529
56237W        W28662   4.294  10.831  11.401
56238W        W28663  28.129  31.106   3.170
56239W        W28664  42.466  12.312   0.886
56240W        W28665  20.746  35.928  14.916
56241W        W28666  15.580  26.481   9.989
56242W        W28667  34.494  19.717  10.902
56243W        W28668  18.224  36.969  14.898
56244W        W28669  19.045  42.859   4.180
56245W        W28670  10.146  26.096   1.922
56246W        W28671  19.741  34.514   2.222
56247W        W28672  11.811  12.243   1.912
56248W        W28673   2.225  23.985   0.875
56249W        W28674   6.827  42.842   0.353
56250W        W28675  13.824  40.995   4.653
56251W        W28676  39.503  10.699   1.935
56252W        W28677  37.885  28.549   4.699
56253W        W28678  19.579  23.729   1.389
56254W        W28679  43.884   5.815  11.468
56255W        W28680  42.418  37.034  14.760
56256W        W28681  10.335  21.631  12.432
56257W        W28682   9.721  37.884  14.939
56258W        W28683  19.239   0.984  14.275
56259W        W28684  39.354  28.610   0.950
56260W        W28685  34.910  29.430   0.868
56261W        W28686  29.919  22.229   0.795
56262W        W28687   0.933  44.834  11.938
56263W        W28688  17.793  38.450  13.895
56264W        W28689   3.922  36.563  10.929
56265W        W28690  13.262  41.981   1.823
56266W        W28691   0.410   7.844  11.889
56267W        W28692  25.158  26.515  11.873
56268W        W28693  32.546   8.812   3.298
56269W        W28694   3.385  37.949   4.145
56270W        W28695  31.455  29.579  11.425
56271W        W28696  29.666   0.449  12.089
56272W        W28697  38.886   2.785  14.483
56273W        W28698   8.751  37.418   3.164
56274W        W28699  29.527   6.388   2.230
56275W        W28700   6.337  28.028   4.155
56276W        W28701  28.976   7.304  10.619
56277W        W28702  22.619  14.786  12.968
56278W        W28703  32.091  31.407   1.838
56279W        W28704  16.643  14.108  14.759
56280W        W28705  44.973  37.557   3.301
56281W        W28706  18.572  26.205  12.945
56282W        W28707  34.034   6.809   4.118
56283W        W28708  33.605  26.697  10.943
56284W        W28709  11.129  41.002   0.376
56285W        W28710  15.633  39.972  11.047
56286W        W28711  14.253  34.863   3.380
56287W        W28712  44.850  29.461   4.340
56288W        W28713  33.059   2.247  13.523
56289W        W28714   6.332  21.664   2.233
56290W        W28715  10.680   2.855   0.322
56291W        W28716  24.153  25.041  13.339
56292W        W28717  14.825  27.655  13.432
56293W        W28718   3.277  38.390  14.810
56294W        W28719  30.414   7.197  13.412
56295W        W28720  38.553  20.145  12.355
56296W        W28721   4.804  11.657   4.125
56297W        W28722  17.580  35.015   1.429
56298W        W28723   7.215   8.206   2.714
56299W        W28724  13.221  14.697  10.406
56300W        W28725   4.748  37.901   4.297
56301W        W28726  37.930  40.899  10.505
56302W        W28727  34.536  30.501   2.268
56303W        W28728   6.830  11.359  14.838
56304W        W28729  12.812  24.228  11.544
56305W        W28730  11.766  23.051  10.422
56306W        W28731  35.454  22.614  11.980
56307W        W28732  41.362  42.863   3.275
56308W        W28733  17.262  43.975  14.814
56309W        W28734  17.178  41.856   2.666
56310W        W28735  31.091  34.057  12.507
56311W        W28736   9.825  20.091  14.449
56312W        W28737  30.022  31.409  11.541
56313W        W28738  30.547  44.859  14.372
56314W        W28739   2.452  18.651   2.802
56315W        W28740  18.773  16.740  13.043
56316W        W28741   5.376  18.178   2.221
56317W        W28742   3.844   8.716  11.109
56318W        W28743  36.578  17.664   1.283
56319W        W28744   1.421   1.452   1.841
56320W        W28745   0.840   5.296  14.359
56321W        W28746  12.741   0.473  10.976
56322W        W28747  42.847  16.774  14.916
56323W        W28748   9.358  37.544  13.893
56324W        W28749  24.643  41.394  13.831
56325W        W28750   2.753  37.897   1.759
56326W        W28751  11.165  19.243  10.426
56327W        W28752  25.605  13.210  10.487
56328W        W28753  24.999  35.509   0.244
56329W        W28754  40.990  33.899   1.416
56330W        W28755  17.604  25.168   3.382
56331W        W28756  27.095  33.500   4.684
56332W        W28757  33.570  11.734   4.231
56333W        W28758   1.379  32.105  13.459
56334W        W28759  27.029  19.226  13.383
56335W        W28760   6.279   4.413   3.356
56336W        W28761   7.877   1.737  12.340
56337W        W28762   8.205   9.226  11.007
56338W        W28763  15.675  21.122  11.993
56339W        W28764  33.556  28.066  12.455
56340W        W28765  25.673  16.297   3.379
56341W        W28766  38.004   3.300   3.851
56342W        W28767  14.632   4.752  12.909
56343W        W28768  40.381  34.875   1.332
56344W        W28769  14.297  24.192   1.756
56345W        W28770  15.204  18.244   4.132
56346W        W28771  15.701  22.675  13.906
56347W        W28772  44.822   3.725   2.381
56348W        W28773  43.863  13.735   4.313
56349W        W28774  39.042  24.527  13.383
56350W        W28775  12.856  12.851   0.400
56351W        W28776  15.228   1.778  10.156
56352W        W28777  27.979  10.637  12.400
56353W        W28778  18.771  37.415  11.994
56354W        W28779  39.954  21.582  11.535
56355W        W28780  12.136  16.204   3.158
56356W        W28781  44.844  42.971   1.283
56357W        W28782  31.408  24.215  11.378
56358W        W28783  11.678  35.454   3.773
56359W        W28784  25.654  14.217   0.888
56360W        W28785   1.355   7.897   1.698
56361W        W28786  26.081  26.073  12.343
56362W        W28787  23.228   9.210  14.894
56363W        W28788   8.177   6.707  11.548
56364W        W28789  10.666  16.075  14.445
56365W        W28790   0.362  20.704   4.330
56366W        W28791  27.120  23.206   0.908
56367W        W28792  32.885  29.574  13.319
56368W        W28793  16.574  12.838   1.702
56369W        W28794  19.271  31.968   4.771
56370W        W28795  30.948  33.916  14.761
56371W        W28796  12.137   7.392   4.678
56372W        W28797   4.735  38.355  12.539
56373W        W28798  10.776  21.049  12.379
56374W        W28799  35.988   1.759   3.779
56375W        W28800  38.452  11.349  14.906
56376W        W28801  19.067  42.293  12.534
56377W        W28802  37.416  22.206  11.473
56378W        W28803   5.845  13.162  13.425
56379W        W28804  41.935   8.734  12.532
56380W        W28805   0.294  10.353  14.469
56381W        W28806   4.838  19.614  11.597
56382W        W28807  26.982  15.674   3.854
56383W        W28808  26.157  44.859  14.918
56384W        W28809  11.679  10.820  11.496
56385W        W28810  17.224  41.490  12.488
56386W        W28811   0.845  27.063  12.880
56387W        W28812  41.890   1.792  10.508
56388W        W28813  32.941  35.531   4.639
56389W        W28814  11.730  18.559  11.381
56390W        W28815   1.824  39.516   0.780
56391W        W28816  18.164  38.912   3.632
56392W        W28817  42.390  19.774   4.202
56393W        W28818  42.984  16.171  13.439
56394W        W28819  31.619  20.264  11.870
56395W        W28820  33.122  10.384  13.903
56396W        W28821   9.699  26.507   3.770
56397W        W28822  33.042  43.799  12.345
56398W        W28823  37.490  36.025   3.637
56399W        W28824  19.069  10.732   2.798
56400W        W28825  21.729  22.647   0.755
56401W        W28826  25.149   7.194  11.117
56402W        W28827  26.978  24.982   4.236
56403W        W28828  16.582  30.495  12.842
56404W        W28829  38.354   4.351   4.764
56405W        W28830   2.432  23.125  11.096
56406W        W28831  31.129   0.783   3.199
56407W        W28832  43.450   1.394  14.796
56408W        W28833  20.063  22.640  11.981
56409W        W28834  24.221  38.044   4.640
56410W        W28835  31.076   7.763  13.956
56411W        W28836   8.850  10.804   4.685
56412W        W28837   8.735  26.959   2.857
56413W        W28838  16.250  17.125   9.982
56414W        W28839  19.535  32.591  13.886
56415W        W28840  19.277  14.259   1.768
56416W        W28841  23.136   1.409  11.946
56417W        W28842  12.699  16.107   1.828
56418W        W28843  21.052  25.501   1.846
56419W        W28844  13.747  22.677  12.466
56420W        W28845  30.567  19.602   4.827
56421W        W28846  28.130  12.263  13.822
56422W        W28847   4.219   8.657  10.446
56423W        W28848   2.453  33.892   1.927
56424W        W28849  26.109  13.218   1.906
56425W        W28850   2.282  34.412   4.256
56426W        W28851  44.923  24.186  10.501
56427W        W28852  20.076  30.933  12.459
56428W        W28853  39.834   0.438  14.394
56429W        W28854  23.208  32.637  11.525
56430W        W28855  28.574  32.397   2.802
56431W        W28856  35.460  42.311   3.665
56432W        W28857  19.137  21.134  11.483
56433W        W28858  11.824  21.223  14.998
56434W        W28859  27.984   4.760   1.420
56435W        W28860  25.149   1.900  12.378
56436W        W28861  27.476  14.336   1.734
56437W        W28862  15.765  40.505  14.791
56438W        W28863  10.155  42.375  14.917
56439W        W28864  42.512  10.705  12.340
56440W        W28865   4.771  14.670  12.569
56441W        W28866   8.803  10.196   4.249
56442W        W28867  40.826  44.262   0.840
56443W        W28868  20.680  33.044  11.435
56444W        W28869  31.404  13.121   2.378
56445W        W28870  42.287  35.092   4.706
56446W        W28871  38.459  24.530   3.720
56447W        W28872  24.614  19.541   4.686
56448W        W28873   7.176  38.025   2.673
56449W        W28874   3.952   7.754   2.406
56450W        W28875  19.647  43.958  11.011
56451W        W28876   7.340  22.633  10.942
56452W        W28877   5.807  19.662  14.375
56453W        W28878  35.903  38.412  14.795
56454W        W28879  14.279  31.916  11.032
56455W        W28880  35.417  20.560  10.972
56456W        W28881   9.654  27.187   3.232
56457W        W28882   0.866  14.216   2.836
56458W        W28883  11.858  13.795  11.943
56459W        W28884   5.380  29.065  12.532
56460W        W28885  37.555  21.163  14.916
56461W        W28886  31.010   7.213  14.770
56462W        W28887   6.278  25.032  11.428
56463W        W28888  16.783   6.919   1.352
56464W        W28889   5.410  36.551   0.424
56465W        W28890   2.916   4.767  12.951
56466W        W28891  39.391  29.919  11.389
56467W        W28892  44.821   8.685  13.398
56468W        W28893  43.800  41.947   3.751
56469W        W28894   0.321  40.945   2.754
56470W        W28895   5.439  29.630  11.883
56471W        W28896  19.126  27.577   2.272
56472W        W28897   5.332   3.320   2.800
56473W        W28898   3.304   8.378  14.369
56474W        W28899  32.393  10.158   4.282
56475W        W28900  30.984  44.455  13.359
56476W        W28901  11.727  33.620  12.471
56477W        W28902  37.476   4.396  14.403
56478W        W28903   0.353  18.210  14.475
56479W        W28904   2.741  23.664  12.013
56480W        W28905  32.093  22.174   3.696
56481W        W28906  11.316  12.818  10.571
56482W        W28907  39.844  37.560   3.754
56483W        W28908  19.624  38.386  13.059
56484W        W28909  20.161  43.426   1.431
56485W        W28910  17.248  37.086  11.403
56486W        W28911  24.625  34.543  11.608
56487W        W28912  33.590  14.236  11.938
56488W        W28913  13.752  29.019   2.774
56489W        W28914  19.561  20.040  14.430
56490W        W28915  14.606   1.420   3.667
56491W        W28916   8.201  14.590  14.445
56492W        W28917  21.038  40.943  11.532
56493W        W28918  35.423  14.594   3.645
56494W        W28919  26.543  17.622   2.816
56495W        W28920  15.683  35.499  11.897
56496W        W28921  29.975  34.030  12.447
56497W        W28922  14.222  27.513   1.399
56498W        W28923   5.413  37.502  11.034
56499W        W28924  14.589  27.980   1.225
56500W        W28925  33.883  23.606   2.780
56501W        W28926  23.611  26.024   0.859
56502W        W28927  41.291  30.637  13.030
56503W        W28928   0.395   3.385  13.438
56504W        W28929  37.907  19.199  14.978
56505W        W28930  11.663   4.799   1.877
56506W        W28931  35.054   7.903   3.766
56507W        W28932  20.626  10.354  12.050
56508W        W28933   6.364  36.022  11.005
56509W        W28934   0.761  38.449  11.590
56510W        W28935  22.668  43.895   4.759
56511W        W28936   3.815   6.909   1.734
56512W        W28937  40.869   5.730   0.944
56513W        W28938  35.590  11.836  13.054
56514W        W28939  31.439  29.431  12.040
56515W        W28940  10.662  36.934  11.045
56516W        W28941   3.304  24.097  12.894
56517W        W28942  16.767   6.682  11.867
56518W        W28943   2.259  13.340  11.106
56519W        W28944  26.004  19.727   2.705
56520W        W28945   1.419  23.530  12.882
56521W        W28946  30.987  19.642  10.114
56522W        W28947  34.480   8.785   3.188
56523W        W28948  42.490  41.294  11.399
56524W        W28949   6.691  27.944   2.663
56525W        W28950  13.212  29.584   2.746
56526W        W28951  26.954  21.653  11.989
56527W        W28952  33.959  13.754   3.345
56528W        W28953  36.888  18.183   0.728
56529W        W28954  43.793   0.802   1.743
56530W        W28955  24.485   4.762  10.973
56531W        W28956  34.106  23.640  13.472
56532W        W28957  38.372  22.526  10.899
56533W        W28958  26.101  15.107  14.473
56534W        W28959  30.547  23.680   1.247
56535W        W28960  35.378  13.206   1.842
56536W        W28961   2.839  44.841   0.343
56537W        W28962   3.728   0.488   4.194
56538W        W28963  28.450  34.461   0.742
56539W        W28964  17.120  40.025   1.816
56540W        W28965   4.234  10.335  11.882
56541W        W28966  22.172  40.458  13.980
56542W        W28967  42.415  27.133   4.734
56543W        W28968  25.647   6.759  12.431
56544W        W28969  16.237   2.893  13.328
56545W        W28970   2.853   6.329   3.211
56546W        W28971  19.111  29.459  14.378
56547W        W28972  21.728  13.725  10.408
56548W        W28973  27.541  27.446  14.853
56549W        W28974   0.270  18.277   4.315
56550W        W28975  42.413   4.412  14.016
56551W        W28976  42.963  39.413   1.841
56552W        W28977  33.117  31.150   3.343
56553W        W28978  44.266  20.237  11.593
56554W        W28979  37.837  11.197   0.909
56555W        W28980  40.850   7.362   3.191
56556W        W28981  25.102  27.088  14.395
56557W        W28982  34.553  31.604  11.572
56558W        W28983   7.353  39.865   3.769
56559W        W28984   1.855  16.298  13.451
56560W        W28985  34.578  16.259   3.845
56561W        W28986  31.441  26.978   4.333
56562W        W28987  35.990   6.417  11.125
56563W        W28988  13.289  24.231  11.040
56564W        W28989   8.757  26.194  11.009
56565W        W28990  10.298  27.521  10.896
56566W        W28991  41.834   3.358  10.429
56567W        W28992  42.467   2.898   2.737
56568W        W28993   3.837  20.188  10.939
56569W        W28994  16.203  43.764  11.055
56570W        W28995  27.597  19.056   0.418
56571W        W28996  17.710  30.460  13.535
56572W        W28997  33.087  29.078  12.360
56573W        W28998  14.734  13.224  13.818
56574W        W28999  33.051  37.974  10.637
56575W        W29000  29.081  18.128  12.030
56576W        W29001  28.588   3.434  13.819
56577W        W29002  11.796  17.305  13.432
56578W        W29003  26.012  32.410   3.801
56579W        W29004   1.829   7.679  13.030
56580W        W29005  27.077  35.881  14.419
56581W        W29006  24.093   9.183  11.983
56582W        W29007   7.717  20.699   1.309
56583W        W29008  35.056   4.752  13.456
56584W        W29009  11.843   6.830  13.485
56585W        W29010  33.994   6.859   3.295
56586W        W29011  34.106  32.525  13.861
56587W        W29012  42.281  10.314   2.415
56588W        W29013  19.060  26.612   1.426
56589W        W29014  38.561  17.644  14.402
56590W        W29015  36.989  19.645  13.482
56591W        W29016  21.247  42.808  12.881
56592W        W29017  37.362  16.730  14.022
56593W        W29018  37.938  33.067   2.765
56594W        W29019  23.185  15.261  10.890
56595W        W29020  40.041   1.431   3.374
56596W        W29021  29.965  15.616   1.224
56597W        W29022  18.135  16.598   2.749
56598W        W29023  28.639  31.478   1.762
56599W        W29024  11.146  15.735   2.752
56600W        W29025  38.416  42.963  12.558
56601W        W29026   6.750  15.591   3.348
56602W        W29027   0.485  30.487  14.022
56603W        W29028  30.527  38.918  14.474
56604W        W29029   1.441  33.557   2.382
56605W        W29030  38.359  29.613   0.782
56606W        W29031  15.089   2.962  14.935
56607W        W29032  23.539  38.952   3.739
56608W        W29033   6.827  37.363  13.421
56609W        W29034  38.867  28.535   4.312
56610W        W29035  15.584  19.067   2.879
56611W        W29036  21.678   5.275  12.569
56612W        W29037  26.690  14.691  13.323
56613W        W29038  19.743   4.307   2.394
56614W        W29039  24.067  21.728  11.563
56615W        W29040  22.587   0.403   1.771
56616W        W29041   9.652   0.772   4.647
56617W        W29042   4.350  26.118   1.839
56618W        W29043  35.472  41.847  11.512
56619W        W29044  37.427  30.148   2.778
56620W        W29045  38.879  35.604   1.440
56621W        W29046  28.098  31.119  12.014
56622W        W29047  21.595  39.961  10.476
56623W        W29048  29.554  34.419   4.717
56624W        W29049  16.757   1.935   1.822
56625W        W29050  10.663   5.872   0.812
56626W        W29051  27.627  35.999   1.215
56627W        W29052  41.856  44.823  13.493
56628W        W29053   7.751  16.278   2.229
56629W        W29054  34.537  38.423   3.278
56630W        W29055  35.033  24.681  12.930
56631W        W29056   7.830  36.007   3.226
56632W        W29057  22.230   7.330   4.215
56633W        W29058  13.768  31.048  12.565
56634W        W29059   5.301  31.481  10.617
56635W        W29060  12.748   6.222   5.141
56636W        W29061  41.316  39.494   3.773
56637W        W29062  32.955  34.005  12.049
56638W        W29063  26.497   2.445   1.926
56639W        W29064  21.680   9.760  12.569
56640W        W29065  17.266   0.373   2.212
56641W        W29066   7.855   7.256   3.269
56642W        W29067  30.971  10.864  12.389
56643W        W29068  22.106   8.321  14.421
56644W        W29069  26.166   9.339  14.997
56645W        W29070  42.833  34.891   5.172
56646W        W29071  20.751   9.220   0.773
56647W        W29072  42.518  29.467   1.750
56648W        W29073  30.471  34.418  13.525
56649W        W29074  43.946  10.332   3.843
56650W        W29075  32.582  28.671  12.392
56651W        W29076  10.847   6.346   4.273
56652W        W29077  18.648   8.714   2.330
56653W        W29078  36.074  23.579   0.808
56654W        W29079   7.239  23.663  10.422
56655W        W29080   3.250  26.564  12.425
56656W        W29081   4.253  34.448   0.441
56657W        W29082  32.134  23.018   3.827
56658W        W29083  11.161  27.552  13.824
56659W        W29084   6.258  26.175   3.809
56660W        W29085   7.341  42.321  11.520
56661W        W29086  24.580  41.391   3.240
56662W        W29087  25.596   2.234  13.504
56663W        W29088  10.803   8.280  11.603
56664W        W29089  26.019  34.048  12.081
56665W        W29090   8.729  39.899  14.404
56666W        W29091  39.485   9.267   0.950
56667W        W29092  16.082   7.776   0.728
56668W        W29093   5.425  19.105   2.808
56669W        W29094   9.181  41.029  11.985
56670W        W29095  10.250  35.005   0.336
56671W        W29096   4.439   9.369   1.403
56672W        W29097  12.309  22.733   0.441
56673W        W29098  36.005  19.652   1.853
56674W        W29099  24.017  18.264   2.853
56675W        W29100   6.822  30.434   1.834
56676W        W29101   0.476  40.480   0.258
56677W        W29102  33.561  21.668   3.819
56678W        W29103  12.802  40.532   1.304
56679W        W29104  16.576  29.448   1.751
56680W        W29105   1.757  19.634   0.480
56681W        W29106  29.551  34.438   2.296
56682W        W29107   7.203  40.949  11.991
56683W        W29108   3.343  21.658   2.183
56684W        W29109  28.137  16.178  13.898
56685W        W29110  43.818  10.311  11.027
56686W        W29111  12.728   9.860   3.324
56687W        W29112   6.308  22.243   0.888
56688W        W29113  36.364  12.746   2.777
56689W        W29114  28.502  34.084   2.752
56690W        W29115  11.292  39.330   1.855
56691W        W29116  29.476  13.809  13.052
56692W        W29117  33.507  27.175  12.035
56693W        W29118   4.282  18.774   0.962
56694W        W29119  12.200  43.319   0.427
56695W        W29120  33.981  25.022   1.395
56696W        W29121  15.231  14.772  11.463
56697W        W29122   6.869  33.047  10.948
56698W        W29123  17.612  34.953  11.855
56699W        W29124   6.708  38.476   1.728
56700W        W29125  38.483   1.864   1.829
56701W        W29126  24.004  29.100  14.301
56702W        W29127   5.905  24.182  10.429
56703W        W29128   2.446  30.555   4.792
56704W        W29129  42.490  42.504   2.789
56705W        W29130  32.003  37.444   1.322
56706W        W29131  40.529  27.093   0.889
56707W        W29132  10.745  33.985  13.448
56708W        W29133   4.795   6.245   0.304
56709W        W29134  10.209  36.493   4.183
56710W        W29135  38.505  24.017   4.802
56711W        W29136   8.206  34.063  11.517
56712W        W29137  31.138  27.490   0.860
56713W        W29138  12.256  27.568  10.418
56714W        W29139  13.630  16.290   4.216
56715W        W29140  15.294   8.355   0.793
56716W        W29141  23.169  40.437   1.291
56717W        W29142  13.331  37.003   2.734
56718W        W29143  25.984  20.549   0.889
56719W        W29144  25.525   3.310   3.268
56720W        W29145  17.600  33.112   1.921
56721W        W29146  33.597   0.920   2.353
56722W        W29147  35.041   6.905   9.665
56723W        W29148  28.511  26.047  14.891
56724W        W29149  27.682   6.807   0.880
56725W        W29150  43.478   9.762   1.737
56726W        W29151  28.147  24.189   2.782
56727W        W29152  39.330  36.949   2.752
56728W        W29153  16.793  35.957  14.969
56729W        W29154   6.769   2.896  14.032
56730W        W29155  20.163   3.461  12.360
56731W        W29156  39.936  33.528   4.196
56732W        W29157  23.570  19.591  12.517
56733W        W29158  13.304  23.054   4.812
56734W        W29159  34.459  37.575  14.512
56735W        W29160  39.851  40.496  13.861
56736W        W29161  35.561  24.595  10.553
56737W        W29162  12.278   0.416   0.861
56738W        W29163   2.761  28.459  14.010
56739W        W29164  33.102  30.922  12.831
56740W        W29165  14.780   0.449   1.797
56741W        W29166  41.349  26.486   4.700
56742W        W29167  14.295  39.451   2.734
56743W        W29168  24.020   5.430   1.375
56744W        W29169  32.515  44.433  13.956
56745W        W29170  21.741   3.323   1.389
56746W        W29171  14.217  41.373  10.484
56747W        W29172  41.372  18.110  10.926
56748W        W29173  13.802  43.816   3.235
56749W        W29174  42.020   2.814  11.503
56750W        W29175  28.151  14.216   5.269
56751W        W29176  31.987  11.660  10.956
56752W        W29177   3.417  19.640   4.635
56753W        W29178  43.928  24.207  14.893
56754W        W29179   3.823   1.259   4.751
56755W        W29180   0.940  15.764  13.980
56756W        W29181  30.468  19.651  11.992
56757W        W29182   9.327  43.280   1.210
56758W        W29183  35.436  30.016  13.008
56759W        W29184  40.443  14.226   3.813
56760W        W29185  27.456   3.259   0.877
56761W        W29186  28.499  17.679  11.036
56762W        W29187  21.181  29.116   4.139
56763W        W29188  29.635  19.731  13.445
56764W        W29189   1.333  25.089   4.248
56765W        W29190  15.128  31.911  12.989
56766W        W29191  40.802   0.933  12.880
56767W        W29192  35.401  11.652   3.257
56768W        W29193  28.618  31.992  12.060
56769W        W29194  15.650   1.910  10.918
56770W        W29195   5.344  43.904  12.343
56771W        W29196   5.361  35.479  12.549
56772W        W29197   7.212   2.273  13.404
56773W        W29198   5.751  41.476  12.992
56774W        W29199  12.317  26.119  14.282
56775W        W29200  25.983  26.969   1.356
56776W        W29201  36.029  31.974  14.901
56777W        W29202  20.257  30.107   4.818
56778W        W29203  34.958  24.048   3.316
56779W        W29204  36.557   0.876   2.385
56780W        W29205  44.001   0.355  11.585
56781W        W29206  23.107  12.648   0.314
56782W        W29207  16.583  14.330   2.819
56783W        W29208  20.536  21.641  13.931
56784W        W29209   0.377  43.472  10.609
56785W        W29210  31.469  38.479  12.497
56786W        W29211   5.855   7.880  10.900
56787W        W29212  43.338   9.718  13.053
56788W        W29213  12.167  13.757  12.509
56789W        W29214  18.237  18.667   0.898
56790W        W29215   0.275  27.574  13.969
56791W        W29216   7.347  33.517   4.163
56792W        W29217  41.420   9.328  11.981
56793W        W29218   7.692  28.458  14.354
56794W        W29219  20.588  21.158  14.443
56795W        W29220  19.579  37.491  13.360
56796W        W29221  21.524  42.309   1.280
56797W        W29222  32.927  36.408  12.558
56798W        W29223  22.212  31.035   3.273
56799W        W29224   2.762  26.203  11.588
56800W        W29225   3.845   5.245  12.863
56801W        W29226  15.086  38.437  12.893
56802W        W29227   3.742   4.807  11.918
56803W        W29228   2.303  20.275   3.809
56804W        W29229  14.318  42.457   4.224
56805W        W29230  19.594  12.332   4.147
56806W        W29231  37.868  27.036   1.726
56807W        W29232  42.488  10.755  12.850
56808W        W29233  33.058  15.255  13.011
56809W        W29234  29.025   1.951   2.804
56810W        W29235  14.654  20.692  12.448
56811W        W29236  23.015  41.838   4.305
56812W        W29237  16.315   0.817  13.854
56813W        W29238  43.434  26.582   4.619
56814W        W29239   0.395  14.719  10.914
56815W        W29240  33.621  32.566  11.602
56816W        W29241  39.342   9.644  13.812
56817W        W29242  19.604  28.990   0.733
56818W        W29243   2.837   0.371   3.759
56819W        W29244  39.523  16.168   2.813
56820W        W29245  32.981   4.401   3.654
56821W        W29246  15.197   5.915   2.810
56822W        W29247   2.805   7.275  10.573
56823W        W29248  42.950  33.967   4.351
56824W        W29249  41.376  17.196   3.850
56825W        W29250  33.042  22.223  11.093
56826W        W29251   1.803   8.213  13.969
56827W        W29252   4.854  10.729   1.763
56828W        W29253  34.891  36.369  14.900
56829W        W29254  23.723  31.090   9.976
56830W        W29255  43.479  32.930  14.811
56831W        W29256  22.222  16.720   4.202
56832W        W29257   1.466  43.432  13.336
56833W        W29258  13.328  24.593   1.217
56834W        W29259  10.672   6.214   1.927
56835W        W29260  14.242  16.780  11.870
56836W        W29261  44.303  23.984  11.427
56837W        W29262  44.806  16.649  13.456
56838W        W29263  41.927  41.415   1.351
56839W        W29264  21.641   6.841  10.638
56840W        W29265   3.362   1.401  13.929
56841W        W29266   1.832  11.731   3.771
56842W        W29267  41.490  36.088   2.789
56843W        W29268  31.402   2.777   3.858
56844W        W29269  41.815   6.791  14.314
56845W        W29270  39.896   9.731  13.356
56846W        W29271  43.433   5.708  11.495
56847W        W29272  11.334   8.259  11.440
56848W        W29273  33.601   1.300  14.807
56849W        W29274  37.866  33.582   1.257
56850W        W29275  22.516  38.911  12.465
56851W        W29276  20.626  32.465   1.864
56852W        W29277  27.640  22.080  12.519
56853W        W29278   3.712  28.177   2.260
56854W        W29279  21.155  19.668  14.366
56855W        W29280  14.146  13.285   3.208
56856W        W29281  18.747  20.585  12.079
56857W        W29282  35.934   6.812   5.629
56858W        W29283  30.959  43.904   1.888
56859W        W29284  17.780  33.421   3.755
56860W        W29285  32.606   8.360  13.370
56861W        W29286  32.482  11.279  14.798
56862W        W29287  15.164  37.066  11.878
56863W        W29288   2.842   5.256  11.053
56864W        W29289  20.546   6.248   2.270
56865W        W29290  29.142   2.760  10.491
56866W        W29291  30.417  26.681  13.489
56867W        W29292  39.380   6.214  13.879
56868W        W29293  21.621  36.013  13.035
56869W        W29294  43.291  41.843   2.807
56870W        W29295  42.917   4.307  12.924
56871W        W29296  28.447   3.941  14.910
56872W        W29297  10.693  14.777  13.921
56873W        W29298  38.469  36.004   0.768
56874W        W29299   8.759  24.610   0.249
56875W        W29300  36.927   1.743  13.407
56876W        W29301  16.662  13.342   4.340
56877W        W29302  15.136  32.549   1.326
56878W        W29303   7.801  22.165  14.963
56879W        W29304   7.272   0.845  10.981
56880W        W29305   0.767  28.436   2.773
56881W        W29306  29.135  24.588   5.138
56882W        W29307   9.247  30.445  11.411
56883W        W29308  14.174  30.456   4.346
56884W        W29309  35.871  39.862  10.453
56885W        W29310   9.724  34.551  13.421
56886W        W29311  41.895  12.815   4.292
56887W        W29312  44.773  42.830   0.243
56888W        W29313   6.919   0.285   0.270
56889W        W29314  30.148  38.563   1.881
56890W        W29315   3.787  13.758   0.285
56891W        W29316  28.437  25.219   4.261
56892W        W29317  10.720  22.626  14.361
56893W        W29318  26.532   0.369   4.777
56894W        W29319   5.802  29.011  12.543
56895W        W29320  16.788  37.915  11.610
56896W        W29321  25.033   4.719   0.949
56897W        W29322  42.282  13.155   3.857
56898W        W29323  11.373  30.944   4.780
56899W        W29324  30.927  43.442  13.374
56900W        W29325   3.448  39.512   4.341
56901W        W29326  36.974   0.774   2.193
56902W        W29327   7.846  30.958   4.802
56903W        W29328   3.762   0.809  10.643
56904W        W29329  10.259  12.180  14.995
56905W        W29330  38.836  13.321   3.759
56906W        W29331  12.167   7.720  13.329
56907W        W29332   2.919  41.335  12.559
56908W        W29333  33.879  32.960   3.721
56909W        W29334  25.017  12.760  12.572
56910W        W29335  13.843   4.212   1.343
56911W        W29336   3.761   5.689   4.737
56912W        W29337  33.414  32.395  14.012
56913W        W29338  36.022  15.130   3.651
56914W        W29339  15.737  20.660   1.299
56915W        W29340  22.725  24.212  14.353
56916W        W29341  40.994  44.488   3.860
56917W        W29342  15.147  36.483   4.243
56918W        W29343   1.972  31.045  11.096
56919W        W29344  33.596  44.000   4.227
56920W        W29345  21.162  29.572   5.128
56921W        W29346  27.990  42.330  10.446
56922W        W29347   1.355  44.977  12.541
56923W        W29348   4.829   9.867   4.722
56924W        W29349  14.318  13.197  14.926
56925W        W29350   0.979  31.442  12.865
56926W        W29351   7.347  34.554  11.587
56927W        W29352  17.302   3.383  12.415
56928W        W29353  26.491   2.449  10.959
56929W        W29354  24.483  26.653   0.442
56930W        W29355   0.416  11.265   0.351
56931W        W29356  35.479  41.530  10.894
56932W        W29357   3.289  20.136   3.839
56933W        W29358  21.219   4.773   4.206
56934W        W29359  11.756  20.056  14.488
56935W        W29360  43.333  42.396  10.441
56936W        W29361  44.488  17.729  11.399
56937W        W29362  27.156  24.116   4.710
56938W        W29363  13.239  23.533   2.773
56939W        W29364  33.435   0.371   2.186
56940W        W29365  21.743  24.526  14.029
56941W        W29366  37.534  21.568   3.654
56942W        W29367   9.774   6.355   2.706
56943W        W29368  42.499  12.762  10.474
56944W        W29369  33.535  10.784   0.859
56945W        W29370  26.053  28.052  14.308
56946W        W29371   4.344  20.186  13.958
56947W        W29372  25.968  28.656  11.926
56948W        W29373  34.959  39.388   0.387
56949W        W29374  24.681   2.771  12.363
56950W        W29375  43.825  43.295   4.149
56951W        W29376  21.519  32.025  13.498
56952W        W29377  15.652  29.004  12.473
56953W        W29378  24.566  30.083   1.341
56954W        W29379  31.418  36.061   3.728
56955W        W29380  13.749  32.407   4.261
56956W        W29381  22.132  26.154   4.743
56957W        W29382  15.277  15.642   2.365
56958W        W29383  18.233  15.633  12.394
56959W        W29384  35.431  25.137   0.467
56960W        W29385  25.525  40.438  11.419
56961W        W29386   7.854  20.754   0.257
56962W        W29387  11.277  19.219   3.331
56963W        W29388  14.275  44.933  10.573
56964W        W29389  31.910  41.010  11.379
56965W        W29390  27.638  32.914   0.370
56966W        W29391   7.249  13.147   2.830
56967W        W29392  22.185  13.119  10.515
56968W        W29393  30.618   7.857   2.265
56969W        W29394   0.925  40.387   5.273
56970W        W29395  42.883  17.770   1.875
56971W        W29396  37.458  29.940   4.184
56972W        W29397   1.824  41.300   1.449
56973W        W29398  34.980   2.354  13.865
56974W        W29399  17.122  27.156   4.602
56975W        W29400  38.875  21.648  10.994
56976W        W29401  12.175  11.673   4.696
56977W        W29402   9.272  44.911   3.850
56978W        W29403  21.263  40.466   1.214
56979W        W29404   7.306  13.240   2.257
56980W        W29405  38.988  20.522   2.258
56981W        W29406  13.293  41.806   2.786
56982W        W29407  22.181  43.307   0.958
56983W        W29408  19.214  19.074  10.420
56984W        W29409  17.661  24.699   0.941
56985W        W29410  10.711  22.650  12.448
56986W        W29411  14.154  27.679   9.952
56987W        W29412  43.303  16.745  11.591
56988W        W29413  13.117  40.479   1.900
56989W        W29414  34.117  17.563  14.974
56990W        W29415  22.651  39.834   3.309
56991W        W29416  13.164  11.819  14.417
56992W        W29417  40.329  10.231   4.294
56993W        W29418  35.961  35.878   1.443
56994W        W29419  28.580  44.430   0.839
56995W        W29420  29.644  12.828  12.511
56996W        W29421  42.348  38.828   0.965
56997W        W29422   5.748  12.822  11.481
56998W        W29423  34.449  27.454  13.413
56999W        W29424  43.955  40.437   0.254
57000W        W29425   6.198  25.073  13.924
57001W        W29426  36.021   1.254   4.804
57002W        W29427  16.100  33.525   2.243
57003W        W29428  44.478  32.426  11.954
57004W        W29429  29.564   5.728  11.934
57005W        W29430  23.672  38.419   4.179
57006W        W29431  12.317  43.411  14.782
57007W        W29432  11.229  42.992  14.444
57008W        W29433  32.009   0.379  13.818
57009W        W29434   2.828   3.259  14.994
57010W        W29435   6.252  28.958   9.982
57011W        W29436  12.255   1.301  13.513
57012W        W29437  14.728  20.622   4.661
57013W        W29438  35.862  41.325  12.850
57014W        W29439  16.756  30.001  11.007
57015W        W29440  26.587  22.036   2.675
57016W        W29441   4.422  10.379   5.137
57017W        W29442  27.150  29.432   3.799
57018W        W29443  31.942   7.841   2.240
57019W        W29444  30.973  19.648  11.567
57020W        W29445   0.931  44.831  10.456
57021W        W29446  30.966  20.230  14.342
57022W        W29447  35.972   5.917  10.112
57023W        W29448  29.131  35.552  11.855
57024W        W29449  32.932  43.391  12.451
57025W        W29450  20.117  25.662  12.407
57026W        W29451   2.923   7.325   0.263
57027W        W29452  12.217  36.878   2.289
57028W        W29453  43.414  43.499   2.769
57029W        W29454  12.690  16.174   4.124
57030W        W29455   5.895  19.118   1.364
57031W        W29456  26.563  26.472  11.129
57032W        W29457  16.599  34.556  14.419
57033W        W29458  10.720   6.691   3.343
57034W        W29459  32.924  26.073  12.965
57035W        W29460  42.316  11.317  10.984
57036W        W29461   3.261   4.245   2.331
57037W        W29462  23.193  43.438  13.063
57038W        W29463  29.134  40.840  13.850
57039W        W29464   1.455  25.155   0.350
57040W        W29465  23.661  13.773  12.965
57041W        W29466  27.463  26.555   2.322
57042W        W29467  35.085  23.665  14.965
57043W        W29468  37.557  34.889   1.418
57044W        W29469  22.040  19.126  10.912
57045W        W29470  19.600  39.505   1.930
57046W        W29471   0.826  10.784   2.666
57047W        W29472   0.363  15.719   1.438
57048W        W29473   3.421  41.307  10.573
57049W        W29474  16.583  30.050  13.020
57050W        W29475  18.203  31.577   2.194
57051W        W29476  39.023   5.244   3.386
57052W        W29477  25.641  43.311   3.297
57053W        W29478  12.284  19.645  13.370
57054W        W29479  19.645   9.721   4.652
57055W        W29480  19.048  30.052   1.270
57056W        W29481  32.948  30.511  14.801
57057W        W29482   6.895  17.185   3.632
57058W        W29483  22.118  38.903   4.174
57059W        W29484  10.820  14.702   2.310
57060W        W29485   4.290  13.248   3.217
57061W        W29486   1.772   4.325   3.179
57062W        W29487  26.516  21.180   0.403
57063W        W29488  30.022  21.738   5.082
57064W        W29489  14.141  34.516  10.600
57065W        W29490  28.117   0.953   2.391
57066W        W29491   7.766  17.183  11.408
57067W        W29492  11.789   7.197   3.268
57068W        W29493   1.860  19.043  13.468
57069W        W29494  26.139  17.747   2.182
57070W        W29495  26.056  33.392   3.327
57071W        W29496  18.603  38.057  13.981
57072W        W29497  28.114  12.702   3.831
57073W        W29498  13.694   2.234  11.005
57074W        W29499  20.607   8.195   3.704
57075W        W29500  10.324  16.744   3.781
57076W        W29501  42.327   3.286   0.727
57077W        W29502  26.012  11.710   2.395
57078W        W29503   4.396   2.259   2.741
57079W        W29504  18.063   0.477  13.910
57080W        W29505   2.905  36.374  14.825
57081W        W29506  40.936  44.492   0.468
57082W        W29507   3.767  43.946   2.352
57083W        W29508  17.746  16.627   4.311
57084W        W29509  27.648  25.668  14.500
57085W        W29510  21.046  29.470  13.802
57086W        W29511  32.497  28.167  13.983
57087W        W29512  26.023  10.834   2.349
57088W        W29513  28.066  28.520   3.865
57089W        W29514  13.663  34.061  12.905
57090W        W29515  42.332  42.803  13.974
57091W        W29516  42.493  28.136   1.790
57092W        W29517  42.290  13.173  11.003
57093W        W29518  19.136   9.164  13.473
57094W        W29519  24.161  19.594   4.238
57095W        W29520  20.093  20.255  14.414
57096W        W29521  40.972  25.119  13.836
57097W        W29522  31.554  16.191  13.540
57098W        W29523  10.154  37.044  13.914
57099W        W29524  27.529  21.675  13.946
57100W        W29525  34.425  17.137  10.948
57101W        W29526  34.910  15.085   1.836
57102W        W29527  12.841   7.786   3.335
57103W        W29528  18.687  31.076   4.719
57104W        W29529   4.265  17.303   4.267
57105W        W29530  30.477  40.890  14.848
57106W        W29531  10.659  30.452   3.762
57107W        W29532  25.139   2.741  13.823
57108W        W29533  15.624  25.125  11.412
57109W        W29534   0.874  22.042  11.576
57110W        W29535  18.102  33.421   9.999
57111W        W29536  15.117  30.020   1.314
57112W        W29537  31.443  31.503   4.276
57113W        W29538  44.299  35.047  13.316
57114W        W29539  27.189  15.766  10.925
57115W        W29540   0.970  17.777   2.203
57116W        W29541   5.850  11.688   4.268
57117W        W29542  41.891  27.635  11.550
57118W        W29543  42.390  26.969   2.681
57119W        W29544  34.504  22.735  10.579
57120W        W29545   9.389  41.369  12.418
57121W        W29546  15.227  18.619   2.262
57122W        W29547  42.419   2.258   1.218
57123W        W29548  38.891  31.137  13.512
57124W        W29549  28.638  21.556  14.960
57125W        W29550  16.182  18.154   2.178
57126W        W29551   6.272  26.643   2.346
57127W        W29552   1.278  37.392  13.524
57128W        W29553  32.592  26.679  12.946
57129W        W29554  38.368  29.570  13.991
57130W        W29555  28.936  11.280   0.294
57131W        W29556  21.639  12.278   2.752
57132W        W29557  30.970  16.770   2.705
57133W        W29558  19.672  26.563   3.724
57134W        W29559   3.253  15.211  13.971
57135W        W29560   9.835  24.701   2.738
57136W        W29561  18.196   4.249   1.893
57137W        W29562  32.622  14.834   1.338
57138W        W29563  32.400  10.291   0.415
57139W        W29564  22.719  28.128   5.130
57140W        W29565  20.134   5.337   1.384
57141W        W29566  43.010  28.113   0.908
57142W        W29567  26.174   9.873  13.962
57143W        W29568  43.932  31.990   5.151
57144W        W29569  28.546  37.461   1.252
57145W        W29570  43.842  39.528   2.807
57146W        W29571  18.736  17.185  13.956
57147W        W29572  10.173  27.672   4.599
57148W        W29573   6.204  22.731   2.207
57149W        W29574  23.986  19.550   2.409
57150W        W29575  44.271  27.509  11.493
57151W        W29576   5.756  31.000  13.889
57152W        W29577  31.109  40.866   2.699
57153W        W29578  39.493   6.813  12.845
57154W        W29579  36.397  42.890  11.388
57155W        W29580   7.778  11.143  13.933
57156W        W29581  30.512   6.199   0.848
57157W        W29582  24.693  42.418  12.872
57158W        W29583  15.157  22.142  11.564
57159W        W29584  16.139  32.906   1.425
57160W        W29585  31.040  16.669  10.107
57161W        W29586  12.714  17.656   0.268
57162W        W29587  31.610  21.230  13.026
57163W        W29588  10.704  17.259   2.264
57164W        W29589  41.022  27.510  11.465
57165W        W29590  16.609  20.156   4.192
57166W        W29591  24.046  19.745   0.295
57167W        W29592  19.658  37.972   2.859
57168W        W29593  20.183  18.771   2.418
57169W        W29594  24.490   1.415   3.757
57170W        W29595  17.603   7.265  10.457
57171W        W29596  29.465   4.698   0.785
57172W        W29597  43.311  16.781  12.500
57173W        W29598  17.708  31.037   1.349
57174W        W29599  17.575  10.206  11.550
57175W        W29600   9.766  11.862  14.389
57176W        W29601  37.008  39.359  11.890
57177W        W29602   9.809  41.376   3.746
57178W        W29603   0.257  14.249  14.008
57179W        W29604  41.816  23.152  13.536
57180W        W29605  11.751   4.758  10.059
57181W        W29606   7.901  16.651  12.825
57182W        W29607  43.858  10.200  10.442
57183W        W29608  13.289  36.994   1.708
57184W        W29609  14.689  42.452  11.597
57185W        W29610  17.777  34.098   9.999
57186W        W29611  35.026  37.859   1.305
57187W        W29612  15.116  30.423   0.728
57188W        W29613  42.477  27.171   3.805
57189W        W29614  32.580  16.257   0.811
57190W        W29615  27.177   9.354   2.688
57191W        W29616   1.900  23.633  13.944
57192W        W29617   3.929  43.342   3.858
57193W        W29618  40.051  19.759   1.888
57194W        W29619  37.376   7.909  12.420
57195W        W29620  26.541  42.961   2.675
57196W        W29621  44.411  10.689   3.328
57197W        W29622   4.228   1.965  13.437
57198W        W29623  39.410  42.841   0.761
57199W        W29624  30.551   3.251   1.761
57200W        W29625  10.188  30.433  11.909
57201W        W29626  41.014   0.383   1.224
57202W        W29627  15.248   8.369   4.215
57203W        W29628   3.866  21.223  11.540
57204W        W29629  25.488  21.701   2.830
57205W        W29630  32.568  10.153  10.601
57206W        W29631   7.861   7.338   0.430
57207W        W29632  12.806  42.000  12.943
57208W        W29633  24.550   4.398  14.983
57209W        W29634  43.508  20.036   0.302
57210W        W29635  30.428  19.678   2.752
57211W        W29636   7.710  22.578   0.815
57212W        W29637  32.018  28.449   3.735
57213W        W29638  15.719  25.668   4.196
57214W        W29639  39.504  34.056  11.448
57215W        W29640  28.034   9.826   5.110
57216W        W29641  32.465  24.660  11.522
57217W        W29642  11.812  15.662   1.889
57218W        W29643  23.228   6.377  12.870
57219W        W29644  34.089   6.761   2.776
57220W        W29645  22.050   5.375  14.432
57221W        W29646  34.899  14.712  11.056
57222W        W29647  15.234   5.312   0.305
57223W        W29648  15.275   1.424   3.694
57224W        W29649  28.512  30.499  11.946
57225W        W29650  39.949  40.922  14.856
57226W        W29651  20.707  21.238   0.944
57227W        W29652  26.108  31.577   4.695
57228W        W29653  38.950  39.363  13.859
57229W        W29654  12.259   2.890   5.648
57230W        W29655  22.609  26.467  13.514
57231W        W29656  19.279  23.717  11.425
57232W        W29657   9.759   2.763   0.395
57233W        W29658  13.110  25.609  12.376
57234W        W29659  37.073  32.102   1.382
57235W        W29660  36.949  21.706  12.833
57236W        W29661  44.861   8.335  14.953
57237W        W29662  42.962  39.980  11.607
57238W        W29663  13.283  42.322   1.234
57239W        W29664   6.340   0.277  10.514
57240W        W29665   4.927  38.999   1.845
57241W        W29666  17.584  20.748   2.798
57242W        W29667  42.402   2.370  13.400
57243W        W29668  28.631  32.611   3.256
57244W        W29669  28.061  15.588   9.980
57245W        W29670   7.402  28.573  12.476
57246W        W29671   2.349  19.679  14.012
57247W        W29672  32.488   3.455  14.512
57248W        W29673  30.085  14.183   4.114
57249W        W29674  19.744   8.324   1.366
57250W        W29675  12.690  13.282   3.241
57251W        W29676  38.354  10.825  13.812
57252W        W29677  10.174   2.409   2.819
57253W        W29678  36.909  23.576  11.549
57254W        W29679  13.121  44.336   2.204
57255W        W29680   6.321  24.996   2.219
57256W        W29681  33.551  21.619   4.140
57257W        W29682   1.956  19.570  12.401
57258W        W29683   8.851   5.723   0.383
57259W        W29684  20.607  42.396  10.586
57260W        W29685  35.562  40.531  14.357
57261W        W29686  38.860  33.097   9.967
57262W        W29687  13.746   5.742  13.494
57263W        W29688   2.760  11.337   2.841
57264W        W29689   7.206  10.677   2.407
57265W        W29690  29.977  34.976  10.434
57266W        W29691  14.703   3.734   5.304
57267W        W29692  23.020  15.301   1.229
57268W        W29693   3.917   6.257   0.739
57269W        W29694   1.907  13.627   3.282
57270W        W29695  37.457  21.758  13.453
57271W        W29696  18.773  34.426   3.272
57272W        W29697  41.292   4.798  12.975
57273W        W29698  12.835  41.435   3.713
57274W        W29699  32.549  38.338  12.908
57275W        W29700  20.718  11.676   4.603
57276W        W29701   4.738  29.576   4.175
57277W        W29702  42.472   1.867   4.694
57278W        W29703   6.770  44.470   2.239
57279W        W29704  32.438  17.219  11.928
57280W        W29705  27.019  13.284  11.524
57281W        W29706   1.362  17.268  14.897
57282W        W29707  40.846   6.293   1.378
57283W        W29708  39.890   7.272  11.877
57284W        W29709  27.483  26.643  10.953
57285W        W29710   3.742  35.063  10.643
57286W        W29711  27.618  37.448  10.998
57287W        W29712  25.497   3.886  14.954
57288W        W29713  18.680  44.486  14.483
57289W        W29714  38.046  32.487   1.719
57290W        W29715   7.712  11.287   4.613
57291W        W29716  26.559  40.852   2.678
57292W        W29717  26.191  35.064  13.529
57293W        W29718  38.928   0.294   2.903
57294W        W29719  40.049  15.639   0.848
57295W        W29720  38.061  23.626  12.045
57296W        W29721  37.362  29.592   0.884
57297W        W29722  14.706  18.679  13.536
57298W        W29723   5.314  28.040  10.448
57299W        W29724   1.866  12.171   2.180
57300W        W29725  38.822  20.533   4.320
57301W        W29726  23.218  18.656  11.937
57302W        W29727  29.973  34.398   2.880
57303W        W29728  38.340   1.246   4.351
57304W        W29729  15.632  34.539   9.996
57305W        W29730   4.944   1.885  11.032
57306W        W29731  33.041  40.023  11.894
57307W        W29732  31.622  18.567  11.879
57308W        W29733   2.939  20.710   3.358
57309W        W29734   8.317  42.822  10.410
57310W        W29735   2.905  14.181  11.929
57311W        W29736  36.409  22.163   3.868
57312W        W29737  11.206  42.832  10.426
57313W        W29738   0.857  42.513   1.723
57314W        W29739   1.266  17.166   3.716
57315W        W29740  40.387  21.129   2.809
57316W        W29741  27.045  15.812  10.614
57317W        W29742  28.075  31.632   2.409
57318W        W29743  21.677  31.926  12.976
57319W        W29744  43.916  11.636   4.123
57320W        W29745  30.046  36.505  11.033
57321W        W29746  44.297   6.398   3.852
57322W        W29747  40.957  23.132  13.476
57323W        W29748  29.583  19.204  14.920
57324W        W29749  28.490   4.918  10.417
57325W        W29750  24.045  16.167   0.881
57326W        W29751  16.304  34.544   1.800
57327W        W29752   4.815  34.060  10.944
57328W        W29753  35.527   7.392  11.899
57329W        W29754  38.034  20.192   1.410
57330W        W29755   0.915   1.863  11.106
57331W        W29756  34.511  30.112   0.468
57332W        W29757  21.203  24.704  13.851
57333W        W29758   0.467  31.622  14.955
57334W        W29759  32.439  10.758  11.043
57335W        W29760  29.080  20.226  13.901
57336W        W29761  18.574  43.470   4.810
57337W        W29762  35.412  44.959  12.879
57338W        W29763  44.919   1.829   2.824
57339W        W29764  14.757  35.427   2.712
57340W        W29765  18.769  40.328  14.932
57341W        W29766   5.806  16.664   3.213
57342W        W29767  13.142  33.081  11.051
57343W        W29768  35.923  27.526  12.053
57344W        W29769   7.216   0.889   3.811
57345W        W29770  38.340  38.460   0.805
57346W        W29771   3.362  30.500   5.116
57347W        W29772  36.500  21.160  10.462
57348W        W29773  13.274   4.714  10.090
57349W        W29774  31.927  42.498  14.459
57350W        W29775  12.312   2.756   5.290
57351W        W29776   4.938  15.165   9.985
57352W        W29777  43.971  41.950   1.434
57353W        W29778  19.688  24.089  12.871
57354W        W29779  30.608  18.667   2.250
57355W        W29780  38.496  44.348   2.369
57356W        W29781  41.911  29.449  10.109
57357W        W29782  33.027  18.688  11.069
57358W        W29783   3.770  22.726  11.031
57359W        W29784  16.594  18.121   2.899
57360W        W29785  28.435  14.758  14.883
57361W        W29786  43.971  36.074   2.735
57362W        W29787   3.219  26.202  14.926
57363W        W29788  36.496  16.202   2.724
57364W        W29789  21.590  34.559  13.002
57365W        W29790  36.378  31.958  13.481
57366W        W29791  15.693  41.810   4.325
57367W        W29792  37.859  21.603  12.433
57368W        W29793  14.754  13.342   4.307
57369W        W29794  36.907  31.471   1.746
57370W        W29795   3.438   6.790   2.679
57371W        W29796  44.274   6.862   3.645
57372W        W29797  11.154  29.997  12.064
57373W        W29798   4.410  11.686  14.815
57374W        W29799   2.746   1.799   1.898
57375W        W29800  25.117  37.375  13.944
57376W        W29801  22.109  18.790  12.861
57377W        W29802  22.508   9.818  10.492
57378W        W29803  30.041   7.684  11.967
57379W        W29804   2.291  17.610   4.669
57380W        W29805  38.856  36.547   1.855
57381W        W29806  28.947  36.441   2.717
57382W        W29807  36.925  19.760   1.773
57383W        W29808  22.616  42.829   0.786
57384W        W29809  14.232  14.768   3.737
57385W        W29810   3.945  10.774  10.461
57386W        W29811  31.642  38.014   4.135
57387W        W29812  20.737  37.549  10.097
57388W        W29813  12.360  18.053  14.301
57389W        W29814   0.484  29.426  14.902
57390W        W29815  24.165   4.216   4.298
57391W        W29816  22.545   4.804   0.332
57392W        W29817  37.922  39.025   0.934
57393W        W29818  21.540   2.329  14.429
57394W        W29819  36.396  15.810  11.890
57395W        W29820  39.432  36.545  11.071
57396W        W29821  29.534  35.857  11.896
57397W        W29822  34.557  38.056  11.463
57398W        W29823  10.726   4.831  14.309
57399W        W29824  41.955  33.539   0.848
57400W        W29825   8.822   3.785  10.978
57401W        W29826  39.522  40.456   2.753
57402W        W29827   0.829  26.687  10.606
57403W        W29828  28.502  28.057  11.581
57404W        W29829  21.135  33.931   1.322
57405W        W29830  25.032  40.442  13.827
57406W        W29831  43.010   3.792   2.202
57407W        W29832   6.748  22.238  12.495
57408W        W29833  35.494  13.721  12.040
57409W        W29834   2.267  38.333   1.320
57410W        W29835  10.833  25.076  14.422
57411W        W29836  26.077  18.616   3.334
57412W        W29837  20.081  15.119  11.898
57413W        W29838  20.530  13.122   2.805
57414W        W29839  40.988  31.045   1.931
57415W        W29840  27.509  17.263   1.785
57416W        W29841  30.142  40.042  14.846
57417W        W29842  16.177   3.303   3.658
57418W        W29843  28.568  14.231   4.183
57419W        W29844  16.685  26.130   3.277
57420W        W29845   4.811  11.832   0.356
57421W        W29846  21.630  21.197  13.483
57422W        W29847  40.537  18.264  11.117
57423W        W29848  10.825  33.456  11.947
57424W        W29849  26.097   7.403   1.332
57425W        W29850  39.374  42.293  10.406
57426W        W29851  15.096   3.911   2.298
57427W        W29852  24.709   2.438   2.298
57428W        W29853   6.884  20.076   2.770
57429W        W29854   5.400  18.062  12.011
57430W        W29855  28.137  28.533  14.800
57431W        W29856   8.870  43.328   3.850
57432W        W29857  30.553  27.153  10.910
57433W        W29858  24.491  36.466  10.423
57434W        W29859  33.951   4.885   9.963
57435W        W29860  38.840   6.195  11.562
57436W        W29861  25.212  20.131  14.473
57437W        W29862  15.099  40.823  10.621
57438W        W29863  38.341  25.548  13.063
57439W        W29864   1.886  41.960  14.433
57440W        W29865  38.479  12.778   0.873
57441W        W29866  17.738   4.373  13.372
57442W        W29867   8.809  32.090   3.844
57443W        W29868  44.827  40.924   3.310
57444W        W29869  13.351  25.513  10.132
57445W        W29870   6.817  16.740   2.763
57446W        W29871   4.942  39.507   3.735
57447W        W29872  38.356  27.600   0.360
57448W        W29873  32.956  37.942  12.923
57449W        W29874  27.994   6.771   4.188
57450W        W29875   9.153  23.730  13.354
57451W        W29876  28.111   1.282  10.455
57452W        W29877  43.320   4.246   3.687
57453W        W29878   9.778  19.625   2.217
57454W        W29879  23.623  20.737   3.675
57455W        W29880  20.558  15.159  13.530
57456W        W29881  32.632  29.968   0.388
57457W        W29882  20.169  37.988  10.549
57458W        W29883  19.225  12.139   3.638
57459W        W29884  35.583  40.517  13.949
57460W        W29885   0.828  25.671  11.913
57461W        W29886   8.799   7.698   3.857
57462W        W29887  37.854  10.168   4.649
57463W        W29888  19.123  25.476   3.329
57464W        W29889  18.185   2.241  12.375
57465W        W29890  30.001  41.863  13.934
57466W        W29891   3.908  22.103  12.580
57467W        W29892  25.480  37.851  11.497
57468W        W29893  32.525   0.906  13.852
57469W        W29894  14.149  14.745  13.541
57470W        W29895  41.934   4.447   2.679
57471W        W29896  37.529  30.933   0.271
57472W        W29897  38.872  13.131   0.921
57473W        W29898  31.924  18.572   5.138
57474W        W29899  35.938  11.749   1.759
57475W        W29900   2.339  29.176   3.282
57476W        W29901   4.325  24.170   2.268
57477W        W29902  38.365  12.183  11.066
57478W        W29903   7.773   8.343  13.917
57479W        W29904   3.271  13.627   3.221
57480W        W29905   3.775  36.388  14.464
57481W        W29906  18.758  32.890   0.432
57482W        W29907  36.983   9.257  14.370
57483W        W29908  35.044  38.903   4.624
57484W        W29909  43.888  38.863   0.404
57485W        W29910   2.342  19.652  14.295
57486W        W29911  13.795  34.478  11.957
57487W        W29912  38.858  24.231  11.081
57488W        W29913   7.174  28.167   2.880
57489W        W29914  39.401  43.508   1.777
57490W        W29915  43.403  20.247   2.777
57491W        W29916  39.856  33.513  10.595
57492W        W29917  41.876   3.301   2.372
57493W        W29918  34.891  14.213  12.061
57494W        W29919  30.486  39.044  11.000
57495W        W29920  42.320  24.717  11.881
57496W        W29921  17.623   9.307  13.328
57497W        W29922   9.789  36.357   3.295
57498W        W29923  14.286   2.849  12.462
57499W        W29924  20.758   7.225  14.948
57500W        W29925  22.687  26.608  11.036
57501W        W29926  31.579  22.235   1.763
57502W        W29927  21.196  12.116   0.350
57503W        W29928  23.641   6.704   2.273
57504W        W29929   4.869  37.023   3.725
57505W        W29930  31.513  14.830  10.477
57506W        W29931  37.020   7.223   1.210
57507W        W29932  20.550  13.813   0.769
57508W        W29933   8.213  15.263  12.852
57509W        W29934   4.261   0.852  10.537
57510W        W29935  43.808  12.736  12.547
57511W        W29936  11.714  36.412   3.834
57512W        W29937  35.574  22.560   0.349
57513W        W29938  19.092  12.660   3.274
57514W        W29939   2.297  39.895  11.502
57515W        W29940   8.661  17.790  10.569
57516W        W29941  19.741  27.568  11.879
57517W        W29942  17.798  24.981  11.492
57518W        W29943  25.666   2.409  14.441
57519W        W29944  11.230  16.211   1.335
57520W        W29945  22.212  24.498   3.758
57521W        W29946  13.680  22.013   5.733
57522W        W29947  14.155  18.643   4.670
57523W        W29948   1.901  39.881   2.847
57524W        W29949  21.728  42.340  11.374
57525W        W29950   4.373   7.349   4.687
57526W        W29951  34.864   2.380  14.395
57527W        W29952  26.502  28.577   4.282
57528W        W29953  29.506  19.684  14.990
57529W        W29954  44.270  36.547  14.442
57530W        W29955   3.848  38.840   0.448
57531W        W29956  37.513  33.580   2.325
57532W        W29957  26.971  38.939  10.638
57533W        W29958  32.602  25.708   2.316
57534W        W29959   2.314  22.697   3.828
57535W        W29960  22.695  36.986  11.598
57536W        W29961  30.115  17.738   2.227
57537W        W29962  21.677  32.965  13.407
57538W        W29963  30.560  39.033   2.282
57539W        W29964  14.157  40.306   2.825
57540W        W29965  18.585  28.103   2.877
57541W        W29966  34.952  16.220   0.866
57542W        W29967  20.207  37.493  10.945
57543W        W29968   2.261  11.663   2.707
57544W        W29969  18.090  27.181   1.748
57545W        W29970  41.464  33.925   1.856
57546W        W29971   9.225   9.196  12.930
57547W        W29972  18.754  14.742  10.557
57548W        W29973  20.157  28.036  11.857
57549W        W29974  17.704  23.076   3.828
57550W        W29975  38.989   1.412  11.591
57551W        W29976  17.297  14.718  12.876
57552W        W29977  16.099   8.814   2.755
57553W        W29978  17.625  44.321   2.890
57554W        W29979   9.767  15.769  11.457
57555W        W29980  11.768   8.822   2.403
57556W        W29981   6.707   6.327  11.386
57557W        W29982  25.154  13.300   2.239
57558W        W29983  10.662  28.178  14.399
57559W        W29984  36.477  39.810   0.864
57560W        W29985   8.273  34.989  12.957
57561W        W29986  41.384  23.135  14.788
57562W        W29987  44.425  30.079  13.862
57563W        W29988   6.786  25.646   2.896
57564W        W29989   8.374   9.825   1.735
57565W        W29990   8.174  16.233  14.923
57566W        W29991   6.401  14.637   0.904
57567W        W29992  28.980  29.923  11.389
57568W        W29993   8.210  42.372  12.443
57569W        W29994  24.211  15.099  10.919
57570W        W29995   3.388  29.115   0.433
57571W        W29996  33.924  29.455  11.959
57572W        W29997  30.117  10.379  13.011
57573W        W29998  20.709  42.879  14.849
57574W        W29999   5.296  17.654  10.440
57575W        W30000  43.974   4.393  13.531
57576W        W30001   5.791  39.323  12.463
57577W        W30002  36.542  15.280   3.208
57578W        W30003   6.833   2.883   2.829
57579W        W30004  10.160  42.884  11.389
57580W        W30005  34.932  37.997  12.023
57581W        W30006   6.330  41.363  10.059
57582W        W30007  35.880  30.551   1.254
57583W        W30008   2.288   6.715  13.008
57584W        W30009  40.988  33.396   4.821
57585W        W30010  27.629  12.638   1.269
57586W        W30011  10.851  25.157   1.309
57587W        W30012   5.219  31.524  12.492
57588W        W30013  21.256  31.140  14.802
57589W        W30014  23.551   9.392  13.934
57590W        W30015   4.324   3.400  11.108
57591W        W30016  32.579  31.406   2.845
57592W        W30017   2.803  37.507  13.521
57593W        W30018  43.806  32.952  10.953
57594W        W30019  24.171  30.451   2.250
57595W        W30020  11.285  33.523   1.385
57596W        W30021  13.204  20.569   1.799
57597W        W30022  12.238  21.741   2.722
57598W        W30023   8.717  19.202  13.019
57599W        W30024  16.223  17.172   2.758
57600W        W30025   9.207  28.057   2.678
57601W        W30026  38.388  39.880   0.953
57602W        W30027  10.795  36.053   5.113
57603W        W30028  18.547  12.189  13.511
57604W        W30029  15.155  22.574  11.024
57605W        W30030  36.399  38.889  12.464
57606W        W30031   4.299  44.914   1.709
57607W        W30032  36.580   1.378   2.182
57608W        W30033  14.817  20.073  13.438
57609W        W30034   6.819  10.853   3.842
57610W        W30035  31.136  24.487  11.578
57611W        W30036  35.507  24.662  13.903
57612W        W30037  24.577  26.200  14.922
57613W        W30038   7.742  15.242  14.334
57614W        W30039   2.294  36.036   0.464
57615W        W30040   0.825  25.676   3.674
57616W        W30041  44.388   6.312   2.777
57617W        W30042   8.884   6.783  10.461
57618W        W30043  36.958  11.636   1.901
57619W        W30044   7.202  15.291   2.753
57620W        W30045  32.095  33.876  11.124
57621W        W30046  41.395  32.607  12.082
57622W        W30047   4.256  17.076   4.615
57623W        W30048  39.012  40.817  13.365
57624W        W30049  18.774  11.791   1.879
57625W        W30050   3.731  28.933  11.462
57626W        W30051   1.880  23.591   3.808
57627W        W30052  33.977   2.456  13.007
57628W        W30053   9.314  36.495  14.767
57629W        W30054  36.424   8.860   3.752
57630W        W30055  37.428  15.198  12.385
57631W        W30056  13.725  28.153  14.286
57632W        W30057   9.700  15.811   4.637
57633W        W30058  41.870  28.436   4.794
57634W        W30059   1.430  27.033   4.648
57635W        W30060   5.914  41.930  10.551
57636W        W30061  13.804  18.277  12.430
57637W        W30062  24.513  38.434   3.698
57638W        W30063  30.164  26.127  11.587
57639W        W30064  12.758   5.821   4.200
57640W        W30065  36.032   8.205   0.848
57641W        W30066   0.837  40.823   2.207
57642W        W30067  28.521  10.678  10.576
57643W        W30068  15.195  32.611   0.331
57644W        W30069   7.854  25.096   2.210
57645W        W30070  28.027  16.315  13.447
57646W        W30071  24.578   9.221  10.898
57647W        W30072  17.623  16.218   1.354
57648W        W30073  30.617  33.400   1.830
57649W        W30074  38.378  34.582   3.330
57650W        W30075  35.002   0.402   1.334
57651W        W30076   8.722  21.563  14.323
57652W        W30077  40.350  13.220  12.526
57653W        W30078  42.948  22.048  12.055
57654W        W30079  13.809  30.532   1.770
57655W        W30080  30.598   8.853   1.404
57656W        W30081  11.319   1.245   4.341
57657W        W30082  23.077  28.567  14.005
57658W        W30083   6.397  18.696  13.834
57659W        W30084   2.226  19.704  12.356
57660W        W30085  43.287   6.389  10.107
57661W        W30086  40.468  23.012   4.187
57662W        W30087  39.828  28.095   2.901
57663W        W30088  31.410  11.346   4.802
57664W        W30089  34.401  40.457  12.357
57665W        W30090  12.749  37.498   0.842
57666W        W30091  43.441  21.562  13.893
57667W        W30092  22.092   7.286  14.938
57668W        W30093   9.647  22.017  12.556
57669W        W30094   5.248  42.301   3.861
57670W        W30095  30.578  26.687  11.083
57671W        W30096  43.430   6.306  14.302
57672W        W30097  44.424   4.401   1.363
57673W        W30098   3.229  17.294  12.020
57674W        W30099  10.811  17.207   0.368
57675W        W30100  31.632   2.778  12.855
57676W        W30101  12.836  35.576   0.396
57677W        W30102  27.500  22.723   5.676
57678W        W30103  36.401  44.762  10.585
57679W        W30104   8.793  12.164  14.311
57680W        W30105   3.290  43.426   4.282
57681W        W30106  32.495  34.585  12.549
57682W        W30107  16.607  42.012  11.001
57683W        W30108  39.815  25.107   0.271
57684W        W30109  25.582   7.260  12.839
57685W        W30110  38.983  11.742   0.860
57686W        W30111  23.163  19.661   2.209
57687W        W30112  33.006  13.239   1.709
57688W        W30113  37.498   9.270   9.980
57689W        W30114  28.030  13.288  13.052
57690W        W30115  22.144  11.817   4.132
57691W        W30116  35.383  15.196  14.374
57692W        W30117  41.878  29.057  14.893
57693W        W30118  39.410  15.300   4.739
57694W        W30119   8.299   9.271   0.732
57695W        W30120  43.843  40.992  12.002
57696W        W30121  14.139   6.904   0.816
57697W        W30122  26.052  32.476  10.408
57698W        W30123  12.234  14.231   4.709
57699W        W30124  15.124  34.868   2.669
57700W        W30125  13.679  20.102  10.623
57701W        W30126   9.833  14.725  13.398
57702W        W30127  40.307  38.845  12.096
57703W        W30128  10.647  11.348  12.052
57704W        W30129  31.046   1.891   0.463
57705W        W30130   2.315   3.431  12.012
57706W        W30131   8.791  12.252   3.791
57707W        W30132  37.845   2.380  13.987
57708W        W30133  35.076  32.901  13.530
57709W        W30134  41.886   8.287   3.334
57710W        W30135  20.717  24.226   1.449
57711W        W30136  44.868   5.893   0.303
57712W        W30137  34.443  36.431  11.117
57713W        W30138  10.828  24.036   3.665
57714W        W30139   2.964   4.929  13.827
57715W        W30140  36.918  29.154  14.860
57716W        W30141  22.697   3.273   3.646
57717W        W30142  15.687  27.524  12.511
57718W        W30143  13.723  15.115  11.073
57719W        W30144  18.646   4.752   3.329
57720W        W30145  24.011  32.436   4.347
57721W        W30146  32.568  31.932   1.912
57722W        W30147  33.496  18.710   1.266
57723W        W30148  24.173  12.271   5.133
57724W        W30149   5.913   1.264  10.923
57725W        W30150  21.259  30.016   1.435
57726W        W30151   2.721  39.821   0.268
57727W        W30152   0.471  25.545   0.439
57728W        W30153  10.180  39.463   5.286
57729W        W30154  11.773  15.721  11.063
57730W        W30155  40.357  41.535  12.393
57731W        W30156  15.139   6.748   4.624
57732W        W30157  16.112  30.150   2.275
57733W        W30158  30.500  21.590   5.137
57734W        W30159  33.556   4.844   4.238
57735W        W30160   7.801  17.195   2.688
57736W        W30161  37.947  39.061   2.787
57737W        W30162  37.408   6.911   1.337
57738W        W30163  30.650   7.194  14.009
57739W        W30164   2.804  17.238  13.315
57740W        W30165  15.211   3.241   0.899
57741W        W30166  21.524   0.921   0.291
57742W        W30167  41.893   5.340   2.383
57743W        W30168  37.900  20.764   0.822
57744W        W30169   1.243  24.604   2.340
57745W        W30170  29.930  18.083   0.951
57746W        W30171  14.617   4.842   3.158
57747W        W30172   2.237  35.919  11.032
57748W        W30173  15.191  26.139   1.390
57749W        W30174  37.040  33.595   4.229
57750W        W30175  42.293  11.774   3.658
57751W        W30176   1.310  22.075  11.408
57752W        W30177  13.755  33.613  11.925
57753W        W30178  32.420  41.523  13.978
57754W        W30179   2.905  30.047   2.216
57755W        W30180  31.060  10.730   2.334
57756W        W30181  17.730  28.121   2.826
57757W        W30182  39.411   5.430   1.783
57758W        W30183   5.902  24.701   2.707
57759W        W30184  27.592  15.083   2.270
57760W        W30185  10.666   9.684  13.331
57761W        W30186  12.260   1.811  12.528
57762W        W30187   9.718  33.488   0.750
57763W        W30188  24.648   9.181  12.956
57764W        W30189  35.395  15.129   3.700
57765W        W30190  10.746   5.909   3.801
57766W        W30191  39.033  29.561   3.278
57767W        W30192  44.987   9.175   0.417
57768W        W30193  22.165  32.539  14.838
57769W        W30194  17.708   6.329   4.304
57770W        W30195  41.414   5.425   1.810
57771W        W30196  39.881  22.176   0.829
57772W        W30197  36.955   4.819   0.766
57773W        W30198  21.666   1.243   2.250
57774W        W30199  41.907  25.582  11.492
57775W        W30200  42.961   6.196  14.901
57776W        W30201  33.878  14.312   3.177
57777W        W30202   4.218  27.593   4.612
57778W        W30203   8.690  38.383   0.356
57779W        W30204  32.942  15.135   0.771
57780W        W30205  26.564  14.659  12.557
57781W        W30206  42.294  10.247  12.476
57782W        W30207  14.181  40.332   1.919
57783W        W30208  39.518   1.948   3.655
57784W        W30209  20.120  27.191   0.928
57785W        W30210  42.813   8.699  14.789
57786W        W30211  37.345  38.991   4.636
57787W        W30212  11.367  24.594   9.981
57788W        W30213  14.229  22.129  12.034
57789W        W30214   2.876  13.637  11.475
57790W        W30215  42.804   6.362   0.395
57791W        W30216   6.902  35.002   2.296
57792W        W30217  12.174  11.690   0.338
57793W        W30218  24.121  35.970   5.196
57794W        W30219  27.944  15.631   1.381
57795W        W30220   6.418   7.329   0.438
57796W        W30221  42.491   3.710   2.230
57797W        W30222  24.579  23.238   0.804
57798W        W30223  14.615  40.049  10.972
57799W        W30224  22.517  17.682   0.275
57800W        W30225  19.201  12.655   1.722
57801W        W30226  25.563  37.430   4.633
57802W        W30227  22.095  25.579   3.240
57803W        W30228   5.744  25.470  11.947
57804W        W30229   1.468  41.986  12.985
57805W        W30230   4.352  21.560   2.408
57806W        W30231  34.461  44.294  12.002
57807W        W30232  31.137  27.500   2.692
57808W        W30233   2.798   1.408  12.430
57809W        W30234  10.189   9.174  11.088
57810W        W30235  35.062   6.294   3.171
57811W        W30236  22.166  11.857   1.412
57812W        W30237   1.978  24.982  14.942
57813W        W30238   5.235   7.176   0.446
57814W        W30239  30.555  43.494  13.835
57815W        W30240  37.941  13.607   2.333
57816W        W30241  21.721   4.939   9.968
57817W        W30242  19.057  24.711   1.293
57818W        W30243  43.398   2.241   4.187
57819W        W30244  30.107  19.122   3.732
57820W        W30245  13.271   0.751   3.290
57821W        W30246   1.244  31.514  14.012
57822W        W30247   3.443  28.610   0.791
57823W        W30248  35.105  43.429   0.793
57824W        W30249   6.724   0.299  10.965
57825W        W30250  33.022   5.870   0.360
57826W        W30251  33.457  33.079  10.943
57827W        W30252   3.226  30.988  14.404
57828W        W30253  41.930   7.174  10.136
57829W        W30254   6.268  24.184  13.330
57830W        W30255  18.102   0.376  12.480
57831W        W30256  39.947  26.485  13.970
57832W        W30257  16.207  24.646  14.892
57833W        W30258  29.590  21.546   2.326
57834W        W30259  24.147   0.431  13.994
57835W        W30260  28.977   5.911  10.931
57836W        W30261  39.899  36.348  12.491
57837W        W30262  41.332  24.654   3.669
57838W        W30263   7.886   1.890  10.476
57839W        W30264   4.780  40.006  13.439
57840W        W30265  38.468  38.911  11.575
57841W        W30266  24.031   6.183   1.362
57842W        W30267  20.151  34.058   0.470
57843W        W30268  12.168   8.709   0.282
57844W        W30269  15.643  26.147   0.257
57845W        W30270  17.068  36.075  14.371
57846W        W30271  18.266   3.231  10.603
57847W        W30272  29.615  41.437  13.913
57848W        W30273  33.047  41.968   4.653
57849W        W30274   2.886   9.259  13.307
57850W        W30275  17.202  13.724   4.602
57851W        W30276  14.772  17.222   0.780
57852W        W30277  26.702  21.169  14.306
57853W        W30278  11.313  27.657  13.436
57854W        W30279  33.416  16.198   5.202
57855W        W30280  27.517  17.151   2.361
57856W        W30281  33.455   6.775  12.982
57857W        W30282  44.829  18.586  14.929
57858W        W30283  18.065  20.142   0.401
57859W        W30284  11.842   2.844   1.768
57860W        W30285  27.674  36.363   3.233
57861W        W30286  26.133   4.206   3.778
57862W        W30287  14.307  33.992  10.001
57863W        W30288  38.997  39.017   2.400
57864W        W30289  39.537  22.185  12.930
57865W        W30290  28.142  29.503   2.328
57866W        W30291  38.501  35.517  10.493
57867W        W30292  25.676  25.101   5.216
57868W        W30293   2.329  20.273  11.865
57869W        W30294  33.462  43.826  13.403
57870W        W30295  18.741  24.023  10.433
57871W        W30296  40.872  34.071  12.994
57872W        W30297  24.522  42.802   1.774
57873W        W30298  13.760  35.898  12.030
57874W        W30299  11.821  39.939   1.258
57875W        W30300  12.725   5.387  13.044
57876W        W30301   1.940  34.520  14.972
57877W        W30302   2.244  12.777   1.262
57878W        W30303   2.775  41.850   2.814
57879W        W30304  41.448  31.418  11.600
57880W        W30305   5.789   8.894  12.436
57881W        W30306  17.690  12.186   3.354
57882W        W30307   8.177  33.454   0.748
57883W        W30308  17.717  41.853  13.987
57884W        W30309  11.809  16.812   3.783
57885W        W30310  13.287  14.667   4.829
57886W        W30311   7.713  32.421  14.394
57887W        W30312  34.024  21.703   2.860
57888W        W30313  37.433   1.920  11.058
57889W        W30314  30.497   8.823  13.547
57890W        W30315   9.372  22.540  10.532
57891W        W30316  14.247  38.845   4.246
57892W        W30317   8.272  33.983   1.269
57893W        W30318  22.170  30.554   3.341
57894W        W30319  31.453  10.167   4.242
57895W        W30320   9.202   8.290   2.852
57896W        W30321  12.801  12.724  14.791
57897W        W30322  37.904  38.988   4.274
57898W        W30323  28.537  29.523   0.441
57899W        W30324  34.079   5.351   1.210
57900W        W30325  40.450  29.123  14.891
57901W        W30326  25.504   8.163   4.170
57902W        W30327  37.006  30.589  14.884
57903W        W30328   3.755   7.366   4.143
57904W        W30329   1.366  23.667   1.928
57905W        W30330  40.319  34.964  10.426
57906W        W30331  22.537  32.585   4.675
57907W        W30332  18.622  27.108   4.685
57908W        W30333   9.328   6.830   3.148
57909W        W30334   0.986  23.605   0.872
57910W        W30335   5.825   1.339  14.879
57911W        W30336  43.802  18.556   1.801
57912W        W30337   7.708  21.670  12.464
57913W        W30338  35.941  16.317   1.896
57914W        W30339  24.668  27.673  13.916
57915W        W30340  35.882   9.159   0.803
57916W        W30341  15.198  16.631   0.248
57917W        W30342   3.905   5.855   1.804
57918W        W30343  12.820  14.774  13.919
57919W        W30344  33.111   0.930  11.116
57920W        W30345  30.445  39.430   3.671
57921W        W30346  26.009  39.029  13.322
57922W        W30347  17.213   5.870  12.457
57923W        W30348  14.755  33.556   4.779
57924W        W30349  37.851  27.469  14.313
57925W        W30350  27.616  38.000   1.838
57926W        W30351  32.036  40.861  13.442
57927W        W30352  32.112  19.727   4.614
57928W        W30353  27.471  30.471  14.381
57929W        W30354   6.262  19.243  13.505
57930W        W30355  29.445   1.313   4.685
57931W        W30356  43.782  19.553  12.957
57932W        W30357  25.962  30.017   1.879
57933W        W30358  18.279  25.095   0.367
57934W        W30359   3.323  44.795   1.758
57935W        W30360  29.955  21.526  10.544
57936W        W30361   7.340  42.442  13.841
57937W        W30362  19.066   3.341  10.450
57938W        W30363  16.195  27.627   2.748
57939W        W30364  25.578   1.280   2.403
57940W        W30365   4.824  25.658   0.863
57941W        W30366  22.211  32.083   4.209
57942W        W30367  38.534  39.837   3.859
57943W        W30368   0.404   8.369  13.521
57944W        W30369   0.895   3.441  10.159
57945W        W30370   8.663  42.974   5.156
57946W        W30371  37.363  10.326   5.224
57947W        W30372   1.271   9.276   3.758
57948W        W30373  25.132  34.029  12.549
57949W        W30374  15.275  37.484  13.377
57950W        W30375  36.948  11.304   2.832
57951W        W30376   7.370   6.414   0.330
57952W        W30377  24.697  12.352  13.532
57953W        W30378  44.432  44.441  14.413
57954W        W30379   0.370   9.378   0.891
57955W        W30380  39.332  23.627  13.405
57956W        W30381  28.951  22.232   4.634
57957W        W30382   6.411  31.454   3.677
57958W        W30383   1.434  34.505   0.347
57959W        W30384  26.115  39.880  11.372
57960W        W30385  23.624  35.426  13.415
57961W        W30386  38.433   9.829   2.822
57962W        W30387  31.135   1.959   5.260
57963W        W30388  17.240   1.286  13.791
57964W        W30389  16.737  21.689   1.289
57965W        W30390  38.028  30.415   1.382
57966W        W30391  21.190   4.930   1.350
57967W        W30392  23.026  17.247   3.377
57968W        W30393  19.098  38.877   0.445
57969W        W30394  43.876  44.428  13.455
57970W        W30395  37.886  29.469  11.484
57971W        W30396  24.567  44.416   1.384
57972W        W30397  17.699  44.909  10.947
57973W        W30398  43.849  22.558  14.759
57974W        W30399  42.782   6.816   0.956
57975W        W30400   6.316   3.920   1.821
57976W        W30401   5.382  11.154  13.947
57977W        W30402  22.668  27.169   2.260
57978W        W30403  30.639   4.414   1.257
57979W        W30404  27.980  27.082  14.933
57980W        W30405   3.337   5.736  13.377
57981W        W30406  16.079  34.548   5.658
57982W        W30407  10.680  18.715   4.315
57983W        W30408  34.585   6.868  11.454
57984W        W30409  17.254   9.293  11.579
57985W        W30410  18.259  43.353   2.732
57986W        W30411  36.018  37.940   0.376
57987W        W30412   1.742   5.864  11.977
57988W        W30413  14.642  30.472  10.582
57989W        W30414  29.624  32.508   0.297
57990W        W30415  38.474  40.866  13.323
57991W        W30416  31.639  38.025  13.996
57992W        W30417  17.128  12.140   2.754
57993W        W30418   8.250  14.249   2.860
57994W        W30419  11.651   2.852  11.497
57995W        W30420   4.278  22.206   3.737
57996W        W30421  16.281  17.125  14.909
57997W        W30422  21.061   0.405   3.684
57998W        W30423  26.539  28.571  13.806
57999W        W30424   5.320  36.082   1.250
58000W        W30425   4.226  14.187   4.691
58001W        W30426  35.006  13.336  13.799
58002W        W30427  37.506   2.966   4.126
58003W        W30428  36.511  22.535  12.047
58004W        W30429  35.379  10.216   4.166
58005W        W30430  36.841  18.296   1.267
58006W        W30431  33.473  29.540  12.482
58007W        W30432  29.450   2.360   2.233
58008W        W30433  30.609  29.561   2.415
58009W        W30434  10.288  19.589   0.471
58010W        W30435  43.945  39.549   3.756
58011W        W30436   8.311  25.524  12.405
58012W        W30437  16.686  36.979   3.792
58013W        W30438  21.561  33.910   2.897
58014W        W30439  15.593  27.942  14.362
58015W        W30440  36.073   7.863  12.034
58016W        W30441  40.894  38.857   2.736
58017W        W30442  29.559   4.888   3.309
58018W        W30443  29.057  30.596   4.773
58019W        W30444  23.579  24.642  12.489
58020W        W30445   5.833   3.798  12.858
58021W        W30446  20.597  24.580   2.779
58022W        W30447  36.441  25.070   3.323
58023W        W30448  23.630  18.204   4.779
58024W        W30449   7.855   9.716  12.570
58025W        W30450  12.613  20.223   2.209
58026W        W30451  22.067  16.576   3.343
58027W        W30452  11.771  36.007  13.548
58028W        W30453  16.792  24.046  14.392
58029W        W30454  38.994  29.011   3.644
58030W        W30455  31.535  10.685   0.365
58031W        W30456   2.950  33.545  10.917
58032W        W30457  41.336   6.851   2.273
58033W        W30458   7.912  44.846  14.473
58034W        W30459  14.621  31.905   1.366
58035W        W30460   4.747   5.355   2.197
58036W        W30461  41.959   3.217   0.753
58037W        W30462  20.686  21.727  10.899
58038W        W30463  36.940   3.736   1.855
58039W        W30464  28.001  18.626  11.878
58040W        W30465  29.992   3.223   5.254
58041W        W30466   3.349   3.346  11.479
58042W        W30467  11.664  12.752  11.928
58043W        W30468  34.961   1.392   0.788
58044W        W30469   6.387  18.589   1.903
58045W        W30470  17.104  41.402   4.125
58046W        W30471  43.315  18.072   1.848
58047W        W30472   5.214   2.776   4.248
58048W        W30473  34.943  13.226  12.080
58049W        W30474  30.123  10.826   0.854
58050W        W30475  18.598  15.691   5.143
58051W        W30476  40.371  40.982   0.329
58052W        W30477  25.188  24.047  14.302
58053W        W30478  38.057  22.186  12.041
58054W        W30479  29.431  17.629   0.835
58055W        W30480   6.424   7.761  13.449
58056W        W30481  38.068  38.865   3.154
58057W        W30482  15.764   8.214   3.696
58058W        W30483  23.176  39.501  13.401
58059W        W30484  26.994  14.757  11.501
58060W        W30485  44.331   5.409   2.781
58061W        W30486  44.281  10.341   1.920
58062W        W30487  34.541  11.204   1.284
58063W        W30488  44.319  20.084   4.313
58064W        W30489  24.183  42.970   4.778
58065W        W30490   0.931  18.719  12.483
58066W        W30491  14.636   6.923  13.471
58067W        W30492   0.828  22.504  10.926
58068W        W30493   3.281  13.265  12.898
58069W        W30494  43.848  19.147  12.864
58070W        W30495  35.024  24.209   1.219
58071W        W30496  12.261  26.959  11.525
58072W        W30497  43.917  13.655  11.564
58073W        W30498  39.337  28.544  14.855
58074W        W30499  30.590  21.619  12.516
58075W        W30500  43.318  23.207  14.889
58076W        W30501  39.465  32.633  12.944
58077W        W30502  35.455  22.997   3.630
58078W        W30503   5.763  23.196  11.925
58079W        W30504  43.368  37.027   0.727
58080W        W30505   5.933  25.509   4.155
58081W        W30506  43.902  13.813  13.056
58082W        W30507  21.683  44.844  11.075
58083W        W30508  13.287  41.801   4.696
58084W        W30509  25.594   1.343   4.652
58085W        W30510  40.528   8.797   2.784
58086W        W30511  10.651  32.040  11.944
58087W        W30512  37.951  21.192   2.726
58088W        W30513  28.042  38.963  11.877
58089W        W30514   1.903  23.008  13.851
58090W        W30515  32.107  14.138   4.631
58091W        W30516  11.362  35.863  12.388
58092W        W30517  28.572  39.552  13.547
58093W        W30518  28.650  13.322   4.793
58094W        W30519  28.476  41.307  10.557
58095W        W30520  17.794  34.883   5.200
58096W        W30521  13.654  10.869   3.642
58097W        W30522  18.191  29.032  12.502
58098W        W30523  22.507  28.050   0.464
58099W        W30524  42.321  21.136   0.932
58100W        W30525   2.276   1.924  14.995
58101W        W30526  43.424  44.847   3.355
58102W        W30527  37.445   6.879   5.670
58103W        W30528  34.556  42.294  12.478
58104W        W30529  40.330   6.421   2.689
58105W        W30530  22.608   6.225   1.262
58106W        W30531  28.438   6.769   1.773
58107W        W30532  42.851   8.891  11.386
58108W        W30533   0.747  17.280   0.764
58109W        W30534  22.505  39.346   2.779
58110W        W30535  13.236  24.076  13.936
58111W        W30536  28.488  30.161  12.933
58112W        W30537   5.268  29.092  13.799
58113W        W30538  38.854  43.008   0.786
58114W        W30539  39.050  35.512  12.469
58115W        W30540  12.165   2.915   4.699
58116W        W30541   3.335  14.782  13.536
58117W        W30542  37.466   9.395   1.824
58118W        W30543  20.104  40.377  14.301
58119W        W30544  37.842  44.974  14.943
58120W        W30545  27.174  37.066   1.388
58121W        W30546  40.431   5.914   1.757
58122W        W30547  36.095   7.899  13.852
58123W        W30548  12.285  19.744  10.601
58124W        W30549  15.588  15.691   3.674
58125W        W30550   4.316  25.995   0.887
58126W        W30551  23.604  41.808   4.633
58127W        W30552   5.900   8.273  12.089
58128W        W30553  43.362  22.187   0.848
58129W        W30554   7.305  25.100  11.911
58130W        W30555  10.788  42.288  14.871
58131W        W30556   4.722  27.150   1.732
58132W        W30557  28.464  40.834   2.748
58133W        W30558  26.667   2.916  12.020
58134W        W30559  34.522  38.488   2.218
58135W        W30560  36.939  27.495  14.438
58136W        W30561  23.608   7.307   2.731
58137W        W30562   3.247  35.603  13.905
58138W        W30563  28.561  12.134  11.061
58139W        W30564  32.127  33.042   0.959
58140W        W30565  28.965  11.169  13.355
58141W        W30566  35.378   1.960   4.130
58142W        W30567  40.005  14.646   3.744
58143W        W30568  38.371  38.877   4.131
58144W        W30569   0.791  40.969  11.080
58145W        W30570   8.217  14.340   1.315
58146W        W30571   2.433  40.980  13.923
58147W        W30572  39.939   0.908  14.492
58148W        W30573  31.898   0.370  13.532
58149W        W30574  13.273   7.352  12.379
58150W        W30575  24.985  32.929   0.858
58151W        W30576  10.685  36.501   1.789
58152W        W30577  31.906  18.083  11.020
58153W        W30578  28.520  19.713  12.080
58154W        W30579  18.641   1.874   5.131
58155W        W30580  33.988   9.790   1.236
58156W        W30581  30.505  29.613  11.424
58157W        W30582   3.216  14.198   3.655
58158W        W30583  41.362  43.843  13.034
58159W        W30584  12.272  22.030  14.993
58160W        W30585  19.683  12.162   1.419
58161W        W30586   4.718   2.936   1.311
58162W        W30587  37.574  19.060  14.788
58163W        W30588  35.989  30.117  12.948
58164W        W30589  17.640  17.589   3.248
58165W        W30590  18.576  25.998  13.387
58166W        W30591  27.633  10.875   2.730
58167W        W30592  38.334  20.566   1.335
58168W        W30593  32.527  29.580  11.561
58169W        W30594  30.460  11.241  14.840
58170W        W30595  23.513  20.090  12.075
58171W        W30596   9.366  21.019  14.355
58172W        W30597  23.068  16.705  12.908
58173W        W30598  42.854   0.839   5.169
58174W        W30599  28.181   7.415  10.618
58175W        W30600  43.999  10.874   3.377
58176W        W30601   8.231  40.888  10.452
58177W        W30602  18.184  32.607   1.915
58178W        W30603  32.973  38.068   2.301
58179W        W30604  30.140  23.590   2.777
58180W        W30605  19.678  20.760  11.495
58181W        W30606   8.715  38.915   2.363
58182W        W30607  36.916   9.865   5.305
58183W        W30608   8.281  11.197  10.510
58184W        W30609  34.972  20.141  12.390
58185W        W30610  35.073   3.721   2.314
58186W        W30611  31.914   9.235  11.995
58187W        W30612  25.065   5.715  12.563
58188W        W30613  20.111  16.571   3.721
58189W        W30614  17.644   8.361  14.947
58190W        W30615  16.198  14.591   0.734
58191W        W30616   9.217  17.777   0.319
58192W        W30617   1.938  38.895  12.417
58193W        W30618   9.713  26.084  11.385
58194W        W30619  34.509   4.437  10.936
58195W        W30620   7.770   6.759  12.904
58196W        W30621  39.316   7.205   1.815
58197W        W30622   6.211  23.528  13.962
58198W        W30623   8.742  22.012  11.381
58199W        W30624  22.239  17.629  10.534
58200W        W30625  38.338   8.870  13.947
58201W        W30626  15.169  32.929  11.931
58202W        W30627  11.368  37.547  14.936
58203W        W30628  44.420  36.890  12.945
58204W        W30629  13.326  30.072   3.857
58205W        W30630  16.728  44.812  13.012
58206W        W30631  11.852  12.198  12.050
58207W        W30632  28.114  22.651   3.802
58208W        W30633  28.977  30.078  11.866
58209W        W30634  41.990  10.375  10.428
58210W        W30635   1.462  30.451   3.842
58211W        W30636  29.051  11.147   0.871
58212W        W30637  28.645  27.612  12.834
58213W        W30638  24.552  37.461   2.764
58214W        W30639  27.092  29.580  12.547
58215W        W30640  10.264  27.590   1.318
58216W        W30641   4.247   7.404  13.461
58217W        W30642  21.262  24.004   4.719
58218W        W30643  24.564  16.318   3.643
58219W        W30644  17.625   7.845  10.492
58220W        W30645  12.666  16.252   2.233
58221W        W30646   3.259  22.585   0.918
58222W        W30647  14.149   6.700  12.046
58223W        W30648  28.558  35.030   3.650
58224W        W30649  39.051  44.908   2.786
58225W        W30650   7.283  43.933  13.804
58226W        W30651  11.628  25.212   3.827
58227W        W30652  25.561   7.696   0.378
58228W        W30653  32.066  33.558   1.356
58229W        W30654   0.250  12.136   4.349
58230W        W30655  14.132  23.062  14.909
58231W        W30656  36.982  14.693   0.807
58232W        W30657   8.823   0.419   3.302
58233W        W30658  24.526  28.066   3.640
58234W        W30659  31.574   3.292  10.966
58235W        W30660  17.150  14.226  13.499
58236W        W30661  32.001   4.909  12.962
58237W        W30662  38.393  16.096   3.646
58238W        W30663  31.971  27.642   2.840
58239W        W30664  14.609  14.110  11.061
58240W        W30665   1.821  31.437   4.126
58241W        W30666   3.713   1.853  12.515
58242W        W30667   7.729  27.994  13.802
58243W        W30668  15.157  30.550   0.421
58244W        W30669  30.557  44.942   4.191
58245W        W30670  11.676   3.830  11.476
58246W        W30671  28.563  43.326   4.792
58247W        W30672  14.183  32.006  10.538
58248W        W30673  22.540   8.744   4.780
58249W        W30674  12.264   1.415   0.399
58250W        W30675  17.177  16.754   3.329
58251W        W30676  10.339   7.276  10.478
58252W        W30677   2.398  30.466  14.474
58253W        W30678  26.668  25.571   0.472
58254W        W30679  24.526   3.374   3.767
58255W        W30680   0.372  16.110   2.720
58256W        W30681  43.470  23.996   2.860
58257W        W30682  28.641  35.399  12.549
58258W        W30683  42.998  23.068   0.242
58259W        W30684  30.033  29.650   1.827
58260W        W30685  35.556  36.063  13.910
58261W        W30686  11.293  44.500   2.806
58262W        W30687  31.616  27.983  14.450
58263W        W30688  20.563  19.690  13.375
58264W        W30689  10.164  19.101  13.524
58265W        W30690   3.771  44.294  13.961
58266W        W30691  12.359  39.018  11.393
58267W        W30692  44.819   8.810  11.094
58268W        W30693  10.749  43.420  13.316
58269W        W30694  10.726  20.088  11.378
58270W        W30695  24.176  10.278   0.894
58271W        W30696   2.810  39.519   0.807
58272W        W30697   1.955  12.679  12.954
58273W        W30698  38.901   5.719  10.958
58274W        W30699  25.966  25.490   0.305
58275W        W30700  43.422  36.358   4.240
58276W        W30701  15.189  32.413   4.693
58277W        W30702  30.124  31.146  11.403
58278W        W30703  39.343  33.497  12.088
58279W        W30704  39.956  18.177   4.684
58280W        W30705   3.250  20.622  14.763
58281W        W30706  35.571  25.678  11.002
58282W        W30707   0.765  27.515  12.451
58283W        W30708  18.734  25.093   0.819
58284W        W30709  14.604  44.291  14.824
58285W        W30710  37.350   8.342  12.553
58286W        W30711  25.699  42.941   3.784
58287W        W30712  41.967  18.234  11.393
58288W        W30713  42.832  27.623  12.477
58289W        W30714  41.021  41.035   1.915
58290W        W30715  20.658   1.456   2.257
58291W        W30716   4.253  36.530   0.940
58292W        W30717  23.179  13.207   4.702
58293W        W30718  34.883  35.045   4.760
58294W        W30719  21.165  24.548  14.832
58295W        W30720  34.968   6.881   3.682
58296W        W30721  25.102  16.180   3.650
58297W        W30722  36.891  28.582  12.564
58298W        W30723  22.160  13.704  11.420
58299W        W30724  37.975  40.847   4.754
58300W        W30725  21.087  19.247   4.218
58301W        W30726  14.223  19.225  11.530
58302W        W30727  13.211  22.561   0.913
58303W        W30728  15.133  23.051   0.353
58304W        W30729   5.758  16.684  13.403
58305W        W30730  22.209   4.275   3.257
58306W        W30731   8.895  17.142   3.664
58307W        W30732  35.484  34.021  10.887
58308W        W30733  13.758  36.969  14.442
58309W        W30734  42.403  40.496  10.489
58310W        W30735  32.537   1.412   2.667
58311W        W30736  27.998   5.912   0.740
58312W        W30737  24.511  17.242   2.736
58313W        W30738   0.357   0.861   0.427
58314W        W30739  20.626  42.861  12.400
58315W        W30740  13.663   6.746   1.229
58316W        W30741  36.548  27.574  13.991
58317W        W30742  35.469  20.265  11.520
58318W        W30743  12.332  20.164   0.428
58319W        W30744  13.128  36.053   2.253
58320W        W30745   1.435  11.728  14.410
58321W        W30746  26.537   1.746  14.993
58322W        W30747  24.509  35.433   0.880
58323W        W30748  39.387  15.215   4.224
58324W        W30749  34.099  13.226  11.576
58325W        W30750  11.825   7.831  13.804
58326W        W30751   4.810  29.500  12.459
58327W        W30752  44.359   6.767  14.951
58328W        W30753   1.284  10.194   3.856
58329W        W30754  17.072  23.226  12.017
58330W        W30755  38.536   5.210  10.599
58331W        W30756   5.330   4.731   0.314
58332W        W30757  32.893  43.511  13.467
58333W        W30758  19.096  11.340  12.488
58334W        W30759  24.725  15.792  13.309
58335W        W30760  25.587  39.850   3.674
58336W        W30761  11.322  31.126   2.216
58337W        W30762   5.864  19.129   0.249
58338W        W30763   4.715  14.154   2.772
58339W        W30764  37.966   0.431   2.711
58340W        W30765  14.665  32.940  10.457
58341W        W30766  26.954  27.043  11.611
58342W        W30767  10.300  15.597  10.445
58343W        W30768  41.957  32.018  13.397
58344W        W30769  19.263   9.728   1.230
58345W        W30770   1.963  19.115  14.894
58346W        W30771   6.423  18.162  10.040
58347W        W30772  19.661  42.797  12.858
58348W        W30773  25.683  33.057   9.619
58349W        W30774  37.527   9.198   2.263
58350W        W30775  27.673  18.678   0.360
58351W        W30776  15.246   6.892  10.553
58352W        W30777  31.995  40.042  14.444
58353W        W30778  37.885   4.928  10.133
58354W        W30779  30.158   6.791   1.308
58355W        W30780  20.171  39.829  12.448
58356W        W30781  29.662  11.282   3.202
58357W        W30782  36.038   4.350  11.602
58358W        W30783  37.501  40.476   2.707
58359W        W30784   8.895  31.557  11.576
58360W        W30785  28.001  21.169   0.362
58361W        W30786  32.579  33.495  10.159
58362W        W30787  33.961  27.073  11.436
58363W        W30788  24.149   6.263   3.294
58364W        W30789  30.079  41.951  14.816
58365W        W30790  12.284  34.557  10.985
58366W        W30791   0.819   3.849   3.241
58367W        W30792  27.563  36.938   1.344
58368W        W30793  21.560   2.931  14.018
58369W        W30794  39.330  41.398   0.328
58370W        W30795  40.373  13.307   2.870
58371W        W30796  39.883  43.316  12.926
58372W        W30797   7.814  11.209   3.211
58373W        W30798  33.542  39.474   2.783
58374W        W30799  38.989  26.960  14.360
58375W        W30800   0.943  44.280  12.472
58376W        W30801  26.503  19.051  10.998
58377W        W30802  28.072  26.031   2.374
58378W        W30803  30.065   3.262   4.679
58379W        W30804   7.297  28.490   1.745
58380W        W30805   3.408  33.466  11.901
58381W        W30806   6.263   0.917   2.665
58382W        W30807   8.162  32.995   3.293
58383W        W30808   3.836   1.799   3.672
58384W        W30809  40.500  17.651   4.654
58385W        W30810   6.810  26.087  10.461
58386W        W30811   0.824  29.113   1.786
58387W        W30812  25.553  11.209   2.894
58388W        W30813  19.181  38.348   2.414
58389W        W30814   4.396   8.206   0.306
58390W        W30815  39.014  40.415   0.427
58391W        W30816  39.446  41.403  12.462
58392W        W30817  24.597   7.346   4.655
58393W        W30818  37.432   2.321  12.889
58394W        W30819  25.626  23.216  13.882
58395W        W30820  43.350   5.906   0.322
58396W        W30821  33.899  43.378  11.573
58397W        W30822  41.963  10.294   1.893
58398W        W30823   6.185  15.759  10.897
58399W        W30824  31.030  21.146   5.272
58400W        W30825  13.112   2.775  12.356
58401W        W30826  42.840   4.775  13.348
58402W        W30827  38.001  28.100  13.940
58403W        W30828   0.749  35.940   2.310
58404W        W30829  34.079  38.480   1.351
58405W        W30830  15.648  19.645   3.266
58406W        W30831  29.483  21.256   3.684
58407W        W30832   3.740  17.257  11.005
58408W        W30833   1.397   4.816   1.234
58409W        W30834   7.413  14.633   3.800
58410W        W30835  25.553  17.301   0.349
58411W        W30836  39.369  43.439   1.348
58412W        W30837  27.987  21.612   3.152
58413W        W30838  42.502  36.901   4.136
58414W        W30839  18.054  25.548  12.516
58415W        W30840  30.010  11.641   2.767
58416W        W30841  37.896  28.514  13.348
58417W        W30842  19.559   0.820   2.182
58418W        W30843  43.833  35.010   1.398
58419W        W30844  41.398   5.762   3.739
58420W        W30845  23.504  25.585   1.861
58421W        W30846   9.754  37.474   2.783
58422W        W30847   4.418   0.356  11.984
58423W        W30848   1.478  32.973   9.508
58424W        W30849  16.639   1.295   2.220
58425W        W30850  21.546  44.961  14.878
58426W        W30851  10.247  31.912  10.066
58427W        W30852  37.338   2.926  12.917
58428W        W30853  38.438  31.998   3.705
58429W        W30854  16.229   4.928  13.005
58430W        W30855  18.256   8.674   2.199
58431W        W30856  22.140   2.260  14.283
58432W        W30857  35.993  13.175  11.907
58433W        W30858  33.517  26.532   4.610
58434W        W30859  44.485  11.127  12.959
58435W        W30860  17.066   4.853  10.559
58436W        W30861   3.362   9.734   4.179
58437W        W30862  11.647  39.893  10.435
58438W        W30863   6.316  23.552  10.422
58439W        W30864  43.875  35.362   0.278
58440W        W30865   0.842  30.126   2.370
58441W        W30866  42.413  26.515  12.829
58442W        W30867  14.740  34.590  10.900
58443W        W30868  37.852  12.814  13.051
58444W        W30869   3.869  29.029  14.011
58445W        W30870  44.907  29.513   3.291
58446W        W30871  36.579  29.628   0.889
58447W        W30872   0.291  31.047   2.766
58448W        W30873  39.810  17.300   0.453
58449W        W30874  25.682  38.412  14.455
58450W        W30875   2.467  33.927  10.640
58451W        W30876   6.425  34.575  13.427
58452W        W30877   6.252   9.715   4.704
58453W        W30878  28.524  29.561  11.074
58454W        W30879  15.584  33.477  11.954
58455W        W30880  10.649  27.636  13.440
58456W        W30881   7.908  21.063   2.268
58457W        W30882  30.084  18.050  14.442
58458W        W30883  24.702  21.669   1.869
58459W        W30884  17.639  31.467   0.927
58460W        W30885  11.333  17.614  14.805
58461W        W30886  34.096  16.746  12.527
58462W        W30887  43.013  15.223  10.920
58463W        W30888   1.408  19.564  12.539
58464W        W30889  33.479  19.222  14.912
58465W        W30890  41.827  44.800  13.994
58466W        W30891  18.679  22.625   4.151
58467W        W30892  31.470  42.801  11.438
58468W        W30893  14.137  14.264  14.368
58469W        W30894  13.808  10.200   2.842
58470W        W30895  30.572  19.109  10.410
58471W        W30896  30.974   6.261  13.026
58472W        W30897   1.731  24.518   1.361
58473W        W30898  28.027  30.013   1.747
58474W        W30899  26.141  32.402   4.184
58475W        W30900  41.300  22.684   5.319
58476W        W30901   1.362  18.724   0.845
58477W        W30902  28.527  18.133  10.637
58478W        W30903  37.568  29.128   4.697
58479W        W30904  23.078  12.778  14.315
58480W        W30905  22.115  10.202   0.903
58481W        W30906  44.452  27.685  14.335
58482W        W30907  29.042  20.084   2.725
58483W        W30908  42.810  21.037  14.316
58484W        W30909  30.554  11.662   0.381
58485W        W30910  43.928  12.787  11.112
58486W        W30911  18.059  40.931   2.669
58487W        W30912  28.589   7.687   1.289
58488W        W30913  19.588  18.642   5.208
58489W        W30914  25.483  27.175  10.593
58490W        W30915  36.993  18.279   0.243
58491W        W30916  27.606   0.346  11.500
58492W        W30917  17.650   0.271  11.064
58493W        W30918  35.884  21.700  13.520
58494W        W30919  41.514  23.056   4.651
58495W        W30920  17.156   9.386   1.905
58496W        W30921  35.524   9.710   0.955
58497W        W30922  37.537  14.628  12.522
58498W        W30923  28.989  23.154   3.724
58499W        W30924   7.374  25.216  13.374
58500W        W30925  17.088   5.421  11.530
58501W        W30926  42.960  41.525  14.771
58502W        W30927  36.984  29.077   4.126
58503W        W30928  23.562  20.114   0.964
58504W        W30929  22.053   8.371   3.762
58505W        W30930  23.107  44.274  13.452
58506W        W30931   6.338  22.998  11.107
58507W        W30932  41.387   1.811  13.841
58508W        W30933   1.955  33.048   2.898
58509W        W30934  35.588  23.720  12.992
58510W        W30935  26.557   8.400  13.981
58511W        W30936   2.440   8.236   0.422
58512W        W30937  19.717  30.450   2.215
58513W        W30938  37.068  27.008   2.813
58514W        W30939   9.785  19.052  13.950
58515W        W30940  18.717  24.722  11.111
58516W        W30941  40.441  40.024  11.892
58517W        W30942  36.964  21.106  11.508
58518W        W30943  43.944  27.655  13.501
58519W        W30944  42.431   6.843  13.875
58520W        W30945   9.670   4.324  14.990
58521W        W30946  43.850  15.785  11.019
58522W        W30947  44.275   9.793   4.796
58523W        W30948  23.102   7.867   2.373
58524W        W30949   5.201  21.685   3.643
58525W        W30950  21.517  37.019   4.282
58526W        W30951  42.281  34.904   3.199
58527W        W30952  37.507  27.190  13.473
58528W        W30953  27.467  40.945  12.870
58529W        W30954  10.384  31.007  10.522
58530W        W30955  42.282   3.743  14.860
58531W        W30956  42.437  21.093   4.349
58532W        W30957   7.272  29.089  14.887
58533W        W30958  36.512  26.000   0.741
58534W        W30959   3.421  12.317  11.955
58535W        W30960  22.527  42.439  10.891
58536W        W30961   6.415  11.677  12.553
58537W        W30962  42.785  10.792   3.829
58538W        W30963  11.641  27.470  13.327
58539W        W30964  10.669  39.844  14.907
58540W        W30965  15.244  29.938   1.809
58541W        W30966  23.504  17.574   1.909
58542W        W30967  25.586  44.344  10.150
58543W        W30968  12.158  22.060   4.140
58544W        W30969  31.613   2.301   1.357
58545W        W30970  22.541  24.706   1.286
58546W        W30971  44.265  43.882  13.512
58547W        W30972   2.864  41.814   0.247
58548W        W30973  37.503   1.819   4.701
58549W        W30974  25.493  29.920  13.326
58550W        W30975  15.806  23.072   0.932
58551W        W30976   4.943   7.319   3.692
58552W        W30977  34.456  36.058   1.703
58553W        W30978   3.444   2.234  11.423
58554W        W30979  34.396  13.134  11.909
58555W        W30980  21.739  28.480   1.223
58556W        W30981  40.374   3.828   4.736
58557W        W30982  17.694  20.257  11.564
58558W        W30983  17.693  10.355  12.834
58559W        W30984  32.496  43.432   1.374
58560W        W30985  27.984  38.009  12.404
58561W        W30986  11.771  18.135   1.810
58562W        W30987  16.176  28.952  12.035
58563W        W30988  26.647  20.562   1.442
58564W        W30989  26.675  14.149   1.697
58565W        W30990   2.442  32.583   3.341
58566W        W30991   0.828  39.350   2.678
58567W        W30992   7.891  12.768   0.325
58568W        W30993  35.528   7.780  11.397
58569W        W30994   7.711  39.401   3.242
58570W        W30995  12.199  30.432   1.919
58571W        W30996  32.481  43.414  14.929
58572W        W30997  23.576  44.268  14.325
58573W        W30998   6.870  12.828   1.780
58574W        W30999  19.069   2.465  12.036
58575W        W31000   5.755  35.526  10.912
58576W        W31001  21.541  44.963   4.740
58577W        W31002   5.332  22.713   2.778
58578W        W31003  27.646  37.087   3.151
58579W        W31004  26.063  14.306   4.130
58580W        W31005  15.779  18.099  14.449
58581W        W31006  15.670  39.940  14.311
58582W        W31007  30.035   4.234  10.626
58583W        W31008  37.895  19.231  12.009
58584W        W31009  12.824  33.459  11.895
58585W        W31010  39.510   4.786   0.474
58586W        W31011  19.669  15.086  12.405
58587W        W31012  41.833  24.105  14.007
58588W        W31013  14.822  28.549   0.849
58589W        W31014  18.631  41.335   0.963
58590W        W31015   1.843  11.708   4.271
58591W        W31016  39.993   3.869   3.224
58592W        W31017  37.382  27.519   2.328
58593W        W31018  42.869  14.280   1.803
58594W        W31019  32.523  34.389  11.556
58595W        W31020  20.657   9.218   4.760
58596W        W31021  42.426   1.804   0.445
58597W        W31022  25.678  21.564  12.393
58598W        W31023  41.921  10.172  13.036
58599W        W31024   6.732  30.634  12.472
58600W        W31025  24.103  35.900  10.584
58601W        W31026  33.028  27.028   2.768
58602W        W31027   1.261  11.643  10.957
58603W        W31028  28.520  19.702  14.879
58604W        W31029   7.257  44.483  12.080
58605W        W31030  35.025  37.387   3.272
58606W        W31031  39.357  33.511   2.253
58607W        W31032  39.398  31.480   3.839
58608W        W31033   3.434  20.071  11.502
58609W        W31034  24.978  40.341   1.928
58610W        W31035  41.859  36.531  14.462
58611W        W31036  33.996  44.497   3.738
58612W        W31037  43.356   8.297  10.568
58613W        W31038   3.768  41.921   1.716
58614W        W31039  11.708  13.255  11.574
58615W        W31040  19.069  17.064   1.820
58616W        W31041  11.865  18.246   4.654
58617W        W31042  38.528   2.876  11.114
58618W        W31043  13.241  31.532  12.860
58619W        W31044  19.254  13.808  13.309
58620W        W31045   1.318   2.771   0.302
58621W        W31046  32.535  14.672   2.711
58622W        W31047  18.276  43.800   1.440
58623W        W31048   6.377   6.425  13.957
58624W        W31049  26.020   1.299  13.796
58625W        W31050  38.520   4.363   2.734
58626W        W31051  42.883  21.043  10.623
58627W        W31052  31.615  12.363  12.948
58628W        W31053   1.326   8.831   0.737
58629W        W31054  10.294  29.520   4.216
58630W        W31055  10.848  26.517   0.273
58631W        W31056  41.372  44.779   0.812
58632W        W31057  35.926  42.964  11.540
58633W        W31058  32.480  25.193   0.482
58634W        W31059   0.436   2.410  13.941
58635W        W31060  10.342   3.294   3.733
58636W        W31061   1.356  27.154  12.407
58637W        W31062  10.710  29.461   4.597
58638W        W31063  29.492  38.500  12.018
58639W        W31064  41.392  23.096  10.101
58640W        W31065  39.030  24.984  14.985
58641W        W31066  13.701  24.542   5.576
58642W        W31067  19.113   5.887   4.139
58643W        W31068  11.830  42.928  13.465
58644W        W31069   1.450  11.736  14.822
58645W        W31070  22.149  28.979  12.382
58646W        W31071   4.442   5.921   3.706
58647W        W31072  12.242  33.054   0.866
58648W        W31073  35.567   7.329  10.456
58649W        W31074   5.752  33.589   1.441
58650W        W31075  17.254   5.878   4.268
58651W        W31076  14.221  16.095  11.458
58652W        W31077  39.000  26.500  14.308
58653W        W31078  14.757  29.444   1.279
58654W        W31079  34.609  44.916  11.381
58655W        W31080  36.882  29.551  10.469
58656W        W31081  36.386  13.284   2.812
58657W        W31082  39.404  19.040   1.290
58658W        W31083  31.064  29.018  10.413
58659W        W31084   6.225   7.855  13.917
58660W        W31085  31.451  26.542   0.481
58661W        W31086  41.359  11.252   2.760
58662W        W31087  36.054   8.846   0.961
58663W        W31088  15.230  29.130  12.933
58664W        W31089  26.961  21.625   2.714
58665W        W31090  17.642  36.387  14.295
58666W        W31091  24.086  37.434  13.433
58667W        W31092  14.274  36.977   0.854
58668W        W31093   0.455   5.712   0.300
58669W        W31094   6.368  10.211   5.181
58670W        W31095   4.734  32.636   3.333
58671W        W31096  34.419  21.701   1.886
58672W        W31097   1.382  38.508  11.600
58673W        W31098   1.881  25.081   5.214
58674W        W31099  40.899  44.789   3.715
58675W        W31100  14.100  34.968   4.225
58676W        W31101   3.388  20.027   2.884
58677W        W31102  25.589  12.137   1.386
58678W        W31103  39.523  44.926   4.669
58679W        W31104   4.257  26.205   4.211
58680W        W31105  34.881  22.553  13.815
58681W        W31106  30.588  13.720   2.817
58682W        W31107   7.265   7.350  12.469
58683W        W31108  16.740  41.828   0.362
58684W        W31109  38.919  33.087   3.802
58685W        W31110  18.221  10.177   2.764
58686W        W31111  11.248   0.341  13.863
58687W        W31112  36.514  26.139  12.977
58688W        W31113  23.570  44.835  11.099
58689W        W31114   9.824  24.695  13.358
58690W        W31115  35.492  31.537  13.324
58691W        W31116  36.987  38.020  10.553
58692W        W31117  20.144  17.079  12.400
58693W        W31118  21.749   3.741   4.229
58694W        W31119   1.238  39.916   3.312
58695W        W31120  36.465  25.096  13.003
58696W        W31121  23.090   8.767  14.950
58697W        W31122  44.991  14.680  14.508
58698W        W31123  27.518   5.439   0.440
58699W        W31124  14.745  15.095   2.844
58700W        W31125  30.054  21.159   4.345
58701W        W31126  23.188  20.126   4.206
58702W        W31127   3.773  23.682  12.921
58703W        W31128  29.501  18.576  13.453
58704W        W31129  24.223   0.842  14.930
58705W        W31130  15.313  34.525   3.286
58706W        W31131  14.246  36.435  10.532
58707W        W31132  15.299  29.598  10.620
58708W        W31133   4.901  18.052  10.124
58709W        W31134  13.846   0.329   2.335
58710W        W31135  44.928  33.415  14.457
58711W        W31136  40.818  36.450  12.525
58712W        W31137   3.434   2.467   4.727
58713W        W31138   7.806  33.978  11.964
58714W        W31139  31.981  21.163   4.821
58715W        W31140  23.660  39.514   0.819
58716W        W31141  29.525  24.632   5.154
58717W        W31142  30.652  44.856  11.123
58718W        W31143   9.645  25.127   4.807
58719W        W31144  30.116  38.926  11.936
58720W        W31145  33.480   6.847   3.356
58721W        W31146   8.210   1.359   1.870
58722W        W31147   0.323   1.297   0.375
58723W        W31148  36.502  23.984  13.904
58724W        W31149  21.189  19.593  11.899
58725W        W31150   0.796  39.486   4.241
58726W        W31151  17.746   9.713   3.663
58727W        W31152   5.746  29.430  12.905
58728W        W31153  14.298  27.996  14.911
58729W        W31154  23.589  21.185   3.730
58730W        W31155  18.154  19.544   4.243
58731W        W31156  36.075  15.229   4.625
58732W        W31157  15.302  14.326   4.632
58733W        W31158  16.173  18.667  13.867
58734W        W31159  35.475  32.963   1.765
58735W        W31160   8.329  18.080   4.682
58736W        W31161  17.204  35.898   1.356
58737W        W31162  22.674  21.023  13.889
58738W        W31163  37.438   9.211  14.900
58739W        W31164  33.583  31.981   5.295
58740W        W31165  44.789  34.870  14.025
58741W        W31166  34.006  32.620   3.766
58742W        W31167  23.000  11.288   3.261
58743W        W31168  15.602  29.057   4.190
58744W        W31169  31.092   8.251   3.778
58745W        W31170  27.096  22.177  13.451
58746W        W31171   0.420   0.805   0.729
58747W        W31172   3.244  26.982   4.622
58748W        W31173  39.504  21.117  11.493
58749W        W31174  13.131  26.692  12.496
58750W        W31175   6.824   6.720  10.592
58751W        W31176  23.617  36.931  12.875
58752W        W31177  30.431  11.839   5.309
58753W        W31178  28.605  41.792   0.395
58754W        W31179  37.026  28.477  11.944
58755W        W31180  13.302  41.790  11.979
58756W        W31181  18.250  16.278   1.342
58757W        W31182  27.957  11.857  12.837
58758W        W31183  21.677   1.453  10.940
58759W        W31184  33.509  13.330  13.315
58760W        W31185  19.577  34.011  13.538
58761W        W31186   2.887  38.828  13.387
58762W        W31187  36.556  42.329   2.354
58763W        W31188  26.506   6.761  11.941
58764W        W31189  43.416  37.834  10.503
58765W        W31190  13.275  29.143   0.744
58766W        W31191  18.221  41.990  11.532
58767W        W31192  26.004  10.267   4.348
58768W        W31193  25.714   3.316   9.927
58769W        W31194  18.129  28.014  14.767
58770W        W31195  36.459   4.280  14.949
58771W        W31196  24.138   2.309  13.808
58772W        W31197  21.263  39.812   1.414
58773W        W31198   1.952  15.222  10.429
58774W        W31199   8.710   3.298   1.761
58775W        W31200   3.284   9.715   1.429
58776W        W31201  28.457   0.361  11.548
58777W        W31202  44.351  16.649  11.920
58778W        W31203  30.980   4.408   2.311
58779W        W31204  35.434   4.907   1.897
58780W        W31205  30.967  24.180  12.910
58781W        W31206  14.613  25.636  12.930
58782W        W31207  20.093   8.270  13.538
58783W        W31208   8.880  17.586   1.800
58784W        W31209  12.667  21.751   4.173
58785W        W31210  19.085  29.946   3.684
58786W        W31211  17.667   8.217  12.885
58787W        W31212  31.957  21.095  14.390
58788W        W31213  42.520  39.977  14.820
58789W        W31214  22.101  43.902  14.501
58790W        W31215  10.778  37.904   0.250
58791W        W31216  21.243  29.083  10.924
58792W        W31217  15.254   0.288   2.894
58793W        W31218  39.881  22.641  12.964
58794W        W31219  41.820  33.478  12.576
58795W        W31220   7.240  21.544   4.695
58796W        W31221   8.309  23.215   4.697
58797W        W31222  25.083  11.664  14.423
58798W        W31223  41.439  34.880  12.366
58799W        W31224  30.425  42.927   2.728
58800W        W31225  39.453   9.744   1.903
58801W        W31226  26.064  42.512   1.819
58802W        W31227  10.698  40.883  11.407
58803W        W31228  44.286  21.174   2.794
58804W        W31229   3.270  23.610   3.702
58805W        W31230  43.501  41.024   2.227
58806W        W31231  14.253  21.206   1.364
58807W        W31232  10.853  28.661  14.503
58808W        W31233  32.585  30.919  12.855
58809W        W31234  23.174  28.448  10.539
58810W        W31235   9.793  26.479   1.285
58811W        W31236  22.047   4.277   0.870
58812W        W31237   0.881  29.595   4.272
58813W        W31238  38.921  22.070  13.362
58814W        W31239  31.146  18.660   0.938
58815W        W31240   8.264   6.900  14.410
58816W        W31241  16.168  26.640   3.822
58817W        W31242  43.792  35.468   0.792
58818W        W31243  40.501   3.880   2.819
58819W        W31244   5.926   0.797  12.961
58820W        W31245  15.634  22.250  10.024
58821W        W31246   8.307  32.612  14.399
58822W        W31247  14.163   6.396   0.762
58823W        W31248  11.345  18.688  10.629
58824W        W31249  16.571  35.448  10.953
58825W        W31250  37.534  35.980   0.420
58826W        W31251  21.673  15.731  13.487
58827W        W31252  22.202  25.703   0.331
58828W        W31253  36.058  33.115   3.725
58829W        W31254  31.572  20.632   1.798
58830W        W31255  42.776  16.217  13.906
58831W        W31256   8.883   1.298  10.407
58832W        W31257  22.999  39.548   1.270
58833W        W31258  38.851  20.755  10.524
58834W        W31259  20.098  23.188   1.705
58835W        W31260  39.958   6.860  11.536
58836W        W31261   9.261   3.235   2.693
58837W        W31262  27.468  14.630  12.928
58838W        W31263   4.817  34.949   3.821
58839W        W31264  13.780  43.427  11.475
58840W        W31265  44.939   3.864  13.817
58841W        W31266  25.632   0.824   0.851
58842W        W31267  27.522  17.222  13.529
58843W        W31268  41.821  29.636   0.449
58844W        W31269  27.512   0.825   3.750
58845W        W31270  27.149  19.056  14.979
58846W        W31271  37.342  17.623   3.743
58847W        W31272   6.881  20.755  13.423
58848W        W31273  17.109  23.566  13.316
58849W        W31274  41.512  15.263   0.934
58850W        W31275  37.928  35.005   2.777
58851W        W31276  12.305  41.303  11.506
58852W        W31277   6.819  35.453  13.307
58853W        W31278  31.608  41.459  10.592
58854W        W31279   1.777   1.859  13.326
58855W        W31280  38.425   1.779  11.394
58856W        W31281  28.653   8.756  14.477
58857W        W31282  41.483  15.261   4.201
58858W        W31283   0.406  25.212  11.580
58859W        W31284   0.915  34.561  14.806
58860W        W31285  39.508  26.620  11.083
58861W        W31286  36.504  42.881   4.254
58862W        W31287   9.783   5.742   2.205
58863W        W31288  17.700  27.657  14.824
58864W        W31289  19.748  16.786   2.354
58865W        W31290  14.111  21.035  12.910
58866W        W31291  33.623  41.806   1.934
58867W        W31292   6.824  16.571   4.733
58868W        W31293  11.759  37.425   9.985
58869W        W31294   4.744  42.282  14.320
58870W        W31295  25.665  30.966   0.812
58871W        W31296  25.105  34.498   2.367
58872W        W31297  40.863  24.674   4.742
58873W        W31298  12.146   7.743   4.173
58874W        W31299  22.198  13.770  12.049
58875W        W31300  13.660   5.785   1.792
58876W        W31301   9.711  22.235  10.989
58877W        W31302  20.071  17.711  14.830
58878W        W31303  12.750  21.263   0.299
58879W        W31304  26.520   2.845  14.461
58880W        W31305  23.106  12.613  14.858
58881W        W31306   5.755  36.079   0.728
58882W        W31307   9.795   5.712   3.754
58883W        W31308  35.940  18.095   1.927
58884W        W31309  14.617  41.451   1.396
58885W        W31310   6.865  24.067   1.395
58886W        W31311  29.078  14.256   2.888
58887W        W31312   6.746  37.547  14.515
58888W        W31313  37.557  18.204   1.290
58889W        W31314  15.309  40.877   2.186
58890W        W31315  38.922  31.604   3.843
58891W        W31316  38.556  27.044  11.127
58892W        W31317   5.893  34.377  14.934
58893W        W31318  33.625  39.424   0.260
58894W        W31319  27.011  26.600   2.401
58895W        W31320  21.089  28.943  13.458
58896W        W31321  44.891  35.444   2.833
58897W        W31322  31.080  39.498  13.482
58898W        W31323  34.566  31.100   2.406
58899W        W31324  14.667  39.914   0.443
58900W        W31325  16.757  36.981  10.506
58901W        W31326  40.465  11.835   2.873
58902W        W31327  27.636  10.653  11.483
58903W        W31328   2.283  38.018  12.095
58904W        W31329   9.732   3.728  11.907
58905W        W31330  20.680  39.469  14.293
58906W        W31331  17.586  25.631  11.425
58907W        W31332  44.397  40.957  13.829
58908W        W31333  31.898  13.349   4.327
58909W        W31334  37.887  15.778  11.998
58910W        W31335   5.899  39.447   2.344
58911W        W31336  10.321  31.549  13.050
58912W        W31337   0.450  26.061  12.485
58913W        W31338  39.468  34.517   4.759
58914W        W31339  39.055   2.366  12.481
58915W        W31340  20.539  31.125   1.857
58916W        W31341   8.741  27.614   2.851
58917W        W31342   4.802  33.939   4.286
58918W        W31343  37.530  15.327  14.948
58919W        W31344  18.185  32.974   4.168
58920W        W31345  42.976  41.836   0.286
58921W        W31346   9.756  41.517  13.832
58922W        W31347  17.121  20.106  11.974
58923W        W31348  17.118  43.466  12.911
58924W        W31349  10.696  10.832  14.939
58925W        W31350   8.204  38.946  14.322
58926W        W31351   4.405  10.754   0.876
58927W        W31352   8.707  42.843   1.869
58928W        W31353  36.847   6.199  12.911
58929W        W31354   6.247  16.766  12.524
58930W        W31355  44.897  29.124   3.678
58931W        W31356  11.328  16.075  14.003
58932W        W31357   7.799   9.711  10.893
58933W        W31358  18.081  34.554   1.770
58934W        W31359   4.870  19.661   9.946
58935W        W31360  28.102  15.213  14.917
58936W        W31361  14.739  28.037   4.258
58937W        W31362  21.744  30.077  12.003
58938W        W31363  44.818  39.818  14.289
58939W        W31364  12.126   8.240  12.971
58940W        W31365  37.361   6.872   9.584
58941W        W31366   5.263   5.782  13.903
58942W        W31367  21.102  28.096  12.536
58943W        W31368  16.243  11.693   0.278
58944W        W31369  37.874  15.704  14.986
58945W        W31370  15.156  40.438  12.491
58946W        W31371  28.067  44.420  14.869
58947W        W31372  15.162  32.626  10.427
58948W        W31373  30.481   5.255   1.333
58949W        W31374  21.708  39.936   3.278
58950W        W31375  27.528  23.167  14.828
58951W        W31376   2.394  41.819   0.847
58952W        W31377   0.917  41.491  11.078
58953W        W31378  21.026  35.076  14.910
58954W        W31379  35.902  38.458   0.350
58955W        W31380  36.415  42.346  14.030
58956W        W31381  42.957  31.025   2.346
58957W        W31382  29.159  43.986  12.455
58958W        W31383  30.518  10.803   0.765
58959W        W31384  30.085  21.210  11.533
58960W        W31385  12.739   9.265   1.706
58961W        W31386  43.389  17.299   1.747
58962W        W31387  29.951  32.540  14.831
58963W        W31388  39.950   8.724  14.295
58964W        W31389  34.372  16.696  11.084
58965W        W31390  29.459   9.877   3.673
58966W        W31391  17.284  18.235  12.066
58967W        W31392  21.685  13.285   2.677
58968W        W31393  21.721   9.370  12.572
58969W        W31394  39.819  23.627  10.545
58970W        W31395  20.603   2.408  14.365
58971W        W31396  30.508   2.286  12.927
58972W        W31397  35.887  18.242  11.973
58973W        W31398   6.308   8.249   0.906
58974W        W31399   4.336   5.203   4.231
58975W        W31400   3.428  18.105  13.353
58976W        W31401   1.417  44.851   0.441
58977W        W31402  25.569  23.501  14.321
58978W        W31403  42.484  42.968  11.607
58979W        W31404  44.341  37.426  11.564
58980W        W31405   0.860  38.993   1.221
58981W        W31406  32.529  22.730  10.137
58982W        W31407   0.273  10.743  11.583
58983W        W31408  38.436  32.415   3.181
58984W        W31409  40.422  12.236  11.564
58985W        W31410  22.211  12.167   0.478
58986W        W31411  24.223  13.840   0.905
58987W        W31412  36.537  15.729  10.041
58988W        W31413  35.939  10.774   1.389
58989W        W31414  43.009  36.398  14.888
58990W        W31415   1.308  26.465   3.238
58991W        W31416  35.074  44.858   1.895
58992W        W31417   7.901  44.865   0.769
58993W        W31418  22.996  19.278   4.730
58994W        W31419  22.215  14.826  13.469
58995W        W31420  43.867  44.982   1.823
58996W        W31421  33.884   4.298  10.889
58997W        W31422  25.064  17.690   0.826
58998W        W31423  23.125   6.822   1.325
58999W        W31424   1.401  30.473   2.281
59000W        W31425  21.647  11.737  10.043
59001W        W31426  40.036  30.968  14.414
59002W        W31427  26.665  23.157  12.846
59003W        W31428  38.445  32.005  12.418
59004W        W31429  37.432  16.586   4.619
59005W        W31430  42.847  23.098  10.641
59006W        W31431   1.794  16.694   2.244
59007W        W31432  41.321  23.553  11.380
59008W        W31433  23.148   7.668   3.830
59009W        W31434   2.875  15.713   0.301
59010W        W31435  40.860   8.862   1.719
59011W        W31436  14.711  17.766  14.996
59012W        W31437  17.158  15.610   0.955
59013W        W31438  11.837   8.863  14.402
59014W        W31439  29.048  20.551   3.240
59015W        W31440   0.407  21.122   4.767
59016W        W31441  28.648  10.718   2.758
59017W        W31442  17.723  44.441   0.838
59018W        W31443  21.582  36.923  12.558
59019W        W31444  37.399   9.778  14.958
59020W        W31445  33.485   0.327   4.788
59021W        W31446  15.213   9.185  10.619
59022W        W31447  43.955   5.433  13.971
59023W        W31448  17.105   5.698  13.539
59024W        W31449  44.975  15.608   3.207
59025W        W31450  27.665  11.239   3.739
59026W        W31451  28.586   9.382  13.431
59027W        W31452  35.880  39.524  13.877
59028W        W31453  41.855  24.979   0.848
59029W        W31454   2.731  13.169  11.561
59030W        W31455  21.536  21.146   4.282
59031W        W31456   7.361  36.374  14.355
59032W        W31457  19.234   8.349   2.684
59033W        W31458  17.215  42.469   4.117
59034W        W31459  31.020  20.132  13.527
59035W        W31460  31.110  17.719   4.814
59036W        W31461  39.501   2.937  12.525
59037W        W31462  39.323  22.742  11.012
59038W        W31463   1.884   4.751   0.740
59039W        W31464  20.558  11.246   5.112
59040W        W31465  21.026  16.720   2.753
59041W        W31466   8.800  28.446  11.126
59042W        W31467   4.282  26.117   1.217
59043W        W31468  17.605  12.236  10.446
59044W        W31469  10.637  20.674   0.365
59045W        W31470  24.692  32.514   1.360
59046W        W31471   5.777  37.939  12.424
59047W        W31472  44.901  10.692  13.816
59048W        W31473  21.182  13.826  11.042
59049W        W31474  39.063  32.616  10.608
59050W        W31475   5.385  25.168   1.434
59051W        W31476  16.787  13.638   1.771
59052W        W31477  33.592  30.441  11.002
59053W        W31478  14.595  40.838  11.061
59054W        W31479  29.099  15.278  11.046
59055W        W31480   5.694  27.503   3.198
59056W        W31481  38.452  36.375   3.645
59057W        W31482   7.800  28.461   2.220
59058W        W31483  24.057  43.823  11.864
59059W        W31484  21.574  27.485  13.042
59060W        W31485  22.078   6.349  11.975
59061W        W31486  36.993  27.014  11.459
59062W        W31487  20.629   0.426  14.879
59063W        W31488  29.603   3.379   1.720
59064W        W31489  30.115  32.565  12.894
59065W        W31490  18.255  12.816   3.696
59066W        W31491   7.280  22.209  13.916
59067W        W31492  17.747  36.048  12.533
59068W        W31493  43.983  28.957  13.404
59069W        W31494  30.940   8.826   3.231
59070W        W31495  16.715  39.819  12.568
59071W        W31496  20.030  14.790  10.476
59072W        W31497   8.173   6.702  10.637
59073W        W31498  14.105  29.116  11.490
59074W        W31499  18.185  19.152  13.008
59075W        W31500  12.649  41.987   2.327
59076W        W31501   6.858  27.019  10.495
59077W        W31502  36.495  40.321   2.389
59078W        W31503   4.389   5.224  14.477
59079W        W31504   0.288  31.501   2.846
59080W        W31505  16.795   8.191   3.696
59081W        W31506  38.354   6.371   4.803
59082W        W31507  31.585  44.856  13.929
59083W        W31508  25.005  11.776   5.147
59084W        W31509  26.160  24.196   2.212
59085W        W31510  38.062   1.791   2.687
59086W        W31511  30.912  25.206   0.867
59087W        W31512   3.442   7.289  10.630
59088W        W31513  35.943  29.157   2.273
59089W        W31514   9.777  25.663  11.396
59090W        W31515  30.077  42.906  12.547
59091W        W31516  19.587  25.538   3.235
59092W        W31517  31.091  29.479  10.961
59093W        W31518  34.113   8.790  11.454
59094W        W31519  29.458  21.199   9.983
59095W        W31520  17.269  37.546   3.360
59096W        W31521   0.446  40.933  10.473
59097W        W31522   3.857  43.393   0.893
59098W        W31523  20.613  17.562   0.444
59099W        W31524   8.693   0.782  10.919
59100W        W31525  43.351  38.013   4.828
59101W        W31526  34.612  33.619   3.693
59102W        W31527  17.210   4.852  12.825
59103W        W31528  13.168  18.132   1.887
59104W        W31529  33.947  22.019   2.228
59105W        W31530  37.946  22.226  13.424
59106W        W31531  44.980   8.831   4.209
59107W        W31532  20.747  30.442   0.330
59108W        W31533   4.255  38.487  13.535
59109W        W31534  34.396   0.887   3.284
59110W        W31535  22.663  30.452   4.289
59111W        W31536   1.262  41.450   1.264
59112W        W31537   5.254   8.804   2.219
59113W        W31538  41.510  39.456  10.557
59114W        W31539   1.306  22.742   4.835
59115W        W31540  17.113  25.547   4.756
59116W        W31541  31.472  10.199  13.957
59117W        W31542  12.183  33.892  14.425
59118W        W31543   9.693  17.778  14.765
59119W        W31544   9.213  16.228   2.680
59120W        W31545   4.870  27.964   0.458
59121W        W31546  32.081  24.549   3.248
59122W        W31547  43.496   5.766  10.622
59123W        W31548  18.172   1.352  14.942
59124W        W31549  10.840  23.231  13.541
59125W        W31550  32.017  15.595  11.034
59126W        W31551  20.732  21.142  12.363
59127W        W31552  22.705  40.327   5.172
59128W        W31553   3.751  34.091   1.786
59129W        W31554   1.335   3.780   3.643
59130W        W31555  33.113  12.641   2.376
59131W        W31556  26.084  44.355   1.809
59132W        W31557  39.023  26.191  14.502
59133W        W31558  44.422   0.879  10.889
59134W        W31559  36.930  30.951   3.207
59135W        W31560  19.566  25.683   0.832
59136W        W31561  24.677  15.719   4.149
59137W        W31562  44.819  27.481  13.374
59138W        W31563  32.971  18.731   0.889
59139W        W31564  42.362  35.417   1.916
59140W        W31565  16.287  14.142  13.464
59141W        W31566  22.238   1.341  11.020
59142W        W31567  20.678  44.782   3.684
59143W        W31568  35.510  14.242   3.802
59144W        W31569  39.338  22.051  11.405
59145W        W31570  26.173  40.812   4.698
59146W        W31571  26.629  42.466   2.406
59147W        W31572   0.300  27.505   4.726
59148W        W31573  19.691  35.862  14.981
59149W        W31574  38.947  18.147  12.365
59150W        W31575  41.926   8.865   0.415
59151W        W31576   5.802  17.597  14.947
59152W        W31577   8.872  27.961   4.801
59153W        W31578  21.705  32.434  14.832
59154W        W31579  44.822   9.377  13.520
59155W        W31580   9.854  31.412   4.293
59156W        W31581   0.905  22.153  13.044
59157W        W31582  26.701   8.271  10.544
59158W        W31583  36.023   2.891   3.285
59159W        W31584  43.380  37.041   0.268
59160W        W31585  31.123  24.005   5.117
59161W        W31586  22.637  37.948   0.763
59162W        W31587   4.798  21.189   3.259
59163W        W31588  10.150  11.348  11.419
59164W        W31589  37.545  29.074  14.420
59165W        W31590   5.303  36.544   0.794
59166W        W31591  12.158   0.409  13.434
59167W        W31592  20.557  36.487  11.129
59168W        W31593  11.264  24.584  11.948
59169W        W31594  33.889  18.179  10.536
59170W        W31595  22.997   1.316   1.767
59171W        W31596  33.588   0.746  10.937
59172W        W31597  31.440  37.337  10.998
59173W        W31598   4.291  39.503  11.124
59174W        W31599  29.077  40.380  14.959
59175W        W31600  37.917  30.585  14.804
59176W        W31601  39.474   9.721  12.823
59177W        W31602  20.532  32.906   2.754
59178W        W31603   8.275  18.639  13.825
59179W        W31604  18.640  19.071   4.240
59180W        W31605  14.189  28.657   4.641
59181W        W31606  40.003  30.940  13.869
59182W        W31607  15.690  23.534  14.916
59183W        W31608  42.400  17.291  13.397
59184W        W31609  12.744  15.591  11.431
59185W        W31610  39.452  28.065   1.802
59186W        W31611  27.553  21.203   3.379
59187W        W31612   1.465  42.017   3.820
59188W        W31613  38.325  34.372   2.861
59189W        W31614  44.891  37.846   3.378
59190W        W31615  17.098  26.604   4.171
59191W        W31616  29.935  13.172  11.385
59192W        W31617  30.143  17.638  11.868
59193W        W31618  23.058  36.000   1.309
59194W        W31619  16.135  25.076   2.820
59195W        W31620  21.659   0.317  10.431
59196W        W31621  10.346  17.698   2.839
59197W        W31622  35.415  35.890  11.380
59198W        W31623  20.055  36.522   1.265
59199W        W31624   3.824  21.526  10.888
59200W        W31625   7.337  30.525  10.546
59201W        W31626  19.114  19.198  11.884
59202W        W31627   7.374  44.948   0.842
59203W        W31628  25.656   8.706  10.604
59204W        W31629  43.012  24.179   4.787
59205W        W31630   8.824  33.100  12.949
59206W        W31631  21.179  39.366  13.037
59207W        W31632   5.708  42.424  13.944
59208W        W31633  10.271   7.736   2.728
59209W        W31634  11.672  39.959  13.383
59210W        W31635  27.632  25.672   1.911
59211W        W31636  23.731  13.601  14.985
59212W        W31637   0.954  43.969  13.463
59213W        W31638  14.317  10.254   1.769
59214W        W31639  43.301  37.439  11.047
59215W        W31640  22.701  12.310  10.427
59216W        W31641  17.075  43.510  10.559
59217W        W31642  17.694  21.545   3.363
59218W        W31643  25.976  16.724  12.914
59219W        W31644  12.233   1.896  10.460
59220W        W31645  10.823  40.912   0.302
59221W        W31646  21.041  20.263   0.320
59222W        W31647   9.314  14.595   3.365
59223W        W31648  12.187   9.190   2.271
59224W        W31649   4.808  24.118   1.797
59225W        W31650   8.659   8.824   1.241
59226W        W31651  20.242  27.989  10.980
59227W        W31652  14.216  27.092   2.895
59228W        W31653   7.406  31.921  12.402
59229W        W31654  36.438  28.611  12.933
59230W        W31655  34.527  35.969  10.995
59231W        W31656  25.996  29.100  10.410
59232W        W31657  29.487  24.157  12.343
59233W        W31658  36.522  11.264  13.333
59234W        W31659   2.890  11.868   2.257
59235W        W31660   0.947   6.363   1.398
59236W        W31661   2.801  30.097   1.730
59237W        W31662   4.289  36.491   4.336
59238W        W31663   2.467  11.745  13.001
59239W        W31664   2.452  10.871  13.011
59240W        W31665  31.483  44.476  13.403
59241W        W31666  43.827  25.092  13.354
59242W        W31667  14.819  38.330   4.324
59243W        W31668  39.915  21.538   5.306
59244W        W31669  22.006  20.569   1.699
59245W        W31670  44.880  26.118   3.806
59246W        W31671  21.144  17.174  11.104
59247W        W31672  19.056  36.064  11.574
59248W        W31673  30.087  13.752  11.879
59249W        W31674  26.973  33.992   1.414
59250W        W31675  17.141  30.496   1.320
59251W        W31676  21.136  19.194   2.734
59252W        W31677  13.844   7.366  10.562
59253W        W31678  30.103  28.534  11.607
59254W        W31679  22.176  10.322   2.296
59255W        W31680  11.287  17.659   2.395
59256W        W31681  40.336  13.602  13.900
59257W        W31682  26.069   7.224  14.851
59258W        W31683  32.059  32.051   2.901
59259W        W31684  41.458  23.554   1.907
59260W        W31685  24.218  27.555   4.726
59261W        W31686  36.078   9.220  12.011
59262W        W31687  26.057  32.052   4.802
59263W        W31688  36.046  23.624   4.332
59264W        W31689  20.739  11.772  11.450
59265W        W31690   8.677  42.318   4.770
59266W        W31691  24.513  35.555  14.932
59267W        W31692   6.232  15.243   4.329
59268W        W31693  34.884  43.774   2.786
59269W        W31694   5.219  31.574   0.841
59270W        W31695  27.971  21.555   0.816
59271W        W31696  14.774  19.169   4.838
59272W        W31697   2.930  38.916   0.390
59273W        W31698  17.087  25.564   2.726
59274W        W31699  25.495  24.045  11.096
59275W        W31700  12.722  37.460  11.863
59276W        W31701  26.129  26.039  13.531
59277W        W31702  26.696  10.328  11.085
59278W        W31703   0.395  22.706   2.822
59279W        W31704  15.318  11.852   0.461
59280W        W31705  29.058  32.517   0.359
59281W        W31706  31.492  19.142   1.709
59282W        W31707  29.661  21.018   1.905
59283W        W31708  39.955  16.266   1.328
59284W        W31709  11.710  31.530   2.333
59285W        W31710   0.880   0.282  14.979
59286W        W31711   5.278  25.094   3.376
59287W        W31712  44.365  10.203  11.543
59288W        W31713  15.107  35.868  13.997
59289W        W31714   4.317  26.552   4.243
59290W        W31715  32.060  17.266  10.589
59291W        W31716  20.733  37.441  14.979
59292W        W31717  42.517   2.865   1.353
59293W        W31718  20.712  26.599   0.892
59294W        W31719  26.645   3.453  14.386
59295W        W31720  23.026  26.519   2.732
59296W        W31721  16.781  38.820   2.380
59297W        W31722  29.430   0.426  13.926
59298W        W31723   6.275  28.026   0.383
59299W        W31724  19.738  44.754   0.916
59300W        W31725  10.144  17.090   4.838
59301W        W31726   7.352  22.035   2.180
59302W        W31727  24.622  32.134  14.987
59303W        W31728  17.774  13.760  12.926
59304W        W31729  28.507   2.346   2.260
59305W        W31730  38.461  19.277  14.879
59306W        W31731  42.992  42.890   1.894
59307W        W31732  19.545  40.898  12.892
59308W        W31733  22.653  38.482   3.868
59309W        W31734  36.584  15.123  14.771
59310W        W31735   6.248  22.530  12.466
59311W        W31736  19.109   3.287   0.457
59312W        W31737  41.370  27.613  14.451
59313W        W31738   8.767  42.807   1.413
59314W        W31739  23.207  33.906   4.345
59315W        W31740  41.445  26.204   1.835
59316W        W31741  29.129  18.070   2.183
59317W        W31742   2.771  30.505  11.590
59318W        W31743   2.461   9.248   4.154
59319W        W31744  44.832  34.419  11.492
59320W        W31745  20.764  20.682  11.393
59321W        W31746  20.547  34.079   1.382
59322W        W31747   4.421  34.097  11.928
59323W        W31748  17.663  43.931   2.666
59324W        W31749  40.481  32.102  13.320
59325W        W31750  22.678  42.408  10.005
59326W        W31751  33.895  38.861   2.732
59327W        W31752  24.096  10.259   3.680
59328W        W31753   9.840  37.025  12.480
59329W        W31754   8.181  28.145  12.551
59330W        W31755   9.662   6.831  11.113
59331W        W31756  31.452  35.913   0.318
59332W        W31757  37.495  44.953  10.572
59333W        W31758  24.133  22.113   1.233
59334W        W31759  35.047  13.721  14.767
59335W        W31760   1.737  22.172  11.071
59336W        W31761  25.683   2.346   1.277
59337W        W31762  34.032   7.770   3.148
59338W        W31763  17.239  41.388   5.212
59339W        W31764  16.272  23.189   2.732
59340W        W31765  15.187  13.652  10.588
59341W        W31766   2.920  29.024  14.989
59342W        W31767  38.940   6.872  11.435
59343W        W31768   7.174  35.058   1.354
59344W        W31769  28.116  37.337  14.972
59345W        W31770  29.114  31.948  13.546
59346W        W31771  34.610  30.589   3.170
59347W        W31772   2.284  17.243  14.870
59348W        W31773  26.526   7.797   4.649
59349W        W31774  44.501  39.553   1.318
59350W        W31775  28.053  18.281   3.221
59351W        W31776  43.415  19.743  13.838
59352W        W31777   4.820  33.126  14.289
59353W        W31778  42.944   8.291   1.408
59354W        W31779  13.793  26.597  10.593
59355W        W31780  11.280  21.128  12.526
59356W        W31781   8.792   2.297   0.277
59357W        W31782  23.017   7.807   3.378
59358W        W31783  23.551  17.085   4.637
59359W        W31784  41.948  28.478  10.474
59360W        W31785  10.209  38.341  13.848
59361W        W31786  34.026  41.004  11.098
59362W        W31787  35.359  12.339   2.855
59363W        W31788  34.936  19.057  14.493
59364W        W31789   3.372  42.422   4.757
59365W        W31790   3.222  35.877   4.617
59366W        W31791  39.006  32.985   2.298
59367W        W31792   0.387   1.343   3.823
59368W        W31793  39.381  26.624   9.972
59369W        W31794  24.528   2.927  14.369
59370W        W31795  27.129  16.802   1.756
59371W        W31796   7.820  10.879   1.238
59372W        W31797  18.702  13.641  13.974
59373W        W31798  34.971  16.255   3.822
59374W        W31799  14.277  34.903  14.338
59375W        W31800   0.966  30.556   3.703
59376W        W31801  32.007  30.646  10.974
59377W        W31802  17.661  36.008   3.852
59378W        W31803  42.438  10.270  10.471
59379W        W31804  18.202  12.117   4.196
59380W        W31805  36.950   2.923  12.370
59381W        W31806  20.693  42.033   4.782
59382W        W31807  23.002  22.515   3.298
59383W        W31808  41.482  36.414  10.581
59384W        W31809  30.508  25.570   0.259
59385W        W31810  40.831   7.765  11.078
59386W        W31811  35.528  33.513   3.273
59387W        W31812  26.164  17.753  10.520
59388W        W31813  22.032  33.422   4.615
59389W        W31814   1.397  37.870   3.310
59390W        W31815  35.517  18.553   4.662
59391W        W31816  29.522   5.874  13.329
59392W        W31817   4.865  31.917  13.790
59393W        W31818  43.824  44.464  12.515
59394W        W31819  11.182  32.043  14.300
59395W        W31820  24.035  39.057   0.901
59396W        W31821  30.038  41.916   4.213
59397W        W31822  44.298  15.609   3.864
59398W        W31823  11.847  39.976  12.011
59399W        W31824  14.700  24.228  14.984
59400W        W31825  40.992  38.938  12.498
59401W        W31826  26.057  31.984  12.904
59402W        W31827  21.084  13.199   4.782
59403W        W31828  20.594   4.429  12.417
59404W        W31829  32.546  31.145   3.292
59405W        W31830  27.071  22.503  13.823
59406W        W31831  21.623  15.143   0.359
59407W        W31832  33.960  34.109   4.344
59408W        W31833   1.780   4.415  14.300
59409W        W31834  12.620  15.762   3.269
59410W        W31835  24.629  26.956   1.266
59411W        W31836   5.906  34.012   2.377
59412W        W31837   5.321  22.538  11.503
59413W        W31838   7.312  23.724  13.001
59414W        W31839  10.242  17.790  12.507
59415W        W31840  40.329   7.411   0.769
59416W        W31841  43.765   5.294  13.416
59417W        W31842  21.669   8.748   9.997
59418W        W31843  37.032   0.938   4.130
59419W        W31844  28.036  29.514   0.841
59420W        W31845  25.692  40.973  11.023
59421W        W31846  44.909  28.440  12.837
59422W        W31847  10.267  44.336   0.267
59423W        W31848   7.268   4.261  13.978
59424W        W31849  30.486  24.051   1.420
59425W        W31850  43.976  28.936  12.983
59426W        W31851  15.792  42.394   4.332
59427W        W31852  34.079  29.053   4.238
59428W        W31853   8.296  18.728   4.640
59429W        W31854  25.015  37.915  12.474
59430W        W31855   2.441   8.870   1.282
59431W        W31856  22.653   4.225  14.884
59432W        W31857   5.299  36.088   3.150
59433W        W31858  16.685  42.829   0.363
59434W        W31859  38.040   0.443   0.864
59435W        W31860   0.415   1.809   0.266
59436W        W31861  41.465  33.456   3.701
59437W        W31862  21.019  18.239  11.532
59438W        W31863  38.543  38.487   0.359
59439W        W31864  28.570   0.424   1.729
59440W        W31865  20.565  11.221  10.119
59441W        W31866  42.379  33.967   1.890
59442W        W31867   6.394  11.148   3.632
59443W        W31868  20.039  28.934  11.470
59444W        W31869  25.511  36.909  14.448
59445W        W31870   4.922  14.112   3.778
59446W        W31871  10.158  34.962   2.719
59447W        W31872   0.780  34.953   5.284
59448W        W31873  30.520  22.553  10.444
59449W        W31874  42.300  33.427   2.675
59450W        W31875  11.353  34.527   0.838
59451W        W31876  38.922  41.402   3.146
59452W        W31877  20.711   6.714  12.430
59453W        W31878   4.312  44.416  13.508
59454W        W31879  38.571  11.360   2.774
59455W        W31880  16.747  33.486   1.319
59456W        W31881  35.915  41.984   3.735
59457W        W31882  25.089  36.351   5.137
59458W        W31883  27.567  40.326   3.286
59459W        W31884   5.349  17.686   3.788
59460W        W31885  39.908   0.411  13.317
59461W        W31886  13.730  20.591  11.585
59462W        W31887  41.339  28.509  11.019
59463W        W31888  39.890   1.262   4.205
59464W        W31889  26.969  28.943   0.416
59465W        W31890  32.566   0.849  11.569
59466W        W31891  20.102  37.363  14.445
59467W        W31892  25.573  36.857  10.902
59468W        W31893  20.075   1.850  14.808
59469W        W31894  17.244  29.518  12.409
59470W        W31895  40.877   6.373   2.278
59471W        W31896  18.140   3.750  14.332
59472W        W31897   2.422  16.078   0.886
59473W        W31898  37.049  33.388  14.342
59474W        W31899  19.100  30.078  10.598
59475W        W31900  13.661  44.337  14.809
59476W        W31901  26.164  29.512  14.860
59477W        W31902   6.850  15.094   0.772
59478W        W31903   4.222  16.796   2.266
59479W        W31904  37.011  32.417   4.301
59480W        W31905  11.623  30.942   4.780
59481W        W31906  14.790  25.156  14.819
59482W        W31907  23.575  21.202  11.608
59483W        W31908  42.891  38.439   4.770
59484W        W31909  39.022  22.663  13.529
59485W        W31910  36.961  42.821  13.490
59486W        W31911  17.790  19.069   2.273
59487W        W31912  40.520  43.400  13.821
59488W        W31913  38.488  34.510  14.937
59489W        W31914   3.240  25.621  12.344
59490W        W31915  37.447  39.451   4.169
59491W        W31916   7.837  37.548  12.384
59492W        W31917  16.113  37.563   1.373
59493W        W31918  10.826   0.301   4.828
59494W        W31919   1.325   4.249   3.342
59495W        W31920  42.907  18.140   2.246
59496W        W31921  12.131  20.058  11.520
59497W        W31922  35.050  25.637  13.403
59498W        W31923   8.808  11.238  10.422
59499W        W31924  24.513  11.238   4.348
59500W        W31925   7.354   6.909   0.941
59501W        W31926  16.276   2.769   1.883
59502W        W31927   9.161  34.113  11.383
59503W        W31928   6.711  31.133  13.875
59504W        W31929   2.776  38.423   1.922
59505W        W31930  32.916  17.207   1.712
59506W        W31931  19.236   3.762  11.888
59507W        W31932   4.273  12.795  12.371
59508W        W31933  24.043  29.424   3.826
59509W        W31934  12.239  27.672   2.360
59510W        W31935  32.129  44.491  10.431
59511W        W31936  43.012  32.504  14.813
59512W        W31937   3.868  11.664   0.941
59513W        W31938  28.487  29.546  10.563
59514W        W31939  28.044   1.837  10.019
59515W        W31940  19.120  32.552  10.479
59516W        W31941  38.518  44.859   2.191
59517W        W31942  39.971  35.462   1.906
59518W        W31943   4.425   0.874   0.919
59519W        W31944  39.471   3.347  14.505
59520W        W31945  16.725  44.491   0.939
59521W        W31946  39.065   3.397  14.824
59522W        W31947   2.345   9.150  11.555
59523W        W31948  16.278  16.811   4.605
59524W        W31949  11.204   3.719  12.509
59525W        W31950  11.844  38.560  14.472
59526W        W31951  16.103  36.445   1.343
59527W        W31952   0.457  44.935   1.911
59528W        W31953  37.866  13.230  10.433
59529W        W31954  15.216  32.526  11.448
59530W        W31955  27.975  22.686  12.014
59531W        W31956  12.684   9.675  12.383
59532W        W31957  13.640  16.145   4.690
59533W        W31958  11.361  15.774  11.093
59534W        W31959  36.509   5.332   4.705
59535W        W31960  16.791  37.944   0.826
59536W        W31961  19.173  20.719  14.425
59537W        W31962  13.807  41.002   2.726
59538W        W31963   7.172  29.142  13.397
59539W        W31964  18.238  14.259   0.887
59540W        W31965  19.663  24.504  11.606
59541W        W31966  19.771  35.481   4.283
59542W        W31967  27.477  28.982   2.234
59543W        W31968   9.219  42.803   2.235
59544W        W31969  30.427   1.815   2.776
59545W        W31970  29.534  29.640  11.588
59546W        W31971   1.898  34.007  10.567
59547W        W31972  17.080  32.412   1.351
59548W        W31973  21.226  21.133   3.255
59549W        W31974  31.013  12.229   0.942
59550W        W31975  33.899   6.400   4.709
59551W        W31976  10.363  28.952   2.795
59552W        W31977  16.226  27.688   0.481
59553W        W31978  11.805   1.911  12.908
59554W        W31979  18.087  34.602  11.462
59555W        W31980  44.863  38.333   0.906
59556W        W31981  35.985  41.445   1.851
59557W        W31982  17.765   0.887  10.563
59558W        W31983  33.443  35.905  10.991
59559W        W31984   5.358  43.322  12.075
59560W        W31985  22.114  23.127   3.635
59561W        W31986  17.219   0.795   4.348
59562W        W31987  13.166  17.758  12.866
59563W        W31988  21.526  11.659  11.428
59564W        W31989   5.251  44.007   1.742
59565W        W31990  43.287  10.204   3.238
59566W        W31991  10.690  30.642  10.632
59567W        W31992  35.025  30.461   0.305
59568W        W31993  24.216  19.093  11.964
59569W        W31994  29.606  27.184   1.302
59570W        W31995  25.085  41.293  11.604
59571W        W31996   2.727  26.979   1.241
59572W        W31997  24.681  31.976   3.866
59573W        W31998  26.148  40.806  13.017
59574W        W31999  37.339  39.346  11.528
59575W        W32000   9.701  41.325  10.529
59576W        W32001  38.028  10.819   1.844
59577W        W32002  31.572  34.880   3.690
59578W        W32003   7.823   9.197   1.733
59579W        W32004  35.554  27.073  13.905
59580W        W32005  10.740   1.481  12.383
59581W        W32006  32.509  26.489  14.821
59582W        W32007  16.686   0.296   1.401
59583W        W32008  19.747  35.404   4.733
59584W        W32009  36.426  37.503  13.539
59585W        W32010  20.250  20.172  13.993
59586W        W32011  43.952   0.875  12.911
59587W        W32012  44.903   4.358  12.507
59588W        W32013  22.743  39.025   0.345
59589W        W32014  19.574  33.915   2.275
59590W        W32015  40.868   0.745  14.758
59591W        W32016  17.297  25.610   3.755
59592W        W32017  43.414  42.491   2.287
59593W        W32018  19.171  26.094  13.925
59594W        W32019  40.545  29.448  14.424
59595W        W32020  17.620   1.751  12.539
59596W        W32021  37.462  13.336   2.789
59597W        W32022  10.144  26.191   2.293
59598W        W32023  17.750   2.785  11.450
59599W        W32024   4.830  21.230   2.808
59600W        W32025  16.673  36.416  13.372
59601W        W32026  29.453  15.601   1.756
59602W        W32027  17.265  25.218   3.376
59603W        W32028  11.772  42.880  10.475
59604W        W32029  22.166  37.018   2.672
59605W        W32030  41.998  24.536   0.874
59606W        W32031   4.245   0.750  14.504
59607W        W32032  27.177  13.745  11.934
59608W        W32033  19.599   2.964  10.436
59609W        W32034  38.006   2.878   1.795
59610W        W32035  18.676   0.413  12.447
59611W        W32036   0.279  21.204  14.443
59612W        W32037  18.706  23.096  12.882
59613W        W32038  41.346  22.086   4.323
59614W        W32039  42.388  41.805  12.511
59615W        W32040  43.941   3.223  13.977
59616W        W32041  36.042  22.665   3.238
59617W        W32042  21.149  26.156  14.016
59618W        W32043   9.281  42.818   0.365
59619W        W32044  39.912  39.526  12.515
59620W        W32045  42.815   4.373   3.211
59621W        W32046  11.279  38.552  13.538
59622W        W32047  18.131  26.185  14.438
59623W        W32048  10.157  43.304  11.027
59624W        W32049  31.539  29.146  11.879
59625W        W32050  21.066  26.198  14.850
59626W        W32051  44.358  20.752   2.382
59627W        W32052  38.366  39.470  12.396
59628W        W32053  23.572   8.377  12.571
59629W        W32054  27.124   0.399   1.825
59630W        W32055  19.750   0.493  13.030
59631W        W32056   8.174  41.536   0.857
59632W        W32057  20.572  20.535   2.178
59633W        W32058  31.623   4.811   3.807
59634W        W32059  28.067  25.180  14.435
59635W        W32060  42.379  35.484  10.464
59636W        W32061   7.373  11.846   1.706
59637W        W32062  28.115  32.468  10.115
59638W        W32063  19.140   5.907   0.746
59639W        W32064  22.014   9.717   1.264
59640W        W32065   3.940  11.340  10.422
59641W        W32066   9.372  25.157   3.362
59642W        W32067  35.361  34.047   4.785
59643W        W32068  26.524  21.676   3.258
59644W        W32069   3.391   7.725   2.900
59645W        W32070  31.969  32.613   0.873
59646W        W32071  38.478  36.391   1.725
59647W        W32072  36.873  18.686  12.975
59648W        W32073  37.535  25.578  12.418
59649W        W32074  27.136  43.444  10.905
59650W        W32075  15.286  17.672   0.475
59651W        W32076  28.074  23.553  10.407
59652W        W32077  43.348  29.438  14.436
59653W        W32078  20.538  14.189   0.924
59654W        W32079  17.224  36.881   3.366
59655W        W32080  43.317  34.980  12.445
59656W        W32081  20.260  32.509  11.406
59657W        W32082  16.705  22.612   2.767
59658W        W32083   9.835  16.163  13.473
59659W        W32084  10.641  37.453   2.376
59660W        W32085  21.648  20.196  14.365
59661W        W32086  15.099   9.758   2.901
59662W        W32087  21.673   9.373   1.773
59663W        W32088  18.092  35.998  12.892
59664W        W32089   6.185  25.166   3.823
59665W        W32090  16.137  43.276   2.340
59666W        W32091  30.547   1.397  11.407
59667W        W32092  28.608  20.555  12.542
59668W        W32093  13.291  36.536  12.905
59669W        W32094  22.620   4.255  13.382
59670W        W32095  12.773  10.189   4.256
59671W        W32096  11.749   4.805  12.533
59672W        W32097  30.623  21.660  12.988
59673W        W32098  11.704  14.230   3.206
59674W        W32099  39.919  22.116   1.304
59675W        W32100  37.976  26.958  14.459
59676W        W32101   6.858   0.823   4.149
59677W        W32102   2.834  28.521  10.584
59678W        W32103   9.315   6.353  13.880
59679W        W32104  17.594  17.566  14.513
59680W        W32105  24.174  29.149  13.499
59681W        W32106  37.524  28.148   5.266
59682W        W32107  14.217   6.333   0.473
59683W        W32108   0.396  38.445  13.978
59684W        W32109  35.873  37.348   5.229
59685W        W32110  14.118  23.100   2.285
59686W        W32111  38.977   2.226   3.640
59687W        W32112  18.063  26.045   4.131
59688W        W32113  29.547   4.818  10.629
59689W        W32114  14.147  38.462   1.294
59690W        W32115  14.652  43.314  13.974
59691W        W32116  29.446  29.031  13.884
59692W        W32117  16.133  24.113  10.949
59693W        W32118  15.776  41.834   1.234
59694W        W32119  25.189  39.428   2.374
59695W        W32120  27.077  23.113   1.731
59696W        W32121  20.675  25.004   4.600
59697W        W32122  29.139   3.300   2.688
59698W        W32123  31.959  21.598  12.025
59699W        W32124  38.077  37.889   0.453
59700W        W32125  13.203   0.769  13.978
59701W        W32126   1.283   3.253   1.336
59702W        W32127   3.217  24.542   3.679
59703W        W32128  20.118  16.196  13.932
59704W        W32129   7.758  31.054  13.349
59705W        W32130  20.177  36.460   1.832
59706W        W32131  23.687  32.526   4.232
59707W        W32132   0.363  22.097  13.503
59708W        W32133   3.226   3.814   2.703
59709W        W32134  26.550   9.682  11.932
59710W        W32135  35.577   3.273  14.933
59711W        W32136  42.354  17.214   3.754
59712W        W32137  36.051  32.117   4.613
59713W        W32138  29.589   7.179  10.985
59714W        W32139   3.385  42.860  10.474
59715W        W32140  21.226   9.769   4.666
59716W        W32141  20.635   7.381   3.156
59717W        W32142  44.782  25.197  11.092
59718W        W32143  44.006   9.205  14.946
59719W        W32144  22.746  28.473  14.952
59720W        W32145  10.698  38.467   2.896
59721W        W32146  26.119  22.240  11.442
59722W        W32147  35.964  28.156  13.481
59723W        W32148   7.668  44.442   9.957
59724W        W32149  36.365  37.339  11.582
59725W        W32150  16.750  23.209  12.086
59726W        W32151   4.397  21.055   0.925
59727W        W32152  30.637  33.590   3.197
59728W        W32153  27.062  15.757   2.881
59729W        W32154  35.580   5.869  11.573
59730W        W32155  24.080  30.118  12.856
59731W        W32156  15.328  12.264   3.183
59732W        W32157  18.158  41.376   4.641
59733W        W32158   2.472  40.948   4.816
59734W        W32159  27.667  12.129  12.445
59735W        W32160  17.187  33.880  10.617
59736W        W32161  18.699  22.543   1.451
59737W        W32162  39.851  34.413   1.780
59738W        W32163  33.444  24.698  12.548
59739W        W32164  16.709  22.576  10.452
59740W        W32165  37.582  42.446  13.864
59741W        W32166  27.590  27.144  14.928
59742W        W32167  39.818  35.567   3.160
59743W        W32168  16.265   1.245   4.305
59744W        W32169  31.897  18.569  10.472
59745W        W32170  34.520  33.102  12.042
59746W        W32171  19.263   7.323  12.517
59747W        W32172  23.569  15.243  12.967
59748W        W32173  31.927  27.154   0.397
59749W        W32174   7.416  25.683   4.224
59750W        W32175  10.332  21.204   3.349
59751W        W32176  30.913   1.405   3.237
59752W        W32177  38.022  40.326  14.502
59753W        W32178  25.148  44.977  13.508
59754W        W32179   3.786  23.083  12.526
59755W        W32180  15.275  36.960  13.050
59756W        W32181  35.557  32.517   4.232
59757W        W32182  20.756  19.111  13.477
59758W        W32183  43.937  35.427  13.848
59759W        W32184  38.453  20.596   0.332
59760W        W32185  26.066  10.877  14.276
59761W        W32186  29.091  12.160   2.822
59762W        W32187  27.057  26.095   2.311
59763W        W32188  31.897  28.979  11.501
59764W        W32189  30.988  16.588  13.393
59765W        W32190  19.692  10.781  14.007
59766W        W32191  33.874  11.624   2.183
59767W        W32192  15.278  33.386  14.942
59768W        W32193  25.558  14.806   2.393
59769W        W32194  27.048  11.222  14.968
59770W        W32195  33.481  44.773  13.909
59771W        W32196   3.387  10.292  13.867
59772W        W32197  15.658  39.964  10.437
59773W        W32198  33.943  34.615  13.449
59774W        W32199  23.163   2.786  14.422
59775W        W32200  21.185  32.977   1.694
59776W        W32201  25.630   6.699  14.884
59777W        W32202  42.862   8.833  13.507
59778W        W32203   5.765  38.392   0.272
59779W        W32204  28.172  11.678   4.309
59780W        W32205  42.940  43.282  10.974
59781W        W32206  19.731  15.172  12.958
59782W        W32207  24.696  20.543  11.024
59783W        W32208  24.118  39.437   0.776
59784W        W32209   5.415  27.983  12.964
59785W        W32210  11.179  11.263  13.415
59786W        W32211  10.153   1.463   2.799
59787W        W32212  40.890  11.153  11.027
59788W        W32213  12.697  38.543   3.279
59789W        W32214  30.991   6.303   3.810
59790W        W32215  10.366  17.183   0.324
59791W        W32216  27.647  31.091  13.433
59792W        W32217  22.209   2.256  13.033
59793W        W32218  27.967  19.186   1.794
59794W        W32219   0.345  39.950  14.494
59795W        W32220   2.471  30.560  13.531
59796W        W32221  11.846  18.680  12.506
59797W        W32222  41.463  36.949  14.993
59798W        W32223  39.460  17.206  14.351
59799W        W32224  28.171  40.334   1.709
59800W        W32225  14.592   1.335   4.263
59801W        W32226  16.214  27.945   0.427
59802W        W32227   1.922  37.409  10.095
59803W        W32228  30.509  31.964   3.816
59804W        W32229  44.791  25.554   2.408
59805W        W32230  36.883  30.069  12.082
59806W        W32231  41.851  14.690   0.244
59807W        W32232  39.940  36.507  11.997
59808W        W32233  34.999   5.812  14.005
59809W        W32234  35.961  36.079  14.859
59810W        W32235   2.887  36.853  10.608
59811W        W32236  32.994  42.379   2.721
59812W        W32237  37.530  39.519  12.482
59813W        W32238  16.722  41.943   4.807
59814W        W32239  30.924   3.313   1.328
59815W        W32240  16.275  38.479  14.924
59816W        W32241  21.512  19.778   2.326
59817W        W32242  42.388   5.928   4.119
59818W        W32243  41.339   4.890   5.240
59819W        W32244  36.948  20.683   0.328
59820W        W32245  12.781  29.665  13.924
59821W        W32246  13.707  40.327   4.819
59822W        W32247  11.261  32.627   4.193
59823W        W32248  31.527  33.380   1.907
59824W        W32249   1.321   5.208   1.274
59825W        W32250  10.654  39.522   1.843
59826W        W32251   9.351  15.676   0.411
59827W        W32252  40.502  30.445  13.542
59828W        W32253  39.543  30.412   0.848
59829W        W32254   9.840  36.014  11.949
59830W        W32255   2.875  11.298  11.434
59831W        W32256  14.679   1.833   2.768
59832W        W32257   7.817  14.338   3.710
59833W        W32258  19.688  36.490   4.329
59834W        W32259  23.618   9.815  13.420
59835W        W32260  16.120  22.506   4.776
59836W        W32261  23.513  27.102  12.002
59837W        W32262   0.255  11.660   3.152
59838W        W32263  22.696  32.036  12.847
59839W        W32264  32.065  41.867  13.956
59840W        W32265  32.406  27.004   4.680
59841W        W32266   9.848   6.731  13.828
59842W        W32267  21.038  24.022  12.441
59843W        W32268  38.551  11.251  10.457
59844W        W32269  29.617   0.972   4.330
59845W        W32270  37.070  26.961  14.983
59846W        W32271  33.620   9.717   3.146
59847W        W32272  41.475  42.030   3.183
59848W        W32273  10.307  20.037  14.347
59849W        W32274  28.147   1.974   4.617
59850W        W32275  27.525   9.711  11.476
59851W        W32276  29.665   2.853   2.862
59852W        W32277  34.972  44.394   9.976
59853W        W32278  39.989  25.484  12.932
59854W        W32279   3.938  20.647  11.969
59855W        W32280  33.073   3.308   4.835
59856W        W32281  40.912  41.822   4.634
59857W        W32282  36.442  26.025   2.412
59858W        W32283   2.436  33.026   3.762
59859W        W32284   0.870  25.621  13.529
59860W        W32285  41.318  28.087   2.356
59861W        W32286  28.496  15.297  14.478
59862W        W32287  25.000  33.079  12.536
59863W        W32288  18.705   4.220   0.954
59864W        W32289  35.493  26.182   4.176
59865W        W32290   7.259   8.686   1.274
59866W        W32291   3.454  35.490   4.316
59867W        W32292  23.175  31.573   1.397
59868W        W32293  31.640  43.937   1.905
59869W        W32294  17.627  27.682  14.468
59870W        W32295  24.990  11.801  11.047
59871W        W32296  18.181   4.232   3.654
59872W        W32297  14.179  20.270   3.647
59873W        W32298  16.161  43.441  14.291
59874W        W32299  35.867  16.598   2.765
59875W        W32300  42.957  37.520  12.372
59876W        W32301  42.502  19.240   1.700
59877W        W32302  15.812  24.563  12.861
59878W        W32303  17.629  14.664   0.963
59879W        W32304  28.977  11.742   3.326
59880W        W32305  16.662   4.442   1.723
59881W        W32306  37.979  26.956   2.219
59882W        W32307  22.193  28.676   4.680
59883W        W32308  11.790   1.315   0.752
59884W        W32309   3.728   7.910  13.906
59885W        W32310  16.592  34.612  10.479
59886W        W32311  29.012   9.271   4.269
59887W        W32312   3.321  25.535  14.828
59888W        W32313  14.652   4.820  11.020
59889W        W32314  32.439  27.635   4.183
59890W        W32315  16.274  39.362   2.833
59891W        W32316  42.840  29.166  14.007
59892W        W32317  43.310  16.241  14.279
59893W        W32318   4.413  16.747   4.599
59894W        W32319  16.219   3.438  14.874
59895W        W32320  16.613  24.720  12.972
59896W        W32321  10.839  30.443   1.746
59897W        W32322  15.643   8.704  10.905
59898W        W32323  43.513  25.626  13.031
59899W        W32324  30.518  28.649   0.350
59900W        W32325  29.613   6.884   1.282
59901W        W32326  41.442  29.129  12.524
59902W        W32327  39.445  30.573  12.942
59903W        W32328  31.489   1.933  11.421
59904W        W32329  43.888  18.147   2.314
59905W        W32330   4.432  24.659  14.894
59906W        W32331  15.151   3.383   9.939
59907W        W32332  30.929   0.493  12.977
59908W        W32333  12.762  11.730  10.546
59909W        W32334   5.808  32.074   4.157
59910W        W32335  35.864  32.457   2.823
59911W        W32336  23.216  14.741   3.212
59912W        W32337   7.302  16.779   2.381
59913W        W32338   5.273   2.459  10.410
59914W        W32339  17.759  15.784  14.472
59915W        W32340  38.337  31.500  13.544
59916W        W32341   7.877   2.925  14.781
59917W        W32342  33.593   1.954  12.438
59918W        W32343  27.041   3.823  12.550
59919W        W32344   1.878   3.830   2.323
59920W        W32345   3.375  35.502  12.385
59921W        W32346  33.382  40.313  14.304
59922W        W32347   6.295  11.722   1.933
59923W        W32348   4.212  38.011  13.328
59924W        W32349  40.925  28.037   2.882
59925W        W32350  21.039  21.102   9.967
59926W        W32351  20.092  11.322   0.469
59927W        W32352  24.145  22.059   2.821
59928W        W32353  29.512   8.884  12.494
59929W        W32354  41.531   0.444   1.797
59930W        W32355  28.114  21.182   4.760
59931W        W32356  33.561  36.891  13.311
59932W        W32357   4.378  42.790  12.363
59933W        W32358  27.586   9.362   0.375
59934W        W32359  24.156  16.191  14.428
59935W        W32360  24.105  34.889  14.782
59936W        W32361   6.328   6.680  12.000
59937W        W32362  15.677  12.642  12.446
59938W        W32363  43.469  27.021   0.834
59939W        W32364   9.330  10.349  11.877
59940W        W32365  37.529  27.682   3.634
59941W        W32366   4.204  38.823  11.941
59942W        W32367   2.808   6.722  13.943
59943W        W32368  33.123   0.766   3.181
59944W        W32369  21.126   5.765   1.869
59945W        W32370  12.706   6.684   2.759
59946W        W32371  44.870   5.240   1.781
59947W        W32372  36.903  27.649  12.363
59948W        W32373  15.707  42.478  10.971
59949W        W32374  40.400  28.598   3.741
59950W        W32375  18.215   4.445   1.248
59951W        W32376  32.961  15.727  12.921
59952W        W32377   5.823  10.654   1.256
59953W        W32378   9.194   5.706   1.360
59954W        W32379  13.763  22.244  14.381
59955W        W32380  11.754  29.481   9.939
59956W        W32381  44.851  20.188   3.300
59957W        W32382  13.639  29.497   4.787
59958W        W32383  15.689  44.005  13.487
59959W        W32384  11.735  39.467   3.287
59960W        W32385  27.634  22.688  14.432
59961W        W32386  31.920   3.378   4.715
59962W        W32387  30.046  18.288   3.280
59963W        W32388  13.794  14.712  10.464
59964W        W32389  42.315   4.829  14.928
59965W        W32390  16.740   8.310  14.376
59966W        W32391  29.443   0.472   3.642
59967W        W32392  36.004   7.185   9.961
59968W        W32393  38.421   1.344   1.418
59969W        W32394  10.854  41.361   4.154
59970W        W32395  20.715   1.931   2.673
59971W        W32396  30.016  21.542   3.676
59972W        W32397  11.698  35.951   0.762
59973W        W32398  19.104  16.644  14.014
59974W        W32399  40.332   1.352  11.889
59975W        W32400  33.085  19.267   2.760
59976W        W32401   4.228  43.792  12.830
59977W        W32402   3.744  40.037   3.329
59978W        W32403  36.501  31.995  11.862
59979W        W32404  41.969   2.803  12.940
59980W        W32405  40.991   7.892   0.249
59981W        W32406  40.548   3.865   1.796
59982W        W32407   1.441  11.816   1.268
59983W        W32408  41.910   1.793  10.095
59984W        W32409  36.926  30.472   1.757
59985W        W32410  27.614  40.842  14.406
59986W        W32411  32.628  41.428   2.183
59987W        W32412  37.911  40.915   1.416
59988W        W32413   6.210  12.285  14.404
59989W        W32414  23.081  10.781  11.591
59990W        W32415  33.043  33.937  13.493
59991W        W32416  34.524  23.650  12.513
59992W        W32417  42.519  22.174   3.748
59993W        W32418  10.159  33.415   0.864
59994W        W32419   0.331  19.704  11.574
59995W        W32420   6.309  15.170   2.753
59996W        W32421  22.530   2.827  12.547
59997W        W32422  15.319  33.962   3.215
59998W        W32423  13.116  16.708   3.667
59999W        W32424   6.682  15.755   4.695
60000W        W32425  36.404  41.885   1.703
60001W        W32426  21.123  26.602   4.120
60002W        W32427  32.079   7.271  11.590
60003W        W32428  24.555   3.779   0.803
60004W        W32429  28.580  25.630  14.375
60005W        W32430  29.142  10.257  10.093
60006W        W32431  44.755  12.781   4.712
60007W        W32432   0.394  14.726  14.936
60008W        W32433  36.470   3.849   3.276
60009W        W32434   6.827   2.315  11.029
60010W        W32435  11.653   8.753  14.957
60011W        W32436   0.431  36.402  14.327
60012W        W32437  40.860  41.322   4.811
60013W        W32438  34.048   5.778  14.769
60014W        W32439  31.594  32.133   4.819
60015W        W32440  11.735   2.464   4.665
60016W        W32441  18.107  24.079   1.742
60017W        W32442  13.624  40.815   3.865
60018W        W32443   7.783   4.895   3.245
60019W        W32444  21.018   6.247   4.211
60020W        W32445  25.609  32.542   1.433
60021W        W32446  36.373   1.937  12.444
60022W        W32447  17.607  17.089  13.310
60023W        W32448   0.324  39.466   1.376
60024W        W32449  15.606  28.445  14.793
60025W        W32450   9.649  23.516  11.533
60026W        W32451  24.997   9.793   1.392
60027W        W32452  43.409  20.651   3.282
60028W        W32453  24.082   2.786   3.344
60029W        W32454  16.178  31.435  11.550
60030W        W32455  32.100   2.905   0.306
60031W        W32456  36.514   9.854   0.905
60032W        W32457   4.277  41.932  13.514
60033W        W32458  17.128  44.853   0.765
60034W        W32459  36.412  30.133   3.293
60035W        W32460   2.932  15.264   0.421
60036W        W32461  17.165   7.731   2.674
60037W        W32462  18.075  39.950  14.891
60038W        W32463  24.131   6.197   4.187
60039W        W32464  21.598  19.107  11.396
60040W        W32465  26.515  32.508  11.994
60041W        W32466  28.065  21.748   5.688
60042W        W32467   3.891  16.611   2.223
60043W        W32468  15.274  17.623  10.466
60044W        W32469  28.475  40.307  13.009
60045W        W32470  20.073   3.947  14.763
60046W        W32471  28.141   0.312  12.409
60047W        W32472   6.241  34.527  13.981
60048W        W32473  39.899  44.403  12.874
60049W        W32474   6.778   1.244   4.114
60050W        W32475  13.107   8.270  10.424
60051W        W32476  29.047   5.725  10.516
60052W        W32477  12.853  39.995  10.516
60053W        W32478   9.394  10.244   1.229
60054W        W32479  30.139  26.481   4.789
60055W        W32480  12.684   3.272  12.556
60056W        W32481   9.719  12.766   2.741
60057W        W32482  28.001  16.198   3.350
60058W        W32483  11.306  38.019  14.495
60059W        W32484  19.534  10.662   4.650
60060W        W32485  37.067  17.583  12.074
60061W        W32486  24.150  12.725   4.681
60062W        W32487   4.912  19.194   2.793
60063W        W32488  17.733  13.768  14.413
60064W        W32489  11.152   0.775   2.867
60065W        W32490  12.273   1.745   1.768
60066W        W32491   4.317  23.651  11.944
60067W        W32492   9.363   6.906  11.395
60068W        W32493  34.581  16.133   1.764
60069W        W32494  14.699  22.540  11.508
60070W        W32495  19.701  13.284   4.348
60071W        W32496   3.325  24.226  11.924
60072W        W32497  32.071   0.365  12.473
60073W        W32498  19.747   0.855   3.209
60074W        W32499  38.949  37.883   0.454
60075W        W32500   0.785   2.894   3.763
60076W        W32501   2.797   8.714  14.846
60077W        W32502  17.265   7.307  11.003
60078W        W32503  33.086  36.549  14.888
60079W        W32504   4.322  28.672   3.746
60080W        W32505  27.651  41.894   4.816
60081W        W32506   9.721  31.572   3.374
60082W        W32507   3.761  14.738   2.179
60083W        W32508  33.408   7.759   1.301
60084W        W32509  16.097  29.604  13.023
60085W        W32510  36.013  39.019   2.207
60086W        W32511  28.668  38.889   2.697
60087W        W32512  26.608  24.205  11.903
60088W        W32513  11.623  14.294  10.057
60089W        W32514  32.514  17.301   4.710
60090W        W32515   3.901  36.497   4.604
60091W        W32516  42.336  31.567   4.325
60092W        W32517  36.959   5.693   3.353
60093W        W32518  26.006  28.670  14.841
60094W        W32519  29.577  15.752  12.042
60095W        W32520  41.995   5.811  14.791
60096W        W32521  23.118  30.150  10.995
60097W        W32522  12.714  15.578   2.384
60098W        W32523  17.118  14.264   9.981
60099W        W32524  24.645  39.413   1.716
60100W        W32525  15.601  16.687   0.858
60101W        W32526  44.905  41.500  11.591
60102W        W32527  34.094  33.521   2.753
60103W        W32528  25.553  25.600  12.416
60104W        W32529  11.137  19.649   1.330
60105W        W32530  43.288   6.296  10.982
60106W        W32531  13.626  30.064   3.816
60107W        W32532  11.706  43.890   3.723
60108W        W32533  27.527  26.034   3.248
60109W        W32534  23.654   5.366  11.909
60110W        W32535  28.974  23.542  12.965
60111W        W32536  13.801  38.494   2.212
60112W        W32537  41.888  41.026  11.395
60113W        W32538  29.071  26.653  10.989
60114W        W32539  37.559   2.457   5.285
60115W        W32540  34.478  39.352  14.878
60116W        W32541   0.307   6.389   4.222
60117W        W32542   7.739  39.058  14.891
60118W        W32543  37.068  11.175  12.562
60119W        W32544  10.295  32.431   2.870
60120W        W32545   7.839  25.470  10.948
60121W        W32546  30.047  40.845   2.782
60122W        W32547  22.687  26.190   0.244
60123W        W32548  33.079   8.659   3.244
60124W        W32549  24.137  44.003  10.977
60125W        W32550   1.928  13.722   2.682
60126W        W32551  20.600  41.851  14.400
60127W        W32552   7.740  12.341   3.323
60128W        W32553  24.122  22.184  11.458
60129W        W32554  36.842  37.018   3.270
60130W        W32555  42.810  18.143   0.384
60131W        W32556  32.102  23.678   4.717
60132W        W32557  27.532  30.573   1.332
60133W        W32558  37.916   5.250  11.471
60134W        W32559  16.768  43.830   0.880
60135W        W32560  13.231   6.820  12.072
60136W        W32561  26.044  36.034  12.534
60137W        W32562  17.632  37.045   3.295
60138W        W32563  32.975  27.658  13.452
60139W        W32564  20.734  39.915   1.910
60140W        W32565  26.688  32.017   4.232
60141W        W32566  35.077   5.748   4.801
60142W        W32567   7.741  40.523  14.026
60143W        W32568  22.183  34.058   1.349
60144W        W32569  33.984   4.850  13.439
60145W        W32570  43.982  27.080   0.271
60146W        W32571   9.749   7.414  12.340
60147W        W32572  29.663  38.935  12.937
60148W        W32573  29.595   1.732   2.718
60149W        W32574   0.249  42.865   2.397
60150W        W32575  22.625  19.070  14.806
60151W        W32576  23.207   5.800   3.781
60152W        W32577  39.817  29.081  13.010
60153W        W32578  36.363  30.095   2.343
60154W        W32579  39.853  32.509  13.861
60155W        W32580  37.495  36.563  10.497
60156W        W32581  28.137   9.360  12.053
60157W        W32582  44.503   2.852  11.887
60158W        W32583   3.745  42.936  10.077
60159W        W32584  26.014   4.385  10.934
60160W        W32585  43.848  16.124  11.413
60161W        W32586  30.975  40.325   1.694
60162W        W32587   3.954  39.823   1.441
60163W        W32588  32.948  10.252   3.169
60164W        W32589  18.111  18.206   1.366
60165W        W32590   7.836  32.006   3.714
60166W        W32591  34.407  44.434  11.109
60167W        W32592  42.518  30.633   3.194
60168W        W32593  27.084  14.219  12.875
60169W        W32594   1.252   4.742   4.758
60170W        W32595   9.182  41.796  11.914
60171W        W32596  30.919  14.225  12.074
60172W        W32597  26.497   6.221   1.744
60173W        W32598  34.120  28.519   1.339
60174W        W32599  12.221  26.690   4.611
60175W        W32600  37.907   8.301   9.451
60176W        W32601  18.171  34.082  14.461
60177W        W32602  24.040  22.697   1.818
60178W        W32603   4.227  10.177   3.784
60179W        W32604  10.149  10.150  10.435
60180W        W32605  19.584  31.620   0.866
60181W        W32606  44.444  30.140  11.098
60182W        W32607  25.106  20.610  13.876
60183W        W32608  29.023  10.634   3.846
60184W        W32609   4.746  20.099  10.418
60185W        W32610  22.659   2.896   1.808
60186W        W32611  16.757  40.997   1.424
60187W        W32612  36.590  43.959   0.256
60188W        W32613  35.399  34.492  12.957
60189W        W32614  30.500  34.046  13.324
60190W        W32615  33.076  23.497  13.983
60191W        W32616  16.586  10.863   3.790
60192W        W32617   9.794  21.203   5.302
60193W        W32618  43.818  24.033  10.984
60194W        W32619  39.861  28.112   0.840
60195W        W32620   9.207  41.394   4.288
60196W        W32621  22.500  21.615   1.922
60197W        W32622   0.391  13.321  13.820
60198W        W32623   0.975  15.806  12.508
60199W        W32624   8.721  35.514  13.355
60200W        W32625  42.976   5.372   4.803
60201W        W32626  11.648  15.137   3.742
60202W        W32627  29.565  28.072  14.451
60203W        W32628  21.128  39.472  12.483
60204W        W32629  25.594  37.470  11.480
60205W        W32630  20.151  41.875   3.165
60206W        W32631  39.341  20.613  11.958
60207W        W32632   3.843   2.250   1.445
60208W        W32633  18.140  39.467   4.746
60209W        W32634   7.376  39.869  13.041
60210W        W32635  14.810  28.968   5.124
60211W        W32636  10.232  34.001  11.102
60212W        W32637  22.066  36.414  14.456
60213W        W32638  26.592  15.682  14.436
60214W        W32639  41.533   5.331  11.406
60215W        W32640   1.857  24.172   4.838
60216W        W32641  28.545   0.300  14.498
60217W        W32642  40.352  36.042  11.448
60218W        W32643  30.947  38.962   1.427
60219W        W32644  30.078   0.967  10.564
60220W        W32645  14.131  30.148  12.574
60221W        W32646  33.026  18.169  12.435
60222W        W32647   1.808  40.942   4.697
60223W        W32648  33.579  27.476   2.729
60224W        W32649  34.510  31.508  10.628
60225W        W32650  10.243  28.620   2.672
60226W        W32651   9.277  19.183   0.966
60227W        W32652  16.576  28.952  13.966
60228W        W32653  22.596   0.959   4.704
60229W        W32654  39.536  27.118  11.535
60230W        W32655  14.704  29.989  10.431
60231W        W32656  34.475   9.322   4.259
60232W        W32657  36.024  41.511   0.819
60233W        W32658  42.459  18.779   4.745
60234W        W32659  19.590  11.643   0.398
60235W        W32660  27.987  40.965   0.256
60236W        W32661   5.772  10.145   1.417
60237W        W32662  22.122  41.942  12.855
60238W        W32663  33.041  24.225  10.944
60239W        W32664   8.397  32.414   1.896
60240W        W32665  33.415  26.076   0.384
60241W        W32666  24.004  42.386  13.836
60242W        W32667  23.059   0.262   3.818
60243W        W32668  37.871  19.040   2.280
60244W        W32669  42.427  35.469   3.713
60245W        W32670  17.192  41.325  13.538
60246W        W32671   1.809  42.943   1.310
60247W        W32672   5.746  32.456   2.319
60248W        W32673  36.527  35.426   2.691
60249W        W32674   3.781  21.696   2.307
60250W        W32675  32.551  21.188  14.385
60251W        W32676  28.620   9.301  13.057
60252W        W32677  24.071  24.021   1.413
60253W        W32678  44.891  13.107  12.560
60254W        W32679  17.071  17.647  12.010
60255W        W32680  29.140   3.794  10.471
60256W        W32681  41.487  12.199   0.876
60257W        W32682  30.925   6.194  14.939
60258W        W32683  42.822   5.750   2.695
60259W        W32684  18.733  43.353  12.340
60260W        W32685   2.845  28.451  11.874
60261W        W32686  31.140  34.878  10.890
60262W        W32687  44.469  14.157  12.950
60263W        W32688  26.502   8.218   4.697
60264W        W32689  35.009  24.584  10.526
60265W        W32690  13.267  38.867   2.705
60266W        W32691  20.246  17.069   1.795
60267W        W32692  39.516   3.847   4.613
60268W        W32693   5.285  30.118  13.484
60269W        W32694  34.505  39.355  13.857
60270W        W32695  25.508  25.694   2.414
60271W        W32696   0.335  27.006  13.315
60272W        W32697  11.728  13.729  14.325
60273W        W32698  26.623  13.771  14.469
60274W        W32699  27.067  43.462  14.793
60275W        W32700  37.974  29.555  13.030
60276W        W32701  38.829   7.850  14.482
60277W        W32702  34.554  38.892   2.875
60278W        W32703  41.859  36.058  13.896
60279W        W32704  10.363   1.789  11.538
60280W        W32705  26.484  34.956  12.398
60281W        W32706  21.562  36.006   4.795
60282W        W32707  27.057  33.953   2.357
60283W        W32708  44.264  43.383   0.327
60284W        W32709  23.009  21.669  11.104
60285W        W32710   1.739  16.674   4.116
60286W        W32711  14.714  12.241  13.378
60287W        W32712  43.380  29.536  11.969
60288W        W32713  24.224  31.432  13.798
60289W        W32714   7.728  35.028  12.518
60290W        W32715   0.363  38.955  12.946
60291W        W32716  36.074   9.826  14.827
60292W        W32717  22.680   6.262   2.877
60293W        W32718  43.794  21.195   1.855
60294W        W32719  16.110  43.764   1.335
60295W        W32720  21.232   1.870  14.333
60296W        W32721  33.122   2.260   3.385
60297W        W32722  11.745   3.451   2.400
60298W        W32723  19.690  11.777  14.942
60299W        W32724  36.994  33.549   4.798
60300W        W32725   1.932  10.793  10.408
60301W        W32726  12.344  21.225   1.253
60302W        W32727  26.063  23.675   1.863
60303W        W32728  38.026  36.845  12.095
60304W        W32729  30.033  42.321  11.479
60305W        W32730  32.065  27.120   3.704
60306W        W32731  29.019  31.521  12.396
60307W        W32732  11.795  37.959  14.762
60308W        W32733   7.297  36.890  12.553
60309W        W32734  27.610  17.669   4.156
60310W        W32735  39.885  26.686  10.065
60311W        W32736  14.260  13.249   1.391
60312W        W32737  11.322  19.150   2.673
60313W        W32738  43.492  16.681   3.342
60314W        W32739  11.770  11.320  10.554
60315W        W32740  29.985  22.090   0.334
60316W        W32741   6.204  26.050   3.225
60317W        W32742  20.132  27.192  11.603
60318W        W32743  42.887   7.186   1.831
60319W        W32744  25.966   8.870  12.861
60320W        W32745  18.073  34.028  11.402
60321W        W32746   1.920   0.348  11.073
60322W        W32747  31.113  39.840   3.187
60323W        W32748  31.507  29.169   3.203
60324W        W32749  18.670  34.870   4.632
60325W        W32750  22.738  29.066  11.924
60326W        W32751  25.702  37.897  13.997
60327W        W32752  17.673  17.210  14.841
60328W        W32753  10.207   2.784  10.628
60329W        W32754  15.285   5.824  11.005
60330W        W32755  10.766  34.516  14.280
60331W        W32756  25.124  20.101  10.927
60332W        W32757   5.206  41.796   3.168
60333W        W32758  27.464  32.026  12.908
60334W        W32759   2.437  42.397   2.201
60335W        W32760  31.590  12.180   3.291
60336W        W32761  25.543   4.359   2.372
60337W        W32762  35.997   8.669   0.323
60338W        W32763   8.293  23.074  11.574
60339W        W32764   8.730  27.051   4.836
60340W        W32765  35.488  39.408  13.064
60341W        W32766  23.040  30.972  11.960
60342W        W32767   8.354  18.245  13.062
60343W        W32768  44.289   8.332  12.351
60344W        W32769  27.506  33.466   3.862
60345W        W32770  27.665  25.132  14.305
60346W        W32771  24.975  36.399  11.462
60347W        W32772  44.384  22.187   3.662
60348W        W32773  39.379  35.972   4.298
60349W        W32774  24.151  11.763  12.357
60350W        W32775  33.621  11.765   1.229
60351W        W32776  12.246  25.532   4.154
60352W        W32777  40.024  23.223   0.315
60353W        W32778   0.430  44.830   0.420
60354W        W32779  20.549  20.661  12.379
60355W        W32780  18.599  19.738  10.591
60356W        W32781  23.057  35.373  12.417
60357W        W32782  20.238  26.491   1.765
60358W        W32783  32.924  15.703   2.275
60359W        W32784  19.076  23.021  14.468
60360W        W32785  22.734   6.763  14.966
60361W        W32786   3.821  30.641  13.427
60362W        W32787  22.076  37.450  12.833
60363W        W32788  15.116  29.637   2.291
60364W        W32789   3.935  38.919   3.382
60365W        W32790   7.313  25.181   3.714
60366W        W32791  43.946  12.293   2.360
60367W        W32792  29.587  23.007   2.787
60368W        W32793  22.578   9.864  11.989
60369W        W32794  33.976  10.180  12.066
60370W        W32795  13.213  23.986  14.449
60371W        W32796   2.366  24.597  12.346
60372W        W32797  13.292  22.999   5.274
60373W        W32798  37.073  25.073   5.263
60374W        W32799   7.758  12.264   4.152
60375W        W32800   6.903  34.044   1.227
60376W        W32801  16.680  21.029  12.550
60377W        W32802  34.098  26.087  14.457
60378W        W32803   0.281  23.146  13.538
60379W        W32804  36.382  15.710   1.848
60380W        W32805  19.738  15.736  10.158
60381W        W32806   4.404  19.093   2.873
60382W        W32807  33.948   5.802   3.852
60383W        W32808  16.310  28.576  14.854
60384W        W32809   6.913   6.387   1.213
60385W        W32810  34.061  17.680   3.688
60386W        W32811  40.905  40.350  11.024
60387W        W32812  34.569  20.144   2.288
60388W        W32813  44.917  36.055   1.879
60389W        W32814  14.768  36.876   2.328
60390W        W32815  12.307  17.797   0.392
60391W        W32816  15.711  41.823   1.701
60392W        W32817  16.156   3.294   0.457
60393W        W32818  27.558  22.208  11.077
60394W        W32819  11.223  26.651   0.452
60395W        W32820  43.793  44.305   4.194
60396W        W32821  26.529  26.543  14.896
60397W        W32822  38.982  18.153   4.275
60398W        W32823  30.960   5.253   0.358
60399W        W32824  29.533  34.426  12.096
60400W        W32825  14.206  30.097  10.929
60401W        W32826  15.761  39.558  13.415
60402W        W32827  32.590  21.199   4.732
60403W        W32828  31.099  28.544  14.473
60404W        W32829  43.815  35.450   4.682
60405W        W32830  26.504  41.527   9.991
60406W        W32831  39.526  29.659  11.596
60407W        W32832  26.496  29.559   4.285
60408W        W32833  30.001   2.792   0.268
60409W        W32834   2.760  21.106   1.713
60410W        W32835  43.340  35.452   4.781
60411W        W32836  16.785  22.702   4.829
60412W        W32837  12.610  24.091  14.322
60413W        W32838  36.055  29.581   0.345
60414W        W32839  25.152  13.123   1.268
60415W        W32840  24.612  34.993  13.988
60416W        W32841  29.464  22.667  14.879
60417W        W32842  40.947  27.605   3.865
60418W        W32843   0.460  25.093   4.642
60419W        W32844   5.223  44.771   4.337
60420W        W32845   6.899  41.369   0.446
60421W        W32846  40.364  37.035   4.762
60422W        W32847  14.334  34.499   0.748
60423W        W32848  28.602  42.358   1.384
60424W        W32849  11.300  29.138   1.378
60425W        W32850   1.453  19.082  13.808
60426W        W32851  43.837  10.196  14.383
60427W        W32852   2.857   4.206   1.927
60428W        W32853  20.055  10.848  13.503
60429W        W32854  38.859  38.512  10.009
60430W        W32855  16.273  12.795   2.379
60431W        W32856  41.481  23.533  14.275
60432W        W32857  13.123  23.207   2.712
60433W        W32858  17.258  18.195   1.842
60434W        W32859  25.082  26.494  13.859
60435W        W32860  34.950   7.201  10.989
60436W        W32861   2.967   1.916  12.352
60437W        W32862  38.538  15.314  14.932
60438W        W32863  34.875   2.916   2.791
60439W        W32864  18.643  25.632   0.900
60440W        W32865  41.828  36.548  13.530
60441W        W32866   4.364  41.006   2.263
60442W        W32867  23.556  15.256   1.876
60443W        W32868  17.298  36.910  12.929
60444W        W32869   0.358  16.756   0.929
60445W        W32870  17.725  10.308  14.022
60446W        W32871  20.111  44.924   1.308
60447W        W32872  12.644  25.495  11.034
60448W        W32873  30.473  13.722   4.189
60449W        W32874  15.257  24.136   1.878
60450W        W32875  24.077  13.192  11.892
60451W        W32876  20.064  29.059  10.479
60452W        W32877  16.099  41.538   0.757
60453W        W32878  13.624  14.709   3.161
60454W        W32879  40.945  24.631  12.933
60455W        W32880  22.006   2.314  10.572
60456W        W32881   7.369  26.963   4.132
60457W        W32882   4.358  19.713  10.931
60458W        W32883  22.632  44.398   9.945
60459W        W32884  32.496   7.786  14.294
60460W        W32885   1.454  26.048   3.278
60461W        W32886  38.998  32.052  14.467
60462W        W32887   6.680  31.907  12.890
60463W        W32888   3.860  28.057  14.809
60464W        W32889  40.946  16.578   4.617
60465W        W32890  31.949  40.928  10.642
60466W        W32891  11.157  15.685   1.451
60467W        W32892  42.387   9.271   2.874
60468W        W32893   9.847   0.475  14.495
60469W        W32894  35.871  40.800   1.694
60470W        W32895  26.672  16.806   4.329
60471W        W32896  36.516   0.859  14.832
60472W        W32897   5.821  28.584  12.342
60473W        W32898  31.541  31.050  12.941
60474W        W32899  11.189  42.371   3.774
60475W        W32900  19.043  24.222   2.782
60476W        W32901   4.891  17.649   4.801
60477W        W32902  33.075  21.201  11.474
60478W        W32903  32.116   6.680   1.402
60479W        W32904   8.726  36.980  14.279
60480W        W32905  14.224  28.171   0.329
60481W        W32906  32.554   0.420   3.219
60482W        W32907  18.555  31.562   4.831
60483W        W32908  16.595  42.346   2.288
60484W        W32909  27.637  34.513   4.712
60485W        W32910  36.078  44.357  14.948
60486W        W32911  40.025  37.036   3.689
60487W        W32912  30.055  11.362   2.807
60488W        W32913  32.904  16.104  13.428
60489W        W32914  28.489  37.519  12.340
60490W        W32915  30.138  16.139  11.452
60491W        W32916  29.166  38.457   3.322
60492W        W32917  40.835  20.268  11.609
60493W        W32918  21.682  25.626  10.923
60494W        W32919  42.499   1.429  14.767
60495W        W32920  36.511  12.308  13.820
60496W        W32921   5.814   9.286  11.063
60497W        W32922  41.385  43.360   4.161
60498W        W32923   8.822  15.280   3.356
60499W        W32924  41.323  36.946  14.340
60500W        W32925   7.882   5.906  14.327
60501W        W32926  43.984   3.955   3.751
60502W        W32927  43.387  33.385   1.915
60503W        W32928   2.386   5.876  13.062
60504W        W32929  41.314  35.098  11.507
60505W        W32930  25.677  17.164  13.823
60506W        W32931  19.272  44.366   2.268
60507W        W32932   6.811  35.947   0.459
60508W        W32933  10.149  41.904  10.507
60509W        W32934  27.631   6.882   2.353
60510W        W32935  33.982  20.692   2.409
60511W        W32936  37.537  21.148  13.855
60512W        W32937   6.347  15.622   4.211
60513W        W32938  25.120  31.132   0.960
60514W        W32939  18.188  35.005  14.470
60515W        W32940  22.177  40.361   4.677
60516W        W32941  19.534  26.117   0.418
60517W        W32942   3.737  28.035  10.499
60518W        W32943  44.888  31.514  13.914
60519W        W32944  32.042  22.009  14.031
60520W        W32945  40.910   9.677  12.047
60521W        W32946  34.965  17.572   1.917
60522W        W32947  29.937  31.901  11.049
60523W        W32948  16.649  17.263  14.837
60524W        W32949  26.957  12.345   2.417
60525W        W32950   8.200  37.393   0.908
60526W        W32951   1.832  43.377  11.092
60527W        W32952  38.459   7.745   0.447
60528W        W32953   5.706  30.020  13.916
60529W        W32954  39.964  19.590  12.956
60530W        W32955  21.170  37.907   0.470
60531W        W32956   2.757   9.676   2.685
60532W        W32957  23.529  25.165  13.822
60533W        W32958  17.701  42.446   2.285
60534W        W32959   5.324   6.733   4.774
60535W        W32960   1.406  19.775   1.888
60536W        W32961  41.522  25.174   1.329
60537W        W32962   9.728  35.887  10.891
60538W        W32963   8.691  33.018  11.577
60539W        W32964  15.633  15.129  12.844
60540W        W32965  16.799  11.182  12.435
60541W        W32966   9.198  33.478  12.479
60542W        W32967  31.567  36.088  10.614
60543W        W32968  31.932  17.735   3.745
60544W        W32969  35.926  30.598  14.434
60545W        W32970  35.583  20.249  13.441
60546W        W32971   8.775  32.019   2.405
60547W        W32972   4.786   6.816   3.309
60548W        W32973  23.579  31.535  10.120
60549W        W32974  16.595  29.441  14.900
60550W        W32975  24.205  37.982   3.717
60551W        W32976  39.474  18.145  12.934
60552W        W32977   0.301  31.516   0.279
60553W        W32978  10.811  14.140   0.303
60554W        W32979  21.704  21.522   1.798
60555W        W32980  14.653  31.059   4.618
60556W        W32981  43.999  19.204  14.489
60557W        W32982  22.641  14.729  10.932
60558W        W32983  19.225  44.260  11.927
60559W        W32984  17.154  44.500  12.060
60560W        W32985  20.626  23.710  13.349
60561W        W32986   0.430   8.673  11.011
60562W        W32987   3.441  34.985   1.842
60563W        W32988   1.249   3.412  10.479
60564W        W32989  23.205  40.799   0.934
60565W        W32990  44.438  36.433   1.921
60566W        W32991  15.123  22.649   0.429
60567W        W32992   5.432   0.454  13.483
60568W        W32993  36.061  14.832   0.727
60569W        W32994  11.786  40.516   1.784
60570W        W32995   0.777  11.765   4.152
60571W        W32996  30.010  14.118  11.977
60572W        W32997  25.110  32.035   4.319
60573W        W32998  37.066  22.049  12.940
60574W        W32999   6.762  19.206   0.376
60575W        W33000  20.584  34.401   1.896
60576W        W33001  21.574  18.646   4.701
60577W        W33002   3.377  18.137  14.514
60578W        W33003  10.665  24.526  13.542
60579W        W33004  29.587   6.268  14.847
60580W        W33005  14.340  22.742   5.253
60581W        W33006  11.817   1.371   3.791
60582W        W33007  22.574  20.638  10.551
60583W        W33008  11.737  34.479   4.254
60584W        W33009  32.962  26.963  11.397
60585W        W33010   9.239  19.636  11.119
60586W        W33011  34.599   7.707   4.282
60587W        W33012   5.299  21.194  13.510
60588W        W33013  18.708  13.793   3.384
60589W        W33014   0.810  11.217   1.884
60590W        W33015  31.557  39.973  11.601
60591W        W33016  32.995  34.488   2.187
60592W        W33017   2.253  33.548  13.395
60593W        W33018  28.639  36.562  10.481
60594W        W33019  20.529  19.647  14.812
60595W        W33020   3.411   0.957  11.437
60596W        W33021  44.811  36.952  13.987
60597W        W33022   6.347  13.261  14.889
60598W        W33023  11.270   2.796  10.423
60599W        W33024  18.659  14.601   3.172
60600W        W33025  30.937  18.059   0.284
60601W        W33026  22.546  39.893  12.935
60602W        W33027  43.321  19.614   4.276
60603W        W33028  19.555  40.938   1.289
60604W        W33029  43.474  33.568  14.331
60605W        W33030   4.410  28.443  10.898
60606W        W33031   9.388  27.606   1.812
60607W        W33032  40.432  11.834  14.403
60608W        W33033  35.469   9.714   3.378
60609W        W33034  35.421  18.772   2.183
60610W        W33035  42.964  39.032  11.948
60611W        W33036  24.141  11.352   9.493
60612W        W33037  37.976  18.678   2.793
60613W        W33038  43.960  15.294  13.796
60614W        W33039  37.355  29.107  10.951
60615W        W33040  20.112  32.460   0.920
60616W        W33041  40.516  11.338   2.679
60617W        W33042   2.965   2.465  11.108
60618W        W33043  35.407  42.373  11.516
60619W        W33044  39.996  26.118   2.791
60620W        W33045   7.304  42.439   2.320
60621W        W33046  30.590  38.424  13.035
60622W        W33047  40.418  34.614  12.430
60623W        W33048  17.307  33.490   5.152
60624W        W33049   8.794  23.037   2.693
60625W        W33050  36.946  26.161  13.830
60626W        W33051  24.483  12.766   2.359
60627W        W33052  35.018  35.406   2.795
60628W        W33053  17.608  31.446   1.432
60629W        W33054   9.257  20.529  11.080
60630W        W33055  40.804  16.811  12.050
60631W        W33056  31.035  24.075  10.592
60632W        W33057  38.554  18.123   2.310
60633W        W33058  41.962  43.511   3.809
60634W        W33059  33.072   7.911  14.028
60635W        W33060  26.131  22.672  13.870
60636W        W33061   0.307  22.155  12.066
60637W        W33062  41.434  20.635   0.947
60638W        W33063  44.267  31.004   2.732
60639W        W33064   6.205  25.506   2.224
60640W        W33065   2.967  33.052   1.333
60641W        W33066  38.498  22.209  11.507
60642W        W33067  34.614  43.777  14.373
60643W        W33068   9.854  33.096  10.458
60644W        W33069  19.542   7.755  10.415
60645W        W33070  18.728  22.151   1.432
60646W        W33071   3.376  28.516  11.060
60647W        W33072  32.556  18.561  13.993
60648W        W33073   9.652  22.506   1.733
60649W        W33074  21.187  40.002  12.433
60650W        W33075  29.093  36.915   4.146
60651W        W33076  13.703  11.339   2.873
60652W        W33077  23.626  43.364   4.818
60653W        W33078  21.682  30.053   3.352
60654W        W33079  42.989  37.357  14.930
60655W        W33080  32.436  10.678   3.840
60656W        W33081  18.274  28.109  12.359
60657W        W33082  11.186  33.055   4.754
60658W        W33083  34.384  33.091   2.768
60659W        W33084  26.135  39.470  13.431
60660W        W33085  38.066  33.604   4.145
60661W        W33086  30.152  29.650   1.405
60662W        W33087  31.646  19.555   2.366
60663W        W33088  21.573  20.545  13.323
60664W        W33089  40.935  12.790  12.032
60665W        W33090   3.347  38.928  14.911
60666W        W33091  29.497  36.505   1.722
60667W        W33092   3.792  21.179   1.235
60668W        W33093  25.983   9.233  13.873
60669W        W33094  19.724  23.035  13.039
60670W        W33095  24.675  19.251  12.032
60671W        W33096  20.590  11.866   3.211
60672W        W33097  12.743   3.909   4.226
60673W        W33098  15.194   1.835   2.665
60674W        W33099   4.815  41.452  14.932
60675W        W33100  10.691   9.780   4.124
60676W        W33101  38.895  12.723   3.211
60677W        W33102  35.999  40.319   2.698
60678W        W33103   0.347  32.101  10.952
60679W        W33104  27.007  17.710   2.762
60680W        W33105   9.784   0.342   3.279
60681W        W33106   9.359  33.445   9.922
60682W        W33107  27.167   2.852   4.189
60683W        W33108  13.773  15.105  12.458
60684W        W33109   4.319  20.551   3.277
60685W        W33110  43.960   7.778   4.157
60686W        W33111  19.780  22.550  12.036
60687W        W33112  17.086   3.383   1.438
60688W        W33113  11.719  31.415  12.504
60689W        W33114  21.028  14.142  10.082
60690W        W33115   2.946  19.181   0.478
60691W        W33116  41.866   1.307  11.876
60692W        W33117  19.682  28.463   2.190
60693W        W33118  41.799   5.257  14.447
60694W        W33119   7.245  25.611  11.575
60695W        W33120  17.571  31.966   4.219
60696W        W33121  36.052  32.416  12.972
60697W        W33122   0.291   0.826  10.489
60698W        W33123  40.540   7.751  12.471
60699W        W33124  14.338   1.764  12.469
60700W        W33125  29.124   7.770   1.450
60701W        W33126  19.152  31.007  10.923
60702W        W33127   3.786  42.476  10.544
60703W        W33128  26.469  21.629  13.495
60704W        W33129  11.286   2.823   3.272
60705W        W33130  15.684  44.008   1.246
60706W        W33131  36.967   5.378  14.338
60707W        W33132  43.929  21.515   5.239
60708W        W33133   1.464  20.093  11.459
60709W        W33134  44.368   1.837  14.475
60710W        W33135   9.350  13.604   3.256
60711W        W33136  18.695   6.894  11.947
60712W        W33137   2.811  37.417   4.121
60713W        W33138  20.649   6.405  14.979
60714W        W33139  42.883  17.685   2.765
60715W        W33140  24.980  12.753   4.241
60716W        W33141  21.227  43.830   0.747
60717W        W33142  37.354  39.022   3.631
60718W        W33143  32.486  23.627  13.356
60719W        W33144  21.540   2.875   3.303
60720W        W33145   0.770  15.588   4.689
60721W        W33146  23.531   2.824   4.279
60722W        W33147  26.603  13.825   3.301
60723W        W33148  28.521  35.033   4.251
60724W        W33149  20.537  20.054  11.589
60725W        W33150  16.800  31.515  11.403
60726W        W33151  34.965  38.969   5.316
60727W        W33152  27.577  24.181   2.182
60728W        W33153   7.300  26.653   2.403
60729W        W33154  28.665  14.624  10.412
60730W        W33155  38.391  16.694   0.382
60731W        W33156  42.966  36.030   0.809
60732W        W33157   6.842  18.139   3.279
60733W        W33158  15.812  34.588   3.237
60734W        W33159   4.376  17.772  12.967
60735W        W33160  18.264  35.913  10.442
60736W        W33161  24.191  35.593  13.929
60737W        W33162   5.783  31.548   1.743
60738W        W33163   8.316  25.218  12.455
60739W        W33164  27.460  23.608   9.607
60740W        W33165  16.673  16.686  11.407
60741W        W33166   7.310  41.943   0.780
60742W        W33167  28.660  33.963  12.361
60743W        W33168   9.679  37.921   2.818
60744W        W33169   8.267  13.758   3.369
60745W        W33170  30.087  13.124   2.676
60746W        W33171  39.843  33.955   3.324
60747W        W33172  31.612  20.225  10.558
60748W        W33173  20.541   0.801  13.961
60749W        W33174  27.493  30.048  13.903
60750W        W33175  27.562  21.533   2.691
60751W        W33176  14.163  32.087  10.100
60752W        W33177  30.116  14.603   4.830
60753W        W33178  40.976  43.316  10.471
60754W        W33179   0.494   1.797  13.816
60755W        W33180  27.502  28.998   3.157
60756W        W33181  44.273  16.584   1.237
60757W        W33182  37.541  10.862  13.524
60758W        W33183   1.420  18.268  10.936
60759W        W33184  36.048  26.958   2.891
60760W        W33185  24.213  12.305   3.264
60761W        W33186  26.157  10.217  11.395
60762W        W33187  33.439  27.581  11.096
60763W        W33188  23.014  22.718  11.526
60764W        W33189  18.153  29.162  10.539
60765W        W33190  11.835  16.318  10.601
60766W        W33191   1.333   3.917  12.024
60767W        W33192   6.265   7.228  13.353
60768W        W33193  23.702  38.824  10.599
60769W        W33194  37.573   5.409  11.037
60770W        W33195   1.935  28.439  11.392
60771W        W33196  19.162  20.558   2.365
60772W        W33197  42.895  29.044  13.468
60773W        W33198  34.519   2.890  12.482
60774W        W33199  34.393  41.802   4.636
60775W        W33200  38.935  28.507  14.928
60776W        W33201   0.977  29.163   2.727
60777W        W33202  18.672   7.751   3.301
60778W        W33203  25.067  24.481  10.937
60779W        W33204  30.431  22.654   4.681
60780W        W33205  24.603  34.996   0.256
60781W        W33206   7.202  39.819  11.033
60782W        W33207  12.695  37.424   0.480
60783W        W33208  24.056  13.819  13.007
60784W        W33209   5.921   3.765   0.741
60785W        W33210  23.599  25.655   4.201
60786W        W33211   4.732  26.068  10.426
60787W        W33212   1.270  31.938   1.708
60788W        W33213  32.608  26.024  13.421
60789W        W33214  12.202  12.134  14.814
60790W        W33215  17.147  21.652  10.423
60791W        W33216  13.131  39.399  14.761
60792W        W33217  30.930  41.916  12.959
60793W        W33218  29.013   3.793  13.466
60794W        W33219  39.911  12.353  12.435
60795W        W33220  28.030  26.580   1.280
60796W        W33221   5.304   5.749   0.304
60797W        W33222   5.225  43.895   4.300
60798W        W33223  40.043  41.009  10.626
60799W        W33224  12.682  34.578   0.778
60800W        W33225  29.150  38.966  11.383
60801W        W33226  33.488  13.708  14.418
60802W        W33227  21.630  13.655  11.084
60803W        W33228  44.920   7.401  14.855
60804W        W33229  32.564   4.937   1.879
60805W        W33230   8.189  37.362  13.526
60806W        W33231  36.498  26.036  11.011
60807W        W33232  38.343  18.790   4.682
60808W        W33233  16.237  29.081   0.832
60809W        W33234  35.857   7.714  10.456
60810W        W33235  14.829  33.610   0.854
60811W        W33236  34.605  24.131   0.466
60812W        W33237  43.915  25.647   0.913
60813W        W33238  26.101  16.762   4.147
60814W        W33239  38.827  11.822  14.847
60815W        W33240  33.572   0.409  11.878
60816W        W33241  38.423   5.295  13.871
60817W        W33242  36.578  27.000  12.982
60818W        W33243  38.346  23.132   0.309
60819W        W33244  23.024  44.840  14.455
60820W        W33245  11.344  18.208   3.247
60821W        W33246  19.279   1.246  14.397
60822W        W33247  30.610  28.051   3.316
60823W        W33248   4.883  36.052  14.277
60824W        W33249  25.997  44.756   4.352
60825W        W33250  18.684  32.060  12.557
60826W        W33251   9.821  18.627  13.522
60827W        W33252   3.421  18.235   1.304
60828W        W33253   5.321   5.406   0.246
60829W        W33254   2.741   0.943  11.495
60830W        W33255   3.813  13.277   2.263
60831W        W33256  35.052   7.680  10.107
60832W        W33257   0.892   2.952  14.476
60833W        W33258   2.252   1.874  12.078
60834W        W33259  40.018   6.400   3.632
60835W        W33260  18.771  37.509  14.445
60836W        W33261  19.125  13.190   0.420
60837W        W33262  27.673  43.859   0.345
60838W        W33263  19.098  36.512   1.716
60839W        W33264   2.276  19.275  13.824
60840W        W33265   1.921  23.121   2.182
60841W        W33266  12.324  34.515  13.903
60842W        W33267  24.103  36.451  14.936
60843W        W33268  38.468  25.047   2.349
60844W        W33269  43.857  42.777   4.287
60845W        W33270  14.185  29.175   2.729
60846W        W33271   5.194   8.774  10.903
60847W        W33272  13.706   1.922   9.468
60848W        W33273  24.156  11.214  10.962
60849W        W33274  20.132  33.580   4.706
60850W        W33275   2.355  24.104   1.915
60851W        W33276  43.848  13.208  11.883
60852W        W33277  28.033  40.884   1.708
60853W        W33278  36.971  27.091  14.357
60854W        W33279  34.401  30.534  12.388
60855W        W33280  31.967   1.356   3.312
60856W        W33281  28.963   7.773  14.811
60857W        W33282  30.125   9.317   2.416
60858W        W33283   4.764  33.001   3.658
60859W        W33284   6.905   1.433   4.838
60860W        W33285   4.793  28.515  10.123
60861W        W33286  19.766  12.173  12.533
60862W        W33287  29.988   3.807   0.264
60863W        W33288  35.013  33.441  11.084
60864W        W33289  16.209   2.755  12.031
60865W        W33290  14.793  11.831   2.762
60866W        W33291   8.331  19.537  13.974
60867W        W33292   1.473  40.041  12.837
60868W        W33293  11.152  42.503   0.246
60869W        W33294   2.918  37.574   4.665
60870W        W33295  29.425  31.896  14.383
60871W        W33296  14.814  31.629   1.279
60872W        W33297  34.104   2.332   3.761
60873W        W33298  16.638  10.832  13.461
60874W        W33299   8.850   3.892   5.151
60875W        W33300  27.054  29.044  14.928
60876W        W33301   0.750  28.516  12.856
60877W        W33302  43.284  10.860   2.354
60878W        W33303  30.942  10.270   0.417
60879W        W33304  22.116   6.349   0.264
60880W        W33305  14.655  16.620  15.000
60881W        W33306   5.908   2.430  10.513
60882W        W33307  23.521  28.574  11.002
60883W        W33308  16.753  20.735   1.392
60884W        W33309   2.442  39.993  14.010
60885W        W33310  44.869   4.230   3.258
60886W        W33311  38.911  18.698  12.996
60887W        W33312  35.054  27.029   0.772
60888W        W33313  30.475  10.255   2.269
60889W        W33314  16.785  14.268   2.347
60890W        W33315  35.878  22.658  11.083
60891W        W33316   2.733   6.228   3.823
60892W        W33317  11.129  14.169  12.396
60893W        W33318   7.720  18.572   0.917
60894W        W33319  41.334  21.225   2.181
60895W        W33320  19.219  10.733  14.363
60896W        W33321  21.197  26.483   2.292
60897W        W33322  14.232  34.881  13.416
60898W        W33323   5.361  15.792  11.011
60899W        W33324  15.803   3.795  13.512
60900W        W33325  18.693  10.272   2.691
60901W        W33326   8.256  11.685   1.339
60902W        W33327  11.838   3.388  12.372
60903W        W33328  13.298  22.672   3.848
60904W        W33329  30.125  15.711  10.632
60905W        W33330  42.847   0.333  12.034
60906W        W33331  26.964  16.642  10.543
60907W        W33332  18.201  24.129   0.806
60908W        W33333  22.095  31.408   2.719
60909W        W33334  13.199  13.650  14.333
60910W        W33335  35.023  12.771  11.460
60911W        W33336  38.007   9.354   3.239
60912W        W33337  12.150  39.005   2.322
60913W        W33338  37.930  43.809   1.719
60914W        W33339   4.363  32.422   3.180
60915W        W33340  43.829  26.563  13.951
60916W        W33341  36.541  27.954   4.312
60917W        W33342   8.283  11.747   4.115
60918W        W33343   6.735   8.239   4.189
60919W        W33344  42.870  23.655  12.088
60920W        W33345  34.078  37.072  12.915
60921W        W33346  19.188   8.690   3.284
60922W        W33347  35.002  19.110  14.961
60923W        W33348  17.557  17.101   3.664
60924W        W33349   3.884  27.041  11.561
60925W        W33350  42.810  10.162   0.308
60926W        W33351   0.800   7.736   2.319
60927W        W33352  18.582  39.471   4.607
60928W        W33353  34.909  14.326   9.987
60929W        W33354  42.905  32.539   0.925
60930W        W33355   2.472  28.622  14.993
60931W        W33356   8.225  24.703   0.277
60932W        W33357   8.786  37.972  14.380
60933W        W33358  23.499  43.373  14.769
60934W        W33359  30.477   5.922  11.017
60935W        W33360   0.751  18.609  10.895
60936W        W33361   2.434  37.851   2.893
60937W        W33362  38.002   6.737   3.695
60938W        W33363   8.200  18.729   2.871
60939W        W33364  13.637   2.330   2.690
60940W        W33365   9.192  37.910   0.381
60941W        W33366  27.001  30.546  12.348
60942W        W33367  38.396  15.792  11.392
60943W        W33368  18.750  41.523   4.665
60944W        W33369  36.521  16.792   4.287
60945W        W33370   0.396  15.131  11.492
60946W        W33371  38.487  16.105   0.767
60947W        W33372  17.638  21.527   4.732
60948W        W33373   0.914  31.151   0.879
60949W        W33374  13.823  12.803   0.302
60950W        W33375   3.756  31.423   0.913
60951W        W33376  18.781  20.538  14.896
60952W        W33377   5.394  20.156   4.725
60953W        W33378   7.237  37.525   0.266
60954W        W33379  25.490  10.193   0.287
60955W        W33380  28.447  13.659  14.332
60956W        W33381  15.124  40.455  11.535
60957W        W33382  35.363  19.756   0.441
60958W        W33383  11.794  24.999   1.308
60959W        W33384  16.318  10.774   0.257
60960W        W33385   6.874  28.601  10.411
60961W        W33386  20.721  29.434   3.632
60962W        W33387   0.300  25.703   4.154
60963W        W33388  12.118  39.931  12.517
60964W        W33389   8.193  10.768  11.585
60965W        W33390  23.581  29.084  12.046
60966W        W33391   2.329  13.621   2.717
60967W        W33392  29.152  16.311   2.204
60968W        W33393   5.222  40.955  13.404
60969W        W33394  35.409  37.903  12.847
60970W        W33395   0.343  10.311   1.918
60971W        W33396  17.577  20.576   2.305
60972W        W33397   7.672  18.718   3.172
60973W        W33398  40.838   6.870   4.294
60974W        W33399  26.175  38.568  11.526
60975W        W33400   1.445  21.574   3.677
60976W        W33401  42.415  22.522   5.617
60977W        W33402   3.926  38.870   2.303
60978W        W33403  21.208  20.242   2.365
60979W        W33404  26.602  25.213  11.060
60980W        W33405  28.063  19.739   5.244
60981W        W33406  28.053  13.791  11.080
60982W        W33407   5.821  43.782  11.412
60983W        W33408  15.250  10.655  14.007
60984W        W33409   2.458  23.573   0.262
60985W        W33410  21.640   0.938  14.831
60986W        W33411  33.381  42.847  11.059
60987W        W33412  20.210   9.389  13.366
60988W        W33413  31.899  37.411  14.868
60989W        W33414  19.548  35.085  14.307
60990W        W33415   5.261  16.776  12.552
60991W        W33416   7.827  30.514  10.067
60992W        W33417  10.322   3.728   4.649
60993W        W33418  24.585  43.925  13.031
60994W        W33419  20.206  24.614  12.493
60995W        W33420  38.896  28.953   0.294
60996W        W33421  29.164  24.619  11.440
60997W        W33422  28.570   0.965   1.718
60998W        W33423  20.671  19.559  11.405
60999W        W33424  10.756  22.191   2.784
61000W        W33425  12.197  12.272   4.822
61001W        W33426   5.891   8.744  11.116
61002W        W33427  28.103  16.648   1.767
61003W        W33428  15.186   4.238   2.181
61004W        W33429   9.837  44.292  10.615
61005W        W33430   1.870  38.906  10.956
61006W        W33431  14.703  39.991   3.731
61007W        W33432  21.717  44.952   2.709
61008W        W33433  17.721  34.459   9.979
61009W        W33434  10.853  14.333   2.801
61010W        W33435  21.212  15.290  14.890
61011W        W33436   1.383  21.224  14.295
61012W        W33437  38.029  43.410   3.858
61013W        W33438  27.668  39.493   9.954
61014W        W33439  32.546  15.617  11.442
61015W        W33440  36.000  32.932   0.772
61016W        W33441  38.402  11.247   0.439
61017W        W33442  19.689  27.991   0.799
61018W        W33443  16.749  18.758  13.978
61019W        W33444  32.896   6.720   0.908
61020W        W33445  21.522  38.040  14.882
61021W        W33446  10.311  44.281   1.751
61022W        W33447  38.448  25.528  11.865
61023W        W33448  30.450  17.147   3.655
61024W        W33449   0.318  34.600   9.973
61025W        W33450  31.964   4.249  10.929
61026W        W33451   6.313   3.751   4.827
61027W        W33452  30.912   1.741  11.084
61028W        W33453  39.342   7.237   4.243
61029W        W33454  27.566  43.419   4.151
61030W        W33455  29.601  27.502   2.352
61031W        W33456  32.910  20.547  12.346
61032W        W33457  29.981   7.822  14.809
61033W        W33458  43.831  32.943  11.394
61034W        W33459  28.529  40.426   5.316
61035W        W33460  32.488  20.194   4.613
61036W        W33461  43.907  34.110   0.275
61037W        W33462  37.492  39.045   1.253
61038W        W33463  41.421  21.216   1.746
61039W        W33464  42.817  44.814  11.461
61040W        W33465  26.644  44.442   2.700
61041W        W33466  43.495  44.961  13.796
61042W        W33467  35.446  18.652  14.027
61043W        W33468  23.538  22.089   1.882
61044W        W33469  23.121  42.475   3.149
61045W        W33470  29.050  11.795   0.765
61046W        W33471  41.953  22.632  10.048
61047W        W33472   4.738  22.709   4.708
61048W        W33473  12.756   4.920  11.372
61049W        W33474  40.504  37.352   0.791
61050W        W33475  10.687  19.634  10.520
61051W        W33476  23.987  18.672  13.466
61052W        W33477  39.556   5.216  14.449
61053W        W33478  21.078  31.502   3.672
61054W        W33479  21.620  14.744   4.633
61055W        W33480   3.331   6.225   2.662
61056W        W33481  35.512  27.025   3.851
61057W        W33482  30.049  16.178   3.226
61058W        W33483  12.346  29.579   0.434
61059W        W33484   4.730  42.797   4.325
61060W        W33485   1.855  37.862   2.750
61061W        W33486  12.133   4.283  13.057
61062W        W33487  13.192  13.721   4.751
61063W        W33488  26.632  18.546  10.970
61064W        W33489   8.321  40.929   0.819
61065W        W33490  15.635  25.562  11.376
61066W        W33491  43.942  35.548   2.315
61067W        W33492  30.104  34.104  13.884
61068W        W33493  13.351  38.974   0.418
61069W        W33494   9.825   1.292   3.703
61070W        W33495  44.380  16.124   4.156
61071W        W33496  36.968  18.734   1.214
61072W        W33497  20.719   8.342  11.911
61073W        W33498  35.055  38.029   3.798
61074W        W33499  28.180  32.446  13.453
61075W        W33500   2.851  25.663  10.928
61076W        W33501  17.134   5.847  10.041
61077W        W33502  27.454  37.910  12.002
61078W        W33503  15.691  35.393   0.931
61079W        W33504  13.736  25.020   3.299
61080W        W33505  36.502  37.069  14.874
61081W        W33506  16.301  28.678  11.945
61082W        W33507  38.471   7.225  12.085
61083W        W33508  44.881  27.186  11.123
61084W        W33509  17.660  20.762  13.814
61085W        W33510  27.014  42.426  10.616
61086W        W33511  19.571  35.006   3.723
61087W        W33512  25.971  18.220   3.681
61088W        W33513  42.415  38.858   4.597
61089W        W33514  15.813  12.643   1.896
61090W        W33515  43.863  39.024   4.729
61091W        W33516  24.169  37.978  12.578
61092W        W33517  37.052   3.846  13.536
61093W        W33518  39.327  40.868  13.810
61094W        W33519  26.973  34.105  13.395
61095W        W33520  15.629  12.711  10.959
61096W        W33521  42.029   5.216  10.535
61097W        W33522  19.126   9.260  10.501
61098W        W33523  37.978  10.699  14.295
61099W        W33524  12.146  30.462  13.011
61100W        W33525  39.881   1.950   3.379
61101W        W33526  17.113  15.138  10.492
61102W        W33527   1.296  12.362   4.622
61103W        W33528  42.822  14.264  12.912
61104W        W33529  21.580   9.865   2.347
61105W        W33530   1.385  32.975  11.089
61106W        W33531  12.661  37.469   3.759
61107W        W33532  42.889  17.587   3.342
61108W        W33533  18.776   7.721  13.822
61109W        W33534  17.144  29.148   1.757
61110W        W33535  29.579   5.399   0.320
61111W        W33536  13.692  30.132   2.709
61112W        W33537   5.804  19.053  14.432
61113W        W33538   5.889   0.261  10.923
61114W        W33539  11.846  38.852  12.341
61115W        W33540   3.801  37.983   0.327
61116W        W33541  44.332  37.008   1.215
61117W        W33542  29.433  23.658  10.043
61118W        W33543  10.800  15.330   0.782
61119W        W33544   3.943  42.914  13.063
61120W        W33545  35.389  28.552   4.698
61121W        W33546  18.197  21.646   2.761
61122W        W33547   8.659  35.092   1.866
61123W        W33548  32.892  27.540  12.498
61124W        W33549  16.803   7.262   0.960
61125W        W33550  39.551  38.831   4.310
61126W        W33551  43.395  40.340  13.346
61127W        W33552  21.236   1.440   2.407
61128W        W33553  36.873  34.600   1.431
61129W        W33554  36.415   9.318   3.170
61130W        W33555  17.708   3.863   0.363
61131W        W33556  22.635  43.943   1.212
61132W        W33557  28.973   8.351  12.577
61133W        W33558  44.953  29.988   0.954
61134W        W33559  34.938   1.914   0.933
61135W        W33560  12.194  14.641   3.830
61136W        W33561  24.126  13.703  11.931
61137W        W33562  14.639  42.512   4.302
61138W        W33563  34.514  36.431  12.017
61139W        W33564  21.153   2.844  11.006
61140W        W33565   7.723   7.807  13.953
61141W        W33566  39.387   8.167   0.824
61142W        W33567  10.797  14.340   4.838
61143W        W33568  23.636   4.749  13.896
61144W        W33569  35.549  33.499   3.794
61145W        W33570  20.164  24.722   2.273
61146W        W33571   2.957  34.950   3.854
61147W        W33572   4.822  16.300  11.483
61148W        W33573   7.209  28.562   4.728
61149W        W33574  13.667  31.973  13.476
61150W        W33575  27.015  35.090   4.775
61151W        W33576  26.674  24.582   1.766
61152W        W33577  26.523  41.907   4.329
61153W        W33578   9.760  35.901  14.002
61154W        W33579  40.004  44.406  13.542
61155W        W33580  32.630  10.868  11.866
61156W        W33581  39.524  18.180  14.315
61157W        W33582  26.104   3.237  10.518
61158W        W33583   2.408  12.730   4.787
61159W        W33584   1.452  38.822   2.410
61160W        W33585   4.210   7.282  10.439
61161W        W33586   8.232  21.209   1.424
61162W        W33587  40.432  33.533   1.856
61163W        W33588   9.302   7.860   1.697
61164W        W33589  38.363  20.569  14.281
61165W        W33590  31.535  22.528   0.763
61166W        W33591  19.609  22.226  10.539
61167W        W33592   2.288  15.242  11.917
61168W        W33593  22.550  20.150   2.764
61169W        W33594  27.057  43.336   3.830
61170W        W33595  23.665  13.281  14.787
61171W        W33596  14.705  18.675   4.291
61172W        W33597  30.428   5.886   3.161
61173W        W33598  26.564  31.070  12.340
61174W        W33599   4.313   3.223   3.631
61175W        W33600  28.141  39.523   4.211
61176W        W33601  35.374  13.261  10.424
61177W        W33602  15.237  31.624   2.864
61178W        W33603   1.932   2.391   0.763
61179W        W33604  21.181  38.854  13.889
61180W        W33605   8.271  25.109   4.731
61181W        W33606  38.895  40.434   2.204
61182W        W33607  30.413  11.313  13.530
61183W        W33608  10.174  17.739  11.488
61184W        W33609  11.187  16.761  10.921
61185W        W33610  24.716  37.889  11.917
61186W        W33611   9.809  23.176   2.293
61187W        W33612  15.224  28.557  11.959
61188W        W33613   5.823  16.278  13.971
61189W        W33614  10.262  20.638   4.140
61190W        W33615  34.489  12.767  10.642
61191W        W33616  16.623  28.479   3.297
61192W        W33617  23.655  19.683  11.970
61193W        W33618  28.597  30.448  14.853
61194W        W33619  34.607  43.894   2.808
61195W        W33620  24.994   6.339   3.198
61196W        W33621  43.889  32.048   1.324
61197W        W33622  35.603  30.591   3.831
61198W        W33623  31.899  33.425   2.394
61199W        W33624  27.513  23.219  10.100
61200W        W33625   0.492  31.622   9.471
61201W        W33626  30.546  39.931  10.502
61202W        W33627  32.071  18.664   0.919
61203W        W33628  27.025  33.002   2.798
61204W        W33629  37.929  11.790  11.101
61205W        W33630  40.374   2.863  12.851
61206W        W33631  31.004  27.127  12.543
61207W        W33632  23.089  21.156   2.769
61208W        W33633  40.914   0.449  13.484
61209W        W33634  31.559  31.571  10.436
61210W        W33635  18.714   4.249  12.439
61211W        W33636  18.206  13.601  14.779
61212W        W33637  39.439  26.532   1.848
61213W        W33638   4.794   9.854  13.989
61214W        W33639  20.257  42.521   3.345
61215W        W33640  35.019  10.323   0.289
61216W        W33641   2.321  32.395  13.393
61217W        W33642   4.890   8.693   3.840
61218W        W33643   1.819   7.842   1.221
61219W        W33644   2.745   8.356  12.060
61220W        W33645  12.697   3.952  13.909
61221W        W33646   5.362   2.778  13.510
61222W        W33647  34.050  15.176  11.465
61223W        W33648  21.644   1.426  13.398
61224W        W33649  26.032  17.753  11.972
61225W        W33650  40.905  34.572  11.559
61226W        W33651  39.405  38.853  12.885
61227W        W33652  17.794  14.134  10.457
61228W        W33653  27.638  12.254   3.315
61229W        W33654  18.135  26.061  13.481
61230W        W33655  13.783  44.830   4.646
61231W        W33656  26.056  25.710   2.226
61232W        W33657  31.533  20.215  12.386
61233W        W33658  42.459  14.174   2.231
61234W        W33659   9.221   1.826  12.982
61235W        W33660  15.296  27.536  11.126
61236W        W33661  18.128  27.065  12.979
61237W        W33662   0.264   6.751   3.826
61238W        W33663  37.362  38.534   0.939
61239W        W33664  36.547   6.253   1.828
61240W        W33665  20.206  40.466   1.696
61241W        W33666  31.057   4.884  11.076
61242W        W33667  20.163   5.226   4.345
61243W        W33668  20.617  31.938   0.749
61244W        W33669  44.836  17.149  12.921
61245W        W33670  43.018  29.027   0.749
61246W        W33671  40.938  30.002   2.333
61247W        W33672  42.384   9.740  12.031
61248W        W33673  10.831  28.474   0.251
61249W        W33674  29.936  20.197   0.411
61250W        W33675  24.513  14.149   0.472
61251W        W33676  31.007  28.935  13.323
61252W        W33677   8.799  19.731  11.491
61253W        W33678  24.016  25.567   1.861
61254W        W33679   9.853  21.119   3.807
61255W        W33680  38.004  19.599   2.682
61256W        W33681  30.414  19.567  10.943
61257W        W33682  21.727  10.829   1.738
61258W        W33683  44.415  29.964  10.013
61259W        W33684   1.260  23.195  10.638
61260W        W33685  43.454  18.239   3.344
61261W        W33686  41.378  30.517  12.547
61262W        W33687  44.843  36.022   4.748
61263W        W33688  27.029  40.351   1.316
61264W        W33689  41.983  40.326   1.218
61265W        W33690   0.378  12.640   3.357
61266W        W33691  10.339  20.545  13.803
61267W        W33692  30.940  42.506  13.959
61268W        W33693  44.896   4.729   1.406
61269W        W33694  24.058   7.187  12.483
61270W        W33695  29.638  35.493   2.818
61271W        W33696  10.831  35.521  13.024
61272W        W33697  12.159  30.071  14.432
61273W        W33698  40.353  35.080   4.776
61274W        W33699  25.166  39.364  10.920
61275W        W33700  31.472  23.544  13.448
61276W        W33701  41.531   3.825  10.482
61277W        W33702   5.336  14.131  12.045
61278W        W33703  21.697  17.701   3.854
61279W        W33704  24.716   9.212   4.116
61280W        W33705  32.129  38.853   1.785
61281W        W33706   7.790  29.607   3.795
61282W        W33707  19.756   5.377   3.735
61283W        W33708  35.583  10.336  13.961
61284W        W33709  42.341  42.964  10.979
61285W        W33710  10.731   3.418  14.513
61286W        W33711  22.526  33.524   0.816
61287W        W33712  12.130  17.652  13.958
61288W        W33713  36.971  24.975  10.516
61289W        W33714   7.268  35.601  10.907
61290W        W33715   6.832   5.381   4.597
61291W        W33716  21.039  15.269   2.822
61292W        W33717   2.794  24.051  11.106
61293W        W33718   0.792  34.475  12.360
61294W        W33719   1.853   9.308   2.412
61295W        W33720  25.497  21.615   4.214
61296W        W33721   8.238  24.220   0.953
61297W        W33722  17.092  12.774   1.291
61298W        W33723  40.030   4.937   2.197
61299W        W33724   0.772  39.948   0.876
61300W        W33725   2.858  23.022   4.715
61301W        W33726  21.597  31.078   3.342
61302W        W33727  25.115  38.828  14.807
61303W        W33728  39.026  28.445  10.161
61304W        W33729   1.948  36.394  13.007
61305W        W33730  37.004  25.008   1.699
61306W        W33731  28.638  36.380   0.254
61307W        W33732  20.636  10.723   0.432
61308W        W33733  10.775   4.379   4.185
61309W        W33734   7.331   4.944  12.013
61310W        W33735  15.625   0.295   2.387
61311W        W33736   2.932   6.357  12.492
61312W        W33737  38.455  12.261  13.517
61313W        W33738  12.260   8.719   1.789
61314W        W33739  18.176  44.943   1.794
61315W        W33740  14.235   4.423  13.350
61316W        W33741  22.240  12.178   4.310
61317W        W33742   6.391  29.062   3.355
61318W        W33743  19.103  19.229   0.941
61319W        W33744  25.624   0.466   5.088
61320W        W33745  22.166  44.373  11.078
61321W        W33746  20.632  30.627   3.819
61322W        W33747  19.077  44.418  12.991
61323W        W33748   3.445  42.842   5.129
61324W        W33749  43.830   2.293   3.669
61325W        W33750   3.780  12.657   4.794
61326W        W33751  10.798  29.590  11.898
61327W        W33752   5.315   6.338   1.925
61328W        W33753  31.611   9.709  12.503
61329W        W33754  44.984  30.096  13.318
61330W        W33755   2.414  41.484   5.148
61331W        W33756   2.441  25.615  12.992
61332W        W33757  41.931  30.600   3.196
61333W        W33758  12.799  42.344  13.416
61334W        W33759  43.966   6.833   2.864
61335W        W33760  43.898   3.760   0.472
61336W        W33761   1.267  25.050  14.849
61337W        W33762  39.451   5.298   3.761
61338W        W33763  16.270  38.904   1.789
61339W        W33764  12.697   6.894  14.408
61340W        W33765   4.428  39.938   1.846
61341W        W33766  11.155  14.232   1.927
61342W        W33767  17.216   2.397  13.527
61343W        W33768   6.848  31.989   1.707
61344W        W33769  33.540  22.554   4.158
61345W        W33770   2.400  24.612  12.840
61346W        W33771   8.730  19.069   1.911
61347W        W33772  25.507   8.756  11.432
61348W        W33773  26.557  27.130   4.778
61349W        W33774  41.352  37.560   0.247
61350W        W33775  33.952  44.832   3.195
61351W        W33776  36.466  10.142  13.899
61352W        W33777  30.015  12.119   2.402
61353W        W33778  24.593  35.435  11.372
61354W        W33779  34.010  25.661   4.712
61355W        W33780  18.631  21.616  10.474
61356W        W33781  29.138  30.079   2.358
61357W        W33782   9.170  15.240   4.611
61358W        W33783   5.908  20.258  14.929
61359W        W33784  25.643  38.353  11.038
61360W        W33785  15.095  42.381   4.193
61361W        W33786  30.659   9.352  12.424
61362W        W33787  11.789  21.740  14.418
61363W        W33788  31.053  20.655  12.493
61364W        W33789  26.192  32.521   5.743
61365W        W33790  25.476  35.093  12.555
61366W        W33791  36.532  34.981   2.731
61367W        W33792  21.253  36.951   0.447
61368W        W33793  26.044  17.622  13.332
61369W        W33794  11.708  28.105  10.900
61370W        W33795  12.226  35.383  14.819
61371W        W33796  35.387  32.950  11.382
61372W        W33797  13.702  13.717  10.900
61373W        W33798  22.508  41.008   0.331
61374W        W33799  22.064  25.024  14.285
61375W        W33800  16.182  30.052   4.641
61376W        W33801  15.260  17.174  13.802
61377W        W33802  15.699  20.236   2.719
61378W        W33803   2.795  41.473   2.419
61379W        W33804   1.930   6.282  11.096
61380W        W33805  23.118   2.840  10.486
61381W        W33806  43.324  32.098  12.520
61382W        W33807  19.170  41.839  10.425
61383W        W33808   0.270  11.824  10.577
61384W        W33809  37.076  13.177  13.346
61385W        W33810   1.907   3.294   3.793
61386W        W33811   5.710  42.497  12.008
61387W        W33812  25.695  19.102  12.049
61388W        W33813  27.510  44.318  14.850
61389W        W33814  39.322   6.185  11.391
61390W        W33815  37.073  12.319   0.378
61391W        W33816  23.099  25.690  14.417
61392W        W33817  29.556  12.796  14.982
61393W        W33818  21.529   6.306   0.279
61394W        W33819  18.727  33.494  11.478
61395W        W33820  20.031   3.844   2.333
61396W        W33821  34.392  42.295  11.040
61397W        W33822  36.500  10.694  14.488
61398W        W33823   6.345  16.243  11.394
61399W        W33824   0.880   8.788  10.609
61400W        W33825  22.674  27.462  13.446
61401W        W33826  44.891  41.808   1.847
61402W        W33827   9.668  30.417   3.674
61403W        W33828  20.530  18.592  10.616
61404W        W33829   9.371  29.004  14.890
61405W        W33830   6.224  32.120  13.825
61406W        W33831  38.527  25.055  13.986
61407W        W33832  25.083  31.007   0.316
61408W        W33833  40.337  14.106   4.343
61409W        W33834  17.719   6.412  11.999
61410W        W33835  25.627  16.167  13.898
61411W        W33836  13.626  32.961   4.747
61412W        W33837  10.273  22.036   3.259
61413W        W33838  41.952  40.969  12.076
61414W        W33839  14.651  14.800   0.430
61415W        W33840  23.155  33.928   1.240
61416W        W33841  38.466   4.778   1.919
61417W        W33842  41.441   7.696  11.106
61418W        W33843  33.439  21.028   3.146
61419W        W33844  21.126  36.078  13.906
61420W        W33845  23.703  26.517   1.831
61421W        W33846  23.603   3.886   3.635
61422W        W33847  20.739  17.697  10.989
61423W        W33848  13.160  11.235  11.002
61424W        W33849  33.479  38.517  11.508
61425W        W33850   8.177  24.520   3.663
61426W        W33851   8.882  38.380  13.818
61427W        W33852  35.360  30.616  13.321
61428W        W33853  15.581  26.517  12.497
61429W        W33854  15.294  32.478   3.743
61430W        W33855  24.115  18.075  14.506
61431W        W33856   9.195   8.204  14.784
61432W        W33857  23.652  25.146   1.382
61433W        W33858  36.083  11.660   3.781
61434W        W33859   8.342  37.923   1.436
61435W        W33860  42.891  25.560   3.804
61436W        W33861  17.304   2.379   3.644
61437W        W33862  37.395  28.073   1.323
61438W        W33863  10.690   0.742   4.675
61439W        W33864   0.293  34.914  13.321
61440W        W33865   7.207   1.781  10.468
61441W        W33866  22.204  17.564  13.380
61442W        W33867   5.876  36.578   4.194
61443W        W33868  11.146  25.600   2.802
61444W        W33869  34.934  37.568   1.244
61445W        W33870  27.687   5.893   0.873
61446W        W33871  24.005   2.733   1.712
61447W        W33872  25.984  30.048  10.488
61448W        W33873   2.770  27.462  13.961
61449W        W33874  13.194  13.837   0.315
61450W        W33875  35.952  21.664   0.824
61451W        W33876   5.804   0.806  12.404
61452W        W33877  37.472  17.669  14.283
61453W        W33878   4.833  19.218  13.988
61454W        W33879  37.560   7.211   0.819
61455W        W33880   4.916  40.975  10.642
61456W        W33881   5.690   2.308  12.061
61457W        W33882   4.401  23.705   0.409
61458W        W33883  23.116  16.705  14.350
61459W        W33884  26.579  28.064  13.517
61460W        W33885  12.288  10.324  12.527
61461W        W33886  36.509  14.591  14.413
61462W        W33887  10.309  18.188  10.594
61463W        W33888   8.272  33.540  13.500
61464W        W33889  23.138  19.056  11.108
61465W        W33890  17.774  23.020  13.485
61466W        W33891   5.763  23.554  14.487
61467W        W33892  26.654  39.808   2.334
61468W        W33893  42.946  32.597   0.372
61469W        W33894  25.004  22.180   0.861
61470W        W33895  16.160  15.623   1.732
61471W        W33896   6.338  14.296   0.458
61472W        W33897  23.117  18.652   0.964
61473W        W33898  25.985  23.057  14.760
61474W        W33899  12.620   0.292  14.886
61475W        W33900  40.384  39.044   1.869
61476W        W33901   0.474  19.681   3.281
61477W        W33902  29.432   7.379   0.370
61478W        W33903   8.178  30.957   0.440
61479W        W33904  22.551  38.501  11.909
61480W        W33905  25.689  32.047  10.060
61481W        W33906  19.716   3.419   3.210
61482W        W33907  37.838  17.678   3.256
61483W        W33908  42.432  42.366   0.861
61484W        W33909   7.346  20.686  13.361
61485W        W33910  39.485  28.038   4.257
61486W        W33911  36.565  31.034   1.708
61487W        W33912   3.366  19.083  12.041
61488W        W33913   6.741  16.618  11.916
61489W        W33914  35.913  15.114   1.282
61490W        W33915  35.484  12.628   4.778
61491W        W33916   9.870  13.699  12.411
61492W        W33917  23.531  19.285  10.565
61493W        W33918  33.592  37.532  12.457
61494W        W33919   1.318  19.233  14.982
61495W        W33920  21.687  34.056  11.602
61496W        W33921  11.810  41.889   4.331
61497W        W33922  36.020  16.625   3.264
61498W        W33923   5.734  36.356   1.712
61499W        W33924   6.677  27.960   3.198
61500W        W33925  29.429   8.826   5.121
61501W        W33926  34.064  42.916   2.786
61502W        W33927  10.810  10.806   4.268
61503W        W33928  28.489   0.857   0.298
61504W        W33929  11.736  20.050   2.844
61505W        W33930  37.039  37.995   1.341
61506W        W33931  27.622  43.811  11.432
61507W        W33932   9.217  29.636  13.817
61508W        W33933  12.348  25.217   1.840
61509W        W33934   1.410  38.462   4.315
61510W        W33935  42.405  40.994   3.742
61511W        W33936  30.944  28.508   3.290
61512W        W33937  12.208  26.074  12.450
61513W        W33938  15.258  11.143   3.733
61514W        W33939  27.523  13.660  11.088
61515W        W33940  42.413  27.484  11.920
61516W        W33941  33.040   9.245  13.354
61517W        W33942  24.188  16.243   2.307
61518W        W33943  27.007   6.773  13.480
61519W        W33944  33.501  15.114  13.997
61520W        W33945  30.142   8.382  12.562
61521W        W33946  18.107  22.627  14.760
61522W        W33947  22.628  14.797  14.881
61523W        W33948  23.001  34.549  14.951
61524W        W33949  36.934  28.465   4.641
61525W        W33950   3.900  32.451  14.893
61526W        W33951  18.612   2.281  10.916
61527W        W33952  38.366  28.047  11.942
61528W        W33953   8.221  26.203   3.674
61529W        W33954  31.973  40.917   3.162
61530W        W33955   9.381   6.255   3.677
61531W        W33956  14.599   9.164   0.912
61532W        W33957  17.233  14.218  12.922
61533W        W33958  40.892  37.081  12.065
61534W        W33959   3.781  32.947  14.987
61535W        W33960  42.812   6.830  11.566
61536W        W33961   6.220  13.615  13.429
61537W        W33962  13.844   4.713  14.918
61538W        W33963  15.767   1.873  10.638
61539W        W33964  19.590   2.227  11.990
61540W        W33965   0.935  19.187   4.690
61541W        W33966   3.889  22.228  12.909
61542W        W33967   2.764  42.500  10.913
61543W        W33968  16.767  10.268   3.312
61544W        W33969  37.977   6.398  12.085
61545W        W33970  10.671  21.033   0.884
61546W        W33971  10.182  43.858   0.788
61547W        W33972  32.564  28.931   1.900
61548W        W33973   6.422  29.531   0.325
61549W        W33974  16.648  41.900   3.251
61550W        W33975  25.078  43.898   1.416
61551W        W33976  19.658  10.377   3.734
61552W        W33977  35.535  19.703   1.719
61553W        W33978   8.345  16.169  14.484
61554W        W33979  32.034  22.683  10.598
61555W        W33980  16.265  16.262  14.477
61556W        W33981  16.704   2.286  11.604
61557W        W33982  24.074  15.212   1.848
61558W        W33983   7.391  37.423  13.004
61559W        W33984   7.234  22.007   0.455
61560W        W33985   6.911  17.741  12.340
61561W        W33986  22.104  15.675   5.204
61562W        W33987  41.332  15.083   3.680
61563W        W33988  25.123  14.220   4.793
61564W        W33989   7.380  28.029  12.341
61565W        W33990   4.230  12.681  12.839
61566W        W33991   7.775   3.856   2.709
61567W        W33992   2.428  18.205  10.099
61568W        W33993   1.873   2.257   1.305
61569W        W33994  14.629  20.575  14.906
61570W        W33995  13.789  29.022  14.910
61571W        W33996  38.557  20.572   4.639
61572W        W33997  21.520   4.380   1.255
61573W        W33998  33.029  15.772  11.393
61574W        W33999  21.090  34.514  10.911
61575W        W34000  42.015  34.437   3.343
61576W        W34001  30.955   4.402  14.764
61577W        W34002  23.103   4.767   1.410
61578W        W34003   5.903  22.719   4.627
61579W        W34004   4.897  36.090   4.245
61580W        W34005  36.497  36.085   2.253
61581W        W34006  43.377  15.228  10.951
61582W        W34007   8.709  40.830  10.503
61583W        W34008  30.028  37.570   1.893
61584W        W34009  40.520  26.521   2.853
61585W        W34010   6.325  15.637  14.325
61586W        W34011  28.033   3.327  13.309
61587W        W34012  32.053  44.383   0.295
61588W        W34013  20.029  38.873   5.261
61589W        W34014  29.472  13.264   2.725
61590W        W34015  23.217  36.919  13.020
61591W        W34016  11.623  14.193  12.401
61592W        W34017  17.205   0.254  12.429
61593W        W34018   8.807  33.107  14.467
61594W        W34019  30.562  18.077   4.737
61595W        W34020  26.585  25.044   3.148
61596W        W34021  17.248   0.492   0.383
61597W        W34022  27.129  38.865  13.547
61598W        W34023  23.042  36.506   1.268
61599W        W34024   4.383  31.142   3.207
61600W        W34025   8.340  28.061  14.314
61601W        W34026  23.037  12.182   2.412
61602W        W34027  29.945   5.259   3.157
61603W        W34028  15.727  35.430   3.194
61604W        W34029  40.500   2.808   3.317
61605W        W34030  37.484   8.851  12.475
61606W        W34031  35.079   3.731  12.907
61607W        W34032  19.698  14.739  13.919
61608W        W34033  35.359  31.967   4.626
61609W        W34034  15.630  20.273  11.494
61610W        W34035  27.988  36.554   4.822
61611W        W34036  14.812  41.041   2.356
61612W        W34037  32.051  12.277  14.922
61613W        W34038  30.482  44.973   0.285
61614W        W34039  43.379   5.401   0.270
61615W        W34040  11.298  28.175   2.391
61616W        W34041  15.154  32.950  10.414
61617W        W34042  40.947  15.639   1.316
61618W        W34043  23.193  31.516  13.868
61619W        W34044  10.632  30.936  13.932
61620W        W34045   3.343  24.698   1.777
61621W        W34046  34.566   5.825   4.788
61622W        W34047   5.822  13.605   4.177
61623W        W34048  22.226  15.753  12.984
61624W        W34049  35.448  30.483   3.208
61625W        W34050  29.669  30.027  14.790
61626W        W34051  27.506  24.581   1.243
61627W        W34052  21.516  30.549   3.640
61628W        W34053  41.976  39.031   0.439
61629W        W34054   0.321   9.394  12.473
61630W        W34055  15.298  24.624  12.823
61631W        W34056  26.526  40.484   2.681
61632W        W34057  33.131   9.161   1.841
61633W        W34058  10.764  36.018  13.804
61634W        W34059  13.218  28.967   0.271
61635W        W34060  29.080  31.951  14.768
61636W        W34061  13.120  13.314   3.245
61637W        W34062  19.558  15.581  10.591
61638W        W34063  18.202   7.723  14.993
61639W        W34064  23.003  36.037   4.650
61640W        W34065  44.800  34.591  12.920
61641W        W34066  44.468  40.549   0.461
61642W        W34067  24.192  19.236   0.303
61643W        W34068  25.707   6.244   1.433
61644W        W34069  22.502  17.168   9.986
61645W        W34070   8.231  12.805  12.438
61646W        W34071  12.188   1.354   9.973
61647W        W34072  37.419  12.305   4.629
61648W        W34073  33.556  20.066   2.187
61649W        W34074  21.207  40.384  11.051
61650W        W34075  31.494  30.471   2.887
61651W        W34076  16.194  36.880   1.378
61652W        W34077   3.860  15.266   1.293
61653W        W34078  23.605   4.887   2.247
61654W        W34079   1.447  13.692  11.053
61655W        W34080  27.158  37.369  11.041
61656W        W34081   6.779   6.315   0.890
61657W        W34082  23.515   6.192   0.736
61658W        W34083  18.756  27.604   0.466
61659W        W34084  44.416  10.274   2.301
61660W        W34085  43.408  35.458  13.869
61661W        W34086  23.600  35.979   3.639
61662W        W34087  21.535  19.537  13.881
61663W        W34088  18.132   4.817   2.663
61664W        W34089   1.459   9.813  14.893
61665W        W34090   0.899  40.401  13.314
61666W        W34091  34.066   3.902  11.523
61667W        W34092  39.885  43.827  10.407
61668W        W34093  30.449  30.529  14.797
61669W        W34094  37.436   8.235   4.687
61670W        W34095  11.364  37.863  14.994
61671W        W34096  11.153  32.526   0.849
61672W        W34097  27.651  28.458  11.478
61673W        W34098  14.678   1.358  12.990
61674W        W34099  37.935  23.641   1.711
61675W        W34100  12.796   4.261   0.805
61676W        W34101  19.109   6.279   3.715
61677W        W34102   0.747  39.352   2.300
61678W        W34103   8.216  19.255   2.317
61679W        W34104   6.241  16.748   1.430
61680W        W34105  18.147  10.183   3.355
61681W        W34106  42.498   2.292  14.383
61682W        W34107  39.523  15.588  11.919
61683W        W34108  34.598  16.653   4.767
61684W        W34109   1.355  38.463   3.666
61685W        W34110  28.112  20.054  13.467
61686W        W34111  11.647  11.195  13.538
61687W        W34112  30.131  21.731   3.240
61688W        W34113  21.020  37.437   3.289
61689W        W34114   4.409  10.195   4.288
61690W        W34115   3.734  31.062   0.898
61691W        W34116  38.415   3.270  10.440
61692W        W34117  10.312  38.951   4.764
61693W        W34118   5.252   3.883   3.859
61694W        W34119  17.719   7.809   4.638
61695W        W34120   4.723  24.991  14.378
61696W        W34121  34.070  26.506  10.017
61697W        W34122   7.689  19.066   1.863
61698W        W34123  27.634  11.750  12.077
61699W        W34124   4.265  31.626   3.820
61700W        W34125  36.453   8.823   5.315
61701W        W34126  26.687  21.593  13.791
61702W        W34127  34.500  22.718   4.285
61703W        W34128  16.256  34.909   1.373
61704W        W34129  38.521  37.483  12.870
61705W        W34130  13.321   5.695   1.789
61706W        W34131   8.275   2.231   2.285
61707W        W34132  35.365   5.880  13.353
61708W        W34133  34.976  18.240  10.032
61709W        W34134  36.933   8.872   3.699
61710W        W34135  17.576  28.951   0.754
61711W        W34136  14.202  35.577   1.340
61712W        W34137   4.235  19.272  14.393
61713W        W34138  36.558  44.302   2.417
61714W        W34139  42.984   0.837  13.535
61715W        W34140  21.018  12.677  14.468
61716W        W34141  27.502  38.005   0.920
61717W        W34142   3.843  43.888  14.358
61718W        W34143   2.448   3.896   2.776
61719W        W34144  36.481  36.062   0.423
61720W        W34145  17.253   4.871  11.984
61721W        W34146  43.946  16.298  14.513
61722W        W34147   9.744  28.039  13.003
61723W        W34148  35.888  12.752  14.993
61724W        W34149  24.525  23.530  11.429
61725W        W34150  39.400  25.017  12.825
61726W        W34151   9.714  38.357   1.214
61727W        W34152  33.596  25.027   4.822
61728W        W34153  23.715  41.421   0.847
61729W        W34154  23.009  17.148  14.509
61730W        W34155  32.552  29.631   3.235
61731W        W34156  17.073  12.335   1.392
61732W        W34157  37.544   4.346  13.815
61733W        W34158  42.431  20.253   2.851
61734W        W34159   4.345  36.971  12.837
61735W        W34160  11.699   8.820   0.342
61736W        W34161  11.772  34.982   1.244
61737W        W34162  20.248  26.668  12.439
61738W        W34163  15.095   5.316  10.480
61739W        W34164  44.449  13.842  13.970
61740W        W34165   1.377  32.919   0.783
61741W        W34166  42.948  10.770  12.878
61742W        W34167   4.418   9.341  13.793
61743W        W34168  33.562  13.165   3.208
61744W        W34169  26.991  35.907   4.269
61745W        W34170  35.011  40.460   2.385
61746W        W34171  10.677  20.726  12.352
61747W        W34172  30.509  11.662   1.768
61748W        W34173  39.023  25.689   0.462
61749W        W34174  37.470  39.452   1.855
61750W        W34175  31.511  22.611  14.410
61751W        W34176  29.512  37.846  13.924
61752W        W34177  35.992  11.671  11.908
61753W        W34178  13.137  20.095  10.439
61754W        W34179  13.227  16.696  12.871
61755W        W34180  10.344  17.207  13.903
61756W        W34181  17.657  24.024  10.479
61757W        W34182   9.329   7.308   0.738
61758W        W34183   0.401  43.503  11.884
61759W        W34184  30.079  15.729  13.934
61760W        W34185  38.350  24.991  12.925
61761W        W34186  40.503  24.087   0.953
61762W        W34187  14.226  34.578   1.704
61763W        W34188  21.619  23.157  12.074
61764W        W34189  18.149  42.423   2.393
61765W        W34190  28.177  17.202  11.387
61766W        W34191  19.762  21.522   3.301
61767W        W34192  28.978  16.290  14.443
61768W        W34193  13.212  38.953   1.244
61769W        W34194   8.384  40.516   2.712
61770W        W34195  43.302   3.282   2.354
61771W        W34196  26.166  34.949  11.903
61772W        W34197   1.767   6.796   0.771
61773W        W34198   8.342   1.384   2.224
61774W        W34199   0.318   5.216  13.369
61775W        W34200  14.148  44.375  13.400
61776W        W34201   4.289   7.373  11.935
61777W        W34202  21.708  35.374  10.959
61778W        W34203   4.343  14.814   1.322
61779W        W34204   0.482  23.139   3.815
61780W        W34205  16.806  20.769  13.422
61781W        W34206   9.711  39.416   4.613
61782W        W34207  42.832  42.355  14.907
61783W        W34208  20.628  22.043  13.368
61784W        W34209   6.790  29.608   0.363
61785W        W34210  43.765  26.112   0.262
61786W        W34211  35.580   2.299   2.787
61787W        W34212   5.835   5.272   3.713
61788W        W34213  32.956  14.786  14.974
61789W        W34214   3.842   6.769   4.175
61790W        W34215  28.026  41.952  12.867
61791W        W34216   7.215  23.181  11.887
61792W        W34217  25.645  22.630   4.740
61793W        W34218  11.246  11.138  12.941
61794W        W34219  11.630  40.915  12.444
61795W        W34220   9.815  31.901  11.459
61796W        W34221  30.491   6.391  14.383
61797W        W34222  36.429  16.266   0.406
61798W        W34223  15.289  19.092  11.579
61799W        W34224  15.109  31.086   3.653
61800W        W34225  40.964  31.617  11.559
61801W        W34226  27.680   6.853  10.501
61802W        W34227  24.061  13.113   0.932
61803W        W34228  10.710  35.928  13.487
61804W        W34229  15.109  24.625   3.753
61805W        W34230  19.665  30.650   3.647
61806W        W34231  10.730  11.660   4.282
61807W        W34232  14.185  18.118   0.900
61808W        W34233  17.629  27.476   0.788
61809W        W34234  43.962  41.365  11.490
61810W        W34235  33.921  33.916  14.028
61811W        W34236  41.938  34.042   0.249
61812W        W34237  13.608  27.528   1.340
61813W        W34238  30.062  39.337  13.824
61814W        W34239  21.653  28.944   4.642
61815W        W34240  33.477  22.714  13.862
61816W        W34241  33.548  37.015  12.854
61817W        W34242  31.455  17.635   2.673
61818W        W34243  14.243   3.366  13.809
61819W        W34244  18.635  25.608   3.818
61820W        W34245  29.930  26.589  12.556
61821W        W34246   6.222   4.922  12.529
61822W        W34247  17.584  32.911   3.334
61823W        W34248  26.595  17.621   3.150
61824W        W34249  20.763  34.931   2.804
61825W        W34250  35.531   8.178  14.430
61826W        W34251  12.128  25.673   5.228
61827W        W34252   8.746  40.378  14.416
61828W        W34253   7.756  40.033   4.242
61829W        W34254  27.123  31.544  11.974
61830W        W34255  25.473  22.586   0.967
61831W        W34256  27.950  23.010   9.603
61832W        W34257   6.182  34.918  13.851
61833W        W34258  18.551  41.350   1.244
61834W        W34259  32.075   7.223  10.525
61835W        W34260  41.990   6.416   3.295
61836W        W34261  24.574  17.637  10.456
61837W        W34262  16.606  22.564  13.425
61838W        W34263  22.238  21.077  11.907
61839W        W34264  44.286  42.308   5.137
61840W        W34265   2.815  31.126  12.963
61841W        W34266   7.775  24.069  13.820
61842W        W34267  29.477  13.195   3.196
61843W        W34268  27.027   0.832   3.810
61844W        W34269  17.575  16.704  12.407
61845W        W34270  12.814  31.011   3.184
61846W        W34271  17.734  32.930   2.663
61847W        W34272   4.723  43.381  11.084
61848W        W34273  33.099  25.966  13.396
61849W        W34274  17.270  36.354   1.776
61850W        W34275  36.990   9.765  12.001
61851W        W34276  24.163   2.941  14.976
61852W        W34277  13.142   9.796  13.992
61853W        W34278  32.635  28.603   2.184
61854W        W34279  26.191  31.502  12.415
61855W        W34280   8.712   3.326   3.816
61856W        W34281  37.417  44.956   4.230
61857W        W34282  27.995  17.082  14.795
61858W        W34283  26.532   0.942   3.286
61859W        W34284  22.141   3.762   4.170
61860W        W34285  41.459  44.761   4.352
61861W        W34286  37.419   1.472   1.301
61862W        W34287  10.860  40.473   3.166
61863W        W34288   2.929  13.734  13.428
61864W        W34289   6.414   2.900   2.394
61865W        W34290  20.098   1.393  10.599
61866W        W34291   3.841   8.366   2.397
61867W        W34292  24.562  18.551   0.906
61868W        W34293  24.016  16.296  11.123
61869W        W34294  32.492  13.282   1.267
61870W        W34295   4.917  28.006   5.250
61871W        W34296  15.215  40.316  13.532
61872W        W34297   8.666  15.783   2.869
61873W        W34298  24.177  38.464  12.966
61874W        W34299  38.510  21.666  10.484
61875W        W34300   3.830  30.945   1.784
61876W        W34301   2.330  18.286   4.327
61877W        W34302   3.280  43.874   3.202
61878W        W34303  15.695  26.022  12.868
61879W        W34304  22.117  38.904  13.526
61880W        W34305  34.953  22.558  14.297
61881W        W34306  27.449  21.558   3.634
61882W        W34307   6.882  13.303   1.226
61883W        W34308  31.402  37.001   1.813
61884W        W34309   4.340  42.341   4.328
61885W        W34310  22.688   9.743   0.939
61886W        W34311  21.708  10.872   2.861
61887W        W34312   2.901  44.946   0.787
61888W        W34313  27.167   9.735  11.496
61889W        W34314  16.803  10.307  14.914
61890W        W34315  11.315  10.292  10.409
61891W        W34316  10.807   2.844  13.403
61892W        W34317  40.920  38.496  13.406
61893W        W34318  30.081  41.387  10.929
61894W        W34319  10.157   5.855  14.029
61895W        W34320  17.638  38.869   1.276
61896W        W34321  16.623  37.837  14.805
61897W        W34322  20.263  19.702   0.380
61898W        W34323  25.642  43.344  13.426
61899W        W34324  34.596  20.553  14.791
61900W        W34325  21.535  18.065   2.233
61901W        W34326  34.075  35.948  12.507
61902W        W34327   6.290  25.475   3.183
61903W        W34328  32.129  26.637  10.946
61904W        W34329  16.215  10.197   2.814
61905W        W34330  29.152  43.313  12.871
61906W        W34331  43.973  37.499   1.235
61907W        W34332  12.791  13.187  11.601
61908W        W34333  23.055   7.733  12.907
61909W        W34334  32.885   9.879  14.460
61910W        W34335  33.512  13.311  10.529
61911W        W34336  40.911  22.182   5.606
61912W        W34337   9.718  18.621   2.308
61913W        W34338  24.540  11.194   4.733
61914W        W34339  44.310  24.669   2.400
61915W        W34340  32.975  29.596  11.904
61916W        W34341  27.088  36.399   4.689
61917W        W34342  31.464   3.255  11.487
61918W        W34343   6.292  15.758  14.026
61919W        W34344  24.666   5.799  10.949
61920W        W34345  27.179   3.812  10.471
61921W        W34346  28.606   3.864   1.821
61922W        W34347  14.666   4.765   4.827
61923W        W34348  37.338  25.045   3.819
61924W        W34349  29.076  42.943   1.793
61925W        W34350  12.679  19.245  10.983
61926W        W34351  30.970   3.396   2.674
61927W        W34352  16.168  12.205   3.340
61928W        W34353  16.710  24.680  12.410
61929W        W34354  15.744   5.849   3.186
61930W        W34355  29.009   4.723  10.957
61931W        W34356   9.354  23.540  12.535
61932W        W34357  38.381  37.903   4.661
61933W        W34358  21.091  29.582  12.451
61934W        W34359  25.682  17.745  14.896
61935W        W34360  33.043  38.934   3.245
61936W        W34361   9.158   4.748   1.830
61937W        W34362  40.009   5.377   3.237
61938W        W34363   6.314  38.843   2.211
61939W        W34364   4.379  38.372  11.582
61940W        W34365  33.461  13.301   1.703
61941W        W34366  29.176  21.052   1.895
61942W        W34367  13.820   6.911  11.860
61943W        W34368  31.600  26.010  14.972
61944W        W34369   8.271  28.443  14.464
61945W        W34370   5.687  13.125   4.304
61946W        W34371   8.398  20.166   2.754
61947W        W34372   2.418  16.787  13.529
61948W        W34373  26.627  35.381  14.404
61949W        W34374  34.937  14.650  10.528
61950W        W34375  24.211  26.971   3.187
61951W        W34376  20.140  16.097  14.506
61952W        W34377  22.539  36.552   2.350
61953W        W34378  15.313  40.003   4.178
61954W        W34379  29.159  18.753   1.405
61955W        W34380  40.493  31.087  13.484
61956W        W34381  13.627  29.600   3.159
61957W        W34382  36.556  38.557  13.806
61958W        W34383  41.903  22.007   2.196
61959W        W34384  12.643   3.783   3.679
61960W        W34385   1.282  31.439  13.032
61961W        W34386  36.570  12.625   2.259
61962W        W34387  30.416   9.211   4.805
61963W        W34388  16.777   6.817   2.325
61964W        W34389  17.109  11.277   3.300
61965W        W34390   0.896  33.502   9.946
61966W        W34391  24.563  18.697   2.389
61967W        W34392  33.395  34.879   3.821
61968W        W34393   3.934  10.771  13.532
61969W        W34394  15.700  30.945   0.923
61970W        W34395   3.436   9.266  13.840
61971W        W34396   2.727   1.326  11.565
61972W        W34397  42.483  39.840  13.815
61973W        W34398  23.709   6.782   0.437
61974W        W34399  27.179  39.399   4.756
61975W        W34400   6.884  18.725  13.012
61976W        W34401  38.410  19.102  10.458
61977W        W34402  25.530  22.242   3.862
61978W        W34403  14.191  36.465   1.341
61979W        W34404  27.025  39.913   3.350
61980W        W34405  43.987  41.351  13.977
61981W        W34406   0.350  30.523  14.852
61982W        W34407  25.111  21.145   0.274
61983W        W34408  37.450  28.534  11.600
61984W        W34409   0.834  27.974  11.983
61985W        W34410  38.834  34.960  14.447
61986W        W34411  15.816   9.205   1.742
61987W        W34412  20.119  30.422   3.729
61988W        W34413  37.867  24.591  13.930
61989W        W34414  25.986  22.589  14.935
61990W        W34415  14.182  19.619  12.557
61991W        W34416   5.700  31.440  10.447
61992W        W34417   7.793   5.316   3.298
61993W        W34418  22.121  44.362   3.383
61994W        W34419  25.504  18.191   1.744
61995W        W34420  29.529  23.506  14.420
61996W        W34421  44.459  15.794   1.749
61997W        W34422  26.638  24.139   3.281
61998W        W34423  33.050  20.065  14.019
61999W        W34424  41.519  29.017  14.852
62000W        W34425   2.881  33.909  13.921
62001W        W34426  30.460  24.597   4.735
62002W        W34427   2.265  31.598   0.473
62003W        W34428  43.507  11.266  11.022
62004W        W34429  32.989  22.174   2.839
62005W        W34430  40.837  18.292   1.444
62006W        W34431  10.325  14.594   0.925
62007W        W34432   0.305   6.210   1.757
62008W        W34433  11.182  25.094   0.797
62009W        W34434  21.600  34.083   3.379
62010W        W34435  44.274  39.039   5.153
62011W        W34436  20.537  21.717   1.430
62012W        W34437   7.705  11.705  10.479
62013W        W34438  23.110  19.087   2.203
62014W        W34439  11.156   3.324   3.772
62015W        W34440  13.799  18.590  11.046
62016W        W34441   7.274  18.635   3.355
62017W        W34442  38.865  15.758   1.296
62018W        W34443  15.787  28.992   2.322
62019W        W34444   0.350  44.755   1.237
62020W        W34445  26.110  34.004   0.730
62021W        W34446  32.437  33.381   3.163
62022W        W34447  22.167  17.675   2.395
62023W        W34448   6.795  40.988   2.314
62024W        W34449  26.025  17.705  14.300
62025W        W34450  44.288  18.077   4.327
62026W        W34451  14.754  30.043  11.091
62027W        W34452  29.135  39.932  13.985
62028W        W34453  30.518   1.822   1.215
62029W        W34454  21.077  20.538  12.399
62030W        W34455  24.510  41.296   2.390
62031W        W34456  33.947  25.187   1.767
62032W        W34457   9.384   2.319  14.948
62033W        W34458  12.300  44.964  10.410
62034W        W34459   3.384  14.216  10.111
62035W        W34460  12.162  31.573   3.268
62036W        W34461  20.180  14.248   4.838
62037W        W34462  26.581   7.703   5.178
62038W        W34463   2.752  28.038  10.496
62039W        W34464  10.844  11.659   0.372
62040W        W34465  27.980  43.414  11.492
62041W        W34466  38.472  13.154   4.817
62042W        W34467  32.406  43.882   3.680
62043W        W34468   7.803  22.575   0.338
62044W        W34469  22.169  38.539  11.405
62045W        W34470  15.675  20.530  13.419
62046W        W34471  26.997  20.611   4.338
62047W        W34472  32.469  25.617  14.989
62048W        W34473  23.530  26.505  11.459
62049W        W34474  31.501  33.546   4.643
62050W        W34475  23.128  10.793   0.962
62051W        W34476  17.286  17.676   4.776
62052W        W34477  37.951  24.229  10.987
62053W        W34478  11.138   1.836  12.556
62054W        W34479  28.671  17.267   0.460
62055W        W34480  15.655  21.699  13.953
62056W        W34481  20.596   5.872  14.370
62057W        W34482  17.615  30.520   1.413
62058W        W34483  42.514   9.856   1.286
62059W        W34484  35.982  40.478  14.511
62060W        W34485   2.921   6.826  14.791
62061W        W34486  31.513  31.056   4.806
62062W        W34487  27.587  39.548  10.477
62063W        W34488   5.332   7.186   0.922
62064W        W34489  33.003  38.558  11.894
62065W        W34490   6.745  21.670   1.916
62066W        W34491  29.662  28.002   3.861
62067W        W34492  34.403  12.233   4.808
62068W        W34493  12.755  24.185  13.939
62069W        W34494  32.064   0.981  13.332
62070W        W34495  18.212  17.754   2.224
62071W        W34496  26.633  11.230   4.261
62072W        W34497   7.804   4.295   3.841
62073W        W34498  38.023   4.413   4.243
62074W        W34499  16.675  26.137   4.240
62075W        W34500  39.984  38.559   2.317
62076W        W34501  35.437   7.172  13.865
62077W        W34502   5.928  18.079   0.773
62078W        W34503  22.560  16.260   0.815
62079W        W34504  40.900  41.034  10.622
62080W        W34505  26.054  32.017  13.934
62081W        W34506  11.685  42.959  11.504
62082W        W34507  41.354  22.659   1.264
62083W        W34508  32.442  16.106  11.523
62084W        W34509   7.269  44.305  10.440
62085W        W34510   1.841   0.343   1.876
62086W        W34511  42.793  25.207   3.831
62087W        W34512  25.973  31.487  14.846
62088W        W34513  13.742  17.181  12.910
62089W        W34514  19.557  42.939  12.014
62090W        W34515   0.749  33.588  11.453
62091W        W34516   9.751   2.390  11.540
62092W        W34517  28.610  24.570  13.010
62093W        W34518  42.956  15.715  11.037
62094W        W34519   6.404  29.615   0.894
62095W        W34520   1.442  15.797   3.227
62096W        W34521   8.802  44.009   4.752
62097W        W34522  25.185  27.555  11.522
62098W        W34523  21.130   5.264  13.460
62099W        W34524  42.956  39.450   1.364
62100W        W34525  19.221  30.643  13.943
62101W        W34526  17.138  43.934  11.899
62102W        W34527  15.782  40.479   4.326
62103W        W34528   7.406  44.849  10.641
62104W        W34529  27.531   9.169  14.822
62105W        W34530   9.755  37.354   3.632
62106W        W34531  40.921  19.154   0.934
62107W        W34532  17.760  22.507  12.440
62108W        W34533  30.447  41.846   3.768
62109W        W34534  39.925  24.517  10.905
62110W        W34535  44.984  11.836  11.057
62111W        W34536   1.405  25.546  14.418
62112W        W34537  38.451  11.256   3.852
62113W        W34538  12.734  23.159   3.269
62114W        W34539  35.057  41.037   3.826
62115W        W34540  14.096  11.852  12.470
62116W        W34541  42.921  27.161   3.340
62117W        W34542   7.404  40.875  14.780
62118W        W34543  10.808  42.443  11.508
62119W        W34544  13.287  25.504  11.595
62120W        W34545  32.537   9.876   1.839
62121W        W34546  21.566  38.037  12.882
62122W        W34547  41.534  10.197  14.355
62123W        W34548  30.548   5.909  14.814
62124W        W34549  19.597  17.603   0.301
62125W        W34550  10.861  13.139  11.594
62126W        W34551  38.539  40.886  11.027
62127W        W34552  35.540  31.571   2.372
62128W        W34553  14.746  15.152   1.432
62129W        W34554   3.738  32.634  11.918
62130W        W34555  35.915  27.141   3.175
62131W        W34556  20.727  24.014  14.990
62132W        W34557   2.267  11.625   4.679
62133W        W34558   3.838  41.951   3.239
62134W        W34559  43.015  21.568   1.778
62135W        W34560  38.961  39.021  10.600
62136W        W34561  15.682  38.974  13.037
62137W        W34562  33.492  23.240  11.096
62138W        W34563  21.700   9.175  14.451
62139W        W34564  32.967  28.999  10.497
62140W        W34565   8.390  16.266  12.497
62141W        W34566  42.281  26.603  11.481
62142W        W34567  17.251  31.914   2.207
62143W        W34568  17.201  14.635  12.540
62144W        W34569  21.606  25.598  11.906
62145W        W34570  21.203  20.224   3.725
62146W        W34571   8.810  16.295   3.177
62147W        W34572  26.022  36.392  13.928
62148W        W34573  39.327  23.990  11.952
62149W        W34574  32.436  42.385  11.963
62150W        W34575   6.271  19.156   0.875
62151W        W34576   6.394   1.472   3.820
62152W        W34577  10.859   5.217   1.399
62153W        W34578  11.225   4.428  10.631
62154W        W34579  27.106  39.928  14.352
62155W        W34580  24.035  15.745   2.220
62156W        W34581  20.194  20.133   0.373
62157W        W34582   5.762  13.146  11.949
62158W        W34583  27.683  30.439  12.537
62159W        W34584   5.364  35.037  13.356
62160W        W34585  12.152   6.769   2.382
62161W        W34586   6.210  34.466  11.382
62162W        W34587  38.894  34.458   2.901
62163W        W34588  39.939   6.695  13.503
62164W        W34589  24.641  12.186  11.458
62165W        W34590  24.607  19.692   2.319
62166W        W34591  42.851  35.052   1.365
62167W        W34592  38.841  15.758  12.409
62168W        W34593   6.809   1.837   3.789
62169W        W34594  13.620  28.468  14.418
62170W        W34595   0.833  25.115  12.372
62171W        W34596   0.927  33.084   9.540
62172W        W34597   0.967   7.211   1.362
62173W        W34598   1.950   9.176   3.222
62174W        W34599  17.206  12.245  11.937
62175W        W34600  44.805   4.217   3.665
62176W        W34601   6.364  20.542  10.413
62177W        W34602  41.945  10.225   0.949
62178W        W34603  26.532  26.481  10.463
62179W        W34604   7.863  21.081  13.416
62180W        W34605  26.107  15.125  11.524
62181W        W34606  41.898  44.814   3.675
62182W        W34607  18.113   4.719  11.984
62183W        W34608  42.797  36.868  12.496
62184W        W34609  30.996  24.599   4.138
62185W        W34610  39.316  43.343  10.405
62186W        W34611  36.464  39.822  13.404
62187W        W34612  13.766  17.291  13.540
62188W        W34613  32.541   1.840   3.337
62189W        W34614  11.301   5.792   3.206
62190W        W34615  40.533  19.258   0.898
62191W        W34616   7.687  20.680   1.725
62192W        W34617  28.560  20.574   1.339
62193W        W34618  11.137  28.008  14.787
62194W        W34619  12.120  17.077   3.311
62195W        W34620  20.754   9.334  13.432
62196W        W34621  16.612   9.712   4.117
62197W        W34622  25.164  33.919  12.844
62198W        W34623  22.062  17.770  14.818
62199W        W34624  26.119  11.282  11.491
62200W        W34625  19.632  12.653  14.823
62201W        W34626   0.915  35.402   0.264
62202W        W34627  28.933  31.506  13.873
62203W        W34628  23.121  10.163   0.310
62204W        W34629  26.686  37.911  14.394
62205W        W34630  42.866  10.372   2.236
62206W        W34631  42.365  10.759   1.386
62207W        W34632  41.899  20.073   0.408
62208W        W34633  17.582  40.881   1.402
62209W        W34634   1.313   1.855  13.815
62210W        W34635   2.398  32.456  13.961
62211W        W34636   4.764  42.404   2.811
62212W        W34637  13.644  27.618  13.856
62213W        W34638  36.424  28.000  14.904
62214W        W34639  37.544  27.941  11.100
62215W        W34640   0.805   9.371   0.246
62216W        W34641  24.150  41.837  14.448
62217W        W34642  21.557  11.725   2.239
62218W        W34643  33.595  41.985  12.437
62219W        W34644   9.675  14.680  10.602
62220W        W34645  31.601  44.331  12.571
62221W        W34646  11.867  28.088   2.871
62222W        W34647  29.176  31.461  10.414
62223W        W34648   9.695  28.465   2.830
62224W        W34649  32.395   7.217  14.423
62225W        W34650  31.083  26.004   1.766
62226W        W34651  30.587  25.470   0.759
62227W        W34652   3.292   4.924  12.436
62228W        W34653  26.594  11.238   1.218
62229W        W34654  26.083  32.417  10.946
62230W        W34655   7.776  27.446  12.001
62231W        W34656  41.932   7.215  11.887
62232W        W34657  43.384   1.972  12.971
62233W        W34658   0.295  30.509   0.847
62234W        W34659  12.659  21.070  10.895
62235W        W34660  42.778  32.989   2.844
62236W        W34661  34.519  16.192  14.389
62237W        W34662  32.421  29.100  14.792
62238W        W34663  18.208  42.864  10.425
62239W        W34664  44.838  40.367   2.277
62240W        W34665   2.286   1.795   3.839
62241W        W34666  12.619   8.876   1.791
62242W        W34667   8.210  39.461  11.872
62243W        W34668   6.249   8.856  13.523
62244W        W34669   8.326  15.113  12.407
62245W        W34670  12.181  41.803  11.982
62246W        W34671  37.063  38.837  12.488
62247W        W34672  23.232  44.290   0.465
62248W        W34673  39.376  31.036  14.894
62249W        W34674  14.112  29.425   0.297
62250W        W34675  40.443  35.526  12.976
62251W        W34676  33.919  21.729  11.478
62252W        W34677   7.389  17.785  12.876
62253W        W34678  42.427  32.896  11.388
62254W        W34679  10.255  25.988   0.287
62255W        W34680  30.449   1.882   1.760
62256W        W34681   2.441   7.804   5.244
62257W        W34682   8.745  28.155  11.564
62258W        W34683   4.809  15.087  14.980
62259W        W34684   7.797  37.062  12.004
62260W        W34685  36.939  26.039  13.507
62261W        W34686   2.415  43.909   1.311
62262W        W34687  28.112  33.886   1.262
62263W        W34688  23.220  37.023  12.401
62264W        W34689  14.791  37.386  14.772
62265W        W34690   3.878   8.824  11.948
62266W        W34691  24.159  32.009   9.662
62267W        W34692  13.793   2.401  10.056
62268W        W34693   5.278  29.149   2.708
62269W        W34694  32.511  25.083   1.311
62270W        W34695  26.484  15.100  14.921
62271W        W34696  14.265  39.854   2.664
62272W        W34697  21.125  20.117  10.514
62273W        W34698  12.220  38.837  13.801
62274W        W34699  37.987  16.740   2.234
62275W        W34700  28.109   1.362  12.052
62276W        W34701  20.648  11.641   2.297
62277W        W34702  10.743  44.296  11.083
62278W        W34703   3.927  22.117  14.878
62279W        W34704  14.598  12.616   2.840
62280W        W34705  31.455  44.501   2.331
62281W        W34706  31.433  21.247   0.278
62282W        W34707   8.167   4.884   4.804
62283W        W34708  13.182  43.468  13.494
62284W        W34709  32.439  36.065   1.277
62285W        W34710  42.919  13.603  12.841
62286W        W34711  19.696  18.598   3.187
62287W        W34712  11.788  44.997   0.272
62288W        W34713  36.440  11.666   0.731
62289W        W34714  20.609  12.637  14.008
62290W        W34715  37.833  14.328   2.848
62291W        W34716   4.740  14.219   2.199
62292W        W34717  19.100  22.706   2.251
62293W        W34718   4.906  25.703  10.544
62294W        W34719  19.222   6.354   4.224
62295W        W34720  36.437   4.331  12.910
62296W        W34721  31.907  24.125  11.857
62297W        W34722   4.419  42.807   4.805
62298W        W34723  31.614  22.690  11.951
62299W        W34724  32.632  27.077  11.871
62300W        W34725  24.553   6.854   0.424
62301W        W34726   3.718   5.371   3.697
62302W        W34727  40.533  11.310  10.922
62303W        W34728  39.895  19.567   5.271
62304W        W34729  41.036  20.522  10.451
62305W        W34730  22.075   4.806   3.750
62306W        W34731  20.268  39.854   2.361
62307W        W34732  20.164  33.889  14.362
62308W        W34733  36.498  39.502  13.453
62309W        W34734   8.732   3.790  14.487
62310W        W34735  25.114  40.822  12.896
62311W        W34736  15.728  14.766   4.121
62312W        W34737  12.697  34.531  11.903
62313W        W34738  14.096   3.807  14.844
62314W        W34739   2.349   0.874   4.317
62315W        W34740  24.026  24.213  12.524
62316W        W34741   6.370  23.721   3.251
62317W        W34742  36.545   7.833  10.140
62318W        W34743  23.233  41.508   1.739
62319W        W34744  26.538  19.126   4.665
62320W        W34745  14.630  19.049   3.215
62321W        W34746  43.895  31.624   5.241
62322W        W34747  34.100   2.303  13.495
62323W        W34748   3.402  16.078   0.386
62324W        W34749  43.816  42.473   3.233
62325W        W34750  13.811  44.468   2.349
62326W        W34751   9.229  32.987  13.879
62327W        W34752   0.380  41.473   2.296
62328W        W34753  11.318  44.285  11.547
62329W        W34754   4.861   3.786  10.928
62330W        W34755   6.294  32.419  10.618
62331W        W34756  13.198  23.636   4.285
62332W        W34757  31.570   0.281  13.892
62333W        W34758   3.252  34.426  10.981
62334W        W34759  21.123  40.004  10.051
62335W        W34760   7.301  15.708   4.278
62336W        W34761  40.516  14.765   0.931
62337W        W34762  41.849  16.109   3.280
62338W        W34763  27.098   1.435  10.894
62339W        W34764   0.772   4.422   3.373
62340W        W34765  26.054  44.885   2.765
62341W        W34766  15.660  35.070  13.859
62342W        W34767   6.237  16.790  12.882
62343W        W34768  34.070  29.574   1.853
62344W        W34769   9.373  28.548  14.462
62345W        W34770  32.061  21.242  12.907
62346W        W34771  10.163  40.949   0.269
62347W        W34772   1.871  19.775  14.961
62348W        W34773   7.266  22.543   2.895
62349W        W34774  38.836  14.234   2.838
62350W        W34775  29.084  31.044  11.533
62351W        W34776  10.190  43.021  12.848
62352W        W34777  41.925  12.306  14.893
62353W        W34778  23.570   1.773  14.334
62354W        W34779   1.826  44.925  14.478
62355W        W34780  21.569  32.495  11.962
62356W        W34781  16.177  40.439   1.438
62357W        W34782  15.088  12.296  10.914
62358W        W34783   1.943  23.586  10.637
62359W        W34784  23.217  20.716  13.821
62360W        W34785  43.908  17.132  12.477
62361W        W34786  24.064  16.188  14.876
62362W        W34787  41.390  25.591  12.438
62363W        W34788  32.912   7.857  13.507
62364W        W34789  34.398  21.569   0.878
62365W        W34790  41.396  22.154   1.438
62366W        W34791   3.407  26.596  13.421
62367W        W34792  42.922  20.720   4.699
62368W        W34793  33.527  24.017   4.348
62369W        W34794  30.588  22.706   2.771
62370W        W34795   0.820  22.507   5.096
62371W        W34796  14.211  40.943  13.356
62372W        W34797  13.224   7.760  10.927
62373W        W34798  35.872   4.883  13.877
62374W        W34799  44.005   7.220   3.744
62375W        W34800  33.107  17.296   3.367
62376W        W34801  34.402  31.061   3.201
62377W        W34802  28.505  18.585  14.410
62378W        W34803  24.699  30.647   2.257
62379W        W34804   2.965   1.924  14.342
62380W        W34805  43.860   4.721  11.516
62381W        W34806  19.674  11.677  14.324
62382W        W34807  13.714  18.683  12.861
62383W        W34808  24.033  29.150  14.898
62384W        W34809  30.971  13.814   3.158
62385W        W34810   0.875   7.676   4.712
62386W        W34811   2.469  30.479  14.810
62387W        W34812  22.510   6.775   4.638
62388W        W34813  38.951  43.397   3.378
62389W        W34814  10.819   9.743   4.685
62390W        W34815  37.569  37.906   5.243
62391W        W34816   1.365  19.248   3.636
62392W        W34817  18.164  24.598   2.298
62393W        W34818   5.259  37.065   4.703
62394W        W34819  17.665  32.107  12.960
62395W        W34820  17.628  19.548  11.540
62396W        W34821  24.112   7.875   0.298
62397W        W34822   9.793  15.793  14.315
62398W        W34823   1.311  24.179   4.133
62399W        W34824   5.197  39.901  14.491
62400W        W34825  17.753  10.140  12.519
62401W        W34826   1.786  40.927  11.106
62402W        W34827  12.746  28.635   1.319
62403W        W34828  16.600  32.096   5.731
62404W        W34829  23.736  30.543  13.472
62405W        W34830  14.784  14.717   0.842
62406W        W34831  19.241  39.015  13.841
62407W        W34832  21.208  15.234  12.516
62408W        W34833  31.108  11.860   2.763
62409W        W34834  36.474  40.421   1.839
62410W        W34835  14.790  26.960   3.191
62411W        W34836  38.026  41.837   3.224
62412W        W34837  15.140   1.325   0.286
62413W        W34838  35.867  27.003  12.534
62414W        W34839  30.928  20.719   4.787
62415W        W34840  21.232  34.095   4.638
62416W        W34841  10.162  22.103  13.805
62417W        W34842  17.601   8.172   2.240
62418W        W34843  37.866  19.655   1.449
62419W        W34844  25.011   7.665   3.692
62420W        W34845   7.253  37.578  10.458
62421W        W34846  27.644  40.811   9.991
62422W        W34847  44.404  19.732   4.268
62423W        W34848  11.845   9.830   2.776
62424W        W34849  30.155  36.537   0.789
62425W        W34850  39.460  41.865  14.296
62426W        W34851   7.263  25.218   1.736
62427W        W34852  36.505   6.301  10.470
62428W        W34853  17.306  10.761   2.840
62429W        W34854   0.480  22.730   1.901
62430W        W34855  19.045  24.117   0.940
62431W        W34856  18.562   9.368  11.095
62432W        W34857  39.469   8.662   0.424
62433W        W34858  24.601   1.411  14.903
62434W        W34859  30.454  19.773   3.747
62435W        W34860   1.416  31.136   3.814
62436W        W34861  19.724   7.365   4.317
62437W        W34862  17.676  18.663  12.997
62438W        W34863  34.925  20.216   1.841
62439W        W34864   8.876  39.515  13.805
62440W        W34865   1.745   6.891  10.949
62441W        W34866   3.730   9.377   1.720
62442W        W34867  23.583  43.958   3.309
62443W        W34868  33.623   8.862  12.094
62444W        W34869  27.661  24.621  12.845
62445W        W34870  21.085  25.996   1.724
62446W        W34871   8.655  19.634  13.800
62447W        W34872   8.808  19.091   4.617
62448W        W34873  40.479  39.533   2.338
62449W        W34874  37.536  28.138   0.943
62450W        W34875   4.412  28.481  10.491
62451W        W34876  28.021   4.268   4.309
62452W        W34877   5.280   2.912   2.750
62453W        W34878  35.084   7.901   4.825
62454W        W34879  33.432  41.330   0.830
62455W        W34880   5.209   3.231   4.331
62456W        W34881  14.810   3.866   4.652
62457W        W34882  34.446  27.162  11.466
62458W        W34883  35.084  41.023   3.222
62459W        W34884  44.754  37.036   2.765
62460W        W34885  32.515   8.744  13.413
62461W        W34886  17.729   1.413   1.697
62462W        W34887  39.826  21.589  12.069
62463W        W34888  18.112  17.144  12.889
62464W        W34889  10.384  25.055   2.222
62465W        W34890   0.908   6.406   9.933
62466W        W34891  38.543   5.377   2.287
62467W        W34892  16.150  37.555  11.426
62468W        W34893  29.041  14.122  11.527
62469W        W34894  17.700  30.033  12.990
62470W        W34895  17.747  31.931  14.460
62471W        W34896   3.756  26.519  10.941
62472W        W34897   3.709  28.446  12.489
62473W        W34898  29.636  34.476  10.914
62474W        W34899  21.263  39.955   4.669
62475W        W34900  43.485  27.143   4.271
62476W        W34901   6.250  22.108  14.490
62477W        W34902   4.283   4.210   4.674
62478W        W34903  43.894  39.905   2.826
62479W        W34904  32.565  35.547  12.380
62480W        W34905  44.431  36.066  10.928
62481W        W34906  13.719  30.506   2.662
62482W        W34907  33.544  38.008  11.611
62483W        W34908   1.312  33.531   3.327
62484W        W34909  36.068  38.565   4.319
62485W        W34910  17.297  26.970  14.775
62486W        W34911   6.813  25.550  10.949
62487W        W34912  23.228  23.101  14.285
62488W        W34913  15.675  18.694  11.580
62489W        W34914  10.364  21.664  10.505
62490W        W34915  13.340  21.643  10.497
62491W        W34916  31.003   6.226   4.828
62492W        W34917  16.215  37.335   4.183
62493W        W34918  32.545  37.449   2.383
62494W        W34919  40.822  35.962   4.276
62495W        W34920   4.313  25.084   2.247
62496W        W34921  17.769  19.640   1.807
62497W        W34922   0.912  20.523   4.754
62498W        W34923  39.919   2.410   0.868
62499W        W34924   7.249  19.265   2.689
62500W        W34925  26.625   8.278  10.998
62501W        W34926  24.693  17.147  14.412
62502W        W34927   0.925   2.889  11.445
62503W        W34928  13.333   8.194  12.030
62504W        W34929   3.809  38.896  11.896
62505W        W34930  26.093   5.702   3.270
62506W        W34931  43.431  25.708  12.478
62507W        W34932  14.698  15.166   1.933
62508W        W34933  27.681  15.770   2.825
62509W        W34934  20.621  38.362  11.017
62510W        W34935   0.427  29.661  11.964
62511W        W34936  22.030  19.147   3.786
62512W        W34937  11.353  44.328  12.561
62513W        W34938  36.054  34.887   0.288
62514W        W34939  41.993  24.540   1.400
62515W        W34940   2.358  31.608  14.353
62516W        W34941  19.267   2.271   3.368
62517W        W34942   6.216  12.163   3.722
62518W        W34943  39.376   0.772   2.812
62519W        W34944  41.965   2.966   2.750
62520W        W34945  13.192  37.915  10.528
62521W        W34946  38.004  30.445  10.436
62522W        W34947  34.541  35.557  14.833
62523W        W34948  14.802  25.980   1.802
62524W        W34949  18.227  41.823   4.768
62525W        W34950  30.589  14.304   0.932
62526W        W34951   4.240  33.893  10.998
62527W        W34952  27.477  39.857   1.214
62528W        W34953  38.007   3.942  14.470
62529W        W34954  19.132  12.303   2.793
62530W        W34955  36.353  19.164   3.674
62531W        W34956  39.501  29.028  14.441
62532W        W34957  13.144  35.964   3.279
62533W        W34958  39.879  44.457  14.946
62534W        W34959   7.341  20.083   4.800
62535W        W34960  24.630  36.388  14.004
62536W        W34961  11.307  27.524  13.038
62537W        W34962  26.143  21.048   2.267
62538W        W34963  29.597  20.085  13.051
62539W        W34964  20.034  16.594  14.939
62540W        W34965   5.308  32.910  12.996
62541W        W34966  11.133  27.593  12.548
62542W        W34967   2.424  21.640   2.392
62543W        W34968  43.877  19.699   4.684
62544W        W34969  23.059  39.998   4.696
62545W        W34970   8.686   1.769  11.433
62546W        W34971  27.984  15.732  10.893
62547W        W34972   6.743  27.535   1.223
62548W        W34973   5.397  20.642  14.859
62549W        W34974  42.801   1.456  14.280
62550W        W34975  41.021  26.503   4.760
62551W        W34976   5.344  11.765  13.793
62552W        W34977  26.185  25.480   1.830
62553W        W34978  34.014  31.144   4.292
62554W        W34979  37.442  31.510  12.490
62555W        W34980   5.218  38.492  10.467
62556W        W34981  24.065  12.325   3.784
62557W        W34982   1.340  41.514   4.210
62558W        W34983  23.578   2.436  14.901
62559W        W34984  44.310  39.475   2.722
62560W        W34985  31.134  21.603  13.060
62561W        W34986  18.766   0.297   1.452
62562W        W34987   8.756   1.965  10.951
62563W        W34988  30.540  16.598  12.973
62564W        W34989  37.078  25.129  12.869
62565W        W34990  33.586  20.094   1.389
62566W        W34991   0.862  29.655  11.491
62567W        W34992  39.831   8.761   1.395
62568W        W34993  18.234  29.510   3.822
62569W        W34994  20.538  13.641  13.889
62570W        W34995  36.408  37.916   0.448
62571W        W34996  16.751   1.313   1.907
62572W        W34997  44.344   7.706   2.375
62573W        W34998  18.638  10.273  14.275
62574W        W34999   3.846   3.440   4.270
62575W        W35000  16.670  12.833  11.050
62576W        W35001  17.587  41.463  12.939
62577W        W35002  43.298   8.378   3.771
62578W        W35003  30.963   4.321  13.953
62579W        W35004  29.480  44.333   0.367
62580W        W35005  14.185  27.565   2.319
62581W        W35006   6.244  26.511  12.435
62582W        W35007  28.995   3.297  11.523
62583W        W35008   8.180  20.031  13.927
62584W        W35009  27.109  39.959   2.228
62585W        W35010   3.409  23.684   0.762
62586W        W35011  15.610  25.124   3.382
62587W        W35012  20.662  41.301  11.862
62588W        W35013  40.823  14.306  11.867
62589W        W35014  13.770  12.215   0.248
62590W        W35015   3.877  27.990   1.413
62591W        W35016   7.815  32.985   4.129
62592W        W35017  26.626  12.192   3.709
62593W        W35018  28.535  26.017   2.375
62594W        W35019   0.443  16.074  14.988
62595W        W35020  43.415  43.783   0.378
62596W        W35021  40.527  18.250   0.887
62597W        W35022  10.674  31.908   2.283
62598W        W35023  14.808  14.798   1.258
62599W        W35024  21.680  16.597   0.928
62600W        W35025  26.566  13.179   3.798
62601W        W35026   3.228  12.241  10.518
62602W        W35027  14.662  33.573   3.155
62603W        W35028  23.545  42.936   2.900
62604W        W35029  27.989  40.904  10.158
62605W        W35030  40.994  20.764  14.002
62606W        W35031   9.372  19.271  11.883
62607W        W35032   3.293  34.887   4.833
62608W        W35033  44.466  25.711  11.093
62609W        W35034  29.008  10.155  13.903
62610W        W35035  42.382  35.965   0.461
62611W        W35036  42.940  22.052   5.147
62612W        W35037  38.991  19.647  13.950
62613W        W35038  39.998  37.873  12.476
62614W        W35039  24.060  28.580   3.348
62615W        W35040   1.842   0.452   3.241
62616W        W35041  10.663  33.608   9.946
62617W        W35042  23.076  38.343  14.009
62618W        W35043   7.194   5.803   1.862
62619W        W35044  36.579  36.397  11.867
62620W        W35045  21.695  22.006  12.536
62621W        W35046  19.585   5.869   4.805
62622W        W35047  11.775  27.066  11.983
62623W        W35048  15.632  35.034   2.194
62624W        W35049  19.040  11.802  11.550
62625W        W35050   8.730   6.703   0.940
62626W        W35051  32.411  34.482   3.804
62627W        W35052  19.225  14.833  11.497
62628W        W35053  14.638  10.728  13.928
62629W        W35054  39.900  21.523   0.758
62630W        W35055  25.591  30.520   4.172
62631W        W35056  17.729   0.791   3.219
62632W        W35057  13.154  34.391   1.342
62633W        W35058  18.584  36.949   3.818
62634W        W35059  23.186  20.673   1.811
62635W        W35060  25.213  29.143   3.834
62636W        W35061  20.596  32.477  10.909
62637W        W35062  24.616  12.224  14.513
62638W        W35063  20.534   1.791  13.495
62639W        W35064  33.459   1.778  14.360
62640W        W35065  36.841   8.771   5.741
62641W        W35066  33.555  28.128   0.246
62642W        W35067  40.501  17.724  14.840
62643W        W35068  24.525  26.683   2.789
62644W        W35069  24.682  24.672  10.927
62645W        W35070  36.027  42.439   4.783
62646W        W35071   4.285  41.832   0.266
62647W        W35072  36.434  28.998   4.715
62648W        W35073   9.803  24.576  11.091
62649W        W35074  44.347  38.485   0.899
62650W        W35075  28.074  34.470  10.618
62651W        W35076  34.458   7.405   0.814
62652W        W35077  43.904  10.834  12.471
62653W        W35078  13.352   8.338   0.860
62654W        W35079   7.721   8.761  14.948
62655W        W35080  34.027  20.759  11.101
62656W        W35081  33.507  28.531  14.314
62657W        W35082   9.799  31.648  13.828
62658W        W35083  33.524  26.495  14.349
62659W        W35084  25.210  17.206   3.727
62660W        W35085  36.446  40.377   0.329
62661W        W35086  28.670  41.881   0.916
62662W        W35087  15.679  13.235  12.385
62663W        W35088  37.857  42.289   3.757
62664W        W35089  42.791   8.190  14.351
62665W        W35090  38.338  39.838   1.824
62666W        W35091  38.852  42.313  12.440
62667W        W35092  15.702  44.436   3.203
62668W        W35093  39.864  28.643  14.761
62669W        W35094  42.442  39.371  12.448
62670W        W35095  29.549  15.323   3.852
62671W        W35096  14.265  43.927   2.884
62672W        W35097  33.594  44.471  11.008
62673W        W35098   3.274  21.613  12.371
62674W        W35099  27.596   3.248  14.946
62675W        W35100  22.996  23.540   4.184
62676W        W35101  24.552  34.997   0.894
62677W        W35102  36.534   1.805   2.896
62678W        W35103  33.493  29.043   2.356
62679W        W35104  41.873  14.692   2.222
62680W        W35105  25.670  38.427  11.442
62681W        W35106  32.590   2.265   1.771
62682W        W35107  41.413   4.245   0.255
62683W        W35108  24.586  12.669  12.882
62684W        W35109  29.986  27.188  12.349
62685W        W35110  17.651  19.265   4.613
62686W        W35111  43.442  10.866   2.875
62687W        W35112  31.440  17.242  13.832
62688W        W35113  17.303  14.604   3.337
62689W        W35114  29.013  44.888   2.400
62690W        W35115  24.601   7.734  11.005
62691W        W35116  25.101   5.689  11.375
62692W        W35117   4.935  35.549   3.165
62693W        W35118  18.699  12.247   3.301
62694W        W35119  10.190  33.880   0.731
62695W        W35120  41.331  41.455   3.256
62696W        W35121   6.209   6.333   4.714
62697W        W35122   0.328  12.153   0.944
62698W        W35123  29.166  29.539  13.491
62699W        W35124  21.116   7.770  13.373
62700W        W35125  25.664  17.238  14.344
62701W        W35126   9.813  21.238   3.246
62702W        W35127  35.443  22.686   2.789
62703W        W35128  43.002  37.072   4.275
62704W        W35129  31.020  44.396  13.003
62705W        W35130  14.254  13.703   1.794
62706W        W35131  36.902  13.268   1.775
62707W        W35132  42.319  34.503   4.616
62708W        W35133  42.518  44.392  11.427
62709W        W35134  37.048   1.299  11.118
62710W        W35135  32.545  37.990  12.845
62711W        W35136   2.903  20.677  13.814
62712W        W35137  14.280  36.566  14.816
62713W        W35138  12.296  20.688  11.567
62714W        W35139  16.225   0.491   2.407
62715W        W35140   0.783   9.210  11.436
62716W        W35141  15.097  36.549  11.938
62717W        W35142  19.570  39.918   2.215
62718W        W35143  21.057  43.995   4.215
62719W        W35144  33.097  17.755  11.962
62720W        W35145  26.105  18.652   0.807
62721W        W35146  42.910   9.844  13.499
62722W        W35147   0.376  37.518   3.259
62723W        W35148   1.440   4.237  13.970
62724W        W35149   8.715   1.862   2.287
62725W        W35150   7.349  24.185   1.298
62726W        W35151  19.640  26.201   2.189
62727W        W35152  36.527   4.433   4.819
62728W        W35153  15.814   3.253  11.607
62729W        W35154  20.267  38.993  14.389
62730W        W35155  33.998  37.397   4.325
62731W        W35156  26.687  18.558  11.933
62732W        W35157  22.172  16.683   1.800
62733W        W35158  18.639  18.217  13.852
62734W        W35159  22.716  22.014  14.983
62735W        W35160  13.788   4.790   1.752
62736W        W35161  34.065   3.886  10.560
62737W        W35162  22.704  38.523   3.277
62738W        W35163  25.027  14.232  10.515
62739W        W35164   6.404  14.670  12.997
62740W        W35165  20.272   0.297  12.843
62741W        W35166   0.369  16.228  12.411
62742W        W35167  32.125  29.923  13.058
62743W        W35168  21.243  11.863  12.853
62744W        W35169  27.957  23.150   2.751
62745W        W35170  30.496  35.923  14.936
62746W        W35171  22.222  28.116   1.352
62747W        W35172  42.846  14.599   4.271
62748W        W35173   9.255  38.433   1.893
62749W        W35174   3.357  23.142  12.547
62750W        W35175   7.279  36.417   1.228
62751W        W35176  10.871  19.283  14.002
62752W        W35177   5.394  41.475   0.783
62753W        W35178  28.132   0.813   1.343
62754W        W35179   7.907  15.753   4.186
62755W        W35180  15.716  27.988   2.289
62756W        W35181  40.449  21.570  11.610
62757W        W35182  13.659  30.513  10.899
62758W        W35183   5.855  39.350  11.394
62759W        W35184  20.690  38.448   2.791
62760W        W35185  12.140  18.749  14.870
62761W        W35186  25.619   9.209  12.032
62762W        W35187  40.948  18.053   3.683
62763W        W35188   5.291  11.273   0.755
62764W        W35189  14.241  30.451   2.186
62765W        W35190   8.177   7.783   4.753
62766W        W35191  10.806  29.545   3.173
62767W        W35192  44.497  28.522  11.488
62768W        W35193  18.741  34.072   0.468
62769W        W35194  30.476  19.776  11.379
62770W        W35195   4.418   9.247  14.920
62771W        W35196  27.978  10.759  12.848
62772W        W35197  32.109  26.096  14.860
62773W        W35198  42.910  41.950  10.426
62774W        W35199  23.618  31.592  14.855
62775W        W35200  30.494  31.535   0.867
62776W        W35201   9.644  12.749  12.876
62777W        W35202  44.822  19.163   3.795
62778W        W35203  40.839  40.488  14.910
62779W        W35204  35.534  39.032  12.920
62780W        W35205  25.023  17.264  13.347
62781W        W35206  34.391  14.224  12.392
62782W        W35207  31.405  34.030   3.798
62783W        W35208  33.126  30.557   4.676
62784W        W35209  24.668  23.019  14.350
62785W        W35210  27.447  27.020   0.852
62786W        W35211  35.452   6.422   1.279
62787W        W35212  22.688  24.519   2.407
62788W        W35213  22.649   6.713   3.279
62789W        W35214  11.771   0.822  12.911
62790W        W35215  40.879  43.322  12.826
62791W        W35216  12.175  21.629  11.486
62792W        W35217   2.841  23.668   1.344
62793W        W35218   7.878  17.162   2.278
62794W        W35219  28.148  16.640   4.206
62795W        W35220  13.269  22.724  13.850
62796W        W35221  27.141  21.028  10.636
62797W        W35222  16.676  37.887   1.379
62798W        W35223  24.002   5.810  10.901
62799W        W35224  15.299  39.018   4.295
62800W        W35225   5.262  22.223  11.868
62801W        W35226   1.976  20.680  13.525
62802W        W35227  39.836  32.085  14.814
62803W        W35228   0.261   8.866   5.238
62804W        W35229   3.422   9.367   2.334
62805W        W35230  16.267  12.241   4.736
62806W        W35231  29.100   5.765  13.059
62807W        W35232   0.773  31.544  11.390
62808W        W35233  20.052  17.115   1.257
62809W        W35234  19.642  43.925  13.020
62810W        W35235  44.894  33.077   3.683
62811W        W35236  12.852  23.095   1.434
62812W        W35237  13.346  22.042   0.300
62813W        W35238   1.778   2.735  12.910
62814W        W35239  21.141  42.867   4.788
62815W        W35240  28.635  28.131  10.564
62816W        W35241  23.707  36.369  12.396
62817W        W35242  32.409  26.976  12.913
62818W        W35243  39.972   1.359  11.989
62819W        W35244  19.657  17.760   2.844
62820W        W35245  43.814  22.219   1.257
62821W        W35246  34.070   5.840  14.406
62822W        W35247  34.515  44.314   3.712
62823W        W35248  35.089  44.356   3.720
62824W        W35249  14.299   4.396  11.547
62825W        W35250  33.907  23.177   1.838
62826W        W35251  12.325  34.906  10.535
62827W        W35252  20.102  38.874   3.325
62828W        W35253  26.975   1.434   4.296
62829W        W35254  16.119   9.157  14.921
62830W        W35255  14.198   5.396   2.381
62831W        W35256  24.084  38.897   3.361
62832W        W35257  40.547   7.801   4.727
62833W        W35258  21.733   5.803  14.435
62834W        W35259   8.854  12.229   1.795
62835W        W35260   4.381  16.655  14.351
62836W        W35261   4.821  31.565  11.002
62837W        W35262  12.746  42.419  14.882
62838W        W35263  19.203  26.021   4.772
62839W        W35264  23.512   0.422  10.629
62840W        W35265  44.870  42.908   0.959
62841W        W35266  26.492  31.971   0.348
62842W        W35267  28.940  40.806  14.903
62843W        W35268  39.979  10.706  10.427
62844W        W35269  17.121  42.950  13.897
62845W        W35270   0.887  30.425   1.846
62846W        W35271  20.219   3.904  14.020
62847W        W35272  26.077  37.898   3.306
62848W        W35273  37.059  16.781   0.825
62849W        W35274  40.861  29.922   0.370
62850W        W35275  10.635  23.032  11.442
62851W        W35276  42.907  27.492   1.354
62852W        W35277  39.028   1.307  14.764
62853W        W35278  21.205  22.633  12.460
62854W        W35279  24.060  41.520   5.321
62855W        W35280  23.516   7.906  11.120
62856W        W35281  37.874   3.245   0.794
62857W        W35282   2.395  24.485   2.765
62858W        W35283  22.083  44.494   2.278
62859W        W35284  21.654  20.569  11.405
62860W        W35285  22.741   5.799  13.463
62861W        W35286  34.520  43.287  12.445
62862W        W35287  10.161  42.283  13.010
62863W        W35288  39.939   6.747   0.244
62864W        W35289   8.299  43.792  12.546
62865W        W35290  15.228  34.010   5.102
62866W        W35291  33.554  28.085   4.798
62867W        W35292   2.250  38.956  10.093
62868W        W35293  41.041  32.455   3.267
62869W        W35294  27.978  12.302   4.802
62870W        W35295  24.692  28.989   0.359
62871W        W35296  35.442  16.696  14.785
62872W        W35297   3.294   5.922  11.548
62873W        W35298   8.310   7.812  13.895
62874W        W35299  35.109  37.444  14.768
62875W        W35300  20.655  35.033  12.902
62876W        W35301   9.381   9.693  13.431
62877W        W35302  21.693  33.529   2.390
62878W        W35303  23.665  17.670   0.428
62879W        W35304   4.367   3.360   1.871
62880W        W35305  27.606  43.947  13.870
62881W        W35306   7.229  28.929   3.785
62882W        W35307   1.796  40.412  11.937
62883W        W35308   7.393  33.937  11.004
62884W        W35309   1.251  34.863  11.006
62885W        W35310  20.713  25.526  10.889
62886W        W35311  21.605  22.999  12.504
62887W        W35312  33.573   4.702  12.501
62888W        W35313  18.694   2.844  10.467
62889W        W35314   8.883  42.516   3.710
62890W        W35315  24.041  32.559   3.274
62891W        W35316  37.393  26.043  13.997
62892W        W35317  10.652   3.813   1.283
62893W        W35318  23.628  32.611   1.324
62894W        W35319   7.760  22.077   0.391
62895W        W35320  33.417  13.328  12.025
62896W        W35321  26.189   3.742   0.924
62897W        W35322  44.347  33.552  10.956
62898W        W35323  14.214   9.286  14.374
62899W        W35324   3.843   4.797  12.409
62900W        W35325  36.891  44.004  11.129
62901W        W35326  10.379  16.272   2.367
62902W        W35327  26.585   4.859  14.945
62903W        W35328  20.108  23.063  13.843
62904W        W35329   2.278  44.886  12.887
62905W        W35330  13.652  34.888  14.983
62906W        W35331  18.671  39.991   4.656
62907W        W35332   6.317   3.727  14.376
62908W        W35333  15.807  24.000  14.785
62909W        W35334  32.911   1.372   2.743
62910W        W35335   1.749  35.068   0.302
62911W        W35336  26.699  19.727   0.416
62912W        W35337  20.533  20.705   2.825
62913W        W35338  30.464  14.800  11.002
62914W        W35339  28.507  34.390   1.876
62915W        W35340  31.046  36.511  12.560
62916W        W35341  27.572  31.142  11.115
62917W        W35342  44.754  32.971   3.149
62918W        W35343  32.930   6.235   0.368
62919W        W35344  12.665  10.684   1.753
62920W        W35345  27.057  11.296  14.442
62921W        W35346  25.545   5.283  14.987
62922W        W35347  17.670  16.177   0.820
62923W        W35348  16.119  31.096  12.039
62924W        W35349   2.840  14.750   1.446
62925W        W35350   1.280  42.824   2.227
62926W        W35351   0.811  44.321   0.311
62927W        W35352  35.932  21.519   1.352
62928W        W35353  32.117  42.364   1.889
62929W        W35354  13.750  29.497   0.249
62930W        W35355   0.918  43.316  10.969
62931W        W35356  32.898  42.410   4.185
62932W        W35357  15.253  31.409  14.340
62933W        W35358   2.961  35.039  10.584
62934W        W35359  32.075   2.460   4.787
62935W        W35360   7.836  23.627   1.392
62936W        W35361  20.667  20.717  13.055
62937W        W35362  13.816   4.859   2.675
62938W        W35363   7.739  40.010   5.234
62939W        W35364  25.642  37.474   2.390
62940W        W35365  25.632  13.783   1.903
62941W        W35366  32.501  16.717   4.722
62942W        W35367  15.273  28.960  11.608
62943W        W35368  32.467   0.878   4.713
62944W        W35369  13.783  31.532  14.461
62945W        W35370  34.900  31.962  12.033
62946W        W35371   3.264  15.722   0.272
62947W        W35372  20.194  17.660  12.573
62948W        W35373  43.389  18.620  12.350
62949W        W35374  32.392  34.980   0.378
62950W        W35375  11.263   4.844  10.544
62951W        W35376  11.220  34.563   2.868
62952W        W35377  12.306  23.105   2.362
62953W        W35378   7.395  27.571  13.899
62954W        W35379  37.041  25.499   4.274
62955W        W35380  19.147  29.468  12.397
62956W        W35381  31.469  14.178   3.637
62957W        W35382  28.978  41.856  11.486
62958W        W35383  40.980  30.653  14.388
62959W        W35384  44.384  32.992  12.837
62960W        W35385  16.230  14.239   1.815
62961W        W35386  44.455  30.512   1.328
62962W        W35387   1.977  14.664   2.364
62963W        W35388  26.186  15.639  10.451
62964W        W35389  41.422  11.835   4.198
62965W        W35390  24.013  12.360  10.953
62966W        W35391  32.490  37.482   1.315
62967W        W35392  22.108  30.601  11.995
62968W        W35393  16.777   7.797  12.417
62969W        W35394  40.913  26.159  12.961
62970W        W35395  33.521  22.238   3.206
62971W        W35396  19.217  25.519   1.896
62972W        W35397  24.065  32.039  13.490
62973W        W35398  17.301  34.404   4.327
62974W        W35399  35.565   2.896  14.303
62975W        W35400   5.894  26.048  13.900
62976W        W35401   5.889  30.451   4.200
62977W        W35402  18.625  42.293  14.385
62978W        W35403  12.766   4.307   1.337
62979W        W35404   5.778  30.548  13.399
62980W        W35405   7.709  39.847  13.449
62981W        W35406  44.395  44.913  12.523
62982W        W35407   1.455   6.833  12.890
62983W        W35408  38.355   9.644  14.334
62984W        W35409  28.523   2.845   0.764
62985W        W35410   6.416  37.415  14.972
62986W        W35411  31.517  27.109  14.827
62987W        W35412  21.057  21.124   4.144
62988W        W35413  30.114  18.561   0.736
62989W        W35414  23.131  13.141   1.775
62990W        W35415  18.076   3.423  11.507
62991W        W35416  14.833  41.860  12.534
62992W        W35417  43.443   5.712   1.307
62993W        W35418   1.971  29.153   4.815
62994W        W35419  44.319  15.208   1.924
62995W        W35420  25.492  23.576   3.655
62996W        W35421   0.320  21.175   0.291
62997W        W35422   2.963  42.852   0.841
62998W        W35423  10.358  44.886  13.965
62999W        W35424  28.453   0.829   3.645
63000W        W35425  36.029  43.490   2.795
63001W        W35426  37.916  19.126   4.763
63002W        W35427  34.419   7.378   1.725
63003W        W35428  30.632   8.770  10.954
63004W        W35429  16.595  36.541  13.048
63005W        W35430  31.939   5.338  11.059
63006W        W35431  18.768  28.035   4.742
63007W        W35432  32.100  38.948  12.520
63008W        W35433  29.450  39.883  12.550
63009W        W35434   0.930   3.356   5.125
63010W        W35435  33.922  35.586   1.373
63011W        W35436   0.279  18.669  13.402
63012W        W35437  12.656  43.394  14.413
63013W        W35438  23.100   5.729  10.419
63014W        W35439  36.089  26.102  12.558
63015W        W35440  21.618  13.214   4.826
63016W        W35441  42.027  21.596   1.839
63017W        W35442  29.660  21.076   4.213
63018W        W35443   7.902  15.084  11.504
63019W        W35444  17.166  34.382  12.465
63020W        W35445  39.820  38.410   1.775
63021W        W35446  39.977   5.331   2.855
63022W        W35447  28.148  13.736  12.997
63023W        W35448  42.927  24.028   3.187
63024W        W35449   8.388  37.472   3.228
63025W        W35450  37.941  22.092   2.219
63026W        W35451   2.372  24.030  11.474
63027W        W35452   2.740  18.740   4.736
63028W        W35453  27.995  11.362  10.523
63029W        W35454  41.520  26.156   4.757
63030W        W35455  31.439  16.760  13.822
63031W        W35456   6.684  22.648   1.378
63032W        W35457  11.792  20.116  12.073
63033W        W35458  38.546   4.214  10.467
63034W        W35459  35.461  28.577   3.311
63035W        W35460  38.896   0.457   0.441
63036W        W35461  26.644  13.128   2.840
63037W        W35462   7.201  14.204  13.905
63038W        W35463  18.252  42.805  10.998
63039W        W35464  37.342  42.843   2.205
63040W        W35465  20.573  36.492   2.397
63041W        W35466  15.611  40.939  11.457
63042W        W35467  35.074   4.361   3.276
63043W        W35468   4.409  21.168   2.368
63044W        W35469  35.507   0.874   3.188
63045W        W35470  26.994  38.411   0.250
63046W        W35471  20.625  31.536  10.940
63047W        W35472  13.693  35.391  12.561
63048W        W35473   5.786  19.079   1.710
63049W        W35474  16.578  25.571  14.514
63050W        W35475  27.952   9.281   3.822
63051W        W35476  43.453   8.738   1.865
63052W        W35477  35.498  20.151   3.723
63053W        W35478  44.967  14.769  12.006
63054W        W35479   1.851  32.409  13.327
63055W        W35480  42.853  40.960   1.421
63056W        W35481   9.650  37.063   4.621
63057W        W35482   0.488  42.840  13.842
63058W        W35483  41.804  17.667  12.091
63059W        W35484  25.989  35.503  11.543
63060W        W35485  13.663  29.462   3.758
63061W        W35486  23.096   6.805  13.891
63062W        W35487   3.233  40.826  12.417
63063W        W35488   9.883  42.889  12.067
63064W        W35489  43.819  12.791   3.826
63065W        W35490   9.279  42.383   2.415
63066W        W35491   3.273  20.641   0.254
63067W        W35492  39.833  16.669  14.945
63068W        W35493  36.081  27.622  12.386
63069W        W35494   4.701  37.481  12.961
63070W        W35495  13.754  25.019  12.383
63071W        W35496  33.420  11.227   1.232
63072W        W35497  44.817  27.021  13.829
63073W        W35498  30.429  16.132  14.976
63074W        W35499   7.795   5.894  12.048
63075W        W35500  28.542  28.088  12.572
63076W        W35501   5.202   1.941   1.874
63077W        W35502  44.903  41.030  10.422
63078W        W35503  42.996  11.662   1.922
63079W        W35504  10.261  19.284   4.766
63080W        W35505   7.331  28.491  10.576
63081W        W35506   4.305  23.137   0.915
63082W        W35507   8.260  37.372  11.913
63083W        W35508  34.048   4.210   1.809
63084W        W35509  29.017  20.134   1.890
63085W        W35510  12.234  15.267   1.927
63086W        W35511  27.498  10.854   1.750
63087W        W35512  15.094  22.550   1.882
63088W        W35513  17.145  41.824   3.655
63089W        W35514  34.424   3.371   0.849
63090W        W35515   2.833  12.648   0.737
63091W        W35516  36.500  42.390   0.406
63092W        W35517  11.173  38.042  12.091
63093W        W35518  43.015  11.314   1.420
63094W        W35519  16.254  10.262  11.462
63095W        W35520  43.463  40.836   4.792
63096W        W35521  14.635  34.016   9.932
63097W        W35522  38.937  14.141   1.374
63098W        W35523  23.719  10.151  10.536
63099W        W35524  17.299  35.081   9.554
63100W        W35525   2.817   8.325   2.288
63101W        W35526  17.656  38.002   2.890
63102W        W35527  40.524   6.298   2.333
63103W        W35528   0.933   8.244  14.458
63104W        W35529  42.025   7.866   0.259
63105W        W35530  20.717  41.950  11.003
63106W        W35531  40.978  26.113  12.361
63107W        W35532   6.884  32.427  12.432
63108W        W35533   6.899  33.538  12.016
63109W        W35534  27.490  40.819   5.298
63110W        W35535  26.077   8.860  11.476
63111W        W35536   8.192  41.498   3.819
63112W        W35537  31.958   5.272  13.424
63113W        W35538  25.179  25.684   0.385
63114W        W35539   1.308  24.623  10.953
63115W        W35540  41.789  12.327  12.536
63116W        W35541  19.116  29.135  14.812
63117W        W35542  35.568  32.976  12.878
63118W        W35543  30.077  38.381  14.428
63119W        W35544  39.831  17.647   2.317
63120W        W35545  27.586  20.600   3.784
63121W        W35546  22.719  24.690  13.929
63122W        W35547  25.202  42.409   1.709
63123W        W35548  34.970  30.975  11.091
63124W        W35549  43.290   0.786   0.317
63125W        W35550  22.703   1.899  12.400
63126W        W35551  23.696  33.463  13.918
63127W        W35552  18.697   0.829  13.908
63128W        W35553  13.337  32.544   0.352
63129W        W35554  39.066   4.334   4.307
63130W        W35555  13.237  43.296  11.394
63131W        W35556   5.266  25.089   5.126
63132W        W35557  31.601   3.236  14.946
63133W        W35558  34.870  15.807   3.187
63134W        W35559  34.997  41.528  11.607
63135W        W35560  28.057  33.952   5.120
63136W        W35561  16.118  32.535  14.463
63137W        W35562  20.082  24.182   0.357
63138W        W35563  39.356  42.843  11.451
63139W        W35564  34.034  29.504   0.334
63140W        W35565  36.935  41.038   1.760
63141W        W35566  33.403  30.069  12.869
63142W        W35567  19.719  40.527   4.808
63143W        W35568  17.563   3.263   0.833
63144W        W35569  23.011   5.255  12.563
63145W        W35570  44.987  37.857   4.221
63146W        W35571   7.263   5.283   4.599
63147W        W35572  35.003   7.256   5.312
63148W        W35573  36.972  28.149   2.284
63149W        W35574   7.190  16.270   2.393
63150W        W35575   9.792   8.852   4.122
63151W        W35576  12.801  44.328  10.624
63152W        W35577  10.818  11.843  12.981
63153W        W35578  42.003  11.250  14.784
63154W        W35579  20.257  21.741  11.612
63155W        W35580  10.747  22.225   1.391
63156W        W35581  10.143  32.051  13.524
63157W        W35582   6.770  22.660  13.384
63158W        W35583  36.849  10.819  13.975
63159W        W35584  14.725  25.048  11.473
63160W        W35585   1.326  36.536   4.653
63161W        W35586  15.805  22.043   1.788
63162W        W35587  39.329  35.024   3.839
63163W        W35588  29.060   1.366   0.895
63164W        W35589  19.621   8.262  10.573
63165W        W35590  33.527  39.944   4.333
63166W        W35591  43.280  15.622  12.871
63167W        W35592  26.557  20.652  14.030
63168W        W35593  41.439  29.026  11.857
63169W        W35594  44.317  44.776  13.438
63170W        W35595  30.916  28.543   4.166
63171W        W35596  43.281   4.742  13.899
63172W        W35597   5.787   7.234   2.704
63173W        W35598  21.550   1.942   3.800
63174W        W35599   1.356  11.649   3.635
63175W        W35600   8.746  42.498  13.484
63176W        W35601  33.433  37.896  14.794
63177W        W35602  33.539  27.450  10.145
63178W        W35603  10.149  12.623  10.917
63179W        W35604  10.151  44.856  14.902
63180W        W35605  22.692   0.904  11.940
63181W        W35606   1.419  29.426   1.744
63182W        W35607  26.505   5.855   0.911
63183W        W35608  32.135  32.965  11.113
63184W        W35609  19.044  35.529  11.008
63185W        W35610  10.337  41.505  13.031
63186W        W35611   5.353  33.560   3.671
63187W        W35612  14.306   1.904  13.368
63188W        W35613  31.932   7.781   0.416
63189W        W35614  22.196  29.082  11.936
63190W        W35615   9.198  10.793   4.281
63191W        W35616  15.097   8.364   1.845
63192W        W35617  26.104  33.992  11.568
63193W        W35618  38.496  20.261  13.961
63194W        W35619  16.108   8.846  10.438
63195W        W35620  36.859  13.331  13.823
63196W        W35621  39.827  40.383   3.298
63197W        W35622   7.190  12.208   4.245
63198W        W35623   5.790   1.927   0.756
63199W        W35624  36.511   9.871   1.898
63200W        W35625  39.504  41.359   3.357
63201W        W35626  32.085  21.594   2.210
63202W        W35627  35.584  20.710  11.591
63203W        W35628   1.378  44.466   0.761
63204W        W35629  16.761   0.394   3.153
63205W        W35630  32.463  24.481  11.093
63206W        W35631  21.641  38.528   4.212
63207W        W35632  38.527   1.473   3.196
63208W        W35633   8.350  37.548  12.998
63209W        W35634   1.350  21.753  14.417
63210W        W35635  26.661  38.015   2.706
63211W        W35636  32.500   3.223  13.010
63212W        W35637   3.292  18.149  11.385
63213W        W35638  11.626  41.450  13.543
63214W        W35639  14.262  38.975   0.455
63215W        W35640  33.101  36.485   4.649
63216W        W35641  42.798   1.371  10.980
63217W        W35642  23.702  24.546  12.079
63218W        W35643   8.263  34.512   4.275
63219W        W35644   4.831  40.949   4.350
63220W        W35645  34.968  25.501   1.846
63221W        W35646  37.021   4.226  13.325
63222W        W35647  14.818  35.533   0.372
63223W        W35648  29.638  16.636  13.856
63224W        W35649  12.819  34.117  11.570
63225W        W35650   5.281  26.036   2.321
63226W        W35651  24.685  25.499  13.996
63227W        W35652   7.689   7.881   4.155
63228W        W35653  21.706  35.589   1.756
63229W        W35654   2.948  32.117  11.564
63230W        W35655   9.688  33.925  12.406
63231W        W35656  40.350  27.682   1.803
63232W        W35657   7.790   5.284  12.824
63233W        W35658   5.242  16.713   3.870
63234W        W35659  23.683  12.709   0.807
63235W        W35660   9.802   4.915  13.832
63236W        W35661   3.717  31.093   0.291
63237W        W35662   7.709  42.334   1.821
63238W        W35663  37.929  23.536   4.614
63239W        W35664   6.286  23.582  11.005
63240W        W35665  12.161  38.061  12.507
63241W        W35666  31.925   1.914   1.764
63242W        W35667  18.786   5.296   1.847
63243W        W35668   8.202  35.977   1.762
63244W        W35669  31.976   9.876  14.437
63245W        W35670  12.723  24.215   0.780
63246W        W35671   4.743  40.509  14.829
63247W        W35672  13.214   7.777  14.769
63248W        W35673   6.419  29.464  10.026
63249W        W35674  14.604  33.473  11.937
63250W        W35675  18.217  27.164   0.396
63251W        W35676  14.747  25.713  11.974
63252W        W35677  17.576  25.554  11.956
63253W        W35678  43.901  25.962   1.418
63254W        W35679  16.797  21.221  10.508
63255W        W35680  39.012  13.752   3.732
63256W        W35681   5.364  20.653   0.318
63257W        W35682  44.504   3.765  14.981
63258W        W35683   6.761  41.791  11.047
63259W        W35684  31.508  20.583   3.306
63260W        W35685  19.200  33.529   0.405
63261W        W35686  30.014  26.593  10.907
63262W        W35687  28.966   5.772   0.743
63263W        W35688  44.915  31.053   1.857
63264W        W35689  23.636  14.805   3.851
63265W        W35690  15.313   5.245   3.341
63266W        W35691  40.048  24.641  11.942
63267W        W35692  42.401  15.126  14.399
63268W        W35693   0.428  22.668   3.193
63269W        W35694  32.924   6.299   0.729
63270W        W35695  42.351  41.459   3.840
63271W        W35696  42.900  30.034   4.780
63272W        W35697  29.606  43.477  12.835
63273W        W35698  17.648  16.153   0.375
63274W        W35699  44.351  24.713   0.914
63275W        W35700  17.260  28.536  12.034
63276W        W35701  10.650  37.007  14.865
63277W        W35702  44.833  35.044  11.513
63278W        W35703  41.009  12.234   2.676
63279W        W35704  39.379  40.456   4.698
63280W        W35705  34.593  13.121  10.563
63281W        W35706  15.250  40.312   3.786
63282W        W35707  18.145   9.388  12.923
63283W        W35708  31.623  10.657  14.502
63284W        W35709  33.894  14.094  10.452
63285W        W35710  26.649  31.535  12.001
63286W        W35711  32.509  39.431  10.619
63287W        W35712  24.530   7.379  12.078
63288W        W35713  25.219  28.481  12.442
63289W        W35714  29.451   9.763  14.992
63290W        W35715   7.178   3.281  13.975
63291W        W35716   0.948  40.384   4.791
63292W        W35717  20.223   6.283  12.089
63293W        W35718  20.110  22.215  14.958
63294W        W35719  22.146   1.905   3.870
63295W        W35720  27.967  28.562   2.765
63296W        W35721  44.427  42.474   4.830
63297W        W35722  37.508  43.982  13.308
63298W        W35723  23.030  37.533   3.229
63299W        W35724   6.397  17.566  13.346
63300W        W35725  18.152  11.829   3.383
63301W        W35726  28.993  40.950   5.188
63302W        W35727  21.108  27.053  14.958
63303W        W35728   7.702  14.140  11.860
63304W        W35729  29.067  26.049  13.897
63305W        W35730   8.778  26.553  13.350
63306W        W35731   3.956  30.945  11.102
63307W        W35732   1.796  12.193  12.375
63308W        W35733  39.918  23.053  10.552
63309W        W35734  26.504  22.713   4.655
63310W        W35735  23.551  14.756   0.373
63311W        W35736  10.792  35.937   3.161
63312W        W35737  38.981  40.505   5.086
63313W        W35738  19.263   5.805   3.154
63314W        W35739   7.220  38.396  13.878
63315W        W35740  39.894   1.901  13.391
63316W        W35741   1.965  40.435  11.504
63317W        W35742  32.518   8.365   1.304
63318W        W35743  21.041  28.084   1.423
63319W        W35744  23.637  15.163   3.310
63320W        W35745  15.174   0.950   1.728
63321W        W35746  16.734  33.544   1.776
63322W        W35747  21.019  18.682   4.181
63323W        W35748  37.936  25.170  14.856
63324W        W35749  38.023  13.835  12.078
63325W        W35750  28.049  41.481  10.908
63326W        W35751  13.622  23.686  13.444
63327W        W35752  40.915  12.818  13.915
63328W        W35753  32.466  28.548   1.441
63329W        W35754  11.179  17.096  11.093
63330W        W35755  40.818   0.891   1.392
63331W        W35756  37.833   9.793   2.840
63332W        W35757  26.040   2.750   3.375
63333W        W35758   1.830  15.648   1.896
63334W        W35759  35.488  15.675  12.360
63335W        W35760  40.482  22.636  11.085
63336W        W35761  42.818  44.891  11.002
63337W        W35762  11.703  23.495  12.924
63338W        W35763   3.713  13.703   4.114
63339W        W35764  21.066  15.684   1.933
63340W        W35765   3.407  39.949  10.595
63341W        W35766  17.677  22.514   0.910
63342W        W35767  44.814  18.182   4.756
63343W        W35768  43.842  19.578   2.252
63344W        W35769  21.082  39.329   0.924
63345W        W35770  15.158  28.947   1.713
63346W        W35771  29.001  10.667   2.792
63347W        W35772  32.039   1.833   9.925
63348W        W35773  27.633  38.843   4.782
63349W        W35774  35.860   8.878  13.049
63350W        W35775  29.026  13.765   3.839
63351W        W35776   1.851  21.547   3.728
63352W        W35777  20.758  44.449   3.317
63353W        W35778   3.909  10.637   0.343
63354W        W35779  17.613   8.790  10.547
63355W        W35780  19.243  17.227   0.934
63356W        W35781   4.279   1.422   0.957
63357W        W35782  24.611  36.067  12.357
63358W        W35783   6.382   3.931  10.992
63359W        W35784   9.672  36.866  13.048
63360W        W35785   7.734  10.635   4.744
63361W        W35786  17.198  30.482   0.313
63362W        W35787  40.333  42.846   4.620
63363W        W35788  41.811   6.698  13.470
63364W        W35789   1.784   9.156  14.024
63365W        W35790  33.052  18.657   2.215
63366W        W35791  42.979  33.891  12.020
63367W        W35792  29.163  31.918  11.397
63368W        W35793  22.690  25.149   3.276
63369W        W35794  12.757   4.774  12.023
63370W        W35795   9.217   5.729  10.953
63371W        W35796  17.676  27.505  11.405
63372W        W35797   1.265  27.503   3.648
63373W        W35798  23.675  25.093  11.414
63374W        W35799  11.666  32.087   0.857
63375W        W35800  28.121  14.339  11.899
63376W        W35801   5.204  19.664   4.672
63377W        W35802   3.922  22.714  12.910
63378W        W35803  43.456  44.334   3.755
63379W        W35804   5.853  43.356  12.350
63380W        W35805  31.898  40.927  12.976
63381W        W35806  31.439  23.543  12.860
63382W        W35807  42.873   8.399   2.854
63383W        W35808  18.056  33.073  11.541
63384W        W35809  16.177  30.451   0.426
63385W        W35810  42.020  17.560  13.481
63386W        W35811  28.528  13.234   4.268
63387W        W35812   0.272  37.012   3.310
63388W        W35813  16.639  20.538   0.247
63389W        W35814  34.075   0.858   2.705
63390W        W35815  32.615   9.736  12.445
63391W        W35816  37.490   5.318   3.230
63392W        W35817  18.091  12.716  11.598
63393W        W35818   2.310  18.166  12.376
63394W        W35819  14.752  42.976  13.324
63395W        W35820  43.311   5.897   3.829
63396W        W35821  42.961  33.992  14.312
63397W        W35822  38.902  35.084  13.985
63398W        W35823  30.477  25.040   1.714
63399W        W35824  36.999  10.288  10.113
63400W        W35825   0.375   7.741  14.942
63401W        W35826  15.702  44.275  12.935
63402W        W35827  37.363  31.527   1.898
63403W        W35828  41.844   7.353   2.197
63404W        W35829  27.098   1.444   0.466
63405W        W35830  17.086  17.150   4.127
63406W        W35831   1.381  34.891   2.664
63407W        W35832   5.412  23.122  14.852
63408W        W35833   3.944  15.823   2.819
63409W        W35834  25.200   8.897   1.792
63410W        W35835  11.268   7.234   2.766
63411W        W35836   7.755  26.652   9.994
63412W        W35837  18.668  28.969  11.394
63413W        W35838  17.597  27.103   3.728
63414W        W35839  25.473  42.899  12.523
63415W        W35840  35.963  40.872  13.511
63416W        W35841   6.321  28.524   1.911
63417W        W35842   3.301   1.471  12.543
63418W        W35843  10.686  31.995   0.382
63419W        W35844  27.457   1.324   0.839
63420W        W35845  40.480  31.510  14.910
63421W        W35846  18.742  19.159  11.915
63422W        W35847  29.510   4.400  10.622
63423W        W35848   3.783  17.567  13.458
63424W        W35849  36.453   1.354   3.245
63425W        W35850  17.581  24.058  13.418
63426W        W35851  34.903  34.519   1.427
63427W        W35852  40.386  34.101  12.053
63428W        W35853  43.455  36.042  12.460
63429W        W35854  27.050  23.631  14.512
63430W        W35855   9.271  32.045   0.930
63431W        W35856  36.018  14.137   1.335
63432W        W35857  25.060  37.534   1.749
63433W        W35858  10.736  28.516   3.649
63434W        W35859   3.809  10.152   4.341
63435W        W35860   3.271  13.159  11.609
63436W        W35861  32.435  39.466   3.316
63437W        W35862   4.768  33.887  13.015
63438W        W35863  32.990  38.392   3.358
63439W        W35864  22.544  35.977   4.835
63440W        W35865  12.158   8.258   2.754
63441W        W35866  16.780  15.226   2.232
63442W        W35867   9.693  44.874   2.381
63443W        W35868   5.289  42.319   3.324
63444W        W35869  22.999   5.224   4.336
63445W        W35870  14.789  23.724   4.303
63446W        W35871  36.098   7.178  13.398
63447W        W35872   7.873  23.094  10.591
63448W        W35873   2.257  20.533   3.856
63449W        W35874   7.291  40.939   4.114
63450W        W35875   3.728  30.485   4.125
63451W        W35876  32.616  37.576  14.515
63452W        W35877  16.647  25.613   0.894
63453W        W35878  19.076  14.321  13.495
63454W        W35879  36.365  13.755   3.361
63455W        W35880  36.473  16.611   3.367
63456W        W35881   8.808  19.772   2.247
63457W        W35882  28.093  18.762  10.951
63458W        W35883  43.488   1.857   0.455
63459W        W35884  16.183   6.689  14.304
63460W        W35885  37.524  40.822  11.521
63461W        W35886  20.062  16.701  10.955
63462W        W35887  25.547   3.458   3.824
63463W        W35888   6.411  14.096  13.934
63464W        W35889  29.559  13.834  12.521
63465W        W35890  43.321  25.470   3.226
63466W        W35891  19.225  23.724   0.440
63467W        W35892  19.129  10.644   3.264
63468W        W35893  24.681   5.759   4.176
63469W        W35894  28.441   8.834  11.964
63470W        W35895  27.141   3.941  11.127
63471W        W35896  10.281  36.360  11.126
63472W        W35897  20.074   3.416  10.427
63473W        W35898  30.017   1.446  14.930
63474W        W35899   3.859  28.577   0.913
63475W        W35900   0.251  14.669   1.819
63476W        W35901  40.888  31.965  12.054
63477W        W35902  37.917  38.372  12.412
63478W        W35903  42.445   3.218  13.544
63479W        W35904  27.686  16.616  12.358
63480W        W35905  10.371  20.538  14.830
63481W        W35906  29.561   6.843  11.985
63482W        W35907   4.798  43.929   2.752
63483W        W35908  41.371  12.249  12.909
63484W        W35909  23.025  37.391  14.291
63485W        W35910   5.794   6.229   4.157
63486W        W35911  20.050  11.231   3.711
63487W        W35912  35.455   7.399   4.809
63488W        W35913  33.031   8.352  12.089
63489W        W35914  38.992  24.018   1.758
63490W        W35915   5.401  24.021   3.248
63491W        W35916   8.739  27.991   1.225
63492W        W35917  34.529  43.415  10.437
63493W        W35918  23.649  43.426  12.445
63494W        W35919  30.457  33.492   5.179
63495W        W35920  39.845  18.740  13.042
63496W        W35921  44.904   8.290   2.385
63497W        W35922   9.773  37.557  11.514
63498W        W35923  27.617  25.218  12.904
63499W        W35924  12.270  30.968  12.942
63500W        W35925   0.297  13.344  14.455
63501W        W35926  26.033  14.117  11.556
63502W        W35927   5.914   2.825  12.914
63503W        W35928  42.957  41.527  11.984
63504W        W35929   8.884   8.880   4.324
63505W        W35930  12.184  35.472   2.695
63506W        W35931   3.807  11.239  12.954
63507W        W35932   2.413  32.426   1.308
63508W        W35933  14.819  24.608   3.823
63509W        W35934  20.747  44.958   2.810
63510W        W35935   6.227  25.090   0.770
63511W        W35936   8.843  39.987   2.296
63512W        W35937  42.833   8.192   3.695
63513W        W35938  26.535  44.496  13.963
63514W        W35939  12.296  27.970   4.157
63515W        W35940  41.375  10.140   4.649
63516W        W35941  39.932  22.995   1.219
63517W        W35942   9.856  17.746  11.499
63518W        W35943   1.757   8.259   1.249
63519W        W35944   9.372  33.512   4.210
63520W        W35945  26.677  38.058  10.911
63521W        W35946  19.083  15.595   1.790
63522W        W35947  40.420   4.783   5.236
63523W        W35948   8.256  24.012  11.999
63524W        W35949   6.352   1.473  11.080
63525W        W35950  24.492   5.317   2.343
63526W        W35951   0.248  28.649  11.406
63527W        W35952  19.070  16.734  14.888
63528W        W35953  31.616   5.696   1.297
63529W        W35954  36.442  36.974   4.715
63530W        W35955  42.449  22.531   3.370
63531W        W35956  39.870  33.118   1.752
63532W        W35957  32.425  24.724   2.877
63533W        W35958   2.441  30.574   4.235
63534W        W35959  24.066  38.509   3.190
63535W        W35960   2.941  43.789  14.908
63536W        W35961  33.939   3.773   1.283
63537W        W35962  18.170   5.320   3.364
63538W        W35963  30.931   1.791  12.508
63539W        W35964  41.529   5.344   4.184
63540W        W35965   5.203  12.276   1.733
63541W        W35966  40.350  12.244  12.445
63542W        W35967  36.393  41.986   4.827
63543W        W35968  25.583  12.797   1.212
63544W        W35969  31.003   7.879   3.631
63545W        W35970  28.018  20.578  11.933
63546W        W35971  34.541   1.745  11.868
63547W        W35972  44.376  15.278  13.959
63548W        W35973   1.361  18.689  13.048
63549W        W35974  20.684  14.777  12.064
63550W        W35975   2.334   0.450  13.381
63551W        W35976  31.495  17.236   4.149
63552W        W35977  21.121  30.025  12.853
63553W        W35978  29.491  37.875   0.742
63554W        W35979  44.392  27.055  10.458
63555W        W35980  16.159  27.583   0.931
63556W        W35981  35.859  19.193  11.922
63557W        W35982   7.783  26.500   0.424
63558W        W35983  24.197   7.897  11.125
63559W        W35984  35.904  10.177   0.787
63560W        W35985   5.731  42.983  14.373
63561W        W35986   7.831   2.370  12.088
63562W        W35987  28.613   4.346   1.853
63563W        W35988  36.502  22.047  14.447
63564W        W35989  38.009   8.749   4.192
63565W        W35990  44.896  29.978   0.401
63566W        W35991  19.703  39.513  13.371
63567W        W35992  18.197  15.328  12.933
63568W        W35993  25.562  35.887  14.878
63569W        W35994  33.417  28.007  13.897
63570W        W35995   4.724  21.187   5.272
63571W        W35996  32.132   9.670   0.779
63572W        W35997  34.445  28.538  10.922
63573W        W35998  28.483   7.280   0.306
63574W        W35999  37.531  10.358  10.116
63575W        W36000   1.480   9.838  13.369
63576W        W36001  44.806  36.964  14.786
63577W        W36002  25.107   0.784  13.029
63578W        W36003  37.528   8.203   1.240
63579W        W36004  25.164  13.761  13.456
63580W        W36005  39.484   1.859  12.012
63581W        W36006  30.601   6.756   3.808
63582W        W36007  40.878  33.454   1.876
63583W        W36008  29.978  26.517  10.470
63584W        W36009  29.933  33.030   1.372
63585W        W36010  34.874  20.608  12.020
63586W        W36011  40.374  15.111   2.801
63587W        W36012   3.342   1.468   3.162
63588W        W36013  34.397   3.827   0.267
63589W        W36014   4.222  27.592   3.176
63590W        W36015  34.918   2.898  10.951
63591W        W36016  19.566  27.042  12.452
63592W        W36017  14.172  36.076  14.293
63593W        W36018   9.156  33.569  14.785
63594W        W36019  34.590  30.981  13.947
63595W        W36020   4.234  39.497   4.212
63596W        W36021  38.513  23.065   0.899
63597W        W36022  42.302  15.249   3.333
63598W        W36023  19.256  44.916   4.732
63599W        W36024   0.935  37.043  12.474
63600W        W36025  14.776  42.481   3.369
63601W        W36026   3.921  34.939   9.974
63602W        W36027  34.058  20.128   3.195
63603W        W36028  42.876  36.922   0.788
63604W        W36029   7.332  20.719   2.210
63605W        W36030  21.612  15.725  11.873
63606W        W36031  19.091  41.394  14.325
63607W        W36032   8.210  10.878   4.735
63608W        W36033   1.437   9.386   2.792
63609W        W36034  21.706   0.929  13.423
63610W        W36035  42.455  25.047   4.280
63611W        W36036  36.585  38.885  13.445
63612W        W36037  34.931  20.168   2.682
63613W        W36038   2.387  35.949  13.500
63614W        W36039   3.893   5.708   0.817
63615W        W36040   8.214  17.635  12.574
63616W        W36041  12.144  22.610  10.098
63617W        W36042  15.664  13.764   3.306
63618W        W36043  22.558  36.383  10.543
63619W        W36044  13.279   2.846   3.313
63620W        W36045   6.707  19.082   3.323
63621W        W36046  23.556  30.537  10.014
63622W        W36047  25.657  37.582  10.034
63623W        W36048  44.994   8.836  12.034
63624W        W36049  17.601  43.909  10.958
63625W        W36050  33.093  14.626   3.827
63626W        W36051  25.998  22.076   4.798
63627W        W36052  44.376  15.792   2.247
63628W        W36053  18.580   0.976   1.795
63629W        W36054  10.702   8.822  12.578
63630W        W36055   6.306  13.634   2.240
63631W        W36056  26.129  10.156   0.808
63632W        W36057  30.445   2.746   1.409
63633W        W36058   6.378  11.806   4.177
63634W        W36059  19.623  43.854  10.594
63635W        W36060  24.656  15.104  12.087
63636W        W36061  17.772  28.492   1.887
63637W        W36062   4.754   5.773   0.433
63638W        W36063  22.194  13.777  14.370
63639W        W36064  36.500  20.700  10.922
63640W        W36065   3.875   0.399   2.853
63641W        W36066  17.246  27.598   4.684
63642W        W36067   4.901  37.985  11.093
63643W        W36068  31.085   2.931   2.887
63644W        W36069  19.547  41.466   0.382
63645W        W36070  44.450  36.911   3.251
63646W        W36071  15.197  37.483   0.459
63647W        W36072   5.878  20.614   0.256
63648W        W36073  15.820  12.130  13.943
63649W        W36074   1.275  18.209   4.761
63650W        W36075  44.906  36.894   1.747
63651W        W36076  43.015  34.529   3.765
63652W        W36077  24.681  19.115  11.020
63653W        W36078  16.798   8.360  13.831
63654W        W36079  40.873  29.489   3.632
63655W        W36080   2.336  21.595   3.275
63656W        W36081  33.459  28.144  13.318
63657W        W36082  29.437  12.727   0.476
63658W        W36083  12.125  15.320  11.933
63659W        W36084  35.060   4.378  10.441
63660W        W36085  13.288  24.651  14.922
63661W        W36086   6.782  43.349  14.408
63662W        W36087  25.093  32.546  12.830
63663W        W36088  25.606  18.173   2.883
63664W        W36089  21.552   4.923   3.805
63665W        W36090  34.899   6.892  10.584
63666W        W36091   4.935  14.317  10.433
63667W        W36092   8.301  36.044  14.016
63668W        W36093  17.585  37.067   0.482
63669W        W36094   9.701   0.910   3.667
63670W        W36095  21.162  18.696   1.796
63671W        W36096   2.446  29.587   1.289
63672W        W36097  20.528  38.381   2.258
63673W        W36098  22.067  39.352  13.841
63674W        W36099  25.524  28.568  13.456
63675W        W36100   7.836  21.634   0.289
63676W        W36101  35.500  22.173  14.817
63677W        W36102  19.128  39.324  12.435
63678W        W36103  24.187  43.861   1.930
63679W        W36104   3.229  14.666   0.478
63680W        W36105  22.515  33.973  14.447
63681W        W36106  39.015  16.685  12.500
63682W        W36107   4.797  37.366  11.540
63683W        W36108  12.762  40.978  10.951
63684W        W36109  12.857  35.014  11.980
63685W        W36110  30.109  35.531  10.933
63686W        W36111  38.875  34.118   2.222
63687W        W36112  34.469  18.243  14.761
63688W        W36113  21.176  22.624   3.670
63689W        W36114   1.754   8.687  10.538
63690W        W36115  43.876   0.332  14.502
63691W        W36116  34.551  30.545   4.248
63692W        W36117  42.319  21.658   2.200
63693W        W36118  25.204  42.281  13.314
63694W        W36119  25.609  14.811   0.882
63695W        W36120   3.890  41.468   3.266
63696W        W36121  19.249  34.486  12.036
63697W        W36122  30.608  16.596   4.707
63698W        W36123  38.839  12.809   4.163
63699W        W36124   7.766   1.393  13.047
63700W        W36125  18.780  10.261  10.089
63701W        W36126   6.698   7.312   1.432
63702W        W36127   5.332  20.753   2.868
63703W        W36128  30.417  34.522   4.696
63704W        W36129  14.827  36.948  14.501
63705W        W36130  28.034  11.273  11.102
63706W        W36131   5.809  35.448  13.446
63707W        W36132  19.104   5.873  13.952
63708W        W36133  24.619  41.007   1.357
63709W        W36134  30.555   9.688  12.499
63710W        W36135  28.019  23.637   4.621
63711W        W36136  10.670   5.834   1.720
63712W        W36137   5.909  37.521   1.858
63713W        W36138  24.125   1.251  11.906
63714W        W36139  22.112  10.874   3.776
63715W        W36140   2.916   3.332   3.318
63716W        W36141   2.278  14.247  12.374
63717W        W36142  22.531  31.526   4.237
63718W        W36143  37.953  41.514   5.294
63719W        W36144  17.175  31.621   5.203
63720W        W36145   4.764  25.073   4.732
63721W        W36146   4.841   6.893   1.300
63722W        W36147  26.087  10.268  14.279
63723W        W36148  30.496  28.118   0.365
63724W        W36149  18.550  42.525  11.413
63725W        W36150   2.762  27.960  11.417
63726W        W36151  38.514  35.891   2.391
63727W        W36152  24.049   6.346   0.248
63728W        W36153  30.633   4.325  11.373
63729W        W36154  17.705  12.231   0.940
63730W        W36155  19.599   7.372  12.995
63731W        W36156  18.644  13.209  11.501
63732W        W36157  12.655  27.603   3.777
63733W        W36158  11.250  17.266   1.863
63734W        W36159  21.199  21.193   0.763
63735W        W36160  30.574  10.745   1.784
63736W        W36161  14.595  44.350   2.851
63737W        W36162  21.030  20.568   1.288
63738W        W36163  10.719  15.688   2.674
63739W        W36164  30.032  14.101  11.389
63740W        W36165  26.606  17.683  13.892
63741W        W36166  18.774  41.811  11.505
63742W        W36167   0.320  20.638  13.348
63743W        W36168  44.862  20.715  10.516
63744W        W36169  17.798  40.054   0.355
63745W        W36170  24.223  35.519   2.746
63746W        W36171   1.939  23.725   0.772
63747W        W36172  30.652  43.956   3.656
63748W        W36173  34.926  18.602   1.441
63749W        W36174   4.384  25.046   4.303
63750W        W36175  31.943  23.041  13.547
63751W        W36176   1.370  37.076  13.487
63752W        W36177  15.746  21.712   2.286
63753W        W36178   2.352  26.536  11.508
63754W        W36179  30.022  44.998  12.897
63755W        W36180  39.034   3.881  12.571
63756W        W36181  36.094  25.634  11.039
63757W        W36182  38.931  33.461   2.776
63758W        W36183  13.650   1.443   5.573
63759W        W36184  42.890   9.225  13.479
63760W        W36185  24.052  41.819   2.886
63761W        W36186  35.405  12.289  14.360
63762W        W36187  21.116  31.555   3.171
63763W        W36188  43.939   0.918  13.981
63764W        W36189  24.227  26.671  14.460
63765W        W36190  41.504  19.280  10.412
63766W        W36191  36.093  41.028  13.805
63767W        W36192  38.519  21.194  11.464
63768W        W36193   7.351  26.549  11.468
63769W        W36194   1.482  44.471   0.397
63770W        W36195   4.385  13.290   3.765
63771W        W36196  28.104  23.661   9.531
63772W        W36197   9.858  14.160  12.568
63773W        W36198  29.154  41.816  10.943
63774W        W36199  15.189  40.344  14.326
63775W        W36200  33.401  12.186   9.994
63776W        W36201  17.800   2.798   2.373
63777W        W36202  38.420   0.817   4.650
63778W        W36203  43.503  15.093  13.939
63779W        W36204  33.573  13.683   2.354
63780W        W36205  41.982  11.356  12.517
63781W        W36206   4.210  14.710  11.463
63782W        W36207   5.265  41.956  14.022
63783W        W36208   6.295  23.075  14.317
63784W        W36209  43.927  24.099   3.169
63785W        W36210  34.610  10.239   0.327
63786W        W36211   3.869   2.412  12.077
63787W        W36212   8.219  43.845  11.906
63788W        W36213  21.026  20.177  14.015
63789W        W36214   4.809   0.307  12.897
63790W        W36215  44.463   1.864  12.388
63791W        W36216   1.369  39.558  12.483
63792W        W36217  23.064  23.586  11.955
63793W        W36218  21.084  42.309  11.954
63794W        W36219   3.362   4.260  11.560
63795W        W36220  19.643  29.142  10.926
63796W        W36221  12.656  13.611   4.660
63797W        W36222   6.761   8.778  12.569
63798W        W36223  10.177  42.304   3.775
63799W        W36224  41.427  44.479   4.233
63800W        W36225  21.667  19.758  14.861
63801W        W36226  43.321  26.641  13.801
63802W        W36227  20.554  27.055   3.155
63803W        W36228  22.141  44.439  13.316
63804W        W36229   7.697  11.240   0.789
63805W        W36230  14.278   2.795  10.621
63806W        W36231  25.994  17.114  10.963
63807W        W36232  17.149   5.706  13.046
63808W        W36233  27.600  27.056   4.284
63809W        W36234  10.814  18.217  14.964
63810W        W36235  19.111  16.597   4.831
63811W        W36236  35.399  28.183  11.100
63812W        W36237   0.898   7.885   0.847
63813W        W36238  13.633  21.103   4.291
63814W        W36239   3.718  13.738  10.407
63815W        W36240   9.748  14.158  12.051
63816W        W36241  39.498  10.298   4.599
63817W        W36242   7.829  30.427   3.354
63818W        W36243   2.345  15.689   1.739
63819W        W36244  40.383  13.119   5.169
63820W        W36245  30.636  15.630   0.453
63821W        W36246  30.459  36.395   2.670
63822W        W36247  41.988  13.285   3.281
63823W        W36248  27.038  34.603  11.427
63824W        W36249  28.462  38.928   0.364
63825W        W36250  28.182  17.652   3.216
63826W        W36251  20.140  11.208  13.537
63827W        W36252  42.007   7.841   1.278
63828W        W36253   1.936  29.435   1.447
63829W        W36254   3.739  35.412   0.276
63830W        W36255  36.019  15.140  14.933
63831W        W36256  20.672  12.220  14.464
63832W        W36257  16.096   7.737  10.989
63833W        W36258  30.016  28.443  11.934
63834W        W36259   2.281  26.590  14.996
63835W        W36260  30.986   9.667  10.983
63836W        W36261  39.926   0.969  13.459
63837W        W36262  35.565  32.577  14.353
63838W        W36263   2.859  30.625  14.910
63839W        W36264  19.602  34.872   1.763
63840W        W36265  24.035  33.991  11.460
63841W        W36266  37.917  41.526   0.458
63842W        W36267   9.769  26.983   0.964
63843W        W36268  10.193   4.795  12.895
63844W        W36269  38.347  33.060   0.730
63845W        W36270  13.601  21.037  14.340
63846W        W36271  44.932  34.373   4.130
63847W        W36272  44.494  10.752  12.388
63848W        W36273  22.129  25.705  13.384
63849W        W36274   8.378  28.495  11.381
63850W        W36275  24.566  17.764   1.372
63851W        W36276  18.720  35.556  12.565
63852W        W36277  42.461  34.921  12.937
63853W        W36278   3.355  43.880   2.352
63854W        W36279  35.012  12.652   3.197
63855W        W36280   8.403  24.536   3.287
63856W        W36281  27.606  22.031  11.611
63857W        W36282  40.930  23.568  12.489
63858W        W36283  29.925  14.189   4.779
63859W        W36284  34.431  28.450  14.324
63860W        W36285   7.172   0.362  13.441
63861W        W36286  36.973  18.122  11.881
63862W        W36287  13.698  19.583  11.011
63863W        W36288  37.914  26.182  10.561
63864W        W36289  19.538  29.031  14.976
63865W        W36290   1.792  39.909  10.642
63866W        W36291  28.470  29.086  14.468
63867W        W36292   5.228  24.101  10.612
63868W        W36293  44.913  14.818  11.596
63869W        W36294  15.654  28.182  12.094
63870W        W36295  11.695  23.499  12.568
63871W        W36296  41.475  20.034   5.591
63872W        W36297  31.092  27.476   4.284
63873W        W36298  29.447  30.616  12.075
63874W        W36299  37.351  26.017   2.406
63875W        W36300  15.657  33.392  13.949
63876W        W36301  26.551   9.739   2.416
63877W        W36302  10.859  43.836  13.794
63878W        W36303  11.689  20.242   4.708
63879W        W36304  25.064  22.021   4.680
63880W        W36305   4.375  38.474  12.915
63881W        W36306  36.086  44.356  13.428
63882W        W36307   9.684   3.444  13.385
63883W        W36308  15.272   4.278  14.488
63884W        W36309   9.840   6.331  10.584
63885W        W36310  34.491  14.779   4.208
63886W        W36311   3.387  32.408   2.806
63887W        W36312   1.320  31.905  11.041
63888W        W36313  35.031  22.576   1.403
63889W        W36314  11.727  30.569   1.360
63890W        W36315   7.904  35.361   2.834
63891W        W36316  40.925  43.444   3.749
63892W        W36317   3.314  40.972   3.311
63893W        W36318  31.902   3.879  10.557
63894W        W36319  11.127   4.332   2.710
63895W        W36320  20.764  27.012  12.980
63896W        W36321   0.440  44.478   3.782
63897W        W36322   2.290   1.958   5.277
63898W        W36323  33.583  36.900  11.406
63899W        W36324  36.932  43.897  12.577
63900W        W36325  22.596  40.864   4.282
63901W        W36326  43.494  19.545  10.975
63902W        W36327  25.624   1.425   2.860
63903W        W36328  42.394  24.103   0.392
63904W        W36329   7.826  39.064   0.792
63905W        W36330  40.897   8.823   3.272
63906W        W36331   7.277  14.243   5.190
63907W        W36332  43.857   9.327   3.796
63908W        W36333   4.883  34.869  11.105
63909W        W36334  40.470  21.030  13.454
63910W        W36335  22.583  15.776   0.411
63911W        W36336  33.949  24.526  12.075
63912W        W36337   7.269  14.240  13.521
63913W        W36338  19.663  10.161   0.797
63914W        W36339  21.078   4.368   4.148
63915W        W36340  37.982  19.729   5.281
63916W        W36341  19.697  27.154  11.473
63917W        W36342  28.176   0.479   4.659
63918W        W36343  17.064  19.565   4.617
63919W        W36344  38.037  15.587   3.837
63920W        W36345  42.498  18.275   3.737
63921W        W36346  32.071  18.070  12.850
63922W        W36347  40.876   4.259   3.726
63923W        W36348   0.792  26.479   5.139
63924W        W36349  18.118  27.505   3.632
63925W        W36350  31.108   2.806   4.773
63926W        W36351  19.620  25.686  11.404
63927W        W36352  31.415  28.534  10.456
63928W        W36353  32.548  43.933   4.132
63929W        W36354  42.828  18.559  13.992
63930W        W36355  18.055  13.675   4.597
63931W        W36356   5.831  15.822  12.462
63932W        W36357  36.588   7.870   3.165
63933W        W36358  36.881  36.900   0.908
63934W        W36359  32.131  33.426   0.345
63935W        W36360   5.877  34.430   1.737
63936W        W36361   9.879  24.669  10.489
63937W        W36362  33.922   7.732   1.261
63938W        W36363  18.101  23.031  14.274
63939W        W36364   5.274  28.464  13.430
63940W        W36365  16.658  10.277  12.895
63941W        W36366   5.839  18.618   3.249
63942W        W36367  37.407   1.412   4.693
63943W        W36368  24.989   3.228  12.478
63944W        W36369  23.099  38.898   1.269
63945W        W36370  32.572  21.058  13.513
63946W        W36371  27.094  17.655  13.448
63947W        W36372  42.861  27.193   1.717
63948W        W36373   0.374   5.755   4.240
63949W        W36374  28.613  13.648   2.369
63950W        W36375  19.135  33.001   3.205
63951W        W36376  17.144  30.636   0.896
63952W        W36377  32.454  33.439  10.498
63953W        W36378  20.137  34.932   2.855
63954W        W36379  11.635  25.638   4.140
63955W        W36380   2.865   4.856   4.793
63956W        W36381   5.219  30.491  12.516
63957W        W36382  17.637   4.300   1.837
63958W        W36383  13.666  29.972  14.294
63959W        W36384  40.964   7.680  11.599
63960W        W36385  23.674   5.294   2.288
63961W        W36386  28.565  23.710   2.297
63962W        W36387  40.313  33.501   3.759
63963W        W36388   4.714  30.462   0.267
63964W        W36389   7.331  28.492   2.314
63965W        W36390   2.813   5.800  13.955
63966W        W36391  38.965  30.649   9.921
63967W        W36392  20.691   7.412  13.034
63968W        W36393  21.721  18.199   3.160
63969W        W36394  25.687  30.623  13.817
63970W        W36395  12.345  30.489   0.341
63971W        W36396  15.757  22.655   5.297
63972W        W36397  36.562  11.709   3.704
63973W        W36398   8.775  17.594  12.043
63974W        W36399   6.687   9.876  11.015
63975W        W36400  15.656  11.637  12.838
63976W        W36401  31.445   8.245  14.424
63977W        W36402  12.210   3.743   0.807
63978W        W36403  43.992  36.399   3.178
63979W        W36404  31.946  25.217   4.794
63980W        W36405   0.310  13.675   2.382
63981W        W36406  32.475  39.062   0.839
63982W        W36407  11.138  10.191  12.342
63983W        W36408   1.905  36.542   2.216
63984W        W36409  16.684  12.358  11.110
63985W        W36410  21.030  12.714  13.427
63986W        W36411  13.261  13.789  11.415
63987W        W36412  21.578  26.067  13.388
63988W        W36413  31.040  27.551   3.759
63989W        W36414  37.395   5.405  14.284
63990W        W36415  21.223  25.975   4.622
63991W        W36416   7.352  35.085   2.707
63992W        W36417  39.529  27.494   3.378
63993W        W36418  33.130   8.270  14.760
63994W        W36419  22.104  37.949  13.858
63995W        W36420  38.010  12.744   0.894
63996W        W36421  43.911  18.060  11.586
63997W        W36422  19.108  40.915  13.886
63998W        W36423   9.281  17.151   3.789
63999W        W36424  43.457  31.443   3.303
64000W        W36425   0.743  34.483  11.398
64001W        W36426  11.354  11.293  11.088
64002W        W36427  42.343  17.182   4.343
64003W        W36428  19.276   3.262  12.096
64004W        W36429  38.869  33.052  12.372
64005W        W36430  40.930  32.975   3.862
64006W        W36431  34.450   7.856   1.697
64007W        W36432  10.696  34.113   2.811
64008W        W36433   0.282   3.238   3.303
64009W        W36434  36.926  15.769   5.089
64010W        W36435  16.646  35.993  11.883
64011W        W36436  29.604  26.626   4.748
64012W        W36437  34.968  27.457   4.245
64013W        W36438  43.457  33.380  10.078
64014W        W36439  29.166  41.383  12.494
64015W        W36440   6.267  31.989  12.417
64016W        W36441  26.119  19.687  13.981
64017W        W36442   7.376  29.088   2.872
64018W        W36443  25.134  12.715  11.034
64019W        W36444  22.050  26.688   4.237
64020W        W36445   5.731  44.881  14.311
64021W        W36446  21.575  15.601   4.625
64022W        W36447   7.770  42.375  11.515
64023W        W36448   6.881  41.364   3.148
64024W        W36449  11.262  29.047  13.333
64025W        W36450  17.104  30.002  11.466
64026W        W36451  14.790   0.304   3.633
64027W        W36452  27.025  16.597   4.150
64028W        W36453  27.955  36.529   0.882
64029W        W36454  31.402  15.674   1.330
64030W        W36455  40.409   6.318   4.769
64031W        W36456   0.808  30.536   0.866
64032W        W36457  21.056   8.753  10.599
64033W        W36458  10.341   8.867  11.091
64034W        W36459  34.077  28.444  12.040
64035W        W36460  40.387  43.378  14.341
64036W        W36461  15.246  38.544   3.325
64037W        W36462  41.994  22.181  10.071
64038W        W36463  34.001  14.640   0.261
64039W        W36464   5.696  17.282  13.817
64040W        W36465   6.363  21.227   1.731
64041W        W36466  42.469  42.855   2.233
64042W        W36467   9.230  12.832  10.123
64043W        W36468   8.235  43.297  14.780
64044W        W36469  41.022   4.232   4.723
64045W        W36470  41.825  21.643   0.967
64046W        W36471  33.078  32.930  10.941
64047W        W36472  27.503   1.271  10.955
64048W        W36473  26.567  27.472  11.058
64049W        W36474  36.852  44.802  10.610
64050W        W36475  19.093  27.115   1.279
64051W        W36476  10.780   6.182  13.938
64052W        W36477   5.430  32.018   3.212
64053W        W36478  15.807  37.522   1.448
64054W        W36479  36.359   7.755  10.935
64055W        W36480  14.162  27.985  14.347
64056W        W36481  19.219  17.134  10.406
64057W        W36482   9.664  10.273  13.373
64058W        W36483  20.132   7.872  13.377
64059W        W36484  27.107  40.806   1.358
64060W        W36485   2.296   4.341   4.173
64061W        W36486  40.937  30.965  14.465
64062W        W36487  44.436  12.811  14.824
64063W        W36488   9.868  22.212  10.528
64064W        W36489  36.539  17.695   4.728
64065W        W36490  25.526  26.676   4.183
64066W        W36491  26.638  33.021  11.018
64067W        W36492  21.539  44.796  13.907
64068W        W36493  11.655   0.796   4.244
64069W        W36494   0.929  37.030   3.751
64070W        W36495   6.351  15.614  10.461
64071W        W36496  30.141  42.956   4.321
64072W        W36497   6.343  44.282   3.683
64073W        W36498  14.596   8.235   0.423
64074W        W36499  25.508   3.745   1.446
64075W        W36500  33.095  24.629  13.962
64076W        W36501  17.718   1.940  14.459
64077W        W36502   3.282   1.324  14.322
64078W        W36503  10.737   3.914   2.367
64079W        W36504  10.673   1.804   1.451
64080W        W36505   5.356   5.215  13.309
64081W        W36506   8.868  26.470   4.757
64082W        W36507   8.320   2.723  12.828
64083W        W36508  38.401  41.351  13.856
64084W        W36509   3.813   2.435   1.746
64085W        W36510  16.102  31.526   4.284
64086W        W36511  21.665  31.951   4.760
64087W        W36512  29.505  31.983   1.860
64088W        W36513  32.562   0.452   2.310
64089W        W36514  24.067  11.243   4.313
64090W        W36515  43.926   3.296   1.353
64091W        W36516  15.177   9.773   3.212
64092W        W36517  42.358  10.323   4.157
64093W        W36518  12.173  35.453  11.464
64094W        W36519  23.684   9.716   0.960
64095W        W36520  15.615   9.330  14.764
64096W        W36521  23.042  35.428  10.498
64097W        W36522   9.224  10.150  10.142
64098W        W36523  25.643   2.255   3.385
64099W        W36524  41.331   1.933   1.810
64100W        W36525   1.920  36.954   1.871
64101W        W36526  25.012  41.446  14.415
64102W        W36527   2.241   6.228  11.425
64103W        W36528  13.329   4.357  13.059
64104W        W36529   9.319  33.942  10.899
64105W        W36530   1.364   9.756   3.314
64106W        W36531   5.818  27.124   2.809
64107W        W36532  36.049  40.973  11.550
64108W        W36533  13.698  11.266  13.543
64109W        W36534  33.541  23.502   9.979
64110W        W36535   9.849  25.521  11.961
64111W        W36536  44.875  39.383   0.479
64112W        W36537   9.747  27.980   4.660
64113W        W36538   4.344  33.573  10.913
64114W        W36539  23.124  33.922  10.547
64115W        W36540  23.183   7.351  10.507
64116W        W36541  29.539  39.494   4.346
64117W        W36542  43.397  12.725  12.050
64118W        W36543  14.711  30.108   0.342
64119W        W36544   4.273  26.129   2.818
64120W        W36545  15.243  31.645   0.901
64121W        W36546  40.920  34.551  11.940
64122W        W36547  26.074  16.588  14.468
64123W        W36548  37.565   8.221   0.386
64124W        W36549  17.618   6.773  13.936
64125W        W36550  37.561  41.299   2.235
64126W        W36551  17.740  35.454   0.466
64127W        W36552  18.137  43.392   2.233
64128W        W36553  37.441  34.579   4.162
64129W        W36554  24.714  35.383  11.886
64130W        W36555  34.922  36.428  13.343
64131W        W36556  17.249  26.629   2.773
64132W        W36557  18.565  20.588  12.378
64133W        W36558  24.621  22.573  12.079
64134W        W36559  29.088  25.163  10.496
64135W        W36560  24.640  23.228   4.113
64136W        W36561  12.266   3.773  11.006
64137W        W36562  18.246  22.200   4.610
64138W        W36563  30.448  16.119   1.746
64139W        W36564  40.396  16.714  13.897
64140W        W36565  15.738  29.988  10.493
64141W        W36566   9.214  26.512  12.484
64142W        W36567  29.056  22.078   0.269
64143W        W36568  38.918  12.195   1.766
64144W        W36569  34.532  34.041   4.141
64145W        W36570   9.388  41.950  12.356
64146W        W36571  43.515   0.967  13.427
64147W        W36572  22.731  10.314   0.892
64148W        W36573  17.557  26.620   4.753
64149W        W36574  25.585  21.630   0.904
64150W        W36575   9.821   5.330  13.308
64151W        W36576  25.167   7.771  12.998
64152W        W36577  13.771   1.376   3.747
64153W        W36578   8.281  16.246   0.870
64154W        W36579  42.359  42.481   3.270
64155W        W36580  32.910  10.206  12.473
64156W        W36581  31.938  26.571  11.431
64157W        W36582   9.276  39.348   2.757
64158W        W36583  35.481  38.409  11.953
64159W        W36584  22.682   0.934   2.850
64160W        W36585  24.482  27.064  14.910
64161W        W36586   6.249  36.000  12.916
64162W        W36587  36.939  33.021   4.210
64163W        W36588  14.106  14.304  10.540
64164W        W36589  40.851   7.276  12.545
64165W        W36590  32.551  13.732  14.989
64166W        W36591  29.573   4.721   4.275
64167W        W36592  22.639  12.128  13.422
64168W        W36593   3.232  30.632   1.298
64169W        W36594   9.244  36.877   3.206
64170W        W36595  43.781  27.948   1.849
64171W        W36596  31.056  43.816  13.059
64172W        W36597   0.877  16.779   3.322
64173W        W36598  43.437  29.666  11.549
64174W        W36599  27.117  41.830  10.989
64175W        W36600  40.836  28.559   1.881
64176W        W36601  44.411  39.821  11.998
64177W        W36602  18.231   1.411  14.366
64178W        W36603  39.497   4.422   3.863
64179W        W36604  43.874  42.449   1.241
64180W        W36605  29.022  18.567   4.597
64181W        W36606  20.245  26.492   0.753
64182W        W36607  28.051   6.397   3.769
64183W        W36608  26.187  43.855   3.345
64184W        W36609   4.823   9.352   0.763
64185W        W36610  42.889  39.507  10.408
64186W        W36611  26.208  41.307  12.840
64187W        W36612  39.848  29.503  12.355
64188W        W36613  20.693  32.110  13.818
64189W        W36614  35.577  31.430  13.858
64190W        W36615  13.119  16.733   3.191
64191W        W36616  29.563   8.791   4.164
64192W        W36617  44.924  11.640   0.345
64193W        W36618   0.772  41.982   3.816
64194W        W36619  20.067  21.569  13.351
64195W        W36620   6.349  34.405   0.843
64196W        W36621  21.093  40.509   5.156
64197W        W36622   6.234   1.825  10.576
64198W        W36623  38.828  29.993  12.366
64199W        W36624  42.429  19.213  13.530
64200W        W36625  17.685  42.401   3.183
64201W        W36626  19.779  12.175  11.888
64202W        W36627  20.697  18.750   1.375
64203W        W36628  38.009  15.255   3.784
64204W        W36629  26.167  21.113   4.772
64205W        W36630  12.193  25.588  13.921
64206W        W36631  27.001   4.270   0.364
64207W        W36632  26.154  17.649   1.757
64208W        W36633  36.493  39.010   2.294
64209W        W36634  29.664  41.802   9.445
64210W        W36635   3.280  18.240  10.612
64211W        W36636  34.985   6.325  14.473
64212W        W36637   9.208   4.939  14.845
64213W        W36638  21.546  36.407   2.324
64214W        W36639  34.607  25.479   4.699
64215W        W36640   1.807  34.378   2.363
64216W        W36641  40.538  24.140  12.370
64217W        W36642   8.295   5.415  14.934
64218W        W36643  26.137  15.212  14.922
64219W        W36644  34.072  24.154  11.436
64220W        W36645  27.159  22.512  14.301
64221W        W36646   4.846  30.038  11.035
64222W        W36647  17.109  42.401  12.096
64223W        W36648   1.308  17.676  11.031
64224W        W36649  14.201   0.754   3.165
64225W        W36650  17.579  18.726   4.301
64226W        W36651  20.132  43.016   0.762
64227W        W36652  41.292  34.916  14.879
64228W        W36653  16.268   9.885  11.068
64229W        W36654  36.447   7.726  14.507
64230W        W36655  36.969  27.453   3.850
64231W        W36656  41.853   0.819   4.118
64232W        W36657  13.124  21.677   0.461
64233W        W36658  38.525  15.248   2.260
64234W        W36659  39.464  27.982  12.965
64235W        W36660  33.492  44.830   4.198
64236W        W36661  17.110  44.887   4.832
64237W        W36662  16.678  31.568  12.536
64238W        W36663   1.972  27.073  11.075
64239W        W36664   7.876  26.516   1.297
64240W        W36665   9.667  39.361  12.837
64241W        W36666  12.839  10.227   1.304
64242W        W36667  38.834  22.663  10.906
64243W        W36668  44.756  13.625  12.031
64244W        W36669  27.049  34.481   1.265
64245W        W36670  14.653   4.702  13.929
64246W        W36671  40.547  19.692   2.813
64247W        W36672   2.850  35.879  13.975
64248W        W36673  32.472  13.272  11.109
64249W        W36674  19.655  43.969   3.231
64250W        W36675  21.100   8.160   2.681
64251W        W36676   4.833  41.427  10.145
64252W        W36677  19.068  23.179  12.438
64253W        W36678  26.028  36.551   1.347
64254W        W36679  16.575  24.999  13.990
64255W        W36680   5.245   5.332  10.978
64256W        W36681  15.198  22.735  11.545
64257W        W36682  26.101  29.535   4.787
64258W        W36683   5.378  42.443   1.842
64259W        W36684  18.293  34.459  10.024
64260W        W36685  27.602   8.192   4.643
64261W        W36686   1.255  13.625   2.258
64262W        W36687  12.849  44.268  10.966
64263W        W36688  19.088  13.247  11.549
64264W        W36689   2.762  26.689   3.184
64265W        W36690  11.282  20.714   4.694
64266W        W36691  22.043  32.061  12.965
64267W        W36692   1.960  32.587   4.604
64268W        W36693  44.421  27.083  14.504
64269W        W36694  15.658  15.750  12.416
64270W        W36695  12.250  43.828   1.234
64271W        W36696   3.920  38.875  10.503
64272W        W36697  26.522   9.224   4.293
64273W        W36698  30.128  41.957  13.042
64274W        W36699  31.530  43.902   4.803
64275W        W36700   9.307  17.249  12.395
64276W        W36701  22.626  20.653  13.830
64277W        W36702  42.401  23.639  11.089
64278W        W36703  14.233  41.933   3.796
64279W        W36704  39.368  20.546  10.927
64280W        W36705  35.887  32.518   0.773
64281W        W36706  42.439  22.059  14.935
64282W        W36707  27.520  24.630   3.773
64283W        W36708  18.788   7.212   3.296
64284W        W36709  36.420  13.829  12.863
64285W        W36710  23.118  25.147  12.000
64286W        W36711  19.577  21.627   1.241
64287W        W36712   9.331   5.337  14.375
64288W        W36713   3.258   3.776   1.412
64289W        W36714  20.094  28.147   4.347
64290W        W36715  21.636   6.687   2.887
64291W        W36716  31.516   5.807   2.722
64292W        W36717  21.663   3.750  11.073
64293W        W36718  36.993   1.919  14.320
64294W        W36719  25.587  17.088   3.703
64295W        W36720  14.140  39.410  10.453
64296W        W36721   1.954   0.986   0.350
64297W        W36722  23.684  37.959   4.650
64298W        W36723   0.250   1.358  13.452
64299W        W36724   2.805  44.781   2.677
64300W        W36725  17.661  32.401   9.477
64301W        W36726   0.831  25.063  14.018
64302W        W36727  13.256  35.074   2.679
64303W        W36728  25.219  16.567  11.492
64304W        W36729  16.292  44.348   0.266
64305W        W36730  11.148  17.599  11.947
64306W        W36731   0.262   5.737  12.004
64307W        W36732   1.851  19.246   0.454
64308W        W36733   5.371  29.111   3.660
64309W        W36734  33.474  12.305   3.753
64310W        W36735  38.529  44.818  10.503
64311W        W36736  40.815  34.510  10.616
64312W        W36737  36.532  19.779  12.389
64313W        W36738  25.025   0.849   4.192
64314W        W36739  25.133  32.572  14.964
64315W        W36740  21.692  21.540   4.674
64316W        W36741  24.216   3.346   1.214
64317W        W36742   7.254   1.865  11.073
64318W        W36743  31.952  22.018  12.941
64319W        W36744  36.041   6.680   9.927
64320W        W36745   9.778   5.286  14.004
64321W        W36746  33.893  17.663   1.922
64322W        W36747   6.259  27.126   2.716
64323W        W36748  16.808  32.420  10.023
64324W        W36749   3.789   3.315   3.685
64325W        W36750  22.062  24.210  11.862
64326W        W36751  19.135  30.599   1.275
64327W        W36752  28.027  30.589  14.320
64328W        W36753  22.584  14.664  13.990
64329W        W36754  27.475   6.213   0.729
64330W        W36755  11.217  13.123  14.923
64331W        W36756  24.721   7.703  12.088
64332W        W36757   9.722  37.904  10.583
64333W        W36758  33.961  36.091   1.343
64334W        W36759  16.703   7.719   3.372
64335W        W36760  40.050   2.743   1.911
64336W        W36761   1.298  37.397   2.890
64337W        W36762  11.754  13.301   1.240
64338W        W36763  36.029  24.587   1.273
64339W        W36764  42.402   0.426   0.762
64340W        W36765  41.012  14.309  14.405
64341W        W36766  16.580  19.273   1.786
64342W        W36767  23.115  17.280  14.027
64343W        W36768  28.077  42.811   4.775
64344W        W36769   5.933   1.869   1.300
64345W        W36770  15.132   4.766  10.577
64346W        W36771  31.406  11.743  11.462
64347W        W36772  38.499   7.295   4.837
64348W        W36773   4.711   6.221   1.386
64349W        W36774   8.728  26.541   1.775
64350W        W36775  40.478  24.495   0.896
64351W        W36776  21.676  15.797  14.940
64352W        W36777  40.378  34.120  13.406
64353W        W36778   1.340   2.450   0.899
64354W        W36779  18.584  12.798   5.189
64355W        W36780  41.006  14.282   0.404
64356W        W36781  38.057  34.913  14.449
64357W        W36782  10.765  18.140  12.441
64358W        W36783   4.369   5.435  10.462
64359W        W36784  14.795  16.284  13.524
64360W        W36785  36.000   5.829  14.514
64361W        W36786  14.599  27.479  14.401
64362W        W36787  41.833  43.010   5.307
64363W        W36788  11.255  20.719   0.929
64364W        W36789  18.252  32.133  12.374
64365W        W36790  43.859   5.747  13.836
64366W        W36791  23.653   8.309   4.670
64367W        W36792   4.866  22.706   3.859
64368W        W36793  11.741  22.659  12.839
64369W        W36794  19.554   7.275  10.942
64370W        W36795  42.936   8.338  14.875
64371W        W36796  13.634  16.118   2.781
64372W        W36797  11.650  39.444  10.898
64373W        W36798   9.785  41.428   4.691
64374W        W36799   1.854  21.589   2.382
64375W        W36800  30.071  42.296   1.820
64376W        W36801  37.076   6.416   4.286
64377W        W36802  20.622  38.474   1.749
64378W        W36803   6.368   4.394  10.582
64379W        W36804  20.065   1.256   1.898
64380W        W36805   2.852   9.708   4.795
64381W        W36806   2.236   6.910  12.010
64382W        W36807  10.281  20.736   3.235
64383W        W36808  39.518   5.739  12.534
64384W        W36809  23.580  27.119   0.267
64385W        W36810  28.458  38.403   9.529
64386W        W36811  19.166  40.961  14.973
64387W        W36812  18.606  10.819   1.866
64388W        W36813   3.937  17.130   3.219
64389W        W36814  32.632  42.481  12.431
64390W        W36815   6.903  39.897   0.909
64391W        W36816   2.782   9.833  10.595
64392W        W36817  12.792  14.302  13.507
64393W        W36818   0.749  37.489  13.849
64394W        W36819  40.850   8.347   2.867
64395W        W36820  16.204   4.363   3.187
64396W        W36821  21.254  11.335  12.089
64397W        W36822  39.531   5.921  11.451
64398W        W36823  38.435  15.608  10.894
64399W        W36824   0.493   2.926  11.606
64400W        W36825  30.059   9.283   1.396
64401W        W36826  26.039   9.251   1.358
64402W        W36827   1.344  18.247  13.807
64403W        W36828   2.356  41.958  13.398
64404W        W36829  27.530  26.144  13.795
64405W        W36830   3.771  36.075   2.888
64406W        W36831  16.639  16.575  14.837
64407W        W36832   6.754   9.767   2.330
64408W        W36833  31.933  24.128  12.944
64409W        W36834  22.228  41.845  11.586
64410W        W36835   9.366  20.172   4.700
64411W        W36836  10.875  35.496   3.160
64412W        W36837   8.745   2.725  13.385
64413W        W36838  12.324   8.780  14.873
64414W        W36839   3.750  26.052  11.560
64415W        W36840   3.312  25.153  13.315
64416W        W36841  14.166  10.862  13.923
64417W        W36842  41.901  26.683  14.322
64418W        W36843  26.151  39.363   3.649
64419W        W36844  29.578  42.839   3.269
64420W        W36845   4.401  27.632  11.944
64421W        W36846  25.111   2.348   1.709
64422W        W36847  43.322  21.183   5.788
64423W        W36848  23.122  36.438   3.822
64424W        W36849   6.280  24.022   2.842
64425W        W36850  15.798  10.266  11.073
64426W        W36851  29.059   2.425   4.304
64427W        W36852  12.213  42.866  14.978
64428W        W36853  39.430  34.040  14.978
64429W        W36854  33.052  33.068   3.751
64430W        W36855   4.818  17.210  13.489
64431W        W36856  44.915  15.619   4.807
64432W        W36857  43.861  40.819   2.286
64433W        W36858  42.915   8.857   2.307
64434W        W36859  31.024  34.499   9.967
64435W        W36860   7.901  44.281   2.875
64436W        W36861  40.901   3.805  13.036
64437W        W36862  25.147   1.735  13.910
64438W        W36863  20.199   1.910   0.343
64439W        W36864  21.194  22.065  14.860
64440W        W36865  29.001  42.821  10.611
64441W        W36866   6.802  34.050  11.438
64442W        W36867   2.840  16.601  14.008
64443W        W36868  19.137  12.812  14.026
64444W        W36869  27.198   8.220  10.937
64445W        W36870  15.315  31.898   4.783
64446W        W36871  43.456   1.939  10.120
64447W        W36872  24.150   4.209  14.401
64448W        W36873  38.945  34.564  10.956
64449W        W36874   1.378   0.450   4.612
64450W        W36875  24.124  13.118   3.711
64451W        W36876  44.826  32.454   1.366
64452W        W36877  25.135  12.691   3.248
64453W        W36878  35.415  10.686  13.824
64454W        W36879  12.123  25.487  13.457
64455W        W36880  32.475  39.322   0.827
64456W        W36881  17.654  31.938   3.212
64457W        W36882  19.142   3.913  13.819
64458W        W36883   6.268  32.910  13.442
64459W        W36884  13.130  35.455  12.876
64460W        W36885  40.453  43.972   1.395
64461W        W36886   9.245  32.915   2.760
64462W        W36887  11.678  24.147   5.275
64463W        W36888  28.169   0.750  14.454
64464W        W36889  20.628  26.966  14.948
64465W        W36890  30.438  30.034   4.332
64466W        W36891   8.235   7.820  11.477
64467W        W36892   9.284  39.880   0.296
64468W        W36893  10.310  10.304   2.282
64469W        W36894  31.068  44.999  14.352
64470W        W36895  37.348   8.898   4.664
64471W        W36896  27.947  31.624  14.341
64472W        W36897  41.476   0.800   4.771
64473W        W36898  12.212  27.585   0.731
64474W        W36899  30.078  39.472  14.339
64475W        W36900  38.984  15.137   2.370
64476W        W36901  14.723  41.903   4.768
64477W        W36902  33.545  10.847  12.479
64478W        W36903   1.954  41.345   4.185
64479W        W36904  35.861  21.664   1.737
64480W        W36905  21.230  39.053   3.631
64481W        W36906   1.881  35.017  11.073
64482W        W36907  26.542   9.390  11.580
64483W        W36908   5.835  14.753   3.318
64484W        W36909  25.673  32.405  14.511
64485W        W36910  14.764  18.251   4.777
64486W        W36911  28.092  17.300   4.724
64487W        W36912  15.584  38.366   2.747
64488W        W36913  32.551   4.386  14.933
64489W        W36914  17.279   4.425   4.740
64490W        W36915   2.346   6.699   1.718
64491W        W36916  38.550  40.390  14.940
64492W        W36917   8.834  43.398   2.392
64493W        W36918  13.645   3.290   3.857
64494W        W36919  16.808  16.185   1.263
64495W        W36920   8.371  16.108  11.430
64496W        W36921  41.936  11.206  13.481
64497W        W36922  27.064   5.782  13.797
64498W        W36923   5.394   6.387   1.251
64499W        W36924  38.929  20.210  12.460
64500W        W36925  43.776   9.385  12.496
64501W        W36926  24.707  11.184   2.882
64502W        W36927  40.971   4.723   4.599
64503W        W36928  30.928  23.996   2.353
64504W        W36929  36.424   8.660   1.843
64505W        W36930   9.648  37.008  14.951
64506W        W36931  14.711  28.084   2.896
64507W        W36932  20.203  10.166  14.415
64508W        W36933  24.521  30.610  10.132
64509W        W36934  10.840  13.684   2.829
64510W        W36935  31.421  11.190   3.297
64511W        W36936  41.830  10.287  14.759
64512W        W36937   1.325  31.953   3.191
64513W        W36938  29.559   7.196  12.914
64514W        W36939  39.330  25.701  12.556
64515W        W36940  11.168  27.663   4.191
64516W        W36941  15.088  43.279   3.805
64517W        W36942  24.586   1.440   2.389
64518W        W36943  26.558  36.074   1.933
64519W        W36944  36.581  14.637   2.881
64520W        W36945  26.625   6.701   2.873
64521W        W36946  15.222  35.415  10.588
64522W        W36947  21.075  40.404   0.753
64523W        W36948   3.881  12.632   3.707
64524W        W36949  19.580  31.459   3.326
64525W        W36950   2.387  26.595  14.462
64526W        W36951  22.685  40.859   4.794
64527W        W36952  20.572   6.292  11.990
64528W        W36953  36.499  32.022  10.906
64529W        W36954  29.595  16.107   1.732
64530W        W36955   4.425  17.744   1.315
64531W        W36956  31.989  10.180  13.021
64532W        W36957  15.189  34.904  13.029
64533W        W36958  10.812  40.370   3.646
64534W        W36959   5.227  27.107  12.986
64535W        W36960  17.697  19.069  13.866
64536W        W36961   6.915  17.287   3.349
64537W        W36962  10.145  26.513   0.958
64538W        W36963   5.331   0.762  14.835
64539W        W36964   7.322   9.645  12.550
64540W        W36965   8.801  44.456  13.499
64541W        W36966  40.953   9.216  13.315
64542W        W36967  30.440   2.304   0.421
64543W        W36968  42.331  29.158   4.171
64544W        W36969  43.339   0.289   4.727
64545W        W36970   4.356  38.556   0.789
64546W        W36971  11.814   2.820  12.878
64547W        W36972  22.696  30.549   3.838
64548W        W36973  38.534   3.938   2.305
64549W        W36974  44.918  40.317  13.474
64550W        W36975   1.357  22.025   0.353
64551W        W36976  18.066  11.331  13.520
64552W        W36977  34.559  27.546   4.692
64553W        W36978  14.744  16.713   2.842
64554W        W36979  17.188  40.034  10.977
64555W        W36980  26.126  39.043   2.200
64556W        W36981  43.981  12.802   0.282
64557W        W36982   5.292  20.627   0.795
64558W        W36983  43.497  29.094  10.946
64559W        W36984  34.986  41.404  13.468
64560W        W36985  21.603   6.368   2.669
64561W        W36986  32.525  18.615  11.886
64562W        W36987  26.461   8.787   4.635
64563W        W36988  13.734  28.971  13.822
64564W        W36989  41.532  25.090   2.685
64565W        W36990  23.209  15.107   2.768
64566W        W36991   6.848  34.542   2.711
64567W        W36992  40.849   0.293  14.503
64568W        W36993  11.308  22.180  13.025
64569W        W36994   0.905  44.296   1.791
64570W        W36995  18.241  28.080   1.261
64571W        W36996  16.582   6.271   1.239
64572W        W36997   2.822  10.167   2.717
64573W        W36998   4.714  34.451   1.717
64574W        W36999  34.028  35.924  13.017
64575W        W37000   8.786  43.827  11.475
64576W        W37001  24.993  12.792  11.910
64577W        W37002  16.261  26.601   3.206
64578W        W37003  41.002  31.639   1.731
64579W        W37004   8.733  30.921   3.843
64580W        W37005  17.645  40.364  13.535
64581W        W37006  42.987  17.613   1.336
64582W        W37007  24.064  17.283   3.655
64583W        W37008  13.662  20.616   2.328
64584W        W37009  42.421   9.802   2.307
64585W        W37010  17.795  28.044  13.484
64586W        W37011   6.692  11.625  11.392
64587W        W37012   7.412  28.631  14.493
64588W        W37013  12.767  33.548  12.436
64589W        W37014  16.776  44.857  14.482
64590W        W37015  35.948   4.228   2.757
64591W        W37016  16.125  25.481  12.056
64592W        W37017  37.982   7.185  10.107
64593W        W37018   6.355  19.135  11.045
64594W        W37019  15.634  32.404   4.173
64595W        W37020   6.798   9.288  13.512
64596W        W37021  38.946  17.070   1.724
64597W        W37022   9.717  32.557  12.372
64598W        W37023  26.633  14.632  10.568
64599W        W37024  28.530  41.447   3.328
64600W        W37025  14.807  14.596  11.469
64601W        W37026   5.835   1.812   1.862
64602W        W37027   4.332  26.670  10.457
64603W        W37028  26.109  26.574  13.482
64604W        W37029  43.513  18.656   1.439
64605W        W37030   0.335  24.493   4.759
64606W        W37031  39.443   3.315  11.590
64607W        W37032  30.544  42.301   1.751
64608W        W37033  26.575  26.523   4.219
64609W        W37034  28.488  38.412   1.432
64610W        W37035   6.812  23.019   4.165
64611W        W37036  37.843   7.887  10.581
64612W        W37037  38.441  23.211  12.021
64613W        W37038  27.137  44.280   4.249
64614W        W37039  36.505  33.875  12.929
64615W        W37040  13.761   3.725  10.069
64616W        W37041  42.792  44.500  12.002
64617W        W37042   9.812  21.178   2.791
64618W        W37043  30.488  24.228  11.407
64619W        W37044  32.553  25.603  11.507
64620W        W37045   5.900  30.475  11.579
64621W        W37046  44.833   3.321   3.162
64622W        W37047   2.895  12.842  10.631
64623W        W37048  12.196   9.163   1.394
64624W        W37049  29.097  15.135  10.536
64625W        W37050  17.617  15.257   4.150
64626W        W37051   1.777  15.582  10.594
64627W        W37052  12.284  35.430  10.434
64628W        W37053   5.691  11.298  11.427
64629W        W37054  23.544  22.062  10.978
64630W        W37055  15.197  27.993   4.165
64631W        W37056  21.057  27.065  11.011
64632W        W37057   7.197  36.371   0.253
64633W        W37058  36.927   6.915   9.672
64634W        W37059  27.012  21.066   9.996
64635W        W37060  30.526  34.116  14.931
64636W        W37061   6.681  10.238   0.311
64637W        W37062  44.490   9.379   3.662
64638W        W37063  14.287  20.261   1.737
64639W        W37064  31.584  41.008   3.785
64640W        W37065  34.434  23.233  10.488
64641W        W37066  43.483   5.810   1.699
64642W        W37067  21.220  15.590   4.270
64643W        W37068  20.574   6.795  13.472
64644W        W37069  31.435  32.076   3.855
64645W        W37070  33.935  14.194   3.719
64646W        W37071   4.848  34.035   5.305
64647W        W37072  41.333  33.552   3.368
64648W        W37073   0.769  15.716   3.759
64649W        W37074  18.294  14.111  13.835
64650W        W37075  24.664  16.566   4.291
64651W        W37076  28.130  32.562  12.414
64652W        W37077  38.496   4.347   1.261
64653W        W37078  16.300  38.838  10.519
64654W        W37079  35.965  31.948   2.813
64655W        W37080  15.646  31.464  12.512
64656W        W37081  18.730  15.589  12.000
64657W        W37082  22.031  43.388  10.526
64658W        W37083  28.967  28.930  10.966
64659W        W37084  13.745   2.771  14.488
64660W        W37085  18.760  30.962   1.786
64661W        W37086  19.165  39.005   1.750
64662W        W37087   6.396  12.135  13.454
64663W        W37088  27.637  39.969   1.887
64664W        W37089  34.485  31.561   2.682
64665W        W37090  15.108  28.470  11.018
64666W        W37091  34.029   1.355  11.491
64667W        W37092   1.412  32.937   3.322
64668W        W37093  21.144  28.977  14.770
64669W        W37094   5.902  14.302  10.602
64670W        W37095  10.664  30.516   5.146
64671W        W37096  25.982  29.133   2.182
64672W        W37097  34.899  34.896  10.497
64673W        W37098  14.627  18.141   0.795
64674W        W37099   8.689  27.626  10.443
64675W        W37100  19.771  16.198  11.975
64676W        W37101  15.592  39.532  10.626
64677W        W37102  27.580  24.554  14.902
64678W        W37103   2.260  24.604   3.270
64679W        W37104   3.245  18.051   4.632
64680W        W37105  24.558   2.862   0.739
64681W        W37106  26.479  36.448  12.088
64682W        W37107  39.430  33.410  14.283
64683W        W37108  39.872  39.520  14.817
64684W        W37109   4.862  14.649   4.205
64685W        W37110  15.788   1.874   2.215
64686W        W37111   8.694   2.246   2.228
64687W        W37112  26.167  23.535   3.731
64688W        W37113   4.909  30.439   4.278
64689W        W37114  35.081  28.024  10.069
64690W        W37115  11.326  25.515  11.037
64691W        W37116  20.563  26.496   3.869
64692W        W37117   5.699  20.113   1.777
64693W        W37118   8.817  37.400  11.508
64694W        W37119  16.687  13.311  12.853
64695W        W37120  44.416  40.332   5.106
64696W        W37121  37.948   2.765  14.397
64697W        W37122  14.744  22.024   4.142
64698W        W37123  10.335  13.255   2.778
64699W        W37124   8.882   9.856   1.829
64700W        W37125  23.994   5.373  11.094
64701W        W37126   5.278  15.783   4.124
64702W        W37127  27.040  38.425  12.492
64703W        W37128  36.506  26.968   0.275
64704W        W37129   5.932  16.144  13.392
64705W        W37130  11.775  41.847   3.693
64706W        W37131   5.846  35.545  14.958
64707W        W37132  18.052  34.072   5.130
64708W        W37133  30.468  42.931  12.870
64709W        W37134   7.812  14.178  10.633
64710W        W37135   8.877  12.813  13.819
64711W        W37136  24.150  20.590   4.661
64712W        W37137  12.732   9.231  12.074
64713W        W37138  30.911  15.601  12.516
64714W        W37139  11.859  30.915   3.861
64715W        W37140  12.634  18.675   3.811
64716W        W37141  41.880  37.508  11.117
64717W        W37142  25.585  44.905   4.290
64718W        W37143  26.670  17.231   0.302
64719W        W37144  31.497  22.164  11.942
64720W        W37145  22.046   2.752   3.191
64721W        W37146  14.601   1.272   2.343
64722W        W37147   0.818  12.668  12.407
64723W        W37148  41.403  29.059  12.938
64724W        W37149  32.083  20.531   0.333
64725W        W37150  38.491  36.888  13.826
64726W        W37151  36.875  39.909  13.319
64727W        W37152  14.682  35.926  14.391
64728W        W37153  30.514   6.202   4.211
64729W        W37154  25.696  41.903  10.418
64730W        W37155  35.922  33.586   0.459
64731W        W37156  33.620  23.615   0.804
64732W        W37157  26.133  26.460  14.311
64733W        W37158  30.613   3.919   4.316
64734W        W37159  31.961  18.204  14.783
64735W        W37160  42.332   0.954  14.344
64736W        W37161  18.752  44.915  10.488
64737W        W37162  38.379   8.280   5.576
64738W        W37163   6.183  37.050   2.693
64739W        W37164  27.103  42.292  11.394
64740W        W37165  37.461  15.709   1.420
64741W        W37166  42.303  18.735  13.325
64742W        W37167  18.174  30.943   4.633
64743W        W37168   0.379  34.599   1.360
64744W        W37169   6.690   4.920  12.554
64745W        W37170   5.298  22.170   0.328
64746W        W37171  23.635  18.292   3.771
64747W        W37172  26.038  34.545  13.335
64748W        W37173  16.125  16.735   4.186
64749W        W37174  12.643  16.148  13.319
64750W        W37175  30.589  38.401  11.920
64751W        W37176  41.819  38.869  14.495
64752W        W37177  19.087  11.653  11.003
64753W        W37178   4.909  41.890   0.791
64754W        W37179  17.796  17.741   1.776
64755W        W37180  22.727   5.697  14.509
64756W        W37181  30.513  33.877  11.951
64757W        W37182  18.223  10.221  13.544
64758W        W37183  10.334  40.927   3.669
64759W        W37184  35.513  41.973  11.036
64760W        W37185   3.851  42.477   2.796
64761W        W37186  18.155  34.111  13.996
64762W        W37187  35.935  15.284  12.407
64763W        W37188  32.957  17.166   4.156
64764W        W37189  14.827  27.461  11.904
64765W        W37190  33.543  21.111  14.761
64766W        W37191  26.492  30.988   4.818
64767W        W37192  11.166  21.624  12.482
64768W        W37193  20.066   6.784  14.401
64769W        W37194  39.411  35.360   2.751
64770W        W37195  24.687  38.536   4.780
64771W        W37196  15.691   8.794  13.878
64772W        W37197  36.018  18.621   0.859
64773W        W37198  22.060  24.033   4.634
64774W        W37199  42.968  28.438  11.970
64775W        W37200   0.899  33.565   2.302
64776W        W37201   5.889  23.189  12.980
64777W        W37202  24.016  30.543   1.315
64778W        W37203  14.682  23.637   5.147
64779W        W37204  10.156   0.445  12.832
64780W        W37205  25.154  26.640   0.846
64781W        W37206  30.038   5.230  12.569
64782W        W37207  33.918  38.449  11.956
64783W        W37208   3.933  30.480   0.459
64784W        W37209   6.897  26.541   1.362
64785W        W37210  19.203  10.375  14.873
64786W        W37211  34.051  31.132   0.423
64787W        W37212   2.307  30.957   3.305
64788W        W37213  23.490  25.977  13.967
64789W        W37214  32.052  22.024  12.486
64790W        W37215  34.949  21.099  13.370
64791W        W37216   5.227  12.149  14.400
64792W        W37217  42.817   7.810  12.536
64793W        W37218  14.790  37.957   3.744
64794W        W37219  25.559   5.828  10.503
64795W        W37220  37.913  43.344   2.876
64796W        W37221   4.822  38.508   1.843
64797W        W37222  20.628   4.713  13.489
64798W        W37223  12.298  16.624  11.984
64799W        W37224  29.955   6.382   4.289
64800W        W37225  13.717  35.082   3.216
64801W        W37226  37.428   3.868   4.133
64802W        W37227  36.000  31.504  14.781
64803W        W37228  28.026   0.322  13.882
64804W        W37229  40.388  22.082  13.997
64805W        W37230  21.082  28.038   5.165
64806W        W37231  24.710   9.783  11.501
64807W        W37232  24.984   3.896  10.941
64808W        W37233  22.237  33.388  10.415
64809W        W37234  36.399   1.761   4.624
64810W        W37235  23.042  30.570   1.239
64811W        W37236  15.755  19.091  14.950
64812W        W37237  36.545  12.716  13.483
64813W        W37238  29.135  26.135   2.828
64814W        W37239   0.393  11.211  13.430
64815W        W37240  16.207  17.623  14.450
64816W        W37241  31.579  34.110  11.983
64817W        W37242   9.741  10.184   0.807
64818W        W37243  28.997  34.517  13.820
64819W        W37244  29.132  25.668  13.493
64820W        W37245   7.827  36.380   3.185
64821W        W37246  16.797   6.767  10.594
64822W        W37247  26.189   6.723  12.995
64823W        W37248  35.538   7.834   4.763
64824W        W37249  12.150  42.463   0.471
64825W        W37250  11.701   5.379   3.262
64826W        W37251   3.361  15.689  12.943
64827W        W37252  11.715  29.165   3.247
64828W        W37253  42.812  23.713  13.063
64829W        W37254   8.347  39.325   4.601
64830W        W37255   1.292  22.609  11.952
64831W        W37256  39.315  34.080   1.361
64832W        W37257  36.510  32.636  12.974
64833W        W37258   6.288   1.247   1.774
64834W        W37259  21.536   2.901   2.724
64835W        W37260  16.638  27.597  11.073
64836W        W37261   4.738  19.263  13.056
64837W        W37262  22.136  40.018   1.424
64838W        W37263  32.527  43.316   2.294
64839W        W37264  15.644  24.660  13.898
64840W        W37265  13.181  16.773   0.855
64841W        W37266  14.171  30.947  10.446
64842W        W37267  13.696   2.300   1.293
64843W        W37268  23.677   7.341   2.204
64844W        W37269  25.559   2.404   3.747
64845W        W37270  10.357  44.881   0.759
64846W        W37271   3.927  12.290   2.738
64847W        W37272  42.905  22.066  10.493
64848W        W37273   1.750  44.807  12.924
64849W        W37274  11.841  15.162   4.155
64850W        W37275  30.600  23.558  11.519
64851W        W37276  15.148  32.955   1.784
64852W        W37277  22.232  39.543  12.894
64853W        W37278  30.593  34.952   3.743
64854W        W37279   3.781  35.927  13.057
64855W        W37280  15.761  42.305  10.568
64856W        W37281  23.694   7.904   0.914
64857W        W37282  25.495  25.141   0.402
64858W        W37283  24.044  40.356  10.946
64859W        W37284  13.765  30.112   4.215
64860W        W37285   1.460  20.247   3.717
64861W        W37286  43.831   9.865  10.626
64862W        W37287  37.522   8.239  13.480
64863W        W37288  13.262  31.631   3.682
64864W        W37289  21.668  37.844   2.855
64865W        W37290   8.189  13.261   2.824
64866W        W37291   6.908  14.830  11.469
64867W        W37292  43.438  32.525  11.001
64868W        W37293  33.534  26.677  13.986
64869W        W37294  41.824   1.782  11.610
64870W        W37295  16.293  35.577   4.269
64871W        W37296  17.228  25.130   2.385
64872W        W37297  17.120  38.879   4.599
64873W        W37298   3.427   8.724   4.651
64874W        W37299  36.428  25.211   0.782
64875W        W37300  20.184  42.467   4.198
64876W        W37301  44.281  12.856  14.009
64877W        W37302   1.956  31.114  14.837
64878W        W37303  39.393  25.471   4.673
64879W        W37304   0.914  30.048   2.851
64880W        W37305  13.628   7.202   3.756
64881W        W37306  42.927  29.513  12.572
64882W        W37307  40.919  11.350   0.246
64883W        W37308  15.800  44.821   3.734
64884W        W37309   7.373  41.520   1.746
64885W        W37310  35.981   6.796  13.323
64886W        W37311  31.438  38.404  14.789
64887W        W37312  42.906  25.692   0.377
64888W        W37313   6.708   9.652  13.511
64889W        W37314  12.652  43.313  12.910
64890W        W37315  18.594  40.028  14.818
64891W        W37316  30.046  40.829  14.978
64892W        W37317  24.532  34.393   3.657
64893W        W37318  39.478   3.321   3.817
64894W        W37319  33.879  24.542   1.427
64895W        W37320   8.788  19.724  11.059
64896W        W37321  17.664  18.265  10.930
64897W        W37322   3.451  41.297   0.471
64898W        W37323  17.280  24.615  13.966
64899W        W37324   5.321  14.153  11.570
64900W        W37325  35.479  37.497   1.730
64901W        W37326  32.477  18.584   2.773
64902W        W37327  20.616   0.341  12.927
64903W        W37328  17.163  37.374   3.794
64904W        W37329   9.247  29.440  10.632
64905W        W37330  20.253  44.493  14.807
64906W        W37331   3.219  29.106  13.511
64907W        W37332  27.114  30.482   4.325
64908W        W37333  32.572   8.890   4.801
64909W        W37334  30.076   5.405  14.839
64910W        W37335  43.438   7.679  11.601
64911W        W37336  41.932  31.528  11.562
64912W        W37337  35.583   1.368  13.396
64913W        W37338  41.960  20.103   4.171
64914W        W37339  17.282  43.899  13.880
64915W        W37340  35.001   9.335  13.469
64916W        W37341  10.270  32.471  10.920
64917W        W37342   2.387  17.589  12.382
64918W        W37343  12.287  24.640  13.387
64919W        W37344   5.888  14.286   4.259
64920W        W37345  31.045  31.976  12.070
64921W        W37346  29.927  38.328   2.253
64922W        W37347  41.418  21.674  10.146
64923W        W37348  19.109   9.239   0.317
64924W        W37349  19.594  29.955   0.885
64925W        W37350  31.634  28.999   1.448
64926W        W37351   0.470  26.653   2.297
64927W        W37352  35.087  34.586  11.595
64928W        W37353  23.003  33.531   2.317
64929W        W37354   0.790  23.729   4.620
64930W        W37355  24.713   5.918   1.871
64931W        W37356  44.858   9.714   1.721
64932W        W37357  40.941  20.747  13.527
64933W        W37358  12.626  41.500  11.123
64934W        W37359   6.253  24.124   3.330
64935W        W37360  43.874   7.869  10.434
64936W        W37361  36.526  30.054  14.916
64937W        W37362  22.198   1.964   2.283
64938W        W37363  29.047  43.353  10.953
64939W        W37364  21.092   6.787  13.802
64940W        W37365  18.052  40.477  14.356
64941W        W37366  16.771   1.846   1.307
64942W        W37367  43.932  23.668   1.876
64943W        W37368  13.611   8.860   0.378
64944W        W37369   5.924  35.994  11.055
64945W        W37370  13.244  30.451  14.921
64946W        W37371  16.186  40.303  14.440
64947W        W37372   7.874   1.824   2.824
64948W        W37373  36.494  10.325   2.789
64949W        W37374   1.448  10.376  11.445
64950W        W37375  34.939   6.236  14.883
64951W        W37376   5.294   5.267  11.875
64952W        W37377  16.283  17.300  10.630
64953W        W37378  33.073  22.057   0.319
64954W        W37379  28.999  39.058  12.980
64955W        W37380  17.713  35.580  11.447
64956W        W37381   7.204  20.160  10.959
64957W        W37382  39.039   1.390   2.721
64958W        W37383  35.862  19.645   0.870
64959W        W37384   6.694   6.368  14.759
64960W        W37385  39.488  34.867   1.742
64961W        W37386  28.976  44.785   4.288
64962W        W37387  24.022  28.621   2.212
64963W        W37388  12.793  20.069   0.339
64964W        W37389  15.764   4.716  10.548
64965W        W37390  29.596  36.892  11.052
64966W        W37391   6.341   3.857   2.207
64967W        W37392  12.281  39.900   3.743
64968W        W37393  20.175  17.254   3.210
64969W        W37394  16.112  27.996   2.283
64970W        W37395   9.807  11.244  13.966
64971W        W37396  12.768  44.936  14.788
64972W        W37397  38.368  20.677  12.926
64973W        W37398   8.688  38.544   4.278
64974W        W37399   7.382   3.879  12.946
64975W        W37400  36.422  41.971  12.825
64976W        W37401  24.015  23.625  12.063
64977W        W37402  16.222  24.194  12.086
64978W        W37403  37.959  25.502   3.769
64979W        W37404  35.037  27.655   0.298
64980W        W37405  43.012  32.927  12.437
64981W        W37406  10.744  26.098   3.368
64982W        W37407   1.932  17.119   1.786
64983W        W37408  41.408  22.120  10.450
64984W        W37409  43.825  11.205  11.040
64985W        W37410  21.134   8.715  11.415
64986W        W37411  23.637   9.380   3.804
64987W        W37412  41.787  36.396  11.067
64988W        W37413   6.736  13.246  13.872
64989W        W37414  43.871   3.319  12.433
64990W        W37415  14.271  34.467  14.449
64991W        W37416  10.200  27.651  14.416
64992W        W37417  23.698  34.921   2.366
64993W        W37418  33.388  19.278  11.406
64994W        W37419  41.308   3.800  13.842
64995W        W37420  39.506  16.100  13.382
64996W        W37421  14.791  21.523  14.294
64997W        W37422  25.993  32.403   1.339
64998W        W37423   5.269  12.803   3.205
64999W        W37424   3.842  25.577  11.486
65000W        W37425  30.127   9.850   3.841
65001W        W37426  15.230   8.181   3.758
65002W        W37427  32.092  30.484  14.961
65003W        W37428  33.908   4.409   0.381
65004W        W37429  21.217  14.698   4.123
65005W        W37430  21.545  31.137  10.915
65006W        W37431  25.122  44.009  11.043
65007W        W37432  21.263  12.611   2.742
65008W        W37433  15.666   7.719   0.911
65009W        W37434  41.915   2.866   0.347
65010W        W37435   1.875   0.759  13.824
65011W        W37436  35.418   7.698  10.636
65012W        W37437  38.378  28.509  10.643
65013W        W37438   9.294  11.312  10.502
65014W        W37439  38.435  19.580  12.559
65015W        W37440   0.457  32.555   1.716
65016W        W37441  26.081  34.595  14.370
65017W        W37442  44.410  29.644  13.003
65018W        W37443  22.166  15.161   4.702
65019W        W37444  15.312   5.232  13.860
65020W        W37445  31.599  41.431  13.005
65021W        W37446  38.885  41.523  11.450
65022W        W37447  23.681  35.426   1.327
65023W        W37448  37.849  11.147  10.565
65024W        W37449  25.194   9.686  11.541
65025W        W37450  26.545  24.162   0.930
65026W        W37451  21.611  18.747  10.603
65027W        W37452  26.499  23.205   3.808
65028W        W37453  17.638  37.546   4.832
65029W        W37454  36.935  10.821  12.391
65030W        W37455  39.021  23.084   0.434
65031W        W37456  21.179  22.657  12.921
65032W        W37457  22.250  22.242   0.407
65033W        W37458  40.970   1.452  14.481
65034W        W37459  17.087  39.453   4.751
65035W        W37460  20.247  36.371   2.752
65036W        W37461  25.036   5.292  11.885
65037W        W37462  44.453  37.911  13.544
65038W        W37463  31.117  41.015  14.894
65039W        W37464  13.837   0.755   0.306
65040W        W37465  10.804   5.756   2.737
65041W        W37466  24.080   7.323  13.491
65042W        W37467  33.902  28.110  13.908
65043W        W37468  40.304   6.205   9.972
65044W        W37469   2.237  10.267   3.191
65045W        W37470   0.931  11.254   0.366
65046W        W37471  39.004  44.343   3.773
65047W        W37472  18.677  15.207   1.365
65048W        W37473   6.242  30.931  10.909
65049W        W37474  29.957  22.545  11.068
65050W        W37475  33.425  25.479  14.848
65051W        W37476  34.369  41.948  14.861
65052W        W37477  10.330  44.461  10.530
65053W        W37478  34.119  41.928   3.831
65054W        W37479  14.158  13.110  12.368
65055W        W37480  27.469  38.453   3.240
65056W        W37481  43.004  20.746  13.008
65057W        W37482  31.421  32.512  11.043
65058W        W37483   6.713  15.238  12.399
65059W        W37484   5.784  23.531  11.008
65060W        W37485   0.479  43.768  10.550
65061W        W37486  44.908  40.015  14.836
65062W        W37487   6.848  14.750  12.528
65063W        W37488  30.427   5.840   4.144
65064W        W37489  39.005  16.148  13.317
65065W        W37490   9.656  20.244  13.386
65066W        W37491   1.959  32.032  11.906
65067W        W37492  20.682   6.410   3.174
65068W        W37493  25.539  35.980  14.317
65069W        W37494  36.047  20.089   4.662
65070W        W37495  19.177  39.859  14.472
65071W        W37496  12.281  19.615   1.396
65072W        W37497  11.266  15.124  14.796
65073W        W37498   7.303  15.819   2.282
65074W        W37499   9.756  38.426   0.782
65075W        W37500  40.849  36.994  12.442
65076W        W37501  19.049  21.030   3.254
65077W        W37502  39.904   9.715   0.405
65078W        W37503  27.519  14.802  11.415
65079W        W37504   9.826  31.088  13.535
65080W        W37505  13.123  30.628   0.446
65081W        W37506  44.324  16.075   3.175
65082W        W37507  18.760  33.604   3.856
65083W        W37508  17.278  31.553  12.373
65084W        W37509  11.138  23.987  10.945
65085W        W37510  34.965   7.199   4.134
65086W        W37511  25.089  39.502   4.810
65087W        W37512   0.484  40.032  12.425
65088W        W37513  12.809  21.594   5.120
65089W        W37514  23.528   8.677   4.808
65090W        W37515  27.103  39.005   4.613
65091W        W37516  29.567   0.892   3.339
65092W        W37517  16.589   2.951  13.520
65093W        W37518  36.391  18.724  11.609
65094W        W37519  14.255  29.990   4.201
65095W        W37520  17.800  30.017  12.046
65096W        W37521  20.762  27.011  13.516
65097W        W37522  25.129  41.031   4.125
65098W        W37523  13.283  22.532   1.397
65099W        W37524  34.511  19.675  13.340
65100W        W37525   8.366  15.197  12.076
65101W        W37526  18.631  40.835   0.308
65102W        W37527  30.622  13.751  14.854
65103W        W37528  21.726  26.033  12.443
65104W        W37529  40.340  39.915   2.745
65105W        W37530   0.427  35.379   4.226
65106W        W37531  28.518  43.395  14.768
65107W        W37532  20.682  33.959   3.384
65108W        W37533   8.667  26.200   3.262
65109W        W37534  23.114  38.343  12.927
65110W        W37535  39.008  42.824  10.988
65111W        W37536   2.821  29.979  12.354
65112W        W37537   4.747   9.746  12.492
65113W        W37538  16.598  31.540   2.684
65114W        W37539   6.750  35.570  13.939
65115W        W37540  21.752  29.074   2.187
65116W        W37541  17.641   0.923   0.340
65117W        W37542  35.415  10.227  10.606
65118W        W37543  38.955   6.209   0.374
65119W        W37544   2.908   6.260  11.931
65120W        W37545  36.872  32.922  12.951
65121W        W37546  11.766   7.877   4.126
65122W        W37547  34.383  26.499  14.905
65123W        W37548  17.166  41.412  13.887
65124W        W37549  20.250  17.606  10.540
65125W        W37550  37.490  10.316  14.872
65126W        W37551  22.727   1.362   1.833
65127W        W37552  39.042  39.815  13.923
65128W        W37553  26.048   1.327  10.463
65129W        W37554  41.951  38.570   1.325
65130W        W37555   5.725  18.585   1.405
65131W        W37556  26.650  19.597  14.346
65132W        W37557  34.518  39.484   1.826
65133W        W37558   1.734   1.859  13.889
65134W        W37559  19.649   8.176   2.815
65135W        W37560  15.633  22.538  13.052
65136W        W37561  16.690  43.479  13.519
65137W        W37562   4.314  21.137   4.155
65138W        W37563   8.259  34.528   3.266
65139W        W37564  28.104  10.239   2.775
65140W        W37565  35.083  10.288   5.255
65141W        W37566  28.046  35.082   1.382
65142W        W37567  22.092  26.147  12.918
65143W        W37568  29.508  30.044   0.949
65144W        W37569   2.823   2.955   4.187
65145W        W37570   8.291  35.487  14.989
65146W        W37571  43.426  36.098   2.880
65147W        W37572  44.276  17.648  14.457
65148W        W37573  10.848  28.511   4.703
65149W        W37574  32.994   3.930   1.737
65150W        W37575  19.144   0.959  14.018
65151W        W37576  31.498  39.443   5.612
65152W        W37577  34.555   0.903   1.712
65153W        W37578  27.179  35.604  10.993
65154W        W37579  33.543  20.065  12.545
65155W        W37580  25.494   2.796  11.117
65156W        W37581  26.609  28.681   0.359
65157W        W37582   6.856  26.636   2.275
65158W        W37583  22.563  37.027  12.381
65159W        W37584   9.862   9.745   1.389
65160W        W37585  32.617  29.435   4.175
65161W        W37586  12.618  20.619  12.863
65162W        W37587  42.364  13.821  13.872
65163W        W37588  37.042  35.554   2.397
65164W        W37589  14.176  13.219  11.043
65165W        W37590  14.772  25.984   2.742
65166W        W37591  22.624  28.097   3.867
65167W        W37592  11.850   2.772   0.253
65168W        W37593  35.100  30.658   4.115
65169W        W37594  14.833  14.316   1.758
65170W        W37595  17.713  27.122   1.232
65171W        W37596  37.403  22.700   5.195
65172W        W37597  10.220  19.764   4.657
65173W        W37598  28.108  26.034   1.714
65174W        W37599  11.781  31.014   4.248
65175W        W37600  32.049  14.652   3.645
65176W        W37601  44.421   6.229   5.280
65177W        W37602  16.274   4.312   0.412
65178W        W37603   1.959  30.512  10.538
65179W        W37604  22.031  12.316  13.885
65180W        W37605   9.272  38.889   2.212
65181W        W37606   9.315  36.061  11.987
65182W        W37607   6.746   8.287  14.953
65183W        W37608   0.877  21.094   4.816
65184W        W37609  18.132   2.865   4.147
65185W        W37610  30.028   4.880  10.983
65186W        W37611  40.513  30.543  14.944
65187W        W37612  16.568  13.264  10.553
65188W        W37613  10.806  15.090  14.447
65189W        W37614  41.470  37.033  12.455
65190W        W37615  27.608  27.026  10.510
65191W        W37616  21.746  30.430   0.310
65192W        W37617   6.758  29.039  14.884
65193W        W37618  15.295  44.364  12.906
65194W        W37619  25.968  42.895   0.407
65195W        W37620  18.570  31.962   0.349
65196W        W37621  31.586   6.194   3.684
65197W        W37622  13.705  19.091  13.935
65198W        W37623  33.456  41.397   2.767
65199W        W37624  24.149  33.530  13.469
65200W        W37625  36.056  20.189   1.287
65201W        W37626   3.448  19.206  12.343
65202W        W37627   9.338  39.054  13.501
65203W        W37628  36.377  23.007  10.624
65204W        W37629  43.768  28.982   0.891
65205W        W37630  13.277   4.238   2.377
65206W        W37631  12.274  24.013   3.257
65207W        W37632   5.420  30.024   3.219
65208W        W37633  42.027  36.897  10.963
65209W        W37634  34.044   7.324  13.526
65210W        W37635  31.596   3.260   2.877
65211W        W37636   9.325  36.861   0.291
65212W        W37637  31.054   1.375   0.734
65213W        W37638  37.512  31.111  14.334
65214W        W37639  17.647  17.301   2.272
65215W        W37640  34.488  44.984  13.845
65216W        W37641  18.763   6.265  11.391
65217W        W37642  15.106   3.444   1.351
65218W        W37643  18.228  24.202   4.295
65219W        W37644  44.800  20.082  12.519
65220W        W37645  30.130  34.583   2.397
65221W        W37646   4.398  28.093   2.313
65222W        W37647  40.969  18.785  12.881
65223W        W37648  10.811  13.768   4.684
65224W        W37649  43.481  13.138  14.502
65225W        W37650  43.384  28.564  13.894
65226W        W37651   8.249  44.395  11.584
65227W        W37652  40.927  27.540   0.469
65228W        W37653  12.239  11.803   4.331
65229W        W37654  36.995  28.082  12.580
65230W        W37655  15.695   1.442  14.411
65231W        W37656   7.217  12.328   2.873
65232W        W37657  35.409   0.881  13.996
65233W        W37658   6.711  14.621   1.279
65234W        W37659  19.140  11.629  13.429
65235W        W37660  33.383  21.721  11.968
65236W        W37661   7.731  25.494   4.795
65237W        W37662  27.987  27.106  12.096
65238W        W37663  13.213  23.547  11.070
65239W        W37664  42.436   1.323   2.810
65240W        W37665   5.341   9.872   0.915
65241W        W37666   7.354  12.302  12.348
65242W        W37667  44.262  35.923  14.498
65243W        W37668  26.142  28.051  11.427
65244W        W37669   7.687  32.971   2.732
65245W        W37670  20.238  24.564  10.428
65246W        W37671   9.763  10.333  14.799
65247W        W37672  27.674  27.042   2.800
65248W        W37673   3.890  28.539   3.308
65249W        W37674  44.866  15.672  13.048
65250W        W37675  39.858  37.953  10.441
65251W        W37676  15.755   9.252  14.336
65252W        W37677  37.535  23.171  13.952
65253W        W37678  42.505  35.020   0.334
65254W        W37679  10.367   2.943  11.093
65255W        W37680   3.765  20.079   4.263
65256W        W37681   0.894  37.530   0.960
65257W        W37682  17.641  41.931   1.337
65258W        W37683  35.589  26.606  10.931
65259W        W37684  14.290  44.944   4.695
65260W        W37685   7.264   6.304   1.220
65261W        W37686   9.302  26.498   2.731
65262W        W37687  34.512  29.087   0.375
65263W        W37688   7.294  24.612   3.228
65264W        W37689  33.931  20.696   2.832
65265W        W37690  22.055   5.420   3.672
65266W        W37691  29.662  37.517   5.283
65267W        W37692   6.715  31.112   0.802
65268W        W37693  15.610  26.526   1.310
65269W        W37694  44.410  23.181   1.774
65270W        W37695   9.827  13.619  13.922
65271W        W37696  12.815   5.322   1.437
65272W        W37697   9.383  10.248  13.432
65273W        W37698  34.574  34.021  11.403
65274W        W37699   1.780   4.860  12.468
65275W        W37700  12.141  18.164   4.698
65276W        W37701  41.808  26.684  11.550
65277W        W37702   5.273  29.588   3.367
65278W        W37703  16.119  30.610   5.139
65279W        W37704   8.258  27.607   1.268
65280W        W37705   3.319  16.597  14.427
65281W        W37706  26.132  11.758  14.834
65282W        W37707  29.971   1.314  10.562
65283W        W37708   5.345  42.923   0.274
65284W        W37709  34.463  38.061  13.426
65285W        W37710  18.733   1.459   2.751
65286W        W37711   1.856  30.930  13.420
65287W        W37712  32.935  25.558  11.105
65288W        W37713   0.980  42.787  10.122
65289W        W37714  12.663  18.762  13.957
65290W        W37715  35.085  35.407  13.793
65291W        W37716  41.414  22.040  11.400
65292W        W37717  38.383  29.127   3.760
65293W        W37718  29.612  14.316   1.407
65294W        W37719  12.746  21.158  13.049
65295W        W37720  44.787  42.859   3.169
65296W        W37721  23.500   6.837  14.995
65297W        W37722  29.115   5.931   3.283
65298W        W37723   9.380  23.616   4.133
65299W        W37724   1.260  32.625   4.211
65300W        W37725   4.800  20.686   0.868
65301W        W37726  26.013  38.846  11.580
65302W        W37727  39.039   0.925   5.294
65303W        W37728  39.017  27.999   0.964
65304W        W37729  13.209   0.852  11.938
65305W        W37730  44.454  13.187  10.525
65306W        W37731   5.313  30.603  13.482
65307W        W37732  25.185  19.648  12.902
65308W        W37733   1.361  19.659  11.955
65309W        W37734  34.423  36.355  13.050
65310W        W37735   3.848   3.344  11.475
65311W        W37736  16.707  36.015  10.954
65312W        W37737   0.351  15.321  12.936
65313W        W37738  24.051  28.154   0.322
65314W        W37739   3.368  26.013   2.758
65315W        W37740  18.235  27.558   4.638
65316W        W37741  37.536  11.654  13.475
65317W        W37742  40.970  44.793  14.296
65318W        W37743  33.446   4.350   1.384
65319W        W37744  22.738  35.076  11.540
65320W        W37745  41.894  32.498  13.953
65321W        W37746  31.117   7.725  14.443
65322W        W37747  31.584  43.300  13.435
65323W        W37748  30.648  23.516  10.422
65324W        W37749  30.441  40.829   0.349
65325W        W37750  10.812   9.726  11.472
65326W        W37751  43.301  13.641  13.016
65327W        W37752  11.242  13.658   3.320
65328W        W37753  42.409  27.619  14.505
65329W        W37754  17.560  34.524   2.399
65330W        W37755  27.596  35.597  14.996
65331W        W37756   6.729  32.566   2.266
65332W        W37757  38.519  27.981   3.695
65333W        W37758  21.680  27.621  12.532
65334W        W37759  33.399  24.144  14.883
65335W        W37760  19.551  20.649  14.922
65336W        W37761   1.758  20.199  10.962
65337W        W37762  21.622   8.805  11.561
65338W        W37763  11.180  36.887   1.283
65339W        W37764   3.941  11.195   2.327
65340W        W37765  38.827   2.412   3.176
65341W        W37766  36.950  18.060  11.550
65342W        W37767   1.808  37.423  10.510
65343W        W37768  21.105   2.932   3.794
65344W        W37769  44.935  42.454   1.338
65345W        W37770   7.710  20.532  14.513
65346W        W37771  14.167   3.338   4.766
65347W        W37772  12.842  16.081   4.695
65348W        W37773   8.757  33.388  11.384
65349W        W37774  42.347  25.569   2.739
65350W        W37775  20.229  10.670  12.925
65351W        W37776   4.338  12.235  12.473
65352W        W37777  23.608  38.363  12.932
65353W        W37778  26.076  37.045  12.497
65354W        W37779  18.641   5.913   4.143
65355W        W37780  21.161  21.571  10.475
65356W        W37781  41.007  35.472  11.488
65357W        W37782   3.327   1.965  13.407
65358W        W37783   0.437   4.233   0.822
65359W        W37784  42.494  26.183   3.710
65360W        W37785   7.881  14.699  12.070
65361W        W37786  44.370   5.288   4.156
65362W        W37787  22.201  26.617  11.505
65363W        W37788  44.805   1.871   4.756
65364W        W37789  44.003   4.347   0.829
65365W        W37790   7.694   5.888  12.885
65366W        W37791  12.176  18.224  11.028
65367W        W37792  38.461  37.875  12.007
65368W        W37793   9.777  25.020  12.421
65369W        W37794   3.336  12.212   0.889
65370W        W37795  43.373  32.126   0.809
65371W        W37796  20.224  35.011   1.712
65372W        W37797   1.861   4.821  11.931
65373W        W37798  32.590  29.116   4.829
65374W        W37799  40.912  37.437  12.021
65375W        W37800  40.882  32.094  11.433
65376W        W37801  30.164  43.895  10.417
65377W        W37802  40.366  35.449  14.330
65378W        W37803  38.034  44.260   3.841
65379W        W37804  15.318  38.052   1.838
65380W        W37805  37.910   6.371  12.427
65381W        W37806  37.531  16.732  11.594
65382W        W37807  24.206  18.571  13.039
65383W        W37808  43.294  31.596  12.351
65384W        W37809  37.377  16.610  13.544
65385W        W37810  21.721  33.419   4.701
65386W        W37811  10.167  34.059  14.980
65387W        W37812  34.896  17.564  10.637
65388W        W37813  12.772   1.439  10.903
65389W        W37814  11.827  32.984   1.835
65390W        W37815  30.941  22.629  13.422
65391W        W37816  44.880  35.382  13.420
65392W        W37817   9.730  24.126   0.355
65393W        W37818  24.075   9.168  13.482
65394W        W37819   6.283   3.722   3.806
65395W        W37820  33.491   3.879  12.022
65396W        W37821  42.387  34.498   1.237
65397W        W37822  19.545  39.976   3.259
65398W        W37823  24.131   3.879   3.843
65399W        W37824  36.424   5.251  14.451
65400W        W37825  42.360   2.847   0.771
65401W        W37826  36.436   6.916  12.890
65402W        W37827  26.531   0.327   3.345
65403W        W37828  23.572  23.990   3.348
65404W        W37829   8.396  41.856   3.280
65405W        W37830  27.554   9.759  11.111
65406W        W37831   0.445  10.666   0.778
65407W        W37832  39.540  24.131   2.698
65408W        W37833  11.640  40.412  12.380
65409W        W37834  20.569  41.920   3.328
65410W        W37835  42.960  24.151  13.835
65411W        W37836  14.602  19.540   0.852
65412W        W37837  39.354  38.832  14.822
65413W        W37838  40.937  27.996  14.972
65414W        W37839   5.758  21.039   3.353
65415W        W37840  24.636   8.260   0.421
65416W        W37841   0.839  34.973  14.826
65417W        W37842  11.844  10.635   0.917
65418W        W37843  15.233  13.348  14.920
65419W        W37844  22.737  10.758  13.834
65420W        W37845  24.072   4.772   5.189
65421W        W37846  20.264   5.921  14.794
65422W        W37847  22.710  13.350  12.362
65423W        W37848  22.192   4.816  13.967
65424W        W37849  23.018  22.713  10.541
65425W        W37850  18.204  39.868   0.479
65426W        W37851  28.095  34.451  11.997
65427W        W37852  35.506  37.449  12.943
65428W        W37853  30.090   3.386   0.951
65429W        W37854  18.227   1.943   0.930
65430W        W37855  39.502  30.072   2.327
65431W        W37856  33.979  18.781   4.331
65432W        W37857  24.592  17.772   2.245
65433W        W37858   0.748  30.028  14.310
65434W        W37859  38.559  17.569   1.789
65435W        W37860  35.571  36.454  12.424
65436W        W37861  13.841  15.824   3.822
65437W        W37862  35.016   8.675  14.373
65438W        W37863  26.698  40.929   3.342
65439W        W37864   0.355  44.363  11.589
65440W        W37865   1.353  36.552   0.931
65441W        W37866   7.410  44.836  13.970
65442W        W37867  43.350  21.517   2.299
65443W        W37868  27.107  32.084   3.325
65444W        W37869  43.977   2.274  12.879
65445W        W37870   3.376  17.719  11.127
65446W        W37871   6.734  32.954  12.469
65447W        W37872  42.357   2.336   3.320
65448W        W37873  21.226  43.865   3.836
65449W        W37874  26.572   6.839   4.342
65450W        W37875   7.309  21.142   4.251
65451W        W37876  14.154   4.446   2.782
65452W        W37877  19.739   2.917   3.357
65453W        W37878  33.045  32.922  12.457
65454W        W37879  28.630  13.263   1.865
65455W        W37880  35.410  12.311   4.712
65456W        W37881  34.044   7.734  10.618
65457W        W37882  29.596   3.775  14.340
65458W        W37883  26.037  12.611  12.363
65459W        W37884  25.561  24.146  12.546
65460W        W37885  20.154  22.612   1.841
65461W        W37886   9.203  27.465   3.310
65462W        W37887  39.833   1.335  11.089
65463W        W37888  44.842  22.635  14.786
65464W        W37889  44.870  24.117  14.831
65465W        W37890  17.717  31.469  13.791
65466W        W37891  42.422  22.645   4.801
65467W        W37892  42.810  18.116   1.355
65468W        W37893  34.574  29.640   2.412
65469W        W37894  29.985  21.542  13.538
65470W        W37895  34.426  26.549  13.984
65471W        W37896   9.225   5.824   3.316
65472W        W37897  26.109  23.533   0.247
65473W        W37898  38.381  31.411   1.311
65474W        W37899  20.759  37.882   4.134
65475W        W37900  10.144  32.542   4.711
65476W        W37901  41.460  32.010  12.448
65477W        W37902  32.525  20.170  12.355
65478W        W37903   3.933   8.878   0.922
65479W        W37904  14.705  37.975  13.814
65480W        W37905  21.090  26.093   3.189
65481W        W37906  19.738  25.057  11.082
65482W        W37907  44.366  19.097  13.057
65483W        W37908  26.575  37.415  11.598
65484W        W37909  30.607  16.692  10.474
65485W        W37910  15.738   6.422   4.331
65486W        W37911   5.887  44.347   2.814
65487W        W37912  18.627   6.227   4.717
65488W        W37913  29.137  17.645   2.785
65489W        W37914   9.667  26.647   2.662
65490W        W37915  30.925   8.348  13.937
65491W        W37916  12.189  30.641   0.956
65492W        W37917  39.367  34.902  14.407
65493W        W37918  33.102   4.896   3.793
65494W        W37919   3.298  24.582   2.790
65495W        W37920  40.407  36.471  13.003
65496W        W37921  23.992   6.872  11.455
65497W        W37922  43.884  14.604   1.275
65498W        W37923  16.696  16.653   4.127
65499W        W37924  38.000  17.630   0.280
65500W        W37925  37.911  23.002  14.344
65501W        W37926  13.263  37.993   1.234
65502W        W37927   4.350  21.641   4.837
65503W        W37928  32.056  26.991   3.303
65504W        W37929   7.753  20.269  13.865
65505W        W37930  38.026  35.367  11.885
65506W        W37931  38.421  35.948   3.810
65507W        W37932  21.068  26.959   2.788
65508W        W37933  44.991  31.004  12.888
65509W        W37934  30.021  15.328   2.720
65510W        W37935  26.994  30.063   1.331
65511W        W37936  37.854   9.740  12.038
65512W        W37937  10.177  33.420   3.206
65513W        W37938  25.606  17.191  11.117
65514W        W37939  19.103  10.759  10.489
65515W        W37940  36.491  32.454   4.812
65516W        W37941   8.337  31.934   4.732
65517W        W37942  17.799  25.558  14.405
65518W        W37943  27.143  14.103  10.601
65519W        W37944  37.418  16.674   0.937
65520W        W37945  32.412  26.195   2.224
65521W        W37946  44.901   1.788   0.729
65522W        W37947  19.565  13.180  10.565
65523W        W37948  44.405   9.247  14.380
65524W        W37949   6.767  22.670  10.981
65525W        W37950   8.812   5.402  10.432
65526W        W37951  34.928  35.098  13.813
65527W        W37952  35.029  14.227  14.429
65528W        W37953  38.044  40.049   9.948
65529W        W37954  41.464  34.104  14.453
65530W        W37955  13.188  21.577  13.989
65531W        W37956   6.279  39.329   2.899
65532W        W37957  12.184  12.768   1.255
65533W        W37958   5.933   0.431  10.642
65534W        W37959  41.997  22.059   5.172
65535W        W37960  27.112  15.121   0.881
65536W        W37961  15.250  35.873  14.794
65537W        W37962  42.786  28.095  12.018
65538W        W37963  18.550  25.091   0.390
65539W        W37964   7.676  33.881  14.287
65540W        W37965   6.744  31.118   3.641
65541W        W37966  36.572  23.594  12.914
65542W        W37967   4.232  14.219  12.408
65543W        W37968   6.248  10.341  13.813
65544W        W37969  24.983   6.356  12.561
65545W        W37970   4.896  20.708   1.338
65546W        W37971  33.936  14.274  12.921
65547W        W37972  20.761  29.459   2.715
65548W        W37973  38.864  31.044   1.231
65549W        W37974  29.668  18.627   5.231
65550W        W37975   2.416  10.279  14.800
65551W        W37976  43.376  25.611   1.802
65552W        W37977   8.191  43.907   4.618
65553W        W37978  19.196   3.902  14.384
65554W        W37979  13.188  22.157   2.344
65555W        W37980  11.702  22.238   9.950
65556W        W37981   6.396   1.872  12.967
65557W        W37982  40.417   1.935  12.996
65558W        W37983   7.260  32.941  12.040
65559W        W37984  15.236   5.321  13.472
65560W        W37985  15.195  36.061  11.417
65561W        W37986   7.783  14.689  11.093
65562W        W37987  38.976   1.953   3.713
65563W        W37988  13.201   4.294  11.392
65564W        W37989   1.422  14.646  11.079
65565W        W37990   3.915   5.208  11.448
65566W        W37991  31.898  25.034   3.345
65567W        W37992  17.128  23.650   1.329
65568W        W37993  30.980  22.635   4.736
65569W        W37994   0.422  21.085   1.229
65570W        W37995  12.677   5.350   3.748
65571W        W37996  14.141  40.470   2.243
65572W        W37997  41.972  11.281   4.817
65573W        W37998  25.070  30.001   4.808
65574W        W37999  11.695  26.460  10.405
65575W        W38000   2.828  31.467   2.903
65576W        W38001  29.660  14.147  11.480
65577W        W38002  41.538   1.379   3.379
65578W        W38003  33.956  34.422  11.065
65579W        W38004  26.633  22.589   1.843
65580W        W38005  16.760  44.380  10.931
65581W        W38006   9.224  21.749   1.768
65582W        W38007  37.892  33.581  12.348
65583W        W38008   3.820  42.304  11.530
65584W        W38009   1.897  43.810   1.367
65585W        W38010  11.832   7.288  13.909
65586W        W38011  20.055  33.018   2.893
65587W        W38012   2.446   9.883  12.517
65588W        W38013  35.492  33.418  13.343
65589W        W38014  23.205  23.218  12.035
65590W        W38015  33.019  42.982  10.430
65591W        W38016   1.793  29.127  14.031
65592W        W38017  22.208  27.102   3.307
65593W        W38018  21.563   4.720   2.345
65594W        W38019   1.454  16.077  11.572
65595W        W38020  37.868  35.546   1.838
65596W        W38021  17.258   6.771   0.458
65597W        W38022  14.788  40.353   1.916
65598W        W38023  24.695  41.293   0.256
65599W        W38024  23.628  21.610  14.387
65600W        W38025  36.491  17.102   2.846
65601W        W38026  41.958  31.495  10.464
65602W        W38027  29.142  16.764   2.363
65603W        W38028  18.260  38.856   3.235
65604W        W38029   4.817  13.793   3.294
65605W        W38030  22.617  10.320   1.875
65606W        W38031  23.048  26.574  10.516
65607W        W38032  39.824  28.445   0.731
65608W        W38033  42.421   2.909  11.974
65609W        W38034  11.329  41.406   2.821
65610W        W38035  19.099  10.681  12.360
65611W        W38036  37.408  34.073   4.713
65612W        W38037  27.990   8.803  11.442
65613W        W38038  39.524  39.447  13.823
65614W        W38039  33.008  42.785   2.371
65615W        W38040  16.261  36.917  11.931
65616W        W38041  16.676  34.480  11.982
65617W        W38042   7.872  25.990  11.015
65618W        W38043  43.305   0.751  14.018
65619W        W38044  24.606  10.827   3.645
65620W        W38045  31.405  43.020   3.383
65621W        W38046  37.541  24.532  10.495
65622W        W38047   4.388  42.442  11.431
65623W        W38048  39.397  25.195   4.689
65624W        W38049   8.727  32.952  13.894
65625W        W38050   1.894  10.734  10.895
65626W        W38051  25.986  12.337   1.342
65627W        W38052   6.698  38.967  12.365
65628W        W38053  34.916   1.301   4.731
65629W        W38054  10.669  22.677   0.347
65630W        W38055  12.320   5.430   4.703
65631W        W38056  34.515  30.621   5.223
65632W        W38057  23.582  11.852   1.917
65633W        W38058  15.615  33.130  14.973
65634W        W38059  29.066  19.666   2.682
65635W        W38060  14.288  40.444  12.077
65636W        W38061  30.503   4.350   0.758
65637W        W38062  26.525  37.341   1.756
65638W        W38063   1.459  29.048   4.283
65639W        W38064  21.201   7.259  11.987
65640W        W38065  17.138  11.314   4.190
65641W        W38066   3.252  43.928  10.130
65642W        W38067   1.931   1.254  14.828
65643W        W38068  38.550  25.520  11.033
65644W        W38069  39.879  43.003  14.860
65645W        W38070   4.227  32.452  13.806
65646W        W38071  11.245  40.498   2.732
65647W        W38072  17.303   6.682  12.380
65648W        W38073  30.091  11.810  14.439
65649W        W38074  39.421  17.242   4.665
65650W        W38075   0.799  41.383   2.800
65651W        W38076  16.164  23.550  11.913
65652W        W38077  41.895   4.837  14.443
65653W        W38078   0.805  32.527   5.694
65654W        W38079   8.742  26.530   1.227
65655W        W38080  21.126  15.227   1.257
65656W        W38081  28.476   0.874  11.507
65657W        W38082  39.028  31.527   1.219
65658W        W38083  11.690  21.201   9.943
65659W        W38084  33.097  23.029  10.448
65660W        W38085  33.057  16.737   2.889
65661W        W38086  18.775  31.069   0.326
65662W        W38087  39.524  30.539   2.743
65663W        W38088  15.284  20.110   0.951
65664W        W38089   6.791  12.265  13.048
65665W        W38090  27.645  41.333  10.406
65666W        W38091  16.738  44.281  10.496
65667W        W38092  18.704  15.245   4.144
65668W        W38093  43.493  28.595  10.504
65669W        W38094  22.654  14.656   2.829
65670W        W38095   7.241  34.013   0.953
65671W        W38096  38.471  14.782   0.927
65672W        W38097  17.105  22.676  12.058
65673W        W38098  19.743  38.842  13.973
65674W        W38099  41.951  13.291  11.942
65675W        W38100  44.273  23.541   4.759
65676W        W38101   2.808  30.503   3.165
65677W        W38102   8.814  22.234   0.913
65678W        W38103   4.297  30.487  11.086
65679W        W38104  30.463   1.410  12.063
65680W        W38105  36.064  42.775   3.700
65681W        W38106  21.597   3.435  13.340
65682W        W38107   5.776  16.110  11.080
65683W        W38108  14.749   5.372   4.723
65684W        W38109   4.799  36.485   2.865
65685W        W38110  36.011  15.109   0.256
65686W        W38111  29.445  28.963   2.329
65687W        W38112  12.612   3.436   3.701
65688W        W38113   7.302  24.478  11.475
65689W        W38114  20.106  18.282  14.401
65690W        W38115  22.622  15.706  11.399
65691W        W38116  41.977  11.761   2.845
65692W        W38117  24.705  20.740   4.164
65693W        W38118  22.049  40.323   4.213
65694W        W38119  42.421  43.944   2.284
65695W        W38120  12.804   8.347  14.907
65696W        W38121   5.724  18.690   2.675
65697W        W38122  19.679   8.833   3.712
65698W        W38123  12.127   5.923  12.077
65699W        W38124   2.378  37.516  10.061
65700W        W38125   1.264  16.167  12.917
65701W        W38126  26.176  24.669   4.177
65702W        W38127   5.851  10.209  12.547
65703W        W38128  21.732  27.631  13.399
65704W        W38129  30.156  24.693   2.741
65705W        W38130  13.722  32.545   0.379
65706W        W38131  11.632  28.567   3.843
65707W        W38132  15.722  43.798   0.922
65708W        W38133  35.103  38.929  11.588
65709W        W38134  36.420  14.734  14.969
65710W        W38135  16.077  13.746   0.958
65711W        W38136  23.710  16.218  10.442
65712W        W38137   6.250  40.801  11.873
65713W        W38138  32.461  36.513   1.356
65714W        W38139  10.661  29.045  14.304
65715W        W38140   3.793   3.919   3.179
65716W        W38141  44.996  11.169  14.345
65717W        W38142  32.093   7.877  11.037
65718W        W38143  14.710  21.144   4.702
65719W        W38144  28.087  34.484  10.985
65720W        W38145  12.157  13.739   3.641
65721W        W38146  30.114  19.060  14.805
65722W        W38147  38.404  14.702  10.991
65723W        W38148   0.336  10.195   4.163
65724W        W38149  29.081  44.485   2.825
65725W        W38150  16.743  43.897  10.507
65726W        W38151   9.319   3.304   2.406
65727W        W38152  25.212  28.093  14.790
65728W        W38153  28.012   5.280   3.260
65729W        W38154  18.092  15.200  13.432
65730W        W38155   8.178  14.113  14.887
65731W        W38156   5.282  27.045   4.221
65732W        W38157  42.914  12.174   3.364
65733W        W38158  21.743   5.840  14.926
65734W        W38159   6.422  34.557   3.855
65735W        W38160  13.718  24.052   1.379
65736W        W38161  11.647  23.987   0.364
65737W        W38162  42.861  26.148   3.286
65738W        W38163  32.952  40.955   4.778
65739W        W38164  26.663   9.282   3.632
65740W        W38165   0.311  31.456   9.930
65741W        W38166  40.359  11.839  14.775
65742W        W38167  20.766  14.218  11.480
65743W        W38168  35.419  10.191  14.468
65744W        W38169   2.233  42.832   4.117
65745W        W38170  15.147  32.942   4.233
65746W        W38171   3.844  17.716  11.939
65747W        W38172  20.113   9.263  14.789
65748W        W38173  42.344   1.937   3.355
65749W        W38174  38.947  10.748  14.794
65750W        W38175  43.885   1.965   0.276
65751W        W38176  18.565   3.850  11.441
65752W        W38177  19.670  12.806   0.731
65753W        W38178  16.109  27.955   1.362
65754W        W38179  18.203  24.019  10.944
65755W        W38180  24.166  33.456   3.777
65756W        W38181  35.438  12.695   2.223
65757W        W38182  26.686  23.528  13.366
65758W        W38183  10.801  36.524   2.863
65759W        W38184  44.851  32.047   2.728
65760W        W38185  26.002  25.134  12.479
65761W        W38186  26.646  30.064   4.314
65762W        W38187  25.028  43.802  14.872
65763W        W38188  31.578  35.943  14.301
65764W        W38189  34.492   4.250   0.902
65765W        W38190  26.171  25.186   1.799
65766W        W38191   0.444  37.981  11.116
65767W        W38192  14.320  20.742   0.326
65768W        W38193  25.686  13.230   4.741
65769W        W38194  13.109  25.593  14.798
65770W        W38195  21.514  44.863   0.876
65771W        W38196  38.367  21.093  13.982
65772W        W38197  18.107  18.654   3.761
65773W        W38198  24.087  41.000  10.921
65774W        W38199  10.185   5.228  11.554
65775W        W38200  40.471   1.465   2.717
65776W        W38201  22.186  21.034   1.905
65777W        W38202  24.099  16.620  10.415
65778W        W38203  16.203  26.526  13.811
65779W        W38204  34.562  44.361  14.430
65780W        W38205  37.839  20.754  12.877
65781W        W38206  21.087  16.101  10.413
65782W        W38207  41.898  20.646  11.461
65783W        W38208  20.159   8.851  13.045
65784W        W38209  10.787   9.312   0.828
65785W        W38210   1.434  30.955  10.528
65786W        W38211   9.358  22.516   2.702
65787W        W38212   3.753  10.639  14.980
65788W        W38213  15.322   4.217  11.027
65789W        W38214  31.035  33.064  11.400
65790W        W38215  17.647  43.808   3.327
65791W        W38216  31.019  18.107  14.915
65792W        W38217  14.195  19.208  11.081
65793W        W38218  41.954   0.974   1.308
65794W        W38219  38.048   9.376   1.779
65795W        W38220  44.956  23.697  10.546
65796W        W38221  22.715  27.966   4.244
65797W        W38222  22.746  14.697   2.309
65798W        W38223  40.335  28.448   2.806
65799W        W38224  42.896   7.704   2.784
65800W        W38225   9.249  40.436   9.924
65801W        W38226  39.024  13.278   1.376
65802W        W38227  32.552  35.376  14.513
65803W        W38228  43.279  38.559  11.501
65804W        W38229  29.004  26.580   4.818
65805W        W38230  18.133  32.064   3.743
65806W        W38231  26.119  44.809  11.930
65807W        W38232   4.272  14.300  10.964
65808W        W38233  12.231  18.624   0.921
65809W        W38234   6.789   4.353   0.790
65810W        W38235  12.631   4.917  10.897
65811W        W38236  24.132  14.190  13.455
65812W        W38237  40.941  26.032   3.216
65813W        W38238  27.092  34.877  14.996
65814W        W38239  26.077   0.769  12.861
65815W        W38240  44.310   1.339   0.449
65816W        W38241  17.242  28.573  14.781
65817W        W38242  42.376  18.178  14.323
65818W        W38243  26.145  25.514   4.120
65819W        W38244  17.140   1.777   3.861
65820W        W38245  34.021  12.125  12.432
65821W        W38246  17.666   0.449  14.391
65822W        W38247  37.042  19.673   4.327
65823W        W38248  12.681  42.814  10.431
65824W        W38249   8.194   2.960   4.764
65825W        W38250   4.821  25.967   3.262
65826W        W38251  24.083  40.361   3.145
65827W        W38252  12.250  44.949  11.600
65828W        W38253  32.412  13.109   1.853
65829W        W38254   4.780  12.649  11.890
65830W        W38255  14.731  35.473  13.330
65831W        W38256  33.064  30.039  14.291
65832W        W38257  14.618  30.126  13.905
65833W        W38258  23.615  38.414   4.695
65834W        W38259  13.218  36.903   1.298
65835W        W38260   9.234  15.262  13.366
65836W        W38261   9.834  37.082  13.883
65837W        W38262  40.368   9.713  14.020
65838W        W38263   2.727  43.422   0.358
65839W        W38264  38.353  32.459   4.270
65840W        W38265  44.987  39.052  10.503
65841W        W38266  11.221  35.370  11.548
65842W        W38267  17.074   3.384  13.951
65843W        W38268  24.620   8.300   1.285
65844W        W38269  15.694  19.281   2.353
65845W        W38270  27.033  11.769   0.762
65846W        W38271  25.495  22.127  12.483
65847W        W38272  37.020   8.693  11.041
65848W        W38273   7.230   0.465  12.015
65849W        W38274   3.741   5.928   1.436
65850W        W38275   1.811   9.754  12.493
65851W        W38276  20.626   4.241  13.400
65852W        W38277  25.657  39.536   3.179
65853W        W38278  19.667   1.852  11.546
65854W        W38279  44.854  41.793   2.754
65855W        W38280  38.834  39.054  14.405
65856W        W38281  29.158  31.522   1.746
65857W        W38282  20.609   2.943   0.293
65858W        W38283  31.046  25.668  14.759
65859W        W38284  29.171  32.591  13.962
65860W        W38285  21.156  41.791  11.521
65861W        W38286  11.159  21.228   0.752
65862W        W38287  28.446  23.682   4.698
65863W        W38288   8.844  41.384   4.811
65864W        W38289  11.745  18.121   2.393
65865W        W38290  35.591   6.920  11.535
65866W        W38291   0.359  38.420  14.952
65867W        W38292  35.492   7.817  13.476
65868W        W38293   5.319   6.888  12.900
65869W        W38294  30.144  38.010  12.413
65870W        W38295  41.007  29.923   4.286
65871W        W38296  28.616  23.117  13.476
65872W        W38297   1.900  25.623  14.392
65873W        W38298  19.699  34.931   4.272
65874W        W38299   1.767  23.084   3.788
65875W        W38300  41.004  23.560   3.709
65876W        W38301  39.019  29.021   3.368
65877W        W38302  36.956  17.742   2.771
65878W        W38303   8.162   2.336  11.001
65879W        W38304  29.012   0.274  11.981
65880W        W38305  22.157   6.898  13.043
65881W        W38306  24.681   6.302  10.581
65882W        W38307  42.280  21.242  13.793
65883W        W38308  10.307  23.993   1.713
65884W        W38309  29.564  16.117  14.476
65885W        W38310  16.129  29.669   1.935
65886W        W38311   8.275  35.441  13.360
65887W        W38312  16.105   0.311  11.471
65888W        W38313  23.592   1.272   0.347
65889W        W38314  41.412  14.141   0.376
65890W        W38315  25.177   1.744  14.891
65891W        W38316  37.499  23.051   2.761
65892W        W38317  41.906  37.370   0.411
65893W        W38318   4.430  33.485  11.868
65894W        W38319  17.792  44.879  12.012
65895W        W38320  34.933  38.070  13.392
65896W        W38321  12.744   3.408   1.334
65897W        W38322   8.381   2.830   0.779
65898W        W38323   3.437  40.459  14.932
65899W        W38324  33.947  32.548  13.001
65900W        W38325  29.494   8.833  10.447
65901W        W38326   7.805   3.333  10.022
65902W        W38327  17.601   2.335   2.842
65903W        W38328   0.427  29.078  14.952
65904W        W38329  15.195  42.295  11.905
65905W        W38330  22.656  11.295  12.530
65906W        W38331  30.056  29.531  10.606
65907W        W38332  12.815  18.774   4.724
65908W        W38333  32.055  34.522  12.544
65909W        W38334  22.240  35.467   4.146
65910W        W38335   1.357  14.325   2.899
65911W        W38336  16.629  27.970   1.930
65912W        W38337  33.067  22.511   1.416
65913W        W38338  10.650   7.789   0.774
65914W        W38339  31.106   1.774  13.374
65915W        W38340  35.470  44.424  10.433
65916W        W38341  27.628  36.084  11.943
65917W        W38342  27.628  26.040   3.739
65918W        W38343  28.079  16.629   4.818
65919W        W38344  13.164  14.228  10.142
65920W        W38345  37.578  10.875   0.316
65921W        W38346  40.035  27.481  11.858
65922W        W38347   3.396  36.879   2.698
65923W        W38348  20.737  23.221  13.464
65924W        W38349  30.598  37.533   5.128
65925W        W38350  29.981  28.981   4.125
65926W        W38351  26.049  31.049  14.820
65927W        W38352  17.699   5.788  12.932
65928W        W38353  13.818  18.258   0.844
65929W        W38354  29.085   8.809  14.783
65930W        W38355  20.662  37.996   0.784
65931W        W38356  43.402   4.213  10.960
65932W        W38357  14.263  44.865  12.532
65933W        W38358   4.852  24.516  12.376
65934W        W38359  10.266  32.956  11.966
65935W        W38360  14.749  43.389   1.910
65936W        W38361   1.443  42.388   4.130
65937W        W38362  24.210  43.873  12.529
65938W        W38363   5.275  34.411   0.469
65939W        W38364  16.124  20.028   4.622
65940W        W38365  20.097   3.214  11.579
65941W        W38366  21.198  34.456   4.700
65942W        W38367  28.110  37.496   2.678
65943W        W38368  21.204  31.014   1.450
65944W        W38369  26.683  11.311  11.966
65945W        W38370  23.599  35.923  14.842
65946W        W38371  22.246   5.195  12.970
65947W        W38372  30.584   7.906  12.071
65948W        W38373  32.049  21.528  12.407
65949W        W38374   7.784  23.647   1.841
65950W        W38375  32.918  37.878   2.807
65951W        W38376  33.983  20.082   4.601
65952W        W38377  35.885  18.109  13.469
65953W        W38378  29.919  21.629   2.229
65954W        W38379  35.501  34.013  12.031
65955W        W38380  29.464  37.920  10.081
65956W        W38381   9.384   5.348  11.466
65957W        W38382   7.358  21.157   3.215
65958W        W38383  12.322  24.191   9.561
65959W        W38384  18.118   6.802   2.204
65960W        W38385  13.157  19.762   1.224
65961W        W38386   2.809  44.322  12.456
65962W        W38387   2.287  19.689  11.590
65963W        W38388  44.409   8.378  10.009
65964W        W38389  39.528  34.032   0.767
65965W        W38390  31.561   3.461   5.112
65966W        W38391  38.863  22.155   1.214
65967W        W38392  27.011  21.549   4.119
65968W        W38393  40.984  24.598  14.797
65969W        W38394  14.107   3.359   3.646
65970W        W38395  32.042  21.207  11.101
65971W        W38396  23.700   4.384   1.234
65972W        W38397  26.985   7.230  12.578
65973W        W38398   9.741  41.531   3.171
65974W        W38399  10.846  32.081  11.602
65975W        W38400  20.731  39.541   4.685
65976W        W38401  12.680  34.945  14.866
65977W        W38402  39.534  39.859  14.968
65978W        W38403  23.092  44.896   3.694
65979W        W38404  13.628  36.446  10.461
65980W        W38405  11.702   4.810   0.916
65981W        W38406  11.783  15.756   0.833
65982W        W38407  34.977  38.430   3.817
65983W        W38408  35.886  44.902   4.297
65984W        W38409  28.964   4.830   0.735
65985W        W38410  11.316   2.328   0.313
65986W        W38411   9.660  39.440  14.424
65987W        W38412  33.880   9.323  12.003
65988W        W38413  37.452  42.495  13.410
65989W        W38414  14.626  16.789  12.028
65990W        W38415  22.505  44.803  13.021
65991W        W38416  34.520   4.267   3.154
65992W        W38417  39.353  23.628  12.959
65993W        W38418   4.941  35.552   1.275
65994W        W38419  31.022   7.217  13.025
65995W        W38420  24.047  10.669  13.831
65996W        W38421  32.430  35.859   2.281
65997W        W38422  27.128  26.637  14.990
65998W        W38423  33.113   4.253   2.274
65999W        W38424   9.874  24.058  14.881
66000W        W38425  27.194   8.836  11.456
66001W        W38426  42.897  15.630   1.829
66002W        W38427  21.132  25.567   3.688
66003W        W38428   5.248  30.935  10.994
66004W        W38429  11.373   7.743   0.456
66005W        W38430   3.371   6.853  11.536
66006W        W38431  11.232  18.054   4.319
66007W        W38432  34.070  12.242  12.827
66008W        W38433  19.203  28.445   0.883
66009W        W38434  32.062  12.160   4.622
66010W        W38435  43.897  25.147  10.540
66011W        W38436  13.605  19.256   1.375
66012W        W38437  25.083  35.884   3.247
66013W        W38438  39.002  21.023   3.851
66014W        W38439  22.666   5.326  13.981
66015W        W38440  13.229  41.390   2.309
66016W        W38441  16.097   6.830  13.804
66017W        W38442   0.902  41.970  13.825
66018W        W38443  12.152  19.703  11.990
66019W        W38444   3.870  28.572  14.787
66020W        W38445  42.787  42.959   5.265
66021W        W38446  32.409  24.125  12.855
66022W        W38447  21.568  37.514   0.898
66023W        W38448  30.525   1.919  11.025
66024W        W38449  15.592  14.646  12.528
66025W        W38450  16.212   7.402   4.312
66026W        W38451  22.225  13.336   4.214
66027W        W38452  34.423  28.615   2.199
66028W        W38453  23.624   2.376   2.185
66029W        W38454  31.978  25.008  13.857
66030W        W38455   0.248  19.719  10.528
66031W        W38456  43.834  24.066  11.601
66032W        W38457  36.575  41.478   4.753
66033W        W38458  13.683  18.257  12.866
66034W        W38459  15.181  24.120   0.917
66035W        W38460  41.492   8.380   2.739
66036W        W38461  24.083  26.079   1.434
66037W        W38462   5.866  15.585   3.801
66038W        W38463  26.581  39.910   3.324
66039W        W38464  31.449  13.804  12.861
66040W        W38465  41.461  22.605  14.013
66041W        W38466  33.911   9.383  10.593
66042W        W38467  22.239   2.269   1.860
66043W        W38468  32.968  24.486   3.686
66044W        W38469  25.007   8.379   2.359
66045W        W38470  16.584   4.766   2.695
66046W        W38471   4.446  37.065  14.506
66047W        W38472  28.148  41.517   1.415
66048W        W38473  20.244  32.133  14.281
66049W        W38474   8.379  31.593   0.243
66050W        W38475  32.540   7.896  13.444
66051W        W38476   5.741  20.580   4.721
66052W        W38477  12.625  36.381   3.361
66053W        W38478   7.237  24.119  13.923
66054W        W38479  23.642  11.843   5.742
66055W        W38480  17.277   9.791   4.285
66056W        W38481  14.116  16.695   1.361
66057W        W38482  29.145  25.018   3.225
66058W        W38483  26.034  35.564  11.891
66059W        W38484  13.121  30.163  13.375
66060W        W38485  30.924   9.826   3.821
66061W        W38486  22.206  40.813   3.842
66062W        W38487   1.962   1.913   3.366
66063W        W38488  31.009  15.802   3.651
66064W        W38489  18.112  39.022  12.081
66065W        W38490  26.117  37.932   1.829
66066W        W38491  40.902  21.122  11.951
66067W        W38492   0.369  16.800  12.409
66068W        W38493  30.969   6.768  10.603
66069W        W38494  34.390  20.724  12.425
66070W        W38495  21.112   6.293  12.508
66071W        W38496  35.924  29.919  10.463
66072W        W38497  41.313  37.921  10.519
66073W        W38498  35.983   7.253   2.387
66074W        W38499   4.271  19.263   4.719
66075W        W38500  18.675  36.948  11.498
66076W        W38501  15.818   6.347  14.275
66077W        W38502  22.009   9.774  10.898
66078W        W38503  38.428  41.298   3.699
66079W        W38504  33.088   4.730  14.342
66080W        W38505  30.622   4.229   3.805
66081W        W38506  21.570  17.193   3.695
66082W        W38507  24.198  33.533  10.571
66083W        W38508  20.141  37.499   2.360
66084W        W38509  31.995   5.207  11.873
66085W        W38510   5.878  29.937   1.241
66086W        W38511   4.779   8.353   1.707
66087W        W38512  36.559  38.514  10.566
66088W        W38513   3.921   2.731   3.277
66089W        W38514  37.898  38.543  12.047
66090W        W38515  30.420  29.588  12.088
66091W        W38516  40.871  40.852  14.844
66092W        W38517  39.354  43.882  12.094
66093W        W38518  37.949   3.942   0.406
66094W        W38519  21.145   9.828  14.777
66095W        W38520  39.470   8.795  13.817
66096W        W38521  33.984  15.815   3.317
66097W        W38522  34.955  42.867   2.324
66098W        W38523  11.319   2.468  14.299
66099W        W38524  39.543  28.500  11.421
66100W        W38525   2.909  16.726   4.319
66101W        W38526  29.642  29.095  13.424
66102W        W38527  30.092  44.283  14.422
66103W        W38528  21.562  25.036   2.260
66104W        W38529  21.560  26.959   3.641
66105W        W38530  15.678  37.902   0.339
66106W        W38531  21.693  16.690   2.747
66107W        W38532  27.024  31.106  12.510
66108W        W38533  38.951  31.126   2.376
66109W        W38534  35.944  10.688  12.971
66110W        W38535  35.870  24.488  12.474
66111W        W38536  22.199  39.846   2.297
66112W        W38537  24.606   7.871   0.835
66113W        W38538  15.199  15.234   4.234
66114W        W38539  10.843  33.058  14.496
66115W        W38540  28.507  36.854   4.710
66116W        W38541  36.872  22.553   4.209
66117W        W38542  15.686  21.177  10.635
66118W        W38543  38.979   5.309   4.730
66119W        W38544  39.385  15.327   3.824
66120W        W38545  44.425  24.169  10.952
66121W        W38546  31.152  26.577   0.441
66122W        W38547  24.028  14.622  13.823
66123W        W38548   4.698   5.226   0.259
66124W        W38549  31.590  23.530  12.463
66125W        W38550   3.456  15.804  13.814
66126W        W38551  28.581  17.090  12.376
66127W        W38552  20.123  42.830  12.480
66128W        W38553  39.908  12.710  14.409
66129W        W38554  16.570  30.026   3.781
66130W        W38555  26.093  25.004  11.079
66131W        W38556   9.253  16.269   1.833
66132W        W38557  43.860   1.320   0.743
66133W        W38558   3.869  31.539  10.430
66134W        W38559   8.194  20.555   2.859
66135W        W38560  22.227  10.262   3.840
66136W        W38561  27.150  23.204   3.861
66137W        W38562  34.970  18.193  10.969
66138W        W38563  11.157  33.049  14.412
66139W        W38564  29.025  26.668   0.434
66140W        W38565  42.498  33.900  12.498
66141W        W38566  35.945  13.630  11.601
66142W        W38567  20.740  17.741   2.693
66143W        W38568   8.224  37.540   4.729
66144W        W38569  24.211   3.953   4.637
66145W        W38570  39.844   9.866  10.634
66146W        W38571  39.949  33.613  12.973
66147W        W38572  23.003  11.832  12.901
66148W        W38573  22.072   2.426   0.873
66149W        W38574  37.944  40.879  11.997
66150W        W38575   9.287   8.800   3.671
66151W        W38576  26.079   6.339   0.325
66152W        W38577  30.047  41.442   1.324
66153W        W38578  11.643  41.017  14.880
66154W        W38579  35.496  34.037  14.363
66155W        W38580  18.142  11.351   2.187
66156W        W38581  36.422   5.409  11.067
66157W        W38582   4.867  18.773  10.640
66158W        W38583  42.486  11.218   4.750
66159W        W38584  36.907  10.209  12.978
66160W        W38585  16.152  12.270  11.608
66161W        W38586  41.946  25.981   3.802
66162W        W38587  22.044   3.428  11.480
66163W        W38588   6.391  34.509   2.851
66164W        W38589  42.845   6.380   1.232
66165W        W38590  33.042  39.866  12.966
66166W        W38591  10.741  16.638  13.854
66167W        W38592  24.667   7.766   3.749
66168W        W38593  44.963  28.151   1.749
66169W        W38594   4.905   0.900  14.280
66170W        W38595  39.060  27.026   1.839
66171W        W38596  30.966  42.428   1.307
66172W        W38597  24.565   0.942  14.830
66173W        W38598  41.381  18.097  12.873
66174W        W38599  15.218  31.539  13.453
66175W        W38600   2.787  28.646   0.243
66176W        W38601  11.688  29.947  12.388
66177W        W38602   1.924  43.282   0.425
66178W        W38603   1.412   2.889  12.403
66179W        W38604  37.963  32.617   2.273
66180W        W38605  31.145  32.500   2.894
66181W        W38606  27.073  35.561   1.768
66182W        W38607  23.133  24.199   3.344
66183W        W38608   8.397  34.479   3.850
66184W        W38609  19.565  38.004   4.262
66185W        W38610  33.066  39.557   1.256
66186W        W38611  37.931   8.873   2.294
66187W        W38612  42.489  31.462   0.946
66188W        W38613   9.668  17.766   0.361
66189W        W38614  27.600   9.724   2.698
66190W        W38615  32.136  33.544  14.940
66191W        W38616  15.089  31.953  12.010
66192W        W38617  43.960   2.234   4.791
66193W        W38618   5.900   4.293   0.775
66194W        W38619   0.884   6.375   3.330
66195W        W38620  44.338  40.369   2.221
66196W        W38621  13.245  31.067  14.847
66197W        W38622  44.801  13.188   4.807
66198W        W38623  15.611  19.093   1.265
66199W        W38624  44.798  19.160   0.407
66200W        W38625  28.527  16.789  13.515
66201W        W38626  25.994  14.206  13.978
66202W        W38627  40.364  39.977  11.534
66203W        W38628   1.422   9.689   4.640
66204W        W38629   9.736   0.751  12.013
66205W        W38630  10.809  23.531   9.616
66206W        W38631  15.084  12.826   4.809
66207W        W38632  17.687  44.990   3.321
66208W        W38633  38.465  29.463  13.337
66209W        W38634  18.588   1.892   4.772
66210W        W38635  33.474  13.197  10.982
66211W        W38636   2.265  38.853   2.401
66212W        W38637   5.857  43.996   3.630
66213W        W38638   0.258   7.321  11.900
66214W        W38639   1.977  26.489   2.390
66215W        W38640  36.012   5.931   3.771
66216W        W38641  22.734  36.381  11.396
66217W        W38642  13.126  13.661   2.207
66218W        W38643   7.826   2.761  12.863
66219W        W38644  29.504   4.912   2.709
66220W        W38645  16.102  44.009   0.838
66221W        W38646  18.733  23.733   0.751
66222W        W38647  23.649  22.179   3.797
66223W        W38648  40.503   3.733  14.906
66224W        W38649  31.978  12.848  10.979
66225W        W38650  21.548  33.545  12.432
66226W        W38651  41.922  42.936  14.980
66227W        W38652  13.701  28.505   1.236
66228W        W38653  39.338  30.568   1.431
66229W        W38654   9.664  31.943   1.215
66230W        W38655  28.472   4.285   3.308
66231W        W38656  15.614   2.238   3.261
66232W        W38657  15.613  15.648   3.338
66233W        W38658  10.367  16.648  14.479
66234W        W38659  26.973  17.599  10.469
66235W        W38660  23.651   9.283   1.384
66236W        W38661  19.150   2.854   2.343
66237W        W38662  22.141  10.185  10.119
66238W        W38663   5.260  41.901  12.395
66239W        W38664   2.265  40.421  10.982
66240W        W38665  43.799  21.743   2.275
66241W        W38666   0.921   2.327  12.852
66242W        W38667  21.641  27.957  13.346
66243W        W38668  38.398   3.719  12.897
66244W        W38669  38.351   0.391   1.870
66245W        W38670   8.690   1.306  13.387
66246W        W38671   8.807  17.169   2.866
66247W        W38672  25.631  44.475  12.509
66248W        W38673  15.124   7.294  14.886
66249W        W38674   2.413   4.886   4.344
66250W        W38675   0.313  41.911  14.875
66251W        W38676   4.244   3.838   4.696
66252W        W38677   0.278  41.534   4.254
66253W        W38678  11.760  36.067   0.275
66254W        W38679   1.763  42.892  14.779
66255W        W38680   4.908  10.658   4.269
66256W        W38681  19.576  41.393  12.892
66257W        W38682   8.314  10.142  10.635
66258W        W38683  40.968  11.373  14.841
66259W        W38684  32.079   6.813   3.275
66260W        W38685  19.543  35.421   1.872
66261W        W38686  44.412  22.557  13.344
66262W        W38687   4.746   0.484   1.295
66263W        W38688  31.072  20.530   0.848
66264W        W38689   2.442   2.946  12.868
66265W        W38690  26.094  44.931   3.646
66266W        W38691  20.564  24.985   0.957
66267W        W38692   7.380   9.349  14.437
66268W        W38693  27.652   8.375  12.388
66269W        W38694  16.715   7.262  12.928
66270W        W38695  13.823  11.348   1.912
66271W        W38696  10.224  37.526  14.438
66272W        W38697  22.238  18.125   4.819
66273W        W38698   2.429  27.087   2.835
66274W        W38699  17.212   2.881  12.887
66275W        W38700  19.248  28.132   3.165
66276W        W38701  27.683  34.392  10.538
66277W        W38702  13.611   9.835   0.931
66278W        W38703  38.545  14.336   3.289
66279W        W38704  22.007  27.604  13.845
66280W        W38705  42.780  27.599  14.301
66281W        W38706  20.273   8.191   0.860
66282W        W38707   4.717   9.856   9.932
66283W        W38708  29.991  10.748   0.257
66284W        W38709  16.578  38.569  11.961
66285W        W38710  25.611  18.675  11.983
66286W        W38711   3.861  21.238  13.883
66287W        W38712  10.196  22.118  11.067
66288W        W38713  23.186  28.536  14.442
66289W        W38714  29.935  34.584   4.599
66290W        W38715  12.733   8.208  10.526
66291W        W38716  41.934  20.166   3.772
66292W        W38717  14.826  33.411   3.701
66293W        W38718  26.115  22.502  11.934
66294W        W38719   4.815  43.341   2.695
66295W        W38720  33.577  38.833   4.838
66296W        W38721  19.758  23.169   2.389
66297W        W38722  24.485   0.912   2.761
66298W        W38723  13.242  22.094   5.134
66299W        W38724  26.580  40.887  10.561
66300W        W38725  41.954  12.767   5.280
66301W        W38726   8.844  10.864   2.306
66302W        W38727  25.683  43.966  11.476
66303W        W38728  17.785  19.647   3.384
66304W        W38729  32.631  23.092   1.887
66305W        W38730  32.397  23.532   3.150
66306W        W38731  17.198  39.826  13.433
66307W        W38732  43.493   1.848  11.426
66308W        W38733  27.986  14.260   3.357
66309W        W38734  39.035   8.745   1.855
66310W        W38735  37.082   1.345  11.935
66311W        W38736  22.746  22.066   1.234
66312W        W38737  37.943   0.801  14.848
66313W        W38738  30.143  24.130  10.002
66314W        W38739  30.942  25.664  12.494
66315W        W38740  14.797  39.049  10.625
66316W        W38741  43.021  30.094   0.956
66317W        W38742   2.347  30.983   0.938
66318W        W38743  40.354  18.142   1.225
66319W        W38744  25.599  26.627  13.002
66320W        W38745  43.016  24.140   1.777
66321W        W38746  22.995  10.278  12.967
66322W        W38747  17.565  31.402   4.658
66323W        W38748  12.281  18.101   3.676
66324W        W38749  40.334  23.049   2.308
66325W        W38750   2.375   5.720  12.453
66326W        W38751  18.650  23.687   3.757
66327W        W38752  41.453   7.220  12.845
66328W        W38753  13.679  25.182  10.987
66329W        W38754   8.360  33.131  13.982
66330W        W38755  37.019   6.364   9.667
66331W        W38756  14.306  25.614   2.286
66332W        W38757  39.403  12.160  14.345
66333W        W38758  32.623   0.327  14.464
66334W        W38759  14.183   2.841   3.343
66335W        W38760   2.283   5.780  10.424
66336W        W38761   1.894  27.514   4.295
66337W        W38762   8.834  31.036   0.293
66338W        W38763   4.438  27.497   0.777
66339W        W38764  42.406  15.121   4.162
66340W        W38765  33.486   8.308   3.710
66341W        W38766  27.999   7.758  14.355
66342W        W38767  22.028  31.077  12.938
66343W        W38768  27.141  37.346   3.699
66344W        W38769  12.665  35.856  14.515
66345W        W38770  23.168  15.181   2.416
66346W        W38771  15.280  35.959  10.479
66347W        W38772  27.944  44.455   1.275
66348W        W38773  44.333  23.123   3.316
66349W        W38774  15.720   5.737   2.877
66350W        W38775  42.464  16.595   0.331
66351W        W38776  40.461  15.765  10.519
66352W        W38777   3.724  39.974  10.427
66353W        W38778  14.697  19.234  11.896
66354W        W38779  12.182   4.286  11.867
66355W        W38780  27.952  43.999   2.347
66356W        W38781  28.507  26.547  11.448
66357W        W38782  42.403  13.107   4.348
66358W        W38783  34.412  12.658   4.729
66359W        W38784  23.612  10.826  13.454
66360W        W38785  25.129  14.271   0.739
66361W        W38786  21.558  42.909  14.452
66362W        W38787   4.909   2.253   1.290
66363W        W38788  18.651  31.973  14.385
66364W        W38789  43.404  21.638   0.909
66365W        W38790  38.503   4.250  14.429
66366W        W38791   6.344  16.086  12.979
66367W        W38792  40.306   9.850   4.152
66368W        W38793  43.816  40.901  13.410
66369W        W38794  33.425   0.342   2.841
66370W        W38795  24.025   4.843  11.888
66371W        W38796  33.099  23.635  13.412
66372W        W38797  18.790   9.774  14.982
66373W        W38798  18.777  44.439  10.011
66374W        W38799  17.280  38.052   4.752
66375W        W38800  31.413  12.160  14.445
66376W        W38801  12.247  27.030   4.250
66377W        W38802  12.245  21.532   1.821
66378W        W38803   7.856  40.424  10.593
66379W        W38804  19.192  24.631   0.352
66380W        W38805  19.779  14.099   2.314
66381W        W38806  42.503   1.388  10.473
66382W        W38807  16.290  12.818  12.970
66383W        W38808   4.404   1.421   2.246
66384W        W38809  19.165  26.675  13.340
66385W        W38810  34.502  14.608   3.370
66386W        W38811   2.898  14.228  11.406
66387W        W38812  40.315  10.668   1.861
66388W        W38813  13.350  31.555   0.437
66389W        W38814  23.589   3.771   4.813
66390W        W38815   9.736   7.319  14.842
66391W        W38816  20.130  15.689  13.883
66392W        W38817  36.068   5.838  13.542
66393W        W38818  44.932  10.294   3.692
66394W        W38819  40.386  13.151   2.415
66395W        W38820  34.493  39.434   0.836
66396W        W38821  35.899  31.004  13.349
66397W        W38822   3.300   2.337   5.096
66398W        W38823  23.115  43.450   3.357
66399W        W38824  41.029  23.154   4.623
66400W        W38825   3.945  31.455  11.958
66401W        W38826   6.704  11.197  11.544
66402W        W38827  42.776   8.887   3.375
66403W        W38828   9.261   1.376   0.735
66404W        W38829  33.098  29.033  13.997
66405W        W38830  22.597  16.656   0.243
66406W        W38831  22.558   2.437  11.587
66407W        W38832   6.248   4.214  14.489
66408W        W38833   0.917  33.003   2.813
66409W        W38834  38.894  29.548   5.182
66410W        W38835  18.158   5.373  14.954
66411W        W38836   2.805  30.963  14.301
66412W        W38837   5.771   8.719  11.582
66413W        W38838  12.781  37.571   4.696
66414W        W38839   7.264  24.009   3.661
66415W        W38840   4.715  35.579  13.495
66416W        W38841  43.984  16.612  10.593
66417W        W38842   5.801   4.334  13.464
66418W        W38843   8.659  40.037   1.892
66419W        W38844   2.420  11.233  11.882
66420W        W38845  16.745  11.173  14.361
66421W        W38846  33.599  11.725  11.553
66422W        W38847  32.503   6.415  14.350
66423W        W38848  24.552  37.852   1.868
66424W        W38849   5.832  17.802  10.458
66425W        W38850  23.193  34.419  10.972
66426W        W38851  42.448  37.336  12.842
66427W        W38852  14.679  34.930  10.988
66428W        W38853  23.567  33.513   0.857
66429W        W38854   8.393  34.120  11.869
66430W        W38855  36.055  41.430  11.051
66431W        W38856  21.583   6.856  12.535
66432W        W38857  26.084   6.903   2.804
66433W        W38858  39.826   1.754  14.515
66434W        W38859  29.509  14.595   4.777
66435W        W38860   7.369  32.498  11.597
66436W        W38861  40.422  14.770   2.887
66437W        W38862   3.253  21.231   2.846
66438W        W38863  30.505  16.778   3.309
66439W        W38864  39.046  42.857  12.992
66440W        W38865  26.508  24.696   0.310
66441W        W38866  17.779  23.203  14.289
66442W        W38867  33.402  24.049   1.874
66443W        W38868  33.923  20.214   3.835
66444W        W38869   5.917  42.476   1.364
66445W        W38870  22.695   5.227  14.287
66446W        W38871   6.914   2.270   4.604
66447W        W38872   7.220  41.475   4.605
66448W        W38873  11.173  39.338  10.614
66449W        W38874  10.661   6.747   1.227
66450W        W38875  12.840  24.550   5.677
66451W        W38876  18.613  42.524   1.907
66452W        W38877  41.449   3.431  10.902
66453W        W38878  44.260  41.415   3.231
66454W        W38879  30.990  37.056   3.713
66455W        W38880  26.486  11.838   5.249
66456W        W38881   1.410   8.269   1.769
66457W        W38882  34.578  14.594  11.911
66458W        W38883  30.017  38.076  12.913
66459W        W38884  25.204  39.021   4.263
66460W        W38885   7.835   6.886   1.798
66461W        W38886   6.313  41.855   3.792
66462W        W38887   8.270  32.029   1.406
66463W        W38888  12.668  20.681   2.754
66464W        W38889   6.219  11.846  13.451
66465W        W38890  32.049   3.315   0.279
66466W        W38891   9.779  33.076   4.341
66467W        W38892  41.537  43.469   4.623
66468W        W38893  22.164  35.933   0.293
66469W        W38894   7.321  28.971  12.944
66470W        W38895  39.397  38.424   3.779
66471W        W38896  24.998   6.908   3.757
66472W        W38897  41.459  39.901   0.949
66473W        W38898  38.960  33.030  13.463
66474W        W38899   8.291  18.213  14.808
66475W        W38900   3.815   2.307  13.040
66476W        W38901  12.820  13.702   4.222
66477W        W38902  40.844  41.023   0.284
66478W        W38903  44.845  20.186   0.946
66479W        W38904  18.257  28.020   2.771
66480W        W38905   3.952  15.791  12.432
66481W        W38906  19.586   6.856  10.579
66482W        W38907   3.239  21.090  14.912
66483W        W38908  19.616  20.051   4.351
66484W        W38909  37.518  21.212   1.362
66485W        W38910  17.099  34.369  11.415
66486W        W38911  25.628  37.008  11.959
66487W        W38912  36.900  20.037  13.375
66488W        W38913  43.446  25.584   4.718
66489W        W38914  12.346  20.128  14.329
66490W        W38915  37.396  23.685  13.327
66491W        W38916  34.393  14.165   4.762
66492W        W38917  12.685  11.228  14.788
66493W        W38918  35.853   1.810   4.678
66494W        W38919  39.375  19.767  14.768
66495W        W38920  10.772  36.972  12.980
66496W        W38921  16.793   8.174  11.911
66497W        W38922  16.220  38.037   1.729
66498W        W38923  40.034   3.930  14.835
66499W        W38924  37.873  22.668   4.729
66500W        W38925  12.640  13.185  13.810
66501W        W38926  18.754  13.329   3.371
66502W        W38927  38.388  15.148  10.442
66503W        W38928   4.761  23.493   2.888
66504W        W38929  27.687  21.577   4.329
66505W        W38930  39.393  35.852   0.905
66506W        W38931  34.117   5.294   1.840
66507W        W38932  36.880   5.392   4.246
66508W        W38933  14.684  24.180  11.380
66509W        W38934  30.975  18.119   3.307
66510W        W38935  41.529  26.693   4.268
66511W        W38936  41.537  10.153  12.086
66512W        W38937  27.971  38.559   4.630
66513W        W38938  18.252   4.831   0.378
66514W        W38939  15.601  18.632   0.276
66515W        W38940  12.223  15.158   1.426
66516W        W38941  24.711  35.923   1.858
66517W        W38942   7.208  22.713   4.250
66518W        W38943  30.599  27.632   1.362
66519W        W38944  29.972  14.334   3.782
66520W        W38945  26.142  28.588  13.007
66521W        W38946  21.703  14.745   0.279
66522W        W38947  43.931  43.420  14.302
66523W        W38948  22.118  13.760   4.802
66524W        W38949  43.414  26.642   2.391
66525W        W38950  37.978   8.280   2.862
66526W        W38951  41.423  10.695  10.598
66527W        W38952  25.628  34.498  13.791
66528W        W38953  12.611   1.862   1.906
66529W        W38954  43.781  29.667   2.217
66530W        W38955  38.495  37.471  14.883
66531W        W38956  10.223  36.092   3.798
66532W        W38957  23.569  33.985   0.774
66533W        W38958  21.662   1.455   3.639
66534W        W38959  25.178  38.917   1.379
66535W        W38960   5.290  43.368   2.715
66536W        W38961  29.125   9.826   3.738
66537W        W38962   7.247  34.919   4.190
66538W        W38963  33.409  15.108   3.661
66539W        W38964  26.484  21.651  12.083
66540W        W38965  33.996  13.600   4.660
66541W        W38966   9.711   5.866   0.817
66542W        W38967  12.718   8.248  11.111
66543W        W38968  44.279  31.555  11.110
66544W        W38969   8.661  20.577  12.999
66545W        W38970  30.128  21.101   4.670
66546W        W38971  38.874   5.724  13.319
66547W        W38972  26.636   1.249  13.906
66548W        W38973  20.737  42.001   2.794
66549W        W38974  41.429  26.467   1.345
66550W        W38975  35.372   6.687  14.361
66551W        W38976  37.349  26.671  11.572
66552W        W38977  25.487  32.406   5.081
66553W        W38978  33.481  26.631  12.013
66554W        W38979  23.531  21.684  14.936
66555W        W38980  29.489  10.174  13.427
66556W        W38981  31.519  29.053   4.177
66557W        W38982  38.842  37.955  13.831
66558W        W38983   5.325  24.523  11.422
66559W        W38984  41.952  36.058   5.130
66560W        W38985  41.332  20.229   3.834
66561W        W38986   2.273   7.907  13.436
66562W        W38987  40.833  37.011   0.924
66563W        W38988  36.073  28.584  11.863
66564W        W38989  24.076  27.962  11.538
66565W        W38990  40.320  42.389   4.331
66566W        W38991  35.880  20.726   2.343
66567W        W38992  37.379   2.871  11.558
66568W        W38993  26.954  27.644   1.286
66569W        W38994  35.071  41.946   3.763
66570W        W38995   2.466  34.401  10.155
66571W        W38996  25.145  30.478  10.421
66572W        W38997  43.982   3.239  12.930
66573W        W38998  26.485  21.243  12.019
66574W        W38999  30.061  35.936   4.606
66575W        W39000  20.250  14.746  13.432
66576W        W39001  30.958  29.584   2.757
66577W        W39002  34.952  11.631  11.097
66578W        W39003  19.075   5.286  11.102
66579W        W39004   6.365   6.367   2.838
66580W        W39005  41.821  13.679  14.849
66581W        W39006  44.851  13.122   1.356
66582W        W39007  42.956  18.110   2.893
66583W        W39008  44.297  32.098  14.904
66584W        W39009  12.238  29.487   1.889
66585W        W39010  20.066  35.860  14.975
66586W        W39011  44.278  27.661   0.280
66587W        W39012  31.979   6.226   4.780
66588W        W39013  24.546  38.980  14.765
66589W        W39014  30.907  25.491   1.918
66590W        W39015  22.127  23.669  12.041
66591W        W39016   3.823  42.511  11.930
66592W        W39017  36.411  41.407  11.885
66593W        W39018  17.283  44.363   4.298
66594W        W39019   2.849  17.161   4.184
66595W        W39020  15.742   3.879   1.275
66596W        W39021  16.207  32.090   5.263
66597W        W39022  14.164  11.219   0.254
66598W        W39023  12.127  29.533   4.157
66599W        W39024  15.602  43.484   4.329
66600W        W39025  12.709  24.553   1.915
66601W        W39026  24.045  13.111   4.228
66602W        W39027  14.202  37.471   0.943
66603W        W39028  25.469  31.015   0.419
66604W        W39029  40.384  28.953  11.944
66605W        W39030  44.296  29.476  14.436
66606W        W39031  33.072  24.702   2.389
66607W        W39032  24.224  37.856  12.849
66608W        W39033  21.602  10.377   4.779
66609W        W39034  28.474  31.931   0.756
66610W        W39035  22.609  31.096  12.030
66611W        W39036  21.129  11.738  11.048
66612W        W39037  44.871  44.894  13.886
66613W        W39038  18.181  21.031   5.152
66614W        W39039  24.058  40.840   3.341
66615W        W39040  22.648  31.909   1.249
66616W        W39041  14.660  33.588  13.990
66617W        W39042  22.723  12.756  10.030
66618W        W39043  18.691  32.548  11.914
66619W        W39044  27.007  38.527   3.691
66620W        W39045  33.882  16.184  12.359
66621W        W39046  35.453  21.716   1.394
66622W        W39047  43.953  22.691  13.530
66623W        W39048  36.453   6.365   5.267
66624W        W39049  18.167  28.169   0.379
66625W        W39050  14.182  31.548  11.990
66626W        W39051   8.734  23.572   0.803
66627W        W39052  25.060  19.542   1.751
66628W        W39053  17.663   3.857  11.570
66629W        W39054  31.463  12.130   1.228
66630W        W39055  20.230  26.457   5.128
66631W        W39056  37.943  12.793   2.196
66632W        W39057   8.773  29.163   3.146
66633W        W39058   8.373  14.786   0.785
66634W        W39059  20.270  11.750  10.061
66635W        W39060  28.009  26.592   0.465
66636W        W39061  22.098  37.543  13.536
66637W        W39062   4.334  30.058  12.471
66638W        W39063  40.947  43.459   4.699
66639W        W39064  35.052   8.235   1.264
66640W        W39065  44.966   2.732   2.256
66641W        W39066  14.761  31.025  12.352
66642W        W39067  13.765  22.227  11.964
66643W        W39068  27.147  34.593  13.517
66644W        W39069  37.433  35.601   3.292
66645W        W39070  28.034   6.778  14.415
66646W        W39071  34.549  14.732   1.880
66647W        W39072  14.097   9.727  10.568
66648W        W39073   6.900  32.067   1.253
66649W        W39074  20.539  37.343  14.357
66650W        W39075  21.118  28.125   3.192
66651W        W39076  36.493  35.853  10.042
66652W        W39077  11.763  24.708   1.224
66653W        W39078  40.472  29.608   0.321
66654W        W39079  44.494  21.620   3.372
66655W        W39080  38.012  28.565   0.789
66656W        W39081  35.010  20.154  12.992
66657W        W39082  33.396  40.380   3.222
66658W        W39083  33.392  26.034  14.775
66659W        W39084  26.486  20.125  10.957
66660W        W39085  24.631  39.438  14.950
66661W        W39086  17.291  28.456  14.500
66662W        W39087   5.204  11.679   2.767
66663W        W39088   8.831  29.068  14.387
66664W        W39089  32.541  19.168   4.343
66665W        W39090  32.043  19.607   2.862
66666W        W39091  23.494  26.519   9.979
66667W        W39092  34.057  40.935   0.326
66668W        W39093  28.937  26.579   4.296
66669W        W39094  37.339   1.432  12.446
66670W        W39095  40.320  31.969   2.212
66671W        W39096   9.341  17.581  13.499
66672W        W39097  40.546  41.850   3.650
66673W        W39098  12.831  15.626   2.815
66674W        W39099   4.893  30.630   3.362
66675W        W39100   7.259  33.463  13.309
66676W        W39101  25.122  12.808  13.889
66677W        W39102  21.668  26.125  11.867
66678W        W39103  30.122  13.350  14.350
66679W        W39104  15.106  12.225  14.445
66680W        W39105  16.619  12.828  14.427
66681W        W39106   6.413  21.681  12.567
66682W        W39107  42.375  22.549   3.765
66683W        W39108  17.663  37.033  13.040
66684W        W39109  10.194  31.470   1.779
66685W        W39110  13.149  34.563  10.463
66686W        W39111  31.579  19.224  11.410
66687W        W39112  10.815  11.655   2.254
66688W        W39113  28.006  29.959  13.543
66689W        W39114  34.896  12.238   0.321
66690W        W39115  15.724   7.776   3.260
66691W        W39116  26.129  36.369   4.733
66692W        W39117  30.518  35.870  14.409
66693W        W39118  19.607  31.072   0.446
66694W        W39119  36.479  31.104  10.629
66695W        W39120  37.087   2.771  14.848
66696W        W39121  20.076  40.854  14.828
66697W        W39122  21.048  39.474   4.799
66698W        W39123   6.685  37.493  12.366
66699W        W39124  35.061  11.683  13.854
66700W        W39125  20.634  42.819   3.298
66701W        W39126   6.762   9.203   2.389
66702W        W39127  30.456  11.764   1.250
66703W        W39128  41.508   7.251  13.418
66704W        W39129  38.834  24.167  14.514
66705W        W39130  27.534  21.635  10.552
66706W        W39131  29.982  37.530  11.387
66707W        W39132  38.968  27.080  12.023
66708W        W39133  15.279  17.732  14.031
66709W        W39134   1.316  37.900   0.357
66710W        W39135  40.860  37.898   1.245
66711W        W39136   7.779   7.743   2.728
66712W        W39137   9.651  35.541   2.199
66713W        W39138  31.988  28.451  13.420
66714W        W39139  13.237   4.788  12.033
66715W        W39140  19.755  19.633  13.543
66716W        W39141  20.570  33.086  14.872
66717W        W39142   4.324  43.375  12.949
66718W        W39143  29.437   4.272   3.701
66719W        W39144  21.256   0.405  14.491
66720W        W39145  23.558  38.387   1.741
66721W        W39146  26.999  31.896   5.783
66722W        W39147  42.321  42.488  13.475
66723W        W39148  32.526  31.051   3.701
66724W        W39149  19.536  43.901   4.278
66725W        W39150  40.516  34.094  12.897
66726W        W39151  31.066  10.236  10.463
66727W        W39152   9.382  29.426   4.607
66728W        W39153  30.595  19.072  11.448
66729W        W39154   9.722  37.833   1.439
66730W        W39155  37.431  41.345   0.318
66731W        W39156  31.132  41.950  14.352
66732W        W39157  20.586  28.165  14.502
66733W        W39158  12.119   2.457  14.823
66734W        W39159  29.589  16.665  11.120
66735W        W39160  41.365  22.536   9.988
66736W        W39161  13.623  24.993  13.994
66737W        W39162   6.813  40.309  12.893
66738W        W39163  23.191  14.258  13.393
66739W        W39164   2.810  21.588  12.381
66740W        W39165  39.502  34.907   2.762
66741W        W39166  27.532  13.604   0.430
66742W        W39167  31.514  26.542   2.686
66743W        W39168  29.119  43.356  14.353
66744W        W39169  30.107  21.651   4.811
66745W        W39170  31.044   4.441   0.337
66746W        W39171   3.836  13.797   2.839
66747W        W39172  40.884   9.386  14.444
66748W        W39173  12.805  35.930   3.167
66749W        W39174  35.510  40.405   4.262
66750W        W39175  10.833  23.630   2.294
66751W        W39176  41.499   8.314  10.599
66752W        W39177  35.430  39.871   1.871
66753W        W39178  30.026  22.715   4.611
66754W        W39179  31.027  17.743  12.950
66755W        W39180   6.864   9.846  14.846
66756W        W39181  10.754  20.529   2.829
66757W        W39182   5.840  19.712   1.329
66758W        W39183  19.663  21.540   2.781
66759W        W39184  24.174  28.438  12.397
66760W        W39185  39.971  20.586   1.216
66761W        W39186  39.945  19.578  12.504
66762W        W39187  35.862  12.211   3.844
66763W        W39188  16.725  33.569  13.459
66764W        W39189  31.406   5.273  13.805
66765W        W39190  12.757   2.857   4.281
66766W        W39191   1.321  12.273   4.258
66767W        W39192  30.016  37.957  14.431
66768W        W39193  41.023  19.154  14.368
66769W        W39194   8.839  34.975   5.222
66770W        W39195   2.379  26.555  10.940
66771W        W39196  22.183  36.993  13.489
66772W        W39197  15.201  30.439   2.222
66773W        W39198  17.617   7.755   0.243
66774W        W39199  13.207   1.356   1.336
66775W        W39200  21.200  44.478   4.761
66776W        W39201  32.060  33.400   3.153
66777W        W39202   7.670  23.658   0.783
66778W        W39203  14.124  20.055   0.850
66779W        W39204  40.544   8.210   3.655
66780W        W39205  40.469  42.930   1.218
66781W        W39206  24.217   2.899   1.402
66782W        W39207  27.979  38.375   2.381
66783W        W39208  25.479  24.578   2.178
66784W        W39209   1.361  35.075   1.223
66785W        W39210  28.164  43.410  12.019
66786W        W39211   4.774   1.844   1.923
66787W        W39212  10.850  24.027  12.371
66788W        W39213  44.478  21.567   5.313
66789W        W39214  43.347  40.824  14.301
66790W        W39215  10.700  18.180  12.878
66791W        W39216  39.055   5.420  14.311
66792W        W39217  41.497  12.775  13.924
66793W        W39218  21.544  37.846  10.482
66794W        W39219  41.490  23.992  14.358
66795W        W39220   9.732   7.737  12.354
66796W        W39221  37.378  31.013  11.589
66797W        W39222  40.869  43.453   1.259
66798W        W39223   0.762  17.165   1.344
66799W        W39224  20.211  24.582  14.406
66800W        W39225  35.551  20.628  13.452
66801W        W39226  44.854  12.162   3.354
66802W        W39227  29.425  30.972   2.336
66803W        W39228  23.172   4.360   0.813
66804W        W39229  14.603  39.317   0.349
66805W        W39230   2.425  30.580  10.602
66806W        W39231  24.617  12.734   0.944
66807W        W39232  23.621   6.708   4.307
66808W        W39233   6.419   0.932   4.831
66809W        W39234  19.212  30.631  14.768
66810W        W39235   6.333  17.256  10.594
66811W        W39236   1.300   0.374   3.662
66812W        W39237  35.573  40.416   0.242
66813W        W39238  17.780  35.535   3.693
66814W        W39239  21.746  41.790   3.284
66815W        W39240  17.208   8.776   0.306
66816W        W39241  31.447  35.557   1.267
66817W        W39242   8.406   4.437   4.174
66818W        W39243  43.867  42.875   3.841
66819W        W39244  33.002  43.795   3.727
66820W        W39245  35.907  43.887  10.577
66821W        W39246   2.313  30.043  13.503
66822W        W39247  14.127   0.399  13.907
66823W        W39248  42.001   3.778  13.547
66824W        W39249  18.101  39.036  12.988
66825W        W39250  39.018  29.653  10.499
66826W        W39251  27.033  36.015  10.986
66827W        W39252  41.015  14.675   4.643
66828W        W39253  38.438   1.912  12.992
66829W        W39254  36.935  23.985  11.072
66830W        W39255  32.936  30.084  13.307
66831W        W39256  44.302  24.577  14.341
66832W        W39257  38.479  32.973   1.286
66833W        W39258  36.372  12.171   2.388
66834W        W39259  18.695  26.670   4.175
66835W        W39260  32.984  12.623  12.907
66836W        W39261   1.350  26.477  10.450
66837W        W39262  40.509  21.157   1.890
66838W        W39263  23.624  25.049   2.415
66839W        W39264   1.881   6.204   3.249
66840W        W39265  42.394  25.043  13.440
66841W        W39266  44.990   8.189   4.294
66842W        W39267   9.877  11.174   3.822
66843W        W39268   5.401   4.744  10.511
66844W        W39269  12.755  29.481   4.156
66845W        W39270  26.956  18.064  10.984
66846W        W39271  16.652  36.466  12.464
66847W        W39272  15.763  34.918  11.548
66848W        W39273  41.293   5.346   3.780
66849W        W39274  13.227   8.883  10.142
66850W        W39275  22.023  14.714   3.836
66851W        W39276  29.134  34.549   3.203
66852W        W39277  43.496  34.903   3.685
66853W        W39278  18.276  11.761  11.969
66854W        W39279  37.026  13.172  12.494
66855W        W39280  14.613  13.340  13.529
66856W        W39281  32.099  27.558   4.224
66857W        W39282  23.214  22.712  10.913
66858W        W39283  21.221  39.044   4.192
66859W        W39284  40.370  33.508  11.422
66860W        W39285   3.718  22.684  14.348
66861W        W39286  14.319  40.379  12.456
66862W        W39287  17.225  15.320  14.475
66863W        W39288  43.798  42.429  13.505
66864W        W39289  43.403  39.539  12.430
66865W        W39290  24.077  39.463   2.242
66866W        W39291   0.452  19.260   1.697
66867W        W39292  26.961   0.365  12.912
66868W        W39293   8.377   6.841   3.299
66869W        W39294  25.064  15.124  11.080
66870W        W39295  16.258   3.402  12.827
66871W        W39296  31.443  21.110  14.419
66872W        W39297   1.876   3.422  10.544
66873W        W39298   2.329   9.824  12.902
66874W        W39299  22.740  27.459  11.936
66875W        W39300   1.785  37.492   0.336
66876W        W39301  22.113   3.344   4.620
66877W        W39302  43.396   4.912  13.321
66878W        W39303  21.174  27.013  14.501
66879W        W39304  27.599  29.553  12.479
66880W        W39305  24.709   2.961   1.300
66881W        W39306  36.941   6.688  13.535
66882W        W39307   2.789  24.560   1.781
66883W        W39308  13.615  17.706   4.738
66884W        W39309  29.459  18.075   4.776
66885W        W39310  19.053   8.657  14.440
66886W        W39311   3.880  40.418   2.795
66887W        W39312   6.264  33.625   3.767
66888W        W39313  25.542  41.857  11.997
66889W        W39314  12.744  35.566   4.262
66890W        W39315  12.255   7.230  13.458
66891W        W39316  37.068  22.231   0.428
66892W        W39317  11.684  21.546  11.867
66893W        W39318  23.573  19.123   2.254
66894W        W39319   3.904   3.240   0.815
66895W        W39320   6.896  12.257   3.365
66896W        W39321  13.291   3.249  13.819
66897W        W39322   2.238  18.630   1.708
66898W        W39323  15.725  25.064   1.411
66899W        W39324   9.735  29.529   2.683
66900W        W39325  30.593  20.146  14.496
66901W        W39326   8.194  13.348   4.823
66902W        W39327   2.932  19.211  10.475
66903W        W39328  44.361   6.830   0.954
66904W        W39329  20.050  25.985   1.339
66905W        W39330   5.836  36.362  14.885
66906W        W39331  32.628  28.933  13.951
66907W        W39332  26.615  17.099  13.958
66908W        W39333  29.936   0.383  10.556
66909W        W39334  26.591  29.652   2.273
66910W        W39335  11.666  14.697   1.793
66911W        W39336  23.676  16.787   2.316
66912W        W39337  31.438  34.493  11.981
66913W        W39338  38.076  27.156   4.188
66914W        W39339  42.890  20.084   5.287
66915W        W39340  16.657  36.046   1.297
66916W        W39341  17.269  23.677  10.996
66917W        W39342  25.489  37.980   4.738
66918W        W39343  40.859  27.523  12.090
66919W        W39344  28.559  39.445   0.388
66920W        W39345   7.903  18.581   2.276
66921W        W39346  35.936  11.237   0.419
66922W        W39347  11.349  43.966  11.030
66923W        W39348  42.903  15.273  11.574
66924W        W39349  16.648  38.946  13.374
66925W        W39350   0.876  19.696   2.827
66926W        W39351  22.742  20.123   0.358
66927W        W39352  37.453  33.593   5.218
66928W        W39353  28.089  15.099   3.698
66929W        W39354  44.880  27.571  14.847
66930W        W39355  29.170  34.923   0.839
66931W        W39356  22.539   0.319   4.744
66932W        W39357  40.345  32.950  14.969
66933W        W39358   3.331  20.707  13.507
66934W        W39359  28.981   8.305  14.790
66935W        W39360  34.536  26.114   4.342
66936W        W39361  44.993   7.702  12.405
66937W        W39362   6.773  41.973  10.592
66938W        W39363   4.836  41.872  12.519
66939W        W39364   5.319  28.930  11.064
66940W        W39365  43.442  18.614  13.968
66941W        W39366   1.355  29.075  12.479
66942W        W39367   8.724  18.715  14.355
66943W        W39368  37.441  16.684   2.824
66944W        W39369  38.377   7.361   1.272
66945W        W39370   7.687  19.148  11.600
66946W        W39371  39.527   4.919   4.745
66947W        W39372  35.485  31.134  13.544
66948W        W39373  40.938  20.623   3.696
66949W        W39374   0.875  38.921  12.092
66950W        W39375   8.704  24.690  12.972
66951W        W39376  16.228   6.389   1.262
66952W        W39377   6.875  31.974   3.228
66953W        W39378  14.789  11.670   5.316
66954W        W39379  29.571  30.020  11.949
66955W        W39380  39.427  41.519   1.742
66956W        W39381  21.547   3.750  12.475
66957W        W39382  34.531  26.632  11.929
66958W        W39383  28.995  35.966  10.406
66959W        W39384  34.414  20.077  10.408
66960W        W39385  22.123  24.978  12.571
66961W        W39386   0.971  40.487  14.779
66962W        W39387  17.692  37.003  13.492
66963W        W39388  15.644  10.724  14.358
66964W        W39389  25.123  21.226   1.886
66965W        W39390  36.402  31.496   1.696
66966W        W39391  23.035   5.349   1.890
66967W        W39392  42.999   1.731   4.605
66968W        W39393  12.157  38.555   4.645
66969W        W39394  25.010  14.183  13.998
66970W        W39395   4.746  31.934  13.063
66971W        W39396   1.798  11.214   0.766
66972W        W39397  37.431   6.391   1.329
66973W        W39398   9.256  24.551   0.465
66974W        W39399  36.850  38.368  14.447
66975W        W39400  16.097  18.545   4.319
66976W        W39401  15.289   1.736  12.873
66977W        W39402  24.546  44.777   0.857
66978W        W39403   4.753   4.346  14.788
66979W        W39404  17.237   0.938   5.098
66980W        W39405   2.454   7.804  11.980
66981W        W39406   2.787   8.821   5.153
66982W        W39407  20.691   2.917  13.866
66983W        W39408   4.349  17.585   4.824
66984W        W39409  23.196  36.388  12.953
66985W        W39410  42.007  10.670  13.338
66986W        W39411  41.511  24.135   2.206
66987W        W39412   5.868  42.516   0.897
66988W        W39413  30.646  33.055  11.554
66989W        W39414  10.841  21.096  13.542
66990W        W39415  38.507  22.132   1.352
66991W        W39416  19.638  28.633  14.015
66992W        W39417  19.108  43.422  12.949
66993W        W39418  14.774  40.508   2.786
66994W        W39419  21.683  38.482   4.613
66995W        W39420  34.962  28.652   2.188
66996W        W39421  38.041  16.780   4.835
66997W        W39422   4.910  17.634   4.125
66998W        W39423   3.325   2.778  11.577
66999W        W39424  15.247  14.721  12.563
67000W        W39425   6.424  33.508  11.077
67001W        W39426   7.392   5.912  11.572
67002W        W39427  28.070  42.418  12.506
67003W        W39428   8.390  33.945   1.928
67004W        W39429  16.644   3.945   2.748
67005W        W39430  26.993  40.022   4.188
67006W        W39431  22.629   2.926  11.082
67007W        W39432  11.211  42.942  12.902
67008W        W39433   8.662  15.252   4.770
67009W        W39434   8.769  41.490  11.529
67010W        W39435  21.192  40.304   0.242
67011W        W39436  20.142  39.994  10.499
67012W        W39437   5.406  34.974  11.514
67013W        W39438  20.544  18.680   1.838
67014W        W39439  39.043  21.139  11.532
67015W        W39440  15.232  34.890   0.387
67016W        W39441   5.844  22.015  10.962
67017W        W39442  20.555  36.928   2.679
67018W        W39443   4.347  20.056   0.447
67019W        W39444  13.740  42.371  10.427
67020W        W39445  12.782  10.294  11.083
67021W        W39446  11.669  30.111  13.951
67022W        W39447  19.175  44.954  14.878
67023W        W39448  16.259  35.054   5.242
67024W        W39449   6.267  31.553  14.495
67025W        W39450  35.921  18.727   2.778
67026W        W39451   0.270   0.264  11.024
67027W        W39452  32.905   6.385   1.223
67028W        W39453  39.943   6.705   3.796
67029W        W39454  18.770   7.671  13.544
67030W        W39455  27.663  11.179  14.340
67031W        W39456  12.338  36.961  13.518
67032W        W39457  42.923  18.683  10.446
67033W        W39458  43.299   8.759   2.903
67034W        W39459  34.387  11.697   4.816
67035W        W39460  21.519  25.017  13.880
67036W        W39461   7.849  33.391   1.308
67037W        W39462  14.733  24.010  14.450
67038W        W39463  34.572   8.239  12.018
67039W        W39464   6.690  23.209   3.843
67040W        W39465  44.939   6.713  11.987
67041W        W39466  11.851  32.562  10.007
67042W        W39467  26.060  18.764   2.813
67043W        W39468  41.293   0.408   3.366
67044W        W39469  15.229  24.052  13.062
67045W        W39470  39.001  40.945  11.576
67046W        W39471  10.162  31.915  11.543
67047W        W39472  18.586  24.134   2.662
67048W        W39473  29.987   2.803  14.371
67049W        W39474  37.369  35.961   2.867
67050W        W39475  43.903  30.081  13.484
67051W        W39476  34.874  33.088  11.473
67052W        W39477  14.194  30.571   1.698
67053W        W39478  25.571  24.526  14.764
67054W        W39479  24.649  34.088   1.704
67055W        W39480  31.532  27.109   0.262
67056W        W39481  15.725   0.810   0.282
67057W        W39482  30.435  27.641   1.800
67058W        W39483  41.880  35.007   2.374
67059W        W39484  39.051   9.723   2.382
67060W        W39485  13.608  14.655  14.382
67061W        W39486   6.803   1.275   1.343
67062W        W39487  22.582  10.727   1.343
67063W        W39488  15.648   9.759   1.847
67064W        W39489  36.879  10.770   2.664
67065W        W39490  32.035  23.036   1.915
67066W        W39491  28.611  23.638   9.507
67067W        W39492  21.029  20.645   1.914
67068W        W39493  42.877   5.850   0.280
67069W        W39494  24.176  28.566  13.888
67070W        W39495  17.647  42.518   0.445
67071W        W39496   6.905  18.602   1.796
67072W        W39497  15.319  12.849   2.396
67073W        W39498   8.784  16.709   1.256
67074W        W39499   1.792  24.999   1.363
67075W        W39500  14.145   8.224   1.736
67076W        W39501  35.078  36.357   1.237
67077W        W39502  16.758  25.991   1.695
67078W        W39503  34.993   6.785   5.260
67079W        W39504  14.296   9.255   4.599
67080W        W39505  21.144  38.359  12.501
67081W        W39506  25.192   9.180   0.836
67082W        W39507  32.585   0.759   4.213
67083W        W39508  28.528  18.177  11.989
67084W        W39509   6.833  43.873  14.836
67085W        W39510   6.330  13.337   2.699
67086W        W39511   4.402  37.390  12.889
67087W        W39512  13.806  35.094   2.416
67088W        W39513   9.681  22.512  11.952
67089W        W39514  24.492  37.920   0.285
67090W        W39515  43.489  38.844  13.361
67091W        W39516   5.898   0.881  13.907
67092W        W39517  39.551  43.409   0.949
67093W        W39518  31.999  22.679   2.185
67094W        W39519  29.561   9.684   4.133
67095W        W39520  37.365   3.776  11.913
67096W        W39521  30.034  43.981  11.932
67097W        W39522  33.444  15.623   0.318
67098W        W39523  20.236   5.338  14.445
67099W        W39524  17.564   4.281  11.572
67100W        W39525   8.679  18.062   1.307
67101W        W39526  16.794  41.514  11.098
67102W        W39527  39.964   9.870  11.884
67103W        W39528  14.653   1.832  10.993
67104W        W39529   0.867   7.751  12.036
67105W        W39530  34.417   3.359   3.270
67106W        W39531   5.300  41.041   0.378
67107W        W39532  35.425  11.640   2.321
67108W        W39533  44.848  23.115  12.868
67109W        W39534  21.039  17.095  12.535
67110W        W39535  33.517   5.860  10.138
67111W        W39536  28.015  16.278   0.868
67112W        W39537  30.101  10.285  11.989
67113W        W39538  13.135  22.023  10.952
67114W        W39539  17.644  25.657  10.454
67115W        W39540  29.041   6.306  12.414
67116W        W39541   0.899   4.266   2.226
67117W        W39542  18.189   5.929   4.632
67118W        W39543   2.465  35.890   1.771
67119W        W39544  19.681  41.492  11.907
67120W        W39545  27.651  37.500   1.393
67121W        W39546  35.581  41.380   0.828
67122W        W39547  37.430   7.217   1.706
67123W        W39548  29.160   0.344   3.355
67124W        W39549  24.160  42.980   5.148
67125W        W39550  39.356  15.599  11.601
67126W        W39551  32.486  37.448   4.244
67127W        W39552  11.621  12.645   3.857
67128W        W39553  12.228  38.033  14.802
67129W        W39554  13.180   8.892   4.716
67130W        W39555   4.422  26.092  14.997
67131W        W39556  28.138  40.480   3.796
67132W        W39557  27.951  44.951   1.431
67133W        W39558  29.993  14.713   3.729
67134W        W39559  32.889  29.663   4.231
67135W        W39560  23.541  29.437  13.535
67136W        W39561  32.994  13.204  13.537
67137W        W39562  43.510  10.657   3.306
67138W        W39563  22.073  25.497   3.755
67139W        W39564   6.279  35.368   3.204
67140W        W39565  39.401  44.756  12.522
67141W        W39566  34.438   3.311  11.016
67142W        W39567  21.715   8.231   4.280
67143W        W39568  15.778   7.247   1.879
67144W        W39569   9.219  11.353   1.783
67145W        W39570   5.195  26.478   4.717
67146W        W39571  23.103  29.576   0.900
67147W        W39572  20.083  16.685   2.275
67148W        W39573  19.221  23.712  10.613
67149W        W39574  29.063   2.291  11.526
67150W        W39575  39.394   7.342  13.508
67151W        W39576   4.779  14.278  14.452
67152W        W39577   3.453   7.203  11.394
67153W        W39578  35.508  33.096  12.070
67154W        W39579  20.591  21.565  14.916
67155W        W39580  29.951  20.182  11.120
67156W        W39581  38.456   7.769  11.515
67157W        W39582   1.932  15.211  11.576
67158W        W39583  21.030  12.169   2.379
67159W        W39584  26.035  27.602   4.669
67160W        W39585   1.953  41.372   3.708
67161W        W39586  20.528  30.042  13.420
67162W        W39587   6.210  27.544   1.904
67163W        W39588  30.048   0.889  13.973
67164W        W39589  25.067  25.965  10.554
67165W        W39590  22.141  21.571   4.771
67166W        W39591  27.671  31.426   5.663
67167W        W39592  42.938  10.660   3.173
67168W        W39593  15.709  11.718  13.358
67169W        W39594   0.339  27.648   3.842
67170W        W39595  25.110  38.959   2.780
67171W        W39596  31.954  42.831   2.408
67172W        W39597  43.830  30.962   2.713
67173W        W39598  40.974   8.362  11.123
67174W        W39599  31.911   2.266  13.015
67175W        W39600  18.769  30.111  11.501
67176W        W39601  16.304  18.248   0.820
67177W        W39602   5.310   8.805   5.182
67178W        W39603  17.777  13.195  12.519
67179W        W39604  11.215  15.213   1.877
67180W        W39605  27.148  17.275  12.456
67181W        W39606  38.823   7.856   0.367
67182W        W39607  39.540   9.264  12.023
67183W        W39608  33.971  32.435  11.004
67184W        W39609  26.012   4.779  10.926
67185W        W39610  38.047  27.964   9.945
67186W        W39611   6.268   6.329  11.509
67187W        W39612   5.812  38.001   0.259
67188W        W39613  41.917  10.821   2.665
67189W        W39614  19.167  33.575   3.318
67190W        W39615   8.790  17.676   1.415
67191W        W39616   5.815  25.676   3.320
67192W        W39617  38.005  35.540  12.411
67193W        W39618  27.551  32.448  11.552
67194W        W39619  34.402  10.800   4.310
67195W        W39620  19.779   9.767   1.841
67196W        W39621  16.233   8.325  14.842
67197W        W39622  17.143  10.229   3.679
67198W        W39623  27.044  33.925   0.379
67199W        W39624  38.374  20.618   2.227
67200W        W39625   8.273  38.436  13.526
67201W        W39626  21.520  20.556   4.694
67202W        W39627  37.993  14.752  14.415
67203W        W39628  34.530  14.263  10.580
67204W        W39629   8.770  38.558  12.967
67205W        W39630  14.111  26.974   3.236
67206W        W39631  17.784  25.181   2.675
67207W        W39632  11.672  38.421  10.488
67208W        W39633   6.235  28.012  12.962
67209W        W39634  11.369  29.648   0.771
67210W        W39635  27.010  24.207   0.451
67211W        W39636  27.507  29.566  11.062
67212W        W39637  25.564  44.807  10.476
67213W        W39638  14.220  39.364  14.314
67214W        W39639  12.306  11.687  10.583
67215W        W39640  27.655  36.948  10.636
67216W        W39641  16.777  30.473  13.344
67217W        W39642  21.019  25.023  10.033
67218W        W39643   0.770   7.292   0.869
67219W        W39644  29.589  39.438  10.961
67220W        W39645   6.824   6.383   3.821
67221W        W39646   9.810  33.125  13.983
67222W        W39647   8.354  40.848  12.576
67223W        W39648  26.549  38.365   2.678
67224W        W39649  34.092  15.588  14.436
67225W        W39650  18.557   4.797  11.006
67226W        W39651  23.050  11.635   3.210
67227W        W39652  17.129  24.555   4.153
67228W        W39653  37.391  38.416   3.811
67229W        W39654  39.504   4.219  10.891
67230W        W39655  31.919  36.588  12.421
67231W        W39656  28.577  33.476  10.419
67232W        W39657  23.171  21.560   2.388
67233W        W39658   6.341  27.184  11.411
67234W        W39659   6.239   4.410   4.289
67235W        W39660   3.339  30.107   1.349
67236W        W39661  35.506  12.645   4.150
67237W        W39662   5.403   6.194   4.230
67238W        W39663  37.073  42.527   1.699
67239W        W39664  13.332  24.715  12.487
67240W        W39665  44.427  13.180   4.304
67241W        W39666  19.041   5.812   2.181
67242W        W39667  19.226  23.138  13.993
67243W        W39668  33.927  33.495  10.977
67244W        W39669   3.399  24.995  11.502
67245W        W39670   0.989   9.279   2.340
67246W        W39671  20.731  17.592   3.258
67247W        W39672  38.896  37.547   1.866
67248W        W39673  23.708  37.495   3.245
67249W        W39674  10.341  33.039  14.392
67250W        W39675  28.936  25.483  14.863
67251W        W39676   8.367  16.749   0.897
67252W        W39677  27.940  17.250   0.902
67253W        W39678  30.972  23.163   4.707
67254W        W39679   7.850  23.692  10.547
67255W        W39680  15.266   6.908  12.062
67256W        W39681  35.927  42.365  14.504
67257W        W39682  38.542  36.086  12.440
67258W        W39683  14.160  41.440   1.240
67259W        W39684  20.675  39.933   3.695
67260W        W39685   6.873  14.652   2.275
67261W        W39686  20.752  30.503   4.182
67262W        W39687  37.015   2.877  13.825
67263W        W39688  16.097  34.463   5.113
67264W        W39689  16.666  31.418  13.042
67265W        W39690  37.492   8.672   2.404
67266W        W39691  16.115  41.335  12.066
67267W        W39692  41.954  44.922  12.556
67268W        W39693  19.764   0.324  13.848
67269W        W39694  22.523   9.156   4.722
67270W        W39695  28.514  41.472   5.804
67271W        W39696  25.062   3.912  12.570
67272W        W39697  42.335  25.207  12.572
67273W        W39698  29.438  31.488   4.743
67274W        W39699  40.945  44.389   4.804
67275W        W39700  19.613   5.840  13.307
67276W        W39701  19.169   4.900   3.695
67277W        W39702  37.378   9.239  12.835
67278W        W39703  23.719  31.638   2.876
67279W        W39704  10.671  39.849   3.770
67280W        W39705  11.152   2.322  12.910
67281W        W39706  21.552  29.023   0.956
67282W        W39707  38.847  24.481   2.844
67283W        W39708  29.052  18.267   1.814
67284W        W39709  24.719  29.074   4.641
67285W        W39710  42.008  24.504   3.634
67286W        W39711  36.523   1.278  11.046
67287W        W39712  39.029  24.094  11.450
67288W        W39713  19.689  32.491   0.965
67289W        W39714  24.478   7.834  10.404
67290W        W39715  15.798   4.933  13.318
67291W        W39716   2.894  37.934  11.464
67292W        W39717   2.230  31.587  12.423
67293W        W39718  43.516  16.093  10.505
67294W        W39719  13.838  27.106  13.915
67295W        W39720  44.844  12.830   4.290
67296W        W39721   9.682  36.848   4.145
67297W        W39722  20.588  21.753  12.548
67298W        W39723  22.707  32.125  10.493
67299W        W39724  33.112  34.476   0.358
67300W        W39725   5.907  11.135  13.519
67301W        W39726   8.305  11.263   3.318
67302W        W39727  19.240  24.032  12.501
67303W        W39728  10.656  11.216  12.998
67304W        W39729   6.731  16.265   0.363
67305W        W39730  35.928  18.564   4.831
67306W        W39731  23.988  39.375   1.718
67307W        W39732  21.216  17.235  14.370
67308W        W39733  11.196  42.390  13.498
67309W        W39734  40.470  14.225  10.993
67310W        W39735  24.640  43.348   0.896
67311W        W39736  31.559  43.915  13.411
67312W        W39737  42.293  33.944   1.282
67313W        W39738  38.033  20.525  14.360
67314W        W39739  36.519   8.780  12.409
67315W        W39740   5.254   2.412   0.749
67316W        W39741  42.003  16.770  10.459
67317W        W39742  17.081  38.559   2.332
67318W        W39743  38.076   7.686   2.900
67319W        W39744  23.501  11.212   1.759
67320W        W39745  16.100  20.086  10.624
67321W        W39746  25.105  27.641  12.915
67322W        W39747  24.605  26.682  14.360
67323W        W39748  44.904  30.002   1.351
67324W        W39749  40.456  34.417   2.716
67325W        W39750  40.021  44.282   1.934
67326W        W39751  37.370  23.670  10.996
67327W        W39752  26.047   9.746   4.174
67328W        W39753   3.913  30.086   4.127
67329W        W39754   5.804  41.853   4.755
67330W        W39755  16.221  35.369   5.720
67331W        W39756   2.957  36.927  11.580
67332W        W39757   2.416  29.155  13.519
67333W        W39758  40.532  19.113   1.315
67334W        W39759  18.678   0.895  11.542
67335W        W39760  34.118  26.032   4.124
67336W        W39761   4.310   8.824  13.923
67337W        W39762  14.298  42.008  10.602
67338W        W39763  22.572  41.514  12.959
67339W        W39764  14.321  27.666  13.013
67340W        W39765  44.757  16.746  11.516
67341W        W39766   4.830  24.085  10.554
67342W        W39767  27.996  22.510   0.893
67343W        W39768  19.172  17.102  13.986
67344W        W39769  22.620  22.690  11.127
67345W        W39770  19.272  30.090  12.041
67346W        W39771   8.370  43.909   4.233
67347W        W39772  36.964   6.800   4.829
67348W        W39773  22.570  38.341  10.411
67349W        W39774   6.346   2.937   1.323
67350W        W39775  43.405  24.043   3.152
67351W        W39776   3.797  32.080  10.639
67352W        W39777  11.169  23.124   5.201
67353W        W39778  15.230   0.469   3.214
67354W        W39779  24.718  16.199  12.037
67355W        W39780  37.848   4.887   2.814
67356W        W39781  34.887  28.572  13.452
67357W        W39782  17.272   6.423  14.956
67358W        W39783  15.577   9.834   2.696
67359W        W39784   1.803  17.209   2.412
67360W        W39785  22.158  29.483  10.932
67361W        W39786  18.130   2.729   1.830
67362W        W39787  39.982  25.155   4.347
67363W        W39788  14.658  43.366  10.622
67364W        W39789  20.034   2.800   4.251
67365W        W39790  20.719  10.198  14.309
67366W        W39791  31.444   0.363  12.957
67367W        W39792   6.819   4.899  10.890
67368W        W39793  11.655   4.741   1.210
67369W        W39794  14.212  28.131  10.438
67370W        W39795  16.790  41.536   1.347
67371W        W39796  42.800  17.095   0.871
67372W        W39797  39.968  27.151   2.731
67373W        W39798  26.682  11.834   0.801
67374W        W39799  38.562  33.033   3.871
67375W        W39800  18.772  21.656   4.702
67376W        W39801   9.171   7.287   0.435
67377W        W39802  34.604  22.028   1.280
67378W        W39803  10.864   7.678   2.273
67379W        W39804   1.943  40.455   2.835
67380W        W39805  25.001  34.970  10.889
67381W        W39806  20.569  26.179  12.094
67382W        W39807  19.085  34.117   0.476
67383W        W39808  12.827   2.838  13.336
67384W        W39809  31.475   7.744  13.322
67385W        W39810   9.342   8.319   3.691
67386W        W39811  26.152  11.768  14.335
67387W        W39812  31.430  27.656  13.334
67388W        W39813  30.917  20.760   3.795
67389W        W39814   4.705  32.069  10.418
67390W        W39815   1.361  42.936   3.351
67391W        W39816  11.823  40.867  10.476
67392W        W39817  15.636  25.690   4.629
67393W        W39818  23.498  20.199  13.355
67394W        W39819  39.461  30.153   4.188
67395W        W39820  37.061   7.719   3.375
67396W        W39821  32.546   4.432   0.405
67397W        W39822  41.469  34.404  13.309
67398W        W39823   7.682  37.476   3.853
67399W        W39824  38.448  43.427  12.927
67400W        W39825   4.744  42.941   5.231
67401W        W39826  27.089   7.246   2.861
67402W        W39827   2.232  40.052  12.971
67403W        W39828  29.921  38.480   3.697
67404W        W39829  24.006  35.955   3.221
67405W        W39830  13.828  36.555   2.889
67406W        W39831  22.580  13.214  13.342
67407W        W39832  32.618  19.079  13.451
67408W        W39833  27.692  28.668   3.822
67409W        W39834  40.887  30.464  14.906
67410W        W39835   4.338  33.518  14.977
67411W        W39836   8.874  40.975   2.204
67412W        W39837   5.767  35.492   1.935
67413W        W39838  30.965  35.964   2.345
67414W        W39839   2.849  28.089   0.902
67415W        W39840   5.258  20.096  14.865
67416W        W39841  29.423  27.617  14.350
67417W        W39842  37.376   3.351   4.687
67418W        W39843  35.508  22.672  11.563
67419W        W39844  41.901  28.576  11.006
67420W        W39845  44.469  17.724   0.820
67421W        W39846  25.516  30.571   3.783
67422W        W39847  16.703  24.176   0.400
67423W        W39848   5.286   9.643  10.527
67424W        W39849  27.044   3.868   3.701
67425W        W39850  42.805  34.027  10.947
67426W        W39851   3.950  22.636   0.960
67427W        W39852  16.178  34.614   4.169
67428W        W39853  31.119  35.046  10.465
67429W        W39854  14.333  43.489  12.975
67430W        W39855  36.459  14.183   1.881
67431W        W39856  33.908   3.830   0.324
67432W        W39857  25.148  33.614   1.249
67433W        W39858  12.838   3.456  13.952
67434W        W39859  37.991  24.101  12.380
67435W        W39860  14.097  23.655  12.519
67436W        W39861   8.394  21.045  10.464
67437W        W39862  35.526   1.873   2.341
67438W        W39863   1.254  32.115   2.253
67439W        W39864  18.194  10.855  11.382
67440W        W39865   2.810   3.804  13.500
67441W        W39866  25.964  13.318  12.856
67442W        W39867   7.191  40.489  11.036
67443W        W39868  37.052   1.419  14.297
67444W        W39869  18.772  41.414  10.644
67445W        W39870  16.232  31.488   1.884
67446W        W39871  27.079  35.012   2.316
67447W        W39872  38.822  15.714  13.480
67448W        W39873   4.231   4.924   2.346
67449W        W39874  10.200  34.996   4.214
67450W        W39875  40.395   9.717  14.804
67451W        W39876  36.890  34.902  14.479
67452W        W39877  16.576   6.381   0.918
67453W        W39878  20.073  43.478  14.279
67454W        W39879  23.733   8.688  11.098
67455W        W39880  43.900  21.758   9.487
67456W        W39881  23.062  22.697  13.310
67457W        W39882  18.660  32.524   0.949
67458W        W39883  16.290   0.316  12.472
67459W        W39884   4.781  11.673   5.130
67460W        W39885   7.407  34.102   2.742
67461W        W39886   5.318  22.614  13.375
67462W        W39887  31.490   0.408   0.761
67463W        W39888  44.995  30.447   2.367
67464W        W39889  19.199  18.271  14.803
67465W        W39890  37.977   6.729   1.329
67466W        W39891  43.440   8.832  10.442
67467W        W39892   6.755  25.712   1.801
67468W        W39893  28.546  31.911  12.843
67469W        W39894  25.969  20.691  10.545
67470W        W39895  32.436  15.781   3.370
67471W        W39896  28.105  28.633   4.241
67472W        W39897  12.833  12.200   3.166
67473W        W39898  22.171  14.310  10.556
67474W        W39899  12.266  19.168  10.539
67475W        W39900   5.301   4.210   3.213
67476W        W39901  43.451  10.231  14.828
67477W        W39902  41.502  30.995  14.761
67478W        W39903  19.574  36.915   2.391
67479W        W39904  39.474  25.565  13.411
67480W        W39905   5.702  25.570   2.347
67481W        W39906   1.304  37.549  14.997
67482W        W39907  37.930   8.209   4.137
67483W        W39908  22.185  37.898  14.336
67484W        W39909  36.079  39.883  14.900
67485W        W39910  41.967  27.632  13.841
67486W        W39911  38.570   9.373  11.101
67487W        W39912  13.349  33.021   3.762
67488W        W39913   2.234  44.381  11.398
67489W        W39914   9.281  27.024   4.160
67490W        W39915  37.923   6.837   4.322
67491W        W39916  17.303  32.953   4.245
67492W        W39917  10.260  29.930   2.868
67493W        W39918  11.761  32.977   2.804
67494W        W39919   0.481  18.579  14.864
67495W        W39920  12.851  30.486   2.367
67496W        W39921  41.426  40.322   1.272
67497W        W39922  41.906   9.890   2.209
67498W        W39923  12.333  28.534   4.770
67499W        W39924  38.020   7.799   1.382
67500W        W39925  13.662  41.515   4.224
67501W        W39926  20.722  17.258   0.812
67502W        W39927  39.510   0.385  12.943
67503W        W39928  15.172  33.076   3.146
67504W        W39929  29.071  38.361  12.560
67505W        W39930  16.574  20.057  14.907
67506W        W39931  38.414  15.618  13.536
67507W        W39932  12.815   2.877  12.043
67508W        W39933  43.445  18.149   0.363
67509W        W39934  11.325  30.535   2.310
67510W        W39935  37.911  23.239  12.357
67511W        W39936  32.392  18.261  14.388
67512W        W39937   6.844  40.310  11.041
67513W        W39938  34.500  21.674  11.376
67514W        W39939   8.374  35.962   0.377
67515W        W39940  28.568  35.873   0.312
67516W        W39941  34.961  22.050  11.504
67517W        W39942   8.898   7.799   1.276
67518W        W39943  27.161   7.760   3.763
67519W        W39944  36.951  20.200  10.421
67520W        W39945  24.184  29.641   4.276
67521W        W39946  39.986  29.555   1.212
67522W        W39947   4.936  42.500   1.412
67523W        W39948  19.211  24.044   4.614
67524W        W39949  22.657  44.784  11.440
67525W        W39950   0.916  35.998  11.964
67526W        W39951  10.233  13.135   4.659
67527W        W39952  13.622   6.311  12.049
67528W        W39953  29.100   9.182   2.200
67529W        W39954  38.396   9.354   3.344
67530W        W39955  21.687  38.983  12.988
67531W        W39956  43.994   7.776  10.998
67532W        W39957  31.586  32.607  14.367
67533W        W39958  18.102  41.919  10.907
67534W        W39959   5.288  18.722   2.771
67535W        W39960  16.284  31.900   5.758
67536W        W39961  11.184  10.363  13.433
67537W        W39962   9.290  15.328  13.812
67538W        W39963  40.960  27.643  13.911
67539W        W39964  20.140  27.463   4.164
67540W        W39965  17.583  44.922  14.293
67541W        W39966  34.973  38.968   3.216
67542W        W39967  31.528   9.866   4.157
67543W        W39968  21.238  15.771  12.845
67544W        W39969  38.561  26.595   1.799
67545W        W39970   6.855  29.480  12.827
67546W        W39971   1.786  13.815  14.365
67547W        W39972  34.453  35.860  14.941
67548W        W39973  38.843  10.662  12.409
67549W        W39974  21.120  40.000  13.436
67550W        W39975  39.560  11.694  12.580
67551W        W39976  30.456  20.271  13.839
67552W        W39977  24.537  15.317  14.802
67553W        W39978  34.937  33.959  12.954
67554W        W39979  43.407  30.930   1.328
67555W        W39980  10.195  28.168  14.298
67556W        W39981   4.271  40.474   3.183
67557W        W39982   2.733  28.120   3.767
67558W        W39983  37.394  30.434  12.046
67559W        W39984  44.824  17.557  10.632
67560W        W39985  44.964  17.138  10.446
67561W        W39986  18.603  19.538  14.869
67562W        W39987  22.540  41.897   2.797
67563W        W39988  13.302  23.542   3.296
67564W        W39989   8.688  30.629   0.763
67565W        W39990  10.763  35.028   1.350
67566W        W39991  24.522   4.874  10.629
67567W        W39992   6.773   8.279  14.354
67568W        W39993  40.985   8.666   3.759
67569W        W39994  13.640  10.369  14.339
67570W        W39995  12.806  23.492   4.300
67571W        W39996  13.653  14.336   1.876
67572W        W39997  32.042  11.657  14.772
67573W        W39998  13.110   0.370  13.838
67574W        W39999  43.859  14.596  11.485
67575W        W40000   8.398  25.696  14.850
67576W        W40001  22.701  36.395   1.347
67577W        W40002   0.356  30.637   4.226
67578W        W40003   1.938  43.774   4.784
67579W        W40004  23.237  13.286  14.442
67580W        W40005  42.282  10.289  13.349
67581W        W40006   2.924  29.099  12.925
67582W        W40007   3.869  44.352   3.802
67583W        W40008  22.690  14.633   3.368
67584W        W40009   3.895   0.256   3.348
67585W        W40010   4.892   7.731   2.805
67586W        W40011  44.759  32.138   2.226
67587W        W40012  25.605   5.427  11.860
67588W        W40013  42.305  37.916  13.310
67589W        W40014   2.254   9.295   3.708
67590W        W40015  43.324   2.262   0.885
67591W        W40016  42.888  16.076   4.797
67592W        W40017  38.067  32.905   2.323
67593W        W40018  13.271   6.378   3.243
67594W        W40019  26.620  20.541   4.148
67595W        W40020  37.007  23.020  12.564
67596W        W40021  35.905  14.658   3.670
67597W        W40022  39.027  29.462   2.240
67598W        W40023   0.936  28.993  12.049
67599W        W40024  17.165   6.235  13.798
67600W        W40025  31.135  10.180  14.973
67601W        W40026  13.838  18.770   0.272
67602W        W40027   9.786  36.538  12.981
67603W        W40028  38.049  27.962  14.988
67604W        W40029  36.942  42.483   2.285
67605W        W40030  23.527   3.769   2.760
67606W        W40031  12.304  27.513  12.956
67607W        W40032  39.363  18.678  14.449
67608W        W40033  11.303  31.490   0.453
67609W        W40034  26.038  19.111  11.532
67610W        W40035  39.533   8.839   2.410
67611W        W40036   4.254  43.920   4.748
67612W        W40037   6.804  14.597   0.276
67613W        W40038  13.679  40.933   0.318
67614W        W40039  10.743  38.896   4.312
67615W        W40040  10.785  17.592  12.060
67616W        W40041   9.331   3.790   0.839
67617W        W40042  15.252   4.286  13.024
67618W        W40043  32.115  36.567   5.231
67619W        W40044  35.409  37.578   4.290
67620W        W40045  38.505   6.423  10.521
67621W        W40046  22.093  13.327  13.419
67622W        W40047  34.050  29.948  14.776
67623W        W40048  38.892   4.265  14.292
67624W        W40049  38.541  23.595  11.579
67625W        W40050  18.709   2.331  14.512
67626W        W40051   4.241  12.765   2.863
67627W        W40052  10.353  27.456  14.827
67628W        W40053  24.009  13.688  10.490
67629W        W40054  41.936  44.980   0.849
67630W        W40055  10.271  21.736  11.592
67631W        W40056  22.141  36.377  11.959
67632W        W40057  17.145  17.176  10.906
67633W        W40058  23.017   2.751   0.755
67634W        W40059  43.487  30.109   3.715
67635W        W40060  26.697  29.941  11.577
67636W        W40061   5.786   4.750   0.307
67637W        W40062  16.763  22.648  11.085
67638W        W40063  23.077  13.292   3.376
67639W        W40064  19.199  21.138  14.299
67640W        W40065   3.792  14.628   1.308
67641W        W40066  37.515  42.031  13.401
67642W        W40067  15.756  43.320  10.964
67643W        W40068  37.932  18.241   3.235
67644W        W40069  41.007  22.504  11.869
67645W        W40070   6.252  11.277   1.796
67646W        W40071  42.438  28.602   3.635
67647W        W40072   0.412  43.975   3.202
67648W        W40073  44.381  44.323   4.311
67649W        W40074  42.470  40.972   0.349
67650W        W40075  39.016  23.586   2.675
67651W        W40076  10.854   8.316  10.585
67652W        W40077  31.111   3.221  11.933
67653W        W40078  21.192   5.417  14.300
67654W        W40079  12.623  26.619  13.860
67655W        W40080   4.214   0.477  12.444
67656W        W40081  34.579  39.437   4.762
67657W        W40082  12.181   6.778  11.588
67658W        W40083  39.951  26.621  14.474
67659W        W40084   0.763  38.995  10.146
67660W        W40085  18.229  22.192  12.035
67661W        W40086  27.457  27.173  14.000
67662W        W40087  42.358  41.850   2.896
67663W        W40088  37.833   1.775   5.139
67664W        W40089   4.327   4.805  13.860
67665W        W40090  13.830   6.881   2.715
67666W        W40091  44.928   1.829  11.600
67667W        W40092  30.019  15.749  14.371
67668W        W40093  40.943  22.647   2.296
67669W        W40094   1.763  34.475  13.474
67670W        W40095   8.866   6.852   1.800
67671W        W40096  16.774  15.743  14.939
67672W        W40097  30.016   2.825   1.695
67673W        W40098  33.483  24.162  11.532
67674W        W40099  38.876  26.583   0.355
67675W        W40100  31.078   3.379   0.379
67676W        W40101  37.528  37.523   1.382
67677W        W40102  41.514   0.862  10.937
67678W        W40103  38.366  40.052  12.404
67679W        W40104  32.511  36.511  10.545
67680W        W40105  36.593   3.899  12.068
67681W        W40106  41.792   7.896  11.590
67682W        W40107  15.800  35.512   3.708
67683W        W40108  23.710  37.051   2.741
67684W        W40109  41.317  34.980  12.956
67685W        W40110  40.315  28.597  14.795
67686W        W40111  34.371  14.660  11.035
67687W        W40112   8.256  31.963   2.838
67688W        W40113   9.670  10.787  10.411
67689W        W40114  29.660  16.784  10.526
67690W        W40115  11.226  22.704  12.974
67691W        W40116   6.311  25.613  10.495
67692W        W40117   0.348  31.924   9.980
67693W        W40118  25.210   4.419   4.828
67694W        W40119  43.392  20.108   3.223
67695W        W40120   8.781   7.366   0.416
67696W        W40121   8.331   9.332  11.959
67697W        W40122  41.868  39.942   1.873
67698W        W40123  23.166  18.097   0.397
67699W        W40124  28.460  30.413  10.558
67700W        W40125  41.446  15.089   1.262
67701W        W40126  26.086  20.596  13.017
67702W        W40127   6.225  27.528   0.869
67703W        W40128  11.285  16.121  14.966
67704W        W40129  22.710  20.067  10.436
67705W        W40130   1.278  26.142   4.744
67706W        W40131  42.460  16.622   3.362
67707W        W40132   9.736  36.078  13.339
67708W        W40133  20.609  33.449  14.875
67709W        W40134  14.294  14.265   4.799
67710W        W40135  34.399  29.102  11.382
67711W        W40136  24.198  39.406  11.047
67712W        W40137  23.525   9.863   9.546
67713W        W40138  37.552   6.231   3.792
67714W        W40139  26.645   0.906  12.849
67715W        W40140   8.198  39.320   2.678
67716W        W40141  17.775  26.547  13.989
67717W        W40142  27.523  16.776   2.676
67718W        W40143  44.319  21.124  11.499
67719W        W40144  28.521  28.664  13.426
67720W        W40145   6.266  42.317  14.007
67721W        W40146  15.632  43.462  12.878
67722W        W40147  22.617  13.774  12.829
67723W        W40148  44.792   8.819  14.303
67724W        W40149  11.835  40.445   1.361
67725W        W40150  27.601  42.863   0.825
67726W        W40151  34.608  16.262   4.754
67727W        W40152  36.432  16.096  11.006
67728W        W40153  27.999   9.374   4.776
67729W        W40154   8.192   0.466   0.253
67730W        W40155  41.023  36.045   0.343
67731W        W40156  19.198  40.798   2.690
67732W        W40157  37.002  18.782   0.836
67733W        W40158  28.961  32.080   1.755
67734W        W40159  21.142  36.516   1.793
67735W        W40160  12.270  39.510  12.340
67736W        W40161  15.258  38.378   0.248
67737W        W40162  18.678  10.194  11.911
67738W        W40163   8.746  25.971   4.195
67739W        W40164  34.568  26.551   0.797
67740W        W40165  13.347  36.578  14.824
67741W        W40166  42.510  16.077   0.434
67742W        W40167  22.047   0.792  11.975
67743W        W40168  20.758  32.890  11.012
67744W        W40169  20.153   4.333   3.812
67745W        W40170  31.125  44.981  13.835
67746W        W40171  40.513  19.657  13.393
67747W        W40172  14.624  41.451   5.146
67748W        W40173  15.103  16.807  12.418
67749W        W40174  33.469  44.369   0.934
67750W        W40175  40.812  20.221   0.835
67751W        W40176  26.626   6.230  12.006
67752W        W40177  23.235  23.515  14.485
67753W        W40178  13.314  13.200  10.516
67754W        W40179  42.522   7.835  14.441
67755W        W40180  11.655  11.202   3.152
67756W        W40181  40.832  13.254   0.855
67757W        W40182  37.997  34.928   1.846
67758W        W40183  40.454  27.571   4.196
67759W        W40184   8.309   8.207   4.645
67760W        W40185   5.806  42.775  12.509
67761W        W40186  17.728  35.036  11.558
67762W        W40187  31.032  40.857   2.223
67763W        W40188   3.447  18.593   1.374
67764W        W40189  30.467   1.451   0.925
67765W        W40190  31.494  30.085  10.465
67766W        W40191  11.247  39.857   1.862
67767W        W40192  19.648   2.272   1.898
67768W        W40193  30.471  32.131  10.492
67769W        W40194  15.683  35.864   4.673
67770W        W40195   7.265  32.992   2.713
67771W        W40196  21.671   7.223  12.344
67772W        W40197  35.576   2.940   2.419
67773W        W40198  15.211  15.637   4.683
67774W        W40199  28.949  19.770  11.996
67775W        W40200  18.253  28.933   0.279
67776W        W40201  14.717  11.164  13.917
67777W        W40202   3.741  34.920  14.995
67778W        W40203  18.109   5.270   3.819
67779W        W40204  12.162  27.553   2.855
67780W        W40205  27.019  44.832  11.858
67781W        W40206  15.642  26.540   3.666
67782W        W40207   3.915  21.693   1.723
67783W        W40208  32.596  38.073  13.963
67784W        W40209  29.535  41.441  10.003
67785W        W40210  41.496  25.163  12.953
67786W        W40211  32.500  32.921  14.843
67787W        W40212  24.695  20.107   4.690
67788W        W40213  29.070  32.604   3.348
67789W        W40214  10.191  11.807  12.440
67790W        W40215   6.844  27.976  13.938
67791W        W40216  31.500  42.471  13.862
67792W        W40217  39.983  29.007  11.421
67793W        W40218  32.412  14.317   1.791
67794W        W40219  44.277   6.836   5.188
67795W        W40220  16.074  16.575   1.224
67796W        W40221  27.088  20.109   1.732
67797W        W40222   4.207  33.424  14.439
67798W        W40223  20.105  36.995  10.968
67799W        W40224   2.339  21.126   4.630
67800W        W40225  23.057  18.725   1.257
67801W        W40226  37.944  39.858   1.415
67802W        W40227  29.656  40.968  11.057
67803W        W40228  22.246   9.793   1.763
67804W        W40229  16.767  11.668   2.722
67805W        W40230  10.671  29.081   1.446
67806W        W40231   9.338  44.882  13.532
67807W        W40232   9.319  41.905  11.074
67808W        W40233  22.550  21.529   2.800
67809W        W40234  43.401  35.460  14.329
67810W        W40235   7.322   1.971  13.796
67811W        W40236  36.071  44.291  12.506
67812W        W40237  31.588   6.874   0.952
67813W        W40238  27.586  20.085   0.440
67814W        W40239  41.033   2.391   3.345
67815W        W40240  10.716   7.906  14.306
67816W        W40241   9.678  29.127  13.429
67817W        W40242  35.529  41.955  12.876
67818W        W40243  16.286  38.042  14.975
67819W        W40244  25.541  31.462   0.291
67820W        W40245  11.794  42.372   3.167
67821W        W40246  34.905  15.242  10.495
67822W        W40247  15.800  38.852  12.085
67823W        W40248  12.744   8.776  13.535
67824W        W40249  41.409  15.155   2.183
67825W        W40250   1.959  24.162   5.165
67826W        W40251  42.374   7.719   3.315
67827W        W40252  37.384  32.049  14.886
67828W        W40253  12.350  31.900  13.881
67829W        W40254  19.688   7.696   4.223
67830W        W40255   2.738  30.543   0.775
67831W        W40256  23.668   8.293   1.218
67832W        W40257  43.416  26.592   1.449
67833W        W40258  18.775  19.182   1.411
67834W        W40259  14.738  11.194   1.720
67835W        W40260  13.762  38.459   0.844
67836W        W40261  39.410   6.788   4.236
67837W        W40262  10.673   5.716  12.833
67838W        W40263   5.784  13.629  11.561
67839W        W40264  18.101  25.623   3.313
67840W        W40265  37.893  21.565   0.303
67841W        W40266  16.745  35.391   2.324
67842W        W40267  14.334  22.601  11.875
67843W        W40268  37.562  21.691  13.964
67844W        W40269  15.278  14.326  10.605
67845W        W40270   4.816   8.324   4.317
67846W        W40271  43.939  40.350   4.203
67847W        W40272  15.687  42.953   1.266
67848W        W40273  11.629  37.850  12.048
67849W        W40274  35.884  28.057   2.860
67850W        W40275  22.218   1.355   2.246
67851W        W40276  16.743  27.066   1.212
67852W        W40277  34.053  14.126  12.479
67853W        W40278  31.497   4.778   2.760
67854W        W40279  13.833   7.756  10.931
67855W        W40280  42.888  22.039   2.829
67856W        W40281   2.765   9.280   2.824
67857W        W40282   8.379  15.767   1.853
67858W        W40283  10.836  19.735  12.538
67859W        W40284  30.080   5.911   0.325
67860W        W40285  19.151  38.559  14.884
67861W        W40286   2.845  18.189  13.064
67862W        W40287   1.978  23.623   2.706
67863W        W40288  10.856   6.256   3.711
67864W        W40289   3.246  16.189   2.252
67865W        W40290  24.490  21.066  14.451
67866W        W40291   0.419  39.546  12.041
67867W        W40292  32.609  19.243  10.918
67868W        W40293  22.069  43.808   4.685
67869W        W40294  12.245   5.907  14.868
67870W        W40295  11.280  19.281   1.402
67871W        W40296  16.575  10.264   0.331
67872W        W40297  14.620  40.331   3.716
67873W        W40298  32.893  32.137  11.954
67874W        W40299  17.220   5.193  10.140
67875W        W40300  19.650  21.683  11.552
67876W        W40301  31.432  44.398   0.365
67877W        W40302   4.889  41.027  12.091
67878W        W40303  28.569  43.469   0.310
67879W        W40304  34.440  36.387  13.365
67880W        W40305   7.775  34.423  14.353
67881W        W40306  11.625  39.390   0.457
67882W        W40307  22.026  13.254  13.871
67883W        W40308   9.156   6.710  14.416
67884W        W40309   3.368  36.470  14.854
67885W        W40310  11.632  32.057  13.542
67886W        W40311  28.032   3.813   1.870
67887W        W40312  28.464  11.831  12.907
67888W        W40313   4.247  23.572  14.423
67889W        W40314  23.583   3.395  10.587
67890W        W40315  37.462  37.494   0.743
67891W        W40316   1.290  43.979   3.751
67892W        W40317  13.639  14.276   4.601
67893W        W40318  12.736  44.876  13.805
67894W        W40319  23.180  43.483  12.460
67895W        W40320  26.683  20.766  11.043
67896W        W40321  24.571  38.018  11.597
67897W        W40322  33.014  13.713  11.084
67898W        W40323   8.737   1.952  10.561
67899W        W40324  38.567   6.201   3.814
67900W        W40325  27.081  44.366  14.430
67901W        W40326  13.308  32.027   1.229
67902W        W40327   0.430  35.528  12.565
67903W        W40328  44.875  14.138  13.396
67904W        W40329   3.803  17.134   4.212
67905W        W40330  27.116  34.528   1.906
67906W        W40331  37.905  18.108  10.992
67907W        W40332  25.021   9.881   3.804
67908W        W40333  32.504  44.285  10.420
67909W        W40334  39.420   7.734  13.363
67910W        W40335  25.058   4.302  14.458
67911W        W40336   2.339  10.228  12.429
67912W        W40337  44.386  10.678   1.846
67913W        W40338  31.970  17.174  11.004
67914W        W40339  24.576   9.229  14.010
67915W        W40340  23.226  38.546   3.631
67916W        W40341  21.662   6.201  11.396
67917W        W40342  44.338  11.324   1.884
67918W        W40343   4.267  16.254  12.544
67919W        W40344  43.900  36.088   3.650
67920W        W40345  35.937  36.375  12.058
67921W        W40346  36.940  40.931  12.981
67922W        W40347   4.866   5.260  11.455
67923W        W40348  26.569   6.371   2.361
67924W        W40349  17.096   5.207   2.781
67925W        W40350  32.132  37.522   3.268
67926W        W40351   1.875  25.994  12.835
67927W        W40352   7.249  22.547   0.932
67928W        W40353  44.882  39.363   2.198
67929W        W40354   1.837  14.816   4.618
67930W        W40355  36.852  21.656   4.176
67931W        W40356  39.346   9.302  11.462
67932W        W40357  22.188  40.430  11.879
67933W        W40358   2.453  27.675   3.346
67934W        W40359  20.232  26.562  11.508
67935W        W40360  20.749   0.868   4.127
67936W        W40361  25.993  35.861  14.839
67937W        W40362  10.156  28.082   2.294
67938W        W40363  20.089  44.276   3.848
67939W        W40364   3.738   7.351   3.663
67940W        W40365   4.290  12.657   4.322
67941W        W40366   6.365  12.717   1.250
67942W        W40367   1.975  18.148   4.114
67943W        W40368  24.061  20.044  14.802
67944W        W40369  28.621  34.538  14.801
67945W        W40370  41.974  36.057   1.724
67946W        W40371  31.512   0.378   2.258
67947W        W40372   4.744  22.528  11.036
67948W        W40373   8.657  21.142  14.802
67949W        W40374  19.585  12.197   2.333
67950W        W40375  11.820  30.981  14.355
67951W        W40376  42.413   3.950   1.828
67952W        W40377  36.894  36.895  14.845
67953W        W40378   3.458  36.459   1.850
67954W        W40379  18.742  25.514   0.474
67955W        W40380  23.080   3.460   1.924
67956W        W40381  15.131  33.995  11.107
67957W        W40382   3.799  25.075  11.045
67958W        W40383  19.153  24.109  14.967
67959W        W40384  44.972  31.503   1.730
67960W        W40385  19.235  34.545  14.009
67961W        W40386  41.481  36.410  12.360
67962W        W40387  39.330  25.082  12.538
67963W        W40388  12.638   6.721   3.781
67964W        W40389  31.004  39.864   1.342
67965W        W40390  12.654  31.947  10.943
67966W        W40391  41.904   9.268   4.689
67967W        W40392  24.525  35.491   1.328
67968W        W40393  41.976  18.250  10.009
67969W        W40394  14.594  10.379   1.361
67970W        W40395  33.464  21.560  14.344
67971W        W40396  42.787  33.098   0.790
67972W        W40397  14.267  23.493   2.709
67973W        W40398   5.293   1.891  12.028
67974W        W40399  15.748  18.728   1.365
67975W        W40400  17.071  19.647  12.089
67976W        W40401  17.729   2.331  13.792
67977W        W40402   2.816  40.938  13.892
67978W        W40403  26.669  11.240   1.847
67979W        W40404  33.571   4.446   4.341
67980W        W40405  14.672  32.948  12.055
67981W        W40406  33.381  31.614   4.712
67982W        W40407  33.615  24.563   1.802
67983W        W40408  30.523  27.517  13.811
67984W        W40409   1.854  17.732  10.610
67985W        W40410  29.567  25.206   5.130
67986W        W40411   3.823   8.884   4.700
67987W        W40412  37.998  16.201   2.257
67988W        W40413   6.826   7.747   3.184
67989W        W40414  40.377  21.239   5.771
67990W        W40415  26.075  32.897   4.684
67991W        W40416  44.863  43.939  12.841
67992W        W40417  17.267  39.403  10.518
67993W        W40418   5.434  39.048  11.372
67994W        W40419  27.551  11.182  11.915
67995W        W40420   8.849  39.534   4.657
67996W        W40421   4.245   2.775  13.014
67997W        W40422   8.263   9.154  12.496
67998W        W40423  36.085   5.873  13.991
67999W        W40424   3.417  23.734   1.440
68000W        W40425  24.722  22.085  11.427
68001W        W40426  24.017  26.600   0.848
68002W        W40427   8.162  18.162   0.766
68003W        W40428  31.480  37.005   0.252
68004W        W40429  28.503  39.388  10.030
68005W        W40430  30.102  27.518  13.324
68006W        W40431   5.827  39.927  11.610
68007W        W40432  40.823  41.830   3.255
68008W        W40433  21.073   9.344   4.236
68009W        W40434  41.322  36.511  13.487
68010W        W40435  38.966  22.129  10.993
68011W        W40436   9.808  16.742   1.344
68012W        W40437  20.049  16.760  12.948
68013W        W40438   5.414  35.371  11.958
68014W        W40439   0.337  41.964   4.178
68015W        W40440   6.773  10.293  12.940
68016W        W40441  21.558  28.117   1.700
68017W        W40442  11.698  30.512   4.735
68018W        W40443   5.402  39.445   1.441
68019W        W40444  25.014  35.102  12.092
68020W        W40445  29.507  44.954  12.097
68021W        W40446  34.579   7.803   0.966
68022W        W40447   3.340  11.861  13.503
68023W        W40448  33.504  28.963   1.446
68024W        W40449  14.749   4.318  14.419
68025W        W40450  44.843  24.561  14.967
68026W        W40451  28.974  32.634  10.575
68027W        W40452  43.848  32.016  10.065
68028W        W40453  24.090   1.750   0.855
68029W        W40454  26.485  13.805   1.425
68030W        W40455  39.852   3.329   4.196
68031W        W40456  24.126   4.400   1.223
68032W        W40457  23.187  10.176   3.266
68033W        W40458  18.712   9.796   2.821
68034W        W40459   0.259  30.139   3.180
68035W        W40460  14.734  34.585  11.447
68036W        W40461   6.292  18.253   4.751
68037W        W40462  31.034  29.623  11.463
68038W        W40463   1.362  38.866   2.728
68039W        W40464  25.503  23.094   0.335
68040W        W40465  30.074  18.594  14.986
68041W        W40466  23.210  43.835  11.879
68042W        W40467  42.994  19.692  14.424
68043W        W40468  15.125  15.238  12.557
68044W        W40469  33.429  23.578   3.166
68045W        W40470  41.916  21.525  10.097
68046W        W40471  10.382  14.701  11.012
68047W        W40472  31.506   5.878  13.040
68048W        W40473  34.610  34.019   1.265
68049W        W40474  31.084  22.538  11.961
68050W        W40475  26.124   5.197   2.880
68051W        W40476  40.472  27.025   2.215
68052W        W40477  17.268   3.722   0.808
68053W        W40478  26.024  37.452   4.228
68054W        W40479   1.855  15.701  13.929
68055W        W40480  11.239  28.445   1.870
68056W        W40481  14.698  19.074  11.581
68057W        W40482  13.164  18.686  10.990
68058W        W40483  20.089  26.963   4.285
68059W        W40484  36.381  23.575  14.912
68060W        W40485   3.733  42.295  14.851
68061W        W40486   7.691  38.484  11.447
68062W        W40487  40.452  12.649   0.915
68063W        W40488   8.304  27.483   4.684
68064W        W40489  17.186  29.160   4.184
68065W        W40490   2.230  13.802  14.326
68066W        W40491   2.457  27.961   0.334
68067W        W40492   3.411  15.620   3.179
68068W        W40493  16.311  44.401  10.520
68069W        W40494  39.809  37.024  11.443
68070W        W40495  18.666  14.245   1.835
68071W        W40496   6.702  44.850   4.751
68072W        W40497  16.567  27.074   3.193
68073W        W40498  19.162  23.195  12.044
68074W        W40499  29.612   9.675  13.546
68075W        W40500  28.027   1.925   0.403
68076W        W40501   8.233  20.638   1.884
68077W        W40502  15.673  31.036  13.413
68078W        W40503  29.119  20.654   3.729
68079W        W40504  27.996  16.164   4.347
68080W        W40505   5.254  19.065  13.983
68081W        W40506  29.958  30.457   0.474
68082W        W40507  15.674  32.137  11.078
68083W        W40508  43.459   5.872  14.973
68084W        W40509   5.726  43.497  11.997
68085W        W40510  39.819   5.419   0.296
68086W        W40511  32.619  20.560  11.517
68087W        W40512   2.442   5.357   3.847
68088W        W40513   7.383  43.493   4.126
68089W        W40514  38.050  42.809   5.252
68090W        W40515  35.410  12.167  13.868
68091W        W40516  11.373   5.436  13.901
68092W        W40517  25.688  31.900  12.040
68093W        W40518  41.798  10.714   0.431
68094W        W40519  36.851  29.664   2.190
68095W        W40520  44.338  39.424   4.684
68096W        W40521   3.450  21.618   4.323
68097W        W40522  11.730  43.481   2.220
68098W        W40523  10.194  39.961   3.849
68099W        W40524  37.975  21.544   1.374
68100W        W40525  15.156  19.735   0.759
68101W        W40526  37.478  12.626   4.686
68102W        W40527  36.015   1.442   2.178
68103W        W40528  26.094  11.770   1.893
68104W        W40529  31.970  17.756  11.545
68105W        W40530  24.501   1.927   3.221
68106W        W40531  18.696  41.945  13.866
68107W        W40532   6.745  19.065  12.442
68108W        W40533  41.389   1.864  11.111
68109W        W40534  37.048  44.399   2.214
68110W        W40535  30.031  25.646   1.931
68111W        W40536  31.563  36.995   2.343
68112W        W40537   8.317  40.486  13.475
68113W        W40538  13.272   6.264   1.258
68114W        W40539   9.181  16.215   2.340
68115W        W40540  32.474  38.884   3.826
68116W        W40541  43.923  29.931   0.276
68117W        W40542  37.439  10.183   2.257
68118W        W40543   6.902  32.960  10.635
68119W        W40544  40.412  24.577   2.812
68120W        W40545  25.606  21.050   3.824
68121W        W40546   8.169   7.679   3.860
68122W        W40547  44.299  31.021  14.853
68123W        W40548   6.413   2.912   3.271
68124W        W40549  25.549  22.245   2.676
68125W        W40550  12.722  33.036  10.578
68126W        W40551  22.047   6.893   1.356
68127W        W40552   9.841  22.747   4.123
68128W        W40553  41.990   7.822   4.138
68129W        W40554  21.070  44.469   1.438
68130W        W40555  20.217  22.080  11.572
68131W        W40556  30.066  10.763   3.153
68132W        W40557  39.412  22.674  13.995
68133W        W40558   8.863  38.338  10.559
68134W        W40559   8.327   6.753   1.816
68135W        W40560   6.830  12.174  13.832
68136W        W40561  19.280  29.525  11.390
68137W        W40562  30.506  28.121   2.691
68138W        W40563  30.613  17.294   0.941
68139W        W40564  28.042  44.493   4.665
68140W        W40565  35.958  26.018   0.928
68141W        W40566  28.930  36.901  14.910
68142W        W40567  27.067  22.689  11.010
68143W        W40568  36.446  10.697  12.387
68144W        W40569  43.330  17.063  14.836
68145W        W40570  28.061  23.219   9.947
68146W        W40571  31.596  20.712   0.738
68147W        W40572   9.233   4.745  10.054
68148W        W40573  42.947  14.133   2.340
68149W        W40574  35.918  37.903   1.789
68150W        W40575  16.707   2.756  13.061
68151W        W40576  12.745  32.887  13.985
68152W        W40577  27.063  36.938   1.821
68153W        W40578   5.861   3.310   1.878
68154W        W40579   6.317  35.105   4.682
68155W        W40580  44.962  41.993  14.328
68156W        W40581  15.319  24.479  14.314
68157W        W40582  10.647  32.611   3.681
68158W        W40583   8.809  20.037   2.226
68159W        W40584  26.492   1.422  11.066
68160W        W40585   2.822   3.931  12.939
68161W        W40586   3.868  10.705   3.220
68162W        W40587  25.481  29.070  10.550
68163W        W40588   5.687  17.672   1.348
68164W        W40589  41.536  20.681  12.882
68165W        W40590  40.923  15.740   0.947
68166W        W40591  30.603  31.124   0.312
68167W        W40592  26.574  24.155   0.327
68168W        W40593  11.759   6.863  13.022
68169W        W40594   1.336  11.292  12.977
68170W        W40595   0.869  34.516  12.071
68171W        W40596  36.043  44.854   0.858
68172W        W40597  26.099  26.046   4.147
68173W        W40598  27.156  24.644  14.812
68174W        W40599  44.420  42.957   0.366
68175W        W40600  27.165  30.079  12.855
68176W        W40601   6.799   6.691   3.701
68177W        W40602  14.208   4.806   0.449
68178W        W40603  38.553   2.371   1.294
68179W        W40604  35.547  38.023   3.309
68180W        W40605  39.045  43.432  14.305
68181W        W40606  36.965   2.852  12.972
68182W        W40607  32.034  12.633  10.014
68183W        W40608  27.612  42.328  12.057
68184W        W40609  12.133  23.203  11.937
68185W        W40610  26.084  35.929   3.371
68186W        W40611  29.015   7.822   4.157
68187W        W40612  40.866   9.735   4.218
68188W        W40613  40.994   6.905   1.285
68189W        W40614   6.815  11.786   4.668
68190W        W40615  27.181  11.154   1.293
68191W        W40616  17.271  33.887   2.266
68192W        W40617  20.662  10.742  13.401
68193W        W40618  14.323  35.032  10.417
68194W        W40619  23.572  40.807  11.453
68195W        W40620   3.328  16.603  11.010
68196W        W40621  38.483   7.291   0.441
68197W        W40622  32.930  36.861  14.375
68198W        W40623  17.233  36.878   1.361
68199W        W40624   1.244  14.773   4.657
68200W        W40625  12.676  32.512   2.771
68201W        W40626  15.273  40.979  12.028
68202W        W40627  37.348  19.067  13.967
68203W        W40628  33.094  18.114   1.319
68204W        W40629  19.739  10.150  13.846
68205W        W40630   5.800  11.746  13.989
68206W        W40631   0.466  19.729  10.934
68207W        W40632  29.131  32.599   3.737
68208W        W40633   4.926  13.811   4.132
68209W        W40634   5.872  26.581  14.495
68210W        W40635  41.882  37.060  14.769
68211W        W40636   4.859   2.321   0.768
68212W        W40637  15.772  23.689   3.715
68213W        W40638  10.198   2.863   2.667
68214W        W40639  18.711  39.908  12.987
68215W        W40640  24.067  33.993   2.234
68216W        W40641  33.958  40.811   3.794
68217W        W40642  40.423  16.780   0.895
68218W        W40643  36.902  28.100  13.542
68219W        W40644  25.134  16.204  10.637
68220W        W40645  23.541  25.184  11.028
68221W        W40646  17.272  18.716  11.965
68222W        W40647  32.103  34.574  11.890
68223W        W40648  37.024  40.803  11.434
68224W        W40649  26.981   5.240   1.843
68225W        W40650  23.229  14.830  13.951
68226W        W40651  27.605  26.632   1.237
68227W        W40652  24.694  20.256   4.167
68228W        W40653   5.794  20.049   0.831
68229W        W40654  36.448  26.483  10.406
68230W        W40655  29.034  36.537   2.325
68231W        W40656  26.964  40.895  11.894
68232W        W40657   0.420   1.255   4.239
68233W        W40658   8.283   5.859   1.931
68234W        W40659  25.632  10.329  11.566
68235W        W40660  35.444  34.613   1.307
68236W        W40661  24.219  13.783  13.390
68237W        W40662  17.557  17.727  14.786
68238W        W40663  12.643   1.257  13.038
68239W        W40664  42.520  34.377  10.510
68240W        W40665   3.326   3.722  11.115
68241W        W40666  20.693   4.907   2.210
68242W        W40667   7.709  13.344   3.858
68243W        W40668   4.420  38.906   0.845
68244W        W40669  36.956  11.281  10.624
68245W        W40670   5.287  34.524   0.914
68246W        W40671   8.740  41.451  13.920
68247W        W40672  19.655  10.792  12.477
68248W        W40673  19.682  39.854   1.357
68249W        W40674   1.449  35.918   0.790
68250W        W40675  27.086  12.139   3.364
68251W        W40676  38.972  31.936   4.261
68252W        W40677  23.509  15.708  11.046
68253W        W40678  41.517  42.288  13.992
68254W        W40679  25.672   5.430   4.797
68255W        W40680  14.166   3.864   3.835
68256W        W40681  17.174  18.058   3.380
68257W        W40682  30.934  25.024  14.349
68258W        W40683   2.234  19.179   3.646
68259W        W40684  41.357   8.248   0.465
68260W        W40685  25.472   4.353   3.859
68261W        W40686   7.367  20.253   2.192
68262W        W40687   6.299  42.441  10.585
68263W        W40688   4.881  21.729   3.183
68264W        W40689  42.003  37.035  13.412
68265W        W40690   0.419  34.485   4.711
68266W        W40691  11.285  11.806   1.309
68267W        W40692  36.004  39.457   3.180
68268W        W40693  17.733   3.430   3.193
68269W        W40694  41.983   3.874  13.061
68270W        W40695  11.202  36.472  12.415
68271W        W40696  43.466  30.516   1.845
68272W        W40697  11.314   5.407  12.377
68273W        W40698  14.631  25.687  10.492
68274W        W40699  39.507  36.854  12.542
68275W        W40700   2.411  36.574   4.609
68276W        W40701  13.784  33.517   0.777
68277W        W40702  13.234  14.709   3.252
68278W        W40703  29.161  33.392   0.456
68279W        W40704   5.239   2.783  10.467
68280W        W40705  11.237   3.844  11.068
68281W        W40706   4.914  44.429   0.388
68282W        W40707   2.417  35.518   3.643
68283W        W40708   1.795  39.832   4.324
68284W        W40709  23.702  21.166  10.550
68285W        W40710  31.073  37.392   4.772
68286W        W40711  41.853  18.550   0.481
68287W        W40712  30.590  10.817   4.302
68288W        W40713  32.134  43.931   1.883
68289W        W40714  11.796   6.261  11.383
68290W        W40715  36.546  11.145   1.753
68291W        W40716   9.357   1.901  11.086
68292W        W40717  16.787  10.694   0.935
68293W        W40718  15.700  11.250  12.501
68294W        W40719  12.342  36.358  13.051
68295W        W40720  28.121   6.818   1.838
68296W        W40721   4.367  42.885  13.043
68297W        W40722   5.275   9.857  14.776
68298W        W40723   9.220   0.267  12.874
68299W        W40724   4.408  29.161   0.824
68300W        W40725  38.494  28.130   3.174
68301W        W40726   7.321  40.036  12.017
68302W        W40727  32.608  24.201   4.621
68303W        W40728  33.972  22.513   3.820
68304W        W40729  28.982   5.921   4.772
68305W        W40730  30.134  40.991   3.847
68306W        W40731  19.276   1.927  10.941
68307W        W40732  21.740  24.691   2.898
68308W        W40733  32.108   2.326  12.574
68309W        W40734   6.348  27.086   3.825
68310W        W40735   5.733  27.504  13.509
68311W        W40736  25.650  27.960   0.962
68312W        W40737  39.906  34.007  13.912
68313W        W40738  13.190  24.002   5.253
68314W        W40739   5.403  28.113  14.292
68315W        W40740  14.758   2.285  13.537
68316W        W40741  44.278  12.235  12.433
68317W        W40742   9.773  28.943   3.761
68318W        W40743  25.212  19.611   3.339
68319W        W40744  40.410  20.764  10.488
68320W        W40745  25.067  32.137  11.510
68321W        W40746  15.192  18.104  11.552
68322W        W40747  43.874  14.217   3.245
68323W        W40748  31.940  42.798   4.819
68324W        W40749  19.737  44.292   2.676
68325W        W40750  39.996  13.774   0.341
68326W        W40751  10.201  31.000   4.643
68327W        W40752  38.853  33.500   5.158
68328W        W40753  17.089   2.917   1.760
68329W        W40754  16.726   3.750   1.443
68330W        W40755   8.270  19.275  11.577
68331W        W40756  28.056  36.949  10.990
68332W        W40757  44.334  15.809   4.323
68333W        W40758   3.794   6.242  11.866
68334W        W40759  14.144  10.370   4.208
68335W        W40760  40.888  16.105   2.234
68336W        W40761  43.422  43.514   3.350
68337W        W40762   7.176   7.757   0.293
68338W        W40763   9.862  26.970   2.342
68339W        W40764  29.553  42.284   0.405
68340W        W40765   1.851  36.977   4.143
68341W        W40766   6.723   2.950   1.700
68342W        W40767  20.028   6.711   3.839
68343W        W40768  22.101  34.962  13.333
68344W        W40769  24.646  19.547  14.486
68345W        W40770  10.174   9.787   4.742
68346W        W40771  19.135  38.524  13.455
68347W        W40772  20.256  35.026  13.372
68348W        W40773  34.094  30.141  13.545
68349W        W40774   7.280  19.106  13.467
68350W        W40775  44.934   2.358  10.911
68351W        W40776  36.043  25.994   4.191
68352W        W40777  22.997   8.839   9.925
68353W        W40778  29.574  34.535   4.327
68354W        W40779  38.432  26.535   2.201
68355W        W40780  31.038  26.180   4.655
68356W        W40781  43.358  17.749   4.342
68357W        W40782  24.985   1.923  11.927
68358W        W40783  16.628  29.159  12.956
68359W        W40784   2.328  21.648   1.832
68360W        W40785  27.086  31.624   2.354
68361W        W40786   8.297  19.752  11.587
68362W        W40787  18.060  22.746   3.805
68363W        W40788  35.379  24.152  14.400
68364W        W40789  32.013  42.826  10.608
68365W        W40790  43.018   2.899  13.500
68366W        W40791   7.300  22.081   3.352
68367W        W40792  37.079  44.322  11.101
68368W        W40793  27.066  39.966   1.704
68369W        W40794  33.380   2.372   3.727
68370W        W40795   4.363  32.057  11.474
68371W        W40796  19.160  29.020   4.749
68372W        W40797  34.384  11.675  14.364
68373W        W40798  18.739  43.470   3.241
68374W        W40799   1.279  21.255  12.554
68375W        W40800  44.896  33.890   3.235
68376W        W40801   3.930  36.365   4.154
68377W        W40802   9.672  36.533   2.203
68378W        W40803  38.847   4.892  11.877
68379W        W40804  17.215  12.177   4.194
68380W        W40805   1.416  34.387  10.991
68381W        W40806  31.012  25.990   1.286
68382W        W40807   7.361  14.179   4.631
68383W        W40808   0.350  22.045  12.548
68384W        W40809  38.936  35.597   1.842
68385W        W40810  14.703  33.000   1.250
68386W        W40811  10.771  15.771  12.393
68387W        W40812  11.715  20.690   1.716
68388W        W40813  14.766  20.551   1.748
68389W        W40814  18.746  18.748   3.335
68390W        W40815  42.441  15.175   3.830
68391W        W40816   6.235  32.089  10.451
68392W        W40817   3.880  39.957   0.930
68393W        W40818  16.730   3.305   3.682
68394W        W40819  41.519  39.474   4.785
68395W        W40820  10.649  41.932   3.161
68396W        W40821  14.793   2.336  12.055
68397W        W40822  38.497  17.194  11.121
68398W        W40823  35.944  20.162  11.549
68399W        W40824  42.390  42.884   3.861
68400W        W40825  31.120  21.517  14.021
68401W        W40826   5.205  16.709  12.061
68402W        W40827  22.581  18.169  13.812
68403W        W40828   1.866  15.111  12.419
68404W        W40829  25.074   3.246   1.358
68405W        W40830   8.675  39.341   2.338
68406W        W40831  21.183  44.276   2.318
68407W        W40832   9.243  39.059  14.990
68408W        W40833  28.464  39.065   4.280
68409W        W40834   9.359  36.054   5.206
68410W        W40835  27.944   8.370   3.185
68411W        W40836  29.939   6.399   1.431
68412W        W40837   0.845   0.967  13.907
68413W        W40838  30.095   1.905   1.779
68414W        W40839   6.306  17.779  10.909
68415W        W40840  23.026   3.948  14.312
68416W        W40841  17.114  31.014  14.012
68417W        W40842  40.535  26.169  12.909
68418W        W40843   6.240  37.483  10.556
68419W        W40844   9.713  15.295  10.955
68420W        W40845  30.539  21.723   1.878
68421W        W40846   3.812  12.785  10.923
68422W        W40847  11.655  31.518  14.820
68423W        W40848   3.418  23.008  11.081
68424W        W40849  17.161  32.610   3.700
68425W        W40850  10.240   3.242  13.324
68426W        W40851  35.509  17.676  13.921
68427W        W40852   8.881  21.131   0.878
68428W        W40853   5.752   3.909   3.232
68429W        W40854  44.359  23.704   0.766
68430W        W40855  10.341  25.132  14.759
68431W        W40856   8.192  17.233   0.255
68432W        W40857  21.639  21.142  10.529
68433W        W40858  15.300  10.820   1.739
68434W        W40859  12.627  14.803   4.611
68435W        W40860  19.561  43.290  12.551
68436W        W40861  32.907  17.643   3.344
68437W        W40862  28.155   7.794  10.895
68438W        W40863  15.225  26.650   4.236
68439W        W40864   8.683  16.601  14.955
68440W        W40865  27.450  21.549   0.265
68441W        W40866  22.998   7.324   2.800
68442W        W40867   5.865  36.585  10.903
68443W        W40868  28.589  38.502  14.006
68444W        W40869  28.572  14.122   2.875
68445W        W40870   1.332  25.568   4.755
68446W        W40871  27.656  11.332  11.605
68447W        W40872  15.763  11.778   3.335
68448W        W40873  11.344  36.047  11.954
68449W        W40874   3.441   2.765   4.170
68450W        W40875  16.201  15.643  14.809
68451W        W40876  26.104  43.289   3.300
68452W        W40877  12.278  41.482  11.084
68453W        W40878   5.891  33.960  14.489
68454W        W40879  14.248  33.929   1.296
68455W        W40880  28.459  13.168  12.837
68456W        W40881  21.612  23.629   0.898
68457W        W40882   9.862   4.238   1.315
68458W        W40883  36.365  33.051   2.767
68459W        W40884  22.619   8.692  13.897
68460W        W40885  20.211  11.324  10.984
68461W        W40886  30.468  31.518  14.820
68462W        W40887  36.436   6.808  12.557
68463W        W40888  22.581  38.336   4.215
68464W        W40889  24.612  18.191  10.478
68465W        W40890   9.764   5.371   0.816
68466W        W40891  35.925   7.671   3.201
68467W        W40892  31.107  13.712   1.796
68468W        W40893  44.427  28.169   0.393
68469W        W40894  14.588  41.892   2.810
68470W        W40895   9.667  15.705  12.495
68471W        W40896   2.325  14.608   0.323
68472W        W40897   8.680  24.481  14.419
68473W        W40898  21.742  11.842   1.384
68474W        W40899  39.333  26.551   2.389
68475W        W40900   3.717  22.180  10.939
68476W        W40901  27.622  29.944   1.322
68477W        W40902  16.575  30.002   4.809
68478W        W40903   4.408  31.026  13.464
68479W        W40904  24.723  39.500  13.434
68480W        W40905   0.315  23.568   0.755
68481W        W40906  13.838   9.823   0.392
68482W        W40907  20.186  13.796   4.633
68483W        W40908  34.958   3.448  10.455
68484W        W40909  28.045   5.795  10.519
68485W        W40910  30.126  44.990  14.489
68486W        W40911  14.169  27.998  12.825
68487W        W40912  39.034   5.317  14.957
68488W        W40913   9.884  27.634   2.826
68489W        W40914   0.847  21.026   3.252
68490W        W40915  24.121  30.508   2.764
68491W        W40916  27.099   1.252  14.763
68492W        W40917   4.205   6.684  10.595
68493W        W40918   1.287  18.148  14.986
68494W        W40919  41.313  27.509   2.663
68495W        W40920   8.776  37.085   4.620
68496W        W40921  17.237   3.445  12.953
68497W        W40922  36.978  15.137  11.922
68498W        W40923  19.568  27.536   4.682
68499W        W40924  25.156  30.131   4.264
68500W        W40925  40.502   5.832  13.330
68501W        W40926  10.283  20.042  13.524
68502W        W40927  33.950  28.664  12.833
68503W        W40928  24.026  44.298  11.964
68504W        W40929  30.029   5.743  13.482
68505W        W40930  36.854  44.323   3.286
68506W        W40931   8.891  13.128  14.867
68507W        W40932  30.006   6.246   1.935
68508W        W40933   0.298  33.098   2.739
68509W        W40934  31.028  31.987  12.467
68510W        W40935  28.555  41.834   3.227
68511W        W40936  42.373  38.340  12.996
68512W        W40937  23.108   7.911  11.478
68513W        W40938  43.830  22.534   0.928
68514W        W40939  37.398   8.758   0.809
68515W        W40940  14.175  27.456   4.201
68516W        W40941  26.026   6.320   2.763
68517W        W40942  44.485  20.271  11.960
68518W        W40943   7.325   8.232   2.300
68519W        W40944   8.290  32.143  13.896
68520W        W40945  18.726  44.888   0.893
68521W        W40946  31.130  15.784   0.791
68522W        W40947   5.264  41.410  13.052
68523W        W40948  34.539  29.076  12.904
68524W        W40949   5.849  27.570  10.452
68525W        W40950  26.519  29.144   0.372
68526W        W40951  10.686  31.599   2.346
68527W        W40952  38.908  15.741   4.224
68528W        W40953  16.724   3.384  11.117
68529W        W40954   2.795  42.451   3.778
68530W        W40955  20.672  21.662   0.340
68531W        W40956  14.216  10.771   3.763
68532W        W40957  35.104  28.990   4.720
68533W        W40958  34.943  12.254   2.797
68534W        W40959  42.516  25.638  11.487
68535W        W40960  27.495  17.639   1.697
68536W        W40961  20.580  36.970  10.627
68537W        W40962  18.626  42.346  12.385
68538W        W40963  24.675  20.044  14.288
68539W        W40964  29.925   1.802  13.983
68540W        W40965   3.947  33.933  11.507
68541W        W40966  14.672  39.010   2.861
68542W        W40967  12.637  39.533   3.833
68543W        W40968   5.427  31.431  11.094
68544W        W40969  17.302   4.873  12.516
68545W        W40970   2.342  22.742  11.567
68546W        W40971  19.200   2.460   1.401
68547W        W40972  30.096  22.060  11.084
68548W        W40973  42.455  17.230   0.732
68549W        W40974  36.352  36.014   1.789
68550W        W40975  21.528  31.518   1.773
68551W        W40976  15.749   4.227  14.460
68552W        W40977  12.318  42.913   2.236
68553W        W40978   5.430  31.079   4.140
68554W        W40979   0.939   1.445  11.860
68555W        W40980  34.459  37.540   0.306
68556W        W40981  20.609  16.258  13.039
68557W        W40982  38.547  35.946  11.609
68558W        W40983  18.599   3.274   0.849
68559W        W40984  34.464   5.846  12.565
68560W        W40985  28.033  11.195  13.496
68561W        W40986   1.818  26.499   1.841
68562W        W40987  41.326  43.015  10.895
68563W        W40988  20.726  19.278   3.687
68564W        W40989  42.971   1.875  10.913
68565W        W40990  25.581  41.802  13.426
68566W        W40991  42.025   6.714   2.773
68567W        W40992  41.338  37.961  14.861
68568W        W40993  14.773  11.681   9.925
68569W        W40994  17.802  34.057  10.614
68570W        W40995  42.869  35.011   2.395
68571W        W40996  32.963  20.766   1.733
68572W        W40997  33.057  13.212  11.913
68573W        W40998   7.176  28.501  14.913
68574W        W40999   7.855  26.077  10.441
68575W        W41000  10.662  23.656   1.871
68576W        W41001  29.077   7.257   1.810
68577W        W41002  38.356  36.022   1.265
68578W        W41003  16.643  33.407  12.460
68579W        W41004  14.134  25.517  11.400
68580W        W41005  10.139  20.130   4.603
68581W        W41006  23.490  40.819   0.753
68582W        W41007   9.330   4.422   3.192
68583W        W41008  17.655  35.976   4.235
68584W        W41009  13.648   6.362  11.487
68585W        W41010  16.794  42.956  12.943
68586W        W41011  34.872  38.934  10.121
68587W        W41012  26.011  26.074   3.642
68588W        W41013  40.376  29.148   2.778
68589W        W41014  27.641   3.721   0.468
68590W        W41015  41.496  34.416   2.199
68591W        W41016   2.291  28.657  11.042
68592W        W41017  14.779  30.430  13.836
68593W        W41018   4.832  38.888   3.317
68594W        W41019  44.340  29.662  12.364
68595W        W41020  20.235  24.065  14.309
68596W        W41021  27.170   5.384  10.633
68597W        W41022  12.721  24.713  13.355
68598W        W41023  38.446   6.906  14.943
68599W        W41024  29.513   1.823   3.224
68600W        W41025  32.997  20.637   2.222
68601W        W41026  23.241  20.747   3.287
68602W        W41027  13.337   1.245  10.030
68603W        W41028  10.154  22.017   1.932
68604W        W41029  25.219  31.974  14.491
68605W        W41030  12.845  26.011  13.969
68606W        W41031  34.924   4.291   4.771
68607W        W41032  27.688  19.624   2.856
68608W        W41033  26.951  40.988   0.268
68609W        W41034  26.020  11.795   4.770
68610W        W41035  22.166   1.900  14.474
68611W        W41036  25.209   7.841   4.694
68612W        W41037   2.304  11.189   4.151
68613W        W41038  36.865  26.654   0.295
68614W        W41039  25.069  18.762   0.897
68615W        W41040  22.725  23.706   0.315
68616W        W41041  40.432   0.775  14.028
68617W        W41042   0.852  21.530  13.386
68618W        W41043  21.029  32.539   0.315
68619W        W41044   7.695   4.826   3.678
68620W        W41045   6.767  24.559   1.744
68621W        W41046  27.600  40.323   2.243
68622W        W41047  27.989   4.357  11.929
68623W        W41048  32.446   1.249   4.628
68624W        W41049  38.926   8.825   4.178
68625W        W41050  27.670   3.883   2.877
68626W        W41051  44.941   1.483  13.941
68627W        W41052  15.721  18.143  10.451
68628W        W41053   9.324  24.204   1.775
68629W        W41054  36.395  13.204   0.855
68630W        W41055  40.852  11.736  11.485
68631W        W41056  37.960  15.758   2.796
68632W        W41057  34.453  17.099   3.855
68633W        W41058  14.224   6.798  13.946
68634W        W41059  25.545  22.099   4.649
68635W        W41060  37.869  13.734   1.728
68636W        W41061  19.703  34.568   1.894
68637W        W41062   6.289   5.345   1.314
68638W        W41063  34.985  35.965  12.536
68639W        W41064  38.472   7.854   0.773
68640W        W41065  20.213   8.345  10.976
68641W        W41066  21.230   5.199  12.844
68642W        W41067  17.701  12.749  13.008
68643W        W41068   9.651  12.816   4.809
68644W        W41069  35.068  15.322   3.720
68645W        W41070  31.589  39.486   3.359
68646W        W41071  24.108  19.284  11.564
68647W        W41072  40.048   4.214  13.920
68648W        W41073  19.052  35.010  14.307
68649W        W41074  37.358  42.406  12.341
68650W        W41075  14.246  24.698  14.402
68651W        W41076  22.567  39.854   4.139
68652W        W41077  34.942   0.287  13.372
68653W        W41078  39.455  30.151   3.301
68654W        W41079   8.275  36.061   1.396
68655W        W41080  38.359   0.257   0.290
68656W        W41081  17.236   6.720   2.302
68657W        W41082   6.239   1.940  12.001
68658W        W41083   8.235   9.686  14.344
68659W        W41084  31.000   3.924   2.302
68660W        W41085  33.912  30.107   0.275
68661W        W41086  31.942   1.895  13.024
68662W        W41087   0.755   5.856   2.706
68663W        W41088  12.223  28.111  13.037
68664W        W41089  24.084  39.879  11.372
68665W        W41090  42.965  23.996  11.050
68666W        W41091  12.633  12.133   0.253
68667W        W41092  15.692  40.902   1.864
68668W        W41093  17.760  25.662   1.729
68669W        W41094  27.601  12.261   1.237
68670W        W41095  39.350  27.656   0.870
68671W        W41096  37.355  36.931   1.265
68672W        W41097  12.652   6.922   1.285
68673W        W41098   5.302  13.245  11.588
68674W        W41099  12.138  13.194  13.022
68675W        W41100   6.281  24.204  11.071
68676W        W41101  33.959  40.985  14.914
68677W        W41102  36.922  33.501  14.985
68678W        W41103  36.454  33.397  13.445
68679W        W41104   1.847  43.310   2.253
68680W        W41105  27.477  44.458  13.366
68681W        W41106   5.349  25.598  14.393
68682W        W41107   5.278  14.718   3.731
68683W        W41108  12.189  42.416   3.715
68684W        W41109  42.505   5.203  12.022
68685W        W41110  29.987   6.750  12.001
68686W        W41111  33.881   9.223  13.492
68687W        W41112  33.615   9.834  14.365
68688W        W41113  17.771  22.711   4.723
68689W        W41114   3.329  26.577   4.800
68690W        W41115  35.002  13.697   1.757
68691W        W41116  36.531  13.693  14.400
68692W        W41117  41.899  30.116   2.400
68693W        W41118  32.524   5.760  13.037
68694W        W41119  10.663  32.133  13.020
68695W        W41120   5.766  37.454   4.750
68696W        W41121   2.241  37.862  12.463
68697W        W41122  30.102  12.295   1.815
68698W        W41123  40.348   6.328  10.464
68699W        W41124  38.410  20.734  13.818
68700W        W41125  17.749  28.597   0.293
68701W        W41126  41.413  36.403  11.868
68702W        W41127   7.694  22.659  10.480
68703W        W41128   5.843   9.856   2.763
68704W        W41129  42.786  43.797  12.063
68705W        W41130  22.736  23.138   4.289
68706W        W41131  38.990  30.440   1.800
68707W        W41132  17.745  41.029   4.761
68708W        W41133  28.128  38.962   2.689
68709W        W41134  25.082  11.219   0.872
68710W        W41135  44.939  43.468  12.418
68711W        W41136  40.837  22.681   2.686
68712W        W41137   7.720   8.799   4.652
68713W        W41138  24.001  36.948   4.250
68714W        W41139  43.966  23.149  12.014
68715W        W41140  35.484  14.723  11.916
68716W        W41141  23.076   9.709   1.235
68717W        W41142   0.363  33.381   1.901
68718W        W41143  37.498   6.215  14.920
68719W        W41144  29.159  24.217  10.503
68720W        W41145  13.843   3.453  12.369
68721W        W41146  32.004   5.878   0.837
68722W        W41147  20.667  12.262  11.923
68723W        W41148  42.335  44.432  11.054
68724W        W41149  28.668  31.425  12.885
68725W        W41150  14.803  36.985   4.153
68726W        W41151  13.258  10.266   0.267
68727W        W41152  11.333   1.369  11.532
68728W        W41153   4.377  16.798   3.375
68729W        W41154  11.868   2.764  13.384
68730W        W41155  14.726  14.124  12.846
68731W        W41156  16.219   5.435  10.529
68732W        W41157   5.196  21.686  13.053
68733W        W41158  23.670   9.864  14.359
68734W        W41159  34.931  18.735   5.169
68735W        W41160  23.540  42.912  12.855
68736W        W41161   1.947  13.264  14.030
68737W        W41162  42.794  42.503  13.011
68738W        W41163  31.988  24.668  10.604
68739W        W41164  20.695  12.759   4.244
68740W        W41165  12.685   5.776  13.038
68741W        W41166  33.498  16.627  13.017
68742W        W41167  19.238  29.042   0.349
68743W        W41168   2.401   3.295   2.739
68744W        W41169  35.469  12.655   0.419
68745W        W41170  29.006   8.271  12.037
68746W        W41171   8.299   4.705   1.277
68747W        W41172  39.528  39.483   4.734
68748W        W41173  11.260   5.757  12.352
68749W        W41174  43.984  34.468   5.604
68750W        W41175  23.001  29.428   0.298
68751W        W41176  31.470  20.666  13.928
68752W        W41177  35.963  31.063   1.810
68753W        W41178   5.392  37.445   4.172
68754W        W41179  27.606  31.589  13.937
68755W        W41180  17.097   0.383   3.704
68756W        W41181   5.837  28.167  10.481
68757W        W41182  28.524  23.559   3.185
68758W        W41183   8.777  22.673  12.015
68759W        W41184  17.226  40.338   2.306
68760W        W41185  30.964  22.148   2.269
68761W        W41186  37.378  42.806   1.920
68762W        W41187  35.594  31.468  11.539
68763W        W41188  11.814  43.366   4.196
68764W        W41189  24.718  13.318   2.403
68765W        W41190  15.203  32.536   2.380
68766W        W41191   9.323  24.094  10.624
68767W        W41192  40.025  20.678  14.495
68768W        W41193  44.348  33.468  11.994
68769W        W41194  37.416  38.407  10.453
68770W        W41195  41.010  16.180  14.019
68771W        W41196  13.657  26.654  11.050
68772W        W41197  41.834  38.048  14.895
68773W        W41198  39.519   8.171  11.455
68774W        W41199  34.977   3.805  13.317
68775W        W41200   9.241  11.141   3.766
68776W        W41201  10.337  37.928   4.648
68777W        W41202   0.295  40.501   4.334
68778W        W41203   0.748  27.687  14.894
68779W        W41204  33.979   3.461   4.333
68780W        W41205  12.785  12.844   2.201
68781W        W41206  19.716  33.084  14.006
68782W        W41207  23.722   7.844  10.431
68783W        W41208  19.278   2.267  11.493
68784W        W41209  19.732  29.636   3.845
68785W        W41210  18.161  38.432   4.610
68786W        W41211   4.788  13.304   5.242
68787W        W41212  35.447  35.991  13.321
68788W        W41213  32.567  32.913  13.883
68789W        W41214  40.304  13.658  11.944
68790W        W41215   2.424  17.080   1.898
68791W        W41216  13.731  18.680   1.867
68792W        W41217  43.358   6.383   4.117
68793W        W41218  31.942   5.694  10.004
68794W        W41219  28.139   0.443   3.307
68795W        W41220   9.196  28.475  14.808
68796W        W41221  36.509  27.114  10.988
68797W        W41222  10.866  31.082   3.283
68798W        W41223  13.316  17.751  13.958
68799W        W41224  37.456  36.089  12.825
68800W        W41225  35.868  23.493  13.978
68801W        W41226  36.411   3.220  11.519
68802W        W41227  16.727  23.494  11.084
68803W        W41228  21.256  24.624   2.316
68804W        W41229  31.611   6.812  12.935
68805W        W41230  37.573  40.987  14.011
68806W        W41231  31.613  23.071  14.879
68807W        W41232   2.279  22.556   3.255
68808W        W41233  39.500   9.682   4.329
68809W        W41234  35.922  11.235  13.978
68810W        W41235   9.228  24.494   3.729
68811W        W41236  28.539   4.443  12.560
68812W        W41237  25.089  31.491   2.675
68813W        W41238   2.864  35.451  14.275
68814W        W41239  12.766  40.356   0.453
68815W        W41240  38.871  28.502  10.586
68816W        W41241  23.025  12.346  10.065
68817W        W41242  11.634  23.058  14.336
68818W        W41243  43.987  11.364   4.157
68819W        W41244  44.885  12.662   2.186
68820W        W41245  37.582  21.655  10.625
68821W        W41246   0.875  15.773   5.124
68822W        W41247  43.323  12.177  14.402
68823W        W41248  41.839  13.724   3.290
68824W        W41249  20.151  40.483   0.365
68825W        W41250  24.568  23.521  10.924
68826W        W41251   3.360  27.029  11.868
68827W        W41252  32.609  31.045  11.412
68828W        W41253  26.077  27.593   2.362
68829W        W41254  33.997  33.068  11.538
68830W        W41255  15.200  10.636   3.258
68831W        W41256  15.646  39.973  12.029
68832W        W41257   9.247  10.281  11.022
68833W        W41258  36.984  17.220  12.853
68834W        W41259   8.814  10.235  11.526
68835W        W41260  19.217  12.679  10.547
68836W        W41261  31.460  18.637  11.424
68837W        W41262  10.273  30.053   1.441
68838W        W41263  42.352   5.334   2.736
68839W        W41264   8.198  35.006  14.418
68840W        W41265   9.292  28.031   4.748
68841W        W41266  44.361  27.189   3.846
68842W        W41267   3.729   9.723   1.904
68843W        W41268  18.789   0.276  11.029
68844W        W41269  10.654  30.098  13.978
68845W        W41270   3.241  13.330   1.452
68846W        W41271  41.497  22.153   5.756
68847W        W41272  19.185  18.271   1.330
68848W        W41273  17.120  32.030   3.851
68849W        W41274  39.955  37.517  12.437
68850W        W41275   8.812  25.994   1.829
68851W        W41276  11.187  36.880   0.925
68852W        W41277  28.556  18.701  13.015
68853W        W41278  32.090  42.414  13.851
68854W        W41279  39.539  31.073  10.425
68855W        W41280  38.854  37.919   3.636
68856W        W41281   0.272  25.510  14.826
68857W        W41282  20.614  41.885   2.181
68858W        W41283  40.373  40.991  14.030
68859W        W41284   5.782  34.536   0.770
68860W        W41285  18.670  30.510  13.452
68861W        W41286  24.060  32.059   4.652
68862W        W41287  24.674  24.574  14.474
68863W        W41288  24.149  33.578  14.987
68864W        W41289  14.177  22.604  10.452
68865W        W41290  33.436   4.273   3.258
68866W        W41291  23.489   6.722  10.514
68867W        W41292  24.118  19.285  14.887
68868W        W41293   2.897  37.934   3.702
68869W        W41294   0.988  19.721   0.954
68870W        W41295  10.844  40.320  10.458
68871W        W41296  41.506   9.646  12.889
68872W        W41297  36.996  44.423   2.859
68873W        W41298  40.924  29.593   4.662
68874W        W41299  39.410  42.455   1.448
68875W        W41300  21.688  13.206   2.328
68876W        W41301  30.974  31.491  11.974
68877W        W41302  15.244   6.742   2.719
68878W        W41303  16.098  11.171  14.296
68879W        W41304  32.113  31.089   2.774
68880W        W41305  39.810  21.514   1.339
68881W        W41306   4.336  29.041   2.312
68882W        W41307  39.885  18.141  11.069
68883W        W41308  31.069  20.050   3.308
68884W        W41309   4.734   4.433   4.225
68885W        W41310  30.606  33.431  10.540
68886W        W41311  35.469  23.049   2.854
68887W        W41312  39.539  38.348  11.524
68888W        W41313   3.221   3.762   3.830
68889W        W41314  23.719  33.969  10.480
68890W        W41315  29.002   9.253   0.265
68891W        W41316   2.949  24.229   0.300
68892W        W41317  21.602  28.636  12.553
68893W        W41318  39.966  18.558  14.925
68894W        W41319  16.693  18.124  14.868
68895W        W41320  43.892  40.820   1.383
68896W        W41321  25.520  16.616   4.293
68897W        W41322  23.016  31.085  12.392
68898W        W41323  39.000  26.098  13.311
68899W        W41324   4.364  37.958  13.973
68900W        W41325  10.353  43.967  12.478
68901W        W41326  28.133  13.712  11.561
68902W        W41327   3.456   5.347  10.621
68903W        W41328  42.918  10.335   1.766
68904W        W41329  35.024   6.342  12.355
68905W        W41330  41.395  18.240   2.299
68906W        W41331   7.318   8.716   1.748
68907W        W41332  17.579  15.327  12.444
68908W        W41333  25.526  35.097   3.666
68909W        W41334  40.459  27.145   3.216
68910W        W41335   7.258   9.268  10.529
68911W        W41336  40.549  36.376  14.501
68912W        W41337  30.159   7.865   0.894
68913W        W41338  22.178  18.718   1.837
68914W        W41339   5.854  25.967  14.904
68915W        W41340  12.849   9.763  12.944
68916W        W41341  23.139  44.283  10.926
68917W        W41342  32.406  36.092  13.356
68918W        W41343  17.576  26.119  12.440
68919W        W41344  37.469  34.457  11.403
68920W        W41345  19.069  31.480   2.781
68921W        W41346   6.260  22.157   4.201
68922W        W41347   6.189  17.186  12.498
68923W        W41348  38.013  42.833  13.924
68924W        W41349  41.311   8.728   2.782
68925W        W41350  17.277  16.608  10.116
68926W        W41351  38.942  23.047   2.187
68927W        W41352   5.825   8.174   0.414
68928W        W41353  41.810  35.045   1.909
68929W        W41354   1.252  16.297   3.362
68930W        W41355  22.215   8.335  10.572
68931W        W41356  33.462  19.609   1.354
68932W        W41357  10.757  15.227   2.697
68933W        W41358  43.829  32.610  11.509
68934W        W41359  43.411  19.598   2.825
68935W        W41360  36.353  34.442   0.464
68936W        W41361  10.647  43.388   3.165
68937W        W41362   1.914  28.135  14.331
68938W        W41363  36.488  33.465  14.464
68939W        W41364   9.792  16.682   2.847
68940W        W41365  17.692  17.797  12.852
68941W        W41366  40.914  26.005   1.809
68942W        W41367  36.416  24.657   1.761
68943W        W41368   8.725  22.724   4.717
68944W        W41369   4.874  41.996   3.763
68945W        W41370   6.354  39.489   2.384
68946W        W41371  19.155  35.927  11.968
68947W        W41372   1.354  40.383  13.537
68948W        W41373  39.843  44.413   3.343
68949W        W41374  32.570   0.428  10.475
68950W        W41375  38.956  42.368  11.939
68951W        W41376  16.746   1.771  11.898
68952W        W41377  29.450  41.955   0.422
68953W        W41378   4.283   2.445  13.032
68954W        W41379  20.055  11.839  10.580
68955W        W41380  39.024   2.418   2.795
68956W        W41381  32.137   4.812   3.846
68957W        W41382  10.151  31.108   3.240
68958W        W41383  40.461  35.443   2.767
68959W        W41384   2.229  31.940   3.766
68960W        W41385  28.455  14.291   1.320
68961W        W41386  38.848  25.011   4.343
68962W        W41387  17.090  18.275  14.515
68963W        W41388  10.230   0.441  13.935
68964W        W41389  40.510   9.691   0.940
68965W        W41390  29.961  24.026  13.387
68966W        W41391  15.694   1.362  10.421
68967W        W41392  26.027  36.352  14.483
68968W        W41393  28.572  39.437   0.811
68969W        W41394   6.398   3.436   2.213
68970W        W41395  27.948  21.082   1.888
68971W        W41396  42.472   4.923  13.358
68972W        W41397  31.636  37.056  10.508
68973W        W41398  12.184   8.359  10.906
68974W        W41399  34.581  29.015  12.485
68975W        W41400   8.278  27.624  11.491
68976W        W41401   3.308  15.085   0.284
68977W        W41402  36.548   3.935   2.736
68978W        W41403  22.617  33.388   9.962
68979W        W41404  41.412  20.119   4.238
68980W        W41405  10.815   0.344   4.184
68981W        W41406   9.356  21.596  11.562
68982W        W41407  28.543  11.216   0.876
68983W        W41408  42.853  27.962  13.041
68984W        W41409  17.307  31.565  14.818
68985W        W41410  42.405  33.493  13.873
68986W        W41411  34.523  42.300   2.866
68987W        W41412  27.677  19.737  13.793
68988W        W41413  22.555  19.137   0.419
68989W        W41414  41.798  41.836   5.223
68990W        W41415  11.329  29.986   1.268
68991W        W41416  42.981  11.174   4.332
68992W        W41417   1.336  22.042  14.861
68993W        W41418   2.880  37.049   1.428
68994W        W41419  15.087  43.498   3.204
68995W        W41420  19.173  25.191   2.685
68996W        W41421  25.509  18.116  11.387
68997W        W41422  35.892  41.453   2.675
68998W        W41423  37.852   6.740  11.976
68999W        W41424  18.238   6.890  13.004
69000W        W41425  20.059  37.461  11.391
69001W        W41426   6.380  43.505  12.949
69002W        W41427  44.859   0.405  14.514
69003W        W41428   7.201  23.224   1.303
69004W        W41429  11.220  25.167   2.295
69005W        W41430  11.271  15.309   3.238
69006W        W41431   4.302  14.172   1.811
69007W        W41432  30.532  44.933  11.372
69008W        W41433  12.208  16.304   2.289
69009W        W41434   2.836  26.121   4.348
69010W        W41435  30.444   0.416  11.517
69011W        W41436  39.348  21.189   3.328
69012W        W41437  37.923  16.268  12.847
69013W        W41438  32.119  18.108   2.770
69014W        W41439   7.812  38.033   3.780
69015W        W41440  40.973  42.436   0.964
69016W        W41441   0.937  16.649   0.737
69017W        W41442  18.704  36.058  14.854
69018W        W41443  18.257  28.611   3.166
69019W        W41444  41.511  21.715  12.823
69020W        W41445  26.991  12.703  13.543
69021W        W41446  12.339  31.616   4.657
69022W        W41447   7.259  22.179  14.985
69023W        W41448  18.614  26.029   4.782
69024W        W41449  44.332   9.313   1.842
69025W        W41450   5.353   3.915   4.773
69026W        W41451  30.617  37.900  12.503
69027W        W41452   1.885   5.850   2.708
69028W        W41453  17.569  21.109  12.471
69029W        W41454  41.839  32.118   4.668
69030W        W41455  38.940  18.569   1.717
69031W        W41456  39.026  33.409  10.623
69032W        W41457  30.072   1.827   3.651
69033W        W41458  42.004  30.433   1.235
69034W        W41459  15.277  20.636   1.719
69035W        W41460  29.074  13.127  10.915
69036W        W41461  22.543  23.555   3.717
69037W        W41462  30.544  43.861  12.977
69038W        W41463   8.672  26.643  12.082
69039W        W41464   5.322  11.139  10.906
69040W        W41465  18.594  36.922  11.932
69041W        W41466   8.694  30.536  12.842
69042W        W41467  31.468   2.353  13.521
69043W        W41468  33.128  34.881  13.451
69044W        W41469   1.937  42.829  12.340
69045W        W41470   9.293  41.035  12.923
69046W        W41471  21.685  13.758  11.604
69047W        W41472  37.065  20.555  10.563
69048W        W41473  31.934   3.712   2.769
69049W        W41474  33.478  18.686  13.531
69050W        W41475  36.858  25.579   4.734
69051W        W41476  19.718   4.292   3.259
69052W        W41477  16.597  33.494  10.085
69053W        W41478  34.901  12.820  12.401
69054W        W41479  40.821  22.659  11.051
69055W        W41480  12.283  33.554   2.800
69056W        W41481  12.176  42.476  11.587
69057W        W41482  34.591  15.807  11.971
69058W        W41483  18.673  16.123  14.021
69059W        W41484  15.128  28.034  12.348
69060W        W41485  14.214  38.891   1.722
69061W        W41486   7.305  43.441  14.495
69062W        W41487  37.019   1.405   0.277
69063W        W41488   1.397  16.786  14.357
69064W        W41489  10.300  10.719   0.795
69065W        W41490   6.747   9.650   0.776
69066W        W41491  23.552  39.976  11.091
69067W        W41492  26.139  13.741  10.907
69068W        W41493  22.211  14.311  14.016
69069W        W41494   0.261  18.250   3.252
69070W        W41495  11.249  20.620   2.289
69071W        W41496  23.201  41.418   4.772
69072W        W41497  11.168   3.775   2.877
69073W        W41498  21.705  41.878  14.316
69074W        W41499  42.791  24.527   2.740
69075W        W41500  30.566   2.229   0.959
69076W        W41501  27.194  24.567  14.334
69077W        W41502  37.396  30.973   5.320
69078W        W41503  27.984  43.332  14.875
69079W        W41504  20.735  30.584   2.861
69080W        W41505   2.331   7.220   4.625
69081W        W41506   2.305   7.716   1.370
69082W        W41507   3.826  39.836   4.753
69083W        W41508  35.582  14.248   2.417
69084W        W41509  19.194  10.365  12.373
69085W        W41510  35.034  22.557   0.772
69086W        W41511   2.889  17.239   3.263
69087W        W41512  12.229  12.120  12.003
69088W        W41513  24.605   2.755   0.271
69089W        W41514  26.986  23.711   2.711
69090W        W41515  20.708  32.985   2.382
69091W        W41516  17.140  39.549  13.546
69092W        W41517  33.975  27.482   1.845
69093W        W41518  44.389  24.533  13.424
69094W        W41519  42.976  41.814   2.203
69095W        W41520   3.816  12.730  12.464
69096W        W41521  10.328  19.219   0.773
69097W        W41522  33.444   2.745   1.926
69098W        W41523   9.363  35.589  12.453
69099W        W41524  40.465  14.632   2.352
69100W        W41525  29.039  10.825  10.950
69101W        W41526  24.528  25.642   1.241
69102W        W41527  35.380  24.151  11.948
69103W        W41528  28.610  12.783  12.465
69104W        W41529   9.697  27.631   4.682
69105W        W41530  25.506   7.264  11.875
69106W        W41531  16.079  26.075   1.338
69107W        W41532  44.809  31.951   9.995
69108W        W41533  11.831  28.987  11.570
69109W        W41534  41.853  19.082   3.317
69110W        W41535  27.130   9.378   3.298
69111W        W41536  29.046  39.015  11.855
69112W        W41537  42.329  11.843   0.884
69113W        W41538  24.161  21.590   3.170
69114W        W41539  25.678  15.763  12.940
69115W        W41540   5.194  24.717  12.571
69116W        W41541  31.915  34.515  13.010
69117W        W41542  18.597  13.604   2.275
69118W        W41543  36.349  17.615   3.216
69119W        W41544  27.075  14.801   2.671
69120W        W41545  44.901  11.302   1.770
69121W        W41546  18.669   8.720  12.973
69122W        W41547  32.125  21.701   1.737
69123W        W41548  11.237  15.261  11.056
69124W        W41549  17.286  19.078  13.447
69125W        W41550  13.806   9.283   1.793
69126W        W41551  13.109  43.992  14.972
69127W        W41552  26.156  29.510  13.021
69128W        W41553  35.030  21.545   4.694
69129W        W41554  34.056  32.428  13.469
69130W        W41555  38.550  32.982  12.893
69131W        W41556  27.963  38.936  14.910
69132W        W41557  25.175  31.556   0.474
69133W        W41558  33.472  40.509  12.387
69134W        W41559  12.805  29.015  11.591
69135W        W41560  18.231  39.344   2.352
69136W        W41561  41.438   2.885   4.754
69137W        W41562   6.803   0.349   2.781
69138W        W41563  32.506  44.871  13.993
69139W        W41564  44.318  24.679   3.293
69140W        W41565  39.377   8.384   3.343
69141W        W41566  10.181  28.528  13.373
69142W        W41567   1.798  18.217   3.386
69143W        W41568  21.141  44.296  10.013
69144W        W41569  25.587  23.015   1.697
69145W        W41570  38.832  30.536   4.647
69146W        W41571  14.196  12.335  12.056
69147W        W41572  14.750  31.930   4.769
69148W        W41573  34.442  19.242   4.678
69149W        W41574  24.133  39.425  14.022
69150W        W41575  19.041  35.526   1.805
69151W        W41576  35.033   1.360  12.472
69152W        W41577   0.385  27.464  14.780
69153W        W41578  28.959   5.930  14.421
69154W        W41579  18.678  25.559   1.916
69155W        W41580  40.414  26.579  12.390
69156W        W41581  15.293  20.150  12.446
69157W        W41582  40.934  16.260   4.125
69158W        W41583  21.053  15.694   0.385
69159W        W41584  27.516  21.656   3.329
69160W        W41585  16.769  22.998  14.983
69161W        W41586  36.940  20.739   4.620
69162W        W41587   9.854  33.566  10.111
69163W        W41588  40.907  14.604  14.856
69164W        W41589  29.609  30.438   1.872
69165W        W41590  24.076  22.203   4.622
69166W        W41591  38.495   3.235  11.946
69167W        W41592  19.576  30.055  14.511
69168W        W41593  37.052  25.196   0.736
69169W        W41594  33.980  15.311  11.895
69170W        W41595  38.536  17.301   1.868
69171W        W41596  20.703   5.374   3.849
69172W        W41597  16.158  34.906   0.287
69173W        W41598  33.512  15.780   5.204
69174W        W41599  12.202   7.212  12.401
69175W        W41600  37.349  41.361   4.688
69176W        W41601  33.070  14.695   2.180
69177W        W41602  40.824  18.193   2.220
69178W        W41603  30.978  37.497  11.077
69179W        W41604  32.456  17.702   3.292
69180W        W41605  30.591  15.792  11.916
69181W        W41606   2.402  43.016   4.731
69182W        W41607  31.561   7.359   0.950
69183W        W41608  13.690  34.925  12.507
69184W        W41609  22.023  37.973  13.546
69185W        W41610  18.604  26.175   3.285
69186W        W41611  14.317   0.851  11.594
69187W        W41612  37.519   8.856   2.702
69188W        W41613  27.191  29.595   2.263
69189W        W41614  22.173  39.390   0.406
69190W        W41615  37.559  11.346   9.935
69191W        W41616   4.449  33.055   4.192
69192W        W41617  14.204  20.113   0.298
69193W        W41618  15.185  19.284  11.939
69194W        W41619  43.329  14.183   0.338
69195W        W41620   8.264  23.513  14.370
69196W        W41621  12.744  44.476   2.840
69197W        W41622  44.951  19.062   1.235
69198W        W41623   8.376  28.594  12.883
69199W        W41624  42.308  31.935  11.389
69200W        W41625  42.906  14.627   0.917
69201W        W41626  44.824  29.032  11.482
69202W        W41627  28.497  16.242  12.076
69203W        W41628  36.906  24.530   4.749
69204W        W41629  30.446  33.041  14.512
69205W        W41630  28.167   4.707  14.771
69206W        W41631   3.447   2.289   2.363
69207W        W41632  44.426  30.507  12.961
69208W        W41633   3.779  10.165  11.884
69209W        W41634   6.712   1.344  14.951
69210W        W41635  32.451  40.021  12.550
69211W        W41636  41.016  32.968   2.365
69212W        W41637  17.261  16.675  13.404
69213W        W41638  17.740  30.113  13.975
69214W        W41639  43.830  36.472  12.545
69215W        W41640  29.087  12.666   2.782
69216W        W41641  15.152  10.769  12.034
69217W        W41642  22.226   6.818   2.687
69218W        W41643  36.368  41.488   1.344
69219W        W41644  20.766  39.855  13.339
69220W        W41645  42.839  34.063   1.288
69221W        W41646  42.885  23.204  11.570
69222W        W41647   4.247  27.606  13.942
69223W        W41648  24.523   6.707   3.212
69224W        W41649  35.971  26.129   2.185
69225W        W41650   7.217  14.715  11.577
69226W        W41651  14.243  37.365  13.439
69227W        W41652  11.663  11.760  10.035
69228W        W41653  25.151  17.169   1.780
69229W        W41654  15.165  41.376   3.658
69230W        W41655   6.910  22.244  14.821
69231W        W41656  27.113  40.983   2.220
69232W        W41657  22.586   8.900  12.434
69233W        W41658  27.025  29.072   4.832
69234W        W41659  16.572  31.898  10.926
69235W        W41660  39.886  16.182   3.163
69236W        W41661   5.738  26.689  11.992
69237W        W41662   7.389  11.759  12.484
69238W        W41663   8.309  25.014   3.315
69239W        W41664  37.078  17.737  14.900
69240W        W41665   3.944  20.114  13.923
69241W        W41666   1.319   2.459   3.295
69242W        W41667   6.884  16.080  13.938
69243W        W41668   5.882  22.698  11.414
69244W        W41669  39.500  27.629   3.742
69245W        W41670  16.210  37.440  12.465
69246W        W41671  30.162  28.552   4.283
69247W        W41672   0.856  41.500   0.896
69248W        W41673  31.078   0.807  13.318
69249W        W41674  20.162  42.312  13.423
69250W        W41675  27.541  14.605  13.854
69251W        W41676  25.979  20.576  11.928
69252W        W41677  30.460  24.139   4.645
69253W        W41678   9.749   7.795  14.943
69254W        W41679   1.337  19.087   0.341
69255W        W41680   8.725  39.363   1.741
69256W        W41681  23.198   5.325   2.357
69257W        W41682  18.726  41.399   2.698
69258W        W41683  29.145   5.890   0.265
69259W        W41684  12.752  38.551   0.837
69260W        W41685  40.374   4.858  13.532
69261W        W41686  42.886  37.933  12.891
69262W        W41687  31.101   6.782   0.354
69263W        W41688  21.258  42.446   4.723
69264W        W41689  34.557  14.637   4.696
69265W        W41690  24.571  24.190  10.607
69266W        W41691  10.350   4.837  14.310
69267W        W41692  27.051   1.750   0.939
69268W        W41693  15.176   0.883  12.915
69269W        W41694  25.200  20.039  11.936
69270W        W41695   4.719  14.272   0.835
69271W        W41696  26.040  18.552   4.343
69272W        W41697  20.740  11.136   1.439
69273W        W41698  42.491   1.844   2.718
69274W        W41699  40.925   5.836  10.634
69275W        W41700  38.366  27.196   2.891
69276W        W41701  32.054   8.189  12.825
69277W        W41702  23.733   6.743   4.610
69278W        W41703  44.998  16.275  12.826
69279W        W41704  11.843  32.071   3.703
69280W        W41705  20.706   2.434   1.827
69281W        W41706  33.048  36.537   3.720
69282W        W41707  44.419  36.529   3.269
69283W        W41708  21.106  32.910  11.069
69284W        W41709   6.344  30.413  12.901
69285W        W41710  31.574  26.156   1.887
69286W        W41711   5.263  37.080   4.190
69287W        W41712  25.071   1.370  13.463
69288W        W41713  33.515   8.242  14.831
69289W        W41714  41.477   5.201  12.432
69290W        W41715  33.926  39.445   2.742
69291W        W41716  33.467  12.182   4.247
69292W        W41717  42.392  33.557   3.730
69293W        W41718  33.876  15.251   2.297
69294W        W41719  34.950  21.056  11.980
69295W        W41720  42.375  40.350  13.460
69296W        W41721  24.139  38.334   3.820
69297W        W41722  13.732   9.886  14.427
69298W        W41723  16.295  15.714   3.728
69299W        W41724  16.664  31.491   3.713
69300W        W41725  24.016  35.910   0.945
69301W        W41726   1.945  17.102  12.080
69302W        W41727   5.910  28.111  14.926
69303W        W41728  22.502  13.757   0.856
69304W        W41729  28.170  23.986   3.170
69305W        W41730   7.299  27.582  12.875
69306W        W41731   2.859  20.227  12.998
69307W        W41732   1.352  14.251  11.537
69308W        W41733   5.834  28.127   2.198
69309W        W41734   2.898  26.668   0.360
69310W        W41735  38.002  29.160  13.856
69311W        W41736  31.481  32.049   4.124
69312W        W41737   0.934  39.923   4.350
69313W        W41738  39.919  13.179  11.381
69314W        W41739  19.614   8.233   4.816
69315W        W41740  43.895  41.929  13.474
69316W        W41741  28.962  42.974   2.356
69317W        W41742  40.399  10.803   0.744
69318W        W41743  36.450   1.426  10.556
69319W        W41744  29.085  39.042   2.705
69320W        W41745  12.236  40.313  11.393
69321W        W41746  29.624   7.873   5.114
69322W        W41747  24.230  40.331   1.331
69323W        W41748  36.581  13.233  10.574
69324W        W41749  24.545  22.575  13.999
69325W        W41750   0.975  44.418   2.663
69326W        W41751  27.517   7.670   0.911
69327W        W41752  14.290  29.447  12.343
69328W        W41753  37.969  36.554   3.775
69329W        W41754  44.838  12.808  14.876
69330W        W41755   7.388  29.558  12.866
69331W        W41756  16.201  22.208  11.472
69332W        W41757   5.246  44.913   2.370
69333W        W41758  26.553  36.428   5.280
69334W        W41759  39.469  26.190   3.225
69335W        W41760   6.780  42.359  14.438
69336W        W41761  14.336   6.348  11.099
69337W        W41762  14.755   8.237   1.441
69338W        W41763  32.119  44.009  11.409
69339W        W41764  29.095  12.137  14.026
69340W        W41765   3.315  10.789  11.521
69341W        W41766  41.838   4.274  14.461
69342W        W41767  13.329  17.573   3.287
69343W        W41768   0.264  35.882   0.311
69344W        W41769  43.502  33.893   2.751
69345W        W41770  27.686   9.338  13.537
69346W        W41771  43.472  31.043  10.998
69347W        W41772  30.540  25.040   4.284
69348W        W41773  20.082  21.533  10.412
69349W        W41774   9.252  12.275  10.498
69350W        W41775  29.152  41.895   4.717
69351W        W41776  18.057  30.639   1.343
69352W        W41777  26.179  11.152   4.760
69353W        W41778  23.549  15.700   4.346
69354W        W41779  23.569  36.547   0.473
69355W        W41780  26.517  23.578  10.486
69356W        W41781  30.916  16.243  12.514
69357W        W41782  21.191  16.120  12.946
69358W        W41783   0.894  41.356  10.030
69359W        W41784  23.717  34.992   3.150
69360W        W41785  28.598  41.470   0.950
69361W        W41786   9.815  34.024  13.815
69362W        W41787   2.381  30.920  13.033
69363W        W41788  43.933  10.311  14.873
69364W        W41789  15.662  24.649  12.064
69365W        W41790   6.906   3.221   3.313
69366W        W41791  39.545  15.089  14.465
69367W        W41792  24.596  44.986  13.531
69368W        W41793   9.181  30.519   5.221
69369W        W41794  25.214  35.414  12.340
69370W        W41795  15.598  16.082  12.010
69371W        W41796   6.400   7.244  14.989
69372W        W41797  22.719  35.465   4.783
69373W        W41798   1.917  20.577   0.313
69374W        W41799  10.211  22.547   3.804
69375W        W41800  11.329  29.626  14.457
69376W        W41801  12.148  18.581   1.876
69377W        W41802   3.430  17.645   3.149
69378W        W41803   5.291   3.802   1.814
69379W        W41804  16.236   7.213   0.765
69380W        W41805  25.014   5.301   1.835
69381W        W41806  31.071  39.540   5.660
69382W        W41807  26.600  35.554  11.873
69383W        W41808  39.511  22.160   4.738
69384W        W41809   0.252  20.692  12.407
69385W        W41810   3.442   8.793   2.826
69386W        W41811  21.230  19.176  14.872
69387W        W41812   1.278   9.298  12.089
69388W        W41813  29.497  17.560  13.540
69389W        W41814  11.287   5.296   1.917
69390W        W41815  13.204   7.802  14.356
69391W        W41816  10.653  21.162  14.315
69392W        W41817  37.043  41.843  14.322
69393W        W41818  26.550  23.044   0.440
69394W        W41819  40.345  35.370  13.849
69395W        W41820  20.146  15.673  11.865
69396W        W41821  39.431  13.671  14.831
69397W        W41822  32.521  44.294   3.639
69398W        W41823   5.791  40.319  14.274
69399W        W41824  44.926  30.596   2.703
69400W        W41825  29.493  41.401   1.906
69401W        W41826   8.232   2.433   0.758
69402W        W41827  23.503  34.477   4.182
69403W        W41828  22.170  26.680   3.251
69404W        W41829  27.538  43.784   2.816
69405W        W41830  23.196  42.469  10.640
69406W        W41831  38.437  10.724   4.199
69407W        W41832  20.635   6.384  13.522
69408W        W41833  15.092  38.059  12.989
69409W        W41834  23.139   6.323   0.959
69410W        W41835  34.876  10.204  11.015
69411W        W41836  43.287  24.605  13.408
69412W        W41837  11.156  41.467   0.262
69413W        W41838   4.869  32.089  11.958
69414W        W41839  33.600  28.672  14.802
69415W        W41840  32.601   8.381  10.411
69416W        W41841   3.939  11.182   3.172
69417W        W41842  19.760  24.196  14.773
69418W        W41843  27.973  41.380   0.768
69419W        W41844   6.381  40.021   3.184
69420W        W41845  25.057  34.944   0.896
69421W        W41846  11.818   8.686  12.865
69422W        W41847   3.870  10.172  14.988
69423W        W41848  31.136   3.421   5.243
69424W        W41849  27.973  11.135   2.225
69425W        W41850  36.982   3.248   0.425
69426W        W41851  25.001  40.829   1.334
69427W        W41852  17.675  43.465   4.117
69428W        W41853  11.782  40.314  12.054
69429W        W41854   7.894   8.880   4.331
69430W        W41855  44.459  34.942  12.393
69431W        W41856   1.794  41.906  12.890
69432W        W41857  16.594   7.700   0.790
69433W        W41858  35.396  18.268  12.481
69434W        W41859   9.808  28.955  10.599
69435W        W41860  25.047   8.229  12.419
69436W        W41861  34.438  38.908   3.198
69437W        W41862  11.842  26.647   2.419
69438W        W41863  34.939  10.831   0.414
69439W        W41864  20.745  14.620   1.902
69440W        W41865  14.314  16.631  13.996
69441W        W41866  20.267  21.091  13.448
69442W        W41867  36.357  19.651   5.227
69443W        W41868  40.992  27.970   4.225
69444W        W41869  32.986  24.114   2.763
69445W        W41870  11.820  17.117   1.818
69446W        W41871  12.237   7.365  13.836
69447W        W41872  21.613  14.204  11.458
69448W        W41873  17.182  30.113  12.893
69449W        W41874  39.001  11.749   1.719
69450W        W41875  10.762  24.675  10.152
69451W        W41876  13.776  12.237   0.731
69452W        W41877  34.583   7.264  10.040
69453W        W41878  36.850   1.473  10.426
69454W        W41879  16.765  13.122  11.395
69455W        W41880  38.036  13.687   0.449
69456W        W41881   6.195  32.411   1.232
69457W        W41882  39.972  38.994   3.676
69458W        W41883  27.651  12.705  14.436
69459W        W41884  17.670  14.732   1.911
69460W        W41885  24.141  14.308   1.847
69461W        W41886  23.167  10.713   4.252
69462W        W41887  44.307  16.680   2.195
69463W        W41888  44.891   1.397   4.782
69464W        W41889  17.110   2.728   0.446
69465W        W41890  21.030  27.081   0.250
69466W        W41891  11.221  24.185  13.527
69467W        W41892   4.777   9.386   0.307
69468W        W41893  42.810  24.198   2.765
69469W        W41894  26.532  40.355  10.559
69470W        W41895  21.226  33.029  14.286
69471W        W41896   5.858  12.704  12.908
69472W        W41897  15.598  17.583   0.878
69473W        W41898  30.948  29.058   5.212
69474W        W41899  25.654  14.335  14.450
69475W        W41900  43.806  13.762   2.737
69476W        W41901  30.049   4.805   2.365
69477W        W41902  39.048  22.646   5.278
69478W        W41903  13.810  40.369  10.430
69479W        W41904  43.775  23.654   1.346
69480W        W41905  13.257   5.859   4.241
69481W        W41906  30.953  18.714  12.840
69482W        W41907   8.843  29.570   2.810
69483W        W41908  13.182  42.989  12.001
69484W        W41909  25.711  41.949  12.380
69485W        W41910  40.798   3.347  12.026
69486W        W41911  35.074  16.775   0.917
69487W        W41912   7.249   7.805   2.241
69488W        W41913  17.671  36.078   1.787
69489W        W41914  40.536  30.643  13.843
69490W        W41915  30.152  19.112  12.440
69491W        W41916  43.765  22.125  12.482
69492W        W41917  42.903  31.530  14.282
69493W        W41918  44.412  44.789  14.868
69494W        W41919  28.008  19.074   4.210
69495W        W41920  23.735  32.406  13.334
69496W        W41921  41.869  15.730   4.117
69497W        W41922  34.075  40.808   3.340
69498W        W41923   6.286   2.388   2.382
69499W        W41924  44.968  30.566   5.083
69500W        W41925  40.881  42.029  13.483
69501W        W41926  34.436  18.135  12.023
69502W        W41927  11.162  14.132   2.892
69503W        W41928   1.292  20.695  13.852
69504W        W41929   1.755   9.223  12.873
69505W        W41930  40.426  24.674   1.913
69506W        W41931   4.774  30.511   1.851
69507W        W41932  24.067  27.465   2.362
69508W        W41933  31.020  21.210  11.941
69509W        W41934   4.260  11.750   2.375
69510W        W41935  25.076  10.663   1.390
69511W        W41936   0.401  34.464   3.286
69512W        W41937  32.085  10.205   3.290
69513W        W41938  40.430  16.124  11.044
69514W        W41939  36.948  25.123   1.210
69515W        W41940  18.280  35.930  13.911
69516W        W41941  13.259  10.728  10.423
69517W        W41942  13.600  31.143  12.005
69518W        W41943  17.589  36.481   1.883
69519W        W41944   9.164  39.366   1.267
69520W        W41945  33.100  43.301  10.458
69521W        W41946  43.467  21.735  10.445
69522W        W41947  41.871   6.754  11.494
69523W        W41948  25.084  28.160  10.563
69524W        W41949  10.822  23.163  10.981
69525W        W41950  10.751  13.105   0.424
69526W        W41951  30.102   1.923   4.793
69527W        W41952  39.036  28.070  13.809
69528W        W41953   8.701  13.307   0.272
69529W        W41954   6.373  39.017   0.348
69530W        W41955  42.289  19.096   0.952
69531W        W41956   1.794  44.983   4.762
69532W        W41957  17.616  19.720  12.418
69533W        W41958  15.164   9.390  12.092
69534W        W41959  28.998  13.256  14.435
69535W        W41960  43.315  15.276   3.848
69536W        W41961  37.550  22.548   4.130
69537W        W41962  17.706  28.989  14.379
69538W        W41963  13.661  28.534  13.475
69539W        W41964  44.964  44.776   3.657
69540W        W41965  22.531  16.171   3.862
69541W        W41966  16.678  11.811  10.497
69542W        W41967  14.640  35.532   4.353
69543W        W41968  36.984  33.525  11.884
69544W        W41969   8.300  41.026  14.007
69545W        W41970  20.630  17.174  12.344
69546W        W41971  27.565  32.468   4.606
69547W        W41972   5.852  32.456  13.472
69548W        W41973  20.070   4.892   3.732
69549W        W41974  40.383   5.267  12.503
69550W        W41975  19.139  14.663  14.816
69551W        W41976  38.003   8.842   4.623
69552W        W41977  34.925   0.380  10.447
69553W        W41978  37.004  42.862  14.314
69554W        W41979  16.746  27.164   2.408
69555W        W41980   3.767  24.701  14.823
69556W        W41981  36.459  38.345  12.437
69557W        W41982  41.863  35.039  10.457
69558W        W41983   3.929   9.776   0.246
69559W        W41984  22.508  21.678   0.484
69560W        W41985  35.552  18.270   0.873
69561W        W41986  44.454   5.404  14.003
69562W        W41987  35.468  19.047  12.058
69563W        W41988  42.300  44.371   3.314
69564W        W41989  17.188  33.874  12.535
69565W        W41990  24.132  36.544   3.272
69566W        W41991  25.104  43.275  11.899
69567W        W41992  27.132  24.201  14.904
69568W        W41993   0.988   3.903   0.794
69569W        W41994   4.347  44.984  13.404
69570W        W41995  36.424  43.516  12.070
69571W        W41996  27.003  26.007   0.869
69572W        W41997  29.607   9.217  10.494
69573W        W41998  26.192  32.576  11.884
69574W        W41999  31.623  22.022  14.953
69575W        W42000  42.941  31.044   1.355
69576W        W42001   2.366  10.766   3.269
69577W        W42002  11.711  34.991  13.424
69578W        W42003  29.621  26.206   1.335
69579W        W42004  41.325   3.378   3.383
69580W        W42005  24.056  22.522   9.933
69581W        W42006  13.263  12.852   4.135
69582W        W42007  25.572  38.980  13.869
69583W        W42008  17.653   5.374  12.861
69584W        W42009  26.609   4.801   2.381
69585W        W42010  31.636   6.352   3.258
69586W        W42011  40.914  23.663  13.887
69587W        W42012  13.654  27.677   4.250
69588W        W42013  42.317  42.023  14.883
69589W        W42014   4.304  15.314  12.907
69590W        W42015  34.420   7.386  13.963
69591W        W42016  24.133  37.910  13.946
69592W        W42017   4.811  13.628   3.811
69593W        W42018  32.054  16.223  10.897
69594W        W42019  13.832  40.396   1.807
69595W        W42020   5.835   4.742  14.381
69596W        W42021  23.240  21.113  14.477
69597W        W42022   1.891  23.642  11.575
69598W        W42023  21.149  38.396   4.209
69599W        W42024  33.130  29.436   0.255
69600W        W42025  31.028   6.400  14.377
69601W        W42026  43.795  38.989  12.079
69602W        W42027   3.291  42.977  14.959
69603W        W42028  16.626   3.423  12.992
69604W        W42029  22.181  14.106  13.355
69605W        W42030  39.822  31.565   1.735
69606W        W42031  34.386   9.756  13.501
69607W        W42032  37.518   7.702  11.092
69608W        W42033  16.568  32.956   1.367
69609W        W42034   8.659  33.382   0.940
69610W        W42035  10.263  32.576  13.021
69611W        W42036  32.543   7.319   4.349
69612W        W42037   2.361   2.330   3.807
69613W        W42038  25.516  16.143   0.731
69614W        W42039  14.335   0.351   2.359
69615W        W42040  37.962  13.790  13.322
69616W        W42041  33.939  44.501   1.358
69617W        W42042  27.107  22.119  12.016
69618W        W42043   1.925  35.985  12.858
69619W        W42044   2.752  22.581   2.872
69620W        W42045  31.437  32.428   1.760
69621W        W42046  20.179  26.476  13.532
69622W        W42047   6.287   4.856   4.692
69623W        W42048  20.174  15.658  13.397
69624W        W42049  43.974  20.634   3.325
69625W        W42050  21.757  31.050   0.323
69626W        W42051  39.385  19.242   4.212
69627W        W42052  15.806  19.247  12.834
69628W        W42053  18.231  38.966   4.726
69629W        W42054  15.116   4.802   4.195
69630W        W42055  42.411  43.981   1.705
69631W        W42056  24.503  16.623   3.306
69632W        W42057   0.988  12.847   1.714
69633W        W42058  27.051  29.608  10.461
69634W        W42059  12.278   1.804  11.005
69635W        W42060   8.382  39.387   4.179
69636W        W42061  39.537   0.770   1.702
69637W        W42062  14.226  25.170   4.724
69638W        W42063  40.329  40.934   1.750
69639W        W42064   1.776  42.324  12.355
69640W        W42065  11.655  26.612  12.837
69641W        W42066  18.102  33.889  14.997
69642W        W42067  39.062  30.457   4.224
69643W        W42068  29.971  30.489   0.897
69644W        W42069   2.860  37.934  12.416
69645W        W42070  36.993   6.860   0.869
69646W        W42071  40.924  16.312   0.416
69647W        W42072  13.239  36.979   2.274
69648W        W42073  18.065  33.385  11.914
69649W        W42074  40.449  25.625   4.218
69650W        W42075  18.674  36.588  10.442
69651W        W42076  36.853  28.663   2.853
69652W        W42077  15.821  30.156   4.189
69653W        W42078  27.662   5.197  11.529
69654W        W42079  39.917  44.863  11.987
69655W        W42080  14.193   7.874  12.010
69656W        W42081   4.817  28.613   2.759
69657W        W42082  20.610  26.688   2.253
69658W        W42083  29.520   6.715  11.372
69659W        W42084   1.260  41.357  14.911
69660W        W42085  34.869  43.385   2.223
69661W        W42086  42.020   5.771  11.096
69662W        W42087  38.533  37.483  14.314
69663W        W42088  39.869  42.801  11.468
69664W        W42089  38.518   7.670  12.943
69665W        W42090   8.725  39.903   0.425
69666W        W42091  15.786   4.280  13.913
69667W        W42092  15.192  21.165   0.782
69668W        W42093  34.090  44.450  14.904
69669W        W42094  39.986  21.211   5.743
69670W        W42095  35.417  42.484  12.981
69671W        W42096  26.098  41.794  12.574
69672W        W42097  21.172  34.555  12.992
69673W        W42098  42.841  44.002   4.638
69674W        W42099  30.444   3.432  12.552
69675W        W42100  15.747   7.719  14.031
69676W        W42101  17.720  15.181  12.875
69677W        W42102  21.113  23.537  11.405
69678W        W42103  17.736  13.826   0.789
69679W        W42104  37.010  35.981   2.287
69680W        W42105  37.026   6.426   3.324
69681W        W42106   6.895  39.813   3.765
69682W        W42107  37.396   7.242   5.081
69683W        W42108  44.386  12.189  12.887
69684W        W42109  18.790   6.739   2.185
69685W        W42110  39.060   8.796  10.526
69686W        W42111  36.862  17.176   3.700
69687W        W42112  39.344  34.882  12.092
69688W        W42113  11.654  34.402   3.283
69689W        W42114  16.675   7.197   1.406
69690W        W42115  43.010   0.342   2.315
69691W        W42116  20.046  12.855   4.689
69692W        W42117  13.788  42.804  10.643
69693W        W42118  36.015  23.123   1.858
69694W        W42119  30.617   7.408   2.178
69695W        W42120  27.075  19.131   1.228
69696W        W42121   3.855   3.803   2.375
69697W        W42122   4.229  35.591   1.901
69698W        W42123   3.809  25.117  11.605
69699W        W42124   0.820  15.316  12.413
69700W        W42125  21.186  36.084  13.349
69701W        W42126  35.975  35.908  13.373
69702W        W42127  17.199  18.247   4.148
69703W        W42128  34.567  27.568  11.380
69704W        W42129  24.183  38.357   2.350
69705W        W42130  13.780  41.364   3.827
69706W        W42131  16.155  31.926   1.425
69707W        W42132  30.521  35.566  11.411
69708W        W42133  26.091  18.677  14.019
69709W        W42134   4.417   2.433  12.511
69710W        W42135  33.403  17.578   0.387
69711W        W42136  22.633  43.010   3.658
69712W        W42137  27.940  10.646  11.601
69713W        W42138  18.676   3.432   3.263
69714W        W42139   3.795  36.358  13.538
69715W        W42140   4.723   7.835   1.790
69716W        W42141  35.540  33.003  10.637
69717W        W42142  33.614  11.661   4.640
69718W        W42143  10.685   2.258  14.963
69719W        W42144  40.536  14.818   1.912
69720W        W42145  38.870  14.745   0.806
69721W        W42146  19.656   5.233  13.823
69722W        W42147  37.340  42.950   3.756
69723W        W42148   0.923  34.070  13.385
69724W        W42149  22.591   0.481   4.348
69725W        W42150  17.784  27.157  11.509
69726W        W42151  18.683  18.115  11.970
69727W        W42152  18.668  13.795  12.398
69728W        W42153   2.430  20.271  14.463
69729W        W42154  33.485  11.653  13.359
69730W        W42155   8.872  28.064  14.423
69731W        W42156   6.857  18.271   2.206
69732W        W42157  13.338  22.565  14.897
69733W        W42158  16.740  22.653   0.413
69734W        W42159   2.729  33.403   3.858
69735W        W42160  16.248  27.634   2.226
69736W        W42161  18.782  38.926   3.706
69737W        W42162  38.833  13.281  14.508
69738W        W42163  29.944  40.482  11.584
69739W        W42164  33.888  10.852  14.890
69740W        W42165  37.997  36.467   4.345
69741W        W42166  44.806  27.143   3.633
69742W        W42167   4.855  29.111   1.891
69743W        W42168  36.869   5.246  14.798
69744W        W42169   6.829   2.249  12.469
69745W        W42170  34.972  16.603   1.353
69746W        W42171   0.253   8.874  10.547
69747W        W42172  18.130  10.173   0.433
69748W        W42173  38.853  40.378   2.679
69749W        W42174   7.785   1.792   5.145
69750W        W42175   3.407   0.317  14.918
69751W        W42176  28.619   5.735   2.817
69752W        W42177  26.642  39.960  14.973
69753W        W42178  15.642  11.353  11.110
69754W        W42179  25.053  20.652   2.761
69755W        W42180  31.646  22.193   0.881
69756W        W42181  31.554  29.034   3.832
69757W        W42182  17.273   7.363   2.311
69758W        W42183  12.321  27.998  13.809
69759W        W42184   6.838  33.568  12.410
69760W        W42185  32.391  32.948  12.417
69761W        W42186  41.943   4.708   9.965
69762W        W42187  27.025  41.377  11.965
69763W        W42188  21.524  11.307   3.675
69764W        W42189   5.835  28.061  12.868
69765W        W42190  26.003  31.043   1.927
69766W        W42191   8.296   5.406   3.345
69767W        W42192  41.931  18.113  13.823
69768W        W42193  10.144  38.418  14.455
69769W        W42194  38.486  35.013  13.532
69770W        W42195  16.746   8.727  13.530
69771W        W42196   0.271  27.139  14.955
69772W        W42197  13.754  42.017   4.752
69773W        W42198  17.225  22.175  13.375
69774W        W42199  17.631  28.092  11.501
69775W        W42200  26.624  36.545  13.332
69776W        W42201   0.415  37.030  14.972
69777W        W42202  34.040  22.228  13.919
69778W        W42203  30.125  13.289   4.145
69779W        W42204  22.717  15.802   5.216
69780W        W42205  41.446  35.028   3.217
69781W        W42206  18.069  15.710   3.294
69782W        W42207  32.410  39.440   0.243
69783W        W42208  33.489  13.321  10.052
69784W        W42209  25.015  20.077   1.749
69785W        W42210  19.143  17.600  14.412
69786W        W42211  35.999  18.117  10.616
69787W        W42212  30.415  19.077   4.153
69788W        W42213  23.639  31.533  13.525
69789W        W42214  39.910  27.574   2.778
69790W        W42215  34.102  15.630  10.978
69791W        W42216  18.592   4.239   1.731
69792W        W42217  36.386  20.065  12.044
69793W        W42218   4.405  23.553  13.514
69794W        W42219  28.586  42.909  14.474
69795W        W42220  41.492  33.948   3.365
69796W        W42221  21.180  15.249   3.733
69797W        W42222  31.602   9.321  10.564
69798W        W42223  11.660  38.564  10.920
69799W        W42224   0.825   1.794   0.307
69800W        W42225  40.465  27.178  10.937
69801W        W42226  28.096   8.319  14.768
69802W        W42227  11.130  11.174  11.398
69803W        W42228  36.446  19.157   2.681
69804W        W42229  34.095  25.615   1.790
69805W        W42230  42.364  37.993  10.483
69806W        W42231  22.605  43.791   4.146
69807W        W42232  43.764  14.752  11.954
69808W        W42233   6.741  43.958   1.364
69809W        W42234   7.752  44.371  11.527
69810W        W42235  21.256  43.873  11.873
69811W        W42236  44.760   8.817  13.873
69812W        W42237  42.024  41.846   2.834
69813W        W42238  22.510  26.504  12.379
69814W        W42239   7.313  15.242  14.889
69815W        W42240  29.150  15.145   0.870
69816W        W42241  29.445  18.650   1.703
69817W        W42242  21.695  34.052   0.399
69818W        W42243  41.424  34.969   5.227
69819W        W42244   1.856  35.897   0.888
69820W        W42245  30.624  21.592  14.965
69821W        W42246  12.613  41.790  13.921
69822W        W42247   1.387   9.887  11.925
69823W        W42248  36.871  23.056  13.984
69824W        W42249  36.095   6.699   5.204
69825W        W42250  41.858  21.548   2.268
69826W        W42251  27.568  13.156  10.915
69827W        W42252  21.600   0.933   1.918
69828W        W42253  31.646  10.836   2.691
69829W        W42254  32.075  25.537  10.970
69830W        W42255  39.935  12.642   1.706
69831W        W42256  12.639   7.327   4.721
69832W        W42257  13.120  31.093  12.463
69833W        W42258  22.500  25.564   2.194
69834W        W42259  21.188   0.481  10.581
69835W        W42260   6.412  44.386   2.334
69836W        W42261  31.519  36.481  11.594
69837W        W42262   2.724  12.344  10.947
69838W        W42263  23.534  24.017   4.248
69839W        W42264  41.786  16.794  14.957
69840W        W42265   8.267  24.641  11.432
69841W        W42266  12.164  36.921  11.953
69842W        W42267  23.098   0.798   4.811
69843W        W42268  19.120  24.578  13.925
69844W        W42269  20.668  26.095   0.742
69845W        W42270  27.624  13.130   1.354
69846W        W42271   0.465  42.422  10.431
69847W        W42272   4.205  22.532  13.818
69848W        W42273  33.093  11.719   0.449
69849W        W42274  12.628  41.321  12.824
69850W        W42275  15.661  26.581  11.103
69851W        W42276   5.376  16.295   3.726
69852W        W42277  34.593   0.284  14.818
69853W        W42278  38.902  39.394   1.719
69854W        W42279  25.983  10.221  13.356
69855W        W42280  14.699   6.853   4.123
69856W        W42281  35.980  40.458   3.178
69857W        W42282  29.110  35.408  12.500
69858W        W42283  22.216  26.069   0.307
69859W        W42284  19.219  29.047  13.347
69860W        W42285  33.886   1.880   4.204
69861W        W42286  40.533  25.590   3.813
69862W        W42287  24.689  44.966   3.273
69863W        W42288  19.602   1.830   0.860
69864W        W42289  22.591  44.786   0.465
69865W        W42290  30.953  37.487  12.431
69866W        W42291   8.223  17.071   3.209
69867W        W42292  42.832  38.034  13.375
69868W        W42293  21.661  26.534   9.926
69869W        W42294  44.912  16.106   0.925
69870W        W42295  18.673  42.359  13.364
69871W        W42296  35.416  33.965   0.359
69872W        W42297  40.924  39.002  11.094
69873W        W42298   6.835  24.063   3.817
69874W        W42299  41.991  25.170   1.435
69875W        W42300  42.992  10.177  10.004
69876W        W42301   8.369  33.888   3.184
69877W        W42302  11.160  25.043   1.269
69878W        W42303  28.152  14.684  12.889
69879W        W42304  27.083  43.895  11.412
69880W        W42305  43.849   4.917   0.432
69881W        W42306  31.445  40.916  10.514
69882W        W42307  42.000   1.825  10.958
69883W        W42308  21.177  30.025  12.568
69884W        W42309  43.824  21.549  10.913
69885W        W42310  41.504  13.339   1.901
69886W        W42311  29.964  37.578  12.053
69887W        W42312  32.626  43.983   2.363
69888W        W42313   5.864   1.294   4.260
69889W        W42314  36.857  17.646   0.930
69890W        W42315  29.050   4.761  11.452
69891W        W42316  41.394  42.911  11.435
69892W        W42317  29.634  23.608   3.337
69893W        W42318  13.721  42.482   0.748
69894W        W42319  15.811  27.469   0.875
69895W        W42320  31.113   1.410  11.460
69896W        W42321  32.994  12.196  13.817
69897W        W42322  20.686   0.366   1.219
69898W        W42323   0.750  38.857   2.870
69899W        W42324  35.097  31.010   3.300
69900W        W42325  14.667  42.833   1.394
69901W        W42326  32.486  30.596   0.943
69902W        W42327   5.396  33.408   2.812
69903W        W42328  31.500   4.282  10.509
69904W        W42329   7.723   2.917   1.929
69905W        W42330  21.600  38.460  14.467
69906W        W42331  33.436   7.771  10.942
69907W        W42332  18.127  24.109   2.205
69908W        W42333   2.290  43.848  10.524
69909W        W42334  30.060  27.038   0.803
69910W        W42335  33.027   0.475   2.399
69911W        W42336  20.067  14.723   1.421
69912W        W42337  22.251  18.547  10.571
69913W        W42338  30.572   2.347  11.579
69914W        W42339  24.626  37.542  10.592
69915W        W42340   6.794  14.205   3.639
69916W        W42341  40.808  43.795   4.182
69917W        W42342  22.658  29.014  10.584
69918W        W42343   4.277   9.367  11.405
69919W        W42344  23.657  25.122  13.332
69920W        W42345  32.404   0.966  13.536
69921W        W42346  43.440  12.301   2.197
69922W        W42347   9.776  11.823   2.256
69923W        W42348  23.561  22.707   2.704
69924W        W42349  42.871  33.879   3.323
69925W        W42350  10.169  21.639   0.325
69926W        W42351  31.910   3.452  10.944
69927W        W42352  19.242  19.126  12.340
69928W        W42353  11.130  17.092   0.355
69929W        W42354   2.359  42.934  10.067
69930W        W42355  30.085  38.959  13.881
69931W        W42356  32.545   0.934   3.316
69932W        W42357  19.205  43.890   2.182
69933W        W42358  35.099  23.717   2.308
69934W        W42359  19.051  28.669  11.434
69935W        W42360  14.251  20.157  13.313
69936W        W42361   2.809  38.897  13.017
69937W        W42362  11.174  13.347   4.786
69938W        W42363   7.683  16.206   3.224
69939W        W42364  17.266  10.310   5.213
69940W        W42365  19.535  21.091  14.303
69941W        W42366  29.532  38.473   5.303
69942W        W42367  27.166  22.553   1.899
69943W        W42368  42.880  18.108  12.567
69944W        W42369  16.765   0.758  11.566
69945W        W42370   9.257   9.395   3.666
69946W        W42371  14.245  41.380  14.787
69947W        W42372  41.813   1.399   3.387
69948W        W42373  14.647   5.735   4.306
69949W        W42374  43.789  28.997  10.619
69950W        W42375  34.011  38.891   9.938
69951W        W42376  29.495  39.953   4.673
69952W        W42377   2.401   1.292   2.697
69953W        W42378   4.711  35.068   4.146
69954W        W42379  14.637   2.336  11.081
69955W        W42380  21.515  43.979  10.531
69956W        W42381  33.379   1.285  10.922
69957W        W42382  29.942  34.568  13.793
69958W        W42383   3.438  36.542   4.778
69959W        W42384   9.165  18.615   2.297
69960W        W42385  41.028  38.052   3.255
69961W        W42386  17.110  35.557   3.754
69962W        W42387  16.604  32.908  10.996
69963W        W42388   7.356  13.268  13.465
69964W        W42389  36.367   6.212   0.729
69965W        W42390  18.244  41.477   0.409
69966W        W42391  40.798   2.907   2.254
69967W        W42392  14.761  11.220  12.917
69968W        W42393  18.181  23.158   3.637
69969W        W42394  11.131  44.957  14.859
69970W        W42395  22.642  34.600  10.075
69971W        W42396  13.320  36.368  13.522
69972W        W42397  36.955  22.116   3.160
69973W        W42398  24.156  36.392  11.127
69974W        W42399  41.982  40.866  13.933
69975W        W42400   5.413  16.716  10.407
69976W        W42401  30.509   1.407   0.318
69977W        W42402  21.219  40.310  14.981
69978W        W42403  39.380  42.974   4.134
69979W        W42404  38.971  44.397   4.773
69980W        W42405   8.689   5.886   1.723
69981W        W42406   1.373  38.930  10.991
69982W        W42407  32.559  34.092  13.430
69983W        W42408  30.595  28.512  12.378
69984W        W42409  25.097  36.450   1.734
69985W        W42410   3.772  40.054  11.544
69986W        W42411  40.910   4.854  11.045
69987W        W42412  34.567  21.706   0.400
69988W        W42413  29.099  13.660  14.458
69989W        W42414  36.579   3.757  14.772
69990W        W42415  24.528  23.219   0.396
69991W        W42416  10.283   1.759  13.308
69992W        W42417  33.907   1.458  13.922
69993W        W42418  32.521   2.947   3.638
69994W        W42419  20.231  44.959   2.819
69995W        W42420  40.053  18.644   0.803
69996W        W42421   8.759  28.148   0.269
69997W        W42422  41.336  10.795   0.826
69998W        W42423   0.871   6.715   0.355
69999W        W42424  25.090  24.058   5.119
70000W        W42425  26.645  19.664  14.808
70001W        W42426  33.499  33.411   0.280
70002W        W42427  38.915   7.691   3.795
70003W        W42428   6.873  13.114  11.011
70004W        W42429  15.609  25.570  14.497
70005W        W42430   7.261  35.515   0.370
70006W        W42431  42.446  39.961   0.426
70007W        W42432   8.888  37.924  13.962
70008W        W42433  35.958  12.789   0.955
70009W        W42434  32.911  34.501  12.494
70010W        W42435  20.224  14.192   3.871
70011W        W42436   4.857  26.457  14.330
70012W        W42437  43.951  33.967   1.343
70013W        W42438  15.813  24.127  13.386
70014W        W42439   8.281  24.701  12.503
70015W        W42440   4.424  41.897   2.376
70016W        W42441  19.587  11.635   0.783
70017W        W42442  33.578  39.914   3.672
70018W        W42443  20.756   3.265   3.678
70019W        W42444  23.999  18.675  10.979
70020W        W42445   1.970  10.228  12.986
70021W        W42446  38.842  32.622   2.411
70022W        W42447  35.958  32.428   1.352
70023W        W42448   0.338  15.264   1.297
70024W        W42449  25.189  11.752   3.360
70025W        W42450  20.612  29.479   0.472
70026W        W42451   1.471   0.989  11.901
70027W        W42452  18.745   7.417  10.624
70028W        W42453  38.425  27.671   1.730
70029W        W42454   6.370  16.135  13.821
70030W        W42455  25.073  13.326  13.993
70031W        W42456  16.209  34.010  12.459
70032W        W42457  38.971  40.384  10.561
70033W        W42458   3.256  39.520   0.941
70034W        W42459   3.715  17.622   2.707
70035W        W42460  33.597  37.524   2.807
70036W        W42461  38.032   6.753   4.713
70037W        W42462  42.783  10.345  12.833
70038W        W42463  40.508  29.651   0.905
70039W        W42464  32.605  44.856   3.718
70040W        W42465  17.156   5.748  11.514
70041W        W42466  35.053  41.801   1.814
70042W        W42467  13.845  15.697  10.153
70043W        W42468  12.755  36.536  12.404
70044W        W42469  29.433  24.724  11.034
70045W        W42470  20.263  20.579  12.436
70046W        W42471  30.576   4.781   1.220
70047W        W42472  43.925  22.687   2.247
70048W        W42473  13.793  43.921   4.644
70049W        W42474   1.408  43.858   3.174
70050W        W42475   8.299  44.849   0.322
70051W        W42476  37.994  34.575  10.554
70052W        W42477   6.211  38.559  12.080
70053W        W42478  18.644  16.715   4.132
70054W        W42479  25.611  10.351   0.923
70055W        W42480  40.349   1.784  14.998
70056W        W42481  21.653  31.516  14.009
70057W        W42482  44.993  27.077  12.059
70058W        W42483  27.636  20.634   1.430
70059W        W42484   1.344  32.941   4.643
70060W        W42485  35.025  17.279  14.015
70061W        W42486  30.652  23.644  14.026
70062W        W42487  26.493  27.080  14.021
70063W        W42488  44.840  28.183   3.741
70064W        W42489   1.280  15.718  10.411
70065W        W42490  13.338  15.819  12.054
70066W        W42491  39.988  36.936   2.315
70067W        W42492  10.747  17.638   2.332
70068W        W42493  25.519  31.581  12.574
70069W        W42494   8.387  12.159  13.425
70070W        W42495  14.624  26.009  11.377
70071W        W42496  38.460  38.551  12.410
70072W        W42497  21.525  22.639   4.646
70073W        W42498  16.244  41.390  12.393
70074W        W42499  42.959  24.668   3.343
70075W        W42500   4.905  34.543   0.919
70076W        W42501  30.529  13.799  10.403
70077W        W42502  40.316  10.281   5.306
70078W        W42503  31.503   3.264   2.339
70079W        W42504  25.606  23.228   2.870
70080W        W42505  41.886  17.635  11.371
70081W        W42506  35.946   2.830   1.779
70082W        W42507  25.029   1.752  13.352
70083W        W42508  28.470  18.161   2.761
70084W        W42509  23.726  36.366  12.049
70085W        W42510  11.649  16.176  12.538
70086W        W42511  39.534  12.709   1.255
70087W        W42512  12.818  30.022  13.821
70088W        W42513  38.430   1.767   3.667
70089W        W42514   2.754  37.830   4.601
70090W        W42515  19.697   5.277  13.466
70091W        W42516   5.877  34.900   4.318
70092W        W42517   7.299  20.525   0.732
70093W        W42518   9.863  42.344   0.857
70094W        W42519   4.791   7.829  12.341
70095W        W42520  14.703  42.797  11.602
70096W        W42521  36.379  31.493   1.450
70097W        W42522  29.959  16.702  10.532
70098W        W42523  40.018  27.638   1.292
70099W        W42524  37.997  14.244   1.763
70100W        W42525  33.049  37.488   2.184
70101W        W42526  24.577  11.238  13.307
70102W        W42527  29.521  38.384   1.297
70103W        W42528  18.695  17.218   2.733
70104W        W42529   4.715   3.372   4.193
70105W        W42530   1.856  17.718   4.127
70106W        W42531  15.234  19.684  14.874
70107W        W42532  32.547  29.608   4.773
70108W        W42533  35.054  17.604  14.767
70109W        W42534  36.544  18.626   2.310
70110W        W42535  22.583  24.180   1.740
70111W        W42536   0.269   8.324   0.956
70112W        W42537  33.585  26.665   4.230
70113W        W42538   0.814  29.128  11.437
70114W        W42539  43.805  15.641  12.042
70115W        W42540  37.887  25.684  10.541
70116W        W42541  17.288  27.073   3.674
70117W        W42542  21.690  37.578  10.607
70118W        W42543  33.918  44.968   1.409
70119W        W42544  24.189   2.283  12.507
70120W        W42545  33.977  34.575   1.416
70121W        W42546  16.650  20.238   3.232
70122W        W42547  31.465  21.117  10.041
70123W        W42548  19.265   9.150  14.401
70124W        W42549   3.324  31.435  11.427
70125W        W42550  16.581  10.854  10.636
70126W        W42551  19.109  18.623  13.918
70127W        W42552   1.965  41.903  12.487
70128W        W42553   6.322  36.450   3.288
70129W        W42554  12.138  24.577   0.732
70130W        W42555  15.131   3.346   5.089
70131W        W42556  34.072  25.636   2.378
70132W        W42557  27.684  42.355   3.151
70133W        W42558  25.527  11.814   2.680
70134W        W42559  32.545   8.850   3.773
70135W        W42560  32.576  14.728  10.503
70136W        W42561  30.035   7.895   0.276
70137W        W42562  18.057  41.461   2.845
70138W        W42563  15.315  29.147   3.716
70139W        W42564   7.213  30.114  12.369
70140W        W42565  14.160  21.127   2.808
70141W        W42566  38.486   9.306   3.738
70142W        W42567  27.124   3.956  13.913
70143W        W42568  38.903  17.697   3.796
70144W        W42569  41.845  12.811  12.837
70145W        W42570  25.116  39.378   4.267
70146W        W42571  15.144  32.955   2.718
70147W        W42572  28.129  36.440  13.449
70148W        W42573  38.413  23.995   1.234
70149W        W42574  11.699   7.747  11.096
70150W        W42575  10.657   6.201  10.527
70151W        W42576   5.835  10.343  10.522
70152W        W42577  22.580  22.216  12.491
70153W        W42578   8.352  35.892  11.513
70154W        W42579  41.446  10.276  13.357
70155W        W42580  22.660  44.823  13.945
70156W        W42581  39.872   0.893  14.808
70157W        W42582  14.234  36.885  12.448
70158W        W42583  33.383  22.206   4.259
70159W        W42584  42.338  22.181   9.985
70160W        W42585  29.451  39.330  13.427
70161W        W42586   0.412  34.947  12.411
70162W        W42587  43.827  34.946  12.547
70163W        W42588  21.570   7.841  10.449
70164W        W42589  37.557  41.991  12.550
70165W        W42590  26.153   1.924   4.678
70166W        W42591   2.747  40.011   1.388
70167W        W42592  13.236  40.482  12.516
70168W        W42593  31.916  21.651  13.446
70169W        W42594   2.952   3.941  10.558
70170W        W42595   0.368  22.086   1.425
70171W        W42596  15.232  33.526   1.432
70172W        W42597  13.672   7.744  11.959
70173W        W42598  40.883  33.889  12.371
70174W        W42599  34.372  31.072  12.433
70175W        W42600  25.214  13.692  12.912
70176W        W42601  21.684   8.346  12.983
70177W        W42602  41.885  21.113   4.832
70178W        W42603  25.217  36.079   1.847
70179W        W42604  39.014  29.470  11.859
70180W        W42605  21.048  19.110  12.562
70181W        W42606  16.618  10.704   1.447
70182W        W42607  37.539  36.580   2.778
70183W        W42608  17.274  17.717   0.344
70184W        W42609   4.432  36.926   3.381
70185W        W42610  36.588  35.040   0.483
70186W        W42611  18.761   9.170   0.265
70187W        W42612  27.048  41.311   5.152
70188W        W42613  37.900   1.297   2.344
70189W        W42614  15.252  32.888  10.046
70190W        W42615   5.823  37.063   0.431
70191W        W42616  11.301  22.055   5.214
70192W        W42617  37.876   2.300  10.640
70193W        W42618  20.200  34.973  11.544
70194W        W42619  44.357  14.273   0.858
70195W        W42620  35.543  14.153  13.008
70196W        W42621  14.685  42.993   5.105
70197W        W42622  26.035  40.896   0.882
70198W        W42623   8.893  31.964  11.883
70199W        W42624   9.725   3.431   1.445
70200W        W42625  13.151  11.707   1.734
70201W        W42626  39.318  11.703   1.250
70202W        W42627  26.061  34.502   0.953
70203W        W42628   4.746  23.149   4.771
70204W        W42629  22.665  11.722  14.840
70205W        W42630  18.113  17.203  11.018
70206W        W42631  24.116  41.788   4.160
70207W        W42632  41.373  17.774  14.814
70208W        W42633   2.331  33.564   0.903
70209W        W42634  27.686  14.133   4.715
70210W        W42635   2.395  26.969   4.813
70211W        W42636  36.858  26.689  11.438
70212W        W42637  17.236  16.804   3.756
70213W        W42638  29.545   1.782   0.461
70214W        W42639  32.538  42.006  11.031
70215W        W42640  11.837  25.634  12.341
70216W        W42641   7.329  32.552   1.823
70217W        W42642   1.905  20.556   3.209
70218W        W42643  31.538   3.787  13.384
70219W        W42644   7.845   7.332  13.455
70220W        W42645   0.949   2.440  10.571
70221W        W42646  25.050  20.597   3.170
70222W        W42647   1.482  40.984  11.516
70223W        W42648  30.933  44.794  12.983
70224W        W42649  14.814   7.748   2.334
70225W        W42650  22.105  30.487   2.294
70226W        W42651   3.735  40.302  13.985
70227W        W42652  19.557  25.484   1.228
70228W        W42653  44.863  24.024   0.480
70229W        W42654  19.696  22.135  12.513
70230W        W42655  11.742  16.246  11.597
70231W        W42656   9.297  33.081   4.623
70232W        W42657  26.620  18.252   2.333
70233W        W42658  33.901  41.516  14.326
70234W        W42659  16.707   3.812   4.815
70235W        W42660  15.651  16.616  11.408
70236W        W42661   3.323  10.185  11.476
70237W        W42662  26.196  25.093   2.778
70238W        W42663  31.000  34.579  10.945
70239W        W42664  16.751  21.607   1.698
70240W        W42665   6.848   7.286  11.860
70241W        W42666  18.057  21.078   1.239
70242W        W42667   3.937  19.176  12.556
70243W        W42668  23.696  31.517   0.949
70244W        W42669  28.666  21.605  12.385
70245W        W42670  30.417  30.108  13.017
70246W        W42671  26.961  34.871   4.248
70247W        W42672  41.334  40.310   1.750
70248W        W42673   4.829  30.647  13.873
70249W        W42674  21.749  41.451   4.129
70250W        W42675  38.451  33.545  10.414
70251W        W42676  41.300  20.210   1.255
70252W        W42677  34.109  38.464  13.956
70253W        W42678   2.360  22.691  14.809
70254W        W42679  14.777  12.291  11.563
70255W        W42680  13.153  26.145   1.894
70256W        W42681  39.943  38.438  10.899
70257W        W42682  16.194  38.520  10.475
70258W        W42683   1.780  17.155   3.370
70259W        W42684   8.685  20.030  11.945
70260W        W42685  17.626   3.906   4.118
70261W        W42686  30.937  41.886  13.818
70262W        W42687  17.580  37.040  11.387
70263W        W42688   2.450  30.119  13.977
70264W        W42689   9.871  28.152  13.503
70265W        W42690  15.718  13.801   4.220
70266W        W42691  30.053  38.346  10.105
70267W        W42692  24.518  44.853   0.464
70268W        W42693  20.234   6.340  11.551
70269W        W42694  23.612  11.242  10.114
70270W        W42695  38.864   8.843   0.369
70271W        W42696  14.788  17.634  14.398
70272W        W42697  43.843  40.009   3.349
70273W        W42698  20.549  27.601  10.405
70274W        W42699   9.828  10.704  11.406
70275W        W42700   5.771  29.530  12.382
70276W        W42701  20.080  40.327  14.884
70277W        W42702  34.028  22.570   0.476
70278W        W42703   0.788  35.567   3.724
70279W        W42704  35.000  20.222  13.980
70280W        W42705  25.130  31.534  14.331
70281W        W42706  43.862  14.280   2.718
70282W        W42707  20.614  44.990   4.183
70283W        W42708  44.771  36.352   0.833
70284W        W42709  43.014  38.937  13.321
70285W        W42710   0.446  20.651   0.313
70286W        W42711   8.303  21.568  12.831
70287W        W42712  23.062  29.004   2.770
70288W        W42713  14.163  44.345  12.957
70289W        W42714   0.318   6.880   2.733
70290W        W42715  11.227  42.977   4.267
70291W        W42716  22.582  40.836  14.986
70292W        W42717  42.907   0.473   1.439
70293W        W42718  23.635  17.740   2.772
70294W        W42719   0.813   3.386   1.853
70295W        W42720  39.869  28.101  12.943
70296W        W42721   1.731  11.746   2.857
70297W        W42722  23.082   4.794   2.764
70298W        W42723  10.329   5.847   4.164
70299W        W42724   2.396  32.441  11.965
70300W        W42725   4.205   0.902   2.761
70301W        W42726   3.862   2.924   0.935
70302W        W42727  11.844   5.725  12.509
70303W        W42728  26.567  27.185   2.771
70304W        W42729  21.143   7.837  13.938
70305W        W42730  21.185  11.354   2.380
70306W        W42731  41.982   2.299  10.963
70307W        W42732   0.781  18.294   3.380
70308W        W42733  33.500  19.086   0.411
70309W        W42734  43.960  32.457   0.937
70310W        W42735   9.788   3.432  12.539
70311W        W42736  29.642  34.029   4.241
70312W        W42737   1.804  21.156   4.239
70313W        W42738  33.022   4.441  13.357
70314W        W42739  10.312  40.839   0.763
70315W        W42740  38.847  10.193   2.898
70316W        W42741  39.354  35.066  13.833
70317W        W42742  23.095  28.185   2.237
70318W        W42743  39.815  13.708  12.569
70319W        W42744  38.433   5.346   4.154
70320W        W42745  27.517  30.603   3.783
70321W        W42746  25.552  21.219   4.259
70322W        W42747  21.594   7.757   3.839
70323W        W42748  20.149  32.909  12.572
70324W        W42749   5.764  14.218  14.418
70325W        W42750   6.905  43.504   3.650
70326W        W42751  17.214  32.583   4.351
70327W        W42752   3.270   6.714   1.270
70328W        W42753   6.835  41.314   2.202
70329W        W42754   6.312  18.229  13.316
70330W        W42755  42.826  19.180   0.897
70331W        W42756  23.596   7.766   1.695
70332W        W42757  26.143  22.069  10.997
70333W        W42758   2.269  44.999  14.416
70334W        W42759  22.161  44.805  11.971
70335W        W42760  34.376  33.944  13.987
70336W        W42761  44.897   9.294   4.326
70337W        W42762   9.715  40.497   4.811
70338W        W42763   0.771  42.017   0.904
70339W        W42764  10.843  28.646   3.222
70340W        W42765  35.078  26.696  14.312
70341W        W42766   2.789  26.091   0.355
70342W        W42767  20.140   8.297  14.856
70343W        W42768  28.183   5.714  14.409
70344W        W42769  43.312  31.519  11.090
70345W        W42770  33.947  35.090  10.485
70346W        W42771  31.522  38.569   1.263
70347W        W42772  25.539  32.397   2.709
70348W        W42773   0.444  32.072  14.889
70349W        W42774   9.726  20.144  11.935
70350W        W42775   7.894  21.178  13.827
70351W        W42776  13.174   4.762  14.393
70352W        W42777  30.069   5.380  13.976
70353W        W42778  26.112  16.181   3.683
70354W        W42779   4.248   2.957  14.763
70355W        W42780  35.423  20.765  12.437
70356W        W42781  37.974  34.913   4.336
70357W        W42782  15.674  37.884  10.941
70358W        W42783  28.162  13.797  14.826
70359W        W42784   3.268  39.830  12.038
70360W        W42785  21.228   6.842  11.443
70361W        W42786  16.662  20.217  11.555
70362W        W42787  29.426   2.940  14.824
70363W        W42788   9.830  21.629   4.736
70364W        W42789  14.322  30.527  11.499
70365W        W42790  37.993  28.072  12.405
70366W        W42791  23.189  30.065   2.206
70367W        W42792  30.934  34.048  14.465
70368W        W42793  29.074   0.338  14.837
70369W        W42794   9.347  26.080  13.329
70370W        W42795   2.931  12.262   0.729
70371W        W42796  39.000  16.258   1.713
70372W        W42797  44.921  25.577  12.999
70373W        W42798   5.819  29.445  14.781
70374W        W42799  44.281  43.944   4.784
70375W        W42800  27.540   1.311   4.148
70376W        W42801  39.886   2.915   3.381
70377W        W42802   8.275  43.869   3.856
70378W        W42803  27.635  22.020   0.928
70379W        W42804  28.610  26.048  12.505
70380W        W42805  13.607   9.272  14.855
70381W        W42806  32.993  20.151   1.830
70382W        W42807  33.513  43.498  11.476
70383W        W42808   8.789  36.452   4.607
70384W        W42809  33.580  13.323   0.822
70385W        W42810  32.473  16.710  14.506
70386W        W42811  15.125  23.190  13.844
70387W        W42812  15.719  23.722  12.988
70388W        W42813  36.889  37.560  11.069
70389W        W42814  10.369   7.282   3.196
70390W        W42815  36.980  30.995  11.518
70391W        W42816   5.202  28.152  11.579
70392W        W42817   3.912  15.133   3.265
70393W        W42818   4.263   9.744  12.940
70394W        W42819  25.103  11.368   0.452
70395W        W42820  40.013   9.195  11.490
70396W        W42821  23.236  28.016   3.212
70397W        W42822   0.363  23.194  14.457
70398W        W42823   8.308  10.859   1.330
70399W        W42824  16.108  31.994  12.357
70400W        W42825  25.164  20.084   0.783
70401W        W42826  33.382  36.411  13.019
70402W        W42827  22.511  31.560  12.078
70403W        W42828   4.206   9.700   0.378
70404W        W42829   7.266   1.420   1.921
70405W        W42830   7.763  41.468  13.460
70406W        W42831  11.861  21.753  10.959
70407W        W42832  39.318   5.802  14.413
70408W        W42833  25.710   3.319  14.318
70409W        W42834   0.392  25.157   1.706
70410W        W42835  37.497  34.396  13.518
70411W        W42836  14.232  10.318   4.831
70412W        W42837  11.368  38.443   2.245
70413W        W42838  36.457  20.118   4.263
70414W        W42839   6.771  19.588   2.410
70415W        W42840  31.040  44.008  10.532
70416W        W42841  10.169   6.235  11.394
70417W        W42842  39.822  38.003   0.819
70418W        W42843   2.859  38.506  13.913
70419W        W42844  26.100   9.886  11.499
70420W        W42845  44.396   4.921   3.772
70421W        W42846  17.636  14.178   4.645
70422W        W42847  21.542  25.709   3.297
70423W        W42848  24.072  11.206  11.431
70424W        W42849  30.955   0.252  12.351
70425W        W42850  15.307  33.033   2.312
70426W        W42851   9.693  14.761  11.943
70427W        W42852  14.693  34.980   0.441
70428W        W42853  11.174   0.477   1.781
70429W        W42854  30.018  18.677  13.408
70430W        W42855  10.841  17.720  10.930
70431W        W42856  30.605  38.385   4.732
70432W        W42857  37.064  10.210  11.588
70433W        W42858  38.942   8.705  10.131
70434W        W42859  32.901   8.398   4.819
70435W        W42860  27.047  41.377   0.414
70436W        W42861  24.011  33.427   2.190
70437W        W42862   0.302  16.193   4.123
70438W        W42863  27.602   8.257  13.883
70439W        W42864   1.931  14.773  10.619
70440W        W42865  39.510   2.848  11.877
70441W        W42866   4.737  32.491  13.051
70442W        W42867   7.761  23.241   4.687
70443W        W42868  38.997   3.393   2.787
70444W        W42869  34.987  26.586   2.243
70445W        W42870  34.906  42.474  14.404
70446W        W42871  24.573  22.026   2.900
70447W        W42872  43.919  35.903   4.126
70448W        W42873  18.105  36.999   0.905
70449W        W42874  42.493   8.212   2.412
70450W        W42875  17.184   6.828   3.351
70451W        W42876   4.845  14.275   4.626
70452W        W42877  22.147   0.350   1.698
70453W        W42878   1.884   0.857  14.897
70454W        W42879  22.039  21.516   1.256
70455W        W42880  11.656  30.992  13.483
70456W        W42881  13.187  22.594  12.997
70457W        W42882  13.769  25.185  13.402
70458W        W42883  37.404  41.846   4.212
70459W        W42884  28.053  39.444  14.321
70460W        W42885  20.262  20.535   0.484
70461W        W42886   3.391   7.804   3.261
70462W        W42887  12.323  14.175   4.177
70463W        W42888  12.677  30.493  13.843
70464W        W42889  32.984  27.176   1.846
70465W        W42890  41.372  16.243  12.376
70466W        W42891  10.834  34.576   1.297
70467W        W42892  26.644  30.106   9.557
70468W        W42893  39.531  18.589   2.734
70469W        W42894  29.154  29.642   3.208
70470W        W42895  40.338  25.003  11.538
70471W        W42896  29.612   0.339  11.590
70472W        W42897  28.162  23.518  11.563
70473W        W42898  41.375  31.425  12.078
70474W        W42899  27.497   9.298  13.060
70475W        W42900  19.751  23.624  12.837
70476W        W42901  43.967  29.428   4.656
70477W        W42902  11.180  14.674  12.404
70478W        W42903  18.693   1.849   3.717
70479W        W42904  23.634  25.480   1.404
70480W        W42905  32.440  41.331   0.337
70481W        W42906  13.668   6.277  14.992
70482W        W42907  13.267   6.360  11.885
70483W        W42908  42.857  16.701   0.807
70484W        W42909  29.993   1.460   0.802
70485W        W42910  21.546  29.548  12.368
70486W        W42911  23.599  19.581  14.917
70487W        W42912  24.694   5.379   2.881
70488W        W42913   8.212  35.593   4.691
70489W        W42914  40.876  40.375  13.941
70490W        W42915  33.132  25.593  13.356
70491W        W42916  32.616  14.678  12.881
70492W        W42917   1.448  33.032   5.580
70493W        W42918   7.804  43.437   4.669
70494W        W42919  15.812  36.557   2.225
70495W        W42920   3.946  14.804  12.927
70496W        W42921  40.004  44.795  13.837
70497W        W42922  10.827   9.293   1.723
70498W        W42923   0.399  31.621  13.510
70499W        W42924   6.765  20.183  10.631
70500W        W42925   7.802  23.214   1.760
70501W        W42926  25.659  32.115  13.314
70502W        W42927   7.910  33.389  10.055
70503W        W42928  32.422   0.377   3.868
70504W        W42929   9.840  37.407   4.295
70505W        W42930  38.467   9.303  11.427
70506W        W42931  33.397  10.789   4.645
70507W        W42932  16.774  33.932   0.822
70508W        W42933  28.161  41.952   2.786
70509W        W42934   0.966  33.082   0.483
70510W        W42935   7.876  26.056  13.840
70511W        W42936   1.851  20.705  11.513
70512W        W42937  25.159  25.593  11.526
70513W        W42938  10.149  29.101  14.477
70514W        W42939  21.658   5.275   0.335
70515W        W42940  25.529  25.579  13.335
70516W        W42941  35.508   2.382  12.933
70517W        W42942   7.872  24.484  12.836
70518W        W42943  43.935   4.773  12.985
70519W        W42944  12.650   7.320  12.508
70520W        W42945  15.721  37.061  14.295
70521W        W42946  37.084  20.677  11.875
70522W        W42947  32.515   5.840   2.700
70523W        W42948  14.744  18.255   4.349
70524W        W42949  44.785   2.918  14.447
70525W        W42950   3.740  18.586  10.416
70526W        W42951  43.412   9.388   4.221
70527W        W42952   4.727  21.068   2.273
70528W        W42953  31.411  18.183   2.832
70529W        W42954  14.819  18.184  13.016
70530W        W42955  10.201  14.331   0.814
70531W        W42956  23.102   8.667   2.265
70532W        W42957  27.497   7.350   1.327
70533W        W42958  21.092  15.266   9.939
70534W        W42959  35.370  32.486   3.267
70535W        W42960  28.504   5.272  13.821
70536W        W42961   1.873   2.750  12.026
70537W        W42962  10.381  35.487   2.690
70538W        W42963   3.449  29.087   3.242
70539W        W42964   4.845  33.400   0.436
70540W        W42965  11.737  31.931   0.368
70541W        W42966  25.592  20.687  14.941
70542W        W42967  29.657   0.855  10.152
70543W        W42968  15.588   8.814  13.420
70544W        W42969  13.794  28.437   1.826
70545W        W42970  11.172  14.596   4.834
70546W        W42971   8.668  29.613  12.972
70547W        W42972   0.402  34.078  10.887
70548W        W42973  13.682   0.956  11.896
70549W        W42974  27.072   3.418   1.698
70550W        W42975  32.619   0.900  12.890
70551W        W42976  12.748  29.043  10.421
70552W        W42977  17.572  25.489   4.616
70553W        W42978  12.131   3.740   3.842
70554W        W42979  37.521  24.993  13.393
70555W        W42980  33.412  10.282  14.457
70556W        W42981  15.279   8.198  10.901
70557W        W42982   5.864   8.393   1.900
70558W        W42983  12.665  10.287   2.707
70559W        W42984  24.142  33.023  12.377
70560W        W42985   5.343  21.525   0.443
70561W        W42986  40.359  38.878   2.821
70562W        W42987  42.337   5.780   3.654
70563W        W42988  36.071  24.033   3.650
70564W        W42989  12.242  37.856  11.086
70565W        W42990  39.337  27.146  14.810
70566W        W42991  11.150  33.080  12.516
70567W        W42992   0.892  43.435  12.029
70568W        W42993  32.934  19.272   4.257
70569W        W42994  20.106  25.548  10.633
70570W        W42995   3.258  44.769  14.502
70571W        W42996  15.287  26.031   3.292
70572W        W42997  33.917  21.120  10.968
70573W        W42998   1.451  40.819   2.245
70574W        W42999  23.622  35.010   3.654
70575W        W43000  35.944  42.405  14.826
70576W        W43001  34.865  43.330  13.808
70577W        W43002  31.431  22.093  13.523
70578W        W43003  41.032  30.074  10.944
70579W        W43004  12.732  17.610  14.785
70580W        W43005  12.762  27.949   3.272
70581W        W43006  32.405  35.553   2.799
70582W        W43007  18.264  30.051   4.175
70583W        W43008  43.275  29.532   9.934
70584W        W43009  31.544  10.185  10.910
70585W        W43010  31.085  24.698   3.320
70586W        W43011  24.057  25.145   4.626
70587W        W43012  22.037  35.852  11.965
70588W        W43013  10.745   8.329   1.862
70589W        W43014   1.740  41.495   0.385
70590W        W43015   0.296  12.613  10.624
70591W        W43016  21.546  20.741   2.293
70592W        W43017   7.687  43.872  11.572
70593W        W43018   6.293  30.508   1.226
70594W        W43019  28.158  30.629   0.801
70595W        W43020  20.642   0.405   3.280
70596W        W43021  15.660  40.974  12.046
70597W        W43022  23.215  17.580   1.307
70598W        W43023   9.773  36.396  10.438
70599W        W43024  26.098  21.661   0.746
70600W        W43025  37.962  41.421   4.217
70601W        W43026  42.785  24.155   3.763
70602W        W43027  23.146  28.512  11.860
70603W        W43028  14.123   8.855  13.513
70604W        W43029  34.583  43.483  13.000
70605W        W43030   7.325  10.267   0.902
70606W        W43031  11.798   4.727  14.275
70607W        W43032   2.245  13.140  12.559
70608W        W43033  30.445  40.985   4.747
70609W        W43034   4.277  34.560   3.749
70610W        W43035  41.489   7.170  12.429
70611W        W43036  12.694  26.629   0.792
70612W        W43037  14.144  25.555   2.682
70613W        W43038  30.985  20.541  13.944
70614W        W43039   3.254   2.328  10.627
70615W        W43040   7.304  35.043  14.791
70616W        W43041  11.235  16.730  14.472
70617W        W43042   9.698  26.578   0.938
70618W        W43043  32.398  33.884   3.246
70619W        W43044   8.330  10.806   3.324
70620W        W43045  37.515  29.596   3.219
70621W        W43046  19.129  32.043  13.520
70622W        W43047   8.799  16.803  12.907
70623W        W43048  27.002  38.070  12.390
70624W        W43049  35.881  30.978   3.336
70625W        W43050   8.823  18.754   0.439
70626W        W43051  12.188  34.506  11.481
70627W        W43052   3.732  13.312  13.976
70628W        W43053  10.255  23.639  11.392
70629W        W43054  39.820  16.643  13.943
70630W        W43055  18.283   3.242   1.297
70631W        W43056  24.132  31.001  14.961
70632W        W43057   8.841  20.625   2.350
70633W        W43058  29.047  17.227   0.455
70634W        W43059  24.681  35.020   1.418
70635W        W43060  35.090  22.174   1.331
70636W        W43061  18.637  35.587  14.851
70637W        W43062  44.417  22.615   0.313
70638W        W43063  12.324   0.748   4.225
70639W        W43064  32.943   4.882  14.018
70640W        W43065  13.218  25.156  14.415
70641W        W43066   5.345  32.436   3.653
70642W        W43067  15.083  26.571   3.717
70643W        W43068  37.495  35.585   0.823
70644W        W43069   1.884  21.156  12.519
70645W        W43070  15.771  33.532  14.848
70646W        W43071  36.948   8.330   2.798
70647W        W43072  31.432   1.275  12.481
70648W        W43073  44.338  42.833  13.914
70649W        W43074  14.094  15.280  14.999
70650W        W43075  11.779   9.309  12.421
70651W        W43076   2.739   7.254  11.572
70652W        W43077   9.804  34.985   2.208
70653W        W43078  40.869   7.783  10.530
70654W        W43079  10.301  34.497   2.764
70655W        W43080  40.801  32.095   2.827
70656W        W43081  41.430  29.449  11.043
70657W        W43082  24.489   3.385  14.798
70658W        W43083  30.957  33.448  13.515
70659W        W43084  16.183  20.175  11.088
70660W        W43085   4.860  17.603  12.935
70661W        W43086  17.717  31.616   4.163
70662W        W43087   3.947  15.196  10.560
70663W        W43088  34.885  26.630  14.796
70664W        W43089  34.071   8.900   3.739
70665W        W43090   5.347   1.904   0.872
70666W        W43091  20.168  21.560   2.792
70667W        W43092  34.898  10.290  14.401
70668W        W43093  25.694  20.074  11.530
70669W        W43094  13.307  20.035   3.757
70670W        W43095  24.590   9.818   4.139
70671W        W43096  13.322  40.326   4.288
70672W        W43097   0.378  31.449  12.860
70673W        W43098  30.652  40.545  14.912
70674W        W43099  28.550  30.022   1.370
70675W        W43100  27.688   6.401   4.352
70676W        W43101  30.102  44.895   2.417
70677W        W43102  43.448  34.515  14.022
70678W        W43103  18.767  11.328   3.715
70679W        W43104   6.820  29.636   1.284
70680W        W43105   8.174  40.517   4.669
70681W        W43106  11.628  14.154   3.684
70682W        W43107   3.362  41.320   0.889
70683W        W43108  35.528  44.963   1.232
70684W        W43109  19.672  30.924  14.005
70685W        W43110   2.430  10.376   1.897
70686W        W43111  33.426  43.456   0.361
70687W        W43112  35.385  17.711  13.414
70688W        W43113   0.824  34.487  11.060
70689W        W43114  14.171  26.096   4.303
70690W        W43115  41.918  33.610   9.963
70691W        W43116  34.446  34.410  11.052
70692W        W43117   4.708   2.954   2.416
70693W        W43118  38.418  23.645   0.434
70694W        W43119  42.370  10.645  11.459
70695W        W43120  38.398  20.606  11.609
70696W        W43121  21.207  38.024  13.316
70697W        W43122  16.795  19.098   0.818
70698W        W43123  36.399  22.646  11.592
70699W        W43124  16.140  22.225  13.441
70700W        W43125  24.530  22.699   0.421
70701W        W43126  21.637   6.347  14.891
70702W        W43127   8.368   3.399   1.703
70703W        W43128  42.026  37.531   2.690
70704W        W43129  41.432  11.662  11.503
70705W        W43130  18.154  31.082  14.015
70706W        W43131  39.822   8.297   2.883
70707W        W43132  28.029  35.598   2.188
70708W        W43133   1.791  22.593  14.281
70709W        W43134   6.899  32.491  14.309
70710W        W43135  27.969  31.112  11.541
70711W        W43136  42.439  23.509   1.759
70712W        W43137  44.460   3.860   4.632
70713W        W43138  28.991  36.386  12.892
70714W        W43139  22.666  23.728   3.386
70715W        W43140  31.470  21.102   2.371
70716W        W43141  21.617  15.796  14.295
70717W        W43142  17.621   3.333   4.133
70718W        W43143   3.743  32.526  13.403
70719W        W43144  16.661  43.884   4.611
70720W        W43145  35.511  39.022   4.817
70721W        W43146  38.401  42.500   1.737
70722W        W43147  31.481  16.749  11.431
70723W        W43148  14.701  20.087   2.224
70724W        W43149  16.229  20.148  14.773
70725W        W43150  17.226   2.821   3.231
70726W        W43151  31.478  44.374  13.896
70727W        W43152  20.200  16.185   0.338
70728W        W43153  31.984  31.557  13.510
70729W        W43154  34.958   6.202  13.433
70730W        W43155  23.030   9.171  10.441
70731W        W43156  20.690  38.839  13.841
70732W        W43157  25.095  10.192   3.826
70733W        W43158   0.958   0.793  13.451
70734W        W43159  28.034  11.169  14.018
70735W        W43160  42.399  13.187   2.882
70736W        W43161  19.555  39.964   1.855
70737W        W43162  21.161  28.615   2.342
70738W        W43163  41.989  23.027   4.669
70739W        W43164  17.067   9.792  13.371
70740W        W43165  28.449  20.083   1.302
70741W        W43166  41.475  27.502  14.840
70742W        W43167  44.464  25.990   3.151
70743W        W43168   8.848  44.808  13.023
70744W        W43169  16.086  34.946  10.101
70745W        W43170  13.302   5.246   4.658
70746W        W43171  30.478   2.349   3.645
70747W        W43172  13.843  38.516  14.319
70748W        W43173   9.218   2.371   4.781
70749W        W43174  14.253  11.264  14.851
70750W        W43175  23.551  31.092   2.224
70751W        W43176  18.281  22.739   4.708
70752W        W43177  23.217  44.262  11.500
70753W        W43178   8.257  22.728   4.189
70754W        W43179  35.858  14.771  11.546
70755W        W43180  31.569  36.005  12.423
70756W        W43181   0.835  27.477   4.350
70757W        W43182   7.860  14.805  14.774
70758W        W43183  21.758  26.101   3.656
70759W        W43184   8.781  24.012  13.937
70760W        W43185  15.616  10.347   3.248
70761W        W43186  27.460   2.438  14.841
70762W        W43187  43.503  20.688  11.911
70763W        W43188   3.432  10.775  12.994
70764W        W43189  32.021   2.937   2.222
70765W        W43190   9.204   6.879  14.972
70766W        W43191  43.356  41.888  13.868
70767W        W43192  18.580  37.057   0.314
70768W        W43193  37.524  26.481   2.301
70769W        W43194  25.689  15.246   1.296
70770W        W43195  39.936   4.835  14.984
70771W        W43196  34.440  10.330   2.196
70772W        W43197  18.199  33.011   0.429
70773W        W43198  27.627  40.012  10.073
70774W        W43199  13.644  19.227  10.519
70775W        W43200  25.136  21.670  11.037
70776W        W43201  28.933  13.116   4.193
70777W        W43202   1.433  16.099  12.422
70778W        W43203  12.666  40.959   4.799
70779W        W43204  42.856  35.925   1.237
70780W        W43205  36.470  33.970  14.794
70781W        W43206  38.050   5.886  13.421
70782W        W43207  24.148  28.062   3.258
70783W        W43208   7.201  43.848  10.427
70784W        W43209   7.902   6.223  14.473
70785W        W43210   1.264  15.254   0.776
70786W        W43211  30.541  20.734   1.279
70787W        W43212  14.272   6.713   4.141
70788W        W43213  24.067   5.751   0.865
70789W        W43214  35.895  36.399   3.706
70790W        W43215  43.491  29.503   4.225
70791W        W43216  41.023  39.851  14.292
70792W        W43217  10.336  38.448   1.361
70793W        W43218  31.447   2.412   4.315
70794W        W43219   6.841  10.738   4.145
70795W        W43220  10.809  19.087   1.436
70796W        W43221  15.774  16.302  12.974
70797W        W43222  27.496   0.306   2.881
70798W        W43223  27.142  43.375   1.853
70799W        W43224  35.970  32.598   4.336
70800W        W43225   0.787   7.349  12.028
70801W        W43226  10.253  12.244   2.780
70802W        W43227  41.453  43.271   1.267
70803W        W43228   5.815   1.837   4.298
70804W        W43229  40.999  38.440   2.194
70805W        W43230   6.425  30.533   5.229
70806W        W43231  32.964  32.522  10.421
70807W        W43232  39.824  16.733  13.509
70808W        W43233  24.153  34.956  11.594
70809W        W43234  20.121  30.429   4.629
70810W        W43235   4.736  32.115  10.001
70811W        W43236   0.900   1.311  13.469
70812W        W43237  23.498   0.280  14.496
70813W        W43238  20.526  18.784  12.506
70814W        W43239  18.147  27.482  11.107
70815W        W43240  23.659   3.451   3.183
70816W        W43241  22.190  40.486   0.729
70817W        W43242   9.224  33.011   0.403
70818W        W43243  43.917  20.210  10.947
70819W        W43244  40.489  13.183   4.610
70820W        W43245  32.976  14.783  13.884
70821W        W43246  24.702  44.301  13.859
70822W        W43247  27.087   6.869  13.876
70823W        W43248  21.158  10.672  11.543
70824W        W43249   5.917  39.533   1.897
70825W        W43250   1.353  37.895   4.288
70826W        W43251  15.124  33.577  11.917
70827W        W43252  15.259  32.088  10.413
70828W        W43253  44.309  11.236  10.575
70829W        W43254  31.033  30.919   1.409
70830W        W43255   7.766  30.109   2.673
70831W        W43256  42.372  22.722   2.254
70832W        W43257  35.899  19.266  10.978
70833W        W43258  43.917  39.315   4.723
70834W        W43259  23.578  37.372   1.309
70835W        W43260  33.896  12.778  13.015
70836W        W43261  28.966  24.157   2.760
70837W        W43262   4.747  34.888  11.480
70838W        W43263  15.122   4.926   1.321
70839W        W43264  21.262  19.644  13.334
70840W        W43265   0.952  38.934   5.081
70841W        W43266  20.197   8.803   3.642
70842W        W43267  25.559  12.129  11.877
70843W        W43268   8.799  27.660   1.236
70844W        W43269  26.601   8.828   1.799
70845W        W43270  43.809  39.377   4.299
70846W        W43271   5.742   2.398   1.806
70847W        W43272  27.622   5.354   2.835
70848W        W43273  41.327  13.654  10.584
70849W        W43274  31.928  18.635   4.695
70850W        W43275  43.888  19.154  10.894
70851W        W43276   8.191  37.970   0.349
70852W        W43277  39.383   4.384  13.476
70853W        W43278  33.616   1.868  10.568
70854W        W43279   1.381  39.967   2.306
70855W        W43280  38.072  42.399  13.984
70856W        W43281   0.802  21.177   0.396
70857W        W43282  24.995  10.855   3.377
70858W        W43283   5.358   9.278  12.390
70859W        W43284  22.617  40.934  13.018
70860W        W43285  12.624  13.807  13.459
70861W        W43286   6.381  12.223  13.930
70862W        W43287  33.080   1.289   4.269
70863W        W43288  19.686  21.111  10.927
70864W        W43289   4.218  12.636  12.071
70865W        W43290   2.304   5.719  14.492
70866W        W43291  14.306  14.145   0.958
70867W        W43292   3.306   5.219   0.904
70868W        W43293  24.159   0.362  10.452
70869W        W43294  16.782  44.005   4.263
70870W        W43295  28.541  26.472   3.748
70871W        W43296  33.011  28.171  10.917
70872W        W43297   6.301  26.114   2.309
70873W        W43298  14.740  35.913  11.082
70874W        W43299  24.160  41.883  14.975
70875W        W43300  34.047  28.131   4.243
70876W        W43301  11.278   3.724  11.568
70877W        W43302   3.820  28.998   4.716
70878W        W43303  12.697  14.137   2.725
70879W        W43304   1.771  31.612   0.339
70880W        W43305   6.401  28.185   1.820
70881W        W43306  39.864  32.069   2.266
70882W        W43307  30.514  22.658   1.928
70883W        W43308  24.705   8.695  11.930
70884W        W43309  18.229  11.680   4.801
70885W        W43310  27.513  43.368  14.951
70886W        W43311  37.440   4.297   1.284
70887W        W43312  25.206  23.077   3.716
70888W        W43313   7.191  42.026  13.359
70889W        W43314   2.887  21.144   3.151
70890W        W43315  28.950   4.339   3.796
70891W        W43316   8.860  27.486   0.430
70892W        W43317  37.987  37.351   1.724
70893W        W43318   2.731  42.864   2.263
70894W        W43319  42.865  25.965  10.641
70895W        W43320  29.513  44.453  13.481
70896W        W43321   6.869  25.535  12.573
70897W        W43322  25.710  41.323  12.564
70898W        W43323  14.329  27.128  14.487
70899W        W43324   2.248  28.594   4.297
70900W        W43325  33.897  28.562   2.777
70901W        W43326  32.115  30.921   5.156
70902W        W43327  32.089  44.273   3.161
70903W        W43328  39.951  31.028  11.007
70904W        W43329   8.873  24.156  11.065
70905W        W43330  32.619  20.219  10.888
70906W        W43331  33.957   5.895   4.137
70907W        W43332  36.030  16.078   4.256
70908W        W43333  20.214  44.500  12.919
70909W        W43334   1.279  35.522  13.848
70910W        W43335  31.102  33.123  10.954
70911W        W43336  43.273  27.128   2.666
70912W        W43337  27.576   6.261   2.314
70913W        W43338  33.010  32.412   0.442
70914W        W43339   1.417  23.113   3.682
70915W        W43340   1.369   1.459   3.646
70916W        W43341  21.539  13.147  12.054
70917W        W43342  37.014  41.404  11.386
70918W        W43343   4.939   2.434   4.627
70919W        W43344   1.808  24.677  10.405
70920W        W43345  16.701  14.640  12.422
70921W        W43346  30.466  31.487   2.838
70922W        W43347  21.212   6.228  14.980
70923W        W43348  43.336   1.369  12.988
70924W        W43349   8.193  40.451  14.408
70925W        W43350  27.973  25.648   4.809
70926W        W43351  18.058   7.702  13.958
70927W        W43352  32.012  20.613  11.433
70928W        W43353  40.546  14.193   5.154
70929W        W43354   6.234  17.596  12.071
70930W        W43355  28.605  34.448   0.253
70931W        W43356  21.057  38.406  11.861
70932W        W43357  41.428  30.526   1.726
70933W        W43358   6.905  33.078   2.783
70934W        W43359  29.602  22.044  10.064
70935W        W43360  35.062  40.513  10.953
70936W        W43361  44.455  35.581  13.036
70937W        W43362  31.022  11.236  12.488
70938W        W43363  12.841   2.272   1.347
70939W        W43364  41.437  44.806   3.253
70940W        W43365  37.078  15.756  12.082
70941W        W43366  34.054  24.008   3.762
70942W        W43367  36.976  41.347  13.001
70943W        W43368   2.772  30.587  12.372
70944W        W43369  43.338   1.386   0.944
70945W        W43370   3.347  15.285  12.859
70946W        W43371  31.449   5.795   0.862
70947W        W43372   6.428  26.197   4.168
70948W        W43373  41.304  27.017  10.419
70949W        W43374   6.341  44.370  10.096
70950W        W43375  22.523  13.727   1.811
70951W        W43376  39.927  31.411   0.362
70952W        W43377  23.080  40.835  11.939
70953W        W43378  34.052  36.909  11.878
70954W        W43379  42.380  15.314  14.841
70955W        W43380  10.743  13.150   1.318
70956W        W43381   3.399  23.211   0.835
70957W        W43382  39.851  38.446   3.680
70958W        W43383   9.282  11.237   3.288
70959W        W43384   0.963  39.521  10.422
70960W        W43385   9.815  21.662  12.558
70961W        W43386   4.304  29.548   0.820
70962W        W43387  14.662  38.915   3.635
70963W        W43388   6.800   9.378   0.818
70964W        W43389  30.154  35.556   0.407
70965W        W43390   2.429   7.747  10.980
70966W        W43391  35.488   5.891  14.776
70967W        W43392  31.539  31.420   0.748
70968W        W43393  33.601   2.398  10.428
70969W        W43394  36.893  26.189  10.518
70970W        W43395  32.142  33.484  13.545
70971W        W43396  44.345   3.752   4.166
70972W        W43397  42.286  28.954   2.832
70973W        W43398   3.938  36.895   2.348
70974W        W43399  33.924  42.953   4.278
70975W        W43400  21.717  23.182   4.182
70976W        W43401  17.246  32.426   2.805
70977W        W43402  44.330  15.092  10.462
70978W        W43403  38.894  16.659  11.571
70979W        W43404  40.412  34.064   0.778
70980W        W43405   7.217  32.460   3.833
70981W        W43406   8.848   0.429  11.609
70982W        W43407  18.105  41.011  12.371
70983W        W43408  25.688  42.981   4.246
70984W        W43409  25.694  13.763   0.878
70985W        W43410  17.709   2.313   0.305
70986W        W43411  25.044  21.698   3.671
70987W        W43412   0.774  26.594   3.728
70988W        W43413  40.529  19.671  11.000
70989W        W43414   4.251  20.230  13.397
70990W        W43415  36.887  43.404  14.834
70991W        W43416  24.500  38.425   3.325
70992W        W43417  17.191  17.707   0.847
70993W        W43418  17.699  18.777  13.327
70994W        W43419   6.708   5.864   2.801
70995W        W43420  42.866  30.558  12.987
70996W        W43421  40.410  24.017   3.780
70997W        W43422  42.860  21.548  11.946
70998W        W43423   2.342  42.370   0.833
70999W        W43424   9.802   8.347   4.695
71000W        W43425  29.652  26.986   0.763
71001W        W43426  37.358  44.917  12.891
71002W        W43427  11.362   0.870   0.391
71003W        W43428  19.276  19.769  12.537
71004W        W43429  12.202  26.134   1.279
71005W        W43430  24.619   6.868  10.948
71006W        W43431   6.861  24.059   1.912
71007W        W43432  29.432   2.375  10.586
71008W        W43433  40.323  16.625   2.713
71009W        W43434   9.674  17.706   0.883
71010W        W43435   6.302  27.111   0.859
71011W        W43436  30.430  24.721   1.315
71012W        W43437  23.610   0.330   3.676
71013W        W43438  41.890  28.984  10.974
71014W        W43439  25.059   1.794   4.174
71015W        W43440  35.467  26.643   5.316
71016W        W43441  33.078  40.432   2.777
71017W        W43442  42.851   3.394  14.018
71018W        W43443  35.999  37.900   0.959
71019W        W43444  26.535   5.775   4.192
71020W        W43445  35.092  14.227   4.775
71021W        W43446  14.234   8.396  11.123
71022W        W43447   3.792  26.020  14.909
71023W        W43448  20.157  23.518   1.351
71024W        W43449  27.657  14.743   3.693
71025W        W43450  12.737  44.887  13.054
71026W        W43451  24.041  40.369   1.834
71027W        W43452  42.964  25.538  13.443
71028W        W43453  14.097   3.813  12.349
71029W        W43454  27.058  34.568  10.967
71030W        W43455  25.562  20.713   0.387
71031W        W43456  26.027  13.165  12.046
71032W        W43457  35.432  42.359   1.873
71033W        W43458  30.558  44.321   3.751
71034W        W43459  35.068   4.890  11.027
71035W        W43460  35.529  30.527   0.937
71036W        W43461  41.473   2.413  11.431
71037W        W43462   5.875  23.508  12.919
71038W        W43463  17.770  42.793  11.971
71039W        W43464  44.367   2.924  10.535
71040W        W43465   0.358  25.109   5.160
71041W        W43466  39.047  31.646   0.306
71042W        W43467  31.056  23.108   5.197
71043W        W43468  11.667  32.422  13.543
71044W        W43469  34.083  19.755  11.576
71045W        W43470  36.883  14.155  13.419
71046W        W43471   6.304  36.944   0.447
71047W        W43472   5.825  18.664   2.360
71048W        W43473  44.002  10.284   4.281
71049W        W43474   7.284   5.826   4.115
71050W        W43475   4.772  25.569  14.896
71051W        W43476  30.546   9.361  13.427
71052W        W43477  25.665  31.444   2.792
71053W        W43478  15.600  21.242  11.441
71054W        W43479  19.770   7.775  14.978
71055W        W43480  25.198  28.594   4.162
71056W        W43481  10.161   2.872  12.483
71057W        W43482  28.090   6.397  12.497
71058W        W43483  44.814   7.741   2.770
71059W        W43484  43.988   3.375   2.769
71060W        W43485   1.762  25.011  10.989
71061W        W43486   5.928  37.008  11.524
71062W        W43487   7.714  16.164   2.879
71063W        W43488  37.831  10.823  10.456
71064W        W43489  28.140   8.311   2.696
71065W        W43490  14.630  41.387   2.218
71066W        W43491  10.638  28.569  12.407
71067W        W43492   7.679  24.630  13.830
71068W        W43493  18.553  10.714   1.233
71069W        W43494  35.578   3.749  11.413
71070W        W43495  20.156  32.131  11.554
71071W        W43496  33.096   8.760  12.393
71072W        W43497  17.163  21.634   4.631
71073W        W43498  44.439  16.726   2.735
71074W        W43499  21.533   4.333  14.439
71075W        W43500  10.717   7.903   4.780
71076W        W43501  33.441  25.135   3.379
71077W        W43502  34.019  14.824   3.162
71078W        W43503  16.677  36.926  12.036
71079W        W43504  35.007  43.321  12.888
71080W        W43505  38.924  31.525  11.552
71081W        W43506  38.467   8.823   3.196
71082W        W43507  26.030  14.216  10.993
71083W        W43508  26.634  28.065   0.903
71084W        W43509   8.330  31.489   1.441
71085W        W43510  10.158  11.719   0.785
71086W        W43511  19.273  10.189   2.374
71087W        W43512  22.609  29.031  14.289
71088W        W43513  34.007  37.904  12.558
71089W        W43514  20.622  19.232  11.905
71090W        W43515   4.800   5.730  11.568
71091W        W43516  22.560  39.419   1.772
71092W        W43517  28.445  23.134   5.168
71093W        W43518  16.696  12.252   0.440
71094W        W43519  18.637  30.932   1.406
71095W        W43520   4.222  44.920   3.835
71096W        W43521   6.202  39.966  13.976
71097W        W43522   5.816  11.248  11.066
71098W        W43523  35.535  36.877   1.922
71099W        W43524  11.865   8.888   9.932
71100W        W43525   0.912  11.259  14.763
71101W        W43526  31.513  25.207   0.427
71102W        W43527  20.687  18.110   0.339
71103W        W43528  30.488   4.246   1.758
71104W        W43529  22.201  33.968  14.366
71105W        W43530  20.104  23.578   0.408
71106W        W43531   1.788  22.087  12.412
71107W        W43532  31.438   9.316  10.894
71108W        W43533   0.759  20.766  13.956
71109W        W43534  15.135  28.945   4.255
71110W        W43535  12.353  41.840   4.172
71111W        W43536  37.552   5.390   1.214
71112W        W43537  13.193  28.513   4.604
71113W        W43538  30.041  19.537   3.343
71114W        W43539  38.346   9.738   0.264
71115W        W43540  15.763  13.323   0.476
71116W        W43541   0.954  30.083   0.834
71117W        W43542  10.737  35.385  14.426
71118W        W43543  26.587  25.579  12.872
71119W        W43544  11.205  31.002   1.255
71120W        W43545  25.582  26.010  11.102
71121W        W43546   4.795  36.591   4.671
71122W        W43547  38.057  34.039  11.119
71123W        W43548  12.307   9.377   4.700
71124W        W43549  21.757  15.698   3.858
71125W        W43550  30.009  33.539  12.020
71126W        W43551  17.243  36.055   2.394
71127W        W43552  29.087   6.377  11.931
71128W        W43553  42.509  37.563   4.219
71129W        W43554  32.605  19.157  14.842
71130W        W43555  28.123  26.042   1.220
71131W        W43556  14.618  30.566  14.790
71132W        W43557  31.954  26.133  11.933
71133W        W43558   7.316  26.152  10.450
71134W        W43559  31.135  23.147  14.515
71135W        W43560  30.022  23.683   5.263
71136W        W43561  31.927  26.004   3.633
71137W        W43562  43.987  29.508   0.271
71138W        W43563   1.902  32.565   2.775
71139W        W43564  26.618  11.357   2.765
71140W        W43565  23.177  16.725   1.886
71141W        W43566  25.487  35.588   1.749
71142W        W43567  18.139  27.013   1.299
71143W        W43568  44.266  30.627  10.927
71144W        W43569  17.181  14.644   4.625
71145W        W43570   0.772   5.270   4.625
71146W        W43571  42.502  21.049   3.767
71147W        W43572  25.064  39.345  14.463
71148W        W43573  22.521  43.801  12.428
71149W        W43574  27.461  19.251  11.928
71150W        W43575  30.602  11.269  12.911
71151W        W43576  14.251  44.004   2.382
71152W        W43577  12.356  28.482   0.894
71153W        W43578  43.516   7.311   4.651
71154W        W43579  12.830  18.062  12.011
71155W        W43580  44.800  21.238   1.768
71156W        W43581  38.933  27.614  10.494
71157W        W43582  44.878  35.367   4.345
71158W        W43583  37.936  31.949   3.754
71159W        W43584  32.505  14.674  10.920
71160W        W43585  25.083  35.572  12.888
71161W        W43586   4.739   9.768   4.303
71162W        W43587  14.725  15.655   2.703
71163W        W43588  16.088  42.507   2.340
71164W        W43589  32.580  19.653   4.823
71165W        W43590  36.380  37.901  12.967
71166W        W43591  20.582   6.896   3.322
71167W        W43592   8.351  32.026  11.917
71168W        W43593  34.945  28.177   2.348
71169W        W43594  33.072  44.945   1.398
71170W        W43595  36.923  37.917   2.751
71171W        W43596   8.297  17.665  10.457
71172W        W43597  13.701  25.150   0.930
71173W        W43598  15.723  28.948   3.754
71174W        W43599  19.200  23.584  14.849
71175W        W43600  12.182   8.180   3.379
71176W        W43601   4.310   8.796   0.767
71177W        W43602  28.553  22.026  10.547
71178W        W43603  19.600  35.976  10.987
71179W        W43604  10.746  36.539  14.778
71180W        W43605  38.856  40.355   1.892
71181W        W43606  13.759  26.065   0.841
71182W        W43607  38.369  30.915  14.844
71183W        W43608  36.359   6.188  11.116
71184W        W43609  23.997  44.862  14.985
71185W        W43610  40.857   3.437   3.672
71186W        W43611  39.994  37.081  10.988
71187W        W43612  37.830  32.569   0.287
71188W        W43613  12.697  26.177   1.770
71189W        W43614   1.323  15.204  13.332
71190W        W43615  35.981  23.720   3.193
71191W        W43616  41.377  32.550   2.249
71192W        W43617  21.519  19.185   3.713
71193W        W43618   5.213   8.344   2.785
71194W        W43619  18.129  23.984  10.491
71195W        W43620  33.431   7.834   0.373
71196W        W43621  14.790   0.847  14.401
71197W        W43622  23.509  32.003  10.618
71198W        W43623   5.812  34.034   3.189
71199W        W43624  38.015  22.241  10.506
71200W        W43625  12.325   9.220  14.813
71201W        W43626  36.492  25.213   2.396
71202W        W43627  38.914  12.238  14.284
71203W        W43628  38.865  30.536   1.329
71204W        W43629  12.185  10.646   4.218
71205W        W43630   5.431  26.536  14.946
71206W        W43631  33.475  39.473  13.524
71207W        W43632  36.891  28.179   1.246
71208W        W43633  28.632  39.935   1.411
71209W        W43634   1.293  12.219   2.796
71210W        W43635   3.252  12.673   3.732
71211W        W43636   5.344   2.721   1.211
71212W        W43637  12.276  16.090   4.664
71213W        W43638   8.344  37.573   1.934
71214W        W43639  16.759  41.969   3.758
71215W        W43640  26.649   3.720   3.660
71216W        W43641   5.835   0.826   1.353
71217W        W43642   6.694   8.343  11.514
71218W        W43643   5.775   1.834   2.203
71219W        W43644  19.548  24.111   1.778
71220W        W43645  35.496   2.319   0.866
71221W        W43646  11.243  12.768  14.404
71222W        W43647  11.739  22.213  11.403
71223W        W43648  36.520   7.200  10.108
71224W        W43649  41.879  16.132  10.994
71225W        W43650   6.912  19.586   3.305
71226W        W43651  38.325  39.378  12.056
71227W        W43652  27.532   0.876   1.796
71228W        W43653   8.185  36.452   1.353
71229W        W43654  32.099  20.241  13.911
71230W        W43655  12.325  19.615  14.853
71231W        W43656  33.926  29.468   4.611
71232W        W43657  13.131   7.880   1.365
71233W        W43658   5.724   9.883  11.510
71234W        W43659  19.230   6.904  12.502
71235W        W43660  29.942   6.285  10.509
71236W        W43661  25.191  19.087  10.482
71237W        W43662  41.792  24.062   3.634
71238W        W43663  43.418   5.210   2.375
71239W        W43664  21.517  34.510  10.497
71240W        W43665   3.907   6.820   2.746
71241W        W43666  21.649   9.868   0.306
71242W        W43667  44.483  25.995  10.523
71243W        W43668  44.351  12.331   3.811
71244W        W43669  24.186  36.938   4.632
71245W        W43670  12.634  16.075   3.371
71246W        W43671  37.497  13.749  11.579
71247W        W43672  37.015  21.639   3.319
71248W        W43673   4.447  11.669  12.977
71249W        W43674  33.494  42.465   0.808
71250W        W43675   6.206  37.381   5.120
71251W        W43676  17.263  29.556  14.340
71252W        W43677  44.266  32.497   4.200
71253W        W43678  14.769  17.276   3.343
71254W        W43679  30.991  20.076  14.871
71255W        W43680  32.002  16.711  10.617
71256W        W43681  18.682  14.773   1.932
71257W        W43682  31.075   9.223   2.738
71258W        W43683  44.361  25.146   4.217
71259W        W43684   0.807   0.794   0.843
71260W        W43685  22.686  10.167   4.768
71261W        W43686  26.696   9.709   3.794
71262W        W43687  35.446  42.823   2.274
71263W        W43688  28.951  36.591   3.795
71264W        W43689   2.888  44.806   1.404
71265W        W43690  39.842  21.171  13.831
71266W        W43691  32.532  43.457  13.322
71267W        W43692   6.290   9.673  14.435
71268W        W43693  16.673  34.864  13.531
71269W        W43694  33.502  34.039   0.829
71270W        W43695  10.375  11.362  10.476
71271W        W43696  27.592  30.082  14.858
71272W        W43697  41.030  36.543   3.757
71273W        W43698   8.847  36.555  13.939
71274W        W43699  11.177  31.142   0.382
71275W        W43700   6.847   8.317   4.821
71276W        W43701   7.828  37.381  14.894
71277W        W43702  29.497  17.605  11.034
71278W        W43703   1.857  38.501  11.408
71279W        W43704  19.130   1.937  14.442
71280W        W43705   1.335  40.931   1.893
71281W        W43706   2.296  40.418   4.609
71282W        W43707  25.975   2.339   4.698
71283W        W43708  35.102  14.679  12.529
71284W        W43709  34.394  13.164   1.793
71285W        W43710  15.323  31.076   2.740
71286W        W43711  17.219  21.664  13.542
71287W        W43712  40.484   2.466   2.404
71288W        W43713  22.042  31.096  13.864
71289W        W43714   9.648  32.486  11.500
71290W        W43715   5.895   8.160  11.582
71291W        W43716   4.703  35.914   2.341
71292W        W43717  24.987  19.656  14.405
71293W        W43718  30.032  16.774  11.042
71294W        W43719  42.784  18.781   5.226
71295W        W43720  38.888  41.412  14.027
71296W        W43721   0.902  41.431  14.290
71297W        W43722  19.594  18.721   1.335
71298W        W43723   7.202  21.264  12.460
71299W        W43724  25.058  17.670  10.436
71300W        W43725   5.306  16.657   2.379
71301W        W43726  42.977  30.497   2.784
71302W        W43727  41.948  27.107   1.396
71303W        W43728   8.760  10.872  10.531
71304W        W43729  35.014  12.323  14.812
71305W        W43730  10.356   0.811   0.483
71306W        W43731  14.214  11.294   3.257
71307W        W43732  15.243  20.672  14.410
71308W        W43733  16.148  41.793   0.763
71309W        W43734  24.578   2.768  10.621
71310W        W43735  23.577  13.777  12.396
71311W        W43736  22.696  44.941  11.868
71312W        W43737  44.469  44.386  13.484
71313W        W43738  31.533   4.926   3.256
71314W        W43739  19.264   2.292   2.216
71315W        W43740  15.600  12.626  10.630
71316W        W43741  24.992   8.800  11.391
71317W        W43742  27.648  31.618   0.292
71318W        W43743  14.704  10.158   0.845
71319W        W43744   1.342  31.056   2.201
71320W        W43745  43.822  31.019  12.524
71321W        W43746  14.181  18.750   2.381
71322W        W43747  30.145  28.479   1.244
71323W        W43748  27.572   6.882  12.923
71324W        W43749  36.015  13.763  10.617
71325W        W43750  11.258  32.557   0.336
71326W        W43751  16.277   5.211  13.809
71327W        W43752   9.801   2.255   4.704
71328W        W43753  10.291  40.352   2.879
71329W        W43754  30.446   1.764  10.451
71330W        W43755  35.887  43.782  11.069
71331W        W43756  35.444  22.733   3.859
71332W        W43757   8.377  35.087   2.263
71333W        W43758  33.090  25.684  11.917
71334W        W43759   3.364  35.917   4.214
71335W        W43760  25.551  42.904   3.146
71336W        W43761   5.202   3.747  11.500
71337W        W43762  35.078   5.360  13.926
71338W        W43763   0.803  43.852  14.867
71339W        W43764  39.339   4.921  10.988
71340W        W43765  33.017   8.176  13.882
71341W        W43766  41.324  17.629   4.820
71342W        W43767  41.438  25.095   3.276
71343W        W43768  14.720   6.294  12.860
71344W        W43769  38.381   4.780   3.239
71345W        W43770   9.735   3.724  14.791
71346W        W43771  19.249  27.477   3.238
71347W        W43772   3.224  15.788  14.819
71348W        W43773  21.038   8.172  13.903
71349W        W43774   7.222  40.904   3.229
71350W        W43775  12.806  43.402  14.990
71351W        W43776   3.432  17.600  11.539
71352W        W43777  23.043  25.471   1.746
71353W        W43778   4.268  21.019  11.916
71354W        W43779  25.540   6.204  13.954
71355W        W43780  25.143  23.495  10.906
71356W        W43781  10.800   3.432  10.980
71357W        W43782   7.830  35.996  12.467
71358W        W43783   4.807   5.843  12.444
71359W        W43784   7.405  41.440  12.059
71360W        W43785  40.044  36.896  13.813
71361W        W43786   5.832  31.978  14.001
71362W        W43787  41.333  41.406   1.394
71363W        W43788  14.671  11.744  11.487
71364W        W43789  41.010   3.316  12.883
71365W        W43790   4.230   2.832   0.301
71366W        W43791  42.488  20.669   0.756
71367W        W43792  23.716  32.961   4.779
71368W        W43793  12.663  43.480   0.443
71369W        W43794  40.539  15.755   1.814
71370W        W43795  41.027  33.947   2.715
71371W        W43796   7.732  16.582   9.988
71372W        W43797  33.011  40.976   0.348
71373W        W43798  25.689  30.616   4.775
71374W        W43799   4.265   8.229  14.314
71375W        W43800  42.515  15.630  14.909
71376W        W43801  22.121  21.598  11.441
71377W        W43802  24.569  37.407   4.634
71378W        W43803  42.511  35.406  14.340
71379W        W43804  30.089   4.359   3.204
71380W        W43805  38.385  37.386   0.795
71381W        W43806  29.073  41.857   0.732
71382W        W43807  20.079  42.820  13.439
71383W        W43808  28.934  41.446   5.295
71384W        W43809   4.292  32.611  11.450
71385W        W43810  18.255   4.282   0.263
71386W        W43811  28.060   8.822   3.715
71387W        W43812  37.028  22.739  10.447
71388W        W43813  43.919   2.812  10.424
71389W        W43814  24.724  40.324   1.281
71390W        W43815   7.678  13.199  12.857
71391W        W43816  35.085  37.012  12.537
71392W        W43817  16.107  34.071  12.828
71393W        W43818  44.460   1.902   4.350
71394W        W43819  39.519  32.492  11.513
71395W        W43820  11.203  22.538   5.281
71396W        W43821  44.361  20.591  11.877
71397W        W43822  41.500  23.119  11.611
71398W        W43823  34.513  28.490   1.713
71399W        W43824  18.782  43.972  14.844
71400W        W43825  30.129   4.815   0.836
71401W        W43826  19.538  30.481  14.806
71402W        W43827  29.645  43.362  11.049
71403W        W43828  26.157  24.514   3.666
71404W        W43829   3.709   6.272   1.717
71405W        W43830  34.933  44.760   0.855
71406W        W43831  28.160  31.991   5.090
71407W        W43832  27.584  14.314   4.148
71408W        W43833  36.348   1.405  12.092
71409W        W43834  23.694  43.854   2.770
71410W        W43835  33.411  17.777  13.522
71411W        W43836  41.842   9.874   1.738
71412W        W43837  13.119  16.140  12.531
71413W        W43838   2.464  32.907   3.277
71414W        W43839  13.324  14.212  11.543
71415W        W43840  20.040   8.402  10.481
71416W        W43841  37.930   1.393  14.899
71417W        W43842   0.358  28.045  13.909
71418W        W43843   0.856  24.480   2.698
71419W        W43844  12.131   3.237   3.669
71420W        W43845  31.460  33.410   2.259
71421W        W43846  35.970  35.604   3.863
71422W        W43847  26.997  40.517  10.966
71423W        W43848   0.373  27.175   1.869
71424W        W43849   9.830  43.829   2.705
71425W        W43850   3.759  33.022  13.526
71426W        W43851  34.892  37.048   4.765
71427W        W43852  44.005  39.555   3.188
71428W        W43853   8.271   7.771  14.921
71429W        W43854  44.761   2.463  10.622
71430W        W43855  33.893   2.292  13.928
71431W        W43856  34.427  31.424  12.917
71432W        W43857  36.919  35.397   1.918
71433W        W43858  12.696   5.255  11.402
71434W        W43859  18.077  25.606   4.722
71435W        W43860  22.507  11.706   0.879
71436W        W43861   9.161  27.941   1.790
71437W        W43862  26.673   2.458   1.433
71438W        W43863   7.198  37.434   4.655
71439W        W43864   5.254  20.271  11.597
71440W        W43865   7.742  36.383  14.962
71441W        W43866   2.821  14.829  13.527
71442W        W43867  28.528  23.001  12.521
71443W        W43868  25.665  35.475  13.884
71444W        W43869  22.229   7.184   0.399
71445W        W43870  15.592  21.243  13.847
71446W        W43871  44.415  31.522  11.432
71447W        W43872  44.840  31.503   3.239
71448W        W43873  27.019  11.327   4.328
71449W        W43874   2.274   9.271  11.079
71450W        W43875   4.280  44.434  14.456
71451W        W43876  11.359  39.901  12.394
71452W        W43877  17.236   2.337   0.886
71453W        W43878  32.562  20.092   2.846
71454W        W43879  25.555  43.916   4.602
71455W        W43880  37.365  25.037  12.421
71456W        W43881  22.585  16.251  14.917
71457W        W43882  43.972   2.383  10.642
71458W        W43883  28.017   4.445  14.278
71459W        W43884  13.836  28.627  10.409
71460W        W43885   8.780  21.071  10.925
71461W        W43886  10.234  27.618  11.484
71462W        W43887   9.253  41.349   3.166
71463W        W43888  10.339  43.398  11.496
71464W        W43889  36.458  23.127  13.919
71465W        W43890  40.807  20.246   4.296
71466W        W43891  39.546  41.885   0.778
71467W        W43892   9.375   5.918  11.942
71468W        W43893   0.298  24.603  14.987
71469W        W43894   5.394   1.758  11.037
71470W        W43895  37.454  23.679  14.473
71471W        W43896  35.578  18.765   4.119
71472W        W43897  31.992  33.997  11.948
71473W        W43898   2.816  26.545   4.782
71474W        W43899   8.781  17.614  13.534
71475W        W43900  13.839  34.074  11.492
71476W        W43901  18.632   5.277   2.748
71477W        W43902  23.229  17.186   2.830
71478W        W43903  36.089   1.279  14.474
71479W        W43904  38.470  39.966  13.327
71480W        W43905  28.598  25.505   1.440
71481W        W43906  35.001   7.722   5.124
71482W        W43907  44.877  17.738  13.027
71483W        W43908  44.302   6.396  11.514
71484W        W43909  22.609  34.429  13.030
71485W        W43910   0.893  16.133   0.786
71486W        W43911  20.205  38.029   4.739
71487W        W43912  26.670  24.169  12.348
71488W        W43913  21.155  33.551  12.947
71489W        W43914  42.790  37.068   0.316
71490W        W43915   4.945   7.379   1.696
71491W        W43916  35.907  38.355   3.786
71492W        W43917  36.417  43.345   3.718
71493W        W43918  24.126  32.889   2.217
71494W        W43919  29.439  34.396   9.976
71495W        W43920  14.099  39.444   1.807
71496W        W43921  33.453   2.422  10.971
71497W        W43922  43.834   9.717  12.876
71498W        W43923   1.301  43.827   2.255
71499W        W43924   2.814  16.185  12.477
71500W        W43925  30.959  40.994   3.351
71501W        W43926  31.634   3.326  12.412
71502W        W43927  24.634  41.499  13.017
71503W        W43928  38.919  15.086  14.490
71504W        W43929   2.819  29.614   4.784
71505W        W43930  13.138  36.080   1.803
71506W        W43931  22.197  37.908   4.203
71507W        W43932   9.814  23.010  13.387
71508W        W43933  17.282  17.074   3.686
71509W        W43934   5.810  11.867   3.208
71510W        W43935  26.520  16.298   3.792
71511W        W43936   3.712   1.365  12.425
71512W        W43937  37.359  19.684  13.951
71513W        W43938   8.707  13.734   2.245
71514W        W43939  20.676   0.829   2.747
71515W        W43940  33.518   2.309   4.775
71516W        W43941  21.736  10.361   0.438
71517W        W43942   8.670  33.407   3.861
71518W        W43943  15.194   6.234  10.510
71519W        W43944   5.896  12.143  14.026
71520W        W43945   4.220   8.818   1.297
71521W        W43946   2.766  19.648   0.309
71522W        W43947  40.882  15.119   1.435
71523W        W43948  30.106  17.743   4.791
71524W        W43949  18.678  37.945   4.618
71525W        W43950   2.411  12.686   1.761
71526W        W43951  14.659  30.068   4.715
71527W        W43952  21.708  44.329  10.053
71528W        W43953  16.111  12.330  13.893
71529W        W43954  21.218   0.983   0.765
71530W        W43955  40.801  13.604  13.497
71531W        W43956   8.683  30.993  12.540
71532W        W43957  15.799  15.587  10.426
71533W        W43958  34.585  35.099  14.395
71534W        W43959   0.477  19.548   4.205
71535W        W43960  36.543  42.959   5.289
71536W        W43961  39.865  39.905   0.809
71537W        W43962  16.728  38.450   0.297
71538W        W43963  19.780  40.492   0.480
71539W        W43964  40.457   3.421   4.627
71540W        W43965  26.473  36.582   3.632
71541W        W43966  25.548  20.085  11.857
71542W        W43967  31.439  21.696  10.987
71543W        W43968   5.317  41.301   0.451
71544W        W43969  12.709   1.467  14.831
71545W        W43970  25.148  17.592   2.305
71546W        W43971  39.382   4.413   2.190
71547W        W43972   8.800  21.531  13.817
71548W        W43973  15.258   9.244  11.522
71549W        W43974   5.836  10.326  11.998
71550W        W43975  18.666  27.486  12.985
71551W        W43976  39.467   5.393   2.899
71552W        W43977  28.548   1.465  12.003
71553W        W43978  16.125  14.778   2.701
71554W        W43979   8.834   6.782   2.803
71555W        W43980  19.682  27.551   4.156
71556W        W43981  35.527  18.686  11.118
71557W        W43982  24.638  18.642  12.021
71558W        W43983  17.066  24.999   1.411
71559W        W43984  27.160  13.346  12.082
71560W        W43985  40.372  32.131  12.089
71561W        W43986  20.614  10.155  13.992
71562W        W43987  15.288  22.041  13.881
71563W        W43988   3.824  44.300   2.883
71564W        W43989  12.326  36.450   1.343
71565W        W43990  14.692  34.032   9.646
71566W        W43991  12.298  37.344  10.618
71567W        W43992   5.735   9.274   3.709
71568W        W43993  16.295   4.758  11.956
71569W        W43994   5.425  16.126  12.414
71570W        W43995  27.514  34.099  11.027
71571W        W43996  25.660  12.680  12.373
71572W        W43997  29.982  13.773   1.240
71573W        W43998  16.705  10.724  11.110
71574W        W43999  20.061  12.160   0.918
71575W        W44000  19.136   1.862   2.395
71576W        W44001   7.744  28.497   4.242
71577W        W44002  41.918  44.349  10.506
71578W        W44003  17.600  35.926  14.500
71579W        W44004  44.846  21.609  14.813
71580W        W44005   4.421  18.154   4.132
71581W        W44006  26.063  27.090  10.954
71582W        W44007   7.853  39.006  11.035
71583W        W44008  17.178  35.063   2.721
71584W        W44009  11.166  41.847   4.768
71585W        W44010  41.959  35.907   2.234
71586W        W44011  25.034  34.084   2.791
71587W        W44012  20.226  28.639  13.027
71588W        W44013  30.516  14.137   3.244
71589W        W44014  30.481  23.056   1.443
71590W        W44015  43.283  28.102   1.820
71591W        W44016  13.344   3.368  14.306
71592W        W44017  38.881   0.806   1.742
71593W        W44018  38.874  26.133  11.611
71594W        W44019  32.572  31.593   4.236
71595W        W44020  25.159  42.283   4.130
71596W        W44021  14.199  17.242   3.204
71597W        W44022  40.535   0.909   1.907
71598W        W44023  32.587  43.971  10.446
71599W        W44024   0.772  34.545   3.192
71600W        W44025  11.167  33.498  10.577
71601W        W44026  44.348  42.930  11.922
71602W        W44027  41.483  35.477   4.704
71603W        W44028  39.965   6.685  10.635
71604W        W44029  40.489   7.751  14.338
71605W        W44030  20.097  27.997   0.798
71606W        W44031  13.711   3.877  13.321
71607W        W44032  35.027  41.989  11.403
71608W        W44033  34.935  18.636  14.443
71609W        W44034  29.447  42.330   4.192
71610W        W44035  37.504  29.143   1.352
71611W        W44036   1.888  31.559   1.312
71612W        W44037  21.125   1.456  13.935
71613W        W44038  25.200  37.557  10.110
71614W        W44039   6.796  39.036  11.925
71615W        W44040   8.189  15.716   3.340
71616W        W44041  19.269  33.425   2.343
71617W        W44042   2.862   4.843  11.608
71618W        W44043  23.056  39.388   4.725
71619W        W44044  11.638  18.551  11.118
71620W        W44045  13.218  29.606  14.460
71621W        W44046   3.299  17.614  12.415
71622W        W44047  44.887  32.980   2.331
71623W        W44048  33.923  29.161   2.216
71624W        W44049  41.458  14.102  13.956
71625W        W44050  15.204  18.217  13.473
71626W        W44051  43.854  30.651   2.897
71627W        W44052  18.101  14.621  12.350
71628W        W44053  16.179  44.944   1.810
71629W        W44054  42.317  28.942   0.374
71630W        W44055  14.163  19.151   4.641
71631W        W44056  21.702  25.519   4.352
71632W        W44057  10.303   6.732   2.263
71633W        W44058  24.554  29.115  14.005
71634W        W44059  39.043  24.639   1.411
71635W        W44060  28.939  13.688  12.557
71636W        W44061  35.409  15.100  11.403
71637W        W44062  11.630  11.767  12.563
71638W        W44063   8.343   3.902   0.345
71639W        W44064  44.829  38.071  13.003
71640W        W44065  13.220  33.513  14.022
71641W        W44066  42.975  38.943  10.544
71642W        W44067   3.882  31.060   2.196
71643W        W44068  26.623  37.016   3.184
71644W        W44069  20.623  34.086  11.465
71645W        W44070  32.058  12.116   2.776
71646W        W44071  40.970  17.679   0.476
71647W        W44072  25.470  11.294  13.871
71648W        W44073  42.480   8.323   3.719
71649W        W44074  12.783  41.804  11.505
71650W        W44075  27.978  33.470   0.741
71651W        W44076   9.798   5.192  10.985
71652W        W44077  43.493  30.164   2.821
71653W        W44078  35.599  19.133  13.316
71654W        W44079  22.062  26.077  14.344
71655W        W44080  23.027  30.588  10.527
71656W        W44081  20.572  18.600   0.451
71657W        W44082  20.043   3.336   3.277
71658W        W44083  39.413   7.668  11.432
71659W        W44084   7.735  41.923  13.946
71660W        W44085   7.337   1.255  13.992
71661W        W44086   7.416   8.894   4.246
71662W        W44087  15.114  16.111  14.388
71663W        W44088  26.164  41.888  13.499
71664W        W44089  19.715  33.996  14.449
71665W        W44090   8.729   6.327  14.315
71666W        W44091  22.141  42.488   1.924
71667W        W44092   5.707  41.006   3.206
71668W        W44093  42.989  22.114  11.594
71669W        W44094  17.641  40.941   2.809
71670W        W44095  21.025  32.531  12.470
71671W        W44096  27.075  16.078  13.407
71672W        W44097  13.726  12.795  13.382
71673W        W44098  14.127  14.326   3.867
71674W        W44099   9.243  17.194  11.028
71675W        W44100  32.623  36.019  14.830
71676W        W44101   7.196  18.562  11.925
71677W        W44102  11.168  34.565   1.806
71678W        W44103  34.994  19.652  14.879
71679W        W44104   5.706  32.591   1.339
71680W        W44105   5.875  25.711  14.434
71681W        W44106  30.911  31.437   0.362
71682W        W44107  23.062  13.750   3.386
71683W        W44108  29.580  34.914  12.846
71684W        W44109  34.907   3.883  12.057
71685W        W44110  31.543  15.630  10.513
71686W        W44111  38.896  24.531  10.554
71687W        W44112  37.863   6.907   2.887
71688W        W44113  34.085   3.365  10.934
71689W        W44114  11.142  28.563   4.230
71690W        W44115  35.852  17.189  10.534
71691W        W44116  14.651  23.616   3.259
71692W        W44117  10.257  29.958   0.745
71693W        W44118  33.031  30.098  13.998
71694W        W44119  16.311  18.068   1.882
71695W        W44120  28.635  37.877   1.932
71696W        W44121  18.665  10.786   3.842
71697W        W44122  31.065  37.452   1.422
71698W        W44123  27.186   7.175   1.914
71699W        W44124   5.898   9.363   4.672
71700W        W44125  31.978  23.102  11.013
71701W        W44126  24.686  17.238   3.657
71702W        W44127  36.938  42.410  14.823
71703W        W44128  42.366  27.614   1.769
71704W        W44129  39.848  30.590   1.412
71705W        W44130   5.926   2.955   4.811
71706W        W44131  37.888  44.471  13.439
71707W        W44132  33.016  25.691   0.750
71708W        W44133  13.823  12.612  11.083
71709W        W44134  37.973   5.785   1.735
71710W        W44135  32.453  15.192   2.815
71711W        W44136   9.327  21.743   0.741
71712W        W44137  23.197  43.961  13.375
71713W        W44138   6.356  42.019  14.356
71714W        W44139   3.935  16.296  14.398
71715W        W44140  10.687  41.504   5.238
71716W        W44141  39.548  32.483   0.381
71717W        W44142  23.155  19.262   1.228
71718W        W44143   4.250  44.779   4.625
71719W        W44144  27.564  43.929  11.956
71720W        W44145  30.643  15.682  11.502
71721W        W44146  32.531  16.689  12.004
71722W        W44147  24.488   1.275   4.259
71723W        W44148   7.183  38.056   4.218
71724W        W44149   1.902   7.348   3.841
71725W        W44150   1.939   7.778  10.406
71726W        W44151  39.954  28.105   4.661
71727W        W44152  17.155  28.520  10.518
71728W        W44153  22.996  21.171  12.428
71729W        W44154  16.304  27.620   3.378
71730W        W44155  41.518   3.258   1.437
71731W        W44156  25.154   9.285  13.890
71732W        W44157  40.015  39.363   0.863
71733W        W44158   5.335  32.885  13.438
71734W        W44159  18.783   1.966   4.180
71735W        W44160  33.102   7.185  10.507
71736W        W44161  11.290  35.075   0.765
71737W        W44162   1.394  39.546   4.168
71738W        W44163  21.064  38.891   1.412
71739W        W44164   8.350  25.059   2.404
71740W        W44165  30.116  12.288  14.765
71741W        W44166   0.775  34.954  12.995
71742W        W44167  22.568  37.539  12.995
71743W        W44168  37.562   3.436  12.997
71744W        W44169  10.752  37.371  14.949
71745W        W44170  41.419  43.315  10.501
71746W        W44171  44.796  11.778  10.516
71747W        W44172   1.350  37.549  11.488
71748W        W44173  21.572  18.153  11.020
71749W        W44174   6.853   8.264   0.757
71750W        W44175  16.705  13.698   0.402
71751W        W44176  20.238  42.291   3.842
71752W        W44177  22.091   8.663  14.878
71753W        W44178  33.426  12.634   0.824
71754W        W44179  30.963  36.432   1.922
71755W        W44180  17.217  20.705  11.607
71756W        W44181  26.988  15.727  14.800
71757W        W44182   9.874   0.871  11.471
71758W        W44183  14.167  27.628   1.921
71759W        W44184  26.998   2.453  11.089
71760W        W44185  36.392   4.727   3.770
71761W        W44186  11.153   7.797  11.572
71762W        W44187  39.323  38.072   3.204
71763W        W44188  14.832  37.865   1.931
71764W        W44189  22.998  25.626   3.631
71765W        W44190  23.238  16.199   3.651
71766W        W44191  14.773  29.620   3.694
71767W        W44192  27.692  23.016   0.796
71768W        W44193   6.676  18.228   4.157
71769W        W44194  23.573  37.012   4.251
71770W        W44195  29.537  37.974  13.407
71771W        W44196  20.599  12.207   5.566
71772W        W44197  14.611  16.585   2.289
71773W        W44198   3.344  23.224   4.121
71774W        W44199  27.652  26.125   2.266
71775W        W44200  17.595  17.641   0.464
71776W        W44201   2.274  20.567  13.037
71777W        W44202  34.413  31.543   1.871
71778W        W44203  33.428  27.656  11.962
71779W        W44204  16.807   5.850  14.949
71780W        W44205  43.330  18.602   3.831
71781W        W44206   6.344  30.489  10.597
71782W        W44207  40.019   5.866   3.264
71783W        W44208  35.935  10.212   3.643
71784W        W44209  19.702   5.328  12.823
71785W        W44210   7.680  22.630   2.261
71786W        W44211  14.607  24.712  10.078
71787W        W44212  19.202  12.656   0.252
71788W        W44213  12.264  17.585  10.961
71789W        W44214  19.542   7.202  12.411
71790W        W44215   4.812  37.986   0.813
71791W        W44216  26.168   4.358  14.379
71792W        W44217  29.540  19.056  13.518
71793W        W44218  22.010  32.583  11.943
71794W        W44219  41.417  22.190   9.436
71795W        W44220   6.918  33.393   1.779
71796W        W44221   5.889  25.599   3.685
71797W        W44222   3.740  38.416  12.475
71798W        W44223  19.666   6.410   2.212
71799W        W44224   9.749   8.166   3.303
71800W        W44225  22.056   5.201  13.459
71801W        W44226  26.063  32.524   5.182
71802W        W44227  20.268  28.645  12.538
71803W        W44228  15.268  44.796  11.003
71804W        W44229  20.162  33.978   3.279
71805W        W44230   1.415  26.183  12.860
71806W        W44231  34.896  11.250   2.316
71807W        W44232  29.503  25.155   4.335
71808W        W44233  37.575  20.130  13.831
71809W        W44234  35.465  12.789  12.078
71810W        W44235  22.120  39.978  11.413
71811W        W44236  20.122  26.521   3.380
71812W        W44237   7.215  25.659  10.468
71813W        W44238  10.639  43.785  10.587
71814W        W44239  37.481  25.150   0.331
71815W        W44240  13.778  29.087   0.779
71816W        W44241   5.695  40.410  12.068
71817W        W44242  14.625  42.019  14.826
71818W        W44243  10.152  25.172   5.252
71819W        W44244  26.977   2.834   2.752
71820W        W44245  12.129  39.508   4.827
71821W        W44246  36.457  24.570  13.498
71822W        W44247  22.614  32.959   2.415
71823W        W44248  42.338  12.730   2.823
71824W        W44249  14.592  38.959  13.791
71825W        W44250  36.500   1.804   0.475
71826W        W44251  28.612  41.985  13.475
71827W        W44252  31.003  33.562   3.287
71828W        W44253   0.838  32.619   4.139
71829W        W44254  10.377  17.800   1.848
71830W        W44255  27.155  30.028  13.433
71831W        W44256  20.197  43.358  10.904
71832W        W44257  33.477   7.684  14.876
71833W        W44258  36.060   4.869   4.790
71834W        W44259  34.474  29.120  13.797
71835W        W44260  36.986  13.248  10.902
71836W        W44261  16.176  33.510   0.314
71837W        W44262  13.710   1.971   5.699
71838W        W44263  30.591  41.791   0.830
71839W        W44264  10.173  21.703  13.824
71840W        W44265  27.525  32.416  10.115
71841W        W44266  26.128   6.245  11.916
71842W        W44267  14.658  31.081   4.172
71843W        W44268  18.703  22.145  14.933
71844W        W44269  25.628  15.645   0.842
71845W        W44270   9.761   7.363   4.319
71846W        W44271  18.244  33.535   2.195
71847W        W44272  35.893  31.452  13.832
71848W        W44273  42.849  10.801   1.277
71849W        W44274  13.817  43.834   2.333
71850W        W44275  36.590   6.836  11.876
71851W        W44276   4.326  16.721  10.620
71852W        W44277  19.255   3.436   3.647
71853W        W44278   8.891  22.233   2.230
71854W        W44279   7.728  43.772   0.859
71855W        W44280   3.345  41.953   2.260
71856W        W44281   5.277  36.049  12.961
71857W        W44282  35.553  33.532   1.389
71858W        W44283  13.677  34.408  11.454
71859W        W44284  38.422  17.585   0.415
71860W        W44285  24.055  29.553   3.147
71861W        W44286  39.446  24.123   4.273
71862W        W44287  32.454  36.872   2.831
71863W        W44288   9.843   9.755   0.431
71864W        W44289   4.883  12.185  11.969
71865W        W44290   5.383  23.182  13.905
71866W        W44291  24.109  28.543   0.319
71867W        W44292  30.644  13.713  13.313
71868W        W44293   5.424  18.089  13.977
71869W        W44294  30.504  14.612  12.457
71870W        W44295  31.593  28.168   1.697
71871W        W44296  41.992  36.927   0.425
71872W        W44297  37.524  35.585  12.387
71873W        W44298  31.642  23.653   0.923
71874W        W44299  32.012  13.198   3.645
71875W        W44300  17.769  22.719  12.060
71876W        W44301   4.889  28.524  12.534
71877W        W44302   9.247  23.521   5.111
71878W        W44303  20.635  24.172  11.389
71879W        W44304  38.536  38.498   2.361
71880W        W44305  22.079  32.978   4.612
71881W        W44306  40.038  12.786  12.567
71882W        W44307   7.889   2.897   0.846
71883W        W44308  43.480   3.352   3.808
71884W        W44309  30.157   3.823   4.765
71885W        W44310   5.404  26.172  14.365
71886W        W44311  38.402  23.597   4.627
71887W        W44312   4.309   1.321   2.759
71888W        W44313  23.072  37.920  13.941
71889W        W44314  36.585  28.083  13.993
71890W        W44315  31.962  37.563  10.464
71891W        W44316  17.281  30.085   2.798
71892W        W44317  19.108   5.803  11.107
71893W        W44318  32.953  31.141   0.873
71894W        W44319  40.452  10.244  10.420
71895W        W44320  20.616   1.961   1.428
71896W        W44321  43.908  22.182   1.772
71897W        W44322  43.887  26.659   1.247
71898W        W44323  11.670  29.503   1.747
71899W        W44324  43.394  31.418  14.479
71900W        W44325  12.730  28.438   3.782
71901W        W44326  26.092  26.097   3.257
71902W        W44327  21.210  10.741  10.072
71903W        W44328  37.473  18.764  11.036
71904W        W44329  29.074  35.385   2.856
71905W        W44330   4.292   3.246  12.013
71906W        W44331   6.810  13.721   2.683
71907W        W44332  13.300  27.056   1.321
71908W        W44333  22.020  41.835  14.000
71909W        W44334  11.134  29.435  12.938
71910W        W44335  42.461  33.412  10.918
71911W        W44336  26.984   1.965   1.728
71912W        W44337  12.673   7.892   2.889
71913W        W44338  28.500  37.421   4.660
71914W        W44339  19.653   0.754  12.066
71915W        W44340  11.166  21.658  11.530
71916W        W44341   2.246  12.765   2.803
71917W        W44342   4.798   1.415  11.918
71918W        W44343  14.754  32.013  13.984
71919W        W44344  38.891  36.384   2.304
71920W        W44345  40.328  20.061  12.368
71921W        W44346  36.095  29.972   1.356
71922W        W44347  39.015  36.492   3.247
71923W        W44348  40.814  35.903  13.936
71924W        W44349  39.317  36.929  10.591
71925W        W44350  17.609  39.460  10.414
71926W        W44351  36.069   4.856   0.438
71927W        W44352   3.729   5.709   2.255
71928W        W44353  24.044  15.108  12.844
71929W        W44354  25.183  25.133   1.279
71930W        W44355  31.089  37.535  12.062
71931W        W44356  33.381  41.374  13.028
71932W        W44357  23.161  29.929  12.017
71933W        W44358  18.769  25.694   4.708
71934W        W44359  12.786  26.673   2.296
71935W        W44360  34.002  38.439  13.490
71936W        W44361  18.144  29.994   0.385
71937W        W44362   6.735  39.871  14.793
71938W        W44363  37.570  42.358  12.043
71939W        W44364  38.067  39.839  12.429
71940W        W44365  20.585  42.287  11.451
71941W        W44366  31.610  19.587  13.016
71942W        W44367  10.221  13.817   4.274
71943W        W44368  44.409  33.474   0.249
71944W        W44369   2.410  20.217   1.298
71945W        W44370  40.996  42.414   4.161
71946W        W44371  17.577  40.347  13.009
71947W        W44372  43.015  42.890  11.933
71948W        W44373  32.537  44.976  14.864
71949W        W44374  27.471  10.367  11.373
71950W        W44375  39.374  12.266  12.580
71951W        W44376  10.830  20.201  10.917
71952W        W44377  32.437  27.100  14.498
71953W        W44378   2.387  15.297   2.403
71954W        W44379  19.146  43.824  10.970
71955W        W44380  20.750  13.717  11.074
71956W        W44381  42.384  13.710   3.870
71957W        W44382  37.541  20.532  10.993
71958W        W44383  37.860  30.625  11.894
71959W        W44384   2.918   7.396  12.842
71960W        W44385  12.824  36.482   1.887
71961W        W44386  24.668  32.412  14.019
71962W        W44387  18.623  21.104  11.861
71963W        W44388   5.361   0.904   2.408
71964W        W44389  32.503   1.355  11.535
71965W        W44390  19.232  41.870  11.014
71966W        W44391   5.763  37.014   4.643
71967W        W44392   0.446  10.672  12.923
71968W        W44393  25.517  18.738   2.705
71969W        W44394  36.484   2.452  14.928
71970W        W44395  13.131  33.089   4.738
71971W        W44396   9.758   0.962   3.258
71972W        W44397  37.507   7.399  11.375
71973W        W44398  38.917  26.502  11.389
71974W        W44399   8.181  28.985  11.938
71975W        W44400  19.096  10.338  10.622
71976W        W44401  44.342   2.933  14.931
71977W        W44402   7.820  10.336  10.138
71978W        W44403   6.745  44.374   0.790
71979W        W44404  30.070  24.595   9.921
71980W        W44405  22.502   9.203  10.079
71981W        W44406  38.940   4.783   1.802
71982W        W44407  13.647  20.724   3.209
71983W        W44408  24.035  43.012  13.376
71984W        W44409  15.156  19.191  10.527
71985W        W44410  43.335  28.964   1.314
71986W        W44411  12.733  44.925   3.294
71987W        W44412  23.539  39.924   0.308
71988W        W44413  16.246  35.470  14.452
71989W        W44414  11.276   6.323   2.289
71990W        W44415   9.322  18.752   0.932
71991W        W44416  27.483  26.978   3.687
71992W        W44417  33.028  13.153   2.820
71993W        W44418   8.834  28.995  13.847
71994W        W44419  24.158  31.002   1.357
71995W        W44420  13.162  14.110  11.046
71996W        W44421   0.824  43.889   0.742
71997W        W44422  37.886   6.255   0.367
71998W        W44423   9.858  20.265   2.766
71999W        W44424   6.875  22.531   0.788
72000W        W44425  33.925   2.267   0.385
72001W        W44426  19.571  17.715  14.022
72002W        W44427  29.044  16.732   1.425
72003W        W44428  15.274  39.867  10.559
72004W        W44429  13.315  26.476   4.277
72005W        W44430   2.786   3.460   1.763
72006W        W44431  28.458  13.209   1.418
72007W        W44432   7.742  26.197   0.871
72008W        W44433  13.305  16.728  10.439
72009W        W44434  12.637  10.335  14.854
72010W        W44435  36.451  31.582   4.709
72011W        W44436  14.768   2.799  12.521
72012W        W44437  23.642  32.142  11.608
72013W        W44438  23.712   6.259  10.911
72014W        W44439  40.993   3.914   3.196
72015W        W44440  19.641  42.314   3.704
72016W        W44441  41.335  16.080   4.168
72017W        W44442  29.581  41.472   5.199
72018W        W44443  17.119  24.111  12.918
72019W        W44444  39.347  31.565   1.733
72020W        W44445  36.060  37.871   4.121
72021W        W44446  36.394  26.635   0.833
72022W        W44447  13.824  26.065   3.261
72023W        W44448  24.076   2.299  13.441
72024W        W44449  15.099   3.390  14.821
72025W        W44450  13.761   0.896   9.635
72026W        W44451  12.219  14.103  11.082
72027W        W44452  23.533  34.930   0.772
72028W        W44453   5.296  12.153   3.852
72029W        W44454  25.087   8.255   3.821
72030W        W44455   1.821  14.315   1.759
72031W        W44456   3.245  22.664  13.959
72032W        W44457  30.130  37.845  11.460
72033W        W44458  37.492  24.523   2.894
72034W        W44459  16.750  25.592  14.926
72035W        W44460  31.585  37.967  14.993
72036W        W44461  23.014  21.171   1.852
72037W        W44462  34.495   4.234  10.476
72038W        W44463  39.991  43.481  11.095
72039W        W44464  11.273  37.867  13.388
72040W        W44465   4.901  10.244   0.846
72041W        W44466  29.430  40.450   3.172
72042W        W44467  19.574  12.624  10.407
72043W        W44468  15.211  42.832   1.744
72044W        W44469  24.556  27.574  10.599
72045W        W44470  28.167  24.725  14.401
72046W        W44471  36.505  22.574  13.054
72047W        W44472  17.235  28.616   2.271
72048W        W44473  41.455  28.138   1.797
72049W        W44474   9.390  25.016   0.249
72050W        W44475  44.944   3.760   4.736
72051W        W44476  43.384  36.982   1.253
72052W        W44477  28.605  23.048   4.132
72053W        W44478  33.438  34.607  12.450
72054W        W44479  40.344  21.591  12.063
72055W        W44480  44.424  20.215   0.275
72056W        W44481  11.262   9.330  14.016
72057W        W44482  19.159  32.499  14.855
72058W        W44483  39.538  37.837   3.652
72059W        W44484  11.277  10.274   4.696
72060W        W44485   7.730   0.410   0.810
72061W        W44486  24.512  40.380   3.817
72062W        W44487  14.642  12.849   0.384
72063W        W44488  43.845  41.986  14.882
72064W        W44489  13.680  40.381   1.336
72065W        W44490  10.165  22.653  12.477
72066W        W44491  10.312  18.165   1.438
72067W        W44492  35.933  43.976   3.212
72068W        W44493  16.630  40.372  11.983
72069W        W44494  40.838   7.402   2.402
72070W        W44495   7.706  28.043  12.428
72071W        W44496  16.684  32.583   3.838
72072W        W44497  15.762   4.405   3.307
72073W        W44498  26.460   4.941   2.756
72074W        W44499  26.018   7.313   0.804
72075W        W44500   2.400  37.948  12.988
72076W        W44501  34.538   2.297  10.513
72077W        W44502  33.510  44.461   4.758
72078W        W44503  43.814   5.833  14.785
72079W        W44504   6.866  43.854  11.451
72080W        W44505  29.941  18.173   1.897
72081W        W44506  11.145   5.824   1.337
72082W        W44507  33.541  30.567   2.397
72083W        W44508  11.865  28.533   4.688
72084W        W44509   4.236  35.392   4.306
72085W        W44510   8.398  39.050   4.349
72086W        W44511  19.213  17.738  10.643
72087W        W44512   4.902  22.177  12.361
72088W        W44513  28.118   8.792  13.956
72089W        W44514   4.927  21.133  14.427
72090W        W44515  23.174  44.477   2.666
72091W        W44516  37.341  24.694   1.766
72092W        W44517  26.650   5.829  12.375
72093W        W44518  33.461  15.164  10.944
72094W        W44519  31.096  38.000   2.333
72095W        W44520  13.111   1.738   0.858
72096W        W44521  28.629  29.522   1.249
72097W        W44522   6.847   3.882   0.253
72098W        W44523  37.005   6.895   2.188
72099W        W44524   2.869  33.477   0.772
72100W        W44525  19.545  44.965   3.716
72101W        W44526   5.306  32.526  13.850
72102W        W44527   1.966  43.305   4.124
72103W        W44528  27.563   9.180   2.811
72104W        W44529  30.581  12.207  11.374
72105W        W44530  25.988  13.151   1.403
72106W        W44531  29.029  36.018  13.861
72107W        W44532   9.168  32.885  12.025
72108W        W44533  38.371  34.559  11.002
72109W        W44534  41.307  42.392  12.011
72110W        W44535  27.517   8.794  13.433
72111W        W44536  11.327  36.374   0.389
72112W        W44537   1.368   5.878   0.745
72113W        W44538  41.854  13.136   2.692
72114W        W44539  37.375  34.010  11.901
72115W        W44540  14.805  22.746   0.324
72116W        W44541  15.227  44.908  14.917
72117W        W44542  22.156  36.451   3.253
72118W        W44543  30.969   9.748  14.855
72119W        W44544   1.435  41.919  10.621
72120W        W44545   0.343   5.346   3.851
72121W        W44546  32.094  38.978  10.601
72122W        W44547  28.128  31.047  13.505
72123W        W44548  33.502  21.615  13.545
72124W        W44549  16.661  23.040   1.851
72125W        W44550  41.840  15.084   1.383
72126W        W44551  28.016  23.034   5.594
72127W        W44552  25.177  36.048  10.951
72128W        W44553  27.997  13.308   3.335
72129W        W44554  12.195  24.135  11.906
72130W        W44555  36.483  34.575   2.210
72131W        W44556  27.598  13.106   4.675
72132W        W44557  30.122   8.180   1.932
72133W        W44558  24.980  31.422  13.463
72134W        W44559   7.213  23.208   3.301
72135W        W44560  30.539  11.795  13.344
72136W        W44561  24.712  40.799   4.176
72137W        W44562   4.338  16.240   1.323
72138W        W44563  11.663  10.746   4.700
72139W        W44564  10.716  27.049   0.814
72140W        W44565  41.026  28.655  10.976
72141W        W44566  42.963  42.521  11.864
72142W        W44567  11.190   0.320   4.230
72143W        W44568  25.121  38.338   2.369
72144W        W44569   1.315   1.958   4.612
72145W        W44570  25.573  24.719  10.418
72146W        W44571   0.472  10.376  13.866
72147W        W44572  25.028   9.170   1.279
72148W        W44573  32.939  15.312   3.746
72149W        W44574  26.963   5.900  12.476
72150W        W44575  20.689   1.749  14.871
72151W        W44576  27.497  12.270  14.429
72152W        W44577  44.288  43.840   0.403
72153W        W44578  13.722  15.295   0.427
72154W        W44579  10.635  35.100   0.914
72155W        W44580  17.283  41.367   1.771
72156W        W44581  22.590  20.689   2.869
72157W        W44582  38.917   1.259   4.311
72158W        W44583  18.110  21.566   0.787
72159W        W44584  33.076  29.001  14.290
72160W        W44585  21.674  24.026   1.352
72161W        W44586  34.936  23.671   1.698
72162W        W44587  23.693  11.234   5.762
72163W        W44588  35.023  27.602   3.166
72164W        W44589  28.986   9.280  13.931
72165W        W44590  39.412  16.676  10.461
72166W        W44591  29.964  16.202  13.360
72167W        W44592  32.587  40.016  13.873
72168W        W44593  26.138  15.702  14.792
72169W        W44594  28.080  39.402   5.125
72170W        W44595  18.571   6.816   3.630
72171W        W44596  38.963  43.317  10.502
72172W        W44597  43.492   6.712   3.829
72173W        W44598  16.624  11.682   0.923
72174W        W44599   5.802  22.645   3.784
72175W        W44600  23.543  29.066  14.405
72176W        W44601  34.586  42.885  14.019
72177W        W44602  23.076   0.781   1.291
72178W        W44603  20.531  42.884  13.061
72179W        W44604  40.828  27.452  14.500
72180W        W44605  20.221  35.457  14.504
72181W        W44606  39.026  39.921   1.379
72182W        W44607  22.648  10.662   0.779
72183W        W44608  33.603  15.217  12.840
72184W        W44609   9.657  36.557  11.033
72185W        W44610  11.860  17.236   4.224
72186W        W44611  13.683  36.458   3.756
72187W        W44612  27.984  34.014  12.436
72188W        W44613  22.513  33.608  10.899
72189W        W44614  19.153  42.417  10.541
72190W        W44615  10.864  37.337   4.123
72191W        W44616   5.194  19.644  11.039
72192W        W44617  18.273  44.788   1.232
72193W        W44618  44.923  16.639  11.991
72194W        W44619   8.284  11.859  13.545
72195W        W44620  32.090  43.775  10.901
72196W        W44621  39.320  40.028   0.943
72197W        W44622  32.553  17.629  11.410
72198W        W44623  20.035  15.087   3.843
72199W        W44624  33.919  40.043   0.471
72200W        W44625  43.989   8.682  12.559
72201W        W44626  11.342   8.301  10.961
72202W        W44627  11.696  25.979   0.962
72203W        W44628  34.908  20.202   4.170
72204W        W44629  14.304   1.966   3.286
72205W        W44630   2.285  34.967   2.806
72206W        W44631  22.151   2.958  13.050
72207W        W44632   4.369   0.848   1.297
72208W        W44633  31.427  26.636   3.217
72209W        W44634  42.867  10.153  14.488
72210W        W44635   1.794  18.139  10.907
72211W        W44636  23.660  25.495  14.994
72212W        W44637  12.308  34.091   4.831
72213W        W44638  13.146  21.681  11.479
72214W        W44639  18.207  15.304  11.094
72215W        W44640  36.959  16.199   1.256
72216W        W44641  12.633  22.050   3.704
72217W        W44642  30.579   7.775  13.884
72218W        W44643   4.879  23.046   5.244
72219W        W44644  31.466  34.025   1.375
72220W        W44645  40.049   9.714   2.793
72221W        W44646  44.007  26.177  14.511
72222W        W44647  44.412  26.650   1.697
72223W        W44648   1.452  32.905   3.735
72224W        W44649   9.876  30.098   4.757
72225W        W44650  13.286   1.892  10.019
72226W        W44651  21.166   6.419   0.292
72227W        W44652  10.871   7.322   4.242
72228W        W44653  38.343  37.085   3.352
72229W        W44654  33.986  12.742  11.885
72230W        W44655  40.431  26.126   2.316
72231W        W44656  30.967  35.100   4.654
72232W        W44657   0.768  24.685  12.885
72233W        W44658  33.539   8.720  13.861
72234W        W44659  12.812  18.212   3.277
72235W        W44660  37.487  27.195   1.720
72236W        W44661  10.153  43.907   0.344
72237W        W44662  30.071  31.452  14.912
72238W        W44663   6.291  38.947  12.347
72239W        W44664  13.742   5.929   2.675
72240W        W44665  10.845   6.877   1.776
72241W        W44666  17.195   2.775   1.287
72242W        W44667  10.315  24.526   3.793
72243W        W44668  35.029  15.305  12.449
72244W        W44669  30.452  30.141  10.468
72245W        W44670  36.415  19.687  12.827
72246W        W44671  16.157  19.600   2.899
72247W        W44672  29.459  19.120  10.945
72248W        W44673  26.683  17.119  11.931
72249W        W44674   5.281  37.915   4.759
72250W        W44675  34.974   0.478   2.703
72251W        W44676  14.327   8.401  11.573
72252W        W44677  33.076   8.890  14.508
72253W        W44678  14.670  15.187  14.943
72254W        W44679  32.991  37.850  13.385
72255W        W44680  19.209  26.964  12.944
72256W        W44681  15.623  41.372  13.907
72257W        W44682  22.517  14.096   2.248
72258W        W44683  27.114  10.793   1.697
72259W        W44684   9.708  17.238  13.333
72260W        W44685  29.969  41.504   2.778
72261W        W44686  43.825  34.386  11.505
72262W        W44687  27.012  44.763  14.513
72263W        W44688  20.665  11.686   1.268
72264W        W44689  34.514  10.810  11.934
72265W        W44690  36.955  10.239   1.216
72266W        W44691  44.354  10.359  14.959
72267W        W44692  43.895   7.227  11.990
72268W        W44693  38.562   2.338  13.940
72269W        W44694  21.148   3.225  12.405
72270W        W44695  37.433  25.567   0.958
72271W        W44696  20.164   7.760   3.263
72272W        W44697  25.494   2.797   2.812
72273W        W44698  10.845  25.647  13.544
72274W        W44699  35.928   4.246  14.276
72275W        W44700  30.947  17.745  11.117
72276W        W44701  30.511  16.758  14.500
72277W        W44702   8.867  43.830   2.345
72278W        W44703  13.671  36.052   4.278
72279W        W44704   7.881  40.527   0.398
72280W        W44705  43.303   2.945  14.878
72281W        W44706  13.736  15.255   3.649
72282W        W44707  22.091  12.299  11.606
72283W        W44708  18.130  12.162   3.640
72284W        W44709  14.249  39.040   4.746
72285W        W44710  31.065  33.394   4.143
72286W        W44711   1.476  33.432   3.766
72287W        W44712  44.481   3.375  12.849
72288W        W44713  35.009  15.610   2.899
72289W        W44714  31.110  14.803   3.635
72290W        W44715  13.312  19.677  14.843
72291W        W44716  12.126  31.488   1.913
72292W        W44717  23.590  28.616  14.831
72293W        W44718  19.625  12.635   1.372
72294W        W44719   0.306  22.561  14.323
72295W        W44720   3.758   4.442   2.347
72296W        W44721   9.881  17.231   1.415
72297W        W44722  33.017  23.147  14.493
72298W        W44723  43.894  32.004  11.067
72299W        W44724  44.795   5.207   2.196
72300W        W44725  44.343  28.042  14.284
72301W        W44726  21.558  21.147   2.673
72302W        W44727  31.020   1.304  11.024
72303W        W44728   4.431  14.236   5.110
72304W        W44729  15.601   7.671   5.202
72305W        W44730  29.601   5.402   0.902
72306W        W44731  41.953  35.907  11.547
72307W        W44732  39.481  19.186   2.273
72308W        W44733  34.089   3.939   4.675
72309W        W44734  35.092  18.151   3.637
72310W        W44735   2.447  29.088   1.830
72311W        W44736   7.745   7.855  10.627
72312W        W44737  37.438   1.817   0.812
72313W        W44738  20.541  10.840  13.963
72314W        W44739  17.218  11.164   0.309
72315W        W44740  20.680  26.584  14.760
72316W        W44741  22.041  32.611  11.458
72317W        W44742   0.984  20.651  12.535
72318W        W44743  29.000  28.648   3.223
72319W        W44744  38.517  32.424   1.378
72320W        W44745   7.174   9.777   1.344
72321W        W44746  13.707  11.342  10.511
72322W        W44747  17.784  11.763   2.331
72323W        W44748  26.670  27.503   0.811
72324W        W44749  28.450  21.114   0.864
72325W        W44750  19.053  39.959   0.268
72326W        W44751   1.734  13.297   2.186
72327W        W44752  34.553  34.008  11.896
72328W        W44753  15.704  36.429   0.331
72329W        W44754  35.562  44.474   3.238
72330W        W44755   8.714  34.059   1.412
72331W        W44756  29.492   6.210  12.497
72332W        W44757   8.887  20.051  11.589
72333W        W44758  13.170   2.888  10.993
72334W        W44759  39.829   7.185  10.599
72335W        W44760   5.195  27.974  11.006
72336W        W44761   6.897  31.149  14.482
72337W        W44762  41.432  36.959  13.486
72338W        W44763  26.573  28.488   0.831
72339W        W44764  33.918  43.279   0.944
72340W        W44765   0.399  11.188  14.442
72341W        W44766  41.355  21.602   4.303
72342W        W44767  18.566  36.425  11.481
72343W        W44768  22.042   7.239  10.896
72344W        W44769  11.707   3.314  12.019
72345W        W44770  28.505  26.575  14.919
72346W        W44771   0.397  42.958   1.772
72347W        W44772  15.204  21.083  13.847
72348W        W44773  17.201  34.536  14.393
72349W        W44774  19.733  32.935  11.379
72350W        W44775  28.089  14.305   2.281
72351W        W44776  39.064  26.466   4.760
72352W        W44777  39.367  37.834  13.319
72353W        W44778   3.234   9.346   1.766
72354W        W44779  44.451  26.172   3.834
72355W        W44780  38.012  36.453   2.793
72356W        W44781  42.782   0.329   3.310
72357W        W44782  21.518   0.776  13.867
72358W        W44783  27.031   4.740   3.256
72359W        W44784  21.517  20.127   2.727
72360W        W44785  36.998  31.632  14.942
72361W        W44786  19.534  30.152  14.958
72362W        W44787  43.332  14.281  11.569
72363W        W44788  24.200  16.632   0.748
72364W        W44789   0.453   3.744  14.826
72365W        W44790  31.018   4.702  10.592
72366W        W44791   5.785  33.032  12.428
72367W        W44792  23.103  23.036   1.787
72368W        W44793   4.833   5.736   2.739
72369W        W44794  16.782   0.255   4.199
72370W        W44795   0.428  31.051   4.201
72371W        W44796  16.739  10.146   0.769
72372W        W44797   4.875  27.643   1.429
72373W        W44798  18.201  23.059   4.694
72374W        W44799   5.323   6.749   3.761
72375W        W44800   5.724  28.131   1.293
72376W        W44801  42.787  17.264  10.537
72377W        W44802  40.511   7.735  12.880
72378W        W44803  37.355  20.705  14.497
72379W        W44804  14.653  35.067   4.692
72380W        W44805  20.097  19.565  13.338
72381W        W44806   1.890  19.697   2.688
72382W        W44807  38.950  38.940   0.891
72383W        W44808  43.013  19.664   4.693
72384W        W44809  25.688  28.166   3.830
72385W        W44810  24.541  18.560   1.433
72386W        W44811  26.680  30.553   0.445
72387W        W44812  28.435   3.332  10.949
72388W        W44813   0.443  19.714   4.642
72389W        W44814  16.709   7.339   0.382
72390W        W44815  28.479  12.294   3.380
72391W        W44816   2.256  14.144  11.935
72392W        W44817  34.061  14.114  13.429
72393W        W44818  29.464  44.779  10.941
72394W        W44819   2.854  19.645  14.431
72395W        W44820  13.348  27.008   0.347
72396W        W44821   9.710   5.906  10.560
72397W        W44822  33.126   3.829   2.734
72398W        W44823   8.323  34.593   0.908
72399W        W44824  15.208  37.838  12.025
72400W        W44825  24.016  43.505   4.192
72401W        W44826  43.369   0.483  10.526
72402W        W44827  23.520  34.485  10.631
72403W        W44828  32.132  35.578  11.499
72404W        W44829  41.509   8.776   4.145
72405W        W44830  26.125  12.327   0.850
72406W        W44831   9.869   2.470  12.560
72407W        W44832  44.899  39.487  10.595
72408W        W44833  23.090  27.011  12.416
72409W        W44834  26.500  43.396  10.997
72410W        W44835   3.747  22.174  12.002
72411W        W44836  32.132   3.928  13.548
72412W        W44837  14.633  36.349   3.358
72413W        W44838   9.697  37.892   0.451
72414W        W44839  36.843  24.056   0.307
72415W        W44840  16.248  18.188  10.592
72416W        W44841  10.261  27.636   3.684
72417W        W44842  34.398  28.673   3.856
72418W        W44843  24.046   6.819  10.463
72419W        W44844   6.363  21.636  14.340
72420W        W44845   0.908   4.798  10.619
72421W        W44846  27.996  31.591   2.689
72422W        W44847  37.439   0.782   4.129
72423W        W44848  11.657  29.160  13.992
72424W        W44849  12.767  34.467  11.534
72425W        W44850  29.135  30.443  14.848
72426W        W44851   6.787  16.174   0.961
72427W        W44852  39.356  35.973  14.445
72428W        W44853  43.447  41.891   0.866
72429W        W44854  34.392  20.594  12.876
72430W        W44855  21.616  20.081   0.432
72431W        W44856  36.863   8.865  14.944
72432W        W44857  41.379   1.477  14.284
72433W        W44858   2.414  36.518   4.308
72434W        W44859  38.338  42.782   1.383
72435W        W44860   0.297  20.750   4.669
72436W        W44861  26.672  24.499  12.020
72437W        W44862  19.539  13.343   0.314
72438W        W44863  26.567  13.806  11.074
72439W        W44864  42.370   7.350  11.582
72440W        W44865  41.409  14.209  13.471
72441W        W44866   3.772   7.811  11.945
72442W        W44867  31.609  17.061   3.309
72443W        W44868  40.383  15.238  10.451
72444W        W44869  23.174  43.767   0.862
72445W        W44870  16.316  13.759  11.582
72446W        W44871  35.921  18.277  14.891
72447W        W44872   3.877  34.573  10.896
72448W        W44873  16.704  17.582  14.450
72449W        W44874   8.243  20.530  10.952
72450W        W44875  14.822   4.367   4.679
72451W        W44876  16.581  39.443  14.458
72452W        W44877  40.814  30.082  13.968
72453W        W44878   9.223  19.099   0.472
72454W        W44879  38.350  16.145   1.217
72455W        W44880  43.381  40.394  12.390
72456W        W44881  34.000  14.731  12.032
72457W        W44882  30.063  30.483  14.415
72458W        W44883  37.835  26.644  13.895
72459W        W44884  21.755  37.443   1.318
72460W        W44885   0.959  32.575  14.506
72461W        W44886   5.932  22.632  11.977
72462W        W44887   4.901  20.765  11.586
72463W        W44888  11.715  14.256  14.945
72464W        W44889  10.712  19.749  13.984
72465W        W44890  15.584  42.524   1.798
72466W        W44891   0.248  23.583   3.790
72467W        W44892   7.359  41.957   1.896
72468W        W44893  15.085  26.489  11.486
72469W        W44894   9.678  12.711  13.401
72470W        W44895  32.132  15.636  14.833
72471W        W44896  23.178  19.665  14.806
72472W        W44897  38.921   7.389   1.811
72473W        W44898  31.460   8.660  10.612
72474W        W44899  29.000  36.855  14.478
72475W        W44900  10.776  40.545  11.500
72476W        W44901  42.021  19.646  14.506
72477W        W44902  32.115  12.169   0.860
72478W        W44903   6.858  38.879  14.785
72479W        W44904   9.305  26.062   0.771
72480W        W44905  39.391   8.688  13.412
72481W        W44906  39.900   7.894   0.729
72482W        W44907  12.287  19.281  12.367
72483W        W44908  12.340  37.424  11.420
72484W        W44909   9.240   3.278   4.624
72485W        W44910  29.425  33.067   2.338
72486W        W44911   0.927  22.185  14.447
72487W        W44912   7.776  42.357   4.774
72488W        W44913  44.821  20.182  14.987
72489W        W44914   2.833  38.984   0.915
72490W        W44915  27.045  16.217   3.281
72491W        W44916  27.151   5.874  11.087
72492W        W44917  14.199   2.313  11.543
72493W        W44918  44.374  19.590  13.543
72494W        W44919  24.032  40.407  13.942
72495W        W44920   7.414   3.420  10.483
72496W        W44921  27.155  22.121   1.305
72497W        W44922  33.897  35.026  11.947
72498W        W44923  12.194  16.291  14.284
72499W        W44924  20.263  23.631  12.053
72500W        W44925   6.741   3.923   3.188
72501W        W44926  12.360  38.968   3.340
72502W        W44927   3.380  21.068  14.418
72503W        W44928   7.789  33.113  14.403
72504W        W44929   6.922  22.016   3.842
72505W        W44930  16.121  21.255   2.322
72506W        W44931  20.069   5.227  14.818
72507W        W44932  22.625   3.886  14.477
72508W        W44933   0.416  11.282   4.839
72509W        W44934  39.999  28.449   4.270
72510W        W44935  19.263  22.112   0.298
72511W        W44936   8.191  11.633   2.319
72512W        W44937   1.380  44.929  10.510
72513W        W44938  43.472   1.801  12.012
72514W        W44939   7.343   5.424   2.182
72515W        W44940   7.346  37.976  10.580
72516W        W44941  15.712   8.661  10.146
72517W        W44942  16.631  30.034   2.861
72518W        W44943  27.964  38.866   4.283
72519W        W44944  32.554  22.678  10.404
72520W        W44945   8.897  31.007  11.484
72521W        W44946  22.016  27.136  14.785
72522W        W44947   0.299  44.346   3.363
72523W        W44948  14.193   8.787   4.161
72524W        W44949  40.839  29.062   3.752
72525W        W44950  15.212  32.530   1.752
72526W        W44951  11.822  23.493   4.324
72527W        W44952  13.155  41.314  10.010
72528W        W44953  19.066  40.797   4.657
72529W        W44954  38.472  28.535   1.778
72530W        W44955  26.017   9.670  10.437
72531W        W44956  33.617  10.167   4.245
72532W        W44957  43.297  31.905   4.252
72533W        W44958  10.251   8.749  12.030
72534W        W44959  16.615  44.425  11.913
72535W        W44960  40.454  31.481   0.897
72536W        W44961  12.295   7.891   1.742
72537W        W44962  12.615  35.940   4.757
72538W        W44963   7.774   7.349   2.402
72539W        W44964  29.497  28.079  14.879
72540W        W44965  18.289  20.761  13.029
72541W        W44966  28.657  15.316   3.653
72542W        W44967   5.869  24.208   2.774
72543W        W44968  33.512  21.059  10.410
72544W        W44969   0.781  15.736   2.694
72545W        W44970  40.819   8.862  13.547
72546W        W44971  31.591   7.194  12.437
72547W        W44972  36.574  42.821   3.221
72548W        W44973  22.024  29.443   1.389
72549W        W44974  32.607  29.065  11.049
72550W        W44975  32.521  42.954  14.032
72551W        W44976  31.515   8.394   0.420
72552W        W44977  43.880  28.618  11.484
72553W        W44978  28.178  16.595   2.209
72554W        W44979   9.163  15.318   3.366
72555W        W44980  14.759  33.972  10.477
72556W        W44981   3.230  23.073   2.755
72557W        W44982  19.561  39.955  11.388
72558W        W44983  35.472  37.909   2.732
72559W        W44984  17.286   1.342  10.945
72560W        W44985  18.067  34.898   3.159
72561W        W44986  35.592  20.598  11.935
72562W        W44987  41.805  21.557   3.697
72563W        W44988  23.649  34.374   1.253
72564W        W44989  16.187  31.976  11.420
72565W        W44990  39.323  11.154  14.344
72566W        W44991  10.319  12.314  12.829
72567W        W44992  14.235  19.277   4.274
72568W        W44993  42.280  18.137  12.845
72569W        W44994  44.845  37.847   0.290
72570W        W44995  28.548  26.158  11.044
72571W        W44996  35.995  44.881   2.870
72572W        W44997  27.507   9.847   3.203
72573W        W44998  28.060  34.424   3.255
72574W        W44999   2.346  40.034   1.915
72575W        W45000  38.921  22.182   3.800
72576W        W45001  30.959  12.833   0.870
72577W        W45002  30.446  44.958  12.419
72578W        W45003  27.449  11.856   0.731
72579W        W45004  25.168  39.839  11.976
72580W        W45005  15.590  16.181   4.312
72581W        W45006   7.329   6.186  13.917
72582W        W45007  12.747  19.170   1.214
72583W        W45008  40.833  26.084  10.588
72584W        W45009   3.236   7.720   0.448
72585W        W45010  16.783  15.207  14.919
72586W        W45011   6.882   1.906  11.504
72587W        W45012  20.756  12.855   4.630
72588W        W45013  30.017  28.569   0.856
72589W        W45014  37.998  13.327   3.230
72590W        W45015  15.090  14.649   3.312
72591W        W45016   9.366  16.250  14.379
72592W        W45017   5.334  10.701   2.338
72593W        W45018  44.316  26.071  13.478
72594W        W45019  32.953  37.376  12.461
72595W        W45020  13.322   5.390   1.353
72596W        W45021   1.270   9.283  11.024
72597W        W45022  28.444  27.115  12.084
72598W        W45023  18.076  35.027  11.879
72599W        W45024  41.041  36.931  12.901
72600W        W45025   8.300   5.878  10.623
72601W        W45026  13.821   1.458   2.693
72602W        W45027  15.264  19.226  12.891
72603W        W45028  30.145  29.473  12.846
72604W        W45029  30.935  37.974   3.291
72605W        W45030  39.406  37.549   3.719
72606W        W45031   3.858  30.048  14.340
72607W        W45032  33.948  37.998   4.139
72608W        W45033  16.677  18.270   0.367
72609W        W45034  14.246   7.252   4.701
72610W        W45035  24.115  12.352   2.895
72611W        W45036  16.267  21.707   1.825
72612W        W45037  45.000  32.627  11.029
72613W        W45038  44.347  21.685   1.782
72614W        W45039  31.402  34.479   0.777
72615W        W45040   8.715   4.914   3.780
72616W        W45041  16.797  30.616   3.859
72617W        W45042  10.191  40.912   3.379
72618W        W45043  34.000   9.343  11.006
72619W        W45044  21.549  38.945  14.875
72620W        W45045   1.261  18.084   2.696
72621W        W45046  26.066   7.265  12.047
72622W        W45047   8.800   8.262   4.206
72623W        W45048  26.136  20.209   4.643
72624W        W45049  20.711   2.408  12.434
72625W        W45050  34.879  12.747   1.314
72626W        W45051  29.609  31.485  11.394
72627W        W45052  23.084  20.159  14.865
72628W        W45053  17.756  28.952   2.208
72629W        W45054  27.174   9.723  11.922
72630W        W45055  37.492  37.978   0.326
72631W        W45056  16.710  26.082  11.503
72632W        W45057   2.367  23.100   4.608
72633W        W45058  30.563  34.391  11.096
72634W        W45059   3.276  14.778  14.337
72635W        W45060  10.299  34.586  10.971
72636W        W45061  40.382  44.814  13.930
72637W        W45062  21.734  31.573  14.989
72638W        W45063   5.379  37.993   4.296
72639W        W45064   0.442  30.111   1.824
72640W        W45065  37.385  40.439   4.654
72641W        W45066  18.759  17.104  11.950
72642W        W45067  43.320  15.610   1.771
72643W        W45068  19.661  26.000  10.929
72644W        W45069  14.248  43.802  12.452
72645W        W45070   0.840  34.439  13.332
72646W        W45071  39.342  43.796  14.844
72647W        W45072  35.098  27.042  13.524
72648W        W45073  22.648   2.435  14.933
72649W        W45074   0.289  44.011  12.413
72650W        W45075  36.395  24.715   4.281
72651W        W45076  34.974  29.086  12.015
72652W        W45077  17.157   4.930   3.782
72653W        W45078  37.886  38.894   1.331
72654W        W45079  14.149  10.848   3.340
72655W        W45080  38.365  16.751  12.034
72656W        W45081   0.837  13.816   1.850
72657W        W45082  39.843  12.845   0.752
72658W        W45083  41.429  29.670  14.902
72659W        W45084  18.127   8.739  12.936
72660W        W45085   4.917  17.754  10.894
72661W        W45086   5.870  43.300  11.096
72662W        W45087  40.361  40.376   4.681
72663W        W45088  41.925   3.732  11.517
72664W        W45089  38.930  37.400   0.761
72665W        W45090  33.582  40.912   0.396
72666W        W45091  18.707   2.274  12.409
72667W        W45092  31.563   3.362  14.414
72668W        W45093  26.491  30.484   3.648
72669W        W45094  42.873  28.110   1.340
72670W        W45095  20.623   6.783   0.357
72671W        W45096   8.666  17.234   0.775
72672W        W45097  43.356  36.848   3.663
72673W        W45098  28.537  15.625   3.786
72674W        W45099  20.183  17.117   2.669
72675W        W45100  38.992  26.016  13.053
72676W        W45101  26.012   7.180   2.804
72677W        W45102  41.876  34.615  13.869
72678W        W45103   3.931  12.140   1.367
72679W        W45104   6.922  42.338   1.778
72680W        W45105  42.356   0.929   0.956
72681W        W45106  21.667   7.764  11.083
72682W        W45107   5.694   1.773  11.966
72683W        W45108  33.616  34.525  10.918
72684W        W45109  35.594  20.270   0.246
72685W        W45110  32.084  41.533  13.878
72686W        W45111  24.632  38.492  14.310
72687W        W45112  44.946  37.020   1.240
72688W        W45113  23.113  13.706   4.801
72689W        W45114  39.907  18.667  11.936
72690W        W45115   3.427  35.056   3.148
72691W        W45116   7.738  41.020  10.434
72692W        W45117  28.645  41.005   3.700
72693W        W45118  39.542  16.777  12.382
72694W        W45119   3.748  22.513   2.849
72695W        W45120  43.360  30.549   4.671
72696W        W45121  42.527  21.077   1.249
72697W        W45122  32.084   1.742   4.780
72698W        W45123   7.901  10.235   3.357
72699W        W45124   8.219   5.879   4.800
72700W        W45125   8.371   4.224   1.380
72701W        W45126  14.104  11.295   3.840
72702W        W45127  42.973  29.538   3.227
72703W        W45128  36.974  30.962  11.870
72704W        W45129   3.286  34.025   1.859
72705W        W45130  37.354   1.799   2.414
72706W        W45131   7.769  20.270  11.403
72707W        W45132  37.411  27.513  10.955
72708W        W45133  17.687  27.123   0.358
72709NA+    NA+45134  17.222   4.391   0.290
72710NA+    NA+45135  31.508   5.428   2.810
72711NA+    NA+45136  16.632   6.285  12.386
72712NA+    NA+45137  26.629  14.322   4.709
72713NA+    NA+45138  20.606  27.047   2.733
72714NA+    NA+45139  11.642  17.701   1.835
72715NA+    NA+45140  16.283   0.761   1.444
72716NA+    NA+45141   5.898  41.302   2.827
72717NA+    NA+45142  34.583  18.246   0.764
72718NA+    NA+45143  13.332  41.873  11.116
72719NA+    NA+45144  25.549  43.875  13.400
72720NA+    NA+45145  26.496   9.696  14.999
72721NA+    NA+45146  42.339  14.590   2.300
72722NA+    NA+45147  14.201  21.516  14.437
72723NA+    NA+45148  10.210   8.655   5.303
72724NA+    NA+45149  11.735   7.892   4.698
72725NA+    NA+45150  28.113  19.069  13.371
72726NA+    NA+45151  13.742  30.463  10.593
72727NA+    NA+45152  44.805  34.879   5.125
72728NA+    NA+45153  23.610   0.929  11.419
72729NA+    NA+45154  30.925   5.387  12.472
72730NA+    NA+45155   2.314  18.576  14.967
72731NA+    NA+45156  14.685  14.197   1.222
72732NA+    NA+45157  36.519  39.452   3.846
72733NA+    NA+45158  36.035  11.269   1.730
72734NA+    NA+45159  15.102  20.052   1.414
72735NA+    NA+45160  16.110   7.264  11.435
72736NA+    NA+45161  16.218   3.891  10.600
72737NA+    NA+45162  35.577  10.292   2.364
72738NA+    NA+45163  40.446  22.514   4.325
72739NA+    NA+45164   4.922  12.179  12.417
72740NA+    NA+45165  23.986  27.558   3.640
72741NA+    NA+45166   3.898  26.067   0.351
72742NA+    NA+45167  36.480  33.048  14.510
72743NA+    NA+45168  34.121  19.623  12.853
72744NA+    NA+45169   9.716   1.428   2.182
72745NA+    NA+45170   9.168  40.869   4.185
72746NA+    NA+45171  33.508  36.910  10.448
72747NA+    NA+45172  30.062  32.486   2.320
72748NA+    NA+45173  10.370  27.966   5.319
72749NA+    NA+45174  23.026   7.786  10.904
72750NA+    NA+45175   1.334  30.965   1.363
72751NA+    NA+45176  28.554   1.892   2.799
72752NA+    NA+45177  36.857  35.436  10.896
72753NA+    NA+45178  31.127  26.699   3.734
72754NA+    NA+45179  28.446  22.181  11.083
72755NA+    NA+45180  21.663  20.707   3.853
72756NA+    NA+45181  18.717  15.275  13.421
72757NA+    NA+45182  43.850   5.295   4.150
72758NA+    NA+45183  23.659  27.083   2.248
72759NA+    NA+45184  21.029  18.577   0.756
72760NA+    NA+45185  16.705  44.981   1.451
72761NA+    NA+45186   2.350   5.703   4.689
72762NA+    NA+45187  39.559  30.529   2.333
72763NA+    NA+45188  17.759  28.655   1.267
72764NA+    NA+45189   1.246  29.528  14.824
72765NA+    NA+45190   9.244  34.107  13.841
72766NA+    NA+45191  28.586  16.272   2.882
72767NA+    NA+45192  27.692   5.854  10.418
72768NA+    NA+45193   3.218   3.883   4.222
72769NA+    NA+45194  13.313   3.928  11.963
72770NA+    NA+45195   6.768   4.845  14.841
72771NA+    NA+45196  10.276  27.114  14.909
72772NA+    NA+45197  34.994  36.476   2.198
72773NA+    NA+45198  23.012  31.107   3.679
72774NA+    NA+45199   3.767  18.598  13.987
72775NA+    NA+45200  28.983   6.252  11.086
72776NA+    NA+45201  10.218   5.226   2.754
72777NA+    NA+45202  24.175  23.985  13.517
72778NA+    NA+45203  32.965  13.764   1.784
72779NA+    NA+45204  21.567  14.306  12.464
72780NA+    NA+45205  21.737   6.183   1.350
72781NA+    NA+45206  21.235   4.331   4.816
72782NA+    NA+45207  32.532  17.685  12.363
72783NA+    NA+45208   7.351  22.064  12.892
72784NA+    NA+45209   2.920   1.287   2.788
72785NA+    NA+45210  44.761  13.134   3.770
72786NA+    NA+45211  43.288   3.309  11.600
72787NA+    NA+45212   7.839  24.063  13.437
72788NA+    NA+45213  18.693  15.810   4.685
72789NA+    NA+45214   8.289   7.826   2.415
72790NA+    NA+45215  43.402   6.887   4.735
72791NA+    NA+45216  40.440  26.145   2.864
72792NA+    NA+45217  31.534  34.453  11.071
72793NA+    NA+45218   9.798  11.676  13.439
72794NA+    NA+45219  27.684  34.445   2.208
72795NA+    NA+45220   0.463  37.523   1.284
72796NA+    NA+45221   5.246  19.612  11.986
72797NA+    NA+45222  41.839  37.950   0.372
72798NA+    NA+45223  21.247  37.084   2.821
72799NA+    NA+45224   3.818   9.668  10.977
72800NA+    NA+45225  27.035  28.509   4.351
72801NA+    NA+45226  34.989   8.399  13.014
72802NA+    NA+45227  11.630  36.028   4.636
72803NA+    NA+45228  21.031  41.954   3.279
72804NA+    NA+45229  38.890  29.086  13.338
72805NA+    NA+45230  21.572   7.389  13.056
72806NA+    NA+45231   8.345   4.244   1.839
72807NA+    NA+45232  34.375  17.208   1.837
72808NA+    NA+45233  35.999  25.108   0.429
72809NA+    NA+45234  12.618   5.855   2.798
72810NA+    NA+45235  13.755  17.094   2.709
72811NA+    NA+45236  44.447  12.706  13.541
72812NA+    NA+45237  38.036  30.451  11.496
72813NA+    NA+45238   5.227  35.926   3.731
72814NA+    NA+45239  44.869  30.971   3.190
72815NA+    NA+45240  16.222  30.944  14.780
72816NA+    NA+45241  43.348  28.047  10.897
72817NA+    NA+45242  38.452  43.285   2.702
72818NA+    NA+45243  15.319  26.195   3.830
72819NA+    NA+45244  21.563  26.615   1.364
72820NA+    NA+45245  26.626  21.229   5.143
72821NA+    NA+45246   4.835   2.795  10.605
72822NA+    NA+45247  11.215  29.511  13.841
72823NA+    NA+45248  25.114  37.941   3.844
72824NA+    NA+45249  37.849  25.140  13.810
72825NA+    NA+45250  37.910  27.158   2.740
72826NA+    NA+45251  17.083  20.569  13.370
72827NA+    NA+45252  16.651  13.619  14.314
72828NA+    NA+45253  22.125  35.876  11.101
72829NA+    NA+45254  32.590  33.522   0.797
72830NA+    NA+45255  41.899  11.831  14.001
72831NA+    NA+45256  35.590  25.109   1.450
72832NA+    NA+45257  35.957   4.274   0.244
72833NA+    NA+45258   1.272  18.551  13.499
72834NA+    NA+45259  19.096   2.429  12.375
72835NA+    NA+45260   6.922  22.727   4.832
72836NA+    NA+45261  23.226  14.104   2.235
72837NA+    NA+45262  35.370   2.256  10.430
72838NA+    NA+45263  25.567  43.463   0.743
72839NA+    NA+45264  41.031  17.663   2.757
72840NA+    NA+45265  31.637  37.567   3.771
72841NA+    NA+45266  18.555   8.248  11.122
72842NA+    NA+45267   9.720   0.799  12.878
72843NA+    NA+45268   2.836  26.649   3.679
72844NA+    NA+45269  27.676  26.113   1.395
72845NA+    NA+45270  15.609  21.758  11.399
72846NA+    NA+45271  27.463  16.271  12.031
72847NA+    NA+45272   3.339   6.701   0.967
72848NA+    NA+45273   2.885  23.067  14.295
72849NA+    NA+45274  30.952  42.858   1.230
72850NA+    NA+45275   7.846  22.084  11.455
72851NA+    NA+45276   1.763  25.166  12.017
72852NA+    NA+45277  25.499  35.444   0.843
72853NA+    NA+45278  15.594  29.001  14.807
72854NA+    NA+45279   2.453  41.035   4.161
72855NA+    NA+45280  32.030   3.844   3.647
72856NA+    NA+45281  15.102  12.836  11.039
72857NA+    NA+45282  37.373  33.612   0.812
72858NA+    NA+45283  33.534   6.425   2.843
72859NA+    NA+45284  13.317  44.959   1.838
72860NA+    NA+45285   7.357  40.996  12.465
72861NA+    NA+45286  39.860  15.604  12.097
72862NA+    NA+45287  12.795  43.960   1.727
72863NA+    NA+45288  44.330   1.882  10.960
72864NA+    NA+45289  41.536   1.421   4.313
72865NA+    NA+45290  43.805  31.613   3.734
72866NA+    NA+45291  27.997   0.939  13.855
72867NA+    NA+45292  30.137  23.140  11.128
72868NA+    NA+45293  11.788  35.499  14.015
72869NA+    NA+45294  38.035  34.095   1.811
72870NA+    NA+45295  27.054  18.580  10.897
72871NA+    NA+45296   6.829   7.412   1.809
72872NA+    NA+45297   5.848  40.548   3.731
72873NA+    NA+45298  11.663  16.273  13.902
72874NA+    NA+45299  35.891  42.918  11.982
72875NA+    NA+45300  24.226   3.883  14.320
72876NA+    NA+45301  16.786  12.247  12.950
72877NA+    NA+45302  42.785  22.631   2.224
72878NA+    NA+45303  44.910  35.957  13.873
72879NA+    NA+45304   5.715  44.823  12.429
72880NA+    NA+45305  21.057   1.237   2.895
72881NA+    NA+45306  24.157  10.830   2.370
72882NA+    NA+45307  27.045   0.820  12.897
72883NA+    NA+45308  44.378  42.795   1.436
72884NA+    NA+45309  26.120  21.255   4.160
72885NA+    NA+45310   0.844  40.021  14.413
72886NA+    NA+45311  27.011  44.945   3.630
72887NA+    NA+45312  35.513  11.240  11.473
72888NA+    NA+45313   1.280   7.396  10.470
72889NA+    NA+45314  20.738  19.187  14.402
72890NA+    NA+45315  27.487  38.038   4.194
72891NA+    NA+45316  20.028   7.388  10.023
72892NA+    NA+45317   4.758  26.622  11.470
72893NA+    NA+45318  10.332  37.381   1.875
72894NA+    NA+45319  15.287  22.067   3.177
72895NA+    NA+45320  16.769  38.440   2.681
72896NA+    NA+45321  33.961  21.179  11.939
72897NA+    NA+45322  32.558  13.174  14.380
72898NA+    NA+45323  15.279  14.143  11.115
72899NA+    NA+45324  24.094  42.980  13.034
72900NA+    NA+45325  32.634  24.721   4.301
72901NA+    NA+45326   9.669  27.087   4.274
72902NA+    NA+45327   5.245  37.025  13.329
72903NA+    NA+45328  11.720  14.736   2.776
72904NA+    NA+45329  14.611   7.362  10.021
72905NA+    NA+45330  16.238  27.006   4.598
72906NA+    NA+45331  16.729  44.439   3.245
72907NA+    NA+45332   3.261   9.225  12.049
72908NA+    NA+45333   7.880  41.335  11.915
72909NA+    NA+45334  25.025  29.539   3.255
72910NA+    NA+45335  18.712  32.061   9.988
72911NA+    NA+45336  21.073  28.577  14.934
72912NA+    NA+45337  43.891  44.945  13.522
72913NA+    NA+45338  33.457  25.649  11.119
72914NA+    NA+45339  15.724  44.473   4.633
72915NA+    NA+45340  17.129  23.494  14.761
72916NA+    NA+45341  18.122  21.755  10.645
72917NA+    NA+45342  20.632  44.469   4.828
72918NA+    NA+45343  37.899  21.557   4.658
72919NA+    NA+45344  21.622  12.788   3.726
72920NA+    NA+45345  24.209  31.601  12.447
72921NA+    NA+45346  15.111  36.555   4.799
72922NA+    NA+45347   2.302   1.237  12.053
72923NA+    NA+45348  31.906  19.257   0.359
72924NA+    NA+45349  19.151  17.711   2.720
72925NA+    NA+45350  13.646  38.449   3.197
72926NA+    NA+45351  15.146  43.365   0.291
72927NA+    NA+45352  31.462  44.407  11.398
72928NA+    NA+45353  28.949   6.714  12.052
72929NA+    NA+45354  15.773   1.872   1.230
72930NA+    NA+45355  43.285  33.435  12.951
72931NA+    NA+45356  29.097  24.080   2.285
72932NA+    NA+45357  37.463   8.815  13.505
72933NA+    NA+45358  42.444   0.392   1.711
72934NA+    NA+45359  30.028  37.910  10.430
72935NA+    NA+45360  26.971  11.256   3.169
72936NA+    NA+45361  12.766   9.657  14.370
72937NA+    NA+45362  28.460  16.652   1.803
72938NA+    NA+45363  44.988  21.578  11.074
72939NA+    NA+45364  33.523  20.102  11.463
72940NA+    NA+45365  30.939  39.943   3.865
72941NA+    NA+45366  16.173  38.072  10.914
72942NA+    NA+45367  44.763  19.578   4.809
72943NA+    NA+45368   8.773  19.685   5.127
72944NA+    NA+45369   4.802  24.975   1.332
72945NA+    NA+45370  22.070  20.667  12.999
72946NA+    NA+45371  28.640   9.676  14.304
72947NA+    NA+45372  17.582  21.116   4.199
72948NA+    NA+45373  22.693  39.378  11.558
72949NA+    NA+45374  11.156  15.193   1.421
72950NA+    NA+45375   3.808  25.075  14.304
72951NA+    NA+45376  20.727  18.231   2.234
72952NA+    NA+45377  15.683  10.229   3.637
72953NA+    NA+45378  35.377   6.350  13.490
72954NA+    NA+45379   5.339  12.678  14.477
72955NA+    NA+45380  18.281   9.837   3.232
72956NA+    NA+45381  28.153  17.744   2.344
72957NA+    NA+45382  17.603  24.607  12.943
72958NA+    NA+45383  24.051  17.201  12.503
72959NA+    NA+45384   0.334  32.453  13.491
72960NA+    NA+45385  35.983  34.416   3.162
72961NA+    NA+45386   5.378   6.906   2.824
72962NA+    NA+45387  24.691  24.500  13.996
72963NA+    NA+45388  33.397  26.998   2.238
72964NA+    NA+45389  25.664  19.662   4.661
72965NA+    NA+45390  12.123  39.937   1.262
72966NA+    NA+45391  14.166  30.117  11.898
72967NA+    NA+45392  16.234  15.303   1.398
72968NA+    NA+45393  19.637   9.703  13.793
72969NA+    NA+45394  35.879  26.618   0.810
72970NA+    NA+45395   2.442  10.719   4.680
72971NA+    NA+45396  21.753  16.204  10.533
72972NA+    NA+45397  43.428  35.903   4.186
72973NA+    NA+45398  42.913   1.880   4.190
72974NA+    NA+45399  16.722  43.385   0.738
72975NA+    NA+45400  18.112   1.273  13.390
72976NA+    NA+45401   9.303  22.546  13.805
72977NA+    NA+45402   6.250  11.345  12.406
72978NA+    NA+45403  32.912   7.898  11.938
72979NA+    NA+45404  24.704  15.110  12.862
72980NA+    NA+45405  41.911  32.609   3.230
72981NA+    NA+45406  12.671  34.382  10.925
72982NA+    NA+45407  43.366  30.917  11.989
72983NA+    NA+45408  36.452  16.089  11.987
72984NA+    NA+45409   0.412  32.044  14.462
72985NA+    NA+45410   7.412  13.761  13.021
72986NA+    NA+45411  19.590  37.487   3.779
72987NA+    NA+45412   4.723  16.243  13.517
72988NA+    NA+45413  28.586   3.808   0.338
72989NA+    NA+45414   4.718  18.101  14.424
72990NA+    NA+45415   2.728  25.080   4.202
72991NA+    NA+45416  23.636  30.058   2.348
72992NA+    NA+45417   4.243   5.713   4.171
72993NA+    NA+45418  39.949  26.999   2.403
72994NA+    NA+45419  17.247  19.570  13.858
72995NA+    NA+45420  36.492   5.793   5.747
72996NA+    NA+45421  14.112  14.300  12.571
72997NA+    NA+45422  10.351  41.965   2.820
72998NA+    NA+45423  17.119   8.819   4.220
72999NA+    NA+45424  42.972   6.265  10.952
73000NA+    NA+45425  32.078  26.485   1.283
73001NA+    NA+45426  30.439   3.318  10.515
73002NA+    NA+45427  38.513  29.000  10.929
73003NA+    NA+45428   6.287  40.842   2.182
73004NA+    NA+45429  26.662  25.631   3.866
73005NA+    NA+45430  43.361  15.639  14.930
73006NA+    NA+45431  16.117  38.068   1.232
73007NA+    NA+45432  23.039  39.021   4.185
73008NA+    NA+45433   3.237  33.434   1.918
73009NA+    NA+45434  40.842  19.184  12.485
73010NA+    NA+45435  35.865   3.459  10.574
73011NA+    NA+45436  44.910   8.164   0.733
73012NA+    NA+45437  12.705  28.960   3.786
73013NA+    NA+45438  41.426  14.723  12.845
73014NA+    NA+45439  18.740  14.108   2.192
73015NA+    NA+45440  21.674  34.370  13.314
73016NA+    NA+45441  30.575  16.204   0.742
73017NA+    NA+45442  25.668  41.387   0.814
73018NA+    NA+45443  12.167   0.478   3.220
73019NA+    NA+45444  43.845   9.254   1.722
73020NA+    NA+45445  36.372   6.833  14.959
73021NA+    NA+45446  27.040  13.196  13.409
73022NA+    NA+45447  34.613  36.483  14.338
73023NA+    NA+45448  12.746  28.048  13.832
73024NA+    NA+45449  30.006   6.722   3.829
73025NA+    NA+45450   5.726  10.365   3.739
73026NA+    NA+45451  10.753  35.917  11.114
73027NA+    NA+45452   8.303  30.414   0.326
73028NA+    NA+45453  22.537  20.175  13.491
73029NA+    NA+45454  26.567  13.260   5.085
73030NA+    NA+45455  13.270   6.293  11.119
73031NA+    NA+45456  29.974  25.082   1.909
73032NA+    NA+45457   2.336   0.476   4.210
73033NA+    NA+45458  37.896   6.277   4.795
73034NA+    NA+45459   3.443  35.358   1.846
73035NA+    NA+45460  12.758  41.887  11.861
73036NA+    NA+45461  13.131   1.256  11.029
73037NA+    NA+45462  28.166  25.134   2.856
73038NA+    NA+45463  41.884  17.210  13.359
73039NA+    NA+45464  36.549  22.047  12.421
73040NA+    NA+45465  22.037  26.638  11.891
73041NA+    NA+45466  31.919  10.642  10.641
73042NA+    NA+45467   7.300  33.885   2.347
73043NA+    NA+45468  40.941  31.607  13.398
73044NA+    NA+45469  27.493  15.607   1.780
73045NA+    NA+45470   0.455  39.061  14.277
73046NA+    NA+45471   6.706  11.293   3.770
73047NA+    NA+45472  22.695  41.018   2.346
73048NA+    NA+45473  25.484  21.260  14.394
73049NA+    NA+45474  35.969  21.675  13.016
73050NA+    NA+45475  28.493  39.951   2.694
73051NA+    NA+45476  18.553  17.721  13.997
73052NA+    NA+45477  40.816  15.176  14.848
73053NA+    NA+45478   8.681  20.632  10.404
73054NA+    NA+45479  33.451  28.601   3.830
73055NA+    NA+45480  32.610  19.214   0.806
73056NA+    NA+45481  38.535   3.377  14.312
73057NA+    NA+45482  27.106  10.360   9.952
73058NA+    NA+45483  11.356  34.497  10.616
73059NA+    NA+45484  34.570  32.536   3.735
73060NA+    NA+45485  44.478   9.654  13.986
73061NA+    NA+45486   1.291  18.243  12.526
73062NA+    NA+45487  33.952   3.863   4.223
73063NA+    NA+45488  26.572  41.323   1.782
73064NA+    NA+45489   5.801  11.661  11.528
73065NA+    NA+45490   2.898  23.100   1.304
73066NA+    NA+45491  30.975   2.794  12.911
73067NA+    NA+45492  20.142  14.193   5.194
73068NA+    NA+45493  23.540   6.719   1.890
73069NA+    NA+45494  37.560   3.400   1.397
73070NA+    NA+45495  36.858  21.068  13.451
73071NA+    NA+45496  12.717  17.656  14.443
73072NA+    NA+45497  27.458   4.362   0.471
73073NA+    NA+45498  23.529   1.284  13.888
73074NA+    NA+45499  26.689  43.969   1.251
73075NA+    NA+45500  27.567  31.639  12.412
73076NA+    NA+45501  19.668  44.371  12.549
73077NA+    NA+45502  21.257  36.012   1.772
73078NA+    NA+45503  32.089   3.930  14.880
73079NA+    NA+45504  12.822  24.165   5.595
73080NA+    NA+45505  24.000  13.189  13.506
73081NA+    NA+45506   9.182  25.061  14.861
73082NA+    NA+45507  35.889   8.696  13.794
73083NA+    NA+45508  19.712  26.652  12.419
73084NA+    NA+45509  11.167   7.412   4.804
73085NA+    NA+45510  10.341  41.006  10.916
73086NA+    NA+45511   9.858   8.254   0.918
73087NA+    NA+45512  11.731  17.072   2.226
73088NA+    NA+45513   9.823  30.066  13.503
73089NA+    NA+45514  41.988  13.182   0.888
73090NA+    NA+45515  34.614   8.189   2.868
73091NA+    NA+45516  18.099  16.204   0.781
73092NA+    NA+45517  30.161   9.889  13.461
73093NA+    NA+45518  22.090  39.552  14.841
73094NA+    NA+45519  16.212  32.962   3.298
73095NA+    NA+45520   9.734  39.906   3.675
73096NA+    NA+45521  19.135  33.947   0.850
73097NA+    NA+45522  16.646  23.513   1.882
73098NA+    NA+45523  23.198   8.379  10.922
73099NA+    NA+45524   9.387  16.243  11.906
73100NA+    NA+45525  15.622   2.308   4.838
73101NA+    NA+45526   5.385  44.938   1.324
73102NA+    NA+45527  15.296  18.755  13.054
73103NA+    NA+45528  22.683  41.320  10.520
73104NA+    NA+45529   7.173  39.906  12.492
73105NA+    NA+45530  24.173   7.677  12.494
73106NA+    NA+45531  26.561  38.466   0.251
73107NA+    NA+45532  35.543  16.747   0.784
73108NA+    NA+45533  38.404  43.019  13.449
73109NA+    NA+45534  28.062  15.132   1.877
73110NA+    NA+45535  38.502   4.305   3.187
73111NA+    NA+45536  23.165  19.741  11.092
73112NA+    NA+45537  10.680  20.058   2.706
73113NA+    NA+45538   8.270  31.118   3.295
73114NA+    NA+45539  37.839  18.256   3.785
73115NA+    NA+45540  42.841  28.527   3.729
73116NA+    NA+45541  21.166  26.498  13.396
73117NA+    NA+45542   4.377   9.828   2.729
73118NA+    NA+45543  33.953  33.410  13.470
73119NA+    NA+45544  15.093  22.027  11.894
73120NA+    NA+45545  13.137   4.420   5.662
73121NA+    NA+45546  10.812  14.724  11.923
73122NA+    NA+45547  17.800  19.685   4.265
73123NA+    NA+45548  21.037  41.871   4.240
73124NA+    NA+45549  11.863  30.033  10.616
73125NA+    NA+45550  19.045  23.639   4.620
73126NA+    NA+45551  39.023  11.173   1.802
73127NA+    NA+45552   1.879  33.389  11.037
73128NA+    NA+45553  18.580  36.906   1.834
73129NA+    NA+45554  29.630  13.724   1.362
73130NA+    NA+45555  44.870   9.805  12.570
73131NA+    NA+45556  25.580   4.843   3.334
73132NA+    NA+45557   1.406   3.855   1.351
73133NA+    NA+45558  15.239   0.957  13.444
73134NA+    NA+45559  27.979  13.344   0.353
73135NA+    NA+45560  42.314   9.791  14.912
73136NA+    NA+45561  21.703   5.871   4.618
73137NA+    NA+45562  35.968  21.750  13.907
73138NA+    NA+45563  35.439  13.130   0.965
73139NA+    NA+45564   1.473   1.254   4.676
73140NA+    NA+45565  39.949  31.492  14.965
73141NA+    NA+45566  32.452  28.036   1.290
73142NA+    NA+45567  39.904  14.704  10.466
73143NA+    NA+45568  23.516  36.915  12.008
73144NA+    NA+45569  20.138  12.810   3.702
73145NA+    NA+45570  28.940  26.545  11.943
73146NA+    NA+45571   1.360  30.521   4.264
73147NA+    NA+45572  17.249  29.428   2.665
73148NA+    NA+45573  37.937  35.981  14.407
73149NA+    NA+45574  15.668   9.704  13.490
73150NA+    NA+45575  29.967   7.735   2.250
73151NA+    NA+45576  32.976  29.964   0.802
73152NA+    NA+45577  34.452   6.883   5.187
73153NA+    NA+45578  30.517   7.188   2.856
73154NA+    NA+45579   4.928  17.174   2.798
73155NA+    NA+45580  38.365  41.327  11.601
73156NA+    NA+45581  30.106  38.489  14.945
73157NA+    NA+45582  11.633   3.721  12.978
73158NA+    NA+45583  16.632  15.293  11.086
73159NA+    NA+45584  13.182  24.607   1.840
73160NA+    NA+45585  44.785  44.346   3.223
73161NA+    NA+45586   1.340   2.796  10.627
73162NA+    NA+45587  23.047   3.300  13.968
73163NA+    NA+45588  34.984   0.749   3.717
73164NA+    NA+45589  40.321  37.077  10.941
73165NA+    NA+45590  11.643   2.250   4.186
73166NA+    NA+45591  18.721  24.144   2.285
73167NA+    NA+45592  41.510   4.212  11.858
73168NA+    NA+45593   6.376   6.408   3.279
73169NA+    NA+45594  10.737  10.749   0.746
73170NA+    NA+45595  36.584  27.499   3.864
73171NA+    NA+45596  16.200   2.801   3.183
73172NA+    NA+45597  34.033  34.042   2.744
73173NA+    NA+45598  34.525  26.050  14.893
73174NA+    NA+45599   4.268  18.281   2.731
73175NA+    NA+45600   2.332  22.654  10.945
73176NA+    NA+45601  35.881  12.119   2.902
73177NA+    NA+45602  32.588  23.220  13.885
73178NA+    NA+45603  36.053  37.968  11.090
73179NA+    NA+45604  11.218  18.758  12.492
73180NA+    NA+45605  19.201  28.661  14.357
73181NA+    NA+45606  30.416  25.611   1.697
73182NA+    NA+45607  11.794  43.886   1.818
73183NA+    NA+45608  11.262  26.558  10.463
73184NA+    NA+45609  14.662  13.145  11.441
73185NA+    NA+45610  18.676  11.822  12.385
73186NA+    NA+45611  37.022  37.881   0.916
73187NA+    NA+45612   8.400  25.559   4.234
73188NA+    NA+45613  37.492  38.018   2.850
73189NA+    NA+45614  22.736  37.832  12.472
73190NA+    NA+45615  29.484  25.994  11.971
73191NA+    NA+45616   8.192  29.025  14.803
73192NA+    NA+45617  44.347  34.091   2.693
73193NA+    NA+45618  20.534  34.090  14.862
73194NA+    NA+45619  38.557  17.168   2.739
73195NA+    NA+45620  35.403  28.657   4.165
73196NA+    NA+45621  20.734  34.066  12.342
73197NA+    NA+45622  28.174   0.297   1.933
73198NA+    NA+45623  17.728  18.780  11.874
73199NA+    NA+45624  35.976  30.630  12.856
73200NA+    NA+45625  33.558  28.040  14.462
73201NA+    NA+45626  36.511   6.773   2.895
73202NA+    NA+45627   8.215  22.650  12.574
73203NA+    NA+45628  34.594  19.729   4.256
73204NA+    NA+45629  15.157   3.417  11.574
73205NA+    NA+45630   5.423  22.741   1.869
73206NA+    NA+45631   8.299  16.592   0.383
73207NA+    NA+45632  29.991  23.012   3.822
73208NA+    NA+45633   0.387   4.782   2.871
73209NA+    NA+45634  35.579  24.995   4.253
73210NA+    NA+45635  34.498  33.562   4.167
73211NA+    NA+45636  31.561  29.619   1.826
73212NA+    NA+45637  26.566  43.311  14.380
73213NA+    NA+45638  44.834   3.215  14.328
73214NA+    NA+45639  20.690  32.393   2.896
73215NA+    NA+45640   1.442  17.600  14.512
73216NA+    NA+45641   7.909   3.947  14.407
73217NA+    NA+45642  27.154   5.332  11.487
73218NA+    NA+45643  25.077  28.547   2.359
73219NA+    NA+45644  33.957  44.331   2.734
73220NA+    NA+45645   2.933   7.801   1.338
73221NA+    NA+45646   4.861  44.473   2.780
73222NA+    NA+45647  39.385   9.190  12.580
73223NA+    NA+45648  28.076  18.711  13.481
73224NA+    NA+45649  35.022  17.564   3.216
73225NA+    NA+45650  19.607  16.611  12.423
73226NA+    NA+45651  29.021  41.997  12.941
73227NA+    NA+45652  15.203  29.544  12.448
73228NA+    NA+45653   1.346  19.223  10.433
73229NA+    NA+45654  31.972  29.035   3.839
73230NA+    NA+45655  15.750   0.881  13.873
73231NA+    NA+45656   4.431  40.907  13.990
73232NA+    NA+45657   0.925  39.552   1.430
73233NA+    NA+45658   1.384   3.863  13.405
73234NA+    NA+45659  32.553   0.287  12.825
73235NA+    NA+45660  16.154  42.804  14.854
73236NA+    NA+45661  31.429  39.360   5.299
73237NA+    NA+45662  35.465   9.342   0.434
73238NA+    NA+45663  34.602  35.475   0.368
73239NA+    NA+45664  21.740  42.482   3.695
73240NA+    NA+45665  14.607  39.978   2.241
73241NA+    NA+45666  26.956  22.208   3.868
73242NA+    NA+45667  17.075   1.757  14.930
73243NA+    NA+45668   9.808  36.499   0.344
73244NA+    NA+45669  26.071  23.604  12.064
73245NA+    NA+45670  31.412  20.154   4.738
73246NA+    NA+45671  10.849  31.477   4.305
73247NA+    NA+45672  24.123   8.232   3.183
73248NA+    NA+45673  15.755  28.551   4.609
73249NA+    NA+45674  35.549  25.163  11.610
73250NA+    NA+45675  18.135  42.329   2.841
73251NA+    NA+45676  23.666  41.507   4.161
73252NA+    NA+45677  41.901  13.183  11.043
73253NA+    NA+45678   0.319  16.663   1.805
73254NA+    NA+45679  38.343  29.142  14.366
73255NA+    NA+45680  19.189  39.486   2.741
73256NA+    NA+45681   3.806  24.552   1.307
73257NA+    NA+45682   6.205  15.782   5.258
73258NA+    NA+45683  15.125  10.171  13.859
73259NA+    NA+45684  31.464  30.540  12.510
73260NA+    NA+45685  42.982  39.554   0.374
73261NA+    NA+45686   7.297   8.743   4.799
73262NA+    NA+45687  38.408   7.673   3.291
73263NA+    NA+45688  29.086  14.688   0.790
73264NA+    NA+45689  16.576  24.042   1.697
73265NA+    NA+45690  32.499   8.898   4.244
73266NA+    NA+45691   7.868  36.045  13.816
73267NA+    NA+45692   2.437  30.042  14.975
73268NA+    NA+45693  20.236  30.059  14.798
73269NA+    NA+45694  29.034  38.528  10.570
73270NA+    NA+45695  36.592   3.455  12.899
73271NA+    NA+45696  13.141  38.484  11.975
73272NA+    NA+45697  21.563  39.998   3.765
73273NA+    NA+45698   1.780  42.790  11.378
73274NA+    NA+45699  16.265  28.528  13.840
73275NA+    NA+45700  22.133  38.566   1.870
73276NA+    NA+45701  39.998  39.857  13.854
73277NA+    NA+45702  41.396  27.064   3.752
73278NA+    NA+45703  14.260   8.777   3.350
73279NA+    NA+45704  17.125  37.914  12.562
73280NA+    NA+45705   1.925  14.293  10.486
73281NA+    NA+45706   3.236  37.865  12.984
73282NA+    NA+45707  35.900  25.003  14.891
73283NA+    NA+45708  39.881  19.694   2.251
73284NA+    NA+45709  18.293  19.544  11.125
73285NA+    NA+45710  35.597  19.173   0.928
73286NA+    NA+45711  21.249   3.855   0.795
73287NA+    NA+45712  37.992  21.718   3.807
73288NA+    NA+45713  18.132  23.130   3.221
73289NA+    NA+45714  17.084  13.738   4.330
73290NA+    NA+45715  30.051   5.711  11.858
73291NA+    NA+45716   0.772  17.574  14.999
73292NA+    NA+45717   5.414  31.941   2.807
73293NA+    NA+45718  11.763  42.898   1.707
73294NA+    NA+45719  43.795  42.874  12.933
73295NA+    NA+45720  26.549  41.038  13.337
73296NA+    NA+45721   3.370   8.677   3.869
73297NA+    NA+45722  29.071  40.490  11.520
73298NA+    NA+45723   9.825  29.978  13.031
73299NA+    NA+45724  31.623  15.108   3.682
73300NA+    NA+45725  24.706  17.143   0.331
73301NA+    NA+45726  18.069  16.134  14.780
73302NA+    NA+45727  17.798   3.799   1.745
73303NA+    NA+45728  18.130  10.825   3.637
73304NA+    NA+45729  13.151   8.245  12.861
73305NA+    NA+45730   9.757  34.945  14.769
73306NA+    NA+45731  13.758  13.117  10.900
73307NA+    NA+45732  25.020  32.996   3.844
73308NA+    NA+45733   7.805  12.637   5.236
73309NA+    NA+45734  12.218  31.026  14.847
73310NA+    NA+45735  23.018  39.537  10.938
73311NA+    NA+45736  42.414  12.667  13.929
73312NA+    NA+45737   8.181  14.699   3.840
73313NA+    NA+45738  29.426   4.844   5.131
73314NA+    NA+45739   5.316  20.245  12.517
73315NA+    NA+45740   3.883  33.054   4.146
73316NA+    NA+45741  37.955  16.638   0.469
73317NA+    NA+45742  36.541  23.062   0.395
73318NA+    NA+45743  25.627  11.232   3.724
73319NA+    NA+45744  24.709  10.325   0.472
73320NA+    NA+45745  44.333  28.930  10.045
73321NA+    NA+45746  18.258  41.530   1.749
73322NA+    NA+45747  16.104   7.714   2.865
73323NA+    NA+45748  35.070   6.233   4.631
73324NA+    NA+45749  15.701  21.229  14.392
73325NA+    NA+45750   4.340  19.548   1.406
73326NA+    NA+45751  13.663   4.774  11.485
73327NA+    NA+45752  43.009  16.633  10.910
73328NA+    NA+45753  34.551  39.945  13.875
73329NA+    NA+45754  19.280  20.724  13.306
73330NA+    NA+45755  26.524  21.533   2.306
73331NA+    NA+45756   8.676  37.856   1.890
73332NA+    NA+45757   3.744  11.751   2.809
73333NA+    NA+45758  38.947   4.371   2.388
73334NA+    NA+45759  38.889  27.010  13.421
73335NA+    NA+45760  20.736  14.143   4.354
73336NA+    NA+45761   9.802  18.090  11.492
73337NA+    NA+45762  25.158  33.944  14.849
73338NA+    NA+45763  15.246  22.076   2.769
73339NA+    NA+45764  23.033  36.987  11.936
73340NA+    NA+45765  31.548  42.987   4.265
73341NA+    NA+45766   6.218  18.244   3.849
73342NA+    NA+45767  37.343  33.555  10.896
73343NA+    NA+45768  29.582  44.989   3.766
73344NA+    NA+45769  33.424  27.022  11.060
73345NA+    NA+45770  17.566  24.048  12.544
73346NA+    NA+45771  23.025  16.672  11.899
73347NA+    NA+45772  23.067  10.220  14.962
73348NA+    NA+45773  12.794  32.109  11.880
73349NA+    NA+45774  22.035  19.683  12.022
73350NA+    NA+45775  28.132  10.209   4.227
73351NA+    NA+45776   0.945   7.383   1.707
73352NA+    NA+45777   4.243   2.910  11.883
73353NA+    NA+45778  13.168  32.057   5.189
73354NA+    NA+45779  31.088  17.215  12.433
73355NA+    NA+45780  10.694  26.544   1.272
73356NA+    NA+45781  28.548   9.843   4.172
73357NA+    NA+45782   7.696   4.719   4.212
73358NA+    NA+45783  19.047  39.057   2.224
73359NA+    NA+45784  41.401  31.042   4.764
73360NA+    NA+45785  19.542  22.112   4.218
73361NA+    NA+45786  12.327  43.453   2.758
73362NA+    NA+45787  28.960   7.278   2.326
73363NA+    NA+45788  20.534  34.401   2.188
73364NA+    NA+45789   2.366  14.733   2.280
73365NA+    NA+45790  26.637  42.506  10.625
73366NA+    NA+45791  27.010  22.558  11.532
73367NA+    NA+45792  23.099  37.460   2.725
73368NA+    NA+45793  40.893   4.353  11.082
73369NA+    NA+45794  26.016  33.451  12.456
73370NA+    NA+45795   0.896   8.268   1.707
73371NA+    NA+45796  17.787   4.360   2.748
73372NA+    NA+45797   2.253  38.563   0.844
73373NA+    NA+45798  29.460   4.227  13.006
73374NA+    NA+45799   1.445   7.170   1.748
73375NA+    NA+45800   6.405  42.523  11.952
73376NA+    NA+45801  36.863  14.158   4.617
73377NA+    NA+45802  22.653  16.162   2.370
73378NA+    NA+45803   6.230  24.492  12.445
73379NA+    NA+45804  36.511  40.350   4.773
73380NA+    NA+45805  43.823  31.025  13.439
73381NA+    NA+45806   8.165   7.249  12.461
73382NA+    NA+45807   6.259  19.717  10.131
73383NA+    NA+45808  43.000  14.660  11.544
73384NA+    NA+45809  26.648  15.802   1.775
73385NA+    NA+45810   2.905  35.099   4.340
73386NA+    NA+45811  13.114  38.829  10.547
73387NA+    NA+45812  40.961  34.406   1.255
73388NA+    NA+45813  13.729  28.088  12.864
73389NA+    NA+45814  25.198  37.369   1.351
73390NA+    NA+45815  23.635   4.238  11.374
73391NA+    NA+45816  23.598   8.865   0.909
73392NA+    NA+45817  16.710   7.271   3.217
73393NA+    NA+45818  23.601  40.897  14.375
73394NA+    NA+45819  16.726  11.183  13.791
73395NA+    NA+45820  22.507  35.086   1.792
73396NA+    NA+45821  20.622  17.138   2.414
73397NA+    NA+45822  15.776   3.735   3.666
73398NA+    NA+45823  41.894  28.141  10.530
73399NA+    NA+45824   2.912  22.150  12.413
73400NA+    NA+45825  36.589  30.420   4.270
73401NA+    NA+45826  19.115  13.708   0.412
73402NA+    NA+45827   9.181  11.796   9.968
73403NA+    NA+45828  13.317  14.601   0.891
73404NA+    NA+45829   1.350  25.112   1.811
73405NA+    NA+45830  37.982  38.881  13.877
73406NA+    NA+45831  40.506  25.975   0.848
73407NA+    NA+45832   9.694  22.705  13.393
73408NA+    NA+45833  42.512  36.980   3.766
73409NA+    NA+45834  33.002  22.658  11.967
73410NA+    NA+45835  12.176  25.533  11.865
73411NA+    NA+45836  27.941  15.201   2.389
73412NA+    NA+45837  23.201   3.917   1.705
73413NA+    NA+45838   4.322  38.021   0.353
73414NA+    NA+45839  20.578  24.682   1.447
73415NA+    NA+45840  29.533   4.217  14.768
73416NA+    NA+45841  33.495   1.850   0.351
73417NA+    NA+45842  22.013   2.249  11.031
73418NA+    NA+45843  37.352  41.380  12.087
73419NA+    NA+45844  18.725  35.975   4.228
73420NA+    NA+45845  38.009   1.937   1.915
73421NA+    NA+45846  34.497  31.410   3.258
73422NA+    NA+45847  23.494   3.215   1.910
73423NA+    NA+45848  40.799  13.329   1.879
73424NA+    NA+45849   1.440  22.579  10.994
73425NA+    NA+45850  13.718  19.246  11.073
73426NA+    NA+45851  33.057  42.944  11.920
73427NA+    NA+45852  44.958  34.941  12.425
73428NA+    NA+45853  38.825  15.085   3.252
73429NA+    NA+45854  14.262  17.191   1.767
73430NA+    NA+45855  22.701  42.953  10.052
73431NA+    NA+45856  15.590  34.877   9.656
73432NA+    NA+45857  32.471  25.554  14.302
73433NA+    NA+45858   4.700  34.112   0.410
73434NA+    NA+45859  10.779  21.697  14.455
73435NA+    NA+45860  28.579  34.539   3.198
73436NA+    NA+45861   9.853  13.273  13.544
73437NA+    NA+45862   9.868   7.307  10.956
73438NA+    NA+45863  38.506  17.254   3.181
73439NA+    NA+45864  24.064  15.747   0.749
73440NA+    NA+45865  10.738  42.292   3.172
73441NA+    NA+45866  14.589  26.063  12.450
73442NA+    NA+45867   4.210   9.265   3.869
73443NA+    NA+45868  31.549  19.280  14.311
73444NA+    NA+45869  22.698  36.008   2.293
73445NA+    NA+45870  14.237  41.516   1.778
73446NA+    NA+45871  41.447  41.828   3.785
73447NA+    NA+45872   9.791   1.458   2.862
73448NA+    NA+45873  35.557   0.758   2.185
73449NA+    NA+45874  32.575  28.114   2.327
73450NA+    NA+45875  10.698  28.075   0.934
73451NA+    NA+45876  25.014  26.195   1.870
73452NA+    NA+45877  21.528  20.531   3.365
73453NA+    NA+45878  36.958  24.195   4.815
73454NA+    NA+45879  10.220  26.555  10.643
73455NA+    NA+45880  38.442  44.372  12.548
73456NA+    NA+45881  18.105  28.522   0.737
73457NA+    NA+45882  32.919  10.690   3.255
73458NA+    NA+45883  37.381  10.876   4.284
73459NA+    NA+45884   7.193  17.063  11.062
73460NA+    NA+45885  20.236   0.933  11.462
73461NA+    NA+45886  23.625   2.461   2.665
73462NA+    NA+45887  18.628  31.056  13.382
73463NA+    NA+45888   4.846   3.251  11.501
73464NA+    NA+45889  38.991  36.470  10.568
73465NA+    NA+45890  33.981  25.046  14.464
73466NA+    NA+45891  37.506  29.481  13.525
73467NA+    NA+45892   4.875  33.887  12.044
73468NA+    NA+45893  16.211  39.013  13.463
73469NA+    NA+45894  15.157   0.774  11.479
73470NA+    NA+45895  34.425  42.854   2.740
73471NA+    NA+45896  33.047  19.761   0.907
73472NA+    NA+45897  14.642  23.236  13.000
73473NA+    NA+45898  17.630  33.420   1.231
73474NA+    NA+45899   6.301  18.678  11.982
73475NA+    NA+45900   4.206  22.570   1.377
73476NA+    NA+45901  14.689  18.704  14.405
73477NA+    NA+45902  17.776   4.867   0.331
73478NA+    NA+45903  37.839  16.761   2.837
73479NA+    NA+45904  44.346  36.563  11.858
73480NA+    NA+45905   8.310  13.244  13.351
73481NA+    NA+45906   1.973  13.275  10.497
73482NA+    NA+45907  34.893  35.596  11.471
73483NA+    NA+45908  25.004  11.309   4.652
73484NA+    NA+45909  26.955  41.443   4.798
73485NA+    NA+45910  11.791  12.748   4.329
73486NA+    NA+45911  28.149  29.001   3.376
73487NA+    NA+45912   6.333  10.653   4.666
73488NA+    NA+45913  31.571  14.797   3.384
73489NA+    NA+45914   8.734  42.384  12.482
73490NA+    NA+45915  18.570  26.966   0.425
73491NA+    NA+45916  13.171  15.221  13.863
73492NA+    NA+45917  21.239   2.844  12.014
73493NA+    NA+45918  26.608  41.525  13.497
73494NA+    NA+45919  13.801   9.877  11.410
73495NA+    NA+45920  11.773  34.119   3.351
73496NA+    NA+45921  26.984  18.731   1.223
73497NA+    NA+45922   1.334  17.560  13.403
73498NA+    NA+45923  41.830  25.031  12.088
73499NA+    NA+45924  36.074  19.550   1.356
73500NA+    NA+45925  16.763   8.201   4.597
73501NA+    NA+45926   8.668   9.790  11.053
73502NA+    NA+45927  30.607  28.445   3.311
73503NA+    NA+45928  14.631   9.801   0.850
73504NA+    NA+45929   9.312   5.737  11.521
73505NA+    NA+45930   6.768  12.782   3.167
73506NA+    NA+45931  14.668  38.956   4.798
73507NA+    NA+45932  35.366   5.361   3.375
73508NA+    NA+45933  39.431  43.987  14.460
73509NA+    NA+45934  20.175   9.290   2.892
73510NA+    NA+45935  36.383   5.211  12.944
73511NA+    NA+45936  23.221  38.534   4.613
73512NA+    NA+45937  19.053   5.437  10.580
73513NA+    NA+45938   2.960   4.893   1.407
73514NA+    NA+45939  24.228   2.358   1.333
73515NA+    NA+45940  26.967  43.507   2.765
73516NA+    NA+45941   9.865   0.941  14.865
73517NA+    NA+45942  21.071  27.029  12.891
73518NA+    NA+45943  15.677  36.097  12.925
73519NA+    NA+45944  13.222  12.697  11.531
73520NA+    NA+45945   1.376   5.216   2.737
73521NA+    NA+45946   4.903  32.912   0.941
73522NA+    NA+45947  20.769   9.182  12.005
73523NA+    NA+45948  14.197  44.765  13.963
73524NA+    NA+45949  27.606   6.194  14.808
73525NA+    NA+45950  32.142  44.879   3.870
73526NA+    NA+45951  27.942  44.877   1.699
73527NA+    NA+45952  44.879  31.150  10.473
73528NA+    NA+45953  18.239  15.605  13.482
73529NA+    NA+45954   8.738  40.838  12.022
73530NA+    NA+45955  31.140  25.522  10.958
73531NA+    NA+45956  23.097  18.240  13.013
73532NA+    NA+45957  14.788  32.926   1.718
73533NA+    NA+45958  42.782   6.827   4.711
73534NA+    NA+45959  42.879  21.663   3.385
73535NA+    NA+45960  43.825  38.436  14.398
73536NA+    NA+45961  19.630  15.795   3.684
73537NA+    NA+45962  33.393  42.302   1.396
73538NA+    NA+45963  14.109   4.707   4.644
73539NA+    NA+45964  16.145   0.836  14.888
73540NA+    NA+45965   8.189  41.294   1.351
73541NA+    NA+45966  16.299  29.136   2.842
73542NA+    NA+45967  21.569  25.170  11.010
73543NA+    NA+45968   7.681  39.884   2.821
73544NA+    NA+45969  31.008  24.702  11.068
73545NA+    NA+45970  18.195  11.281  13.821
73546NA+    NA+45971  12.233  30.647   4.611
73547NA+    NA+45972  12.788  32.420   3.190
73548NA+    NA+45973  36.946  13.292  14.933
73549NA+    NA+45974  30.418  12.194  12.069
73550NA+    NA+45975  30.461  25.694  10.972
73551NA+    NA+45976  22.616  32.063  13.961
73552NA+    NA+45977  30.980  44.831   4.783
73553NA+    NA+45978  32.496  13.105   0.886
73554NA+    NA+45979  29.534  42.357   0.769
73555NA+    NA+45980   0.972   5.292   1.734
73556NA+    NA+45981  30.424  30.536   1.261
73557NA+    NA+45982  38.563  33.935   4.811
73558NA+    NA+45983  20.545  16.677   3.198
73559NA+    NA+45984   8.824   8.167   4.740
73560NA+    NA+45985  31.472  19.058   3.814
73561NA+    NA+45986  35.914  37.479   4.139
73562NA+    NA+45987  15.162  40.324  10.589
73563NA+    NA+45988  37.465  39.849  14.483
73564NA+    NA+45989  19.559  40.331  14.424
73565NA+    NA+45990  31.944  44.323  12.552
73566NA+    NA+45991  26.629  15.156   4.779
73567NA+    NA+45992   4.704   4.832  11.528
73568NA+    NA+45993  10.677  31.531  14.931
73569NA+    NA+45994  24.065  35.086  11.968
73570NA+    NA+45995  44.300  19.064  12.006
73571NA+    NA+45996  29.999  20.208  13.454
73572NA+    NA+45997   3.455   4.905   2.408
73573NA+    NA+45998  37.864  36.564   1.324
73574NA+    NA+45999   1.273  23.539   0.896
73575NA+    NA+46000  19.611  13.835  13.336
73576NA+    NA+46001  34.994  26.497   1.241
73577NA+    NA+46002  23.730  31.111   2.693
73578NA+    NA+46003   8.162  18.072   2.785
73579NA+    NA+46004  23.690   1.244  14.973
73580NA+    NA+46005  10.146   3.458  12.030
73581NA+    NA+46006   7.322  30.474   2.682
73582NA+    NA+46007  14.806  23.170  13.515
73583NA+    NA+46008  32.533  37.835   3.380
73584NA+    NA+46009   1.414  16.094  13.502
73585NA+    NA+46010  44.440  39.349  12.009
73586NA+    NA+46011   2.298   9.241   2.880
73587NA+    NA+46012  31.014  32.629   3.268
73588NA+    NA+46013  11.831  16.165   0.355
73589NA+    NA+46014  10.671  15.219  11.508
73590NA+    NA+46015  28.563  28.597  12.080
73591NA+    NA+46016  23.186  20.228   3.750
73592NA+    NA+46017  42.838  16.571   3.317
73593NA+    NA+46018  34.958  25.003   0.841
73594NA+    NA+46019  11.859   1.375   2.240
73595NA+    NA+46020  14.117  43.465   4.138
73596NA+    NA+46021  17.271  29.039  10.522
73597NA+    NA+46022  26.966   2.907  12.027
73598NA+    NA+46023  25.488   3.748   0.757
73599NA+    NA+46024   2.315  12.332   0.424
73600NA+    NA+46025  32.521  35.081  14.772
73601NA+    NA+46026  42.448  44.385  12.939
73602NA+    NA+46027  34.063  18.073   4.648
73603NA+    NA+46028  30.052   3.290  14.397
73604NA+    NA+46029  38.371  12.663  13.510
73605NA+    NA+46030  15.742   0.487  13.955
73606NA+    NA+46031  38.823   6.889  10.515
73607NA+    NA+46032  12.679  29.644   4.711
73608NA+    NA+46033   1.342   8.344   2.298
73609NA+    NA+46034   7.808  39.323  13.317
73610NA+    NA+46035  18.102  15.095   2.744
73611NA+    NA+46036  25.037  33.985   4.603
73612NA+    NA+46037   1.246  12.620  12.563
73613NA+    NA+46038  16.263   5.331   2.258
73614NA+    NA+46039  10.717  40.037   1.911
73615NA+    NA+46040  13.745  32.053  11.948
73616NA+    NA+46041  42.843  36.870  10.606
73617NA+    NA+46042  31.021  39.023   4.757
73618NA+    NA+46043   5.928  35.085  13.329
73619NA+    NA+46044   7.343  20.615   4.274
73620NA+    NA+46045  32.599  43.006  10.433
73621NA+    NA+46046  14.725   9.259  14.980
73622NA+    NA+46047  31.512  29.929   3.797
73623NA+    NA+46048  25.963  43.292   3.665
73624NA+    NA+46049  31.634   5.327   0.378
73625NA+    NA+46050  14.699  29.428   4.621
73626NA+    NA+46051  28.157  10.218  10.517
73627NA+    NA+46052  41.451  26.660  14.321
73628NA+    NA+46053  25.168   1.257   2.787
73629NA+    NA+46054  24.078   1.907  10.947
73630NA+    NA+46055  10.191  33.995  12.954
73631NA+    NA+46056  14.183  15.740  10.527
73632NA+    NA+46057  16.776   6.720  14.804
73633NA+    NA+46058  20.028  42.820  14.472
73634NA+    NA+46059  17.736  33.123  13.428
73635NA+    NA+46060  34.980   5.774  13.361
73636NA+    NA+46061  15.606  42.868   3.169
73637NA+    NA+46062  21.656  26.480  12.003
73638NA+    NA+46063  13.824  22.173   9.990
73639NA+    NA+46064  26.518  28.511   1.216
73640NA+    NA+46065  44.980  40.415   4.600
73641NA+    NA+46066  39.031  20.205   2.283
73642NA+    NA+46067   2.945  15.824  11.112
73643NA+    NA+46068   3.948  36.953   4.282
73644NA+    NA+46069  28.678   7.824  14.504
73645NA+    NA+46070  26.089  43.356   1.772
73646NA+    NA+46071  14.651  29.435   0.358
73647NA+    NA+46072  13.337  33.496   3.281
73648NA+    NA+46073   0.907  11.776  12.942
73649NA+    NA+46074  16.703   9.367  11.085
73650NA+    NA+46075  12.737   9.828  11.395
73651NA+    NA+46076  10.678  20.753   1.293
73652NA+    NA+46077   6.680   4.723  11.604
73653NA+    NA+46078  26.151  18.167  12.958
73654NA+    NA+46079  15.763  41.484  11.080
73655NA+    NA+46080  12.295  33.067  14.839
73656NA+    NA+46081  31.067  15.161   0.744
73657NA+    NA+46082  19.716  15.266  10.557
73658NA+    NA+46083  42.964  19.094  12.578
73659NA+    NA+46084  43.838  20.053   1.438
73660NA+    NA+46085   3.885  11.348   3.830
73661NA+    NA+46086  36.098  30.069   3.338
73662NA+    NA+46087  10.803   4.258   1.351
73663NA+    NA+46088   7.768  17.567  14.783
73664NA+    NA+46089   6.903  40.828  14.897
73665NA+    NA+46090  33.596   6.758   2.873
73666NA+    NA+46091  29.514  40.937  14.335
73667NA+    NA+46092  34.059  26.966  13.426
73668NA+    NA+46093  17.140  29.465  14.810
73669NA+    NA+46094   2.292   1.424   0.314
73670NA+    NA+46095  11.323  10.144   2.417
73671NA+    NA+46096   9.303  30.591  12.343
73672NA+    NA+46097  29.454  31.967   2.201
73673NA+    NA+46098  17.603  34.502   4.632
73674NA+    NA+46099  21.537  11.856  10.897
73675NA+    NA+46100   9.875  33.395   3.153
73676NA+    NA+46101   9.708  22.597  12.486
73677NA+    NA+46102   9.245  38.073   4.690
73678NA+    NA+46103  10.219  10.144   4.772
73679NA+    NA+46104  21.672   4.415   3.630
73680NA+    NA+46105  34.613  17.756  13.927
73681NA+    NA+46106  21.593  41.533   1.829
73682NA+    NA+46107  27.023   4.218   0.794
73683NA+    NA+46108   5.222   5.410  14.760
73684NA+    NA+46109  39.373  20.252   1.308
73685NA+    NA+46110  10.700  27.688  12.523
73686NA+    NA+46111  14.265  17.242  12.864
73687NA+    NA+46112  42.835  37.080  13.362
73688NA+    NA+46113  16.185  28.577  12.940
73689NA+    NA+46114  36.020  24.587  13.045
73690NA+    NA+46115  42.394  27.965  14.374
73691NA+    NA+46116  28.635  40.967  11.594
73692NA+    NA+46117   2.304  10.168  10.989
73693NA+    NA+46118  44.835   1.766  10.593
73694NA+    NA+46119  33.086  34.387  14.761
73695NA+    NA+46120  30.551  12.118  11.030
73696NA+    NA+46121  17.067  42.381   2.364
73697NA+    NA+46122  38.903  39.983  12.991
73698NA+    NA+46123  10.744  43.879   3.807
73699NA+    NA+46124  31.419  38.536  11.587
73700NA+    NA+46125  22.554  36.374   0.444
73701NA+    NA+46126   9.189  14.709  12.979
73702NA+    NA+46127   4.730  31.513   3.350
73703NA+    NA+46128  35.014  17.287   2.772
73704NA+    NA+46129  42.473  30.443  12.071
73705NA+    NA+46130  14.307  25.001   0.388
73706NA+    NA+46131   1.461   1.903   1.861
73707NA+    NA+46132  43.828  34.042  10.043
73708NA+    NA+46133   7.261   5.242  12.488
73709NA+    NA+46134  31.919  30.584  10.074
73710NA+    NA+46135   3.941   3.831   1.403
73711NA+    NA+46136  19.639  35.535  10.556
73712NA+    NA+46137  27.131   0.376   1.251
73713NA+    NA+46138  36.045  30.579   4.223
73714NA+    NA+46139  31.153  11.726   4.173
73715NA+    NA+46140  30.006   6.269  13.378
73716NA+    NA+46141  32.939  29.918  11.014
73717NA+    NA+46142  33.935  41.393  13.521
73718NA+    NA+46143  28.512  20.542   4.726
73719NA+    NA+46144  13.730  37.530   4.642
73720NA+    NA+46145  32.463   0.829  12.093
73721NA+    NA+46146  43.787  18.268   0.454
73722NA+    NA+46147  16.738  16.660  11.058
73723NA+    NA+46148  22.015   2.740  13.981
73724NA+    NA+46149   8.731  32.474  11.911
73725NA+    NA+46150  29.065  31.133   3.365
73726NA+    NA+46151  41.304  38.544   3.805
73727NA+    NA+46152  14.278  10.149   0.255
73728NA+    NA+46153  34.566   5.861   2.780
73729NA+    NA+46154   6.374  20.745  14.779
73730NA+    NA+46155  40.519  29.582   4.824
73731NA+    NA+46156  31.588  11.648  12.889
73732NA+    NA+46157  40.380  26.506  14.023
73733NA+    NA+46158  13.286  10.687  10.927
73734NA+    NA+46159  26.662  19.162  12.868
73735NA+    NA+46160  34.438  28.665   0.838
73736NA+    NA+46161   5.302   9.844   1.772
73737NA+    NA+46162  17.662  13.676   3.754
73738NA+    NA+46163  34.949   2.246   1.403
73739NA+    NA+46164  40.307  31.038   4.597
73740NA+    NA+46165  28.102   3.730  12.445
73741NA+    NA+46166  36.010  27.992  10.964
73742NA+    NA+46167  35.102  27.546  12.826
73743NA+    NA+46168  26.154  35.489   1.759
73744NA+    NA+46169  33.383   3.240  13.907
73745NA+    NA+46170  36.592  36.030   5.294
73746NA+    NA+46171  31.496  13.121  13.405
73747NA+    NA+46172  26.668  21.117   4.262
73748NA+    NA+46173  23.073  34.514   4.734
73749NA+    NA+46174  23.570  13.708   2.732
73750NA+    NA+46175   1.373  12.319  12.047
73751NA+    NA+46176  27.019  25.546   1.408
73752NA+    NA+46177  22.664  30.054   3.355
73753NA+    NA+46178   0.318  41.990  11.105
73754NA+    NA+46179  34.026   8.215   4.822
73755NA+    NA+46180   0.914   2.837   2.876
73756NA+    NA+46181  16.095  28.535   2.732
73757NA+    NA+46182  15.780  14.131  13.951
73758NA+    NA+46183  15.182   2.269   2.705
73759NA+    NA+46184  13.213   8.751  11.603
73760NA+    NA+46185  37.533  19.164   4.249
73761NA+    NA+46186   4.782  21.129   3.770
73762NA+    NA+46187  21.208   2.409  14.344
73763NA+    NA+46188   5.273   7.785   0.930
73764NA+    NA+46189   8.851  12.808  14.929
73765NA+    NA+46190  10.220   7.793   1.915
73766NA+    NA+46191  18.697  36.003  13.936
73767NA+    NA+46192  22.565   9.788  11.417
73768NA+    NA+46193  38.009  14.168   4.154
73769NA+    NA+46194  18.771  33.626   1.211
73770NA+    NA+46195  27.167  41.445   3.821
73771NA+    NA+46196  26.518  40.872  10.985
73772NA+    NA+46197  33.416  20.035   0.838
73773NA+    NA+46198  28.169   3.857  14.872
73774NA+    NA+46199  20.147  30.090   1.722
73775NA+    NA+46200   4.733  40.410   5.277
73776NA+    NA+46201   3.890  38.989  14.994
73777NA+    NA+46202  38.411  33.581   2.886
73778NA+    NA+46203  22.208   4.724  12.824
73779NA+    NA+46204  26.967   7.678  10.521
73780NA+    NA+46205  27.463  15.141  13.356
73781NA+    NA+46206  17.643  28.668  14.021
73782NA+    NA+46207  38.954  14.148  10.545
73783NA+    NA+46208  17.762   7.352   0.375
73784NA+    NA+46209  36.932  27.610   4.662
73785NA+    NA+46210   8.843  39.025   3.757
73786NA+    NA+46211  23.575  33.946   0.269
73787NA+    NA+46212  41.882   7.371   0.868
73788NA+    NA+46213  34.983  24.709   3.292
73789NA+    NA+46214  36.410  43.007  14.924
73790NA+    NA+46215   9.723  19.148   4.777
73791NA+    NA+46216  12.224  36.009   0.928
73792NA+    NA+46217   7.177  15.168  11.393
73793NA+    NA+46218   7.183  38.992  12.891
73794NA+    NA+46219  37.935   4.444   4.781
73795NA+    NA+46220  41.432  28.183   0.866
73796NA+    NA+46221  41.006  29.555   4.297
73797NA+    NA+46222  15.285  35.935   4.195
73798NA+    NA+46223  31.947  36.899   1.823
73799NA+    NA+46224  17.209  18.142   1.276
73800NA+    NA+46225  11.240  39.330  14.974
73801NA+    NA+46226  35.943   8.693   2.702
73802NA+    NA+46227   2.906  35.048  14.299
73803NA+    NA+46228  16.118  43.797  11.436
73804NA+    NA+46229  30.570  15.214  13.320
73805NA+    NA+46230   4.725  14.825   4.738
73806NA+    NA+46231  25.148   4.439   2.708
73807NA+    NA+46232  20.766  28.943   4.713
73808NA+    NA+46233  25.048   6.402   0.856
73809NA+    NA+46234  19.192  12.844   4.327
73810NA+    NA+46235  10.729   4.824  12.494
73811NA+    NA+46236   0.949   7.805   4.208
73812NA+    NA+46237  29.642  26.535  11.537
73813NA+    NA+46238  17.273  34.877  14.318
73814NA+    NA+46239   9.735  11.185   1.801
73815NA+    NA+46240  37.531  10.312   0.772
73816NA+    NA+46241  22.026  10.346  14.005
73817NA+    NA+46242  26.458  30.141   1.367
73818NA+    NA+46243  39.023  10.299  10.919
73819NA+    NA+46244  23.539  42.297  12.888
73820NA+    NA+46245   7.315  37.363   3.635
73821NA+    NA+46246   8.306  40.482   1.313
73822NA+    NA+46247  27.448  27.973   0.727
73823NA+    NA+46248  17.773   6.268   4.669
73824NA+    NA+46249  29.167   3.249  12.344
73825NA+    NA+46250  29.932   6.260   0.808
73826NA+    NA+46251  32.959  42.935  13.489
73827NA+    NA+46252  35.364  19.264   4.241
73828NA+    NA+46253   3.315  35.397   4.761
73829NA+    NA+46254  33.538  44.891  10.551
73830NA+    NA+46255   1.399  29.567  12.520
73831NA+    NA+46256  26.071  40.972   3.170
73832NA+    NA+46257  30.092   2.389   4.132
73833NA+    NA+46258   0.804   3.866   4.334
73834NA+    NA+46259  32.094   5.855  10.905
73835NA+    NA+46260  36.908  16.597   4.640
73836NA+    NA+46261  34.056  34.415  11.607
73837NA+    NA+46262  34.585  18.168   1.919
73838NA+    NA+46263   4.886  14.285   4.264
73839NA+    NA+46264  16.705  13.646  12.458
73840NA+    NA+46265   4.408   3.284   1.274
73841NA+    NA+46266  39.414  28.122  10.462
73842NA+    NA+46267  13.623  17.778   1.376
73843NA+    NA+46268  17.084  31.918   4.329
73844NA+    NA+46269  15.642  15.111   4.801
73845NA+    NA+46270   5.409  30.656  14.372
73846NA+    NA+46271   4.913  10.700   0.359
73847NA+    NA+46272  18.622  21.031   0.428
73848NA+    NA+46273  38.917  38.977   2.689
73849NA+    NA+46274  29.493  42.316  12.031
73850NA+    NA+46275  44.948  18.694  11.082
73851NA+    NA+46276  37.504   8.837  12.828
73852NA+    NA+46277  22.535  30.916  14.807
73853NA+    NA+46278  41.970  26.100  11.522
73854NA+    NA+46279  24.051  16.291  12.910
73855NA+    NA+46280  34.982  19.066  13.001
73856NA+    NA+46281  33.909  40.502   1.317
73857NA+    NA+46282  30.095  18.190   1.360
73858NA+    NA+46283  26.160  27.546   3.223
73859NA+    NA+46284  29.530  16.172  10.910
73860NA+    NA+46285  41.520  19.589   0.297
73861NA+    NA+46286  34.534  42.827  14.860
73862NA+    NA+46287  11.336  20.238   0.378
73863NA+    NA+46288  26.570   1.855  11.589
73864NA+    NA+46289  27.167   9.218  12.083
73865NA+    NA+46290  12.633   8.882  12.999
73866NA+    NA+46291  38.027  29.062  11.055
73867NA+    NA+46292  41.429  33.029   2.766
73868NA+    NA+46293   3.909  16.712  12.973
73869NA+    NA+46294  25.713  30.558   5.095
73870NA+    NA+46295  12.305   4.414   2.406
73871NA+    NA+46296  19.068  23.698  12.091
73872NA+    NA+46297  20.219  38.893  14.904
73873NA+    NA+46298   6.836  28.010  12.094
73874NA+    NA+46299  17.102  19.188  11.561
73875NA+    NA+46300   4.354  34.580  14.974
73876NA+    NA+46301  25.070  28.144  13.832
73877NA+    NA+46302  17.737  37.582  11.927
73878NA+    NA+46303  15.782  27.551   2.307
73879NA+    NA+46304  26.050   1.449   2.688
73880NA+    NA+46305   0.424   1.313   2.401
73881NA+    NA+46306  24.153  27.107   1.211
73882NA+    NA+46307  43.432  37.445   1.885
73883NA+    NA+46308  19.185  35.362   4.711
73884NA+    NA+46309  14.598  41.317  11.502
73885NA+    NA+46310  18.055   8.198  14.895
73886NA+    NA+46311  20.750  26.579  11.001
73887NA+    NA+46312  41.964  13.118  14.814
73888NA+    NA+46313  16.695  43.986  12.853
73889NA+    NA+46314  35.020  27.639  13.335
73890NA+    NA+46315  33.566  39.868  10.900
73891NA+    NA+46316  22.097  24.156   3.689
73892NA+    NA+46317  12.855  23.022   2.873
73893NA+    NA+46318  35.433  13.255  13.908
73894NA+    NA+46319  30.485  34.483   2.667
73895NA+    NA+46320  36.032  39.915   0.940
73896NA+    NA+46321  18.093   3.813   3.243
73897NA+    NA+46322  28.582   8.722   0.436
73898NA+    NA+46323  12.768   1.446  11.881
73899NA+    NA+46324  26.089  11.857  11.959
73900NA+    NA+46325  35.041  38.329  11.084
73901NA+    NA+46326  25.653  29.611  12.994
73902NA+    NA+46327  17.768  13.710   0.308
73903NA+    NA+46328  10.851  11.350   1.745
73904NA+    NA+46329  41.516   9.207  13.991
73905NA+    NA+46330  28.115  14.124  12.955
73906NA+    NA+46331  37.064  10.175  11.987
73907NA+    NA+46332  18.225  25.635  13.998
73908NA+    NA+46333  24.500  44.316  14.771
73909NA+    NA+46334  11.820  40.354   3.703
73910NA+    NA+46335  17.235  22.186  13.063
73911NA+    NA+46336  21.031  39.392   0.296
73912NA+    NA+46337   4.713  44.498  11.583
73913NA+    NA+46338  30.973  12.785  11.020
73914NA+    NA+46339  39.384  17.189   1.228
73915NA+    NA+46340  42.001  36.482   3.169
73916NA+    NA+46341  19.729  33.096  14.830
73917NA+    NA+46342  32.059  44.305   1.311
73918NA+    NA+46343  33.612  22.996  11.416
73919NA+    NA+46344  34.010  29.166   0.462
73920NA+    NA+46345  18.126  12.725  14.849
73921NA+    NA+46346  42.019   2.250  14.982
73922NA+    NA+46347  21.675  12.623  14.444
73923NA+    NA+46348  28.966  40.822  10.967
73924NA+    NA+46349  33.887   1.818  13.806
73925NA+    NA+46350  16.801  24.175  11.578
73926NA+    NA+46351  15.592  38.045  13.871
73927NA+    NA+46352   5.934  23.506  13.867
73928NA+    NA+46353  14.723  14.705  13.018
73929NA+    NA+46354  25.578  42.838  10.427
73930NA+    NA+46355  31.048  13.816   2.873
73931NA+    NA+46356   1.946  18.737   0.863
73932NA+    NA+46357  26.984  25.592  14.998
73933NA+    NA+46358  20.109  29.563   1.449
73934NA+    NA+46359  23.019  15.793   1.260
73935NA+    NA+46360   2.807  34.540   3.215
73936NA+    NA+46361  26.518  26.496   4.832
73937NA+    NA+46362  37.959  37.542   2.761
73938NA+    NA+46363  19.069  40.921   1.432
73939NA+    NA+46364  24.562   8.830   4.809
73940NA+    NA+46365   4.423  11.364  10.959
73941NA+    NA+46366  37.856  44.297  11.895
73942NA+    NA+46367  36.381  14.728  10.599
73943NA+    NA+46368   3.817  15.610   4.321
73944NA+    NA+46369  31.535  39.956  10.403
73945NA+    NA+46370   4.311  10.753   4.603
73946NA+    NA+46371  34.426  38.829  13.447
73947NA+    NA+46372  36.008   2.245   3.813
73948NA+    NA+46373  37.409  25.600  13.410
73949NA+    NA+46374  20.240   3.796   0.793
73950NA+    NA+46375  38.504  43.277  14.472
73951NA+    NA+46376   3.328  31.925  11.993
73952NA+    NA+46377  21.123  27.037  12.068
73953NA+    NA+46378  19.632  39.834  13.527
73954NA+    NA+46379  44.352  30.056  12.916
73955NA+    NA+46380  33.438  36.988   3.702
73956NA+    NA+46381  17.720  24.544  11.872
73957NA+    NA+46382  43.422  16.624   2.814
73958NA+    NA+46383  41.313  17.587  12.381
73959NA+    NA+46384  28.128   6.830  10.446
73960NA+    NA+46385  43.903  26.076  14.973
73961NA+    NA+46386  23.174  27.952   1.702
73962NA+    NA+46387  28.458   8.354  13.833
73963NA+    NA+46388  14.769  14.119   9.925
73964NA+    NA+46389  43.019  43.283  11.438
73965NA+    NA+46390  17.227  25.702   3.197
73966NA+    NA+46391  28.001  35.022  13.511
73967NA+    NA+46392  32.485  21.112   3.821
73968NA+    NA+46393  44.393  18.585   4.764
73969NA+    NA+46394  36.536  14.171  11.488
73970NA+    NA+46395  22.703  16.226  13.412
73971NA+    NA+46396  19.239  24.103  10.986
73972NA+    NA+46397   4.250  33.004   2.765
73973NA+    NA+46398  17.643  40.917  12.530
73974NA+    NA+46399  24.654  29.667  14.311
73975NA+    NA+46400   0.782   3.460  13.457
73976NA+    NA+46401  33.096   4.914   4.832
73977NA+    NA+46402  43.495  30.054  10.480
73978NA+    NA+46403  32.394   9.366   2.321
73979NA+    NA+46404  42.377  26.514   0.279
73980NA+    NA+46405   4.767  23.137   3.675
73981NA+    NA+46406  36.579  26.120  14.403
73982NA+    NA+46407  33.919  38.930   1.362
73983NA+    NA+46408  21.165   9.317  13.418
73984NA+    NA+46409  42.857  22.252  13.997
73985NA+    NA+46410  14.742  37.483  12.054
73986NA+    NA+46411  14.145  43.945   1.276
73987NA+    NA+46412   8.808  27.523   4.598
73988NA+    NA+46413  32.890   0.853   3.686
73989NA+    NA+46414  28.468  17.109  14.331
73990NA+    NA+46415  23.222  32.606   0.448
73991NA+    NA+46416  27.499  11.625  13.027
73992NA+    NA+46417   1.417  25.052   3.358
73993NA+    NA+46418   9.765  39.885   1.263
73994NA+    NA+46419  37.492   7.319  10.563
73995NA+    NA+46420  18.712   2.359   0.823
73996NA+    NA+46421  17.107  42.954   5.254
73997NA+    NA+46422   3.814   6.343   0.286
73998NA+    NA+46423  12.627  27.040   3.367
73999NA+    NA+46424  15.761  25.171   4.614
74000NA+    NA+46425  43.870  23.539  10.586
74001NA+    NA+46426  16.192  12.360   3.651
74002NA+    NA+46427  15.254  23.525  11.930
74003NA+    NA+46428   4.269  44.891  11.983
74004NA+    NA+46429  32.005  19.067  14.443
74005NA+    NA+46430   9.710  34.083   0.869
74006NA+    NA+46431   5.708   4.908   3.380
74007NA+    NA+46432   9.701  37.014   3.806
74008NA+    NA+46433  23.642   8.781   2.866
74009NA+    NA+46434  22.099  28.022   0.443
74010NA+    NA+46435  10.194  23.558   2.795
74011NA+    NA+46436  21.751   2.386  11.016
74012NA+    NA+46437  13.669  17.755  14.935
74013NA+    NA+46438  39.428  38.947   4.631
74014NA+    NA+46439   7.409   3.401  12.560
74015NA+    NA+46440  12.322   0.749   0.396
74016NA+    NA+46441   9.702  12.620  14.330
74017NA+    NA+46442  41.982  17.308   0.800
74018NA+    NA+46443   1.254  35.562  11.443
74019NA+    NA+46444   4.300  36.464  11.119
74020NA+    NA+46445   1.949  40.408   4.629
74021NA+    NA+46446  35.454  44.354  11.382
74022NA+    NA+46447  22.233  15.764   0.478
74023NA+    NA+46448  32.987   6.827  13.835
74024NA+    NA+46449   5.239  34.584  13.803
74025NA+    NA+46450   6.205   0.908   1.776
74026NA+    NA+46451   3.856   3.319   2.885
74027NA+    NA+46452   2.807  12.755  14.410
74028NA+    NA+46453   4.307  11.638   0.470
74029NA+    NA+46454  44.403   3.221  11.111
74030NA+    NA+46455  38.469  41.384  14.896
74031NA+    NA+46456  32.987  44.470  12.890
74032NA+    NA+46457  29.172   7.337   3.196
74033NA+    NA+46458  38.828  22.026   2.209
74034NA+    NA+46459   0.951   7.689   2.774
74035NA+    NA+46460  22.052  19.075   3.159
74036NA+    NA+46461  33.537  28.957  11.520
74037NA+    NA+46462   0.848  44.306  13.340
74038NA+    NA+46463  13.620   4.871   4.306
74039NA+    NA+46464  39.865  20.698  14.838
74040NA+    NA+46465   7.680  37.871   2.290
74041NA+    NA+46466  16.111   4.878  13.364
74042NA+    NA+46467  18.264   1.927   2.854
74043NA+    NA+46468  43.993  27.090  10.454
74044NA+    NA+46469  41.985  27.519   4.826
74045NA+    NA+46470  33.890  36.907   0.845
74046NA+    NA+46471  28.170  22.171   1.851
74047NA+    NA+46472  37.553  19.203   0.320
74048NA+    NA+46473  36.553  35.877  13.875
74049NA+    NA+46474  43.833  29.653   1.428
74050NA+    NA+46475  42.858  10.849  13.996
74051NA+    NA+46476  13.606  35.399  12.884
74052NA+    NA+46477  43.975  17.140  14.808
74053NA+    NA+46478  34.436  38.074  14.920
74054NA+    NA+46479   2.356  28.624   3.371
74055NA+    NA+46480   2.939  27.037   0.858
74056NA+    NA+46481  33.416  18.601  12.554
74057NA+    NA+46482   0.812  33.575   1.710
74058NA+    NA+46483   3.717  41.424  14.950
74059NA+    NA+46484  10.163   8.665  12.457
74060NA+    NA+46485   9.296  38.867  10.474
74061NA+    NA+46486   9.352   1.774   0.893
74062NA+    NA+46487  24.205  10.794   1.721
74063NA+    NA+46488  19.058  23.673   2.878
74064NA+    NA+46489   1.407  22.728   1.405
74065NA+    NA+46490   6.815  44.371   3.228
74066NA+    NA+46491  35.563  32.471   1.782
74067NA+    NA+46492  18.118  43.901   0.736
74068NA+    NA+46493   5.296  21.577   4.743
74069NA+    NA+46494  31.494  41.447  12.470
74070NA+    NA+46495  19.690  33.043  14.421
74071NA+    NA+46496   1.289  22.133   3.705
74072NA+    NA+46497  34.382  26.528  11.564
74073NA+    NA+46498  38.513  41.943  11.573
74074NA+    NA+46499  26.613  17.090   1.918
74075NA+    NA+46500  10.823  39.898  11.061
74076NA+    NA+46501   0.887  20.578   2.257
74077NA+    NA+46502  12.724  20.766  12.386
74078NA+    NA+46503  22.740  23.099   3.195
74079NA+    NA+46504  36.421  10.790   0.831
74080NA+    NA+46505  22.668   2.335  10.992
74081NA+    NA+46506  31.970   7.690   5.153
74082NA+    NA+46507   6.741  43.013   3.325
74083NA+    NA+46508   8.731  42.021   4.296
74084NA+    NA+46509  24.192   3.215  13.943
74085NA+    NA+46510  28.444  23.225   0.451
74086NA+    NA+46511   3.292  31.634   2.835
74087NA+    NA+46512  14.198  42.478  13.537
74088NA+    NA+46513   9.776  40.475   1.927
74089NA+    NA+46514   2.350  26.191   3.683
74090NA+    NA+46515   8.678   4.865   1.300
74091NA+    NA+46516  11.685  38.864  11.474
74092NA+    NA+46517  44.821  26.701  13.324
74093NA+    NA+46518  23.161  27.082  13.493
74094NA+    NA+46519  11.690  40.035   4.661
74095NA+    NA+46520  19.718  42.990   0.451
74096NA+    NA+46521  12.151  22.731  14.851
74097NA+    NA+46522   4.328  32.576   2.299
74098NA+    NA+46523  32.912  13.739   4.836
74099NA+    NA+46524  27.146   5.361   2.301
74100NA+    NA+46525  14.660  34.396  14.979
74101NA+    NA+46526  28.559   8.350   1.752
74102NA+    NA+46527  11.185  18.548   4.134
74103NA+    NA+46528   3.314  36.435   1.271
74104NA+    NA+46529  43.496   6.277  14.878
74105NA+    NA+46530  29.469  12.275  12.378
74106NA+    NA+46531  25.598  26.693  13.491
74107NA+    NA+46532   9.859  44.260  10.959
74108NA+    NA+46533  44.467  29.442  11.106
74109NA+    NA+46534  35.478   5.815  13.995
74110NA+    NA+46535  38.842   5.289   2.743
74111NA+    NA+46536   5.853   5.330   2.871
74112NA+    NA+46537  44.904  44.871  12.014
74113NA+    NA+46538  35.541  39.945  12.077
74114NA+    NA+46539  16.768  21.177  11.874
74115NA+    NA+46540  30.539  14.101   5.136
74116NA+    NA+46541  14.129  33.491   0.847
74117NA+    NA+46542   8.767   9.745   3.843
74118NA+    NA+46543  15.193  14.298   1.866
74119NA+    NA+46544  30.135   2.243  12.960
74120NA+    NA+46545  41.415  33.456   1.379
74121NA+    NA+46546   3.767  29.990   1.346
74122NA+    NA+46547  32.619  17.120   2.387
74123NA+    NA+46548   4.933   9.354  10.969
74124NA+    NA+46549  36.909  36.006  14.412
74125NA+    NA+46550  19.177  39.954   0.788
74126NA+    NA+46551  28.642  40.027  14.280
74127NA+    NA+46552  41.856  26.612   2.286
74128NA+    NA+46553  27.487  31.027  14.833
74129NA+    NA+46554   9.795  18.099  13.904
74130NA+    NA+46555  29.054  21.519   9.568
74131NA+    NA+46556  41.874  12.748  14.972
74132NA+    NA+46557  42.924  25.979   0.263
74133NA+    NA+46558  43.474  29.073   3.704
74134NA+    NA+46559  10.227  39.359   0.732
74135NA+    NA+46560   4.884  32.430   2.795
74136NA+    NA+46561   0.277  27.099   4.676
74137NA+    NA+46562   6.202  22.631   4.789
74138NA+    NA+46563   8.817   3.272  10.496
74139NA+    NA+46564   6.759  22.609  10.625
74140NA+    NA+46565  21.587  12.286   4.817
74141NA+    NA+46566  26.031  17.589   0.422
74142NA+    NA+46567   1.475  42.776   0.889
74143NA+    NA+46568  34.926  37.983   2.816
74144NA+    NA+46569   3.231  23.226  10.637
74145NA+    NA+46570  27.091  33.002  13.948
74146NA+    NA+46571  23.731  44.371  13.020
74147NA+    NA+46572  17.266  22.143  12.388
74148NA+    NA+46573  10.640  42.328   1.733
74149NA+    NA+46574  40.325  10.297  13.915
74150NA+    NA+46575  33.996  33.520  12.870
74151NA+    NA+46576  20.617   4.703  11.593
74152NA+    NA+46577   1.306  29.101  10.457
74153NA+    NA+46578   7.366  12.299   1.840
74154NA+    NA+46579  17.219   5.807   0.390
74155NA+    NA+46580  24.203  17.610  14.850
74156NA+    NA+46581  17.791  36.522   0.815
74157NA+    NA+46582  14.605  14.646   3.305
74158NA+    NA+46583  28.647   9.819   4.733
74159NA+    NA+46584  26.132  35.050   0.861
74160NA+    NA+46585  39.329  17.151   0.410
74161NA+    NA+46586  30.950  40.906  11.022
74162NA+    NA+46587   8.375   5.705  11.435
74163NA+    NA+46588  40.852  43.999  11.944
74164NA+    NA+46589  25.072  36.965  12.854
74165NA+    NA+46590  18.159  19.252   0.452
74166NA+    NA+46591  15.714   9.722   3.342
74167NA+    NA+46592  23.498  21.067  12.514
74168NA+    NA+46593  26.086  33.579   4.212
74169NA+    NA+46594  20.070  40.864   0.815
74170NA+    NA+46595  17.285  13.664  12.968
74171NA+    NA+46596  22.716  32.030   2.219
74172NA+    NA+46597  14.805  30.510   4.602
74173NA+    NA+46598   8.747  35.952  14.434
74174NA+    NA+46599  25.688  12.694  11.462
74175NA+    NA+46600   8.271  10.879  11.980
74176NA+    NA+46601  15.251  27.144  10.512
74177NA+    NA+46602  14.599  43.426   2.374
74178NA+    NA+46603  38.019   6.834  13.316
74179NA+    NA+46604  20.619  23.503  12.057
74180NA+    NA+46605  44.360  28.171  13.544
74181NA+    NA+46606  20.701  33.538   1.319
74182NA+    NA+46607  14.765  43.390  13.406
74183NA+    NA+46608  33.536  30.061   2.673
74184NA+    NA+46609  10.633   4.939  11.437
74185NA+    NA+46610   3.848  44.864  11.488
74186NA+    NA+46611  27.184  39.462   2.884
74187NA+    NA+46612   6.358  19.105   0.459
74188NA+    NA+46613  24.058  37.889  11.458
74189NA+    NA+46614  35.049   4.846   0.266
74190NA+    NA+46615   8.224  16.079  10.976
74191NA+    NA+46616  23.133  22.519   1.872
74192NA+    NA+46617  24.479   1.261  14.360
74193NA+    NA+46618  21.220   1.876   4.796
74194NA+    NA+46619   3.949  18.711   4.792
74195NA+    NA+46620  17.669  35.601   1.784
74196NA+    NA+46621  10.762  29.140  11.382
74197NA+    NA+46622  39.498  41.939   2.309
74198NA+    NA+46623  10.831   5.248   4.727
74199NA+    NA+46624  34.508  17.733   0.426
74200NA+    NA+46625  11.368  23.529   4.612
74201NA+    NA+46626  44.417  33.001  12.368
74202NA+    NA+46627  16.316  16.096   0.731
74203NA+    NA+46628   8.845  39.884   1.382
74204NA+    NA+46629  29.088   5.282   3.692
74205NA+    NA+46630   1.976   9.316   4.281
74206NA+    NA+46631  31.002  44.977  13.512
74207NA+    NA+46632   3.282  33.493  11.046
74208NA+    NA+46633  35.373  35.424   0.321
74209NA+    NA+46634   1.814  23.037   4.338
74210NA+    NA+46635   3.246  14.195   1.834
74211NA+    NA+46636  16.184   5.920   4.655
74212NA+    NA+46637   9.205  25.513   1.806
74213NA+    NA+46638  22.013   2.766  11.448
74214NA+    NA+46639  17.758  18.671   0.337
74215NA+    NA+46640   2.446  27.452   2.739
74216NA+    NA+46641  44.387   6.839   0.250
74217NA+    NA+46642  11.229  34.485   4.749
74218NA+    NA+46643   4.921  18.553  14.431
74219NA+    NA+46644  42.926  40.531  12.511
74220NA+    NA+46645  23.577  15.147   0.382
74221NA+    NA+46646  17.714  44.809   0.340
74222NA+    NA+46647  32.498  31.525  14.859
74223NA+    NA+46648  19.759   6.312  12.090
74224NA+    NA+46649   9.330  34.410   4.325
74225NA+    NA+46650   9.268  29.581  10.945
74226NA+    NA+46651  35.053  42.027   4.126
74227NA+    NA+46652  10.657  19.057  11.490
74228NA+    NA+46653  13.777  16.281  14.833
74229NA+    NA+46654  30.634  20.112   3.199
74230NA+    NA+46655  19.039  39.489  14.468
74231NA+    NA+46656  21.219  14.129   0.877
74232NA+    NA+46657   1.241  11.867   3.331
74233NA+    NA+46658  16.181   2.377  10.448
74234NA+    NA+46659  40.425  18.732  11.882
74235NA+    NA+46660  28.680  15.227   3.326
74236NA+    NA+46661  10.216  15.694   0.824
74237NA+    NA+46662  25.197  43.513   3.821
74238NA+    NA+46663  28.969  23.046  12.471
74239NA+    NA+46664   8.768  12.678   1.428
74240NA+    NA+46665  33.890  44.876  14.947
74241NA+    NA+46666   9.874  13.763   1.410
74242NA+    NA+46667   8.710  20.069  12.967
74243NA+    NA+46668   0.408  44.010   1.930
74244NA+    NA+46669  28.993  21.135   4.323
74245NA+    NA+46670  20.148   1.295  13.796
74246NA+    NA+46671  33.603  11.746  14.508
74247NA+    NA+46672  23.697  36.408   4.659
74248NA+    NA+46673  37.459  35.443  10.613
74249NA+    NA+46674   7.696  36.559  11.867
74250NA+    NA+46675  11.128  33.404  11.514
74251NA+    NA+46676  36.447  38.846   4.795
74252NA+    NA+46677  43.003  24.025   1.298
74253NA+    NA+46678  26.605  26.998  11.950
74254NA+    NA+46679  12.791  36.933  10.544
74255NA+    NA+46680  31.010  40.014  12.408
74256NA+    NA+46681   1.369   9.156   3.169
74257NA+    NA+46682  30.088  19.212   2.712
74258NA+    NA+46683  19.708  44.328   1.363
74259NA+    NA+46684  27.645   2.960  13.332
74260NA+    NA+46685   4.924  38.996  12.488
74261NA+    NA+46686  11.190  40.381   1.323
74262NA+    NA+46687  24.698  44.804  12.412
74263NA+    NA+46688  18.254   4.337   2.680
74264NA+    NA+46689  34.369   7.230  14.971
74265NA+    NA+46690  14.590  43.904   0.476
74266NA+    NA+46691  32.999  30.162   2.350
74267NA+    NA+46692  39.852  37.870   2.314
74268NA+    NA+46693   7.685  24.516   0.752
74269NA+    NA+46694  41.015  29.014  13.818
74270NA+    NA+46695  25.020  30.992  12.498
74271NA+    NA+46696   3.793   9.264   3.866
74272NA+    NA+46697  39.007  36.522  12.091
74273NA+    NA+46698   8.172  22.558   3.727
74274NA+    NA+46699  16.242  39.488   3.764
74275NA+    NA+46700  38.922  32.899  11.489
74276NA+    NA+46701  37.926  14.663  13.441
74277NA+    NA+46702  14.625   1.386   9.645
74278NA+    NA+46703  14.216  22.511  13.922
74279NA+    NA+46704  29.981  24.132  10.604
74280NA+    NA+46705   4.357  12.722  14.885
74281NA+    NA+46706  42.371  14.193   1.921
74282NA+    NA+46707   2.349   0.919   2.846
74283NA+    NA+46708  20.675  32.919  13.807
74284NA+    NA+46709  39.425  13.651   3.865
74285NA+    NA+46710  20.106  42.390   2.881
74286NA+    NA+46711  17.186  21.534   0.845
74287NA+    NA+46712  13.187  43.316   1.733
74288NA+    NA+46713   2.770   2.739  14.832
74289NA+    NA+46714  42.898   0.294  13.963
74290NA+    NA+46715   2.251   1.891  11.604
74291NA+    NA+46716  25.115  34.480  11.947
74292NA+    NA+46717  38.332   5.737   4.279
74293NA+    NA+46718  28.508   7.747  10.607
74294NA+    NA+46719   4.294  41.870  14.792
74295NA+    NA+46720  27.466  24.002  11.591
74296NA+    NA+46721  23.559  32.987  10.503
74297NA+    NA+46722  12.753  12.805   4.248
74298NA+    NA+46723  22.631  14.786   1.779
74299NA+    NA+46724  23.127  19.626  13.535
74300NA+    NA+46725  20.558  28.625   3.162
74301NA+    NA+46726  43.012  10.385  10.924
74302NA+    NA+46727  29.001  19.167   4.827
74303NA+    NA+46728  33.948  10.844   0.471
74304NA+    NA+46729  24.672   6.294  14.491
74305NA+    NA+46730   1.403   7.895   4.599
74306NA+    NA+46731   8.790  11.279   1.384
74307NA+    NA+46732  43.461  21.554  14.951
74308NA+    NA+46733  10.348  32.440   2.341
74309NA+    NA+46734   1.776  21.179   1.334
74310NA+    NA+46735   1.842  13.614   4.804
74311NA+    NA+46736   7.219  30.467  12.536
74312NA+    NA+46737  35.004  32.002  10.148
74313NA+    NA+46738  11.765  19.202  14.340
74314NA+    NA+46739  13.757   4.255  11.953
74315NA+    NA+46740   8.254  26.629  13.528
74316NA+    NA+46741  29.436  23.653   5.565
74317NA+    NA+46742   5.206  39.475   4.639
74318NA+    NA+46743  40.498  36.358   3.363
74319NA+    NA+46744  37.398  12.622   3.188
74320NA+    NA+46745  31.546  35.468   4.178
74321NA+    NA+46746  13.185  29.056   2.250
74322NA+    NA+46747  28.961  44.411   3.376
74323NA+    NA+46748  25.599   0.946  12.940
74324NA+    NA+46749  41.398   4.262  14.925
74325NA+    NA+46750   6.880  25.174   4.150
74326NA+    NA+46751  38.831   9.846   1.427
74327NA+    NA+46752  36.406  29.563   1.353
74328NA+    NA+46753  41.846  27.496  12.502
74329NA+    NA+46754   0.984  37.035   0.788
74330NA+    NA+46755  31.622  14.596   3.825
74331NA+    NA+46756  28.576   4.811  13.403
74332NA+    NA+46757  33.400  35.974   0.873
74333NA+    NA+46758  36.932   6.249   2.234
74334NA+    NA+46759  14.296  18.245   2.830
74335NA+    NA+46760  42.025  31.061   1.839
74336NA+    NA+46761   0.342  30.936   5.637
74337NA+    NA+46762  26.464   8.268  14.288
74338NA+    NA+46763  17.696  20.151   3.736
74339NA+    NA+46764  16.140  21.054  11.081
74340NA+    NA+46765  30.637   5.821  13.401
74341NA+    NA+46766  28.145  10.263   0.898
74342NA+    NA+46767  14.825  22.700  14.389
74343NA+    NA+46768  15.672  24.180   0.938
74344NA+    NA+46769  36.541  24.217  14.786
74345NA+    NA+46770  13.129  31.442   3.323
74346NA+    NA+46771  29.951  38.394   5.138
74347NA+    NA+46772  37.388  33.414  10.629
74348NA+    NA+46773   2.941  27.690  14.392
74349NA+    NA+46774  17.176  44.953   1.217
74350NA+    NA+46775  11.791  32.558   0.863
74351NA+    NA+46776   9.849  41.401  13.341
74352NA+    NA+46777  39.965  30.588   0.249
74353NA+    NA+46778  19.627  20.141  13.314
74354NA+    NA+46779  37.892  13.791  12.865
74355NA+    NA+46780  26.172   7.671  13.413
74356NA+    NA+46781  21.180   9.659  12.016
74357NA+    NA+46782  20.527  39.851   3.234
74358NA+    NA+46783  20.751  37.864   3.258
74359NA+    NA+46784  33.118   7.879  12.941
74360NA+    NA+46785  28.082  42.453   3.682
74361NA+    NA+46786  31.458   8.354   0.931
74362NA+    NA+46787   1.966  14.240  13.374
74363NA+    NA+46788  13.174  37.986   0.815
74364NA+    NA+46789   9.199   1.307  14.407
74365NA+    NA+46790  37.516  14.250  12.554
74366NA+    NA+46791  33.544  36.563   4.690
74367NA+    NA+46792   4.225  31.975   3.336
74368NA+    NA+46793  39.465  43.815  12.854
74369NA+    NA+46794  13.785  22.055   9.547
74370NA+    NA+46795  36.061  13.128   4.213
74371NA+    NA+46796   2.958  14.787   0.820
74372NA+    NA+46797  43.851   4.939  13.798
74373NA+    NA+46798  42.853   9.816  14.489
74374NA+    NA+46799  10.768  18.070  11.574
74375NA+    NA+46800   1.421  30.005   2.836
74376NA+    NA+46801  25.687  36.404   3.182
74377NA+    NA+46802  43.804  34.539  13.510
74378NA+    NA+46803  40.815  17.698   4.715
74379NA+    NA+46804  20.573  22.694  14.319
74380NA+    NA+46805  19.219   7.801  14.797
74381NA+    NA+46806  26.014  29.167  14.328
74382NA+    NA+46807   7.690  40.967   3.690
74383NA+    NA+46808   7.209  32.033  14.946
74384NA+    NA+46809  24.048  26.677   5.254
74385NA+    NA+46810  11.303  42.440   1.251
74386NA+    NA+46811  16.725  23.724  12.974
74387NA+    NA+46812   8.857   7.389  13.394
74388NA+    NA+46813  25.617   8.404  13.488
74389NA+    NA+46814  13.826  12.234   4.726
74390NA+    NA+46815  44.906   7.782  11.921
74391NA+    NA+46816  10.650  23.068  14.405
74392NA+    NA+46817  42.831  34.973  13.468
74393NA+    NA+46818  33.934  35.980   4.351
74394NA+    NA+46819  35.084   6.218   2.718
74395NA+    NA+46820  38.002  38.917  12.040
74396NA+    NA+46821  29.630  21.698   1.821
74397NA+    NA+46822  16.201  34.370   0.735
74398NA+    NA+46823  23.500  28.495  12.576
74399NA+    NA+46824  43.807  16.111  10.612
74400NA+    NA+46825   6.891  17.731   0.452
74401NA+    NA+46826  29.163  15.781  10.631
74402NA+    NA+46827   0.313   9.250   2.732
74403NA+    NA+46828  38.375  42.510  12.827
74404NA+    NA+46829   8.195  28.003   0.920
74405NA+    NA+46830  35.448   9.260   1.385
74406NA+    NA+46831  25.001  26.081  10.930
74407NA+    NA+46832  25.175   7.822  14.339
74408NA+    NA+46833  16.706   2.770   2.207
74409NA+    NA+46834  12.644  44.422  13.515
74410NA+    NA+46835  38.497  31.600   4.349
74411NA+    NA+46836   1.268  35.024   4.253
74412NA+    NA+46837  30.946  21.703  11.419
74413NA+    NA+46838  27.133  29.670  13.012
74414NA+    NA+46839  26.577  37.928   5.133
74415NA+    NA+46840  17.177  37.444  11.524
74416NA+    NA+46841   2.806  40.542   3.295
74417NA+    NA+46842  24.067  11.756  10.511
74418NA+    NA+46843   5.908  42.460  10.449
74419NA+    NA+46844  40.981  42.809  13.902
74420NA+    NA+46845  24.072  42.946  14.318
74421NA+    NA+46846  18.569  35.861  11.430
74422NA+    NA+46847  28.580   7.415  12.349
74423NA+    NA+46848  12.123  33.007  14.515
74424NA+    NA+46849   5.797   6.844  14.886
74425NA+    NA+46850  16.766   4.853   4.160
74426NA+    NA+46851  40.370  23.604  11.009
74427NA+    NA+46852   6.875  20.759   2.744
74428NA+    NA+46853  42.515  30.944  11.502
74429NA+    NA+46854  15.274  22.164   2.276
74430NA+    NA+46855  12.129  13.280  13.907
74431NA+    NA+46856  32.048   5.729  13.454
74432NA+    NA+46857  27.185  25.182  11.922
74433NA+    NA+46858  24.669  22.059   4.306
74434NA+    NA+46859   1.881  43.284  14.424
74435NA+    NA+46860  38.557  17.139  10.595
74436NA+    NA+46861  34.038  19.688  14.792
74437NA+    NA+46862  13.168  21.239  13.885
74438NA+    NA+46863  10.671  27.673   2.692
74439NA+    NA+46864  12.156  31.014  10.608
74440NA+    NA+46865  40.930  34.001   4.697
74441NA+    NA+46866   6.359   9.664  14.015
74442NA+    NA+46867  29.623  29.462   0.869
74443NA+    NA+46868  16.278  37.510  10.948
74444NA+    NA+46869  44.345   4.414   3.221
74445NA+    NA+46870  11.625  22.574   4.719
74446NA+    NA+46871  20.191  10.299   1.817
74447NA+    NA+46872  18.618  33.037   2.785
74448NA+    NA+46873   2.274  36.402   2.690
74449NA+    NA+46874  31.502  23.117  12.096
74450NA+    NA+46875  42.436  33.008  12.010
74451NA+    NA+46876   2.255  24.661  10.529
74452NA+    NA+46877  19.080  39.817  13.503
74453NA+    NA+46878   1.843  28.482   1.789
74454NA+    NA+46879  41.025  13.607  14.442
74455NA+    NA+46880  23.717  31.624  11.115
74456NA+    NA+46881  18.694  37.342   2.776
74457NA+    NA+46882  16.667  13.284   2.287
74458NA+    NA+46883  39.891  11.366   1.766
74459NA+    NA+46884  34.078  19.632  13.415
74460NA+    NA+46885  43.814   7.781  13.017
74461NA+    NA+46886   2.827  16.275   1.403
74462NA+    NA+46887   3.827  35.103   3.732
74463NA+    NA+46888  14.818  19.537   4.649
74464NA+    NA+46889  43.945  30.488  14.325
74465NA+    NA+46890  27.109  33.061   0.924
74466NA+    NA+46891  41.464   8.281  11.947
74467NA+    NA+46892  32.051  19.625   0.908
74468NA+    NA+46893  10.811  17.702  14.937
74469NA+    NA+46894   2.961  24.172   1.409
74470NA+    NA+46895  40.340  28.068   2.871
74471NA+    NA+46896  20.707   9.749  12.974
74472NA+    NA+46897  40.811  31.066   3.293
74473NA+    NA+46898  22.174   5.431   3.335
74474NA+    NA+46899  19.227  11.738  12.088
74475NA+    NA+46900  37.967  42.342  10.620
74476NA+    NA+46901  13.263  34.047   4.695
74477NA+    NA+46902  24.170  11.367  14.467
74478NA+    NA+46903  23.609  36.513  13.503
74479NA+    NA+46904   6.764  40.346  14.314
74480NA+    NA+46905  34.007  17.620   0.283
74481NA+    NA+46906  43.501  44.355   4.219
74482NA+    NA+46907   7.701  34.882   1.755
74483NA+    NA+46908  36.893  19.639  14.468
74484NA+    NA+46909  22.691  23.536   1.930
74485NA+    NA+46910  35.926  13.322  12.477
74486NA+    NA+46911  30.646  27.014   0.800
74487NA+    NA+46912  25.034  40.912  14.006
74488NA+    NA+46913  44.826  39.436   3.684
74489NA+    NA+46914  12.842   1.966   2.671
74490NA+    NA+46915  19.242   8.249  13.829
74491NA+    NA+46916  16.251  26.689  11.881
74492NA+    NA+46917   5.220  40.316  12.086
74493NA+    NA+46918  35.860   1.906  14.812
74494NA+    NA+46919  40.900  27.179   4.192
74495NA+    NA+46920  32.449  34.384  13.053
74496NA+    NA+46921  17.067   1.900   1.855
74497NA+    NA+46922  11.849  41.515  12.830
74498NA+    NA+46923  15.604   6.678   2.206
74499NA+    NA+46924  10.693  37.392  12.001
74500NA+    NA+46925  22.199  22.108   4.315
74501NA+    NA+46926  20.665   0.968   1.269
74502NA+    NA+46927  10.184  24.560   0.900
74503NA+    NA+46928  15.722   1.459  13.339
74504NA+    NA+46929  14.808   1.823  14.892
74505NA+    NA+46930  13.754   7.179  12.376
74506NA+    NA+46931   9.325  41.034  14.293
74507NA+    NA+46932  32.917   3.305   0.925
74508NA+    NA+46933  38.524  18.779   1.242
74509NA+    NA+46934  28.561  32.540   0.926
74510NA+    NA+46935   5.792  11.218   3.653
74511NA+    NA+46936  40.462  23.581  13.847
74512NA+    NA+46937  43.952   6.360  14.953
74513NA+    NA+46938  29.633  19.112   3.650
74514NA+    NA+46939  24.521  31.105  11.437
74515NA+    NA+46940  29.481  40.350  11.081
74516NA+    NA+46941  34.524  36.941  11.538
74517NA+    NA+46942  35.474  29.111  14.314
74518NA+    NA+46943   9.833  15.315   2.734
74519NA+    NA+46944  20.743  24.648   3.700
74520NA+    NA+46945  38.395  40.312   4.819
74521NA+    NA+46946  11.769  20.171   3.364
74522NA+    NA+46947   9.711   1.822   4.653
74523NA+    NA+46948  35.085  19.178  12.484
74524NA+    NA+46949  22.134  17.179  13.425
74525NA+    NA+46950  26.542   7.329   1.267
74526NA+    NA+46951  35.870  23.681  11.878
74527NA+    NA+46952  24.596  36.919   4.732
74528NA+    NA+46953  20.111  15.171   0.391
74529NA+    NA+46954  25.506  30.157   5.578
74530NA+    NA+46955  12.776  40.527   3.780
74531NA+    NA+46956  11.320  11.624  11.392
74532NA+    NA+46957  27.161  20.651  11.879
74533NA+    NA+46958   1.407  41.996  13.850
74534NA+    NA+46959  16.643  32.447  12.956
74535NA+    NA+46960  41.814  21.647  11.604
74536NA+    NA+46961  24.626  31.980   9.640
74537NA+    NA+46962  37.015  14.332  11.023
74538NA+    NA+46963  18.145  14.652   2.184
74539NA+    NA+46964  34.934  38.983  12.498
74540NA+    NA+46965  26.105   9.810   0.390
74541NA+    NA+46966   2.295  34.394   0.338
74542CL-    CL-46967   6.920  22.574  11.400
74543CL-    CL-46968  15.733  44.269   1.902
74544CL-    CL-46969  39.821  28.620  13.384
74545CL-    CL-46970   3.853  17.272   1.424
74546CL-    CL-46971  31.550  18.080  13.480
74547CL-    CL-46972  23.623  13.232   2.703
74548CL-    CL-46973  44.957   7.369  11.960
74549CL-    CL-46974  24.120  19.084   0.821
74550CL-    CL-46975  28.599  21.096  14.289
74551CL-    CL-46976   4.782  32.473  11.883
74552CL-    CL-46977  30.957  38.044  13.963
74553CL-    CL-46978  29.489   7.283   9.976
74554CL-    CL-46979  12.271  41.913   2.732
74555CL-    CL-46980  10.224   0.467  12.073
74556CL-    CL-46981  28.158  34.564   2.720
74557CL-    CL-46982  31.114  17.124   4.698
74558CL-    CL-46983  10.372  15.096  12.070
74559CL-    CL-46984  22.633  10.636   0.284
74560CL-    CL-46985  29.108  33.015   3.217
74561CL-    CL-46986  18.157   8.290  13.405
74562CL-    CL-46987  41.511  20.756  14.470
74563CL-    CL-46988  31.427  35.925  12.933
74564CL-    CL-46989  24.608  11.709  12.017
74565CL-    CL-46990  29.126  19.767   3.369
74566CL-    CL-46991  44.490  36.399   4.695
74567CL-    CL-46992  31.416  34.595   3.384
74568CL-    CL-46993  21.038   5.832   3.677
74569CL-    CL-46994   8.689  10.353   0.919
74570CL-    CL-46995  18.068  32.107   2.356
74571CL-    CL-46996  10.797  36.397   3.755
74572CL-    CL-46997  21.660   5.828  10.513
74573CL-    CL-46998   2.733  30.984   2.269
74574CL-    CL-46999   8.326  35.394   3.741
74575CL-    CL-47000  20.547  23.641  14.356
74576CL-    CL-47001  30.018  16.587   2.851
74577CL-    CL-47002   5.427   1.456   3.712
74578CL-    CL-47003  27.685   4.285  14.943
74579CL-    CL-47004  23.672  17.181   1.263
74580CL-    CL-47005  30.419  32.124   0.245
74581CL-    CL-47006  10.823  36.843  13.362
74582CL-    CL-47007  29.002  31.967   0.468
74583CL-    CL-47008  40.951  29.937  13.542
74584CL-    CL-47009   8.897  39.941  14.950
74585CL-    CL-47010  36.913  17.634  14.459
74586CL-    CL-47011  28.102   2.346  12.068
74587CL-    CL-47012  10.762  22.203  12.417
74588CL-    CL-47013  35.975  38.911   0.874
74589CL-    CL-47014   1.469  15.211  12.443
74590CL-    CL-47015  32.604  42.299  11.544
74591CL-    CL-47016  14.777  27.652  10.629
74592CL-    CL-47017  29.127  37.349  13.830
74593CL-    CL-47018   4.717  38.478  10.091
74594CL-    CL-47019   0.401   5.819  12.954
74595CL-    CL-47020   5.825  27.635   2.880
74596CL-    CL-47021  21.534  38.847   2.767
74597CL-    CL-47022  37.070  15.794   3.681
74598CL-    CL-47023   7.368  17.061  14.764
74599CL-    CL-47024   9.739   2.901  13.364
74600CL-    CL-47025   4.306   8.293   3.386
74601CL-    CL-47026  40.823  32.582  14.323
74602CL-    CL-47027   1.449  40.898  10.493
74603CL-    CL-47028  43.803  33.557   4.277
74604CL-    CL-47029  13.275  26.042  14.464
74605CL-    CL-47030  44.264  17.626   4.117
74606CL-    CL-47031  26.960  35.484  14.802
74607CL-    CL-47032   8.846  11.206  13.471
74608CL-    CL-47033  28.140  37.504  12.383
74609CL-    CL-47034  12.837  22.516   3.663
74610CL-    CL-47035  32.440   9.790   3.276
74611CL-    CL-47036  38.059   2.265   0.771
74612CL-    CL-47037  10.851  32.100   3.700
74613CL-    CL-47038   2.286  15.140  14.358
74614CL-    CL-47039   1.872  37.879   0.322
74615CL-    CL-47040   1.815  44.348  12.936
74616CL-    CL-47041  42.357  27.068  12.340
74617CL-    CL-47042  40.398   9.168  11.491
74618CL-    CL-47043  18.565  37.958  14.817
74619CL-    CL-47044   0.947   7.299   2.309
74620CL-    CL-47045  32.531  23.555  11.009
74621CL-    CL-47046  26.989  15.247  14.428
74622CL-    CL-47047  42.385   6.752   3.265
74623CL-    CL-47048  38.447  10.798   0.804
74624CL-    CL-47049  20.043  22.665   0.483
74625CL-    CL-47050  15.105   6.322   1.737
74626CL-    CL-47051   8.837  11.857  10.943
74627CL-    CL-47052  36.494  36.430   2.804
74628CL-    CL-47053   8.706  23.665   9.940
74629CL-    CL-47054   4.833  41.043  13.046
74630CL-    CL-47055  26.983  11.838   2.222
74631CL-    CL-47056  16.218  13.758   2.849
74632CL-    CL-47057  37.543  33.921  13.971
74633CL-    CL-47058   4.791   4.302   3.367
74634CL-    CL-47059  12.776  41.386  12.065
74635CL-    CL-47060  28.605  20.036   2.189
74636CL-    CL-47061   4.404   6.909   4.234
74637CL-    CL-47062  29.947   4.709   2.800
74638CL-    CL-47063  25.481  11.261  10.626
74639CL-    CL-47064  18.544  13.306  14.002
74640CL-    CL-47065  34.444  12.834  12.537
74641CL-    CL-47066  21.684  10.798   3.368
74642CL-    CL-47067  14.702  14.259   0.739
74643CL-    CL-47068  34.528  25.037  12.569
74644CL-    CL-47069   9.177   0.259   3.793
74645CL-    CL-47070   0.275  44.909   2.737
74646CL-    CL-47071  21.552  37.446  13.056
74647CL-    CL-47072   8.792  28.164  11.903
74648CL-    CL-47073  38.372   4.400  14.948
74649CL-    CL-47074  31.946  39.325   3.344
74650CL-    CL-47075  29.922  18.777   3.212
74651CL-    CL-47076  10.718  24.117  13.541
74652CL-    CL-47077  24.168  32.965   1.395
74653CL-    CL-47078   7.375  38.498  14.956
74654CL-    CL-47079  28.135   0.284  10.948
74655CL-    CL-47080  38.867  18.225  13.323
74656CL-    CL-47081  29.090   3.756  11.051
74657CL-    CL-47082  43.506  15.186  11.387
74658CL-    CL-47083  34.554  29.018   2.379
74659CL-    CL-47084   8.739  34.436   1.903
74660CL-    CL-47085   3.808  16.172   1.790
74661CL-    CL-47086  37.461  26.647   3.211
74662CL-    CL-47087  13.108  42.033  14.905
74663CL-    CL-47088  22.060  33.473   3.381
74664CL-    CL-47089  35.107  13.121   1.896
74665CL-    CL-47090  13.603  38.993  13.987
74666CL-    CL-47091  28.133  26.703   2.728
74667CL-    CL-47092  43.360   7.848   4.720
74668CL-    CL-47093  24.125  12.160  11.587
74669CL-    CL-47094  32.451   8.246  12.935
74670CL-    CL-47095   6.904   1.317  13.005
74671CL-    CL-47096  32.082  22.224   1.857
74672CL-    CL-47097  29.034  31.636   4.195
74673CL-    CL-47098  29.008  25.563  11.036
74674CL-    CL-47099   0.398  40.381   3.738
74675CL-    CL-47100  40.027  15.193   2.347
74676CL-    CL-47101   7.896  21.630   2.262
74677CL-    CL-47102  27.099  28.126  10.602
74678CL-    CL-47103   3.775  15.621  13.860
74679CL-    CL-47104   7.746   2.254   2.864
74680CL-    CL-47105  44.357  40.500   2.879
74681CL-    CL-47106  21.602   0.416  13.970
74682CL-    CL-47107  12.722  19.749  13.842
74683CL-    CL-47108  31.405   7.398  13.351
74684CL-    CL-47109  24.684  42.331  13.347
74685CL-    CL-47110   8.800  17.147  13.381
74686CL-    CL-47111  26.695  25.682   4.309
74687CL-    CL-47112  40.798  29.967  14.982
74688CL-    CL-47113  17.217  14.300  14.852
74689CL-    CL-47114   8.853  37.082  12.424
74690CL-    CL-47115   4.913  41.863  11.462
74691CL-    CL-47116   1.306  43.496  11.112
74692CL-    CL-47117  25.074  14.228   3.211
74693CL-    CL-47118  37.065   3.447   3.232
74694CL-    CL-47119   3.857   8.164   3.278
74695CL-    CL-47120  32.022  41.038   1.261
74696CL-    CL-47121  34.050  24.552   2.235
74697CL-    CL-47122  12.849   5.876   1.256
74698CL-    CL-47123   8.207  20.047  10.406
74699CL-    CL-47124  31.135   9.798  10.426
74700CL-    CL-47125  21.083  43.417   3.305
74701CL-    CL-47126   5.928  43.353  12.921
74702CL-    CL-47127  44.263   4.796   4.752
74703CL-    CL-47128  27.581  21.701   5.258
74704CL-    CL-47129  28.666  39.904   0.784
74705CL-    CL-47130  17.241  23.503  12.082
74706CL-    CL-47131   6.235   3.816  11.422
74707CL-    CL-47132  39.485   2.779   3.272
74708CL-    CL-47133  10.746  43.459   0.798
74709CL-    CL-47134  29.039  14.624  10.525
74710CL-    CL-47135   7.280  15.320  11.122
74711CL-    CL-47136   7.744  23.179  11.074
74712CL-    CL-47137   3.803   6.306   1.401
74713CL-    CL-47138  17.067  32.610  13.382
74714CL-    CL-47139  36.865  38.556  11.930
74715CL-    CL-47140  13.764  28.666   2.768
74716CL-    CL-47141  21.123  28.088  13.901
74717CL-    CL-47142  11.792  11.761   1.758
74718CL-    CL-47143   2.836  14.783   4.233
74719CL-    CL-47144  39.348   3.435   0.445
74720CL-    CL-47145  27.645  23.548  13.369
74721CL-    CL-47146  13.307  31.629   1.878
74722CL-    CL-47147  16.285  25.180   1.707
74723CL-    CL-47148  23.214  30.036  11.475
74724CL-    CL-47149  19.611  11.770  11.392
74725CL-    CL-47150  18.287  37.435  14.368
74726CL-    CL-47151  17.663   0.922   3.666
74727CL-    CL-47152   8.840  35.933  13.058
74728CL-    CL-47153  22.626  13.602   3.367
74729CL-    CL-47154  10.345  11.667   3.248
74730CL-    CL-47155  29.109  15.225   2.717
74731CL-    CL-47156  30.653  11.320   4.807
74732CL-    CL-47157   9.809  14.134   4.805
74733CL-    CL-47158  43.275  17.648   2.903
74734CL-    CL-47159  11.298  44.943  13.940
74735CL-    CL-47160  15.688  29.062  12.011
74736CL-    CL-47161  16.693  32.036  12.438
74737CL-    CL-47162  24.095   9.772  12.362
74738CL-    CL-47163   3.418   5.708  10.413
74739CL-    CL-47164   7.843  42.798  11.502
74740CL-    CL-47165  43.882   8.757   1.387
74741CL-    CL-47166  18.641  32.078   3.257
74742CL-    CL-47167  43.967  39.990  14.888
74743CL-    CL-47168   7.757  23.561   4.348
74744CL-    CL-47169  43.437  12.235  12.346
74745CL-    CL-47170  21.168  26.120   1.286
74746CL-    CL-47171  39.957  30.459   2.689
74747CL-    CL-47172  30.970  35.468  11.440
74748CL-    CL-47173  29.987  42.364   0.278
74749CL-    CL-47174  11.849   5.687  13.413
74750CL-    CL-47175   3.909  41.953  13.328
74751CL-    CL-47176  10.759  43.965  14.404
74752CL-    CL-47177  10.649  18.237   1.321
74753CL-    CL-47178  39.327  25.130  10.566
74754CL-    CL-47179  33.476  38.365   0.442
74755CL-    CL-47180   3.370  29.935   0.785
74756CL-    CL-47181  19.692  36.511   0.296
74757CL-    CL-47182  35.553   9.671  13.429
74758CL-    CL-47183  43.876  16.580  13.355
74759CL-    CL-47184  17.158  25.486  13.536
74760CL-    CL-47185  29.125  33.547  12.952
74761CL-    CL-47186  29.440   8.771  11.051
74762CL-    CL-47187  33.056  20.169   2.771
74763CL-    CL-47188  40.906  39.934  10.577
74764CL-    CL-47189  32.043  32.911  14.326
74765CL-    CL-47190  16.120  12.155   2.817
74766CL-    CL-47191  31.922  36.487  14.880
74767CL-    CL-47192  40.834  19.221   3.698
74768CL-    CL-47193   1.375   0.351  10.462
74769CL-    CL-47194  22.507  26.986   4.238
74770CL-    CL-47195   6.819  27.582  10.603
74771CL-    CL-47196  40.015  14.660   4.151
74772CL-    CL-47197  40.043   4.217   1.282
74773CL-    CL-47198  35.880  24.013   4.790
74774CL-    CL-47199  34.874  43.855   4.150
74775CL-    CL-47200  23.170  30.506  12.029
74776CL-    CL-47201  21.068   5.913  12.371
74777CL-    CL-47202  10.263   8.361  13.526
74778CL-    CL-47203  26.537  13.611   4.189
74779CL-    CL-47204  13.346  43.466   3.293
74780CL-    CL-47205   1.830  25.524  12.364
74781CL-    CL-47206  35.879  21.119  11.948
74782CL-    CL-47207  30.150  36.584   3.189
74783CL-    CL-47208  18.785  22.614   2.206
74784CL-    CL-47209  21.250   7.744  11.903
74785CL-    CL-47210  35.393   6.776   1.249
74786CL-    CL-47211  20.633  25.184  12.865
74787CL-    CL-47212  35.367  13.773   2.343
74788CL-    CL-47213  39.856   8.726   3.336
74789CL-    CL-47214   6.398  36.998   1.250
74790CL-    CL-47215  40.382  25.123   4.613
74791CL-    CL-47216   3.332   1.401   4.720
74792CL-    CL-47217  10.740  41.960  14.861
74793CL-    CL-47218  21.068   6.772   1.262
74794CL-    CL-47219  17.613  14.187  11.598
74795CL-    CL-47220  29.997  36.841  14.513
74796CL-    CL-47221  41.839  13.693   2.287
74797CL-    CL-47222  15.629  26.046  14.879
74798CL-    CL-47223  42.308  27.071  14.314
74799CL-    CL-47224  31.050  24.095   1.223
74800CL-    CL-47225  22.064  34.555  13.363
74801CL-    CL-47226  44.799  26.187  10.490
74802CL-    CL-47227  11.764  24.535   4.600
74803CL-    CL-47228  34.469  43.313   2.663
74804CL-    CL-47229   8.844  41.887  11.960
74805CL-    CL-47230   9.844  29.577  11.513
74806CL-    CL-47231  35.929   5.901   1.732
74807CL-    CL-47232   1.965  24.104   1.752
74808CL-    CL-47233  15.250  24.554   0.263
74809CL-    CL-47234  38.536  26.644  10.577
74810CL-    CL-47235   6.287  30.046  12.083
74811CL-    CL-47236  37.570  23.172   1.755
74812CL-    CL-47237  42.393  15.765  11.015
74813CL-    CL-47238  24.607  31.498   4.802
74814CL-    CL-47239  19.245  16.803   3.644
74815CL-    CL-47240  33.919  28.086   1.278
74816CL-    CL-47241  14.205  13.655  12.024
74817CL-    CL-47242   9.326   4.768   4.139
74818CL-    CL-47243  22.527   7.907  10.445
74819CL-    CL-47244  15.633  24.484  14.930
74820CL-    CL-47245   5.276  23.629   3.744
74821CL-    CL-47246  39.458  39.012  13.881
74822CL-    CL-47247  11.143  27.121   3.844
74823CL-    CL-47248   7.188   5.194  14.865
74824CL-    CL-47249  26.673  38.977  14.339
74825CL-    CL-47250  16.593   0.863   0.829
74826CL-    CL-47251  31.469  27.124  12.431
74827CL-    CL-47252   2.769  43.933   1.837
74828CL-    CL-47253  28.457   0.772  10.455
74829CL-    CL-47254  33.127  36.016   4.198
74830CL-    CL-47255  26.563   4.936   4.633
74831CL-    CL-47256  26.593  20.620  12.890
74832CL-    CL-47257  27.626  12.660  11.859
74833CL-    CL-47258  17.111   5.733   2.873
74834CL-    CL-47259   5.311  32.896  11.860
74835CL-    CL-47260  23.712  10.759  12.464
74836CL-    CL-47261  32.970  14.227  11.962
74837CL-    CL-47262  30.983  21.254   3.187
74838CL-    CL-47263  42.872  39.401   3.208
74839CL-    CL-47264   0.947   4.379  11.560
74840CL-    CL-47265   0.280   8.883   2.859
74841CL-    CL-47266   9.357  13.149   1.385
74842CL-    CL-47267   2.939  18.266   2.209
74843CL-    CL-47268  10.766  22.153  13.523
74844CL-    CL-47269  27.025  33.026  10.578
74845CL-    CL-47270  41.033  30.066  14.516
74846CL-    CL-47271  40.364  41.906   0.331
74847CL-    CL-47272  40.050   2.310   4.177
74848CL-    CL-47273  14.646  21.682  12.824
74849CL-    CL-47274  10.862   0.274   0.282
74850CL-    CL-47275  37.895  10.278  13.796
74851CL-    CL-47276  43.013   6.760  12.911
74852CL-    CL-47277  17.595   0.846  11.998
74853CL-    CL-47278  32.565  28.578  11.422
74854CL-    CL-47279  42.466  31.578   1.380
74855CL-    CL-47280  23.730   5.816   4.219
74856CL-    CL-47281  44.407  40.978   1.372
74857CL-    CL-47282  17.705  11.194  12.006
74858CL-    CL-47283  39.401  14.799  12.991
74859CL-    CL-47284   1.787  22.010   0.881
74860CL-    CL-47285   0.353  12.642   2.377
74861CL-    CL-47286  20.149   7.383   1.792
74862CL-    CL-47287  43.893   5.888  14.378
74863CL-    CL-47288  42.455  37.988   3.745
74864CL-    CL-47289  34.446   4.450  13.873
74865CL-    CL-47290  28.512  23.670   4.350
74866CL-    CL-47291  21.229  23.624  14.881
74867CL-    CL-47292  35.971  23.126  10.625
74868CL-    CL-47293  35.869  11.632  12.857
74869CL-    CL-47294  20.529  43.014   1.428
74870CL-    CL-47295  19.610  22.554   3.641
74871CL-    CL-47296  32.900  14.595   4.722
74872CL-    CL-47297  38.066  26.579   2.367
74873CL-    CL-47298  34.972   9.858   3.661
74874CL-    CL-47299   6.902  18.660  11.104
74875CL-    CL-47300  37.474  43.951  14.423
74876CL-    CL-47301  25.573  26.495  14.321
74877CL-    CL-47302  44.779  40.006  13.353
74878CL-    CL-47303  40.344  14.731  13.437
74879CL-    CL-47304  34.586  11.238  11.126
74880CL-    CL-47305  21.059  38.430  13.987
74881CL-    CL-47306  33.612  33.613  12.557
74882CL-    CL-47307  34.372   8.218  12.356
74883CL-    CL-47308  43.473   4.906   9.973
74884CL-    CL-47309   0.880  34.957  12.355
74885CL-    CL-47310  40.536  13.351  13.364
74886CL-    CL-47311  13.808  44.907  10.535
74887CL-    CL-47312  43.305  30.441  14.404
74888CL-    CL-47313  15.083  35.393  12.439
74889CL-    CL-47314  30.479  21.589  11.421
74890CL-    CL-47315  40.938  44.908  13.460
74891CL-    CL-47316  25.607  42.400  11.034
74892CL-    CL-47317  33.073  44.830   0.290
74893CL-    CL-47318  29.141  33.002   0.916
74894CL-    CL-47319  33.098  41.313  12.339
74895CL-    CL-47320  34.408  22.207  12.867
74896CL-    CL-47321  16.753  33.944   2.831
74897CL-    CL-47322  11.242  23.516  10.535
74898CL-    CL-47323  33.047  42.311  10.492
74899CL-    CL-47324  29.064  43.914   1.792
74900CL-    CL-47325  12.710   5.199   0.314
74901CL-    CL-47326  11.642  42.435  13.961
74902CL-    CL-47327   3.416  12.752  14.867
74903CL-    CL-47328  17.676  39.918  14.944
74904CL-    CL-47329  33.939   6.795  13.877
74905CL-    CL-47330  15.307  30.925  10.541
74906CL-    CL-47331  20.704  20.543  13.793
74907CL-    CL-47332  12.355  11.221   3.372
74908CL-    CL-47333   7.326   6.753   0.382
74909CL-    CL-47334  17.689   9.237  12.971
74910CL-    CL-47335  17.760  25.619   3.385
74911CL-    CL-47336  23.199  34.027  14.982
74912CL-    CL-47337  24.510  13.109   0.809
74913CL-    CL-47338  28.169  39.946   1.739
74914CL-    CL-47339  25.667  12.322  10.984
74915CL-    CL-47340  10.816   2.736   0.801
74916CL-    CL-47341  31.533  35.533  13.910
74917CL-    CL-47342  11.680  41.836   2.341
74918CL-    CL-47343  31.121  22.106   4.672
74919CL-    CL-47344  14.214   0.821   2.221
74920CL-    CL-47345  41.395  19.066   2.884
74921CL-    CL-47346   4.786  14.331   3.171
74922CL-    CL-47347  16.079  14.803  14.812
74923CL-    CL-47348   4.241  41.378   0.352
74924CL-    CL-47349  35.536  25.595   4.800
74925CL-    CL-47350  22.657  11.196  13.037
74926CL-    CL-47351  30.440  10.298   0.470
74927CL-    CL-47352  16.073   4.786  10.439
74928CL-    CL-47353  13.120  39.932   0.386
74929CL-    CL-47354  16.649   6.314   0.409
74930CL-    CL-47355  15.106  12.737   2.902
74931CL-    CL-47356   6.687  23.103  14.785
74932CL-    CL-47357   6.884  25.625   0.917
74933CL-    CL-47358  41.883   9.168  12.863
74934CL-    CL-47359  20.564  44.968   4.766
74935CL-    CL-47360   9.704  33.477  13.375
74936CL-    CL-47361  12.678  38.543   1.785
74937CL-    CL-47362  40.913  19.222  13.050
74938CL-    CL-47363  13.148  35.928  13.378
74939CL-    CL-47364   3.845  31.998   0.409
74940CL-    CL-47365  37.551  29.647   1.700
74941CL-    CL-47366  38.367  30.603  12.933
74942CL-    CL-47367   9.730  43.856  11.469
74943CL-    CL-47368   0.415  22.638  11.450
74944CL-    CL-47369  31.101  39.029  13.024
74945CL-    CL-47370  28.544  31.990   3.753
74946CL-    CL-47371  34.610  33.515  14.913
74947CL-    CL-47372  12.618  28.036   1.216
74948CL-    CL-47373  10.697  20.099   4.800
74949CL-    CL-47374  17.608  37.472   1.288
74950CL-    CL-47375  43.777   5.807   2.795
74951CL-    CL-47376  18.622  15.093   0.865
74952CL-    CL-47377  21.735  15.213  13.798
74953CL-    CL-47378  23.633  15.614  13.858
74954CL-    CL-47379  14.777   1.436  14.843
74955CL-    CL-47380  39.942  21.101   3.366
74956CL-    CL-47381  14.759   7.761   4.801
74957CL-    CL-47382  25.554   0.382   3.841
74958CL-    CL-47383   8.203  12.345  11.988
74959CL-    CL-47384   1.284  19.738  12.835
74960CL-    CL-47385  14.594  44.332   3.781
74961CL-    CL-47386   8.692  26.993  12.939
74962CL-    CL-47387   3.770   0.395   1.256
74963CL-    CL-47388   8.713  42.993   0.258
74964CL-    CL-47389  16.111   3.448  10.950
74965CL-    CL-47390  29.089  24.218   9.618
74966CL-    CL-47391  20.719  25.055   2.683
74967CL-    CL-47392  41.958   2.900  14.813
74968CL-    CL-47393   5.218  34.055   4.829
74969CL-    CL-47394  39.020  10.253   0.354
74970CL-    CL-47395  10.153  44.479   4.317
74971CL-    CL-47396  29.128  22.667   0.250
74972CL-    CL-47397  17.292  38.944   9.971
74973CL-    CL-47398  14.164   5.341  11.078
74974CL-    CL-47399  12.725  34.111   4.695
74975CL-    CL-47400   3.792  20.246   2.293
74976CL-    CL-47401  23.701  22.010  10.570
74977CL-    CL-47402  31.029  40.532  13.529
74978CL-    CL-47403  18.704  41.432  12.476
74979CL-    CL-47404  28.663  33.899  10.501
74980CL-    CL-47405  22.683  37.938   1.400
74981CL-    CL-47406  44.870   7.729   3.792
74982CL-    CL-47407  14.283  30.448  14.939
74983CL-    CL-47408  23.023  27.149   3.149
74984CL-    CL-47409  13.202   0.949  12.343
74985CL-    CL-47410   3.451  32.043   4.642
74986CL-    CL-47411  37.869  24.047   2.731
74987CL-    CL-47412  43.963   3.853  12.003
74988CL-    CL-47413  40.377  11.727  12.872
74989CL-    CL-47414  15.596  18.108   3.677
74990CL-    CL-47415   3.440  17.758  13.050
74991CL-    CL-47416   0.362  42.980   1.435
74992CL-    CL-47417  25.208  31.008  12.021
74993CL-    CL-47418  40.052   3.752   0.739
74994CL-    CL-47419  35.561  16.194  12.371
74995CL-    CL-47420  22.701  32.449  14.025
74996CL-    CL-47421  23.680  21.535  13.920
74997CL-    CL-47422  35.424  44.919  11.574
74998CL-    CL-47423  21.597   7.855   0.957
74999CL-    CL-47424  23.639  24.022  13.468
75000CL-    CL-47425   0.797  20.190  14.932
75001CL-    CL-47426  27.044   4.701   1.848
75002CL-    CL-47427  20.140  11.661   4.662
75003CL-    CL-47428  17.586  17.594   3.641
75004CL-    CL-47429  11.698  37.481   0.378
75005CL-    CL-47430  12.140  18.704  12.373
75006CL-    CL-47431  41.481  40.488  13.491
75007CL-    CL-47432  25.176  31.071   1.421
75008CL-    CL-47433  22.567  12.833  11.031
75009CL-    CL-47434   8.224  31.594   4.284
75010CL-    CL-47435   7.843  33.926   1.303
75011CL-    CL-47436  28.103   0.943   4.696
75012CL-    CL-47437  16.671  17.582  11.946
75013CL-    CL-47438  23.692   0.760   3.832
75014CL-    CL-47439  26.597  33.003  12.459
75015CL-    CL-47440  15.777  42.973   0.877
75016CL-    CL-47441   2.789  15.105  10.556
75017CL-    CL-47442  24.640   0.826  11.431
75018CL-    CL-47443  30.043  39.001  11.047
75019CL-    CL-47444  14.666   4.893  14.446
75020CL-    CL-47445   6.814  22.138   4.164
75021CL-    CL-47446  31.932  36.039   3.257
75022CL-    CL-47447  37.534  43.986   1.216
75023CL-    CL-47448  43.411  20.620   4.802
75024CL-    CL-47449  35.021  24.028   0.242
75025CL-    CL-47450   5.236  26.195  11.468
75026CL-    CL-47451  41.468  37.425  13.369
75027CL-    CL-47452  12.611  35.091   4.759
75028CL-    CL-47453   6.810  37.474   2.780
75029CL-    CL-47454  36.064  29.578   2.890
75030CL-    CL-47455  15.643  30.015   4.768
75031CL-    CL-47456  38.447  12.807  12.570
75032CL-    CL-47457  21.660  24.009   2.850
75033CL-    CL-47458   7.726   3.752   3.845
75034CL-    CL-47459  33.463  28.029  11.858
75035CL-    CL-47460  12.266   2.879   2.195
75036CL-    CL-47461  34.994  16.231   3.234
75037CL-    CL-47462  17.093  15.239   4.610
75038CL-    CL-47463  40.866  24.228   4.791
75039CL-    CL-47464  16.759  11.267   3.262
75040CL-    CL-47465  34.096  37.463   4.737
75041CL-    CL-47466   1.976   3.318  12.004
75042CL-    CL-47467  44.453  25.006  14.964
75043CL-    CL-47468  20.606  14.643   4.770
75044CL-    CL-47469  33.419  35.891  12.001
75045CL-    CL-47470   2.343   1.756   4.137
75046CL-    CL-47471  21.225  27.612  12.924
75047CL-    CL-47472  10.679  10.352   1.378
75048CL-    CL-47473  28.148   7.809   2.306
75049CL-    CL-47474  43.391   7.186   4.324
75050CL-    CL-47475  22.504   1.821   1.266
75051CL-    CL-47476  31.556  35.859   2.676
75052CL-    CL-47477  37.424   7.290  12.867
75053CL-    CL-47478  41.014  17.207   1.845
75054CL-    CL-47479  24.707  43.394   1.835
75055CL-    CL-47480  42.292  27.632  10.437
75056CL-    CL-47481  43.345  35.409  11.968
75057CL-    CL-47482  30.091  23.719   2.410
75058CL-    CL-47483  26.032  24.519  11.034
75059CL-    CL-47484  13.287  16.154   1.228
75060CL-    CL-47485  25.712  27.186  14.371
75061CL-    CL-47486  17.289  35.475  11.875
75062CL-    CL-47487   7.817   0.247   2.666
75063CL-    CL-47488  23.074  33.024   2.676
75064CL-    CL-47489  35.984  37.564   3.191
75065CL-    CL-47490  30.043  31.636  14.387
75066CL-    CL-47491  32.609  37.940   1.776
75067CL-    CL-47492  37.977  37.960  10.605
75068CL-    CL-47493  22.696  19.065   4.620
75069CL-    CL-47494  15.594   8.350  13.880
75070CL-    CL-47495   5.380  25.578   3.734
75071CL-    CL-47496  40.011  12.342  10.995
75072CL-    CL-47497  21.619   8.859  12.039
75073CL-    CL-47498  23.066  31.902  10.629
75074CL-    CL-47499  23.062   4.782  10.516
75075CL-    CL-47500  22.072  12.333  12.563
75076CL-    CL-47501  12.813  33.035  12.458
75077CL-    CL-47502  21.110  23.162   4.799
75078CL-    CL-47503  29.962   3.322   4.114
75079CL-    CL-47504  42.324  39.396   3.642
75080CL-    CL-47505  39.527   4.240  13.922
75081CL-    CL-47506  12.673  15.670  14.946
75082CL-    CL-47507  19.130  12.667  12.479
75083CL-    CL-47508  30.441  42.341   0.258
75084CL-    CL-47509  36.075  43.362  11.420
75085CL-    CL-47510   9.179  22.622  12.536
75086CL-    CL-47511  37.357  19.572  11.575
75087CL-    CL-47512  10.145  18.058   4.648
75088CL-    CL-47513  43.398  20.693   0.477
75089CL-    CL-47514  24.114   8.383  13.313
75090CL-    CL-47515  17.583  30.109   2.764
75091CL-    CL-47516  16.665  26.965  11.863
75092CL-    CL-47517  11.216  37.403  11.905
75093CL-    CL-47518   5.223  32.541  10.902
75094CL-    CL-47519   4.734  18.238   3.663
75095CL-    CL-47520  27.530  41.893  11.432
75096CL-    CL-47521  24.009  37.918  12.002
75097CL-    CL-47522  27.449  43.504  14.418
75098CL-    CL-47523  24.646   7.787   4.122
75099CL-    CL-47524  12.222  30.465   1.255
75100CL-    CL-47525   5.327   4.449  13.968
75101CL-    CL-47526  23.547  32.934   2.733
75102CL-    CL-47527  33.942  42.853  11.978
75103CL-    CL-47528  31.646  10.169   1.762
75104CL-    CL-47529   8.382  34.889  11.996
75105CL-    CL-47530  29.500  30.908   1.884
75106CL-    CL-47531   0.987   6.282   0.894
75107CL-    CL-47532   0.782   2.325   2.723
75108CL-    CL-47533  24.150  22.651   0.413
75109CL-    CL-47534  20.122   4.846   4.170
75110CL-    CL-47535  10.755  14.163   2.272
75111CL-    CL-47536  43.480  16.649   4.808
75112CL-    CL-47537  31.584  12.671  11.536
75113CL-    CL-47538   6.402  44.297  13.470
75114CL-    CL-47539  12.117  36.990   1.710
75115CL-    CL-47540  24.185  17.177   1.756
75116CL-    CL-47541  12.316  42.281  12.859
75117CL-    CL-47542  36.995  22.164   1.334
75118CL-    CL-47543   7.736   2.286   3.203
75119CL-    CL-47544  19.227   8.895   1.895
75120CL-    CL-47545   1.247   9.702   4.266
75121CL-    CL-47546  19.735  26.582   1.926
75122CL-    CL-47547  17.612  24.582  13.822
75123CL-    CL-47548  16.177  12.293  14.277
75124CL-    CL-47549  27.649  10.362  13.974
75125CL-    CL-47550  22.136  32.089  13.504
75126CL-    CL-47551   2.903  21.566  11.388
75127CL-    CL-47552   8.266   0.432   0.933
75128CL-    CL-47553  26.543  42.340   1.807
75129CL-    CL-47554  42.377  18.754   3.685
75130CL-    CL-47555   5.905   3.935   0.352
75131CL-    CL-47556   7.751  36.872   2.261
75132CL-    CL-47557  17.124   9.306  14.786
75133CL-    CL-47558   2.286  11.739  13.912
75134CL-    CL-47559  33.562  32.970  10.108
75135CL-    CL-47560  37.935  19.766  11.496
75136CL-    CL-47561  40.397  24.188   0.300
75137CL-    CL-47562   3.800  30.538  10.129
75138CL-    CL-47563  15.146   4.247   4.222
75139CL-    CL-47564  12.212  25.094   3.152
75140CL-    CL-47565  15.636  31.582  11.026
75141CL-    CL-47566  18.159  43.927   2.392
75142CL-    CL-47567   9.310  14.661  10.431
75143CL-    CL-47568  23.099  13.241  14.886
75144CL-    CL-47569  24.184   4.221  11.986
75145CL-    CL-47570  38.456  11.752   3.360
75146CL-    CL-47571  15.678  31.126   3.702
75147CL-    CL-47572   7.749  29.065  11.890
75148CL-    CL-47573  44.281   8.893  11.039
75149CL-    CL-47574  13.845  23.205   1.275
75150CL-    CL-47575  29.617  44.387  13.891
75151CL-    CL-47576  38.836  39.471   3.187
75152CL-    CL-47577  32.081  26.670   3.262
75153CL-    CL-47578  18.693   0.460   0.284
75154CL-    CL-47579  37.977   5.327   3.151
75155CL-    CL-47580  20.587   1.422  13.423
75156CL-    CL-47581  13.629  31.057  14.785
75157CL-    CL-47582  39.021  13.347   2.690
75158CL-    CL-47583  41.475  40.518  11.885
75159CL-    CL-47584  25.702   6.771   3.709
75160CL-    CL-47585  26.471  14.219  13.344
75161CL-    CL-47586  21.146  29.585   0.762
75162CL-    CL-47587  13.179  10.365   2.818
75163CL-    CL-47588  33.912  42.804  13.349
75164CL-    CL-47589  12.691  42.022  12.374
75165CL-    CL-47590  17.149  27.456  12.399
75166CL-    CL-47591  17.674  17.185   4.133
75167CL-    CL-47592  11.781   3.451  13.522
75168CL-    CL-47593  33.969  18.190  13.384
75169CL-    CL-47594  25.500  27.451   3.785
75170CL-    CL-47595  28.142  21.723  13.953
75171CL-    CL-47596  42.289   7.810   2.745
75172CL-    CL-47597  14.287  44.774   3.860
75173CL-    CL-47598  16.750  27.990   3.870
75174CL-    CL-47599  41.415  30.147   0.468
75175CL-    CL-47600  42.892  17.714  11.884
75176CL-    CL-47601  28.534  26.079   0.347
75177CL-    CL-47602  36.869  32.910   2.697
75178CL-    CL-47603  34.376  32.534   4.309
75179CL-    CL-47604   1.293  30.057   3.719
75180CL-    CL-47605  19.588  21.164  13.819
75181CL-    CL-47606   8.873  30.473   4.127
75182CL-    CL-47607  36.869  35.396  12.402
75183CL-    CL-47608  22.633  16.751   1.749
75184CL-    CL-47609   9.333   7.866   4.143
75185CL-    CL-47610  10.355  37.067  14.886
75186CL-    CL-47611  40.838  29.467   0.440
75187CL-    CL-47612  20.102  22.693   3.302
75188CL-    CL-47613  27.572  34.473   4.214
75189CL-    CL-47614  21.197  38.548  10.926
75190CL-    CL-47615   8.822   5.390  13.409
75191CL-    CL-47616  13.237  23.029  14.302
75192CL-    CL-47617   1.271   5.417  14.486
75193CL-    CL-47618  22.735  27.970   4.795
75194CL-    CL-47619  17.602   4.363  13.839
75195CL-    CL-47620   7.345   7.712   1.705
75196CL-    CL-47621  30.412   8.191  14.286
75197CL-    CL-47622  16.180  43.974  12.984
75198CL-    CL-47623  42.797  36.388   3.190
75199CL-    CL-47624  22.673  23.202   2.252
75200CL-    CL-47625  15.674   9.225  11.912
75201CL-    CL-47626   1.342  22.998   2.875
75202CL-    CL-47627  22.181  23.519  13.040
75203CL-    CL-47628   7.780  17.747   4.172
75204CL-    CL-47629   1.240  14.119  11.114
75205CL-    CL-47630  44.961  17.760   1.805
75206CL-    CL-47631  35.505  39.360  12.531
75207CL-    CL-47632   4.264   2.957   3.830
75208CL-    CL-47633   2.325  25.714  14.809
75209CL-    CL-47634  35.489   2.803  12.897
75210CL-    CL-47635  42.019  21.637  13.400
75211CL-    CL-47636  19.576  29.151   3.789
75212CL-    CL-47637  42.885  32.098   1.348
75213CL-    CL-47638  28.637  25.472  14.821
75214CL-    CL-47639  27.562  11.664  14.896
75215CL-    CL-47640  39.469  36.427   4.169
75216CL-    CL-47641  16.689  34.887  11.383
75217CL-    CL-47642  28.641  23.633   2.683
75218CL-    CL-47643  40.811  15.256  10.413
75219CL-    CL-47644  17.652   0.955   4.223
75220CL-    CL-47645  26.543   1.410  12.902
75221CL-    CL-47646  25.070  27.489   1.705
75222CL-    CL-47647  35.897  16.210  14.309
75223CL-    CL-47648  24.639  43.839  14.964
75224CL-    CL-47649  32.040  25.570   3.831
75225CL-    CL-47650   9.186  44.937  10.429
75226CL-    CL-47651   1.877   8.195  13.025
75227CL-    CL-47652  28.522  21.210   4.631
75228CL-    CL-47653  35.524  19.543  14.017
75229CL-    CL-47654  30.003  25.180  13.053
75230CL-    CL-47655  36.496   0.445   3.807
75231CL-    CL-47656  18.651  24.611  13.939
75232CL-    CL-47657  10.189  17.253   4.157
75233CL-    CL-47658  34.867  35.420   0.407
75234CL-    CL-47659  31.442   1.855   1.361
75235CL-    CL-47660  17.677  34.439   5.272
75236CL-    CL-47661  35.873  23.675   0.411
75237CL-    CL-47662  37.943  33.380  10.013
75238CL-    CL-47663  28.500  33.969   3.263
75239CL-    CL-47664  18.135  13.134   4.302
75240CL-    CL-47665  37.038   0.345   0.780
75241CL-    CL-47666  35.029  20.613  10.574
75242CL-    CL-47667  44.007  34.013   5.713
75243CL-    CL-47668  24.217  16.746  13.518
75244CL-    CL-47669  15.623  19.546  10.123
75245CL-    CL-47670   0.494  12.857   4.767
75246CL-    CL-47671  37.869  39.458  11.931
75247CL-    CL-47672  44.262   9.191   3.320
75248CL-    CL-47673  28.178  28.156   2.282
75249CL-    CL-47674  17.156  39.348   2.334
75250CL-    CL-47675  25.574  33.913   2.685
75251CL-    CL-47676  18.103  22.166   0.429
75252CL-    CL-47677  39.064  19.086  11.472
75253CL-    CL-47678  29.535  18.789  11.947
75254CL-    CL-47679  43.969  11.748   3.190
75255CL-    CL-47680  26.623   1.909   4.679
75256CL-    CL-47681  11.129   3.903   0.822
75257CL-    CL-47682   8.203  18.058  14.466
75258CL-    CL-47683   6.817  24.024   3.309
75259CL-    CL-47684  12.278  39.872  11.069
75260CL-    CL-47685  31.536  20.628  11.474
75261CL-    CL-47686  22.055   5.820  14.892
75262CL-    CL-47687   7.408  10.180  13.326
75263CL-    CL-47688   6.384  22.514  11.093
75264CL-    CL-47689  11.788  28.028  12.445
75265CL-    CL-47690  19.224   8.816   4.196
75266CL-    CL-47691  42.916  30.606   3.316
75267CL-    CL-47692  16.312  19.569   4.606
75268CL-    CL-47693   3.923  20.523  13.840
75269CL-    CL-47694  34.609  26.130  12.507
75270CL-    CL-47695  11.680  31.530  11.123
75271CL-    CL-47696   0.258  10.377   0.451
75272CL-    CL-47697  11.151  12.355   3.197
75273CL-    CL-47698  25.489  23.025  11.422
75274CL-    CL-47699  37.408  28.494   3.864
75275CL-    CL-47700   9.736  41.466  11.501
75276CL-    CL-47701   6.386   2.872  12.916
75277CL-    CL-47702   5.316  39.961  13.984
75278CL-    CL-47703  21.552  24.119   3.258
75279CL-    CL-47704   7.893  30.528   2.843
75280CL-    CL-47705  17.082  20.705   0.872
75281CL-    CL-47706   0.864  29.925  13.532
75282CL-    CL-47707  19.231   7.667  12.050
75283CL-    CL-47708  14.288  13.130  13.517
75284CL-    CL-47709  42.372  41.471  14.501
75285CL-    CL-47710   6.391  33.458   2.291
75286CL-    CL-47711  40.866  33.017   4.196
75287CL-    CL-47712  36.925  16.317  10.600
75288CL-    CL-47713  10.250  34.070  12.454
75289CL-    CL-47714  19.156  32.004   3.197
75290CL-    CL-47715  37.383   6.703   5.170
75291CL-    CL-47716  31.101  17.207  14.989
75292CL-    CL-47717  41.349  35.532  13.531
75293CL-    CL-47718  10.830  30.604  11.529
75294CL-    CL-47719  37.059   8.192   3.336
75295CL-    CL-47720  14.331   6.316  11.464
75296CL-    CL-47721  34.477  44.837   3.339
75297CL-    CL-47722  10.684  24.544   1.792
75298CL-    CL-47723  13.216   4.806   3.708
75299CL-    CL-47724  28.929  22.210  11.097
75300CL-    CL-47725  23.092  15.220   0.888
75301CL-    CL-47726  41.792  13.217  10.501
75302CL-    CL-47727  42.016  16.689  14.276
75303CL-    CL-47728  18.579  23.020  14.473
75304CL-    CL-47729  11.817  17.116   4.687
75305CL-    CL-47730  18.611  34.950  14.991
75306CL-    CL-47731   5.793  15.162   2.677
75307CL-    CL-47732  31.635   7.749   2.741
75308CL-    CL-47733  19.770  35.567   1.339
75309CL-    CL-47734   5.866  17.708   3.742
75310CL-    CL-47735  35.524  34.445   0.956
75311CL-    CL-47736   0.443  36.430  12.923
75312CL-    CL-47737   4.418  21.746  12.001
75313CL-    CL-47738  35.504  11.234  12.876
75314CL-    CL-47739   3.245  19.214  11.500
75315CL-    CL-47740   8.663  22.635   1.926
75316CL-    CL-47741  21.226  41.996   2.277
75317CL-    CL-47742  14.231   8.755  10.111
75318CL-    CL-47743  24.716  25.041  14.368
75319CL-    CL-47744   7.750  15.135   3.797
75320CL-    CL-47745   3.886  44.293   0.416
75321CL-    CL-47746  30.038  34.877  13.848
75322CL-    CL-47747  23.102  19.099  14.363
75323CL-    CL-47748   0.858  20.551   2.868
75324CL-    CL-47749  16.589  44.902  11.075
75325CL-    CL-47750   5.787   5.782  11.592
75326CL-    CL-47751  42.443  29.984   2.852
75327CL-    CL-47752  29.646  11.672   3.706
75328CL-    CL-47753  10.776  23.614  14.348
75329CL-    CL-47754  44.361   0.804   2.728
75330CL-    CL-47755  16.215  19.578  13.962
75331CL-    CL-47756   3.378  44.318   5.118
75332CL-    CL-47757  17.791  22.170  13.901
75333CL-    CL-47758  44.321  39.996   1.377
75334CL-    CL-47759  19.668  18.649  14.395
75335CL-    CL-47760  36.449  27.187   0.849
75336CL-    CL-47761  18.764   9.367   2.666
75337CL-    CL-47762   3.234  33.626  13.982
75338CL-    CL-47763  31.419   6.738   4.629
75339CL-    CL-47764  35.400  34.949   4.601
75340CL-    CL-47765  29.928  25.651  11.457
75341CL-    CL-47766  42.992  28.612  14.835
75342CL-    CL-47767  15.092  41.009  11.071
75343CL-    CL-47768  32.592  30.526   1.927
75344CL-    CL-47769   7.759  12.713   3.759
75345CL-    CL-47770  10.243  25.492   3.734
75346CL-    CL-47771  11.170   7.373  12.406
75347CL-    CL-47772   3.738  14.126  12.990
75348CL-    CL-47773   8.745  35.432  14.832
75349CL-    CL-47774  22.738  10.380   0.317
75350CL-    CL-47775  37.987  41.790  11.875
75351CL-    CL-47776  22.178  22.144  12.470
75352CL-    CL-47777  20.167  32.966  11.931
75353CL-    CL-47778  44.799  15.306   4.781
75354CL-    CL-47779  16.273  10.675  11.029
75355CL-    CL-47780  38.019   9.766  10.520
75356CL-    CL-47781  35.419  21.060  10.474
75357CL-    CL-47782   4.248  36.467  14.389
75358CL-    CL-47783  31.555   6.842  11.023
75359CL-    CL-47784   3.450  12.276  12.579
75360CL-    CL-47785  34.537  36.945  12.385
75361CL-    CL-47786  19.705   3.821   3.848
75362CL-    CL-47787  26.094   4.291   0.760
75363CL-    CL-47788  34.578  43.999   0.955
75364CL-    CL-47789  34.930  33.084  12.952
75365CL-    CL-47790  32.104  18.746  12.470
75366CL-    CL-47791  19.545  23.090  11.939
75367CL-    CL-47792   0.449  24.616   3.629
75368CL-    CL-47793  41.337  28.459   2.802
75369CL-    CL-47794  37.552  42.795  14.986
75370CL-    CL-47795  32.119   8.295   2.894
75371CL-    CL-47796  22.084  38.448  12.560
75372CL-    CL-47797   7.379  27.616  12.062
75373CL-    CL-47798  35.406  32.015  12.058
75374CL-    CL-47799   3.298  44.944  11.126
75375CL-    CL-47800  42.913   2.260   1.796
75376CL-    CL-47801  35.969  23.153  11.502
75377CL-    CL-47802  14.696  35.073  14.361
75378CL-    CL-47803  18.667  16.779  13.409
75379CL-    CL-47804   3.358  10.874   4.170
75380CL-    CL-47805   7.887  22.639  14.006
75381CL-    CL-47806  16.797  26.022   4.622
75382CL-    CL-47807  11.662   3.404   3.704
75383CL-    CL-47808  35.382   0.967  14.390
75384CL-    CL-47809  29.034  19.143  11.413
75385CL-    CL-47810   1.332  24.029   1.213
75386CL-    CL-47811  31.406  37.915   2.855
75387CL-    CL-47812  24.132  31.449   3.216
75388CL-    CL-47813  12.768   8.318   2.297
75389CL-    CL-47814  23.724  22.087  13.000
75390CL-    CL-47815  42.877   2.453   2.329
75391CL-    CL-47816  16.606  27.959   3.148
75392CL-    CL-47817  35.432  15.113  10.425
75393CL-    CL-47818   9.681  43.359  11.051
75394CL-    CL-47819  38.463  16.294   2.741
75395CL-    CL-47820  44.492  21.628   1.210
75396CL-    CL-47821   3.412  44.264  13.966
75397CL-    CL-47822  35.017  11.204  12.885
75398CL-    CL-47823  40.864   3.855  14.795
75399CL-    CL-47824  25.982  14.689   2.662
75400CL-    CL-47825  13.741  34.409   4.285
75401CL-    CL-47826  26.598  33.954  13.507
75402CL-    CL-47827  21.040   3.435  14.461
75403CL-    CL-47828  36.906   8.811   2.768
75404CL-    CL-47829  18.178  17.283  13.442
75405CL-    CL-47830  42.019  18.787   2.417
75406CL-    CL-47831  13.784  41.992   3.693
75407CL-    CL-47832  24.582  17.092   2.392
75408CL-    CL-47833   3.902  27.500   4.353
75409CL-    CL-47834  26.042   8.198   4.321
75410CL-    CL-47835  11.186   7.294   4.235
75411CL-    CL-47836  17.596   3.430   0.381
75412CL-    CL-47837  21.067  21.630  13.403
75413CL-    CL-47838  37.002  38.889  13.308
75414CL-    CL-47839   2.946   8.673   4.704
75415CL-    CL-47840  31.522  42.869  14.777
75416CL-    CL-47841   1.769  42.473   3.227
75417CL-    CL-47842  26.615  44.307  10.020
75418CL-    CL-47843   9.366  38.500  13.972
75419CL-    CL-47844  14.261  17.139  10.432
75420CL-    CL-47845  18.567  29.632   1.351
75421CL-    CL-47846  35.444  44.411   3.818
75422CL-    CL-47847  41.439   9.302  13.460
75423CL-    CL-47848   0.758   2.373   2.247
75424CL-    CL-47849   3.889   4.886   3.842
75425CL-    CL-47850  13.334  16.713   4.299
75426CL-    CL-47851   0.754  14.301   3.184
75427CL-    CL-47852  26.176  34.031   3.157
75428CL-    CL-47853   3.898   1.458  12.860
75429CL-    CL-47854  26.511   9.275  13.405
75430CL-    CL-47855  41.799  35.902  14.372
75431CL-    CL-47856  21.151  35.927  14.422
75432CL-    CL-47857  24.537  23.555   4.742
75433CL-    CL-47858  17.688   3.837   4.836
75434CL-    CL-47859  18.084  35.037  10.024
75435CL-    CL-47860  32.041   2.265  13.854
75436CL-    CL-47861   8.230  44.836  10.569
75437CL-    CL-47862  33.076  19.729  14.465
75438CL-    CL-47863  42.349  27.062  14.784
75439CL-    CL-47864  28.954  17.639   2.337
75440CL-    CL-47865  37.055  25.216   4.176
75441CL-    CL-47866  26.653  32.001  12.394
75442CL-    CL-47867   7.237  37.991  12.055
75443CL-    CL-47868  42.492   0.831   0.449
75444CL-    CL-47869   8.241  41.856  10.938
75445CL-    CL-47870  29.578  33.494  10.937
75446CL-    CL-47871  31.648  42.356   4.129
75447CL-    CL-47872   0.971  15.659   1.842
75448CL-    CL-47873  41.470   8.171  13.445
75449CL-    CL-47874   3.239  28.138  10.940
75450CL-    CL-47875   8.871  40.320  11.942
75451CL-    CL-47876  21.608  43.516   1.932
75452CL-    CL-47877  24.002  11.354  12.533
75453CL-    CL-47878   9.322  14.129  14.826
75454CL-    CL-47879  38.931  18.690  14.835
75455CL-    CL-47880  36.453  39.913   1.734
75456CL-    CL-47881  37.352  41.511  13.944
75457CL-    CL-47882  39.556  13.816   2.237
75458CL-    CL-47883  14.645  37.045  14.932
75459CL-    CL-47884  21.134  18.075   3.230
75460CL-    CL-47885  36.507   4.432  13.950
75461CL-    CL-47886  31.921   5.284  14.378
75462CL-    CL-47887  34.043  16.722  11.389
75463CL-    CL-47888  38.860  36.585   4.255
75464CL-    CL-47889  25.042  18.065  11.915
75465CL-    CL-47890  27.179  21.588  13.027
75466CL-    CL-47891   2.314  41.336  10.640
75467CL-    CL-47892  13.725   6.279  13.993
75468CL-    CL-47893   1.306  12.117   3.639
75469CL-    CL-47894   5.700  25.514  14.826
75470CL-    CL-47895  16.748   5.348  10.415
75471CL-    CL-47896   8.393  19.174  11.110
75472CL-    CL-47897  29.964  41.363  12.401
75473CL-    CL-47898   2.908  28.057  13.800
75474CL-    CL-47899  24.519  12.741   2.857
75475CL-    CL-47900  27.984  27.182   0.820
75476CL-    CL-47901  32.114   7.263   2.182
75477CL-    CL-47902  10.332  30.006  10.416
75478CL-    CL-47903   6.877   9.274  12.053
75479CL-    CL-47904  35.361  25.108  12.944
75480CL-    CL-47905  21.104  22.589  11.443
75481CL-    CL-47906  17.622  28.955  13.417
75482CL-    CL-47907  20.661   4.377  10.583
75483CL-    CL-47908  25.516  24.587  11.378
75484CL-    CL-47909  32.018   7.301   0.266
75485CL-    CL-47910  33.934  15.278  10.977
75486CL-    CL-47911  38.996  23.629  13.416
75487CL-    CL-47912   9.817  43.497  10.418
75488CL-    CL-47913  13.338   0.808   2.382
75489CL-    CL-47914  39.966  15.744   0.470
75490CL-    CL-47915  16.284   6.740   2.819
75491CL-    CL-47916  36.473  26.108  12.082
75492CL-    CL-47917   3.777  34.507   2.257
75493CL-    CL-47918  23.096  38.439  11.043
75494CL-    CL-47919  19.158  21.754   2.283
75495CL-    CL-47920  25.513  40.445   1.820
75496CL-    CL-47921  23.986  18.625   4.601
75497CL-    CL-47922  13.632  10.728  14.002
75498CL-    CL-47923  11.260  23.150   0.252
75499CL-    CL-47924  22.162   7.825  14.278
75500CL-    CL-47925  28.008  43.767   3.791
75501CL-    CL-47926  27.489  40.381   2.793
75502CL-    CL-47927  26.182  32.620   4.720
75503CL-    CL-47928  41.413  20.578  14.988
75504CL-    CL-47929  19.605  22.740  12.868
75505CL-    CL-47930  26.680  30.432  13.915
75506CL-    CL-47931   5.244  13.820  11.108
75507CL-    CL-47932   5.222  40.479  13.340
75508CL-    CL-47933  40.867  10.805  13.870
75509CL-    CL-47934  17.204  30.426   3.739
75510CL-    CL-47935  12.780  41.393   1.834
75511CL-    CL-47936  31.581  24.044  12.356
75512CL-    CL-47937   0.888  35.894   3.281
75513CL-    CL-47938  41.418   3.831   2.286
75514CL-    CL-47939  34.103  27.589  13.391
75515CL-    CL-47940  26.007  38.032   1.285
75516CL-    CL-47941   5.358  33.961  12.393
75517CL-    CL-47942  32.084  39.508  13.421
75518CL-    CL-47943  26.960  20.271  14.887
75519CL-    CL-47944  33.622  22.071  12.001
75520CL-    CL-47945  20.243  17.138  11.034
75521CL-    CL-47946  17.281  18.729  12.540
75522CL-    CL-47947  27.500  20.694  10.515
75523CL-    CL-47948  32.040  14.746   4.783
75524CL-    CL-47949   4.841  21.086  10.466
75525CL-    CL-47950  38.999  19.763  12.883
75526CL-    CL-47951  23.556   9.373   3.290
75527CL-    CL-47952   6.853  26.126   3.335
75528CL-    CL-47953  29.498  14.283  12.521
75529CL-    CL-47954  10.270  42.365   4.317
75530CL-    CL-47955  29.026   2.774  13.495
75531CL-    CL-47956   2.830  21.075   2.245
75532CL-    CL-47957  40.885   2.388   0.433
75533CL-    CL-47958  44.504  15.295  12.499
75534CL-    CL-47959  10.254  19.121  13.861
75535CL-    CL-47960  13.110   9.382  12.475
75536CL-    CL-47961  25.037  27.097  14.894
75537CL-    CL-47962  10.345  21.181  14.371
75538CL-    CL-47963   0.820  36.593   4.711
75539CL-    CL-47964  11.296  38.982   3.738
75540CL-    CL-47965  13.823   3.386   0.803
75541CL-    CL-47966   9.252  11.306  11.389
75542CL-    CL-47967  38.449  36.033  12.048
75543CL-    CL-47968   2.750   9.231   3.785
75544CL-    CL-47969  19.155  28.492   1.923
75545CL-    CL-47970  33.977   3.292   2.812
75546CL-    CL-47971  37.919   7.707  11.964
75547CL-    CL-47972  26.560  38.068   1.276
75548CL-    CL-47973  26.009  21.078  13.950
75549CL-    CL-47974  28.136  29.485  13.947
75550CL-    CL-47975   3.832  11.357  13.521
75551CL-    CL-47976  15.657  26.652  14.296
75552CL-    CL-47977  32.523  26.004   0.786
75553CL-    CL-47978   7.832  21.144   9.939
75554CL-    CL-47979  43.952  41.003   3.319
75555CL-    CL-47980  24.500  22.738  10.499
75556CL-    CL-47981   9.190  14.194  10.476
75557CL-    CL-47982  43.891  43.864   2.233
75558CL-    CL-47983  37.495   1.922   1.414
75559CL-    CL-47984  11.790   4.248   4.277
75560CL-    CL-47985  26.062   0.794   0.829
75561CL-    CL-47986   3.274  33.071   0.442
75562CL-    CL-47987  25.529   4.847   0.935
75563CL-    CL-47988  35.494  42.365   1.366
75564CL-    CL-47989  35.856  34.956  11.036
75565CL-    CL-47990  44.495  15.273   3.812
75566CL-    CL-47991  10.830  33.983   1.437
75567CL-    CL-47992  39.459  40.402  12.003
75568CL-    CL-47993   0.290  38.070   2.219
75569CL-    CL-47994  28.585  43.844  10.443
75570CL-    CL-47995  10.701  30.991  13.355
75571CL-    CL-47996  27.947  43.809  10.069
75572CL-    CL-47997  19.226   3.922   1.904
75573CL-    CL-47998  10.201  13.809  11.518
75574CL-    CL-47999  36.990  39.842   4.250
75575CL-    CL-48000   7.671  38.371   1.219
75576CL-    CL-48001  39.457  14.266   2.291
75577CL-    CL-48002  35.978  42.429   0.939
75578CL-    CL-48003  11.830  20.631   4.196
75579CL-    CL-48004  23.688  44.818   1.744
75580CL-    CL-48005  42.869  29.661   1.835
75581CL-    CL-48006  14.284  39.832  14.502
75582CL-    CL-48007  18.196  36.009  13.404
75583CL-    CL-48008  25.589  16.289  14.980
75584CL-    CL-48009  43.339   6.701   1.303
75585CL-    CL-48010  32.107  10.747   4.812
75586CL-    CL-48011   6.202  27.617   2.782
75587CL-    CL-48012  37.973  31.031   4.207
75588CL-    CL-48013  23.021  27.120   0.432
75589CL-    CL-48014  41.799   7.191  11.005
75590CL-    CL-48015   4.935  39.355  14.900
75591CL-    CL-48016   8.706  30.951   1.404
75592CL-    CL-48017  32.585  25.579   1.252
75593CL-    CL-48018   7.826  41.877  14.293
75594CL-    CL-48019  24.014  27.966   5.312
75595CL-    CL-48020  39.435  19.584  13.948
75596CL-    CL-48021  23.735  41.796  13.880
75597CL-    CL-48022  32.523  39.412  10.925
75598CL-    CL-48023   2.928  40.306   0.938
75599CL-    CL-48024  14.190  25.160   2.717
75600CL-    CL-48025  24.077  24.088   4.748
75601CL-    CL-48026  35.071  10.181  11.958
75602CL-    CL-48027   1.451  40.546   0.799
75603CL-    CL-48028   3.444  26.656  11.031
75604CL-    CL-48029   9.170  27.469   1.217
75605CL-    CL-48030  18.765  15.579   1.217
75606CL-    CL-48031  43.313  41.429   0.919
75607CL-    CL-48032  10.742  31.619  13.455
75608CL-    CL-48033  33.520   1.883  12.918
75609CL-    CL-48034  27.598   7.898  13.387
75610CL-    CL-48035  25.046  22.549   3.645
75611CL-    CL-48036   7.181  12.650  10.978
75612CL-    CL-48037  20.697  23.507  11.555
75613CL-    CL-48038  19.151  19.040  14.306
75614CL-    CL-48039  37.412  41.473  11.448
75615CL-    CL-48040  34.904  14.169  13.931
75616CL-    CL-48041  13.723  34.037   2.362
75617CL-    CL-48042  35.098  34.004  11.452
75618CL-    CL-48043  18.685  26.487   3.770
75619CL-    CL-48044  15.609   2.400   0.847
75620CL-    CL-48045  16.769  32.530  13.792
75621CL-    CL-48046  27.454  40.919   0.883
75622CL-    CL-48047  15.247   6.312   4.598
75623CL-    CL-48048  24.647  24.057   4.671
75624CL-    CL-48049  24.042  28.679   1.383
75625CL-    CL-48050  15.628  10.197  11.527
75626CL-    CL-48051  40.804   0.450   4.724
75627CL-    CL-48052  28.026  25.991  12.498
75628CL-    CL-48053  10.676   0.772   3.632
75629CL-    CL-48054  32.007   8.339  10.631
75630CL-    CL-48055  16.181  40.959   4.180
75631CL-    CL-48056  14.207  11.678  10.924
75632CL-    CL-48057   7.908  13.645  13.348
75633CL-    CL-48058  25.209  15.236   4.685
75634CL-    CL-48059   5.866  33.038  13.807
75635CL-    CL-48060   1.789  14.833   3.365
75636CL-    CL-48061  32.590  13.185  13.537
75637CL-    CL-48062  31.961  24.222  14.878
75638CL-    CL-48063   9.238  26.625   1.732
75639CL-    CL-48064  23.992   3.341  11.998
75640CL-    CL-48065  32.081  41.495   1.222
75641CL-    CL-48066   0.258  14.209  10.451
75642CL-    CL-48067  36.460  14.133   5.199
75643CL-    CL-48068   2.236  37.527   4.167
75644CL-    CL-48069   1.349  25.532  11.125
75645CL-    CL-48070  17.186  33.056  14.298
75646CL-    CL-48071   6.308  16.155  11.056
75647CL-    CL-48072  36.404  13.176  13.818
75648CL-    CL-48073  25.691  39.467  13.910
75649CL-    CL-48074  18.077  22.670  11.906
75650CL-    CL-48075  10.145   1.887   2.674
75651CL-    CL-48076  24.069   0.365  14.891
75652CL-    CL-48077  28.479   8.773   3.263
75653CL-    CL-48078  41.483   8.825  14.297
75654CL-    CL-48079  41.023  28.010  12.521
75655CL-    CL-48080   5.739  30.427  14.957
75656CL-    CL-48081  41.336  31.070  12.982
75657CL-    CL-48082  42.977  24.599  13.473
75658CL-    CL-48083  29.960  26.638   0.940
75659CL-    CL-48084  44.456  17.130  11.427
75660CL-    CL-48085  25.653  17.557  10.602
75661CL-    CL-48086  36.001  35.039   1.738
75662CL-    CL-48087  27.195   5.292   2.692
75663CL-    CL-48088   6.886  30.079  12.397
75664CL-    CL-48089  42.905  34.467   0.463
75665CL-    CL-48090  41.431   1.251  13.053
75666CL-    CL-48091  21.092  26.648   0.833
75667CL-    CL-48092  31.536   6.347  10.915
75668CL-    CL-48093  30.004  13.653  11.496
75669CL-    CL-48094   1.444  32.045  13.865
75670CL-    CL-48095   3.445  13.249  11.094
75671CL-    CL-48096   4.419  15.719  13.973
75672CL-    CL-48097  21.232   9.699   1.934
75673CL-    CL-48098  17.588   2.236  11.926
75674CL-    CL-48099  12.827  10.196   4.758
75675CL-    CL-48100   2.226  27.063   0.383
75676CL-    CL-48101  31.085   9.692  13.917
75677CL-    CL-48102  16.585  24.167   2.373
75678CL-    CL-48103  41.814  27.621   1.881
75679CL-    CL-48104   8.167   2.946  11.971
75680CL-    CL-48105  42.898  13.250  12.430
75681CL-    CL-48106  23.174   9.803   3.807
75682CL-    CL-48107  37.346  43.322   2.362
75683CL-    CL-48108   6.922   2.837   2.384
75684CL-    CL-48109  19.755  10.298   5.256
75685CL-    CL-48110   8.195  35.879  14.311
75686CL-    CL-48111  12.140  40.346   2.211
75687CL-    CL-48112  24.589  15.636  10.447
75688CL-    CL-48113  15.716  31.505  11.551
75689CL-    CL-48114  41.519  26.145   3.853
75690CL-    CL-48115  39.854   8.161   0.335
75691CL-    CL-48116  30.458   3.367   0.863
75692CL-    CL-48117   4.209  35.969   3.747
75693CL-    CL-48118  44.347  38.429  14.375
75694CL-    CL-48119   6.220  20.172   3.309
75695CL-    CL-48120  12.234  35.925   1.777
75696CL-    CL-48121  17.794   2.768   0.435
75697CL-    CL-48122  19.149  14.174  11.072
75698CL-    CL-48123  44.982  27.609   4.113
75699CL-    CL-48124  28.024  10.344   4.618
75700CL-    CL-48125   6.717  23.172   2.843
75701CL-    CL-48126  24.117  44.006  10.609
75702CL-    CL-48127   3.925   8.236  13.349
75703CL-    CL-48128  12.314   6.279   0.922
75704CL-    CL-48129  42.364  12.304  13.350
75705CL-    CL-48130  12.160  19.114   0.403
75706CL-    CL-48131   3.442  11.251   3.380
75707CL-    CL-48132   4.384  22.505   1.887
75708CL-    CL-48133  31.130  14.336  11.029
75709CL-    CL-48134   5.738  23.569   0.786
75710CL-    CL-48135  19.081  22.119  11.565
75711CL-    CL-48136  15.819  26.965  13.973
75712CL-    CL-48137  11.783  20.583   2.700
75713CL-    CL-48138  10.378  18.084  13.360
75714CL-    CL-48139  36.883  13.728   4.328
75715CL-    CL-48140  32.115  39.463  11.054
75716CL-    CL-48141  34.003  42.343   1.734
75717CL-    CL-48142  39.897  31.042  14.839
75718CL-    CL-48143  20.631  15.707  10.947
75719CL-    CL-48144  14.828   0.982   4.769
75720CL-    CL-48145  21.571  29.611  14.316
75721CL-    CL-48146  39.860  15.308   4.772
75722CL-    CL-48147   9.183  41.350   3.836
75723CL-    CL-48148   6.295  10.358   4.128
75724CL-    CL-48149  29.013  38.525   5.675
75725CL-    CL-48150  21.242  41.430   3.837
75726CL-    CL-48151   0.825   8.706   1.931
75727CL-    CL-48152  22.197  24.062  14.802
75728CL-    CL-48153  37.981  22.190  12.864
75729CL-    CL-48154  42.312   9.240  13.019
75730CL-    CL-48155   0.398  32.885   5.295
75731CL-    CL-48156  27.121  43.446   1.327
75732CL-    CL-48157  34.592  16.806   4.351
75733CL-    CL-48158  41.383  15.642   2.182
75734CL-    CL-48159  44.318  25.599  11.510
75735CL-    CL-48160  35.589   3.870  13.521
75736CL-    CL-48161  10.314  36.563   2.701
75737CL-    CL-48162  18.602  17.193  10.516
75738CL-    CL-48163   0.951  43.999  12.955
75739CL-    CL-48164   6.270  10.372  14.362
75740CL-    CL-48165   3.283  31.939   1.441
75741CL-    CL-48166  34.066  32.549  14.987
75742CL-    CL-48167  23.725  36.962  14.495
75743CL-    CL-48168   2.762   4.802   2.856
75744CL-    CL-48169   5.796  41.326   3.315
75745CL-    CL-48170  31.511  20.653  12.992
75746CL-    CL-48171  31.568  29.971   2.329
75747CL-    CL-48172  19.576  16.717   0.304
75748CL-    CL-48173   3.284   5.836  13.917
75749CL-    CL-48174  24.033   1.243  13.379
75750CL-    CL-48175  25.489  26.038  12.091
75751CL-    CL-48176  20.031  13.189   4.685
75752CL-    CL-48177  25.102  24.982   1.696
75753CL-    CL-48178  42.517   0.744  10.483
75754CL-    CL-48179  18.056  11.841  10.957
75755CL-    CL-48180  40.934  23.203   3.865
75756CL-    CL-48181  28.456  24.091  10.406
75757CL-    CL-48182  10.773  41.985  11.876
75758CL-    CL-48183   8.821  34.556  13.826
75759CL-    CL-48184  36.383  27.669   4.797
75760CL-    CL-48185  28.608  13.697  10.474
75761CL-    CL-48186  41.919   5.779  12.874
75762CL-    CL-48187  19.148  44.425  14.298
75763CL-    CL-48188  11.820  36.867  11.405
75764CL-    CL-48189  38.412  31.478   0.391
75765CL-    CL-48190   3.719   5.929   4.214
75766CL-    CL-48191   3.876   3.231  12.538
75767CL-    CL-48192   9.824  22.714  13.042
75768CL-    CL-48193  24.601  20.131  14.003
75769CL-    CL-48194   3.448  31.069   3.195
75770CL-    CL-48195  39.440  10.272  13.417
75771CL-    CL-48196  42.873  11.864  14.292
75772CL-    CL-48197   1.432  11.842  13.024
75773CL-    CL-48198   1.977  13.760   2.266
75774CL-    CL-48199  29.064   7.349   1.231
75775CL-    CL-48200  25.612  19.555  13.924
75776CL-    CL-48201  43.428  39.932   2.773
75777CL-    CL-48202  43.816  22.714  13.870
75778CL-    CL-48203  19.194  42.021  11.966
75779CL-    CL-48204  11.252  23.009  13.472
75780CL-    CL-48205  43.815  44.787   1.292
75781CL-    CL-48206  28.947  31.924   2.205
75782CL-    CL-48207  23.623  28.598  11.375
75783CL-    CL-48208  41.515   7.172   2.837
75784CL-    CL-48209  39.820  22.615   1.367
75785CL-    CL-48210  29.051  42.391  13.921
75786CL-    CL-48211  16.785  21.132   1.313
75787CL-    CL-48212  33.110  18.233   2.217
75788CL-    CL-48213  22.115   2.270  12.420
75789CL-    CL-48214  12.343   1.466  12.861
75790CL-    CL-48215   4.909  33.610   3.320
75791CL-    CL-48216  24.115  34.023  11.948
75792CL-    CL-48217   5.428   3.289  12.962
75793CL-    CL-48218  36.906  35.514  13.891
75794CL-    CL-48219  44.753  35.369  11.559
75795CL-    CL-48220  30.606   2.728   0.260
75796CL-    CL-48221  19.143  38.435   0.840
75797CL-    CL-48222  36.851  12.845   2.782
75798CL-    CL-48223  18.558  27.490   3.343
75799CL-    CL-48224   6.195  24.584  14.967
75800CL-    CL-48225  33.896  36.414   2.869
75801CL-    CL-48226   5.710  44.880   4.712
75802CL-    CL-48227  44.859  44.774   4.793
75803CL-    CL-48228  33.584  41.365   1.422
75804CL-    CL-48229   4.288  23.060  10.544
75805CL-    CL-48230  18.099   2.417   1.826
75806CL-    CL-48231  20.707   1.384   0.799
75807CL-    CL-48232  22.139  10.245  13.320
75808CL-    CL-48233  31.545  12.187  14.823
75809CL-    CL-48234   4.396  34.479  13.872
75810CL-    CL-48235  42.944  13.766   0.338
75811CL-    CL-48236  13.236  25.157   2.771
75812CL-    CL-48237   9.278  29.469  14.922
75813CL-    CL-48238  32.636  34.887  12.836
75814CL-    CL-48239   1.964  29.944  13.041
75815CL-    CL-48240   8.265   2.875   2.342
75816CL-    CL-48241  33.120  23.670   1.363
75817CL-    CL-48242  21.666   9.798   5.778
75818CL-    CL-48243  18.700  13.711   1.321
75819CL-    CL-48244  17.253  38.927  13.493
75820CL-    CL-48245   0.798  41.866   4.293
75821CL-    CL-48246  19.574   1.318   4.650
75822CL-    CL-48247   7.372  39.028  14.769
75823CL-    CL-48248  37.409  31.931   3.237
75824CL-    CL-48249  41.825  32.631   2.815
75825CL-    CL-48250  25.517   8.731   3.647
75826CL-    CL-48251  14.613  11.646  10.966
75827CL-    CL-48252  40.890  25.575  12.047
75828CL-    CL-48253  24.156  17.625  14.348
75829CL-    CL-48254  28.151   8.313  10.897
75830CL-    CL-48255  13.767  35.107   0.385
75831CL-    CL-48256  33.894  28.578   4.714
75832CL-    CL-48257  15.274  20.719   3.201
75833CL-    CL-48258  28.584  13.698   2.665
75834CL-    CL-48259   8.758  13.122  11.530
75835CL-    CL-48260  33.922  26.569  10.524
75836CL-    CL-48261  31.619  33.610  10.628
75837CL-    CL-48262   6.312  11.274  12.056
75838CL-    CL-48263  42.791  33.549   2.188
75839CL-    CL-48264   6.281  35.444  11.577
75840CL-    CL-48265  30.639   6.902  11.000
75841CL-    CL-48266  32.468  42.905   0.849
75842CL-    CL-48267   3.318  11.266  14.380
75843CL-    CL-48268  32.027  14.154  12.955
75844CL-    CL-48269   0.766  16.285   1.230
75845CL-    CL-48270  26.162  13.295   4.208
75846CL-    CL-48271  18.135  43.355  14.405
75847CL-    CL-48272  37.846  37.003  13.407
75848CL-    CL-48273   1.339  30.993   2.808
75849CL-    CL-48274  29.474  12.711   1.240
75850CL-    CL-48275  28.458   8.159  12.881
75851CL-    CL-48276   0.821   3.817   2.718
75852CL-    CL-48277   2.908  16.090  11.486
75853CL-    CL-48278  16.686  24.675   3.382
75854CL-    CL-48279  30.998  43.277   2.872
75855CL-    CL-48280  10.814   7.817  10.543
75856CL-    CL-48281   1.472  12.781  11.565
75857CL-    CL-48282  34.086  24.205  13.847
75858CL-    CL-48283   4.783  17.100   0.292
75859CL-    CL-48284  18.587  36.392  13.018
75860CL-    CL-48285  32.632  16.583   0.426
75861CL-    CL-48286  19.078   0.362   1.344
75862CL-    CL-48287  19.165  40.465   2.750
75863CL-    CL-48288   8.722  24.614   1.798
75864CL-    CL-48289  24.531  36.483   1.245
75865CL-    CL-48290  25.676  17.092  12.351
75866CL-    CL-48291   2.811  21.642   1.276
75867CL-    CL-48292  38.505  40.317   4.344
75868CL-    CL-48293  17.684  36.018   2.752
75869CL-    CL-48294   8.395   0.882  10.540
75870CL-    CL-48295  33.932  43.288   4.807
75871CL-    CL-48296   4.861   6.857  12.991
75872CL-    CL-48297  17.248  35.600   4.291
75873CL-    CL-48298  38.020  32.074   2.225
75874CL-    CL-48299  27.997  33.551  11.921
75875CL-    CL-48300  39.847   0.839  11.529
75876CL-    CL-48301  35.099  36.015   3.320
75877CL-    CL-48302   6.350  16.642   3.227
75878CL-    CL-48303  25.033   3.339   3.371
75879CL-    CL-48304   5.423   6.303  11.372
75880CL-    CL-48305  34.590   1.318  11.085
75881CL-    CL-48306   0.795  25.468   4.837
75882CL-    CL-48307   3.381  27.479   2.708
75883CL-    CL-48308  30.942  37.924   3.702
75884CL-    CL-48309   9.279  24.617   1.790
75885CL-    CL-48310   7.885  37.887   4.712
75886CL-    CL-48311  44.439  26.594  11.562
75887CL-    CL-48312   9.203   6.380  14.948
75888CL-    CL-48313  32.037  37.989   0.879
75889CL-    CL-48314  42.418  17.091  10.564
75890CL-    CL-48315  21.595  20.701   0.336
75891CL-    CL-48316   3.402   0.281  10.893
75892CL-    CL-48317   2.787  21.140   3.773
75893CL-    CL-48318   6.807   0.944   2.261
75894CL-    CL-48319   8.791  18.174   4.196
75895CL-    CL-48320  38.560  18.733   0.406
75896CL-    CL-48321  23.590   4.253   2.204
75897CL-    CL-48322  29.608  19.087  12.354
75898CL-    CL-48323   1.472   0.879   0.837
75899CL-    CL-48324  38.532  29.528   2.298
75900CL-    CL-48325  10.688   3.387   1.802
75901CL-    CL-48326  24.675  18.624  10.591
75902CL-    CL-48327  13.785  14.779  11.460
75903CL-    CL-48328  24.526  15.316   0.750
75904CL-    CL-48329  43.430  16.575  13.945
75905CL-    CL-48330  31.490  35.366   2.222
75906CL-    CL-48331  23.214  25.057  10.989
75907CL-    CL-48332  26.458   0.407   1.309
75908CL-    CL-48333  39.952  20.258   0.336
75909CL-    CL-48334   5.310   6.869   1.893
75910CL-    CL-48335  39.918  18.634  11.378
75911CL-    CL-48336  38.907  31.477   4.674
75912CL-    CL-48337  24.509  36.509   2.240
75913CL-    CL-48338  24.159   3.443   0.305
75914CL-    CL-48339  28.450   1.925  12.503
75915CL-    CL-48340  15.736  41.516   3.780
75916CL-    CL-48341  26.648  15.189   3.187
75917CL-    CL-48342  15.193  33.533   3.343
75918CL-    CL-48343  34.445   0.409  14.465
75919CL-    CL-48344   5.914   2.760  11.604
75920CL-    CL-48345  31.141  40.857  10.609
75921CL-    CL-48346  41.366  19.182  10.090
75922CL-    CL-48347   0.970  25.499  11.449
75923CL-    CL-48348  12.332  35.881   2.255
75924CL-    CL-48349   4.773   2.776   0.780
75925CL-    CL-48350  13.781  37.075   0.248
75926CL-    CL-48351   7.682  42.947  12.876
75927CL-    CL-48352  43.881  13.735  11.868
75928CL-    CL-48353  30.606  26.151  11.398
75929CL-    CL-48354   8.241  13.774   1.306
75930CL-    CL-48355  35.547  31.616  10.515
75931CL-    CL-48356  17.770  38.383  12.888
75932CL-    CL-48357  17.697  42.781   4.766
75933CL-    CL-48358  27.978  42.888   2.812
75934CL-    CL-48359  44.503  23.602   3.376
75935CL-    CL-48360  12.253   0.286   4.335
75936CL-    CL-48361  32.944   9.699   4.131
75937CL-    CL-48362  18.719  42.358   4.287
75938CL-    CL-48363  32.391  15.265  13.860
75939CL-    CL-48364  36.429  32.411  13.941
75940CL-    CL-48365   7.879   1.251  13.794
75941CL-    CL-48366  33.597  27.145  13.412
75942CL-    CL-48367  23.544   5.228   4.780
75943CL-    CL-48368  32.608  10.714   2.742
75944CL-    CL-48369  21.576   6.751   0.352
75945CL-    CL-48370  29.039   4.735  14.877
75946CL-    CL-48371   1.977   4.436  10.467
75947CL-    CL-48372  23.616  37.067   0.261
75948CL-    CL-48373   0.418  21.554   0.379
75949CL-    CL-48374  34.547  15.815  12.432
75950CL-    CL-48375   7.770  28.006   1.301
75951CL-    CL-48376  35.955  10.784  13.450
75952CL-    CL-48377  42.853  29.568  12.870
75953CL-    CL-48378  26.539  25.640  11.899
75954CL-    CL-48379  32.016  39.978   9.920
75955CL-    CL-48380   8.377  16.306  12.087
75956CL-    CL-48381  33.925   6.401  12.390
75957CL-    CL-48382  13.727  40.007   2.814
75958CL-    CL-48383   5.930  17.217  10.521
75959CL-    CL-48384   2.237  12.777  14.990
75960CL-    CL-48385  40.902  35.363  13.905
75961CL-    CL-48386  41.936  32.057   3.730
75962CL-    CL-48387  23.734  23.235   1.907
75963CL-    CL-48388  44.274  31.448   2.841
75964CL-    CL-48389  18.166  21.634   3.201
75965CL-    CL-48390  27.056  35.936   1.307
75966CL-    CL-48391  20.068  17.257  12.838
75967CL-    CL-48392   7.833   9.384  10.980
75968CL-    CL-48393  33.440  24.685  11.962
75969CL-    CL-48394  20.184  39.001   9.980
75970CL-    CL-48395  19.629  12.825   0.372
75971CL-    CL-48396  14.722  17.130  14.454
75972CL-    CL-48397  10.781  23.678  11.517
75973CL-    CL-48398  25.180  15.146   4.324
75974CL-    CL-48399  20.684  41.520  10.481
75975CL-    CL-48400  16.102  20.126   4.343
75976CL-    CL-48401  34.043   2.327   2.699
75977CL-    CL-48402   1.333  25.078  11.068
75978CL-    CL-48403   4.399  29.090   1.396
75979CL-    CL-48404  20.712   1.395  11.433
75980CL-    CL-48405  39.520  19.627  10.574
75981CL-    CL-48406  42.885  27.129   2.213
75982CL-    CL-48407  23.024  19.186  12.372
75983CL-    CL-48408   6.381   6.767   4.804
75984CL-    CL-48409  21.569  43.821  10.954
75985CL-    CL-48410   2.899   9.775  13.027
75986CL-    CL-48411  16.777  11.727  14.831
75987CL-    CL-48412  32.542  30.069   3.773
75988CL-    CL-48413  31.424  16.073  11.522
75989CL-    CL-48414   6.372  18.676   2.398
75990CL-    CL-48415   1.357  34.386  11.913
75991CL-    CL-48416  43.301  23.489  12.014
75992CL-    CL-48417  13.202  33.547   4.158
75993CL-    CL-48418  16.677  13.784  13.024
75994CL-    CL-48419  16.571  25.552  10.548
75995CL-    CL-48420  23.209   1.852   2.670
75996CL-    CL-48421  16.094  22.558  14.785
75997CL-    CL-48422  13.775  30.149  14.802
75998CL-    CL-48423  22.627  37.066  10.943
75999CL-    CL-48424  43.978  42.453   4.207
76000CL-    CL-48425  13.199  21.632  13.548
76001CL-    CL-48426  43.294  30.102  13.054
76002CL-    CL-48427   5.910   9.783   4.783
76003CL-    CL-48428  37.451  17.298  12.366
76004CL-    CL-48429  41.916  39.045   3.247
76005CL-    CL-48430  22.095  32.055  11.058
76006CL-    CL-48431   4.292  35.094   3.206
76007CL-    CL-48432  36.948  40.830   2.816
76008CL-    CL-48433  39.481   9.191  10.962
76009CL-    CL-48434  28.616  41.909   5.587
76010CL-    CL-48435  42.496   2.773  10.598
76011CL-    CL-48436  17.789   5.808   1.410
76012CL-    CL-48437  15.583   3.938  10.894
76013CL-    CL-48438  12.808   3.935  13.469
76014CL-    CL-48439  17.088  25.600  10.524
76015CL-    CL-48440  23.059  35.954   4.261
76016CL-    CL-48441  44.902  19.750  14.283
76017CL-    CL-48442   6.188  34.931  11.425
76018CL-    CL-48443   0.916  30.575  14.898
76019CL-    CL-48444  41.405   1.289   3.754
76020CL-    CL-48445  28.089  30.991  12.560
76021CL-    CL-48446  25.041  21.040   4.344
76022CL-    CL-48447  19.079  24.120  13.882
76023CL-    CL-48448  15.780  32.579   9.510
76024CL-    CL-48449  35.045  14.795  14.422
76025CL-    CL-48450  36.001   7.417  12.845
76026CL-    CL-48451  13.676   6.704  14.417
76027CL-    CL-48452  16.215  38.073  12.549
76028CL-    CL-48453   9.296  26.043  11.089
76029CL-    CL-48454  23.192  28.986  13.996
76030CL-    CL-48455  17.707   5.802   4.240
76031CL-    CL-48456   0.353  24.592  12.062
76032CL-    CL-48457   0.939  24.606  12.430
76033CL-    CL-48458  19.720   8.831  10.517
76034CL-    CL-48459   6.858  30.920  10.640
76035CL-    CL-48460  34.916  33.527   1.901
76036CL-    CL-48461  25.532  39.812   1.865
76037CL-    CL-48462  11.352   1.326  12.412
76038CL-    CL-48463   6.363  12.349  11.453
76039CL-    CL-48464  21.226  37.988  13.971
76040CL-    CL-48465   1.857  17.569   1.931
76041CL-    CL-48466  41.305  29.957  14.027
76042CL-    CL-48467  38.518   8.401  10.954
76043CL-    CL-48468  35.926   8.782   3.780
76044CL-    CL-48469  39.447  38.326   0.824
76045CL-    CL-48470  21.703  42.803   2.382
76046CL-    CL-48471  18.205   9.249  11.990
76047CL-    CL-48472  39.835   4.892  11.395
76048CL-    CL-48473  43.810   4.401   1.784
76049CL-    CL-48474   8.674  13.205   3.370
76050CL-    CL-48475  36.928   6.854  11.944
76051CL-    CL-48476  25.103  37.029   4.186
76052CL-    CL-48477  13.194  22.138  13.844
76053CL-    CL-48478  31.090  35.379  13.896
76054CL-    CL-48479   7.689  37.503   0.306
76055CL-    CL-48480  10.226  26.498  12.976
76056CL-    CL-48481   2.917  13.200   4.654
76057CL-    CL-48482  11.634  37.011  10.981
76058CL-    CL-48483  22.196  18.608  11.042
76059CL-    CL-48484  27.177  43.943  13.887
76060CL-    CL-48485   0.467  12.119   0.267
76061CL-    CL-48486  15.601  21.153   2.708
76062CL-    CL-48487  24.183  31.015   1.885
76063CL-    CL-48488  12.330  20.176   0.816
76064CL-    CL-48489  10.824  22.622  13.862
76065CL-    CL-48490  35.483  44.397  14.839
76066CL-    CL-48491   5.752  12.128  10.415
76067CL-    CL-48492  19.595   2.307   2.377
76068CL-    CL-48493  29.114  27.457  11.962
76069CL-    CL-48494   8.791   8.350   2.338
76070CL-    CL-48495  13.809  15.161  13.030
76071CL-    CL-48496   8.801  35.387   3.265
76072CL-    CL-48497  25.515   3.292  11.855
76073CL-    CL-48498  11.242  26.635   3.816
76074CL-    CL-48499  12.148  27.452  11.450
76075CL-    CL-48500  42.450   6.330  11.085
76076CL-    CL-48501  20.616  27.949  14.999
76077CL-    CL-48502  18.627  39.009  13.953
76078CL-    CL-48503  40.529  37.381   0.279
76079CL-    CL-48504   2.272  11.198  13.926
76080CL-    CL-48505  41.003   3.307   1.274
76081CL-    CL-48506  11.771  30.946  11.426
76082CL-    CL-48507  35.936  23.020   2.210
76083CL-    CL-48508  14.680  10.678   3.778
76084CL-    CL-48509   4.761   1.444  11.418
76085CL-    CL-48510  19.729  11.308  12.066
76086CL-    CL-48511  17.724   4.816   4.230
76087CL-    CL-48512  21.065   4.925   2.676
76088CL-    CL-48513  40.433   6.340   4.249
76089CL-    CL-48514  19.158  15.152  13.868
76090CL-    CL-48515  32.005  39.325   2.213
76091CL-    CL-48516  18.688   5.309  12.935
76092CL-    CL-48517  41.460  23.061   1.216
76093CL-    CL-48518   1.827  13.229  11.088
76094CL-    CL-48519  13.838  41.421  13.832
76095CL-    CL-48520  11.353  29.507  13.375
76096CL-    CL-48521  27.985  33.442  13.011
76097CL-    CL-48522  12.341  21.261  10.063
76098CL-    CL-48523  43.823  44.495   3.281
76099CL-    CL-48524  16.800  18.200   4.288
76100CL-    CL-48525  28.044  18.565   2.236
76101CL-    CL-48526  37.929  40.886  11.114
76102CL-    CL-48527  26.077  42.797  14.843
76103CL-    CL-48528  21.547  27.165   1.234
76104CL-    CL-48529  13.259  40.356  13.413
76105CL-    CL-48530   3.257   7.236  10.016
76106CL-    CL-48531  29.438  44.350  11.003
76107CL-    CL-48532   5.286   5.907   2.788
76108CL-    CL-48533  12.774  15.706   1.897
76109CL-    CL-48534  21.731  14.229  11.022
76110CL-    CL-48535  18.145  44.828  14.810
76111CL-    CL-48536  13.662  35.359  14.449
76112CL-    CL-48537  20.669  29.168  10.424
76113CL-    CL-48538  29.111  18.688  11.527
76114CL-    CL-48539  21.211   5.259  11.606
76115CL-    CL-48540  36.077   3.820  13.396
76116CL-    CL-48541  27.561  26.199  10.981
76117CL-    CL-48542  25.624   9.728   0.449
76118CL-    CL-48543  18.659  31.903  13.862
76119CL-    CL-48544   8.828  25.506   4.619
76120CL-    CL-48545   1.403  29.949  10.999
76121CL-    CL-48546  44.476   4.902   5.196
76122CL-    CL-48547   6.700   0.397  10.502
76123CL-    CL-48548  25.007  40.480  12.384
76124CL-    CL-48549  12.700   5.329   2.798
76125CL-    CL-48550  36.926  39.912   4.732
76126CL-    CL-48551  19.147  38.023   3.818
76127CL-    CL-48552  32.466  12.649  10.528
76128CL-    CL-48553  21.251  19.254   2.354
76129CL-    CL-48554  34.532   4.424  12.871
76130CL-    CL-48555  30.446  33.019   1.747
76131CL-    CL-48556  14.705   0.250  13.062
76132CL-    CL-48557  43.918  18.225   4.297
76133CL-    CL-48558  36.567  36.463  13.381
76134CL-    CL-48559   1.358   7.205  11.424
76135CL-    CL-48560  35.478  38.938   1.384
76136CL-    CL-48561   1.775   6.877  14.876
76137CL-    CL-48562  42.827  43.461   1.398
76138CL-    CL-48563  24.114  31.573  10.467
76139CL-    CL-48564   4.245  28.098  14.287
76140CL-    CL-48565  40.478  31.093   2.206
76141CL-    CL-48566  22.058  27.143  11.056
76142CL-    CL-48567  31.150  42.471   0.954
76143CL-    CL-48568  32.474   4.289  12.934
76144CL-    CL-48569  35.073  17.564   4.657
76145CL-    CL-48570   7.351  41.866  12.010
76146CL-    CL-48571  24.982   1.950   0.893
76147CL-    CL-48572   1.342   7.214  13.513
76148CL-    CL-48573  29.127  17.131   3.688
76149CL-    CL-48574  36.851  15.327   4.328
76150CL-    CL-48575   5.863   5.332   4.151
76151CL-    CL-48576  27.173   6.201   2.774
76152CL-    CL-48577   8.797  18.125   3.382
76153CL-    CL-48578  37.918  26.492   3.246
76154CL-    CL-48579  14.153  20.234  14.400
76155CL-    CL-48580   1.293  13.601  11.930
76156CL-    CL-48581  16.715  23.991  14.792
76157CL-    CL-48582  22.089  31.101   2.200
76158CL-    CL-48583  30.984  21.123   2.888
76159CL-    CL-48584  21.165  19.770  12.509
76160CL-    CL-48585  31.931  22.635  13.950
76161CL-    CL-48586   9.833  38.913  14.866
76162CL-    CL-48587  29.074  17.298   4.783
76163CL-    CL-48588  16.091  34.580   1.327
76164CL-    CL-48589  28.508  11.309  13.938
76165CL-    CL-48590   0.408  30.114  13.928
76166CL-    CL-48591  14.121   2.892  11.491
76167CL-    CL-48592  14.729  27.640   3.380
76168CL-    CL-48593  25.102  34.380   0.454
76169CL-    CL-48594  29.455  30.455  12.489
76170CL-    CL-48595  26.041   1.766   4.167
76171CL-    CL-48596  29.934  11.176  11.957
76172CL-    CL-48597   0.273   5.212   4.613
76173CL-    CL-48598  11.730  26.150  14.499
76174CL-    CL-48599  32.127  15.731  12.566
76175CL-    CL-48600  25.208  21.242   0.938
76176CL-    CL-48601  33.475  11.286   2.899
76177CL-    CL-48602   4.407   0.407   0.451
76178CL-    CL-48603  30.414  32.637  11.007
76179CL-    CL-48604   0.283  17.113   3.759
76180CL-    CL-48605  19.253  24.032   1.293
76181CL-    CL-48606  31.088  26.200  12.063
76182CL-    CL-48607  31.102  28.985  11.520
76183CL-    CL-48608  37.943  26.118   4.793
76184CL-    CL-48609  14.191   1.386   2.802
76185CL-    CL-48610  39.892  16.799  10.616
76186CL-    CL-48611  11.316  17.654   1.315
76187CL-    CL-48612  19.677  23.549  13.337
76188CL-    CL-48613  29.019  10.307  13.420
76189CL-    CL-48614  41.383  32.489  11.438
76190CL-    CL-48615  19.538  41.446  10.520
76191CL-    CL-48616  41.433  35.478  10.556
76192CL-    CL-48617  17.583  43.911   1.235
76193CL-    CL-48618  38.497  32.060   5.262
76194CL-    CL-48619  15.651  31.621  10.157
76195CL-    CL-48620   4.876   4.861   4.148
76196CL-    CL-48621  32.538  37.520  10.614
76197CL-    CL-48622  32.566  25.024   1.842
76198CL-    CL-48623   1.828  27.127   1.825
76199CL-    CL-48624   0.467  25.137   3.773
76200CL-    CL-48625   5.694  41.965   3.346
76201CL-    CL-48626  13.171  21.548   1.765
76202CL-    CL-48627  43.819  25.568  12.510
76203CL-    CL-48628  11.625   0.883   1.398
76204CL-    CL-48629  39.966   0.465  11.934
76205CL-    CL-48630  33.565  13.170  12.824
76206CL-    CL-48631  14.154  35.093   1.351
76207CL-    CL-48632   8.335  27.032  12.443
76208CL-    CL-48633  40.322  28.522   2.288
76209CL-    CL-48634  29.430   2.384  12.457
76210CL-    CL-48635  22.139  32.507  10.915
76211CL-    CL-48636  39.378  36.589   0.377
76212CL-    CL-48637  40.830  11.338   4.733
76213CL-    CL-48638  34.429  13.164  14.023
76214CL-    CL-48639  18.680  14.267   1.445
76215CL-    CL-48640  27.455  15.756  10.534
76216CL-    CL-48641  39.352  18.615  11.038
76217CL-    CL-48642  19.072  43.884   1.819
76218CL-    CL-48643  30.118  39.896  12.484
76219CL-    CL-48644   0.462  40.385  12.034
76220CL-    CL-48645  18.682  24.111   3.797
76221CL-    CL-48646  19.682   6.905   3.806
76222CL-    CL-48647   6.358  13.118  13.900
76223CL-    CL-48648  34.940  20.173   3.160
76224CL-    CL-48649  42.292  31.901   4.328
76225CL-    CL-48650  30.641   7.188   0.409
76226CL-    CL-48651  39.527   8.716  12.550
76227CL-    CL-48652  40.514  31.570  12.914
76228CL-    CL-48653  21.682  27.093  12.087
76229CL-    CL-48654  25.111  28.047   3.832
76230CL-    CL-48655  19.769  30.645  11.952
76231CL-    CL-48656   2.409   5.292  11.464
76232CL-    CL-48657   8.336  30.639   4.825
76233CL-    CL-48658  21.711  42.889  12.488
76234CL-    CL-48659  36.488   9.172  11.560
76235CL-    CL-48660  26.184  20.243   3.635
76236CL-    CL-48661  11.335  43.943  11.378
76237CL-    CL-48662  22.209   4.205   0.404
76238CL-    CL-48663  24.203   3.324  10.419
76239CL-    CL-48664  28.487  44.344   3.232
76240CL-    CL-48665  21.607  33.445  14.321
76241CL-    CL-48666  18.259  21.187  11.905
76242CL-    CL-48667  27.515   7.865  13.885
76243CL-    CL-48668   2.372   7.839   2.199
76244CL-    CL-48669  19.542  29.656  12.897
76245CL-    CL-48670  25.000  44.962  14.401
76246CL-    CL-48671  24.514   8.890   0.416
76247CL-    CL-48672  33.581   0.883  11.449
76248CL-    CL-48673   9.162  43.020   9.992
76249CL-    CL-48674  27.522  21.662   2.342
76250CL-    CL-48675  44.956  42.423   4.827
76251CL-    CL-48676  11.627  33.072  13.797
76252CL-    CL-48677   6.834  12.264  14.893
76253CL-    CL-48678   2.340  41.863  11.466
76254CL-    CL-48679  12.266  43.493   1.256
76255CL-    CL-48680  28.133  13.807   2.394
76256CL-    CL-48681   0.845  33.994   3.314
76257CL-    CL-48682  38.371   1.928   3.269
76258CL-    CL-48683   4.921   4.843   1.300
76259CL-    CL-48684  38.043  33.087   1.393
76260CL-    CL-48685  43.858   1.946   1.725
76261CL-    CL-48686   2.732  32.487  10.542
76262CL-    CL-48687  13.608  44.893   0.252
76263CL-    CL-48688  37.020  40.543   2.357
76264CL-    CL-48689  27.459  21.631  13.347
76265CL-    CL-48690   9.868  23.214  10.588
76266CL-    CL-48691  17.226  36.938   4.778
76267CL-    CL-48692  30.466  34.954   4.133
76268CL-    CL-48693  19.184  22.673   4.311
76269CL-    CL-48694  15.112   9.149  14.384
76270CL-    CL-48695   0.980   4.898  12.354
76271CL-    CL-48696  41.475  16.712   2.358
76272CL-    CL-48697  14.776  26.675  12.955
76273CL-    CL-48698  31.974  23.661   3.630
76274CL-    CL-48699  18.053   0.366  14.861
76275CL-    CL-48700  43.787  30.439   3.667
76276CL-    CL-48701   5.707  41.367   3.702
76277CL-    CL-48702  25.708  31.570   5.095
76278CL-    CL-48703  40.375   0.842   0.431
76279CL-    CL-48704  13.830  23.627  14.779
76280CL-    CL-48705  16.707  37.527  12.536
76281CL-    CL-48706  11.853   8.219  14.431
76282CL-    CL-48707  21.134  44.441   0.940
76283CL-    CL-48708  37.549  28.468   2.291
76284CL-    CL-48709  22.219  37.568   2.765
76285CL-    CL-48710  42.412  26.004   1.910
76286CL-    CL-48711  29.667  19.753  12.014
76287CL-    CL-48712  38.005  35.019  12.987
76288CL-    CL-48713  37.963  27.157   4.813
76289CL-    CL-48714  29.564  37.075   1.904
76290CL-    CL-48715  10.712  42.385   0.963
76291CL-    CL-48716  39.342   3.759   4.288
76292CL-    CL-48717  16.072  39.907  13.045
76293CL-    CL-48718  36.885  39.979  14.920
76294CL-    CL-48719   8.691   6.831   0.333
76295CL-    CL-48720  40.312  37.844   1.234
76296CL-    CL-48721  23.008  22.091  12.870
76297CL-    CL-48722  16.799  22.022  10.624
76298CL-    CL-48723  28.042  26.604   2.199
76299CL-    CL-48724  20.636   6.718   0.739
76300CL-    CL-48725   0.396  22.715  10.620
76301CL-    CL-48726   4.774  38.003   4.779
76302CL-    CL-48727   9.246  37.523   4.721
76303CL-    CL-48728  15.771  13.265  11.448
76304CL-    CL-48729  14.748  42.307   0.893
76305CL-    CL-48730  13.706  35.986  10.987
76306CL-    CL-48731  19.224  20.757   1.248
76307CL-    CL-48732   1.935   3.828  11.874
76308CL-    CL-48733  31.080  34.464  14.953
76309CL-    CL-48734  41.961  31.617   0.253
76310CL-    CL-48735  18.263  24.703  13.536
76311CL-    CL-48736  14.211  32.456   2.233
76312CL-    CL-48737   8.275   0.764   3.367
76313CL-    CL-48738  10.747   0.753   1.813
76314CL-    CL-48739  14.311   2.763   0.390
76315CL-    CL-48740   6.841   2.301  10.488
76316CL-    CL-48741  30.086  43.967  11.457
76317CL-    CL-48742  19.714  20.212  11.609
76318CL-    CL-48743  14.227  18.655   0.435
76319CL-    CL-48744  32.396  39.002  10.565
76320CL-    CL-48745  44.333  10.810  14.516
76321CL-    CL-48746  29.086  37.401  14.826
76322CL-    CL-48747  33.917  43.791   3.681
76323CL-    CL-48748  10.661  13.764  10.515
76324CL-    CL-48749  42.460  19.676   2.298
76325CL-    CL-48750  26.992  23.003  11.510
76326CL-    CL-48751  23.233  16.130  13.955
76327CL-    CL-48752  16.676  19.534   2.332
76328CL-    CL-48753  42.970   5.739   2.364
76329CL-    CL-48754  18.597  44.005  10.416
76330CL-    CL-48755  21.226   5.216   2.681
76331CL-    CL-48756  42.291  13.758  12.481
76332CL-    CL-48757  23.176  43.012  12.854
76333CL-    CL-48758  19.284  36.988   0.842
76334CL-    CL-48759  39.012  22.054  12.363
76335CL-    CL-48760  12.753  40.047   3.809
76336CL-    CL-48761  29.983  10.289  13.462
76337CL-    CL-48762  11.646   0.427  14.415
76338CL-    CL-48763  16.301  13.773  11.857
76339CL-    CL-48764   8.406  17.757   2.694
76340CL-    CL-48765  28.538  31.416  13.429
76341CL-    CL-48766  24.161  27.961  11.958
76342CL-    CL-48767   0.861  13.666  14.809
76343CL-    CL-48768  20.043   4.411  13.849
76344CL-    CL-48769  43.439  41.786   4.662
76345CL-    CL-48770  30.934  24.568  14.389
76346CL-    CL-48771  18.176   7.388  14.362
76347CL-    CL-48772   4.740   6.277  13.869
76348CL-    CL-48773  28.099  16.178  14.373
76349CL-    CL-48774  36.060  28.526   0.833
76350CL-    CL-48775  35.454  44.284   4.617
76351CL-    CL-48776  26.548  17.255  10.553
76352CL-    CL-48777  14.267  33.009   3.723
76353CL-    CL-48778  24.206  40.540  13.339
76354CL-    CL-48779  16.111  25.621   2.196
76355CL-    CL-48780  33.074  33.939   2.744
76356CL-    CL-48781  38.986   1.412   2.396
76357CL-    CL-48782  28.454  20.199  14.804
76358CL-    CL-48783  44.812   2.295  13.433
76359CL-    CL-48784   5.785  33.073  12.088
76360CL-    CL-48785  16.789  31.119   0.938
76361CL-    CL-48786  20.266  19.749   4.221
76362CL-    CL-48787  36.943  29.468   4.115
76363CL-    CL-48788  30.602  35.055   4.727
76364CL-    CL-48789  15.693  25.155   0.772
76365CL-    CL-48790  16.651   7.376   4.237
76366CL-    CL-48791  44.483  19.623  11.569
76367CL-    CL-48792   8.787  13.752   4.198
76368CL-    CL-48793  36.475  21.732  12.893
76369CL-    CL-48794  16.110   2.814   0.777
76370CL-    CL-48795  29.512  34.055   3.334
76371CL-    CL-48796  11.703  33.898  12.073
76372CL-    CL-48797   6.690  19.059  11.586
76373CL-    CL-48798  35.105  44.993   2.289
76374CL-    CL-48799  42.401  42.020   0.801
  45.00000  45.00000  15.00000   0.00000   0.00000   0.00000   0.00000   0.00000   0.00000

